DG-THF-PF6-Na    Amber RESP
15370
    1DG      C1    1   1.762   2.659   3.661  0.4823  0.2487  0.5936
    1DG      C2    2   1.896   3.113   4.137 -0.0211 -0.0475  0.8973
    1DG      H3    3   1.676   2.630   3.601  0.8730  0.2618  0.0271
    1DG      H4    4   1.774   2.586   3.742 -0.5840 -0.2861  0.2976
    1DG      H5    5   1.846   2.638   3.596 -1.5259 -0.5847 -1.9101
    1DG      H6    6   1.926   3.022   4.189  0.4108 -0.3817  0.0750
    1DG      H7    7   1.990   3.162   4.112  0.4257 -1.5775 -0.6457
    1DG      H8    8   1.845   3.172   4.213  1.5262  0.8286  1.2910
    1DG      O9    9   1.751   2.789   3.703  0.3048 -0.2949  0.1685
    1DG     O10   10   1.804   3.076   4.032  0.9714 -0.4175  0.1303
    1DG     C11   11   1.735   2.879   3.593 -0.3733  0.1605 -0.8675
    1DG     C12   12   1.772   3.182   3.947 -0.1640  0.6163 -0.6177
    1DG     H13   13   1.665   2.840   3.520  0.2683  1.7852 -2.4206
    1DG     H14   14   1.830   2.892   3.542 -0.7803  0.7023 -1.4939
    1DG     H15   15   1.862   3.231   3.909  0.2562  0.4613  0.1574
    1DG     H16   16   1.717   3.251   4.011 -1.9197  0.3735 -1.8018
    1DG     C17   17   1.685   3.014   3.629  0.3933  0.1544 -0.3784
    1DG     C18   18   1.676   3.148   3.834  0.4941 -0.4846 -1.1500
    1DG     O19   19   1.741   3.053   3.754  0.4255  0.0400 -0.1172
    1DG     H20   20   1.576   3.008   3.635  0.4554  0.3668  1.8940
    1DG     H21   21   1.711   3.080   3.546 -0.7836  0.7214 -0.3264
    1DG     H22   22   1.583   3.106   3.871 -0.1604  0.3542 -1.8030
    1DG     H23   23   1.669   3.235   3.768 -0.1611  0.1689 -0.2510
    2DG      C1   24   0.401   5.189   3.335  0.2088 -0.1021  0.4796
    2DG      C2   25   0.344   4.615   2.999  0.1240  0.9468 -0.2323
    2DG      H3   26   0.389   5.283   3.389  2.4236 -0.0937  1.0394
    2DG      H4   27   0.432   5.212   3.233  0.3906 -0.1229  0.5293
    2DG      H5   28   0.486   5.129   3.368  0.8163 -0.4113 -1.5314
    2DG      H6   29   0.332   4.506   3.001  1.6748  0.6226 -2.9607
    2DG      H7   30   0.285   4.633   2.909 -1.0142 -0.5138  0.1816
    2DG      H8   31   0.447   4.639   2.972  1.2374 -1.5250  1.4684
    2DG      O9   32   0.281   5.108   3.315  0.1835 -0.2335 -0.4601
    2DG     O10   33   0.297   4.674   3.117 -0.0953  0.3904 -0.5361
    2DG     C11   34   0.233   5.050   3.436  0.6073 -0.0294 -0.3042
    2DG     C12   35   0.153   4.677   3.129  0.0729 -0.4175  0.4846
    2DG     H13   36   0.187   5.126   3.499 -2.8984 -2.7498  0.7189
    2DG     H14   37   0.321   5.007   3.485 -1.4520 -2.6937  1.3770
    2DG     H15   38   0.116   4.575   3.132  0.6525 -0.6448  0.1028
    2DG     H16   39   0.119   4.720   3.035  1.7387  1.2853  0.6052
    2DG     C17   40   0.131   4.940   3.410 -0.4091 -1.0081  0.5902
    2DG     C18   41   0.108   4.744   3.261  0.3648 -0.3253 -0.0309
    2DG     O19   42   0.176   4.865   3.289 -0.5128 -0.2801 -0.7535
    2DG     H20   43   0.035   4.988   3.392 -1.3517 -2.4446  1.5934
    2DG     H21   44   0.120   4.880   3.500 -2.6898  2.3102  2.7198
    2DG     H22   45   0.003   4.770   3.251  0.7962  1.0935 -1.2184
    2DG     H23   46   0.110   4.665   3.337 -1.2845 -0.3183  0.0511
    3DG      C1   47   5.032   0.469   0.446 -0.2734 -0.0465 -0.4289
    3DG      C2   48   4.547  -0.053   0.718  0.2503  0.1150 -0.6883
    3DG      H3   49   5.140   0.461   0.432 -0.0942 -0.6887  1.1316
    3DG      H4   50   4.994   0.567   0.476 -2.6747 -1.0157 -0.0526
    3DG      H5   51   4.992   0.460   0.345  0.5690  1.3631 -0.9054
    3DG      H6   52   4.487  -0.064   0.628 -0.3812  1.4498 -0.4578
    3DG      H7   53   4.529  -0.138   0.784 -2.1011 -1.3238 -3.0553
    3DG      H8   54   4.503   0.034   0.767  2.1007  1.0245 -0.5163
    3DG      O9   55   4.989   0.363   0.529  0.1141  0.3448  0.0293
    3DG     O10   56   4.684  -0.034   0.683  0.1766 -0.0653  0.0761
    3DG     C11   57   4.852   0.339   0.519  0.0163  0.2838  0.2316
    3DG     C12   58   4.754   0.001   0.800  0.4030 -0.2765  0.6179
    3DG     H13   59   4.816   0.354   0.417 -1.8808 -1.3515  0.6033
    3DG     H14   60   4.793   0.403   0.585 -0.2174 -1.0091  1.3297
    3DG     H15   61   4.757  -0.074   0.878 -2.5635  0.2803  1.4225
    3DG     H16   62   4.698   0.082   0.849 -2.2514 -1.4512 -0.2672
    3DG     C17   63   4.838   0.192   0.564 -0.2466  0.2163  0.1636
    3DG     C18   64   4.897   0.040   0.754  0.1967 -0.6963  0.3882
    3DG     O19   65   4.899   0.174   0.689  0.1049 -0.0613  0.2421
    3DG     H20   66   4.890   0.129   0.492  0.1310 -1.5087  1.8441
    3DG     H21   67   4.733   0.161   0.562  0.1520 -1.5323  2.2780
    3DG     H22   68   4.959   0.056   0.842  0.5011 -1.9851  0.4341
    3DG     H23   69   4.934  -0.040   0.690  0.3689 -0.2627 -0.0635
    4DG      C1   70   1.852   1.939   0.546  0.1410  0.6628  0.3506
    4DG      C2   71   2.433   1.756   0.951  0.2670  0.1254  0.0483
    4DG      H3   72   1.871   1.910   0.443 -0.1060 -0.7938  0.6973
    4DG      H4   73   1.933   2.009   0.567 -0.0043  0.8277  0.3629
    4DG      H5   74   1.753   1.984   0.549 -1.2044 -1.4880 -3.7373
    4DG      H6   75   2.379   1.835   1.005  0.4070  1.2570 -1.3921
    4DG      H7   76   2.491   1.701   1.025 -0.3848 -0.6376  0.0062
    4DG      H8   77   2.505   1.808   0.888 -1.7659  1.3621 -1.3678
    4DG      O9   78   1.870   1.823   0.636 -0.0856 -0.2457  0.2600
    4DG     O10   79   2.343   1.680   0.874  0.2196 -0.6763 -0.1282
    4DG     C11   80   1.982   1.740   0.595 -0.3499  0.4972  0.3362
    4DG     C12   81   2.262   1.595   0.950 -0.6910  0.0024  0.0234
    4DG     H13   82   2.075   1.798   0.598  1.8643 -2.7266 -0.1276
    4DG     H14   83   1.973   1.711   0.490  0.5386  1.6330 -0.0786
    4DG     H15   84   2.195   1.640   1.023  0.1705  0.9774  0.2303
    4DG     H16   85   2.312   1.509   0.995  1.3797  1.5576  0.8910
    4DG     C17   86   2.006   1.616   0.684 -0.3418 -0.0347  0.1757
    4DG     C18   87   2.152   1.540   0.855 -0.0025  0.4720  0.0042
    4DG     O19   88   2.111   1.646   0.774  0.4990 -0.0738 -0.2686
    4DG     H20   89   2.040   1.533   0.623  0.4943 -0.8631  1.7270
    4DG     H21   90   1.915   1.610   0.744 -0.8197  0.1089 -0.5225
    4DG     H22   91   2.196   1.463   0.791  2.8313  2.2651 -0.3889
    4DG     H23   92   2.066   1.508   0.913  1.3372  2.2463  3.2290
    5DG      C1   93   5.193   3.610   3.897  0.0600 -0.4740 -0.5143
    5DG      C2   94   5.101   2.799   3.813 -0.2438 -0.0965 -0.2247
    5DG      H3   95   5.282   3.587   3.838 -2.6418 -3.8451 -3.7020
    5DG      H4   96   5.207   3.586   4.003  2.0403 -0.3480 -0.7006
    5DG      H5   97   5.170   3.716   3.887  1.6398  0.0876  1.2054
    5DG      H6   98   5.163   2.790   3.902 -0.6125  0.2520  0.0743
    5DG      H7   99   5.004   2.749   3.813 -1.6008  2.4004 -0.7679
    5DG      H8  100   5.160   2.772   3.725  0.9370  1.3785  0.0908
    5DG      O9  101   5.086   3.534   3.841 -0.0236  0.1571  0.1370
    5DG     O10  102   5.085   2.944   3.804  0.2318 -0.0089  0.4947
    5DG     C11  103   5.124   3.402   3.818 -0.1532  0.4055 -0.5810
    5DG     C12  104   5.027   2.992   3.685 -0.0760  0.1158  0.4766
    5DG     H13  105   5.164   3.357   3.909 -0.8838 -0.3949 -0.6503
    5DG     H14  106   5.199   3.405   3.739  0.4166 -1.4159 -0.1524
    5DG     H15  107   4.921   2.969   3.691 -0.5666  2.2421  0.8433
    5DG     H16  108   5.064   2.936   3.599  0.0391  0.8975  0.0116
    5DG     C17  109   4.983   3.338   3.794 -0.9956  0.6533 -0.3542
    5DG     C18  110   5.046   3.140   3.671 -0.0750  0.5504  0.4467
    5DG     O19  111   5.001   3.199   3.788  0.2269  0.0006 -0.0072
    5DG     H20  112   4.922   3.376   3.712 -2.8387 -1.5162 -0.1110
    5DG     H21  113   4.930   3.350   3.889 -0.4960 -1.1085  0.1903
    5DG     H22  114   5.150   3.155   3.644  0.6527  1.0934  3.1902
    5DG     H23  115   4.977   3.167   3.591  1.3593  0.4784 -0.8385
    6DG      C1  116   2.964   1.206   4.208  0.1974 -0.6283  0.0829
    6DG      C2  117   2.914   1.727   4.075 -0.9852  0.3173  0.6295
    6DG      H3  118   2.996   1.250   4.303 -0.3172  0.1297 -0.0885
    6DG      H4  119   3.051   1.190   4.144  0.4608 -1.2717  0.5848
    6DG      H5  120   2.914   1.114   4.239  0.7736 -0.5488  1.3335
    6DG      H6  121   2.889   1.633   4.125  2.5517 -1.1255 -0.0353
    6DG      H7  122   2.979   1.694   3.995  0.8597  1.6390  1.5014
    6DG      H8  123   2.978   1.785   4.142  1.5241 -1.3153 -0.2423
    6DG      O9  124   2.873   1.301   4.152 -0.5726 -0.2656 -0.4413
    6DG     O10  125   2.787   1.779   4.040  0.2020  0.4257  0.0348
    6DG     C11  126   2.861   1.288   4.012 -0.5626  0.4060 -0.3121
    6DG     C12  127   2.742   1.746   3.912 -0.2814 -0.4885  0.4706
    6DG     H13  128   2.835   1.183   3.995 -0.6843  0.4905 -0.6698
    6DG     H14  129   2.954   1.313   3.960 -0.5478  1.1217  0.0553
    6DG     H15  130   2.820   1.770   3.841 -1.6246  0.0446 -0.8676
    6DG     H16  131   2.659   1.809   3.882 -0.0388 -0.3267  0.1343
    6DG     C17  132   2.751   1.377   3.959 -0.4143 -0.3141  0.6243
    6DG     C18  133   2.691   1.604   3.911  1.1488 -0.0157  0.3064
    6DG     O19  134   2.788   1.516   3.956  0.0881 -0.0728 -0.0425
    6DG     H20  135   2.656   1.361   4.009 -0.0694  0.2763  1.4803
    6DG     H21  136   2.719   1.350   3.858 -1.0462 -1.1940  1.0406
    6DG     H22  137   2.602   1.592   3.973  1.7069  1.7605  1.5074
    6DG     H23  138   2.665   1.576   3.809  1.2935 -1.3943  0.6292
    7DG      C1  139   4.658   3.552   3.926  0.0220  0.6149 -0.3205
    7DG      C2  140   4.200   3.170   3.506 -0.1675 -0.3806 -0.4617
    7DG      H3  141   4.645   3.593   4.026 -1.2670  1.2383 -0.7283
    7DG      H4  142   4.653   3.639   3.861 -1.1641  1.3777  0.7439
    7DG      H5  143   4.758   3.508   3.930  0.2966  0.9591  5.4879
    7DG      H6  144   4.268   3.206   3.429 -0.6997  2.5332  0.2881
    7DG      H7  145   4.165   3.068   3.489 -0.5701 -0.5947  1.4455
    7DG      H8  146   4.117   3.240   3.505  1.0209  1.1176  0.0158
    7DG      O9  147   4.553   3.457   3.904 -0.3270 -0.2450  0.6516
    7DG     O10  148   4.264   3.178   3.637  0.1998  0.3626  0.1904
    7DG     C11  149   4.565   3.347   3.989  0.2533  0.4424  0.2465
    7DG     C12  150   4.177   3.185   3.746 -0.7298 -0.7640 -0.2818
    7DG     H13  151   4.598   3.370   4.090 -0.4510  2.3117  0.0891
    7DG     H14  152   4.642   3.283   3.947 -0.4684 -0.1530 -0.2025
    7DG     H15  153   4.090   3.119   3.742  1.7713 -4.2472 -1.2633
    7DG     H16  154   4.141   3.288   3.749 -0.3997 -0.5554 -2.1173
    7DG     C17  155   4.430   3.272   4.003 -0.3203  0.1128 -0.0062
    7DG     C18  156   4.264   3.155   3.871  0.0582  0.8052  0.0103
    7DG     O19  157   4.389   3.235   3.873  0.0670  0.2777  0.2250
    7DG     H20  158   4.355   3.323   4.062 -1.2861 -0.0790 -1.0393
    7DG     H21  159   4.444   3.182   4.063 -1.3548  0.8792  1.4330
    7DG     H22  160   4.189   3.172   3.948 -2.7729 -1.9139 -1.8688
    7DG     H23  161   4.293   3.051   3.863  2.0585  1.4107 -1.3808
    8DG      C1  162   0.508   3.383   3.859 -0.8193  0.4012  0.0601
    8DG      C2  163   0.828   2.810   3.709  0.0972  0.3829 -0.1683
    8DG      H3  164   0.589   3.397   3.930 -1.3018 -1.5418  1.0862
    8DG      H4  165   0.431   3.343   3.925  0.0430  0.9635  1.4610
    8DG      H5  166   0.484   3.481   3.817  2.0159  1.9129  1.6936
    8DG      H6  167   0.891   2.853   3.786  1.8679 -1.5599 -0.4316
    8DG      H7  168   0.759   2.733   3.741 -1.1954  0.2630 -2.9206
    8DG      H8  169   0.887   2.759   3.633  1.0781 -0.7741  1.3166
    8DG      O9  170   0.532   3.297   3.755 -0.1836  0.2470  0.1093
    8DG     O10  171   0.765   2.919   3.652 -0.2254 -0.7099  0.3420
    8DG     C11  172   0.415   3.266   3.675  0.0460  0.0675  0.4948
    8DG     C12  173   0.666   2.872   3.561 -0.1152  0.0630  0.2515
    8DG     H13  174   0.350   3.351   3.652  0.2209  0.1692  0.3747
    8DG     H14  175   0.345   3.214   3.741  0.3596 -0.0040  0.7760
    8DG     H15  176   0.587   2.814   3.611  0.3300 -1.8686 -1.1790
    8DG     H16  177   0.702   2.797   3.491 -4.3722 -1.8690 -0.1930
    8DG     C17  178   0.465   3.179   3.556  0.6484  0.2801  0.0680
    8DG     C18  179   0.600   2.988   3.485 -0.2419 -0.0114  0.0854
    8DG     O19  180   0.538   3.060   3.590  0.1321 -0.1694  0.1764
    8DG     H20  181   0.528   3.223   3.478  1.3988 -0.8046  0.0447
    8DG     H21  182   0.380   3.139   3.501  0.6584 -0.2667  0.4470
    8DG     H22  183   0.675   3.053   3.440 -0.0011 -0.3222  0.0361
    8DG     H23  184   0.531   2.952   3.409  0.0975  1.9504 -1.2359
    9DG      C1  185   2.111   2.087   3.748  0.0438 -0.2703 -0.4931
    9DG      C2  186   1.840   1.846   3.642 -0.1539 -0.3597 -0.6806
    9DG      H3  187   2.138   2.006   3.681  1.8102 -0.1622  0.0447
    9DG      H4  188   2.074   2.034   3.836  3.4076 -2.3747 -0.1682
    9DG      H5  189   2.188   2.161   3.767 -2.1761  1.9422  0.4943
    9DG      H6  190   1.947   1.839   3.665 -0.4416 -0.2337  0.7767
    9DG      H7  191   1.803   1.900   3.728 -0.2277 -1.3138 -0.0969
    9DG      H8  192   1.797   1.746   3.645  0.2749 -0.5250  1.6442
    9DG      O9  193   2.003   2.130   3.669 -0.3274 -0.2557  0.0608
    9DG     O10  194   1.820   1.905   3.511  0.2598  0.4694 -0.0366
    9DG     C11  195   1.909   2.199   3.747 -0.1509  0.1973 -0.2154
    9DG     C12  196   1.683   1.957   3.501 -0.2871  0.4545  0.0759
    9DG     H13  197   1.959   2.278   3.804  1.9713 -0.7684 -0.6682
    9DG     H14  198   1.867   2.121   3.809  2.5659 -2.4480 -1.4507
    9DG     H15  199   1.603   1.889   3.530  0.5387 -0.4358  0.3004
    9DG     H16  200   1.658   1.979   3.397 -1.8304  1.9037  0.6968
    9DG     C17  201   1.799   2.265   3.662  0.2769  0.3939  0.3096
    9DG     C18  202   1.659   2.087   3.581  0.1450  0.0583  0.0045
    9DG     O19  203   1.762   2.173   3.555  0.5579 -0.2536 -0.1022
    9DG     H20  204   1.830   2.361   3.623 -0.0630  0.6979  0.7762
    9DG     H21  205   1.710   2.280   3.723 -0.2081 -2.3115  0.4115
    9DG     H22  206   1.559   2.118   3.549 -0.3628 -1.2878  0.2020
    9DG     H23  207   1.655   2.072   3.689 -1.0763  0.3873  0.0199
   10DG      C1  208   3.340   5.286   1.250 -0.1525 -0.3545 -0.7147
   10DG      C2  209   4.005   5.303   1.297 -0.7277 -0.8519  0.2260
   10DG      H3  210   3.298   5.191   1.283 -0.0213  0.4072  1.8856
   10DG      H4  211   3.297   5.329   1.160  1.4620  0.3416 -1.1805
   10DG      H5  212   3.332   5.363   1.327  1.4691  0.3255 -1.1832
   10DG      H6  213   4.030   5.198   1.308 -0.3295 -0.6700  1.2880
   10DG      H7  214   4.093   5.349   1.251  0.0709 -1.8671  0.6776
   10DG      H8  215   3.993   5.339   1.400 -0.8337  1.5688 -0.5561
   10DG      O9  216   3.474   5.263   1.227 -0.5290 -0.0440  0.0154
   10DG     O10  217   3.892   5.330   1.209  0.2663 -0.0194  0.5509
   10DG     C11  218   3.488   5.202   1.095  0.2174  0.6268  0.3346
   10DG     C12  219   3.919   5.322   1.070 -1.1097 -0.2228  0.3268
   10DG     H13  220   3.439   5.264   1.021  0.3748  1.9435  1.3043
   10DG     H14  221   3.444   5.102   1.095  2.7594 -0.7022  3.3391
   10DG     H15  222   3.960   5.221   1.058 -1.1738 -0.4851  2.0321
   10DG     H16  223   3.999   5.384   1.031 -0.4705 -0.1390  1.7139
   10DG     C17  224   3.635   5.193   1.061 -0.9685  0.5928  0.3951
   10DG     C18  225   3.804   5.347   0.980  0.6268 -0.0778 -0.0885
   10DG     O19  226   3.682   5.325   1.048  0.2669  0.4226  0.0913
   10DG     H20  227   3.645   5.136   0.968 -0.6943  1.7729 -0.3264
   10DG     H21  228   3.689   5.124   1.126  0.9601  1.6286 -0.0370
   10DG     H22  229   3.809   5.454   0.957 -1.0415  0.2920  1.0737
   10DG     H23  230   3.819   5.290   0.889 -0.8084 -0.0059 -0.3914
   11DG      C1  231   0.663   2.527   3.400 -1.1467 -0.2974 -0.5536
   11DG      C2  232   0.273   2.384   2.841  0.1807 -0.2997 -0.7402
   11DG      H3  233   0.725   2.615   3.383  0.9751 -1.1999  1.8629
   11DG      H4  234   0.715   2.439   3.361  0.4030  0.4030 -0.1374
   11DG      H5  235   0.667   2.528   3.509  0.4905  0.4263 -0.5861
   11DG      H6  236   0.173   2.356   2.810  0.1235 -2.5954  1.2416
   11DG      H7  237   0.316   2.458   2.774  2.1387 -0.8647 -0.1926
   11DG      H8  238   0.327   2.289   2.842 -1.6509 -1.4371  2.4573
   11DG      O9  239   0.531   2.527   3.345 -0.1917  0.6952 -0.3939
   11DG     O10  240   0.273   2.435   2.975  0.7184 -0.6315  0.6196
   11DG     C11  241   0.460   2.648   3.366  0.0060  0.4275  0.3498
   11DG     C12  242   0.200   2.560   2.991 -0.2236 -0.5409 -0.8605
   11DG     H13  243   0.505   2.723   3.301 -0.0059  0.8135  0.7809
   11DG     H14  244   0.472   2.692   3.466 -2.8297  0.5738  0.6942
   11DG     H15  245   0.098   2.552   2.951  0.2144  0.2575 -2.1977
   11DG     H16  246   0.250   2.636   2.930 -0.8217 -0.1161 -0.8326
   11DG     C17  247   0.310   2.628   3.337  0.6595  0.4683 -0.6413
   11DG     C18  248   0.189   2.616   3.135 -0.4722  0.4528 -0.6195
   11DG     O19  249   0.307   2.575   3.200  0.0293  0.3340 -0.0910
   11DG     H20  250   0.262   2.726   3.342 -1.0276 -0.4025  2.1464
   11DG     H21  251   0.260   2.560   3.405 -0.9467  0.4967 -1.7388
   11DG     H22  252   0.197   2.725   3.138 -0.5534  0.4478 -0.2528
   11DG     H23  253   0.100   2.583   3.189 -0.6985  0.3053 -1.0804
   12DG      C1  254   4.231   2.855   5.288 -0.0674 -0.1261  0.5565
   12DG      C2  255   4.755   2.469   5.231  0.7920  0.1587  0.0492
   12DG      H3  256   4.193   2.803   5.200 -0.7047  0.6635  0.3516
   12DG      H4  257   4.207   2.961   5.278  2.4033  0.6585  2.1058
   12DG      H5  258   4.173   2.833   5.378 -0.2989 -0.5174  0.3132
   12DG      H6  259   4.829   2.402   5.276  1.5830  1.3911  0.6503
   12DG      H7  260   4.700   2.423   5.149  1.0917 -2.0762  1.0153
   12DG      H8  261   4.812   2.553   5.191 -0.5903  2.3984  2.5075
   12DG      O9  262   4.373   2.839   5.299  0.0873  0.3370 -0.3285
   12DG     O10  263   4.659   2.510   5.328 -0.8613  0.4765  0.0319
   12DG     C11  264   4.423   2.915   5.407  0.1222 -0.0982  0.6051
   12DG     C12  265   4.713   2.554   5.451 -0.5315  0.0103 -0.4916
   12DG     H13  266   4.354   2.989   5.448  1.4436  0.0112  2.8135
   12DG     H14  267   4.506   2.980   5.379 -0.9778  0.7179 -0.9274
   12DG     H15  268   4.798   2.616   5.425 -1.4065  1.0869 -0.8517
   12DG     H16  269   4.751   2.468   5.506  0.3490  0.5839 -0.1845
   12DG     C17  270   4.474   2.827   5.513 -0.4180  0.4632 -0.4785
   12DG     C18  271   4.606   2.628   5.538  0.2123 -0.3482 -0.2960
   12DG     O19  272   4.577   2.742   5.458  0.4299 -0.0235  0.0514
   12DG     H20  273   4.400   2.767   5.567 -0.3971 -0.9299 -1.9047
   12DG     H21  274   4.522   2.887   5.590 -0.9969 -1.7774  1.7822
   12DG     H22  275   4.518   2.564   5.552 -0.3444  0.6835  1.1702
   12DG     H23  276   4.647   2.646   5.638 -1.1097 -1.2461  0.4519
   13DG      C1  277   0.275   1.203   4.574  0.7642  0.3853  0.7900
   13DG      C2  278   0.434   1.962   4.786 -0.8113 -0.5570  0.7231
   13DG      H3  279   0.266   1.102   4.614  1.0964 -0.1408 -0.4190
   13DG      H4  280   0.375   1.230   4.540  0.2851  0.0262 -1.0068
   13DG      H5  281   0.210   1.209   4.487  0.2878  1.5481  1.2126
   13DG      H6  282   0.542   1.944   4.782 -0.9048 -1.4374  1.7756
   13DG      H7  283   0.397   1.980   4.685 -0.1914  0.2426  0.6276
   13DG      H8  284   0.426   2.060   4.835 -0.7517  0.8590 -1.9373
   13DG      O9  285   0.236   1.285   4.685  0.4763  0.3289  0.0103
   13DG     O10  286   0.370   1.859   4.846 -0.1690  0.1596 -0.4285
   13DG     C11  287   0.269   1.422   4.671 -0.3127 -0.5487  0.0785
   13DG     C12  288   0.231   1.866   4.839  0.9155 -0.7277 -0.1417
   13DG     H13  289   0.299   1.454   4.572  0.6933  0.2427  0.6222
   13DG     H14  290   0.353   1.440   4.738 -2.0143  0.0076  2.1846
   13DG     H15  291   0.193   1.924   4.755  1.1792  0.8470  0.7910
   13DG     H16  292   0.190   1.933   4.914  1.6716 -0.4133 -0.0010
   13DG     C17  293   0.164   1.514   4.728 -0.5772  0.5191 -0.0804
   13DG     C18  294   0.170   1.725   4.847  0.6281  0.1229  0.6299
   13DG     O19  295   0.226   1.644   4.747  0.0399 -0.3059  0.0574
   13DG     H20  296   0.119   1.474   4.820 -2.3688  1.1209 -0.6521
   13DG     H21  297   0.079   1.519   4.660 -0.6265 -0.2508 -0.0906
   13DG     H22  298   0.198   1.692   4.947 -0.9006  0.7025  1.2728
   13DG     H23  299   0.062   1.727   4.858  0.1771  0.0389 -2.6573
   14DG      C1  300   1.498   4.204   4.835  0.0452 -0.0588  0.2558
   14DG      C2  301   1.470   4.588   5.353 -0.2819  0.1189  0.7283
   14DG      H3  302   1.576   4.178   4.906 -0.1201  0.5486  0.6591
   14DG      H4  303   1.543   4.244   4.744  2.5992 -1.2429  0.9019
   14DG      H5  304   1.440   4.113   4.815 -1.4501  0.4700  1.9723
   14DG      H6  305   1.421   4.633   5.439 -1.9472 -0.4416  0.1108
   14DG      H7  306   1.524   4.503   5.393 -1.3711 -0.6327  0.6627
   14DG      H8  307   1.545   4.654   5.308  0.2369  0.0069  1.4185
   14DG      O9  308   1.401   4.291   4.898  0.0819  0.0758 -0.2436
   14DG     O10  309   1.370   4.544   5.261 -0.3452 -0.7807 -0.5438
   14DG     C11  310   1.300   4.350   4.809 -0.2873  0.0894 -0.3568
   14DG     C12  311   1.302   4.652   5.190  0.3279  0.0293  0.1407
   14DG     H13  312   1.242   4.275   4.756  0.7389 -1.3586  0.4888
   14DG     H14  313   1.350   4.427   4.751  0.0280  0.0691 -0.1168
   14DG     H15  314   1.380   4.712   5.144 -0.0613 -0.0170 -0.5984
   14DG     H16  315   1.236   4.711   5.254  0.5034 -0.6785  0.9966
   14DG     C17  316   1.204   4.427   4.905  0.0346 -0.3474 -0.6137
   14DG     C18  317   1.214   4.582   5.086 -0.2456 -0.4161 -0.4244
   14DG     O19  318   1.285   4.493   5.002 -0.2409  0.6274  0.0934
   14DG     H20  319   1.130   4.367   4.958 -0.7115  1.2328  0.2268
   14DG     H21  320   1.154   4.512   4.860  0.7385  0.7163  0.5287
   14DG     H22  321   1.133   4.531   5.139  1.2609 -0.1050  2.3419
   14DG     H23  322   1.173   4.664   5.028  1.2906  1.0593  0.5133
   15DG      C1  323   3.540   0.788   2.144  0.5048 -0.1497  0.2520
   15DG      C2  324   3.194   1.317   2.013 -0.5936 -0.1166 -0.0970
   15DG      H3  325   3.633   0.814   2.193  1.0203 -0.2505 -0.6465
   15DG      H4  326   3.557   0.688   2.105  0.8442  0.0578 -0.1425
   15DG      H5  327   3.456   0.784   2.214 -1.1373 -1.2913 -1.6676
   15DG      H6  328   3.260   1.382   2.070 -2.5579  0.1688  1.9670
   15DG      H7  329   3.125   1.382   1.959 -0.9274 -0.3048  0.1000
   15DG      H8  330   3.143   1.271   2.098  0.8611  0.5264  1.1688
   15DG      O9  331   3.507   0.876   2.038 -1.0625  0.0321 -1.1824
   15DG     O10  332   3.272   1.227   1.938 -0.5017  0.2868 -0.2637
   15DG     C11  333   3.615   0.896   1.954  0.7638  0.4369  0.5133
   15DG     C12  334   3.358   1.280   1.842  0.7517 -0.3870 -0.1639
   15DG     H13  335   3.653   0.802   1.915  1.3728  0.5550  0.8124
   15DG     H14  336   3.701   0.939   2.004  1.2758 -2.8627  2.7689
   15DG     H15  337   3.423   1.353   1.889  0.0166 -0.7884  1.5629
   15DG     H16  338   3.294   1.333   1.771 -1.5924 -2.1488  0.4895
   15DG     C17  339   3.563   0.980   1.833 -0.2634 -0.6329 -0.5724
   15DG     C18  340   3.442   1.175   1.774 -0.3542  0.4098  0.6111
   15DG     O19  341   3.496   1.097   1.880 -0.0642 -0.6197 -0.5044
   15DG     H20  342   3.483   0.919   1.791 -1.3514 -0.9848  1.8542
   15DG     H21  343   3.644   1.008   1.765 -2.6014  0.0932 -3.2623
   15DG     H22  344   3.384   1.113   1.705  0.0426  0.0843  0.5704
   15DG     H23  345   3.523   1.222   1.719 -3.2629  2.5546 -2.2680
   16DG      C1  346   0.244   3.166   1.689 -0.3907  0.6264  0.0179
   16DG      C2  347  -0.044   3.094   2.183  0.1073 -0.1331  0.4257
   16DG      H3  348   0.140   3.199   1.693  0.1692  2.4561  0.3715
   16DG      H4  349   0.255   3.104   1.600  0.1848 -0.9737  1.1537
   16DG      H5  350   0.297   3.260   1.675 -0.1187  0.2649 -1.6233
   16DG      H6  351  -0.052   2.986   2.195 -0.5883 -0.2624 -1.0023
   16DG      H7  352  -0.139   3.146   2.195 -0.9687 -2.1810  1.2382
   16DG      H8  353  -0.006   3.115   2.083  0.4180 -0.5264  0.4586
   16DG      O9  354   0.275   3.096   1.810  0.3726 -0.2668 -0.4644
   16DG     O10  355   0.057   3.146   2.270 -0.1331  0.2443  0.2998
   16DG     C11  356   0.212   2.969   1.808  0.4010 -0.2338 -0.8192
   16DG     C12  357   0.174   3.067   2.268 -0.5773  0.0183 -0.0492
   16DG     H13  358   0.255   2.904   1.732 -0.1204 -1.9926  0.3322
   16DG     H14  359   0.105   2.965   1.787  0.1642 -3.9798  0.2899
   16DG     H15  360   0.153   2.973   2.319 -0.7287  0.2479  0.3218
   16DG     H16  361   0.247   3.125   2.326  0.2864 -1.3291  0.2674
   16DG     C17  362   0.234   2.895   1.947  0.3937 -0.7066  0.1177
   16DG     C18  363   0.248   3.031   2.136 -0.5196 -0.1057  0.5242
   16DG     O19  364   0.176   2.932   2.065  0.4456  0.2824 -0.5564
   16DG     H20  365   0.342   2.884   1.954  0.2053 -2.2635  1.0163
   16DG     H21  366   0.192   2.795   1.933  0.4372 -1.0187  2.0021
   16DG     H22  367   0.275   3.115   2.072 -0.4613 -0.3453  0.2327
   16DG     H23  368   0.344   2.982   2.154  0.2660  1.1014 -0.2528
   17DG      C1  369   1.895   4.616   1.543 -0.1173 -0.2031 -0.8666
   17DG      C2  370   1.932   5.293   1.633 -0.4254 -0.0894  0.6450
   17DG      H3  371   1.879   4.617   1.651 -1.7480  0.9158 -1.0703
   17DG      H4  372   1.927   4.519   1.507 -2.5380 -2.0903  1.5947
   17DG      H5  373   1.794   4.631   1.505 -0.6734  0.7632  0.8614
   17DG      H6  374   1.831   5.263   1.604  0.0380 -0.5547 -0.5984
   17DG      H7  375   1.942   5.276   1.740 -0.7793  0.7618  0.8197
   17DG      H8  376   1.936   5.400   1.617 -0.2629  0.2267  2.6279
   17DG      O9  377   1.976   4.731   1.508  0.0023  0.2712  0.1267
   17DG     O10  378   2.039   5.217   1.564 -0.5397  0.4465 -0.4098
   17DG     C11  379   1.976   4.752   1.361 -0.0192  0.0415 -0.1210
   17DG     C12  380   2.029   5.219   1.428 -0.1739 -0.0936  0.4165
   17DG     H13  381   1.875   4.771   1.326 -0.5694  0.8999  1.7801
   17DG     H14  382   2.022   4.662   1.319 -0.2619  0.6732 -1.8349
   17DG     H15  383   2.069   5.313   1.389 -0.6204 -0.8676 -2.1153
   17DG     H16  384   1.923   5.211   1.405 -0.0541  0.6958 -0.5061
   17DG     C17  385   2.079   4.860   1.318 -0.1485 -0.0531 -0.4004
   17DG     C18  386   2.100   5.103   1.357  0.2521 -0.0370 -0.7247
   17DG     O19  387   2.040   4.982   1.398  0.2126 -0.0086  0.0871
   17DG     H20  388   2.084   4.882   1.212  3.3072  0.3042 -0.2704
   17DG     H21  389   2.179   4.833   1.352 -0.8661 -0.5078  1.4730
   17DG     H22  390   2.083   5.113   1.250 -0.5462  1.4274 -0.4942
   17DG     H23  391   2.208   5.113   1.370 -0.0564  0.8832  1.5830
   18DG      C1  392   4.521   2.781   1.489  0.0672  0.3990 -0.6616
   18DG      C2  393   4.732   2.195   1.676  0.1814 -0.0617 -0.3991
   18DG      H3  394   4.466   2.800   1.581 -2.1867  2.0868 -2.2149
   18DG      H4  395   4.485   2.859   1.421 -0.5251  0.1730 -0.6189
   18DG      H5  396   4.627   2.791   1.510 -0.1323  0.7820  0.1734
   18DG      H6  397   4.795   2.106   1.668 -0.2269 -0.8648  3.3516
   18DG      H7  398   4.796   2.266   1.728 -0.1226  0.1492 -0.3129
   18DG      H8  399   4.643   2.164   1.731 -0.3920  1.8854 -0.1673
   18DG      O9  400   4.503   2.653   1.425 -0.1755 -0.6736 -0.1002
   18DG     O10  401   4.689   2.261   1.560  0.1670 -0.5348 -0.1235
   18DG     C11  402   4.375   2.595   1.423  0.2013  0.6205  0.5567
   18DG     C12  403   4.607   2.174   1.481  0.6547 -0.3078 -0.0086
   18DG     H13  404   4.316   2.657   1.355  0.9214  1.3252  0.5606
   18DG     H14  405   4.336   2.575   1.522  0.1142 -1.7435  0.1094
   18DG     H15  406   4.538   2.123   1.548  0.6088  1.2751  1.1888
   18DG     H16  407   4.671   2.109   1.420 -0.0194  1.4046 -2.7261
   18DG     C17  408   4.392   2.454   1.365  0.3040 -0.2462 -0.5175
   18DG     C18  409   4.512   2.255   1.382 -0.2870  0.2848  0.4786
   18DG     O19  410   4.492   2.382   1.440  0.0769 -0.5786  0.2912
   18DG     H20  411   4.424   2.460   1.261 -3.2437 -1.2599 -1.8091
   18DG     H21  412   4.297   2.401   1.365  0.4526 -0.5652  0.8560
   18DG     H22  413   4.561   2.273   1.286  0.3001  0.2043  0.7578
   18DG     H23  414   4.424   2.195   1.358 -0.1562  1.2204 -2.8656
   19DG      C1  415   2.172   0.176   1.486 -0.0192  0.1337 -0.2379
   19DG      C2  416   2.100   1.013   1.597  0.2111 -0.4866 -0.6886
   19DG      H3  417   2.269   0.164   1.438 -0.1815 -1.0087 -0.3066
   19DG      H4  418   2.102   0.172   1.403  1.8774  0.7511 -1.9581
   19DG      H5  419   2.145   0.092   1.550  1.7353 -1.0107 -0.9421
   19DG      H6  420   2.185   1.018   1.530 -0.4703  4.1808 -1.5004
   19DG      H7  421   2.017   1.068   1.552  0.1083  1.0995  1.2674
   19DG      H8  422   2.135   1.086   1.669 -0.7597  0.1292 -0.8246
   19DG      O9  423   2.179   0.289   1.572 -0.2658  0.5655 -0.0949
   19DG     O10  424   2.071   0.888   1.659 -0.0504 -0.5284  0.3687
   19DG     C11  425   2.059   0.303   1.649  0.0731  0.2787  0.8046
   19DG     C12  426   2.129   0.771   1.599  0.7581 -0.0701  0.1484
   19DG     H13  427   2.052   0.210   1.706 -1.6059  0.0933  0.3413
   19DG     H14  428   1.967   0.315   1.592  0.8027  2.0114 -0.0678
   19DG     H15  429   2.231   0.809   1.591 -0.8627  5.0671  0.2946
   19DG     H16  430   2.080   0.762   1.503  0.8584  1.8161 -0.1305
   19DG     C17  431   2.070   0.430   1.737 -0.1567  0.0569  0.4756
   19DG     C18  432   2.108   0.660   1.710 -0.8952 -0.0155 -0.2612
   19DG     O19  433   2.109   0.537   1.649  0.4300 -0.0378 -0.5096
   19DG     H20  434   2.145   0.407   1.813  0.9057  0.9579 -0.2635
   19DG     H21  435   1.984   0.455   1.798 -0.9048 -0.4450 -0.3549
   19DG     H22  436   2.171   0.647   1.798 -1.5788 -1.5054  0.0567
   19DG     H23  437   2.014   0.673   1.763 -2.6903 -2.5056 -2.5194
   20DG      C1  438   4.124   5.278   5.253 -0.3693 -0.2631  0.5886
   20DG      C2  439   4.201   5.002   5.897  0.3122  0.1349 -0.7637
   20DG      H3  440   4.213   5.320   5.206  0.7208 -2.7287  0.3063
   20DG      H4  441   4.054   5.350   5.211 -0.9017 -0.4894  1.0717
   20DG      H5  442   4.120   5.178   5.210  3.0344  0.0904 -0.8544
   20DG      H6  443   4.271   5.004   5.981 -0.3176  2.6533 -0.1962
   20DG      H7  444   4.103   5.012   5.944  0.0997  2.4156 -1.5510
   20DG      H8  445   4.219   4.906   5.850  2.0739  0.1322 -0.1494
   20DG      O9  446   4.130   5.287   5.393  0.0385  0.7254  0.1442
   20DG     O10  447   4.228   5.114   5.804 -0.3000  0.1397 -0.3523
   20DG     C11  448   4.198   5.404   5.425  0.2111 -0.5568 -0.5998
   20DG     C12  449   4.191   5.237   5.873 -0.2742  0.5089 -0.0820
   20DG     H13  450   4.161   5.492   5.372  1.0913  0.1511 -0.0658
   20DG     H14  451   4.303   5.408   5.398 -0.1784  1.4337 -2.0784
   20DG     H15  452   4.230   5.228   5.975 -0.6430  0.7405  0.0822
   20DG     H16  453   4.084   5.243   5.892 -0.3983  1.0527 -0.9292
   20DG     C17  454   4.180   5.427   5.573 -0.0015 -0.4581  0.2663
   20DG     C18  455   4.240   5.360   5.795 -0.3413 -0.3324 -0.7946
   20DG     O19  456   4.242   5.325   5.652 -0.0502  0.7610  0.1615
   20DG     H20  457   4.079   5.456   5.602  0.9371  0.2579  3.1916
   20DG     H21  458   4.237   5.515   5.602 -2.4716  1.7360 -1.0961
   20DG     H22  459   4.175   5.446   5.810  0.2616 -0.1499  1.1070
   20DG     H23  460   4.343   5.390   5.817 -0.7574  1.2577 -0.9498
   21DG      C1  461   4.879   4.901   4.738  0.0860  0.3682 -0.1455
   21DG      C2  462   4.671   5.444   4.286 -0.0455 -0.7468 -0.2865
   21DG      H3  463   4.839   4.801   4.724  0.3298  0.2596 -0.0778
   21DG      H4  464   4.937   4.911   4.830 -1.9015  1.3643  1.0741
   21DG      H5  465   4.950   4.914   4.656  1.0115  3.4888  0.9676
   21DG      H6  466   4.726   5.412   4.198 -1.4231 -2.4928 -0.5723
   21DG      H7  467   4.617   5.356   4.320  1.4030 -1.2807  0.7240
   21DG      H8  468   4.603   5.524   4.256 -0.3599 -1.1845 -0.7658
   21DG      O9  469   4.768   4.996   4.724  0.1268  0.9455 -0.1322
   21DG     O10  470   4.778   5.488   4.378  0.1020  0.0241  0.0035
   21DG     C11  471   4.818   5.121   4.676  0.3142 -0.1667 -0.5598
   21DG     C12  472   4.732   5.546   4.500  0.1585  0.5501 -0.2406
   21DG     H13  473   4.847   5.138   4.572  0.3055  0.2220 -0.4994
   21DG     H14  474   4.909   5.145   4.730  1.2451 -3.0350 -0.6684
   21DG     H15  475   4.670   5.635   4.490  1.7643  1.6379 -0.9260
   21DG     H16  476   4.819   5.570   4.562  1.0338  0.1750 -1.2973
   21DG     C17  477   4.699   5.226   4.687 -0.3389  0.1362  0.2736
   21DG     C18  478   4.658   5.442   4.585 -0.6883 -0.4358  0.9573
   21DG     O19  479   4.753   5.337   4.622  0.0955 -0.3826  0.3698
   21DG     H20  480   4.674   5.237   4.792  3.0276 -0.1807  1.1964
   21DG     H21  481   4.613   5.187   4.632  1.2986 -0.7829 -1.7718
   21DG     H22  482   4.626   5.494   4.675  1.1858  2.3204  0.1512
   21DG     H23  483   4.566   5.397   4.547  1.5029 -2.9078 -1.9448
   22DG      C1  484   2.130   1.748   1.863 -0.3438  0.2432  0.4480
   22DG      C2  485   2.691   1.862   1.529  0.1595  0.0726 -0.0764
   22DG      H3  486   2.053   1.793   1.925  0.0282  2.3401 -0.5368
   22DG      H4  487   2.129   1.641   1.883 -0.5031  0.3203  0.8578
   22DG      H5  488   2.109   1.761   1.757 -1.4986  0.2106  0.6590
   22DG      H6  489   2.630   1.915   1.456  0.8751 -1.1827 -1.6563
   22DG      H7  490   2.795   1.894   1.526  0.1693  0.0275 -0.2246
   22DG      H8  491   2.701   1.758   1.496  2.0020  0.6100 -1.3690
   22DG      O9  492   2.253   1.812   1.900 -0.0773 -0.7494 -0.5166
   22DG     O10  493   2.643   1.879   1.663  0.2604 -0.0244 -0.4216
   22DG     C11  494   2.317   1.748   2.014  0.0307 -0.5507  0.4582
   22DG     C12  495   2.723   1.805   1.760 -0.7579  0.0868 -0.1266
   22DG     H13  496   2.316   1.639   2.011 -2.4061 -0.5652 -0.7102
   22DG     H14  497   2.267   1.780   2.105  0.2401 -0.9969  0.7368
   22DG     H15  498   2.818   1.854   1.781 -1.4071  1.0807  0.6534
   22DG     H16  499   2.731   1.702   1.727 -0.7373  0.1858 -0.4302
   22DG     C17  500   2.457   1.801   2.011  0.5023 -0.5314  0.0631
   22DG     C18  501   2.651   1.829   1.890  0.0852  0.1727 -0.1541
   22DG     O19  502   2.523   1.785   1.879 -0.2935  0.4521 -0.3566
   22DG     H20  503   2.518   1.762   2.092  0.4121  0.8910  0.8478
   22DG     H21  504   2.451   1.907   2.038  0.9768 -0.5326  0.1755
   22DG     H22  505   2.707   1.781   1.970 -0.6283 -1.0316 -0.3684
   22DG     H23  506   2.657   1.935   1.916  0.2331  0.5669 -1.6617
   23DG      C1  507   2.609   0.842   1.533 -0.7049 -0.0054  0.3657
   23DG      C2  508   2.413   1.325   2.102 -0.2457  0.1132  0.5023
   23DG      H3  509   2.585   0.925   1.466 -0.2160 -0.6142 -0.5746
   23DG      H4  510   2.582   0.747   1.488 -0.9572  0.0263  0.4439
   23DG      H5  511   2.717   0.849   1.539 -0.7397  1.3124 -0.2618
   23DG      H6  512   2.325   1.374   2.143 -1.4480  1.0820 -2.9140
   23DG      H7  513   2.492   1.350   2.173  0.4828  2.0446 -0.9032
   23DG      H8  514   2.454   1.384   2.020  0.0158 -0.1088  0.4716
   23DG      O9  515   2.565   0.869   1.669 -0.9487  0.2674  0.1921
   23DG     O10  516   2.391   1.179   2.072 -0.7125  0.1764  0.4307
   23DG     C11  517   2.621   0.985   1.723  0.1884 -0.4280 -0.4548
   23DG     C12  518   2.297   1.166   1.964 -0.3732  0.5117  0.1701
   23DG     H13  519   2.613   1.062   1.646  1.2790  0.0970 -0.0759
   23DG     H14  520   2.725   0.972   1.753  0.1760 -3.2290 -1.3673
   23DG     H15  521   2.316   1.227   1.875  2.0363 -0.3553  0.0206
   23DG     H16  522   2.196   1.187   2.000 -1.1639  0.0010 -1.6158
   23DG     C17  523   2.541   1.030   1.842  0.5193 -0.2019  0.2686
   23DG     C18  524   2.305   1.022   1.913 -0.5722  0.4492  0.7744
   23DG     O19  525   2.402   1.004   1.813  0.2392 -0.2472 -0.2762
   23DG     H20  526   2.552   1.137   1.861  1.2883 -0.5068  1.6520
   23DG     H21  527   2.575   0.981   1.933  0.8459  0.7188  0.6545
   23DG     H22  528   2.327   0.965   2.003 -1.8627  1.5352  1.8200
   23DG     H23  529   2.212   0.981   1.873  0.0640  0.9273 -1.3112
   24DG      C1  530   3.513   4.127   0.776  0.5339  0.3895  0.3139
   24DG      C2  531   3.281   3.497   1.305  0.2339  0.3247  0.2456
   24DG      H3  532   3.546   4.163   0.874 -1.2620 -0.2814  1.2148
   24DG      H4  533   3.406   4.145   0.761  0.6406  0.4818 -0.3536
   24DG      H5  534   3.571   4.185   0.704 -0.2322  1.7213  0.7274
   24DG      H6  535   3.324   3.531   1.400  1.1910 -2.1315  0.7564
   24DG      H7  536   3.187   3.551   1.315  0.6373  1.1332 -0.1424
   24DG      H8  537   3.283   3.392   1.332 -1.4925  0.5544  1.4141
   24DG      O9  538   3.537   3.982   0.762 -0.2187  0.4517  0.0164
   24DG     O10  539   3.374   3.531   1.199 -0.4608 -0.1348 -0.4292
   24DG     C11  540   3.449   3.905   0.852 -0.7032 -1.1085 -0.5437
   24DG     C12  541   3.336   3.479   1.074 -0.0360 -0.1281  0.0592
   24DG     H13  542   3.347   3.900   0.815 -1.7453 -0.6135  2.0612
   24DG     H14  543   3.445   3.946   0.953  0.2594 -2.2194 -0.0270
   24DG     H15  544   3.228   3.485   1.059  0.1611  1.0342 -1.0705
   24DG     H16  545   3.355   3.373   1.057  2.4681  0.0993  1.1468
   24DG     C17  546   3.490   3.762   0.862 -0.2577  0.6277  0.2869
   24DG     C18  547   3.413   3.552   0.958 -0.6473  0.0615  0.0404
   24DG     O19  548   3.398   3.694   0.954 -0.0853 -0.3335  0.3550
   24DG     H20  549   3.592   3.757   0.899  0.5087  0.9431 -1.6639
   24DG     H21  550   3.473   3.731   0.759 -1.1003  1.7816  0.0557
   24DG     H22  551   3.516   3.519   0.968 -0.5286  0.4753  0.2329
   24DG     H23  552   3.378   3.513   0.862  1.2779 -0.0786 -0.6525
   25DG      C1  553   4.996   0.142   2.556  0.6067  0.4055  0.2471
   25DG      C2  554   4.664  -0.480   2.097 -0.2824 -0.4222 -0.3710
   25DG      H3  555   5.032   0.063   2.621  1.3705  0.1950 -0.4178
   25DG      H4  556   4.904   0.190   2.591  0.5509  0.6551 -0.2411
   25DG      H5  557   5.076   0.214   2.574  1.6507 -0.4962 -0.6670
   25DG      H6  558   4.726  -0.565   2.126 -0.0891 -0.7242 -1.6320
   25DG      H7  559   4.564  -0.492   2.137  0.4132 -3.2203  0.7876
   25DG      H8  560   4.646  -0.502   1.992  1.1297 -0.9625 -0.5349
   25DG      O9  561   4.994   0.101   2.419 -0.4420  0.2006  0.3128
   25DG     O10  562   4.717  -0.355   2.134 -0.4720 -0.3179 -0.2097
   25DG     C11  563   4.898   0.001   2.389 -0.0300 -0.1816  0.4067
   25DG     C12  564   4.666  -0.248   2.058 -0.1574  0.1534  0.4113
   25DG     H13  565   4.814  -0.007   2.458 -1.7521  2.3482 -1.2230
   25DG     H14  566   4.937  -0.101   2.396 -1.1742 -0.6492  0.1416
   25DG     H15  567   4.567  -0.221   2.094 -0.8133 -1.4867 -0.0963
   25DG     H16  568   4.652  -0.273   1.953  1.3591  1.4486 -0.1374
   25DG     C17  569   4.862   0.024   2.241 -0.5258 -0.0669  0.0045
   25DG     C18  570   4.763  -0.124   2.070  0.4859  0.3415  0.0543
   25DG     O19  571   4.776  -0.082   2.209 -0.0037  0.4282 -0.2299
   25DG     H20  572   4.947   0.038   2.174 -1.2790 -0.2867 -1.0164
   25DG     H21  573   4.804   0.116   2.243  1.3585  1.2322  2.7442
   25DG     H22  574   4.860  -0.153   2.031  0.1175 -1.1359  0.1973
   25DG     H23  575   4.732  -0.040   2.008 -1.2353 -0.3647 -0.1116
   26DG      C1  576   4.753   0.609   1.330 -0.3035  0.0634  0.5442
   26DG      C2  577   4.170   0.640   1.575  0.7107  0.5630  0.2231
   26DG      H3  578   4.716   0.517   1.285 -1.8311  0.3165  1.2060
   26DG      H4  579   4.774   0.582   1.433 -2.2091  0.5725  1.1064
   26DG      H5  580   4.845   0.647   1.286  0.8854 -1.5027  1.5666
   26DG      H6  581   4.079   0.580   1.574  0.9111  0.2167 -1.8309
   26DG      H7  582   4.225   0.615   1.665  0.6401 -0.4942 -0.0140
   26DG      H8  583   4.149   0.747   1.572  0.5805  0.5567  0.8957
   26DG      O9  584   4.657   0.713   1.321  0.2268 -0.2311  0.6276
   26DG     O10  585   4.256   0.613   1.466  0.0525  0.1426 -0.3232
   26DG     C11  586   4.623   0.745   1.184  0.2616 -0.5480 -0.2772
   26DG     C12  587   4.184   0.615   1.341 -0.2910  0.1491  0.3746
   26DG     H13  588   4.695   0.729   1.104 -1.5149  2.8953 -2.8193
   26DG     H14  589   4.606   0.853   1.185  2.4521 -0.0949 -2.5491
   26DG     H15  590   4.138   0.713   1.328  0.2139  0.5176  1.2638
   26DG     H16  591   4.108   0.537   1.349  0.4694 -0.6870 -0.2893
   26DG     C17  592   4.492   0.667   1.142 -0.0064 -0.1135  0.4798
   26DG     C18  593   4.289   0.587   1.230  0.7447 -0.0926 -0.2740
   26DG     O19  594   4.394   0.684   1.238  0.0377 -0.2049  0.2081
   26DG     H20  595   4.512   0.560   1.144  2.1594  0.2150 -0.2965
   26DG     H21  596   4.450   0.674   1.041  0.1678 -0.6724  0.3645
   26DG     H22  597   4.323   0.486   1.254 -2.1766 -0.7545  1.5480
   26DG     H23  598   4.242   0.577   1.132 -0.9896  0.7770  0.4282
   27DG      C1  599   2.802   3.657   3.373 -0.5632 -1.1781 -0.2115
   27DG      C2  600   2.990   4.525   3.280  0.7738 -0.5865  0.2057
   27DG      H3  601   2.836   3.656   3.476  0.0067 -1.0416 -0.3942
   27DG      H4  602   2.882   3.615   3.312  2.0326  1.0376  1.4560
   27DG      H5  603   2.710   3.598   3.365 -1.6054  0.5637 -1.8089
   27DG      H6  604   2.954   4.622   3.314  3.2827  0.5435 -0.1398
   27DG      H7  605   3.087   4.512   3.328  0.0796 -0.3138  1.7369
   27DG      H8  606   3.009   4.538   3.173  0.6995 -0.7866  0.1674
   27DG      O9  607   2.797   3.798   3.330 -0.1503 -0.5526 -0.1100
   27DG     O10  608   2.895   4.422   3.298 -0.2171  0.2326 -0.1191
   27DG     C11  609   2.749   3.832   3.199 -0.4259  0.1881  0.8327
   27DG     C12  610   2.945   4.291   3.265 -0.0350  0.3148 -0.5510
   27DG     H13  611   2.655   3.782   3.175  0.5820 -1.6999  0.6860
   27DG     H14  612   2.821   3.799   3.125 -1.8269 -0.4015 -0.3180
   27DG     H15  613   3.006   4.257   3.349  1.0731 -0.0160 -1.4707
   27DG     H16  614   3.017   4.300   3.184  1.3387 -0.8748  0.4883
   27DG     C17  615   2.737   3.988   3.181 -0.8945  0.9201  0.1092
   27DG     C18  616   2.821   4.194   3.246  0.0712  0.5537 -0.1330
   27DG     O19  617   2.854   4.052   3.229  0.2020 -0.1490  0.1408
   27DG     H20  618   2.649   4.018   3.238 -0.8793  0.8119  0.1907
   27DG     H21  619   2.712   4.013   3.078 -1.8622 -3.0899 -0.8241
   27DG     H22  620   2.746   4.193   3.325  0.2614 -2.3730  0.1156
   27DG     H23  621   2.766   4.223   3.156  0.9899  1.0293 -0.5505
   28DG      C1  622   4.933   4.386   1.516  0.0290 -0.4970  0.2429
   28DG      C2  623   4.932   3.755   1.678  0.0634  1.1639  0.1034
   28DG      H3  624   5.026   4.400   1.459  0.8474 -0.6957  1.5048
   28DG      H4  625   4.876   4.479   1.516 -0.3547 -0.7099 -0.9081
   28DG      H5  626   4.864   4.324   1.460 -0.5915  0.7270 -0.4092
   28DG      H6  627   4.900   3.774   1.576  5.2066  0.5759 -1.9219
   28DG      H7  628   5.036   3.786   1.679 -0.3056  2.5784 -1.2309
   28DG      H8  629   4.910   3.656   1.719  0.4482  1.0719  0.0908
   28DG      O9  630   4.970   4.322   1.635 -0.4540  0.0629  0.6853
   28DG     O10  631   4.865   3.853   1.751  0.0607  0.0255 -0.1269
   28DG     C11  632   4.870   4.244   1.701  0.5446  0.0899  0.4023
   28DG     C12  633   4.912   3.870   1.884  0.1794  0.1849 -0.4933
   28DG     H13  634   4.836   4.160   1.642 -2.2599  2.2079 -1.2464
   28DG     H14  635   4.782   4.305   1.719  0.8232  1.1693 -1.5797
   28DG     H15  636   4.946   3.777   1.931 -0.2792  1.0160  1.6185
   28DG     H16  637   4.829   3.911   1.941  0.6442  0.6931 -0.1784
   28DG     C17  638   4.916   4.171   1.835 -0.3762 -0.1867  0.2529
   28DG     C18  639   5.031   3.965   1.881  0.7667  0.2641 -0.6411
   28DG     O19  640   5.009   4.076   1.793 -0.1541  0.1916 -0.2023
   28DG     H20  641   4.830   4.115   1.873  0.6748 -2.1808 -0.1539
   28DG     H21  642   4.960   4.232   1.913 -0.0100  0.8715 -0.7589
   28DG     H22  643   5.044   4.001   1.983 -0.8198  3.4910 -1.4454
   28DG     H23  644   5.120   3.921   1.837  1.4376  0.0121  0.9210
   29DG      C1  645   0.324   2.359   5.416 -0.4193  0.3199  0.6948
   29DG      C2  646  -0.184   2.818   5.472 -0.3462  0.5435  0.7756
   29DG      H3  647   0.299   2.283   5.491  0.2073  0.8332  1.4402
   29DG      H4  648   0.432   2.369   5.419 -0.4721  1.0161  0.4073
   29DG      H5  649   0.285   2.329   5.319  2.1327 -1.9955  0.2700
   29DG      H6  650  -0.284   2.827   5.515 -0.0498 -1.8145  2.1369
   29DG      H7  651  -0.125   2.909   5.466  1.9427 -0.9557 -2.6837
   29DG      H8  652  -0.198   2.779   5.371  0.5505 -1.2464  1.3114
   29DG      O9  653   0.283   2.490   5.459 -0.7242  0.0730 -0.3334
   29DG     O10  654  -0.115   2.715   5.546 -1.0579  0.6854 -0.4913
   29DG     C11  655   0.325   2.527   5.588 -0.0941 -0.6093  0.5793
   29DG     C12  656  -0.077   2.755   5.676 -0.2139  0.1163  0.0897
   29DG     H13  657   0.434   2.525   5.599  0.1387  1.4753 -0.6731
   29DG     H14  658   0.277   2.457   5.656 -3.5059  0.4347 -0.5283
   29DG     H15  659  -0.097   2.662   5.730 -0.8407  0.6293  0.7485
   29DG     H16  660  -0.144   2.827   5.722 -0.7629 -0.6148  0.4715
   29DG     C17  661   0.278   2.673   5.626  0.1283 -0.3051 -0.5656
   29DG     C18  662   0.074   2.791   5.675 -0.1163  0.2284  0.2183
   29DG     O19  663   0.134   2.668   5.628 -0.0760  0.2589 -0.1487
   29DG     H20  664   0.322   2.751   5.563 -0.6364 -0.7635 -1.6803
   29DG     H21  665   0.309   2.707   5.725 -1.4532  0.1314 -0.1902
   29DG     H22  666   0.096   2.861   5.594 -2.0297  1.1788  0.4709
   29DG     H23  667   0.114   2.819   5.773 -0.2797  0.3814  0.2429
   30DG      C1  668   5.367   1.726   4.494 -0.6220  0.1664  0.3074
   30DG      C2  669   5.614   1.592   3.896  0.8910 -0.4710 -0.1664
   30DG      H3  670   5.456   1.672   4.524  1.3838  1.7559 -2.3546
   30DG      H4  671   5.291   1.702   4.569 -1.1896 -1.5694 -0.7731
   30DG      H5  672   5.393   1.832   4.500 -2.2771  0.7074 -1.1430
   30DG      H6  673   5.702   1.616   3.955 -0.3690 -0.1767  1.6945
   30DG      H7  674   5.598   1.485   3.898  0.1867 -0.4634 -2.3750
   30DG      H8  675   5.622   1.634   3.795  0.6627  0.5800  0.2433
   30DG      O9  676   5.335   1.689   4.357  0.6699  0.1966  0.1096
   30DG     O10  677   5.499   1.641   3.966 -0.1064  0.5549 -0.4252
   30DG     C11  678   5.222   1.762   4.315 -0.4932 -0.5631  0.0397
   30DG     C12  679   5.422   1.724   3.881  0.0571  0.2863 -0.3695
   30DG     H13  680   5.225   1.864   4.351  1.0993 -0.3816 -0.5214
   30DG     H14  681   5.130   1.730   4.364  0.4345 -0.8207  1.6707
   30DG     H15  682   5.403   1.668   3.789  1.8287 -2.9551  1.0326
   30DG     H16  683   5.477   1.816   3.864 -0.6508  1.2194  2.0475
   30DG     C17  684   5.193   1.762   4.164  0.1229 -0.0295  0.1085
   30DG     C18  685   5.298   1.758   3.954 -0.1102 -0.2380 -0.5332
   30DG     O19  686   5.314   1.779   4.095  0.3452 -0.0309  1.0179
   30DG     H20  687   5.128   1.844   4.135  0.7423  0.0698 -1.0656
   30DG     H21  688   5.165   1.660   4.139 -0.1783 -0.1951  1.0816
   30DG     H22  689   5.242   1.841   3.909  1.5474  1.3102  0.1583
   30DG     H23  690   5.234   1.670   3.941  0.0967 -0.6023  0.7537
   31DG      C1  691   0.507   1.232   2.225  0.0010  0.4372  0.2061
   31DG      C2  692   0.646   1.499   2.742 -0.0412  0.6458  0.1955
   31DG      H3  693   0.557   1.316   2.177 -1.2096  2.0710  1.6572
   31DG      H4  694   0.400   1.249   2.215 -0.4960 -0.9254  2.4997
   31DG      H5  695   0.521   1.141   2.167 -1.7294 -0.3102  0.8808
   31DG      H6  696   0.549   1.450   2.744  1.0196 -1.5768  0.6626
   31DG      H7  697   0.674   1.534   2.841  0.8503  3.7207 -1.0271
   31DG      H8  698   0.642   1.594   2.688  1.3551  0.9395  0.5493
   31DG      O9  699   0.539   1.228   2.365  0.1083 -0.2275  0.2963
   31DG     O10  700   0.754   1.430   2.672  0.2607  0.2090  0.2102
   31DG     C11  701   0.490   1.115   2.432  0.8309  0.0862 -0.3558
   31DG     C12  702   0.785   1.309   2.742  0.1120 -0.3764  0.1070
   31DG     H13  703   0.558   1.033   2.409  2.1245 -0.0668  3.4071
   31DG     H14  704   0.384   1.091   2.419  0.1288  3.2010 -1.4251
   31DG     H15  705   0.805   1.317   2.849  3.2021  1.9148 -0.4957
   31DG     H16  706   0.874   1.275   2.689 -0.2438  0.2329 -0.9019
   31DG     C17  707   0.508   1.151   2.572  0.1696 -0.6363 -0.0778
   31DG     C18  708   0.689   1.195   2.728  0.2564  0.2871 -0.1869
   31DG     O19  709   0.642   1.203   2.590  0.0177  0.6722 -0.0911
   31DG     H20  710   0.489   1.065   2.637 -1.4589  0.4693  0.9832
   31DG     H21  711   0.450   1.238   2.600 -0.4349 -0.2290 -2.4174
   31DG     H22  712   0.740   1.102   2.752 -0.2333  0.4822  1.8593
   31DG     H23  713   0.606   1.220   2.795 -0.2527 -2.0035  0.1166
   32DG      C1  714   4.337   4.514   0.987  0.6049  0.1912 -0.1869
   32DG      C2  715   4.422   5.007   1.485 -0.1575 -1.0355 -0.3460
   32DG      H3  716   4.340   4.520   0.878 -1.3223 -1.4857 -0.3835
   32DG      H4  717   4.229   4.502   1.002  0.4895  0.6827 -0.5820
   32DG      H5  718   4.395   4.435   1.034 -1.0465  0.0606  1.7579
   32DG      H6  719   4.314   4.997   1.493 -0.3570  0.6538 -0.6289
   32DG      H7  720   4.464   4.960   1.573  1.4199  1.0075  0.0581
   32DG      H8  721   4.438   5.114   1.497 -0.1703 -1.0174 -0.4865
   32DG      O9  722   4.379   4.643   1.028  0.4673 -0.0742 -1.0249
   32DG     O10  723   4.470   4.969   1.358  0.3214  0.7722  0.4108
   32DG     C11  724   4.514   4.657   0.983 -0.9639  0.3227 -0.0714
   32DG     C12  725   4.608   4.964   1.342  0.0452 -0.6381  0.5799
   32DG     H13  726   4.531   4.644   0.876  2.0258 -0.4891  0.3994
   32DG     H14  727   4.576   4.583   1.034 -2.0216 -0.4557  0.1090
   32DG     H15  728   4.643   4.881   1.404  2.2855 -0.0202  0.2291
   32DG     H16  729   4.636   5.057   1.392 -0.7920 -0.0665  0.0036
   32DG     C17  730   4.576   4.793   1.017 -0.1613  0.0888 -0.5531
   32DG     C18  731   4.653   4.929   1.198  0.0019 -0.3434  0.1953
   32DG     O19  732   4.559   4.829   1.151 -0.1430  0.6623 -0.3987
   32DG     H20  733   4.527   4.864   0.951 -0.0256  0.6787 -0.0276
   32DG     H21  734   4.679   4.778   0.986 -0.5702 -1.8937 -1.0947
   32DG     H22  735   4.645   5.014   1.129 -0.0663 -0.8878 -0.4750
   32DG     H23  736   4.756   4.896   1.193  0.2501  0.5571 -1.4820
   33DG      C1  737   3.264   1.646   5.197  0.1035  0.2053 -0.1696
   33DG      C2  738   3.477   1.947   5.821 -0.0282  0.3311  0.2099
   33DG      H3  739   3.259   1.663   5.089  0.2546  0.8170 -0.0813
   33DG      H4  740   3.162   1.643   5.235 -0.4977  0.0923 -1.7184
   33DG      H5  741   3.299   1.545   5.218 -1.6622 -0.8709 -1.9535
   33DG      H6  742   3.570   1.999   5.847  0.4090 -0.5574  0.4521
   33DG      H7  743   3.390   1.988   5.872 -0.2316 -0.2354  0.3190
   33DG      H8  744   3.483   1.850   5.869  0.0790 -0.2328 -0.9232
   33DG      O9  745   3.340   1.752   5.254  0.2216  0.1113 -0.4174
   33DG     O10  746   3.468   1.940   5.683 -0.3096 -0.2281  1.2525
   33DG     C11  747   3.304   1.888   5.212 -0.3501 -0.0249  0.0836
   33DG     C12  748   3.456   2.073   5.621 -0.6483  0.6698 -0.7847
   33DG     H13  749   3.213   1.924   5.260  0.4802 -0.9030  2.4993
   33DG     H14  750   3.299   1.890   5.103  0.8172 -2.6699 -0.0994
   33DG     H15  751   3.518   2.150   5.668 -0.6579 -0.1380  0.5978
   33DG     H16  752   3.353   2.106   5.625 -0.5859  1.1020 -2.1741
   33DG     C17  753   3.415   1.981   5.255  0.2033 -0.0143 -0.1565
   33DG     C18  754   3.503   2.064   5.474  0.1603  0.4892  0.4612
   33DG     O19  755   3.416   1.981   5.399  0.0852 -0.0548  0.4103
   33DG     H20  756   3.397   2.082   5.220  4.7204  0.3743 -1.9442
   33DG     H21  757   3.515   1.956   5.220  1.6511  2.5275  1.8091
   33DG     H22  758   3.502   2.164   5.432 -0.1019  0.6358  0.8172
   33DG     H23  759   3.601   2.015   5.472 -0.7038 -1.3359  0.9685
   34DG      C1  760   1.179   0.786   0.821  1.0891  0.5997 -0.5656
   34DG      C2  761   1.084   0.154   0.833  0.1804  0.5923 -0.2194
   34DG      H3  762   1.234   0.880   0.825  0.9248  0.6663  0.4549
   34DG      H4  763   1.080   0.813   0.857  1.6242 -1.5260  2.9782
   34DG      H5  764   1.194   0.734   0.726  0.0816  1.2303 -1.0928
   34DG      H6  765   1.067   0.112   0.932 -0.2320 -0.7431 -0.8434
   34DG      H7  766   0.989   0.174   0.784 -1.0120 -0.3431  1.5843
   34DG      H8  767   1.140   0.072   0.788 -0.4063 -0.3758  0.7855
   34DG      O9  768   1.215   0.708   0.925 -0.1380 -0.6811 -0.1790
   34DG     O10  769   1.186   0.252   0.841  0.1454  0.4831  0.1795
   34DG     C11  770   1.359   0.703   0.932  0.3503  0.0618 -0.0128
   34DG     C12  771   1.218   0.308   0.714  0.4932 -0.4790  0.1173
   34DG     H13  772   1.375   0.693   1.039 -0.9190 -0.5215  0.1369
   34DG     H14  773   1.413   0.793   0.900  2.5356 -0.6088  1.5516
   34DG     H15  774   1.127   0.343   0.667 -0.8265 -0.8846  2.2409
   34DG     H16  775   1.266   0.228   0.658  0.5832 -1.7387  1.8852
   34DG     C17  776   1.421   0.590   0.852 -0.0360  0.1723 -0.9627
   34DG     C18  777   1.336   0.408   0.729 -0.4912 -0.1821 -0.0352
   34DG     O19  778   1.322   0.485   0.846 -0.8636  0.7835 -0.2145
   34DG     H20  779   1.512   0.558   0.902 -0.2768  1.9988  0.7855
   34DG     H21  780   1.440   0.627   0.751  1.5891  2.2447  0.0230
   34DG     H22  781   1.428   0.350   0.733  0.4608  0.9677 -2.6710
   34DG     H23  782   1.337   0.483   0.650 -0.3282  1.6623  1.6361
   35DG      C1  783   3.984   3.079   2.362 -0.1627  0.1052  0.6267
   35DG      C2  784   4.309   2.726   2.853 -0.9194  0.7778  0.1857
   35DG      H3  785   3.914   3.064   2.280  1.6217 -1.1498 -0.7615
   35DG      H4  786   4.070   3.136   2.327  0.1152  1.1182  2.8438
   35DG      H5  787   3.934   3.158   2.416 -0.2896  0.8266 -0.5135
   35DG      H6  788   4.390   2.655   2.869 -0.1843  1.4969 -0.2555
   35DG      H7  789   4.350   2.824   2.877  0.5577  0.6294 -1.5061
   35DG      H8  790   4.220   2.705   2.912 -0.6842 -3.9412 -0.6947
   35DG      O9  791   4.023   2.965   2.449  0.2112 -0.2376 -0.3718
   35DG     O10  792   4.282   2.725   2.712 -0.0921  0.5544 -0.4398
   35DG     C11  793   3.918   2.880   2.478  1.1712  0.3795  0.5369
   35DG     C12  794   4.205   2.600   2.693 -0.6671  0.4888 -0.2020
   35DG     H13  795   3.846   2.889   2.397  0.5127  1.8711  1.2304
   35DG     H14  796   3.869   2.890   2.575 -0.7924 -1.4627 -0.1903
   35DG     H15  797   4.119   2.597   2.760 -0.8766 -0.1818 -0.4939
   35DG     H16  798   4.257   2.508   2.720  1.7535  1.4550 -1.2449
   35DG     C17  799   3.962   2.734   2.463  0.6065  0.2446  0.4437
   35DG     C18  800   4.139   2.602   2.558  0.7675  0.1464  0.5282
   35DG     O19  801   4.072   2.732   2.550 -0.1200 -0.1438  0.2464
   35DG     H20  802   3.996   2.723   2.360 -0.7432 -0.4637  0.0563
   35DG     H21  803   3.879   2.665   2.477  0.0825  0.8396  0.3701
   35DG     H22  804   4.218   2.591   2.484  1.1188 -2.0831  1.1737
   35DG     H23  805   4.076   2.515   2.542  2.5685 -0.9817 -0.8033
   36DG      C1  806   0.439   3.094   0.782 -0.4424  0.1436 -0.9664
   36DG      C2  807  -0.147   2.799   0.531 -0.4288 -0.2656  0.6846
   36DG      H3  808   0.482   2.994   0.784  0.5183  0.5507 -0.8551
   36DG      H4  809   0.397   3.121   0.879 -0.9528  0.2235 -1.2056
   36DG      H5  810   0.522   3.159   0.753 -0.4918  1.2051  1.0766
   36DG      H6  811  -0.214   2.803   0.617 -2.0706 -1.6014 -0.4681
   36DG      H7  812  -0.214   2.787   0.445 -0.7350  0.6508  0.7887
   36DG      H8  813  -0.092   2.706   0.541 -1.3856 -0.8977  0.2415
   36DG      O9  814   0.349   3.095   0.676  0.4372  0.1513  0.1765
   36DG     O10  815  -0.057   2.912   0.538 -0.7122  0.6021 -0.0961
   36DG     C11  816   0.296   3.226   0.657 -0.0318  0.6398  0.9694
   36DG     C12  817  -0.120   3.039   0.531  0.4388  0.5316  0.1595
   36DG     H13  818   0.367   3.308   0.645 -1.8862  1.8987 -2.9589
   36DG     H14  819   0.246   3.260   0.748 -0.3576  1.0808  0.6336
   36DG     H15  820  -0.156   3.063   0.631 -1.0212 -0.7647 -0.0141
   36DG     H16  821  -0.209   3.041   0.468  1.3503  0.4757 -1.1760
   36DG     C17  822   0.200   3.230   0.542  0.4313  0.1775 -0.2521
   36DG     C18  823  -0.016   3.131   0.472 -0.0689 -0.0762  0.5488
   36DG     O19  824   0.091   3.140   0.570  0.6851 -0.4224  0.2429
   36DG     H20  825   0.242   3.218   0.442 -2.7516  3.5606 -2.2414
   36DG     H21  826   0.158   3.330   0.530 -0.1470 -0.1203 -0.7538
   36DG     H22  827   0.043   3.084   0.392 -0.7405  0.3448 -0.2084
   36DG     H23  828  -0.048   3.233   0.448 -1.6096 -0.3777  1.2226
   37DG      C1  829   1.215   0.189   5.200 -0.3159 -0.1650 -0.0028
   37DG      C2  830   1.359   0.581   5.733 -0.5060 -0.1456 -0.0335
   37DG      H3  831   1.253   0.109   5.136  0.0381 -0.0100  0.0091
   37DG      H4  832   1.160   0.267   5.146 -0.2062 -1.2357 -1.7132
   37DG      H5  833   1.133   0.130   5.239 -1.9000  1.5977 -0.4983
   37DG      H6  834   1.295   0.657   5.687 -1.0937 -1.5166 -1.5593
   37DG      H7  835   1.306   0.518   5.804 -2.5619 -0.4960 -1.7669
   37DG      H8  836   1.434   0.650   5.772 -1.4411  0.4627  0.7383
   37DG      O9  837   1.308   0.240   5.291  0.3427 -0.3883  0.4435
   37DG     O10  838   1.407   0.489   5.633  0.4540 -0.5554 -0.0415
   37DG     C11  839   1.416   0.305   5.224  0.8634 -0.5689 -0.3768
   37DG     C12  840   1.531   0.420   5.673 -0.0748  0.4835  0.7367
   37DG     H13  841   1.388   0.406   5.193  1.9095 -0.1591 -0.0132
   37DG     H14  842   1.444   0.250   5.135 -2.2537 -0.0543 -1.8259
   37DG     H15  843   1.532   0.345   5.752  0.4488 -0.8849 -0.5247
   37DG     H16  844   1.602   0.494   5.712 -0.2949  0.3471  1.4137
   37DG     C17  845   1.539   0.317   5.310  0.5877 -0.2841 -0.5203
   37DG     C18  846   1.601   0.372   5.539  0.0358 -0.3008  0.4500
   37DG     O19  847   1.505   0.324   5.448 -0.2305 -0.2308 -0.2799
   37DG     H20  848   1.608   0.394   5.276 -2.0947  1.6747 -1.8948
   37DG     H21  849   1.591   0.222   5.305 -0.0741 -0.6025 -2.2171
   37DG     H22  850   1.658   0.452   5.490  0.3525  0.2446  1.6580
   37DG     H23  851   1.666   0.287   5.556  0.3875 -1.0975 -3.8874
   38DG      C1  852   4.506   2.782   2.429 -0.0911  0.6468  0.4055
   38DG      C2  853   3.985   3.141   2.754 -0.4901 -0.0240 -1.0745
   38DG      H3  854   4.451   2.754   2.339 -0.2645  0.8285  0.4532
   38DG      H4  855   4.484   2.709   2.507  1.4716 -1.5905 -1.1190
   38DG      H5  856   4.611   2.764   2.406 -0.0667 -0.3873  1.2163
   38DG      H6  857   3.913   3.156   2.673 -0.4157  1.1746 -0.9422
   38DG      H7  858   3.993   3.034   2.770 -0.2062  0.0171 -0.9462
   38DG      H8  859   3.950   3.194   2.842  0.1223 -0.0574 -0.8065
   38DG      O9  860   4.471   2.916   2.479  0.1187  0.2665 -0.3996
   38DG     O10  861   4.112   3.180   2.702  0.1197 -0.1111 -0.3185
   38DG     C11  862   4.558   2.956   2.585 -0.1895  0.8302  0.2365
   38DG     C12  863   4.217   3.172   2.800  0.2873  0.3414  0.0121
   38DG     H13  864   4.658   2.961   2.542 -1.1488  2.1589 -2.0301
   38DG     H14  865   4.536   2.891   2.670 -1.0644  1.0717  0.2084
   38DG     H15  866   4.221   3.075   2.849 -0.9355  0.4981  0.4715
   38DG     H16  867   4.179   3.226   2.887 -0.5008 -1.8906  1.1310
   38DG     C17  868   4.520   3.106   2.623  0.0051 -0.7091 -0.6235
   38DG     C18  869   4.351   3.212   2.738 -0.2207 -0.5572  0.1630
   38DG     O19  870   4.386   3.100   2.654 -0.6470  0.5463 -0.3020
   38DG     H20  871   4.534   3.175   2.539  0.3429  0.4696  0.3771
   38DG     H21  872   4.583   3.136   2.706 -1.4627  1.4677 -0.2115
   38DG     H22  873   4.343   3.301   2.677 -0.2106 -0.6792 -0.0183
   38DG     H23  874   4.425   3.241   2.813 -1.2800  1.7670  0.3939
   39DG      C1  875   1.461   0.234   1.043 -0.7691 -0.2654 -0.2447
   39DG      C2  876   1.128  -0.358   0.886 -0.0949 -0.0654  0.0267
   39DG      H3  877   1.357   0.268   1.039 -0.1020  1.9240 -0.0683
   39DG      H4  878   1.491   0.214   0.940 -0.6248  0.4643 -0.3490
   39DG      H5  879   1.515   0.324   1.073  2.3444 -0.5472 -4.2910
   39DG      H6  880   1.149  -0.257   0.922 -0.7933 -0.2745  1.0741
   39DG      H7  881   1.072  -0.335   0.796  0.9195  1.8544 -0.1734
   39DG      H8  882   1.071  -0.414   0.960  1.3054 -1.9828 -0.2513
   39DG      O9  883   1.473   0.129   1.134 -0.1209  0.0893 -0.1681
   39DG     O10  884   1.246  -0.421   0.850  0.0630  0.1290 -0.5372
   39DG     C11  885   1.389   0.014   1.108  0.5209  0.3272 -0.1418
   39DG     C12  886   1.342  -0.432   0.955 -0.7939  0.5976  0.1857
   39DG     H13  887   1.284   0.041   1.104  1.1344  2.7639 -1.1574
   39DG     H14  888   1.397  -0.049   1.197 -1.0774  0.9707  0.4860
   39DG     H15  889   1.408  -0.517   0.936  1.9829  2.6604 -0.0850
   39DG     H16  890   1.305  -0.449   1.056  0.5745  1.7326  0.9106
   39DG     C17  891   1.441  -0.071   0.989  0.2837 -0.4954 -0.1124
   39DG     C18  892   1.432  -0.302   0.940  0.3002 -0.2478 -0.0763
   39DG     O19  893   1.377  -0.188   1.013  0.4647 -0.3703  0.1334
   39DG     H20  894   1.550  -0.075   0.996  0.2941  0.2784  0.2739
   39DG     H21  895   1.420  -0.028   0.891  0.4716  1.4032  0.6461
   39DG     H22  896   1.525  -0.334   0.987 -1.2433 -1.6756  2.2531
   39DG     H23  897   1.451  -0.267   0.839 -1.2097  0.3056 -0.2033
   40DG      C1  898   5.417   0.539   4.637  0.1493 -0.5056 -0.4140
   40DG      C2  899   5.869   0.986   4.925  0.1059 -0.2462 -0.2346
   40DG      H3  900   5.344   0.463   4.662 -0.5029  0.3799  0.4654
   40DG      H4  901   5.506   0.480   4.661  0.1021  0.0374  1.2113
   40DG      H5  902   5.417   0.571   4.533  1.3249  2.7740  0.4551
   40DG      H6  903   5.956   0.932   4.962  0.7796  2.1711  1.9973
   40DG      H7  904   5.885   0.990   4.817  0.6635 -0.3656 -0.1603
   40DG      H8  905   5.879   1.090   4.957  0.6295 -1.0591  2.4952
   40DG      O9  906   5.402   0.652   4.711  0.0087 -0.5970 -0.3603
   40DG     O10  907   5.745   0.924   4.974 -0.2502  0.1713 -0.2993
   40DG     C11  908   5.377   0.637   4.847 -0.1567  0.4984  0.0467
   40DG     C12  909   5.642   1.016   4.949  0.1318  0.1814  0.1537
   40DG     H13  910   5.449   0.577   4.902 -2.0000 -1.1415  0.8251
   40DG     H14  911   5.278   0.594   4.860  0.0755 -0.2380 -0.5492
   40DG     H15  912   5.645   1.054   4.847 -2.2099  1.3352  0.4569
   40DG     H16  913   5.664   1.092   5.024 -2.2727 -1.9447  3.3386
   40DG     C17  914   5.359   0.779   4.904  0.4916 -0.4820  0.3094
   40DG     C18  915   5.500   0.964   4.973 -1.1660  0.3178 -0.0712
   40DG     O19  916   5.489   0.837   4.905  0.0038 -0.0084  0.0860
   40DG     H20  917   5.331   0.781   5.009  1.3131  0.7667  0.5280
   40DG     H21  918   5.298   0.845   4.843  0.3269 -1.2119 -0.3319
   40DG     H22  919   5.472   0.956   5.078 -1.3210  0.9280 -0.0631
   40DG     H23  920   5.430   1.036   4.929 -0.4724  0.2444 -1.3361
   41DG      C1  921   2.511   3.474   1.953  0.4795 -0.0509  0.3459
   41DG      C2  922   1.972   2.985   2.345  0.1525 -0.3697 -0.1086
   41DG      H3  923   2.515   3.388   1.887  0.0834 -0.6725  1.1231
   41DG      H4  924   2.595   3.543   1.944 -1.1910  1.9795 -0.4528
   41DG      H5  925   2.414   3.519   1.932 -0.3391 -0.8070  2.2274
   41DG      H6  926   1.936   2.961   2.445 -0.2319 -1.7216 -0.5464
   41DG      H7  927   1.893   3.007   2.273  0.6512  1.3903 -0.1424
   41DG      H8  928   2.010   2.894   2.299  0.9951  1.1604 -2.6194
   41DG      O9  929   2.501   3.433   2.090  0.2128 -0.3919 -0.0935
   41DG     O10  930   2.080   3.083   2.337  0.1242 -0.3819 -0.4600
   41DG     C11  931   2.391   3.348   2.122 -0.6976 -0.1631 -0.0220
   41DG     C12  932   2.168   3.083   2.443  0.0569  0.3222  0.7222
   41DG     H13  933   2.408   3.251   2.075 -2.1491 -0.6525  0.4147
   41DG     H14  934   2.295   3.392   2.098 -1.0480  0.5976  2.4434
   41DG     H15  935   2.221   2.987   2.441 -1.3158 -0.6006  3.4446
   41DG     H16  936   2.110   3.080   2.535  1.3405  1.9366  1.6287
   41DG     C17  937   2.392   3.313   2.273  0.2595  0.2028 -0.2461
   41DG     C18  938   2.248   3.207   2.428 -0.0429 -0.7131 -0.7344
   41DG     O19  939   2.309   3.204   2.299  0.1994 -0.4817  0.1255
   41DG     H20  940   2.363   3.399   2.333 -0.3163  1.1793 -1.8601
   41DG     H21  941   2.494   3.282   2.297  0.0097  0.4825  1.2136
   41DG     H22  942   2.180   3.292   2.430 -0.7985 -1.2368 -2.3381
   41DG     H23  943   2.320   3.225   2.507 -0.5562  1.7419 -0.7606
   42DG      C1  944   4.241   0.301   0.391 -0.4232  0.3373 -0.3375
   42DG      C2  945   3.592   0.321   0.632 -0.1553 -0.3060 -0.3544
   42DG      H3  946   4.252   0.194   0.410 -0.8577  0.0610 -1.5239
   42DG      H4  947   4.259   0.345   0.489  0.8114  0.5024 -0.6281
   42DG      H5  948   4.315   0.346   0.325  0.9398 -1.8037 -0.3554
   42DG      H6  949   3.614   0.242   0.704 -0.5067 -0.3077 -0.2466
   42DG      H7  950   3.606   0.415   0.686 -1.2080  0.0231 -0.6294
   42DG      H8  951   3.486   0.312   0.609  0.2102 -2.8727 -1.3088
   42DG      O9  952   4.109   0.330   0.350 -0.1055  0.3373  0.2124
   42DG     O10  953   3.670   0.316   0.514  0.6124 -0.0668  0.2803
   42DG     C11  954   4.070   0.261   0.235  0.8238 -0.2299  0.8626
   42DG     C12  955   3.632   0.209   0.421 -0.2438 -0.0178 -0.3456
   42DG     H13  956   4.079   0.153   0.252  0.6990 -0.4340 -0.2610
   42DG     H14  957   4.140   0.285   0.154  1.4154 -2.0965  0.7706
   42DG     H15  958   3.524   0.206   0.402  0.2607 -2.5344 -3.7928
   42DG     H16  959   3.661   0.116   0.469  1.5472  0.5277 -0.3068
   42DG     C17  960   3.919   0.287   0.202 -0.3195  0.0485  0.5064
   42DG     C18  961   3.708   0.231   0.291  0.4106  0.0697  0.6734
   42DG     O19  962   3.845   0.241   0.321 -0.7971 -0.1865  0.3756
   42DG     H20  963   3.879   0.232   0.117  1.2629  0.6883 -0.7085
   42DG     H21  964   3.902   0.392   0.179  1.8093  1.0030  2.8879
   42DG     H22  965   3.689   0.156   0.214  0.7573  1.3069 -0.6653
   42DG     H23  966   3.662   0.322   0.251 -1.1687 -1.1549 -0.4365
   43DG      C1  967   1.165   2.206   2.910  0.4521  0.1723  0.1374
   43DG      C2  968   1.418   2.466   3.521  0.1933  0.4260 -0.3077
   43DG      H3  969   1.174   2.295   2.849  0.3535  0.4997  0.5959
   43DG      H4  970   1.065   2.216   2.953 -0.2441 -4.0237 -0.0762
   43DG      H5  971   1.162   2.117   2.847  0.9094 -0.5491  1.1088
   43DG      H6  972   1.314   2.441   3.541  0.4218 -1.0510 -0.8105
   43DG      H7  973   1.475   2.466   3.614  0.5834 -1.6032 -0.4838
   43DG      H8  974   1.431   2.563   3.473  1.2446  1.6754  2.3126
   43DG      O9  975   1.257   2.202   3.012 -0.1750 -0.3785  0.3280
   43DG     O10  976   1.454   2.351   3.441 -0.2173 -0.6349 -0.0681
   43DG     C11  977   1.391   2.216   2.956  0.0224 -0.0537 -0.0273
   43DG     C12  978   1.578   2.370   3.377  0.0961  0.2791  0.1778
   43DG     H13  979   1.409   2.314   2.912  0.4165 -0.2610 -0.3304
   43DG     H14  980   1.405   2.154   2.867 -1.6004 -1.2324  0.4872
   43DG     H15  981   1.669   2.373   3.438  0.0942 -0.4160  0.2316
   43DG     H16  982   1.578   2.465   3.325 -1.0155  0.5916  0.7200
   43DG     C17  983   1.507   2.190   3.052  0.1024  0.1490  0.5966
   43DG     C18  984   1.611   2.264   3.264 -0.6828 -0.1905  0.3496
   43DG     O19  985   1.501   2.264   3.171 -0.3024 -0.4470 -0.2349
   43DG     H20  986   1.606   2.209   3.013 -0.9399 -0.6976 -2.8110
   43DG     H21  987   1.494   2.084   3.073  1.7912  0.0164  1.0582
   43DG     H22  988   1.708   2.279   3.218 -0.3180 -2.0843  0.4481
   43DG     H23  989   1.606   2.162   3.303 -3.1239 -0.0494  0.6062
   44DG      C1  990   0.602   2.498   2.890  0.3591  0.0840 -0.2832
   44DG      C2  991   0.283   2.259   3.442  0.3943 -0.1924 -0.2493
   44DG      H3  992   0.702   2.500   2.845  0.7879  3.6423  0.5467
   44DG      H4  993   0.600   2.577   2.965  1.5692 -0.6452  0.5574
   44DG      H5  994   0.522   2.515   2.818  0.4728  3.4299  0.2259
   44DG      H6  995   0.254   2.168   3.494  0.7568 -0.7077 -0.9313
   44DG      H7  996   0.314   2.338   3.510  0.9107 -0.6926  0.1068
   44DG      H8  997   0.199   2.301   3.387  1.3411  1.2412 -0.6640
   44DG      O9  998   0.594   2.371   2.950 -0.2763  0.5515  0.3695
   44DG     O10  999   0.387   2.226   3.353 -0.5300  0.0660  0.0018
   44DG     C11 1000   0.720   2.324   3.012  0.1585 -0.2161  0.2319
   44DG     C12 1001   0.507   2.200   3.423  0.3165  0.0250  0.5130
   44DG     H13 1002   0.772   2.400   3.071  1.1328 -0.9605  0.3715
   44DG     H14 1003   0.792   2.304   2.933 -1.5231 -1.1656 -1.1209
   44DG     H15 1004   0.492   2.131   3.507 -2.1592  0.2736  0.3274
   44DG     H16 1005   0.546   2.294   3.461 -1.1769  0.7414  0.3137
   44DG     C17 1006   0.716   2.201   3.100  0.0386  0.5340 -0.5940
   44DG     C18 1007   0.605   2.142   3.316  0.0788  0.0192 -0.7029
   44DG     O19 1008   0.636   2.235   3.218  0.0574 -0.3866  0.3158
   44DG     H20 1009   0.814   2.169   3.136  0.9314  4.6334  1.2099
   44DG     H21 1010   0.655   2.124   3.054 -2.0802  2.1145 -0.5781
   44DG     H22 1011   0.689   2.113   3.379 -0.9871 -0.3225  0.6046
   44DG     H23 1012   0.563   2.048   3.279  0.3908 -0.0462 -0.8998
   45DG      C1 1013   4.041   3.062   1.168  0.1502  0.0777  0.2786
   45DG      C2 1014   3.424   2.902   1.218 -0.7787 -0.5749 -0.1886
   45DG      H3 1015   3.976   3.146   1.148  0.6509  0.1006 -1.3541
   45DG      H4 1016   4.070   3.018   1.073 -1.1392 -2.6824  1.0427
   45DG      H5 1017   4.140   3.089   1.206  0.8161  0.9683 -1.9678
   45DG      H6 1018   3.392   2.853   1.126  1.0201 -0.8084 -0.7174
   45DG      H7 1019   3.343   2.879   1.288 -1.0568 -1.5823 -0.8205
   45DG      H8 1020   3.431   3.002   1.178  1.0209 -0.7646 -0.4033
   45DG      O9 1021   3.970   2.969   1.248 -0.2046  0.3104 -0.4777
   45DG     O10 1022   3.546   2.853   1.269  0.4046  0.1298 -0.1265
   45DG     C11 1023   4.024   2.834   1.258 -0.6210 -0.3465 -0.8644
   45DG     C12 1024   3.554   2.712   1.282 -0.4885  0.2214 -0.2973
   45DG     H13 1025   4.122   2.840   1.305 -0.9415 -2.0982  0.1016
   45DG     H14 1026   4.032   2.801   1.155 -0.3176  1.3855 -1.4372
   45DG     H15 1027   3.523   2.651   1.198  1.0071  0.8211 -1.3207
   45DG     H16 1028   3.496   2.672   1.365  1.4029  0.3254  1.1614
   45DG     C17 1029   3.918   2.766   1.347  0.5177  0.1863  0.1556
   45DG     C18 1030   3.701   2.679   1.326 -0.4102 -0.1684  1.1492
   45DG     O19 1031   3.798   2.770   1.277  0.4141 -0.2715 -0.1508
   45DG     H20 1032   3.908   2.835   1.431  1.2116  1.8030 -1.0448
   45DG     H21 1033   3.957   2.667   1.370  3.8949  1.3726  0.0902
   45DG     H22 1034   3.710   2.686   1.435 -0.1624  1.0749  1.0618
   45DG     H23 1035   3.729   2.574   1.312 -3.1751 -0.7933 -0.1956
   46DG      C1 1036   0.025   1.233   3.806  0.1146  0.5255  0.2304
   46DG      C2 1037  -0.286   0.749   4.002 -0.7685  0.2314  0.6789
   46DG      H3 1038  -0.041   1.315   3.836  0.7870  0.7645  1.0847
   46DG      H4 1039   0.087   1.269   3.724 -0.0025 -1.7546 -0.9563
   46DG      H5 1040   0.087   1.222   3.895  0.0971  2.2974  0.4935
   46DG      H6 1041  -0.373   0.811   4.027  0.3334  1.2197  2.2283
   46DG      H7 1042  -0.319   0.646   3.991 -3.8571  1.1605 -0.0004
   46DG      H8 1043  -0.211   0.764   4.080  0.9044  0.6259 -0.9353
   46DG      O9 1044  -0.055   1.127   3.772 -0.0886  0.1300  0.5608
   46DG     O10 1045  -0.221   0.792   3.881  0.4712  0.0643  0.2014
   46DG     C11 1046  -0.150   1.164   3.672 -0.1169  0.1932 -0.2264
   46DG     C12 1047  -0.313   0.784   3.774  0.7073  0.2034 -0.0904
   46DG     H13 1048  -0.104   1.187   3.576 -0.6804 -0.1855 -0.5955
   46DG     H14 1049  -0.206   1.255   3.691 -1.5766 -0.6214 -0.4386
   46DG     H15 1050  -0.406   0.840   3.784  1.1928  0.9942  0.0316
   46DG     H16 1051  -0.344   0.680   3.764  2.2725 -0.4675  1.4134
   46DG     C17 1052  -0.239   1.047   3.656  0.2435 -0.0836  0.3369
   46DG     C18 1053  -0.251   0.808   3.645 -0.5451 -0.0246 -0.7185
   46DG     O19 1054  -0.170   0.923   3.665  0.4925 -0.0752 -0.7853
   46DG     H20 1055  -0.279   1.063   3.555  1.3550 -1.5196 -0.3692
   46DG     H21 1056  -0.327   1.057   3.720  1.2688  1.8398  1.5159
   46DG     H22 1057  -0.188   0.722   3.624 -0.0708  0.1024  0.1306
   46DG     H23 1058  -0.308   0.811   3.552  2.1406  1.6806 -2.4490
   47DG      C1 1059   2.245   0.637   4.157  0.3464 -0.0005  0.1890
   47DG      C2 1060   2.318   1.302   4.379 -0.2634  0.7543 -0.4455
   47DG      H3 1061   2.260   0.671   4.054 -1.6304  1.5293  0.3515
   47DG      H4 1062   2.148   0.588   4.160  0.2159  0.2940  0.8167
   47DG      H5 1063   2.318   0.563   4.187  1.7553  0.2326 -2.3270
   47DG      H6 1064   2.214   1.290   4.349 -0.2269 -0.9811  0.0004
   47DG      H7 1065   2.317   1.386   4.448  0.7228 -0.7040  1.4664
   47DG      H8 1066   2.366   1.336   4.287 -0.3426  1.2672 -0.2994
   47DG      O9 1067   2.253   0.737   4.256  0.0509 -0.2544 -0.1601
   47DG     O10 1068   2.366   1.171   4.422  0.1306 -0.6281  0.8345
   47DG     C11 1069   2.198   0.696   4.385 -0.2891 -1.0132  0.3353
   47DG     C12 1070   2.275   1.132   4.530  0.3907  0.8850 -0.0394
   47DG     H13 1071   2.206   0.588   4.396  0.1750 -0.9708  0.4338
   47DG     H14 1072   2.092   0.713   4.407  0.5131  1.3051  3.0451
   47DG     H15 1073   2.171   1.134   4.498  0.3316  0.4147  0.1109
   47DG     H16 1074   2.296   1.203   4.611  2.3014  0.3072  0.0380
   47DG     C17 1075   2.276   0.769   4.491 -0.2616 -0.2317  0.7010
   47DG     C18 1076   2.312   0.988   4.569  0.1989  0.1792 -0.4514
   47DG     O19 1077   2.259   0.908   4.469  0.0842 -0.0300 -0.1825
   47DG     H20 1078   2.384   0.760   4.482 -0.2399  1.4040 -1.4493
   47DG     H21 1079   2.258   0.751   4.597 -0.1370  2.3039  1.2140
   47DG     H22 1080   2.417   0.976   4.595 -0.0095  2.2146  1.6118
   47DG     H23 1081   2.252   0.964   4.657 -1.0292 -0.4536 -1.4217
   48DG      C1 1082   3.606   2.015   3.771  0.1962  0.2298 -0.2893
   48DG      C2 1083   4.047   1.628   3.464  0.2890 -0.7582  0.2739
   48DG      H3 1084   3.623   2.120   3.796 -0.1212  0.0454  0.7403
   48DG      H4 1085   3.613   1.958   3.864 -0.7184 -1.3984 -1.1754
   48DG      H5 1086   3.505   1.989   3.740  0.2912 -1.6214  0.8422
   48DG      H6 1087   3.976   1.619   3.381 -0.2389 -0.1365  0.6502
   48DG      H7 1088   4.139   1.602   3.412 -1.0427 -3.1688 -1.0629
   48DG      H8 1089   4.020   1.561   3.545 -0.5711  1.7412  2.1878
   48DG      O9 1090   3.703   1.976   3.682 -0.3101  0.1728  0.5709
   48DG     O10 1091   4.056   1.765   3.519 -0.2557 -0.2229 -0.3805
   48DG     C11 1092   3.709   2.062   3.565  0.3291  0.1120 -0.2183
   48DG     C12 1093   4.089   1.873   3.421 -0.0784  0.5480 -0.6973
   48DG     H13 1094   3.712   2.168   3.592  0.8479  0.3006 -1.0020
   48DG     H14 1095   3.617   2.066   3.507  0.2011  2.5909  0.0524
   48DG     H15 1096   4.049   1.852   3.322 -0.2699  1.2017 -0.7625
   48DG     H16 1097   4.195   1.855   3.405 -0.1431 -0.1515 -0.3897
   48DG     C17 1098   3.825   2.030   3.467  0.2956  0.2579 -0.4472
   48DG     C18 1099   4.074   2.014   3.480 -0.7739  0.4411  0.5885
   48DG     O19 1100   3.944   2.036   3.547 -0.3624  0.0396 -0.3283
   48DG     H20 1101   3.814   2.105   3.389 -1.1848  1.9945  1.3140
   48DG     H21 1102   3.809   1.936   3.415 -1.2961  0.6941 -0.8033
   48DG     H22 1103   4.158   2.028   3.549  0.2739 -0.5840 -0.4318
   48DG     H23 1104   4.094   2.100   3.417 -0.7887  1.1378  1.5123
   49DG      C1 1105   1.020   0.490   3.807 -0.0632 -0.0773  0.5499
   49DG      C2 1106   1.185   0.734   4.435  0.4460 -0.6134 -0.2350
   49DG      H3 1107   1.014   0.595   3.777 -1.5263 -0.8843 -2.3059
   49DG      H4 1108   0.927   0.460   3.855  0.0058  0.3710  0.9738
   49DG      H5 1109   1.020   0.444   3.709 -2.3621  2.5823 -0.8327
   49DG      H6 1110   1.178   0.842   4.425  3.0993 -0.4410 -0.7823
   49DG      H7 1111   1.098   0.681   4.474  0.0064  1.2223  1.4623
   49DG      H8 1112   1.255   0.715   4.516  0.8318  1.7143  0.0499
   49DG      O9 1113   1.139   0.462   3.888  0.4278  0.5356  0.4733
   49DG     O10 1114   1.232   0.672   4.316  0.5932  0.3534 -0.1979
   49DG     C11 1115   1.259   0.493   3.829  0.0852  0.6927  0.3872
   49DG     C12 1116   1.340   0.731   4.246 -0.0761  0.0810  0.0103
   49DG     H13 1117   1.268   0.588   3.776  0.5183 -0.2733 -1.3707
   49DG     H14 1118   1.301   0.414   3.767 -1.8561 -2.1945  2.4966
   49DG     H15 1119   1.425   0.764   4.307  0.4573  0.2228 -0.7929
   49DG     H16 1120   1.298   0.820   4.200 -0.0715  0.1121  0.0668
   49DG     C17 1121   1.358   0.505   3.947  0.1969 -0.2045 -0.5435
   49DG     C18 1122   1.392   0.642   4.136 -0.3234  0.0764  0.1320
   49DG     O19 1123   1.302   0.589   4.047  0.4826  0.2888 -0.6704
   49DG     H20 1124   1.460   0.518   3.911  0.1627  1.2057 -0.1752
   49DG     H21 1125   1.367   0.403   3.986  3.1252  0.4453  0.7368
   49DG     H22 1126   1.468   0.694   4.078 -0.7504  2.0793  1.2887
   49DG     H23 1127   1.431   0.556   4.190 -1.3436 -1.1526 -1.0259
   50DG      C1 1128   2.453   2.814   3.244 -0.4727  0.4928  0.0683
   50DG      C2 1129   2.263   3.437   2.895  0.4510 -0.4959  0.4228
   50DG      H3 1130   2.423   2.826   3.348 -1.2204  1.9359 -0.2881
   50DG      H4 1131   2.562   2.818   3.236 -0.3397 -1.8413  0.1820
   50DG      H5 1132   2.413   2.717   3.215 -0.8703  1.2070 -1.8933
   50DG      H6 1133   2.213   3.483   2.980  0.2126 -2.0400  1.1469
   50DG      H7 1134   2.368   3.458   2.915  0.3773  1.1823 -0.7392
   50DG      H8 1135   2.231   3.490   2.805  0.7186  1.9324  1.6675
   50DG      O9 1136   2.393   2.917   3.164  0.2640  1.0699  0.2539
   50DG     O10 1137   2.232   3.304   2.900  0.6154  0.5865 -0.5287
   50DG     C11 1138   2.434   2.903   3.027  0.1496 -0.3756  0.1346
   50DG     C12 1139   2.261   3.239   2.783 -0.4083 -0.1542 -0.0261
   50DG     H13 1140   2.390   2.817   2.976  0.4872 -0.3096 -0.2796
   50DG     H14 1141   2.541   2.896   3.042  0.0991 -1.3671  0.0938
   50DG     H15 1142   2.367   3.257   2.767 -0.8865  2.0519 -1.1092
   50DG     H16 1143   2.211   3.283   2.696 -0.1147 -2.2312 -1.3219
   50DG     C17 1144   2.405   3.014   2.927 -0.2640 -0.3965 -0.2442
   50DG     C18 1145   2.225   3.093   2.796 -0.2861  0.1924 -0.0737
   50DG     O19 1146   2.266   3.047   2.924 -0.6095 -0.4182  0.3942
   50DG     H20 1147   2.454   2.993   2.832  0.7762 -1.0163  0.4075
   50DG     H21 1148   2.468   3.094   2.967 -2.7439  1.9955 -0.8592
   50DG     H22 1149   2.118   3.073   2.791 -0.0420 -1.6822  0.9790
   50DG     H23 1150   2.270   3.037   2.713 -0.1762  0.5151 -0.2315
   51DG      C1 1151   0.765   4.486   0.901  0.6219 -0.0027 -0.1163
   51DG      C2 1152   0.294   4.946   0.938  0.7455  0.5562 -0.0919
   51DG      H3 1153   0.794   4.381   0.899  2.4154  0.4174  1.0536
   51DG      H4 1154   0.840   4.546   0.953 -0.3362  0.3968  0.8188
   51DG      H5 1155   0.781   4.513   0.796 -0.1341 -2.1728 -0.8434
   51DG      H6 1156   0.361   4.995   1.009 -0.7701  0.6160  1.3816
   51DG      H7 1157   0.321   4.956   0.833 -0.5810 -0.7424 -0.5888
   51DG      H8 1158   0.197   4.995   0.951  0.6819  0.8656 -1.5694
   51DG      O9 1159   0.632   4.500   0.944  0.0814 -0.5236  0.0421
   51DG     O10 1160   0.287   4.812   0.979  0.5126 -0.1987  0.0822
   51DG     C11 1161   0.546   4.427   0.863 -0.3306  0.1126  0.6620
   51DG     C12 1162   0.197   4.731   0.900 -0.0451 -0.1573 -0.0050
   51DG     H13 1163   0.577   4.323   0.876  0.0341 -0.0435 -1.1208
   51DG     H14 1164   0.553   4.466   0.761 -1.1524 -0.0207  0.5490
   51DG     H15 1165   0.201   4.767   0.797 -0.3417  1.1885  0.4342
   51DG     H16 1166   0.099   4.759   0.940  0.2876  1.2240 -0.0998
   51DG     C17 1167   0.404   4.430   0.913  0.7172 -0.4764  0.1351
   51DG     C18 1168   0.224   4.587   0.918 -0.2175  0.1223 -0.3328
   51DG     O19 1169   0.360   4.563   0.900 -0.0154 -0.5588 -0.0272
   51DG     H20 1170   0.401   4.417   1.021 -0.3854  2.1321  0.4860
   51DG     H21 1171   0.339   4.361   0.858 -0.0591  0.9510 -0.7912
   51DG     H22 1172   0.194   4.549   1.016  0.1073  1.4603  0.3072
   51DG     H23 1173   0.164   4.526   0.850 -0.2214 -0.9228  0.5827
   52DG      C1 1174   0.333   1.200   1.238  0.4900  0.0760 -0.4851
   52DG      C2 1175  -0.171   1.608   1.226 -0.3234  0.1444  0.1379
   52DG      H3 1176   0.404   1.267   1.287  1.0796  1.3879 -2.9964
   52DG      H4 1177   0.392   1.121   1.192  2.5545  2.3588 -2.0404
   52DG      H5 1178   0.267   1.163   1.316 -0.0692 -0.7145 -1.3193
   52DG      H6 1179  -0.230   1.534   1.280 -0.5152 -1.9859 -2.7256
   52DG      H7 1180  -0.118   1.674   1.293 -0.6800  1.5668 -0.9335
   52DG      H8 1181  -0.245   1.677   1.184  1.1467  3.1625  2.1765
   52DG      O9 1182   0.254   1.263   1.138  0.0059 -0.3578 -0.3095
   52DG     O10 1183  -0.104   1.569   1.104  0.4455 -0.2793  0.0346
   52DG     C11 1184   0.331   1.329   1.042  0.1682  0.3369  0.0341
   52DG     C12 1185  -0.006   1.668   1.062 -0.5562  0.0622 -0.1497
   52DG     H13 1186   0.370   1.253   0.974  0.4916  1.7035 -1.3757
   52DG     H14 1187   0.415   1.380   1.089  2.3932 -0.6340 -2.6319
   52DG     H15 1188   0.054   1.714   1.140 -0.1795  0.7820 -0.8436
   52DG     H16 1189  -0.065   1.751   1.021 -0.1513  0.5104  0.1644
   52DG     C17 1190   0.253   1.422   0.945  0.2293 -0.0350  0.0234
   52DG     C18 1191   0.093   1.603   0.968  0.1452  0.5832  0.3901
   52DG     O19 1192   0.153   1.490   1.024  0.3103 -0.0018  0.1789
   52DG     H20 1193   0.201   1.359   0.873  1.9436  0.3977 -1.6768
   52DG     H21 1194   0.322   1.487   0.890  0.0852  0.3210  0.2627
   52DG     H22 1195   0.049   1.579   0.871  1.0086 -0.0540  0.1485
   52DG     H23 1196   0.179   1.669   0.955  1.0621 -0.9494 -1.9039
   53DG      C1 1197   1.863   0.684   0.869 -0.7347  0.9182 -0.1121
   53DG      C2 1198   2.498   0.947   0.705 -0.3831 -0.3588  0.0788
   53DG      H3 1199   1.930   0.636   0.941 -2.0584  3.9957  3.5159
   53DG      H4 1200   1.773   0.630   0.841 -0.1312 -0.3887  0.3755
   53DG      H5 1201   1.812   0.761   0.928 -2.8440 -0.4850 -0.0075
   53DG      H6 1202   2.510   0.946   0.813  0.3752 -1.2499  0.0007
   53DG      H7 1203   2.561   0.863   0.675 -0.7260 -0.2701 -0.9304
   53DG      H8 1204   2.532   1.042   0.663 -0.1133 -0.4373  0.1175
   53DG      O9 1205   1.927   0.750   0.760  0.2942  0.1480 -1.0986
   53DG     O10 1206   2.361   0.924   0.674  0.0768  0.8920  0.6066
   53DG     C11 1207   1.938   0.663   0.646 -0.4188  0.2155 -0.7957
   53DG     C12 1208   2.348   0.892   0.537 -0.6498 -0.3545 -0.7372
   53DG     H13 1209   1.842   0.646   0.597  0.5615 -0.6519 -2.4937
   53DG     H14 1210   1.974   0.564   0.671 -1.8621  0.1574  1.3321
   53DG     H15 1211   2.395   0.794   0.527  0.3510 -0.5125  3.6160
   53DG     H16 1212   2.395   0.973   0.482  1.1307 -1.5121 -1.0030
   53DG     C17 1213   2.032   0.729   0.548  0.1147  0.0726  0.0796
   53DG     C18 1214   2.200   0.890   0.506  0.0585 -0.4837  0.1535
   53DG     O19 1215   2.129   0.816   0.609 -0.3313  0.2694  0.2561
   53DG     H20 1216   1.975   0.783   0.473  0.1098 -1.1809 -0.8525
   53DG     H21 1217   2.086   0.643   0.507 -0.1073 -1.1601  2.2298
   53DG     H22 1218   2.147   0.985   0.512  0.8361 -0.0076 -0.2647
   53DG     H23 1219   2.184   0.839   0.411 -2.3307  0.0882  0.1775
   54DG      C1 1220   1.969   4.203   0.779 -0.0184  0.5062 -0.5025
   54DG      C2 1221   2.585   3.952   0.329 -0.0574  0.3701 -0.4450
   54DG      H3 1222   1.981   4.185   0.885  1.7303  0.6208 -0.6491
   54DG      H4 1223   1.867   4.207   0.740 -0.7530  0.7140  1.3346
   54DG      H5 1224   2.015   4.300   0.760  1.4511 -0.0194  0.2520
   54DG      H6 1225   2.594   3.851   0.289 -1.7847  1.0275 -2.6740
   54DG      H7 1226   2.592   4.025   0.248 -2.6378  2.6974  1.2505
   54DG      H8 1227   2.659   3.968   0.408  0.9768 -3.4175 -0.4288
   54DG      O9 1228   2.046   4.101   0.717 -0.4306  0.2326 -0.7361
   54DG     O10 1229   2.453   3.967   0.387  0.2097 -0.6236  0.4427
   54DG     C11 1230   2.049   4.127   0.575 -0.1064  0.2094 -0.2034
   54DG     C12 1231   2.416   3.861   0.476  0.7375 -0.4298 -0.5639
   54DG     H13 1232   2.121   4.206   0.556 -0.5710  0.6560 -0.1595
   54DG     H14 1233   1.954   4.175   0.551 -2.0191 -0.8825  4.0762
   54DG     H15 1234   2.447   3.898   0.573  0.4284 -0.2918 -0.5160
   54DG     H16 1235   2.466   3.766   0.456 -0.6973 -1.5920  1.0331
   54DG     C17 1236   2.083   4.007   0.485 -0.5076  0.7157  0.0490
   54DG     C18 1237   2.260   3.849   0.469 -0.0054  0.2707  0.1690
   54DG     O19 1238   2.212   3.966   0.525  0.2306 -0.3005  0.5411
   54DG     H20 1239   2.098   4.035   0.381  0.0357  0.1614 -0.0199
   54DG     H21 1240   2.005   3.931   0.476  0.6724 -0.3899 -1.2886
   54DG     H22 1241   2.234   3.833   0.365 -1.5239  0.2812  0.5209
   54DG     H23 1242   2.217   3.769   0.530  0.7449  0.9770  1.7009
   55DG      C1 1243   3.365   4.581   0.687  0.7493 -1.1278  0.4723
   55DG      C2 1244   3.876   4.959   0.704  0.3534  0.0103  0.3571
   55DG      H3 1245   3.317   4.676   0.709  2.3640 -0.5689  1.7344
   55DG      H4 1246   3.386   4.520   0.774  2.1132 -1.4051 -0.0241
   55DG      H5 1247   3.297   4.521   0.625  3.7988 -2.2765 -2.0530
   55DG      H6 1248   3.943   5.020   0.643  0.7955 -0.5507  0.2683
   55DG      H7 1249   3.787   5.019   0.723 -0.4621 -0.0780 -2.5706
   55DG      H8 1250   3.923   4.919   0.794 -0.3319 -1.5019  0.0753
   55DG      O9 1251   3.482   4.601   0.606 -0.2629  0.2247 -0.1881
   55DG     O10 1252   3.832   4.850   0.630 -0.4040 -0.0920  0.2000
   55DG     C11 1253   3.571   4.490   0.628  0.2704 -0.2001  0.1637
   55DG     C12 1254   3.946   4.767   0.585  0.6798 -0.2904 -0.5451
   55DG     H13 1255   3.515   4.397   0.618  0.7170 -0.7944  2.6572
   55DG     H14 1256   3.608   4.478   0.730  0.1552 -1.6218  0.0565
   55DG     H15 1257   3.993   4.737   0.678  1.9563 -0.6648 -1.2953
   55DG     H16 1258   4.021   4.825   0.532  1.0682 -0.4397 -0.1653
   55DG     C17 1259   3.700   4.494   0.535 -0.2434  0.3260 -0.3048
   55DG     C18 1260   3.889   4.656   0.500 -0.3130 -0.2452  0.3274
   55DG     O19 1261   3.772   4.611   0.578  0.9525  0.2993  0.2476
   55DG     H20 1262   3.669   4.505   0.431  0.0685  0.8681 -0.3439
   55DG     H21 1263   3.756   4.401   0.544 -1.6615 -0.6188 -0.9041
   55DG     H22 1264   3.868   4.697   0.401  1.5655 -0.7326 -0.3077
   55DG     H23 1265   3.958   4.573   0.487  2.3067  1.7624  0.6749
   56DG      C1 1266   4.105   4.938   4.206 -0.5700 -0.1990  1.2490
   56DG      C2 1267   4.523   4.706   4.678 -0.1560 -0.1773 -0.0281
   56DG      H3 1268   4.171   5.024   4.206  1.2168 -1.4972 -0.2829
   56DG      H4 1269   4.041   4.956   4.293 -1.9054 -1.0548  0.4753
   56DG      H5 1270   4.045   4.933   4.115 -0.0323  3.2581  0.5915
   56DG      H6 1271   4.573   4.803   4.675  1.3568 -0.9007  0.8911
   56DG      H7 1272   4.430   4.704   4.735 -0.4149 -4.7888 -0.2392
   56DG      H8 1273   4.584   4.634   4.732  0.0728  0.8727  1.1374
   56DG      O9 1274   4.173   4.809   4.220  0.1646 -0.8901 -0.2673
   56DG     O10 1275   4.479   4.667   4.550 -0.2860 -0.7020 -0.2606
   56DG     C11 1276   4.271   4.792   4.118 -0.4322  0.2201 -0.1511
   56DG     C12 1277   4.586   4.662   4.451  0.4416 -0.4549 -0.3049
   56DG     H13 1278   4.327   4.884   4.103  1.6574 -1.2202 -1.6380
   56DG     H14 1279   4.214   4.760   4.031  0.3140 -1.0665 -0.1914
   56DG     H15 1280   4.646   4.576   4.481 -0.7293 -1.4619 -0.7601
   56DG     H16 1281   4.650   4.750   4.443  2.1677 -1.5270  0.7101
   56DG     C17 1282   4.359   4.677   4.155 -0.1711 -0.3261  0.2715
   56DG     C18 1283   4.523   4.622   4.313  0.3381  0.2011  0.5286
   56DG     O19 1284   4.416   4.711   4.277 -0.3382  0.0125 -0.3294
   56DG     H20 1285   4.424   4.662   4.069  0.1979  2.8093 -0.0951
   56DG     H21 1286   4.293   4.591   4.169 -4.3007  1.7570 -3.8417
   56DG     H22 1287   4.604   4.619   4.240 -0.4780  1.8287 -0.4868
   56DG     H23 1288   4.484   4.521   4.324  0.9196 -0.0411  0.4324
   57DG      C1 1289   2.252   2.094   4.407 -0.2093 -0.3199 -0.1995
   57DG      C2 1290   2.853   1.783   4.541  0.0341 -0.4262  0.5844
   57DG      H3 1291   2.218   1.996   4.376  0.4382 -0.6785  0.1929
   57DG      H4 1292   2.306   2.118   4.315  0.3509 -0.4037  0.1041
   57DG      H5 1293   2.178   2.173   4.418  0.5554  0.7439 -2.1872
   57DG      H6 1294   2.907   1.805   4.450  2.5677 -1.0004  1.8524
   57DG      H7 1295   2.935   1.776   4.613 -1.6830 -1.7456  2.5425
   57DG      H8 1296   2.812   1.683   4.528 -0.1651 -0.1714 -0.9141
   57DG      O9 1297   2.348   2.097   4.507 -0.3536 -0.3079  0.3267
   57DG     O10 1298   2.756   1.881   4.577 -0.1972  0.0090 -0.2351
   57DG     C11 1299   2.293   2.104   4.633 -0.1975  0.1342  0.0754
   57DG     C12 1300   2.709   1.859   4.706 -0.2213 -0.0850  0.2712
   57DG     H13 1301   2.236   2.014   4.655  0.3172 -0.6984 -1.7609
   57DG     H14 1302   2.237   2.196   4.651 -0.5415  0.1213 -0.8752
   57DG     H15 1303   2.794   1.858   4.774 -0.3029 -1.3220  0.3899
   57DG     H16 1304   2.657   1.764   4.721  0.0357 -0.3983 -0.7685
   57DG     C17 1305   2.415   2.098   4.728 -0.6730  0.1194  0.2474
   57DG     C18 1306   2.621   1.980   4.758 -0.1858  0.4886  0.8194
   57DG     O19 1307   2.495   1.984   4.689  0.2639  0.3191 -0.2289
   57DG     H20 1308   2.398   2.113   4.835  2.2577  2.4221  0.5283
   57DG     H21 1309   2.466   2.190   4.699 -2.6727  2.1875  2.7793
   57DG     H22 1310   2.605   1.965   4.865 -1.4104 -0.5622  0.5267
   57DG     H23 1311   2.680   2.070   4.749  2.4173 -0.9174  2.6256
   58DG      C1 1312   4.710   3.310   0.903 -0.3178 -0.2092  0.2749
   58DG      C2 1313   4.445   3.643   1.412  0.4690  0.3599 -0.9729
   58DG      H3 1314   4.721   3.226   0.835  2.7894  0.3788 -0.1132
   58DG      H4 1315   4.806   3.322   0.953  0.1868  1.5812 -1.0236
   58DG      H5 1316   4.692   3.393   0.834  2.2370 -0.6497 -1.0261
   58DG      H6 1317   4.399   3.669   1.507  1.1474 -2.8005  0.3584
   58DG      H7 1318   4.553   3.646   1.425  0.3902  0.4902 -0.3254
   58DG      H8 1319   4.423   3.725   1.344 -1.9514  0.2278 -0.4291
   58DG      O9 1320   4.598   3.304   0.998 -0.1017  0.8058 -0.0933
   58DG     O10 1321   4.396   3.518   1.358 -0.2881  0.3419  0.7434
   58DG     C11 1322   4.608   3.180   1.064  0.4947  0.2478  0.4845
   58DG     C12 1323   4.428   3.401   1.435  0.8485  0.0899  0.8174
   58DG     H13 1324   4.708   3.168   1.106  1.8706  0.1347 -2.5456
   58DG     H14 1325   4.588   3.098   0.995  0.8659 -1.9429  2.8285
   58DG     H15 1326   4.375   3.394   1.530  0.7971 -0.3747  0.7576
   58DG     H16 1327   4.535   3.395   1.455  1.9078 -1.9448 -4.0588
   58DG     C17 1328   4.496   3.163   1.170  0.7643 -0.2543 -0.2345
   58DG     C18 1329   4.391   3.274   1.353 -0.0547 -0.2080 -0.2283
   58DG     O19 1330   4.465   3.286   1.231 -0.2989 -0.2181 -0.0035
   58DG     H20 1331   4.523   3.097   1.252 -0.8203 -0.6883 -0.0292
   58DG     H21 1332   4.399   3.137   1.130 -0.0614 -0.3942  1.7575
   58DG     H22 1333   4.432   3.190   1.409 -1.2257 -1.7747 -1.6355
   58DG     H23 1334   4.286   3.258   1.329  0.9121 -4.3225 -2.6747
   59DG      C1 1335   4.115   4.551   4.521  0.7229 -0.7516  0.3725
   59DG      C2 1336   4.458   5.061   4.372 -0.2759  0.2007 -0.3246
   59DG      H3 1337   4.216   4.509   4.526  0.6271 -0.9726  0.4582
   59DG      H4 1338   4.090   4.542   4.415  1.6559 -1.4478  0.1923
   59DG      H5 1339   4.041   4.487   4.568  0.2848  0.1961  1.0057
   59DG      H6 1340   4.491   5.165   4.365  1.4385 -0.4238 -2.5951
   59DG      H7 1341   4.542   4.993   4.376 -1.1810 -0.9755 -0.7103
   59DG      H8 1342   4.401   5.054   4.279 -0.5628  0.8423 -0.2046
   59DG      O9 1343   4.136   4.684   4.579 -0.3553  0.1673  0.1889
   59DG     O10 1344   4.379   5.015   4.480 -0.1068 -0.0983 -0.0578
   59DG     C11 1345   4.008   4.751   4.590  0.3725  0.1788  0.0768
   59DG     C12 1346   4.288   5.113   4.527 -0.2730 -0.6455  0.2961
   59DG     H13 1347   3.940   4.689   4.649 -1.2007 -0.6595 -2.4174
   59DG     H14 1348   3.974   4.760   4.487  0.0049  1.7532  0.3212
   59DG     H15 1349   4.235   5.172   4.453  2.4006  1.1356 -0.3268
   59DG     H16 1350   4.353   5.183   4.579 -0.9710 -0.7911  1.4012
   59DG     C17 1351   4.026   4.890   4.641 -0.7555 -0.6017  0.2959
   59DG     C18 1352   4.190   5.049   4.631  0.1901 -0.0885 -1.0260
   59DG     O19 1353   4.135   4.944   4.561 -0.1088  0.1614  0.1404
   59DG     H20 1354   4.060   4.879   4.744  0.1605 -1.9190 -0.1202
   59DG     H21 1355   3.937   4.953   4.631 -0.9656 -1.1819 -2.0336
   59DG     H22 1356   4.243   5.012   4.718 -1.9162  1.3350  0.9842
   59DG     H23 1357   4.123   5.131   4.656  1.5082  0.6458  0.1892
   60DG      C1 1358   3.847   3.771   0.752  1.0829 -0.5587  0.0884
   60DG      C2 1359   4.140   3.832   0.121  0.9235 -0.1941  0.0628
   60DG      H3 1360   3.769   3.844   0.732  1.6438 -0.5220 -2.2125
   60DG      H4 1361   3.869   3.777   0.858  3.5209 -0.5261 -0.3660
   60DG      H5 1362   3.803   3.675   0.724 -1.6273  1.1937 -2.1703
   60DG      H6 1363   4.126   3.726   0.101  1.5895 -0.0954 -1.0179
   60DG      H7 1364   4.063   3.890   0.070  0.4578 -2.3160 -1.7809
   60DG      H8 1365   4.228   3.857   0.061 -0.1243 -0.6812 -1.7516
   60DG      O9 1366   3.972   3.783   0.690  0.0532 -0.3461  0.3093
   60DG     O10 1367   4.169   3.855   0.258  0.2942 -0.2027 -0.2444
   60DG     C11 1368   4.036   3.901   0.735  0.0969  0.5155  0.2754
   60DG     C12 1369   4.170   3.993   0.278  0.3476 -0.3831  0.2665
   60DG     H13 1370   4.084   3.879   0.830  3.7071 -0.0172 -1.5260
   60DG     H14 1371   3.974   3.991   0.735 -1.0502 -0.2397  1.3938
   60DG     H15 1372   4.071   4.034   0.257 -0.2620 -0.9865  1.7969
   60DG     H16 1373   4.237   4.048   0.212  0.8265 -0.5851  0.5786
   60DG     C17 1374   4.153   3.936   0.637  0.2998  0.6148  0.0717
   60DG     C18 1375   4.200   4.022   0.424  0.0752 -0.1106 -0.2957
   60DG     O19 1376   4.112   3.942   0.497  0.0073 -0.1926 -0.1546
   60DG     H20 1377   4.235   3.869   0.660 -0.5899 -0.1879  1.0486
   60DG     H21 1378   4.186   4.036   0.665 -0.2257  0.4697  1.2730
   60DG     H22 1379   4.306   4.006   0.442  0.1484  0.9312  0.2999
   60DG     H23 1380   4.169   4.126   0.439  1.0605  0.1686 -0.1111
   61DG      C1 1381   0.494   0.640   2.343  0.2284 -0.2821  0.4384
   61DG      C2 1382  -0.116   0.228   2.399 -0.1891 -0.0144 -0.7493
   61DG      H3 1383   0.477   0.670   2.239  2.1198 -2.5453 -0.6340
   61DG      H4 1384   0.595   0.600   2.356 -0.2310 -1.2264  1.2273
   61DG      H5 1385   0.494   0.731   2.403 -2.9691  0.6048 -0.7221
   61DG      H6 1386  -0.161   0.256   2.304 -0.2088 -1.5549 -1.2275
   61DG      H7 1387  -0.127   0.120   2.412  1.0788  0.1132  2.0582
   61DG      H8 1388  -0.174   0.271   2.480  0.5262 -0.6121  0.0976
   61DG      O9 1389   0.398   0.546   2.380 -0.6961  0.0216  0.2013
   61DG     O10 1390   0.018   0.272   2.406  0.3906  0.2198 -0.3541
   61DG     C11 1391   0.427   0.509   2.512 -0.5932 -0.2473 -0.4724
   61DG     C12 1392   0.072   0.234   2.535 -0.2073  0.1047  0.0575
   61DG     H13 1393   0.427   0.595   2.579 -0.6405 -0.2649 -0.4500
   61DG     H14 1394   0.531   0.478   2.524 -0.9134 -1.4173 -0.5864
   61DG     H15 1395   0.163   0.178   2.515 -1.3618 -1.5017 -0.9144
   61DG     H16 1396   0.015   0.168   2.601 -2.0324  2.6900  1.2505
   61DG     C17 1397   0.331   0.403   2.569 -0.5501 -0.3048  0.2754
   61DG     C18 1398   0.104   0.354   2.625 -0.5339  0.0514  0.2709
   61DG     O19 1399   0.195   0.445   2.554 -0.0472  0.2101 -0.3783
   61DG     H20 1400   0.348   0.404   2.677  0.6637 -0.0579  0.0978
   61DG     H21 1401   0.340   0.303   2.528 -1.2884  0.1094 -0.9237
   61DG     H22 1402   0.005   0.398   2.641 -0.4468 -0.0404  1.0954
   61DG     H23 1403   0.139   0.321   2.722  1.2487 -0.5116 -0.5197
   62DG      C1 1404   2.943   3.011   0.102  0.1388 -0.4308  0.3350
   62DG      C2 1405   3.191   3.019   0.766 -0.5346  0.2067 -0.4051
   62DG      H3 1406   3.027   2.969   0.047 -0.0495  1.0373 -1.1366
   62DG      H4 1407   2.875   3.051   0.028 -0.5166 -2.6710 -0.3486
   62DG      H5 1408   2.887   2.931   0.151 -1.6131 -1.4023 -2.9473
   62DG      H6 1409   3.253   3.077   0.834  0.1835 -3.9848  2.9186
   62DG      H7 1410   3.105   2.991   0.827 -1.1685  2.0803 -0.3799
   62DG      H8 1411   3.239   2.929   0.728 -0.9762 -1.2792  2.2931
   62DG      O9 1412   3.000   3.112   0.182  0.4450 -0.7987 -0.0894
   62DG     O10 1413   3.145   3.085   0.652  0.4429 -0.3516 -0.0936
   62DG     C11 1414   2.901   3.195   0.248 -0.3724 -0.9721 -0.7490
   62DG     C12 1415   3.077   3.204   0.686  0.1180  0.3978  0.5993
   62DG     H13 1416   2.834   3.141   0.315 -0.3035 -1.0924 -0.7781
   62DG     H14 1417   2.843   3.242   0.168  0.4686  0.0241 -0.7953
   62DG     H15 1418   3.138   3.263   0.755  0.0723  1.2999 -0.1275
   62DG     H16 1419   2.983   3.182   0.737  0.9853 -1.3747  1.5666
   62DG     C17 1420   2.980   3.295   0.335 -0.0024 -0.0243 -0.7428
   62DG     C18 1421   3.059   3.293   0.560 -0.0549  0.4467  0.5920
   62DG     O19 1422   3.005   3.219   0.450 -0.6266  0.3269 -0.5126
   62DG     H20 1423   2.915   3.379   0.357  1.0759  1.0934 -1.6724
   62DG     H21 1424   3.071   3.337   0.291  0.2739  0.8769  0.6078
   62DG     H22 1425   2.988   3.373   0.581 -0.7642 -0.2393  0.8654
   62DG     H23 1426   3.158   3.331   0.535 -0.0085  0.4044  0.7152
   63DG      C1 1427   5.222   0.111   3.671  0.1421 -0.1992 -0.2677
   63DG      C2 1428   4.563  -0.118   3.505  0.3777 -0.6920  0.1181
   63DG      H3 1429   5.222   0.041   3.754  3.3074 -1.3100 -1.0606
   63DG      H4 1430   5.294   0.187   3.702 -0.2543 -0.0901  0.3910
   63DG      H5 1431   5.269   0.056   3.589 -0.9178 -1.5547  0.0142
   63DG      H6 1432   4.580  -0.186   3.421 -1.6573 -0.2283 -0.7570
   63DG      H7 1433   4.591  -0.169   3.597  0.5330  0.3884  0.6847
   63DG      H8 1434   4.454  -0.116   3.496  0.3664 -1.7810 -0.0756
   63DG      O9 1435   5.087   0.146   3.659 -0.4536 -0.2677  0.6307
   63DG     O10 1436   4.645  -0.006   3.483  0.5472  0.1430  0.3236
   63DG     C11 1437   5.063   0.256   3.575  0.2056 -0.5991 -0.3759
   63DG     C12 1438   4.602   0.101   3.566  0.1636  0.4233  0.0699
   63DG     H13 1439   5.079   0.226   3.471 -1.3164 -0.5334 -0.6531
   63DG     H14 1440   5.131   0.340   3.594 -0.3309  0.9851 -4.4158
   63DG     H15 1441   4.606   0.065   3.669  0.5806 -0.5361 -0.2640
   63DG     H16 1442   4.501   0.128   3.533  0.5008 -0.4973 -1.8920
   63DG     C17 1443   4.918   0.295   3.600 -0.2706 -0.4777 -0.8476
   63DG     C18 1444   4.691   0.220   3.563  0.3275 -0.3201 -0.2998
   63DG     O19 1445   4.832   0.186   3.573 -0.1526  0.1082  0.0549
   63DG     H20 1446   4.892   0.380   3.537  1.1853 -1.0004 -2.2178
   63DG     H21 1447   4.902   0.333   3.701 -2.4395 -0.2485 -1.2355
   63DG     H22 1448   4.681   0.278   3.471  1.6925 -1.1377 -0.9842
   63DG     H23 1449   4.670   0.282   3.650  1.5524  0.4875 -0.5667
   64DG      C1 1450   1.236   0.487   1.252  0.0550  0.0563 -0.7696
   64DG      C2 1451   0.929   0.577   0.653 -0.0339  0.5724 -0.5089
   64DG      H3 1452   1.329   0.537   1.222 -0.6161  0.0082 -3.0925
   64DG      H4 1453   1.253   0.380   1.255  2.5211  0.2861 -2.6659
   64DG      H5 1454   1.211   0.504   1.357 -1.2694 -1.7811 -0.7557
   64DG      H6 1455   1.018   0.640   0.642 -0.0225  0.2575 -2.7231
   64DG      H7 1456   0.949   0.484   0.601 -0.5266  0.4894 -0.5541
   64DG      H8 1457   0.843   0.618   0.601 -1.0028 -0.7411  0.0105
   64DG      O9 1458   1.119   0.518   1.177 -0.3650 -0.1308 -0.1626
   64DG     O10 1459   0.897   0.568   0.791  0.2736  0.0521  0.0588
   64DG     C11 1460   1.006   0.441   1.219  0.1317  0.0827 -0.4879
   64DG     C12 1461   0.782   0.491   0.806  0.3904  0.5728 -0.8016
   64DG     H13 1462   0.993   0.468   1.324  1.7741  1.5173 -0.6147
   64DG     H14 1463   1.020   0.333   1.225 -1.0336 -0.0327  0.8268
   64DG     H15 1464   0.784   0.394   0.756 -0.9903  0.2615 -0.2905
   64DG     H16 1465   0.690   0.537   0.768 -0.9698 -0.0881  1.5012
   64DG     C17 1466   0.873   0.492   1.158 -0.4895  0.2282 -0.8478
   64DG     C18 1467   0.759   0.482   0.957  0.4509 -0.4648 -0.6809
   64DG     O19 1468   0.881   0.449   1.023 -0.3834  0.4188  0.1953
   64DG     H20 1469   0.863   0.601   1.156  2.1785  0.5190 -1.0513
   64DG     H21 1470   0.788   0.445   1.207  0.8671 -2.3362 -0.8248
   64DG     H22 1471   0.727   0.581   0.989 -2.8102 -1.7435  0.4634
   64DG     H23 1472   0.673   0.419   0.980  1.2313 -0.6967  1.9292
   65DG      C1 1473   1.060   1.736   0.636 -0.1321  0.0797  0.5018
   65DG      C2 1474   1.526   2.089   1.032  0.1736  0.0105 -0.4460
   65DG      H3 1475   1.003   1.699   0.551  0.4793 -2.0742  0.9631
   65DG      H4 1476   0.976   1.768   0.697 -0.7785  1.0716 -0.8597
   65DG      H5 1477   1.117   1.656   0.684 -0.2299  0.3452  1.0697
   65DG      H6 1478   1.595   2.011   1.064  1.0583  0.6114 -0.8396
   65DG      H7 1479   1.584   2.181   1.039 -0.1920  0.2795 -0.8635
   65DG      H8 1480   1.449   2.102   1.108  0.6668  3.7801 -0.4234
   65DG      O9 1481   1.160   1.836   0.622  0.4994 -0.4318  0.0173
   65DG     O10 1482   1.464   2.064   0.905 -0.5029  0.9537 -0.2731
   65DG     C11 1483   1.246   1.835   0.505  0.4538 -0.4122  0.2999
   65DG     C12 1484   1.544   2.093   0.797  0.6040  0.0019  0.6018
   65DG     H13 1485   1.194   1.840   0.409  1.4141  0.4853 -0.1875
   65DG     H14 1486   1.300   1.740   0.513 -1.1074 -1.4862 -1.1111
   65DG     H15 1487   1.620   2.015   0.801 -0.8787 -1.4979  0.7635
   65DG     H16 1488   1.593   2.189   0.812  2.9460 -0.8037 -1.2299
   65DG     C17 1489   1.336   1.964   0.510 -0.4713 -0.5220  0.0149
   65DG     C18 1490   1.480   2.088   0.654  0.0408  0.2787 -0.1786
   65DG     O19 1491   1.408   1.967   0.633  0.2965  0.3033 -0.0698
   65DG     H20 1492   1.272   2.052   0.510  0.2388  0.0023 -0.7170
   65DG     H21 1493   1.402   1.962   0.424  1.2360 -1.5083  1.2795
   65DG     H22 1494   1.414   2.174   0.640 -1.3943 -0.5121  1.3675
   65DG     H23 1495   1.561   2.097   0.582  0.5080 -0.0301  0.3044
   66DG      C1 1496   3.013   1.061   1.849  0.1514  0.4011 -0.4254
   66DG      C2 1497   3.427   1.144   2.323 -0.7542 -0.1335 -0.2134
   66DG      H3 1498   2.962   1.021   1.762 -0.1643  0.5862 -0.3274
   66DG      H4 1499   3.098   1.110   1.801  0.1230 -0.3717 -1.2868
   66DG      H5 1500   2.941   1.135   1.884 -1.0739  0.2896 -2.5576
   66DG      H6 1501   3.499   1.172   2.246  0.7326 -2.1755  0.3292
   66DG      H7 1502   3.374   1.232   2.357 -0.6303 -0.0453 -0.2466
   66DG      H8 1503   3.489   1.121   2.410  2.1732  0.6966 -1.9356
   66DG      O9 1504   3.061   0.976   1.951 -0.3972 -0.5086  0.1544
   66DG     O10 1505   3.347   1.032   2.298 -0.8556  0.2764  0.3437
   66DG     C11 1506   2.960   0.913   2.025 -0.2974 -0.2856  0.4735
   66DG     C12 1507   3.251   1.002   2.399 -0.0578 -0.5149 -0.2574
   66DG     H13 1508   2.920   0.844   1.951 -0.9546  0.4735  0.1020
   66DG     H14 1509   2.879   0.982   2.049 -1.8229 -1.1657 -1.7384
   66DG     H15 1510   3.195   1.092   2.419  2.5749  1.3206 -0.6315
   66DG     H16 1511   3.302   0.966   2.488 -0.1257  0.8687  0.3627
   66DG     C17 1512   3.021   0.847   2.144 -0.6096 -0.7458 -0.3217
   66DG     C18 1513   3.165   0.894   2.335  0.2679  0.1627  0.4249
   66DG     O19 1514   3.111   0.941   2.211  0.1738  0.1851 -0.0757
   66DG     H20 1515   3.081   0.761   2.112 -1.3294 -1.6026  0.5462
   66DG     H21 1516   2.942   0.820   2.214 -1.3164 -2.5325 -1.7286
   66DG     H22 1517   3.215   0.798   2.322  0.0759  0.4070 -2.8967
   66DG     H23 1518   3.076   0.892   2.398  0.3775  0.7565  0.6003
   67DG      C1 1519   1.081   2.815   2.212  0.3236 -0.4677 -0.4645
   67DG      C2 1520   0.505   2.493   2.416 -0.1269  0.5379  0.6406
   67DG      H3 1521   1.147   2.769   2.138  0.1679 -1.7726  0.1802
   67DG      H4 1522   1.126   2.764   2.297  0.7786  2.3540  1.0997
   67DG      H5 1523   1.089   2.923   2.220  0.3860 -0.4957 -0.1551
   67DG      H6 1524   0.486   2.570   2.491 -1.9745  0.9923 -0.2368
   67DG      H7 1525   0.411   2.445   2.388  0.9835  0.3954 -3.4771
   67DG      H8 1526   0.558   2.413   2.467 -1.2928 -0.4488  0.3616
   67DG      O9 1527   0.949   2.766   2.170 -0.4729  0.1488 -0.0476
   67DG     O10 1528   0.574   2.538   2.306  0.3720 -0.0171  0.4253
   67DG     C11 1529   0.904   2.832   2.055 -0.3498 -0.2969 -0.3008
   67DG     C12 1530   0.498   2.628   2.221 -0.2303 -0.8466  0.0626
   67DG     H13 1531   0.978   2.849   1.977 -0.3492 -0.8147 -0.4166
   67DG     H14 1532   0.885   2.933   2.090 -0.0912 -0.0687 -0.8217
   67DG     H15 1533   0.472   2.711   2.286 -0.8142 -0.6981 -0.3431
   67DG     H16 1534   0.400   2.592   2.187 -0.5156  1.7715 -2.2089
   67DG     C17 1535   0.773   2.755   2.009  0.0825 -0.4406  0.3161
   67DG     C18 1536   0.569   2.677   2.090 -0.2697  0.1994  0.2271
   67DG     O19 1537   0.690   2.738   2.122  0.0203  0.1692 -0.3019
   67DG     H20 1538   0.788   2.665   1.949 -3.1021 -0.7453 -0.1822
   67DG     H21 1539   0.733   2.814   1.927  1.4152 -0.9267 -0.7275
   67DG     H22 1540   0.591   2.588   2.030  1.3616  0.1818  0.8080
   67DG     H23 1541   0.492   2.730   2.034 -1.9210 -2.6758 -0.4233
   68DG      C1 1542   3.067   5.230   3.968  0.5656  0.2468  1.1848
   68DG      C2 1543   3.025   5.935   3.884  0.1079  0.2254 -0.1920
   68DG      H3 1544   3.099   5.288   3.882 -1.5234  0.2083  0.3262
   68DG      H4 1545   3.015   5.138   3.942  0.4415  0.1171  1.8669
   68DG      H5 1546   3.153   5.210   4.032  0.5258 -0.6226  0.9727
   68DG      H6 1547   3.131   5.921   3.903 -0.4601 -1.0686  2.5269
   68DG      H7 1548   3.014   5.973   3.782 -0.4246  1.7787  0.4000
   68DG      H8 1549   2.996   6.019   3.948 -0.5200  0.5675 -0.9129
   68DG      O9 1550   2.967   5.308   4.037  0.5247 -0.2007 -0.3391
   68DG     O10 1551   2.946   5.822   3.889 -0.8303 -0.0618 -0.9903
   68DG     C11 1552   2.850   5.318   3.958  0.1752  0.2561 -0.1780
   68DG     C12 1553   2.913   5.793   4.025  0.1664  0.2995  0.8859
   68DG     H13 1554   2.776   5.250   3.998 -0.4080  1.4317  0.7849
   68DG     H14 1555   2.861   5.278   3.857  0.2467 -2.3466  0.7780
   68DG     H15 1556   2.870   5.885   4.064  0.5203  0.2067  1.5246
   68DG     H16 1557   3.000   5.769   4.087  0.7079 -0.7591 -0.2414
   68DG     C17 1558   2.791   5.456   3.966  0.9698  0.5009 -0.2826
   68DG     C18 1559   2.820   5.674   4.034 -0.0911 -0.0026  0.7077
   68DG     O19 1560   2.883   5.566   3.964 -0.0499 -0.1986  0.2693
   68DG     H20 1561   2.739   5.462   4.062 -1.3005 -2.0885 -1.1980
   68DG     H21 1562   2.715   5.472   3.889 -0.7240 -1.7213  0.7902
   68DG     H22 1563   2.811   5.652   4.140 -0.7672 -1.6559  0.3432
   68DG     H23 1564   2.719   5.695   4.000 -0.3514  0.3886  1.6863
   69DG      C1 1565   3.893   5.281   1.847 -0.3748 -0.5877 -0.4539
   69DG      C2 1566   4.038   4.794   2.278  0.2118  0.4725 -0.2062
   69DG      H3 1567   3.952   5.329   1.768  0.9975 -0.4345  0.6281
   69DG      H4 1568   3.816   5.350   1.884 -0.0502 -0.6896  0.4191
   69DG      H5 1569   3.843   5.195   1.803  0.8624 -3.3454  3.0822
   69DG      H6 1570   4.116   4.719   2.269 -0.2564 -0.0591  0.0805
   69DG      H7 1571   4.000   4.795   2.380 -1.7965 -0.5633 -0.8736
   69DG      H8 1572   3.955   4.766   2.212  0.7487  2.8069 -2.0036
   69DG      O9 1573   3.975   5.226   1.947 -0.0279  0.3966  0.4846
   69DG     O10 1574   4.087   4.930   2.242  0.0621 -0.4464 -0.4817
   69DG     C11 1575   4.064   5.316   2.012  0.5750 -0.4614  0.2845
   69DG     C12 1576   4.231   4.939   2.259  0.0607 -0.4014 -0.0808
   69DG     H13 1577   4.016   5.407   2.048 -1.9416 -1.2558 -0.7830
   69DG     H14 1578   4.120   5.352   1.925 -0.7786  1.6699  0.2243
   69DG     H15 1579   4.274   4.868   2.189  1.6112 -0.3456  0.7731
   69DG     H16 1580   4.253   4.903   2.359 -1.5506 -0.5488  0.2395
   69DG     C17 1581   4.138   5.261   2.132  0.7941 -0.0037 -0.0994
   69DG     C18 1582   4.274   5.090   2.227  0.4190  0.2764  0.7223
   69DG     O19 1583   4.193   5.133   2.116  0.3626  0.2305  0.0993
   69DG     H20 1584   4.062   5.252   2.209 -1.7870 -1.6943 -2.6409
   69DG     H21 1585   4.215   5.332   2.164  0.3084  0.3015  0.3992
   69DG     H22 1586   4.254   5.158   2.310 -1.8192  0.8669 -0.2288
   69DG     H23 1587   4.380   5.090   2.201  0.5272  0.2364  1.1435
   70DG      C1 1588   2.862   5.383   2.051 -0.2370  0.1294  0.4354
   70DG      C2 1589   2.712   5.718   2.639  0.2794  0.5066  0.6510
   70DG      H3 1590   2.898   5.306   2.119 -0.3150 -0.8444 -0.5962
   70DG      H4 1591   2.911   5.365   1.956 -1.4824  0.5752 -0.3141
   70DG      H5 1592   2.754   5.373   2.059 -0.4601 -1.5986 -3.0279
   70DG      H6 1593   2.767   5.651   2.704 -0.8950 -2.4434 -1.1706
   70DG      H7 1594   2.782   5.797   2.614  0.5279  0.1895  0.3244
   70DG      H8 1595   2.627   5.759   2.694 -1.7829 -1.2998 -0.9739
   70DG      O9 1596   2.894   5.516   2.103 -0.6755 -0.0229  0.5390
   70DG     O10 1597   2.668   5.650   2.522 -0.4044 -0.1438 -0.3330
   70DG     C11 1598   2.829   5.628   2.035 -0.0575  0.5418  0.2020
   70DG     C12 1599   2.604   5.746   2.434  0.1219 -0.7950 -0.2035
   70DG     H13 1600   2.805   5.590   1.936 -3.6962  0.0857  1.1246
   70DG     H14 1601   2.890   5.718   2.036  0.0950  0.4538 -0.5565
   70DG     H15 1602   2.658   5.841   2.435  1.2338 -1.4021  1.7438
   70DG     H16 1603   2.513   5.765   2.491  1.0158  0.1703  0.9492
   70DG     C17 1604   2.688   5.661   2.091 -0.3858  0.4106 -0.1197
   70DG     C18 1605   2.572   5.678   2.299  0.0442 -0.8447  0.3253
   70DG     O19 1606   2.695   5.688   2.227  0.2052  0.0009  0.0557
   70DG     H20 1607   2.630   5.569   2.080 -0.4237  0.4389 -0.1535
   70DG     H21 1608   2.642   5.741   2.033 -0.1742  0.4694 -0.2042
   70DG     H22 1609   2.552   5.575   2.328  1.0992 -0.6764  1.7425
   70DG     H23 1610   2.488   5.728   2.251  0.8068  2.2722  1.9844
   71DG      C1 1611   1.756   3.777   5.110 -0.5873  0.5851 -0.1095
   71DG      C2 1612   2.160   3.101   5.062  0.5571 -0.0651 -0.3812
   71DG      H3 1613   1.675   3.756   5.180 -2.0631 -2.8409 -2.5912
   71DG      H4 1614   1.713   3.836   5.029 -0.2582 -0.4161 -1.0381
   71DG      H5 1615   1.837   3.832   5.157  2.1553 -3.3747  0.2847
   71DG      H6 1616   2.128   3.036   5.143  2.7350  0.5259  1.0265
   71DG      H7 1617   2.204   3.039   4.983 -0.3940 -1.0607 -0.1687
   71DG      H8 1618   2.241   3.158   5.108  3.0227 -2.3935 -1.5469
   71DG      O9 1619   1.797   3.655   5.050 -0.3552  0.7263 -0.0198
   71DG     O10 1620   2.071   3.202   5.000 -0.7460 -0.2368  0.8146
   71DG     C11 1621   1.691   3.571   5.013  0.8633 -0.5036 -0.0578
   71DG     C12 1622   1.948   3.146   4.961 -0.1196  0.2216  0.1931
   71DG     H13 1623   1.619   3.629   4.955  1.5030  0.6475  0.2895
   71DG     H14 1624   1.648   3.517   5.097 -0.5026 -1.5202 -1.3445
   71DG     H15 1625   1.899   3.096   5.044  2.1859 -0.3422  1.2771
   71DG     H16 1626   1.964   3.073   4.882 -0.4379 -0.4561  0.7441
   71DG     C17 1627   1.739   3.461   4.921  0.0425  0.0247  0.2735
   71DG     C18 1628   1.845   3.246   4.913 -0.2380  0.3115  0.2079
   71DG     O19 1629   1.821   3.363   4.987  0.3331 -0.0506 -0.1772
   71DG     H20 1630   1.801   3.517   4.851  0.9821 -0.4783  0.6784
   71DG     H21 1631   1.649   3.420   4.877  1.8364 -0.8724 -2.8725
   71DG     H22 1632   1.869   3.292   4.817 -1.0886  1.9289  0.7399
   71DG     H23 1633   1.752   3.192   4.896 -0.9733 -0.1115  4.4060
   72DG      C1 1634   4.336   1.697   1.403  0.1478 -0.1063 -0.1975
   72DG      C2 1635   4.310   2.357   0.933  0.0951 -0.1457 -0.0684
   72DG      H3 1636   4.331   1.755   1.495  0.7545  1.5573 -1.1690
   72DG      H4 1637   4.424   1.633   1.402 -0.4539 -1.0156  1.3524
   72DG      H5 1638   4.248   1.632   1.404  0.7693 -1.0263  2.2921
   72DG      H6 1639   4.220   2.412   0.906 -1.0485 -1.9312 -0.0295
   72DG      H7 1640   4.379   2.431   0.973 -0.0005  0.8062 -1.6008
   72DG      H8 1641   4.354   2.322   0.840  2.1341  1.3912  0.2516
   72DG      O9 1642   4.337   1.782   1.291 -0.0053 -0.0964 -0.1255
   72DG     O10 1643   4.281   2.256   1.036 -1.2504 -0.8183 -0.4751
   72DG     C11 1644   4.372   1.916   1.304 -0.3717 -0.5276  0.2033
   72DG     C12 1645   4.159   2.188   1.021 -0.7847  0.2275  0.3914
   72DG     H13 1646   4.477   1.927   1.332  0.7314  0.5801 -3.8247
   72DG     H14 1647   4.307   1.965   1.376 -1.3380  0.7627 -1.5040
   72DG     H15 1648   4.157   2.149   0.920 -1.8818  2.0911 -0.3645
   72DG     H16 1649   4.078   2.260   1.027 -0.7786  0.2700 -0.0703
   72DG     C17 1650   4.358   1.986   1.170  0.2636  0.1233 -0.7644
   72DG     C18 1651   4.142   2.077   1.126 -0.3784  0.8610 -0.2318
   72DG     O19 1652   4.229   1.970   1.117  0.0598 -0.4331  0.6687
   72DG     H20 1653   4.432   1.931   1.113  2.6192 -0.2979  2.4382
   72DG     H21 1654   4.386   2.091   1.174  0.5265  0.0388  2.0914
   72DG     H22 1655   4.134   2.122   1.225 -2.8109 -0.1733  0.1210
   72DG     H23 1656   4.044   2.031   1.116 -0.4594 -0.0568  3.3576
   73DG      C1 1657   0.595   0.453   0.031  0.7056 -0.4951  0.0110
   73DG      C2 1658   0.418  -0.241  -0.114 -0.2948 -0.1689  0.4486
   73DG      H3 1659   0.607   0.455   0.140 -1.2220 -1.2369  0.2717
   73DG      H4 1660   0.578   0.555  -0.004 -1.6453 -0.9400 -0.3156
   73DG      H5 1661   0.687   0.409  -0.007  1.1962 -0.1070  0.7242
   73DG      H6 1662   0.335  -0.297  -0.156 -1.3419  0.1661  2.0273
   73DG      H7 1663   0.500  -0.255  -0.185 -0.6397  2.3158 -0.5349
   73DG      H8 1664   0.456  -0.281  -0.020  1.5589 -2.5889 -1.2051
   73DG      O9 1665   0.477   0.370   0.011 -0.5589 -0.3487  0.0384
   73DG     O10 1666   0.390  -0.101  -0.108  0.6778 -0.2594 -0.2697
   73DG     C11 1667   0.410   0.414  -0.105  0.1908 -0.6926  0.2925
   73DG     C12 1668   0.355  -0.044  -0.236  0.5226  0.1098  0.1115
   73DG     H13 1669   0.477   0.422  -0.191  0.5273  0.3472  0.6301
   73DG     H14 1670   0.362   0.512  -0.093 -1.0599 -1.5231  2.9886
   73DG     H15 1671   0.284  -0.116  -0.277  0.2350 -0.5518  1.7145
   73DG     H16 1672   0.442  -0.043  -0.302 -1.0813 -1.4931 -2.1798
   73DG     C17 1673   0.308   0.306  -0.142 -0.1658 -1.1603 -0.2966
   73DG     C18 1674   0.283   0.086  -0.217 -0.1633 -0.4625 -0.5304
   73DG     O19 1675   0.376   0.187  -0.166 -0.0409 -0.4071  0.0267
   73DG     H20 1676   0.265   0.338  -0.237  1.6359 -0.5946 -0.9600
   73DG     H21 1677   0.224   0.297  -0.073  0.0452 -2.7066 -0.1946
   73DG     H22 1678   0.266   0.129  -0.316 -0.9781 -2.3503 -1.2670
   73DG     H23 1679   0.200   0.081  -0.146 -1.1576  3.2539 -1.2263
   74DG      C1 1680   2.856   0.290   0.900  0.3193 -0.0717  0.0598
   74DG      C2 1681   2.843   0.265   0.246  0.0381  1.1511  0.6296
   74DG      H3 1682   2.873   0.278   1.007 -1.3819  0.6134  0.4363
   74DG      H4 1683   2.842   0.189   0.860 -0.9639  0.9121 -2.1639
   74DG      H5 1684   2.759   0.339   0.887  0.3505  0.6197  2.1248
   74DG      H6 1685   2.858   0.303   0.145  1.6662  3.0215  1.5144
   74DG      H7 1686   2.811   0.162   0.233  1.5383  0.6106  1.0594
   74DG      H8 1687   2.758   0.323   0.282 -2.6505 -0.5255 -2.4303
   74DG      O9 1688   2.955   0.349   0.822  0.2887 -0.2020  0.0076
   74DG     O10 1689   2.950   0.270   0.349  0.1540  0.0508  0.9327
   74DG     C11 1690   3.077   0.282   0.820 -0.4343 -0.0945  0.5421
   74DG     C12 1691   3.020   0.391   0.354  0.2906 -0.6081  0.3367
   74DG     H13 1692   3.066   0.176   0.798  1.7391 -0.0475 -1.1621
   74DG     H14 1693   3.139   0.295   0.909 -0.1102 -1.9629  0.6291
   74DG     H15 1694   2.943   0.467   0.369  0.4679 -0.2233 -0.6406
   74DG     H16 1695   3.057   0.417   0.255 -1.1020  1.8423  0.3689
   74DG     C17 1696   3.151   0.347   0.696 -0.1223  0.3981 -0.6032
   74DG     C18 1697   3.125   0.396   0.465 -0.1817 -0.4199 -0.5273
   74DG     O19 1698   3.077   0.329   0.580  0.1293  0.2482 -0.1795
   74DG     H20 1699   3.248   0.302   0.674 -0.8090 -0.5562 -1.7752
   74DG     H21 1700   3.165   0.454   0.705 -0.7497  0.4588 -0.2689
   74DG     H22 1701   3.212   0.346   0.424 -1.0256 -1.2175 -1.4286
   74DG     H23 1702   3.143   0.503   0.467 -1.0046 -0.2697  1.6908
   75DG      C1 1703   5.294   2.695   4.737  0.0762  0.2128 -0.5156
   75DG      C2 1704   5.229   3.010   4.097  0.3177  0.0511  0.3612
   75DG      H3 1705   5.275   2.696   4.844 -0.5451 -0.3320 -0.6112
   75DG      H4 1706   5.397   2.661   4.726 -0.5971 -2.4507  0.5467
   75DG      H5 1707   5.237   2.617   4.685 -0.1398  0.4353 -0.6155
   75DG      H6 1708   5.137   2.957   4.073  1.2523 -0.6619 -1.8983
   75DG      H7 1709   5.229   3.104   4.041  1.4291  0.1059  0.4247
   75DG      H8 1710   5.316   2.957   4.058  0.6174  1.8518 -1.6291
   75DG      O9 1711   5.286   2.823   4.698  0.7116  0.1346 -0.2671
   75DG     O10 1712   5.245   3.038   4.233  0.2329  0.0140  0.0194
   75DG     C11 1713   5.159   2.886   4.705 -0.1802  0.6822  0.0734
   75DG     C12 1714   5.135   3.115   4.289 -0.5190 -0.5029  0.9465
   75DG     H13 1715   5.131   2.896   4.810  0.5193  2.0086  0.1488
   75DG     H14 1716   5.081   2.835   4.648  0.3702  1.3040 -1.2720
   75DG     H15 1717   5.042   3.066   4.258  0.1295 -0.9683 -0.3635
   75DG     H16 1718   5.135   3.213   4.242 -0.2143  1.1211  4.0991
   75DG     C17 1719   5.169   3.028   4.648 -0.6234 -0.3186 -0.1654
   75DG     C18 1720   5.143   3.137   4.438  0.6813  0.1836 -0.0197
   75DG     O19 1721   5.152   3.015   4.509 -0.0873  0.2093 -0.3263
   75DG     H20 1722   5.251   3.094   4.676 -1.2285  0.6835 -0.6893
   75DG     H21 1723   5.076   3.081   4.671  1.5698  3.6006  0.6074
   75DG     H22 1724   5.228   3.203   4.453  1.9044 -1.0185 -1.3829
   75DG     H23 1725   5.056   3.193   4.472 -0.1933  1.0830 -3.3086
   76DG      C1 1726   2.200   4.213   2.122  0.5428  0.3274  0.1717
   76DG      C2 1727   2.593   3.837   2.530 -0.1012 -0.3028 -0.6709
   76DG      H3 1728   2.222   4.298   2.186 -2.8121  1.4398  0.0331
   76DG      H4 1729   2.093   4.213   2.102  0.2637 -4.9876  0.2387
   76DG      H5 1730   2.245   4.222   2.023  0.1503 -1.9068 -0.2704
   76DG      H6 1731   2.679   3.879   2.478  2.0071  0.1281  2.8956
   76DG      H7 1732   2.574   3.903   2.614  1.5039  0.4958 -0.8994
   76DG      H8 1733   2.628   3.741   2.568  0.4135 -0.6523 -1.9792
   76DG      O9 1734   2.238   4.083   2.171  0.8177 -0.2641  0.0683
   76DG     O10 1735   2.479   3.809   2.445  0.4172  0.2491  0.6152
   76DG     C11 1736   2.194   3.974   2.085  0.4564 -1.2506  0.4834
   76DG     C12 1737   2.493   3.702   2.356 -0.6860 -0.3775 -0.5769
   76DG     H13 1738   2.251   3.969   1.993  0.2694  0.9029  0.1948
   76DG     H14 1739   2.090   3.993   2.059  0.2098 -2.5251  0.4782
   76DG     H15 1740   2.508   3.603   2.401 -1.1265 -0.1422  0.1063
   76DG     H16 1741   2.580   3.716   2.292  0.9869  0.0856  1.6786
   76DG     C17 1742   2.208   3.846   2.157 -1.2791 -0.7979  0.7535
   76DG     C18 1743   2.385   3.697   2.257  0.3174  0.6257  0.5690
   76DG     O19 1744   2.343   3.832   2.226 -0.2619 -0.1644 -0.2384
   76DG     H20 1745   2.194   3.755   2.098 -0.0732  1.1029 -2.7342
   76DG     H21 1746   2.133   3.853   2.235 -0.3709 -0.6496  1.6344
   76DG     H22 1747   2.415   3.650   2.163 -0.1676  0.0208  0.7068
   76DG     H23 1748   2.301   3.641   2.299  0.3122 -0.2695 -0.5691
   77DG      C1 1749   0.166   2.042   0.771 -0.2271 -0.5200 -0.0842
   77DG      C2 1750  -0.398   2.023   0.956  0.3432  0.0948 -0.4652
   77DG      H3 1751   0.091   2.053   0.693 -3.0226 -2.8025  2.0260
   77DG      H4 1752   0.224   1.955   0.742  0.9350  0.1768  0.0929
   77DG      H5 1753   0.240   2.122   0.775 -0.4540 -0.3442  1.0739
   77DG      H6 1754  -0.485   2.047   1.017 -0.3581 -1.9768 -0.5556
   77DG      H7 1755  -0.410   2.075   0.861 -2.9951 -0.2500 -0.3598
   77DG      H8 1756  -0.401   1.915   0.943 -0.6155  0.0856 -0.2433
   77DG      O9 1757   0.105   2.031   0.899  1.0347 -0.7321  1.2570
   77DG     O10 1758  -0.269   2.056   1.011  0.0689  0.0839  0.0620
   77DG     C11 1759   0.181   1.994   1.006 -0.7058  0.5074  0.0148
   77DG     C12 1760  -0.266   2.018   1.147  0.6203  0.3497  0.2159
   77DG     H13 1761   0.284   2.030   1.002  0.8865 -3.6129 -1.1674
   77DG     H14 1762   0.200   1.887   1.002  0.2838  0.7052 -1.7614
   77DG     H15 1763  -0.298   1.914   1.160  2.1155 -0.1341  0.2781
   77DG     H16 1764  -0.344   2.081   1.188 -0.0119  0.7053 -1.4540
   77DG     C17 1765   0.102   2.026   1.135 -0.2284 -0.2917 -0.3865
   77DG     C18 1766  -0.124   2.037   1.209 -0.0007  0.1461 -0.1681
   77DG     O19 1767  -0.036   2.007   1.105 -0.0032  0.2071  0.0065
   77DG     H20 1768   0.112   2.130   1.165 -1.6077 -0.6259  1.4370
   77DG     H21 1769   0.136   1.965   1.219  1.2737  0.1474 -0.6486
   77DG     H22 1770  -0.120   2.139   1.248 -0.2046 -0.4559  1.5439
   77DG     H23 1771  -0.106   1.960   1.285 -0.9471  0.6086  0.5535
   78DG      C1 1772   1.916   0.693   4.691 -0.1008 -0.2723 -0.6014
   78DG      C2 1773   1.182   0.929   4.866  0.4111  0.3657 -0.5084
   78DG      H3 1774   1.976   0.663   4.777 -1.1633 -0.2653  0.1630
   78DG      H4 1775   1.990   0.714   4.614  0.2614 -0.1742 -0.2337
   78DG      H5 1776   1.869   0.598   4.664  1.0809 -1.0432 -0.0621
   78DG      H6 1777   1.140   0.872   4.949  0.2546 -3.4482 -2.9548
   78DG      H7 1778   1.146   1.032   4.868 -0.2614  0.1464 -1.1254
   78DG      H8 1779   1.132   0.894   4.776 -0.7135  1.2151 -0.2427
   78DG      O9 1780   1.829   0.810   4.709 -0.8439  0.5007 -0.9312
   78DG     O10 1781   1.324   0.930   4.861 -0.1650  0.2594  0.3901
   78DG     C11 1782   1.748   0.836   4.594 -0.7948 -0.2287 -0.2497
   78DG     C12 1783   1.393   0.803   4.868  0.1178  0.2325  0.2406
   78DG     H13 1784   1.708   0.747   4.545 -0.5155  0.8707 -2.6155
   78DG     H14 1785   1.801   0.894   4.518 -0.3620 -0.7733 -0.3649
   78DG     H15 1786   1.346   0.728   4.804  0.3068 -0.4809  0.9257
   78DG     H16 1787   1.390   0.776   4.973 -1.4735 -3.0353 -0.5019
   78DG     C17 1788   1.636   0.936   4.637 -0.1277  0.7356  0.3091
   78DG     C18 1789   1.537   0.822   4.818  0.1309  0.3331  0.4096
   78DG     O19 1790   1.516   0.870   4.684 -0.3923  0.0442  0.1953
   78DG     H20 1791   1.601   0.985   4.546  0.3438  1.3305  0.4491
   78DG     H21 1792   1.678   1.008   4.706  1.9001  0.1176 -0.2092
   78DG     H22 1793   1.586   0.898   4.879 -1.3568  0.8488  1.0421
   78DG     H23 1794   1.597   0.732   4.830 -0.8751 -0.2270  1.5669
   79DG      C1 1795   4.682   1.011   4.218 -0.8360 -0.8987  0.1116
   79DG      C2 1796   4.749   1.609   4.231  0.7137  0.4159  0.0246
   79DG      H3 1797   4.584   1.040   4.257 -0.4828  0.6791 -0.0937
   79DG      H4 1798   4.752   0.994   4.300  2.3592  0.2027 -2.2254
   79DG      H5 1799   4.669   0.920   4.160  0.9199 -0.9519 -0.2610
   79DG      H6 1800   4.770   1.712   4.202 -0.4121  0.5857 -0.2485
   79DG      H7 1801   4.642   1.588   4.242  0.7816  1.0758  2.3461
   79DG      H8 1802   4.812   1.581   4.315 -0.5916 -0.6578  0.6779
   79DG      O9 1803   4.735   1.110   4.127  0.2682  0.0053 -0.7777
   79DG     O10 1804   4.790   1.539   4.109 -0.1072  0.2555 -0.4321
   79DG     C11 1805   4.867   1.076   4.078 -0.0082  0.3480 -0.3794
   79DG     C12 1806   4.935   1.534   4.102  0.3932 -0.1774  0.0529
   79DG     H13 1807   4.868   0.987   4.016 -0.4681 -1.4915  2.0858
   79DG     H14 1808   4.929   1.051   4.164 -0.6354 -1.4752 -0.4237
   79DG     H15 1809   4.986   1.517   4.196 -0.1332 -1.3984  0.1303
   79DG     H16 1810   4.976   1.622   4.051  1.7816  0.0069  1.4155
   79DG     C17 1811   4.929   1.185   3.994  0.5356 -0.2143 -0.4724
   79DG     C18 1812   4.961   1.416   4.005  0.4075  0.3850  0.0082
   79DG     O19 1813   4.907   1.301   4.073  0.0401  0.5801  0.1879
   79DG     H20 1814   4.866   1.197   3.906  0.2263 -0.3777 -0.2741
   79DG     H21 1815   5.034   1.173   3.965  1.1628  2.0085  0.6282
   79DG     H22 1816   4.904   1.447   3.917  0.9017  0.3835 -0.3132
   79DG     H23 1817   5.064   1.400   3.973 -0.2544  0.3469 -2.2937
   80DG      C1 1818   0.977   5.022   5.128 -0.3508 -0.5313 -0.3139
   80DG      C2 1819   0.826   5.410   4.702 -0.2787  0.1720 -0.1632
   80DG      H3 1820   1.024   4.946   5.066 -0.8615  0.2345 -1.6988
   80DG      H4 1821   0.873   4.991   5.127 -0.7301  0.6710 -2.0394
   80DG      H5 1822   1.023   5.030   5.227 -0.9982  1.7077 -0.1330
   80DG      H6 1823   0.744   5.340   4.719  0.6720 -0.8995  0.1330
   80DG      H7 1824   0.838   5.468   4.794 -0.9133 -1.9011  1.3042
   80DG      H8 1825   0.788   5.470   4.619 -1.1259 -0.0784  0.0349
   80DG      O9 1826   0.983   5.150   5.073 -0.4418 -0.2618 -0.1054
   80DG     O10 1827   0.941   5.336   4.665  0.2162  0.6392  0.6794
   80DG     C11 1828   1.104   5.221   5.095 -0.3819 -0.1965 -1.1208
   80DG     C12 1829   1.059   5.402   4.657 -0.6540 -0.0591  0.2904
   80DG     H13 1830   1.193   5.165   5.068  1.6339  2.5628 -0.6103
   80DG     H14 1831   1.103   5.243   5.202  0.7406 -1.1430 -0.8959
   80DG     H15 1832   1.056   5.482   4.583 -1.9495 -1.5099 -1.2971
   80DG     H16 1833   1.139   5.336   4.623 -0.4724  1.2775 -2.0609
   80DG     C17 1834   1.120   5.364   5.027  1.0153 -0.7189 -0.0142
   80DG     C18 1835   1.105   5.453   4.804  0.6771 -0.0766  0.0165
   80DG     O19 1836   1.083   5.342   4.890 -0.1935  0.1666  0.0554
   80DG     H20 1837   1.222   5.401   5.038  1.0470 -0.6484 -0.5530
   80DG     H21 1838   1.049   5.433   5.072  0.2035 -1.7179  0.2811
   80DG     H22 1839   1.211   5.481   4.801  0.3370  1.2979  0.0251
   80DG     H23 1840   1.048   5.544   4.824 -0.2495 -0.8572  1.0531
   81DG      C1 1841   1.872   1.627   1.648 -0.7035  0.3729 -0.4097
   81DG      C2 1842   1.790   1.430   2.419  0.4135 -0.4182 -0.0950
   81DG      H3 1843   1.780   1.582   1.610  0.0623 -1.1294 -0.5131
   81DG      H4 1844   1.952   1.599   1.581 -0.4632  0.1548 -0.0342
   81DG      H5 1845   1.862   1.736   1.651 -0.9585  0.4525 -2.7537
   81DG      H6 1846   1.685   1.405   2.405 -0.0076  1.3671 -0.3396
   81DG      H7 1847   1.820   1.359   2.496  0.4007  0.1503  0.4383
   81DG      H8 1848   1.805   1.530   2.460 -1.0666  0.0137 -0.5597
   81DG      O9 1849   1.909   1.576   1.779 -1.0536 -0.3938  0.1081
   81DG     O10 1850   1.864   1.418   2.294  0.2622  0.0975 -0.2533
   81DG     C11 1851   1.918   1.429   1.783  0.5611 -0.4545  0.1529
   81DG     C12 1852   1.834   1.525   2.205 -0.2381 -0.5474  0.1656
   81DG     H13 1853   1.980   1.398   1.699  0.4481  2.0201 -0.9246
   81DG     H14 1854   1.819   1.387   1.768  0.4265 -0.4626  1.0159
   81DG     H15 1855   1.836   1.622   2.254 -1.9663  0.5389 -1.7269
   81DG     H16 1856   1.734   1.514   2.163  0.5435 -2.0619 -1.4427
   81DG     C17 1857   1.983   1.361   1.908  0.4270 -0.0253  0.3170
   81DG     C18 1858   1.918   1.519   2.083  0.7371 -0.4626  0.2392
   81DG     O19 1859   1.900   1.390   2.020  0.1182 -0.4914 -0.0661
   81DG     H20 1860   2.084   1.395   1.933  0.3934  1.0739 -0.9532
   81DG     H21 1861   1.988   1.253   1.896  1.3811 -0.0505  0.8458
   81DG     H22 1862   1.886   1.591   2.009 -1.0165  0.4632  1.8378
   81DG     H23 1863   2.022   1.532   2.115  0.7516  0.2231 -0.0822
   82DG      C1 1864   1.207   2.029   3.402  0.4662 -0.1232  0.9079
   82DG      C2 1865   1.369   2.609   3.118 -0.0579  0.0088 -0.6668
   82DG      H3 1866   1.142   1.960   3.455 -2.7350  0.1106 -2.2858
   82DG      H4 1867   1.310   2.004   3.429  1.1615 -0.0371 -1.4305
   82DG      H5 1868   1.198   2.003   3.296  1.3708 -1.5211  1.1632
   82DG      H6 1869   1.315   2.615   3.024 -0.6858  0.5678 -0.2727
   82DG      H7 1870   1.427   2.701   3.122 -0.5822  0.3941 -1.6223
   82DG      H8 1871   1.446   2.533   3.101 -0.3722 -1.0211  2.0109
   82DG      O9 1872   1.177   2.164   3.432  0.2713 -0.3104  0.1962
   82DG     O10 1873   1.275   2.562   3.229 -1.0778 -1.1722 -0.1142
   82DG     C11 1874   1.040   2.195   3.431  0.0264 -0.2323  0.0756
   82DG     C12 1875   1.153   2.624   3.228  0.1666  0.1901 -0.3069
   82DG     H13 1876   0.984   2.133   3.502  1.4873  1.2793  2.6895
   82DG     H14 1877   0.996   2.171   3.333  0.0652  0.2288 -0.0553
   82DG     H15 1878   1.087   2.599   3.145  0.4802  0.9023 -0.7775
   82DG     H16 1879   1.146   2.732   3.237  1.3681  0.2705 -0.1954
   82DG     C17 1880   1.009   2.344   3.447  0.0300 -0.1584  0.4969
   82DG     C18 1881   1.094   2.559   3.358  0.2221  0.3279 -0.0330
   82DG     O19 1882   1.096   2.412   3.355  0.2651  0.7131 -0.2656
   82DG     H20 1883   1.033   2.376   3.549 -2.2874  1.8617  0.5209
   82DG     H21 1884   0.903   2.356   3.423 -0.4667  0.1349  2.6361
   82DG     H22 1885   1.148   2.597   3.445  0.7640 -0.4187 -0.0365
   82DG     H23 1886   0.990   2.587   3.374 -2.1175 -3.9578 -4.6409
   83DG      C1 1887   0.716   0.218   3.845  0.3518  0.3820  0.5865
   83DG      C2 1888   0.644   0.184   4.445 -0.4795 -0.0195 -0.2788
   83DG      H3 1889   0.662   0.214   3.750 -1.3173 -1.7167  1.5341
   83DG      H4 1890   0.780   0.130   3.855 -1.8335 -1.4276 -0.3443
   83DG      H5 1891   0.779   0.306   3.854  0.3499  0.4348  0.1219
   83DG      H6 1892   0.644   0.290   4.469  0.6528 -0.4820  2.0153
   83DG      H7 1893   0.606   0.134   4.534  0.8884 -0.6538 -0.0300
   83DG      H8 1894   0.744   0.146   4.424  0.3985  2.0884 -0.0884
   83DG      O9 1895   0.613   0.206   3.943 -0.0101 -0.2793 -0.4778
   83DG     O10 1896   0.555   0.155   4.338 -0.2007 -0.1069 -0.0133
   83DG     C11 1897   0.499   0.285   3.913 -0.4524  0.1579  0.4516
   83DG     C12 1898   0.432   0.226   4.344 -0.1464  0.7052  0.1561
   83DG     H13 1899   0.436   0.233   3.841  0.4715 -0.3659  0.0001
   83DG     H14 1900   0.519   0.383   3.869 -0.2245  0.4057  1.0934
   83DG     H15 1901   0.457   0.328   4.316  2.8356  1.1025  3.5077
   83DG     H16 1902   0.385   0.213   4.442  1.2004 -2.3672  0.5202
   83DG     C17 1903   0.409   0.303   4.037 -0.3362  0.5373  0.0070
   83DG     C18 1904   0.342   0.174   4.234 -0.1773 -0.2378  0.2884
   83DG     O19 1905   0.408   0.176   4.107 -0.2395 -0.1170  0.1695
   83DG     H20 1906   0.310   0.341   4.012 -1.6909 -1.3944  2.0599
   83DG     H21 1907   0.454   0.385   4.093  0.0876  0.4269 -0.1678
   83DG     H22 1908   0.307   0.081   4.278  1.7037 -0.0357  2.4089
   83DG     H23 1909   0.254   0.238   4.233 -1.0500 -1.3950  0.8565
   84DG      C1 1910   1.407   3.473   3.136 -0.6803 -0.2875 -0.1559
   84DG      C2 1911   0.781   3.752   3.697  0.2827  0.1739 -0.5645
   84DG      H3 1912   1.384   3.370   3.165 -0.7677 -0.0827  0.5213
   84DG      H4 1913   1.514   3.489   3.137 -0.5801 -0.9241  1.0053
   84DG      H5 1914   1.393   3.491   3.030  1.9621  0.3887 -0.4485
   84DG      H6 1915   0.711   3.703   3.629 -1.0299 -0.5166  1.2132
   84DG      H7 1916   0.803   3.685   3.780  1.7788  2.6441  1.1565
   84DG      H8 1917   0.727   3.840   3.733  0.8211 -0.0706  0.8851
   84DG      O9 1918   1.340   3.581   3.206  0.2448 -0.2060  0.1933
   84DG     O10 1919   0.903   3.799   3.646 -0.0185 -0.8354  0.0013
   84DG     C11 1920   1.388   3.588   3.340 -0.7861  1.6801  0.1957
   84DG     C12 1921   0.976   3.697   3.579 -0.9353  0.2747  0.0335
   84DG     H13 1922   1.497   3.595   3.330 -0.9201  1.2323 -2.3862
   84DG     H14 1923   1.375   3.499   3.401  0.3473  0.0005 -1.8554
   84DG     H15 1924   0.921   3.654   3.496 -0.3248  1.6675 -1.1404
   84DG     H16 1925   0.991   3.623   3.658 -1.6808  1.6952  1.5616
   84DG     C17 1926   1.329   3.705   3.419 -0.1655  0.2017 -0.3041
   84DG     C18 1927   1.118   3.754   3.541 -0.0566 -0.6307 -0.3073
   84DG     O19 1928   1.205   3.656   3.482  0.2589 -0.0224 -0.1063
   84DG     H20 1929   1.312   3.787   3.349 -0.8613 -0.3919 -0.8324
   84DG     H21 1930   1.401   3.738   3.495 -1.1656  0.9120  0.3685
   84DG     H22 1931   1.098   3.844   3.484 -0.9495 -0.3271  0.4588
   84DG     H23 1932   1.168   3.783   3.634  1.0739  0.6330 -1.2617
   85DG      C1 1933   1.152   2.472   2.116  0.2260  0.1128 -0.7645
   85DG      C2 1934   1.702   2.645   1.844  0.0455 -0.1230  0.3492
   85DG      H3 1935   1.068   2.403   2.125  1.3141 -1.4436 -2.0095
   85DG      H4 1936   1.094   2.550   2.067 -0.8157 -0.5817 -0.6855
   85DG      H5 1937   1.169   2.501   2.220 -2.6716 -1.9820  0.4359
   85DG      H6 1938   1.809   2.648   1.821  0.3530 -1.8563  1.3595
   85DG      H7 1939   1.651   2.668   1.751  1.5315  0.0886 -0.4401
   85DG      H8 1940   1.673   2.732   1.903 -1.9085  0.5577 -1.5109
   85DG      O9 1941   1.265   2.424   2.056 -0.3199 -0.4986  0.4882
   85DG     O10 1942   1.653   2.521   1.900 -0.3211 -0.0116  0.2655
   85DG     C11 1943   1.236   2.333   1.956 -0.2965 -0.0682  0.0452
   85DG     C12 1944   1.675   2.405   1.826  0.5257 -0.6556 -0.5700
   85DG     H13 1945   1.190   2.392   1.877 -1.8768 -1.0306  0.2041
   85DG     H14 1946   1.162   2.260   1.986 -0.3669 -0.7901 -1.7394
   85DG     H15 1947   1.778   2.373   1.811  0.5805 -0.4532 -0.6401
   85DG     H16 1948   1.638   2.426   1.725 -3.7332  0.2236  0.9473
   85DG     C17 1949   1.356   2.247   1.923 -0.2602 -0.4201  0.1469
   85DG     C18 1950   1.585   2.304   1.887 -0.1799 -0.3974  0.4704
   85DG     O19 1951   1.452   2.348   1.894  0.2350 -0.2189  1.3256
   85DG     H20 1952   1.340   2.186   1.834  0.2297 -0.7966  0.3142
   85DG     H21 1953   1.386   2.175   2.000  1.0626  0.3672  0.3913
   85DG     H22 1954   1.595   2.228   1.810  0.7873  0.3311 -0.1533
   85DG     H23 1955   1.619   2.265   1.982  0.1039 -0.7283  0.2332
   86DG      C1 1956   2.688   1.264   0.393  0.4098 -0.2031 -0.4523
   86DG      C2 1957   2.763   1.218   1.248 -0.6501 -0.3940 -0.2686
   86DG      H3 1958   2.609   1.240   0.323 -0.6069 -0.5144  0.7624
   86DG      H4 1959   2.754   1.178   0.396  2.0616  0.8851 -2.7347
   86DG      H5 1960   2.747   1.347   0.353  1.5019 -0.7202  0.0263
   86DG      H6 1961   2.867   1.227   1.216 -1.0938  0.3967 -1.5830
   86DG      H7 1962   2.755   1.279   1.338  1.3905 -0.8008  0.2256
   86DG      H8 1963   2.738   1.122   1.292  0.7007  0.1434  1.8394
   86DG      O9 1964   2.611   1.281   0.508  0.2009 -0.2008 -0.3035
   86DG     O10 1965   2.676   1.244   1.137  0.0286  0.3824  0.3587
   86DG     C11 1966   2.688   1.296   0.629 -0.1691  0.0190  0.3220
   86DG     C12 1967   2.663   1.382   1.103 -0.1720  0.3638 -0.2153
   86DG     H13 1968   2.761   1.372   0.604  1.2333 -0.8951  1.4803
   86DG     H14 1969   2.739   1.204   0.660  2.9215  1.8150  0.9470
   86DG     H15 1970   2.757   1.428   1.072  0.0095 -0.7060 -1.3627
   86DG     H16 1971   2.611   1.439   1.179 -2.1752 -0.9036 -0.5440
   86DG     C17 1972   2.593   1.333   0.740  0.1416 -0.0017  0.0540
   86DG     C18 1973   2.579   1.375   0.976  0.9974 -0.3717  0.4451
   86DG     O19 1974   2.656   1.333   0.873  0.2073  0.3994 -0.1619
   86DG     H20 1975   2.503   1.272   0.741 -0.4967  0.9164  1.1150
   86DG     H21 1976   2.552   1.432   0.722  1.4709  0.6459  0.5226
   86DG     H22 1977   2.486   1.321   0.997 -0.7408  3.0388  2.4629
   86DG     H23 1978   2.536   1.474   0.960 -3.6348 -2.5319 -2.6987
   87DG      C1 1979   1.325   1.736   4.617 -0.0791  0.1063  0.1762
   87DG      C2 1980   1.245   1.269   4.151 -0.1190 -0.2207  0.3836
   87DG      H3 1981   1.424   1.691   4.617 -0.6141 -1.0986  0.7596
   87DG      H4 1982   1.281   1.703   4.710 -2.9322  1.2225 -0.6698
   87DG      H5 1983   1.343   1.844   4.619  1.8998 -0.2072  1.7303
   87DG      H6 1984   1.199   1.196   4.217  0.0211  0.9992  1.8889
   87DG      H7 1985   1.212   1.246   4.050  0.6023 -0.1662  0.1347
   87DG      H8 1986   1.354   1.264   4.146 -0.1654 -0.1849 -1.3535
   87DG      O9 1987   1.259   1.699   4.497  0.1097  0.5305  0.4712
   87DG     O10 1988   1.213   1.402   4.196  0.5226  0.5416  0.2494
   87DG     C11 1989   1.125   1.757   4.493 -0.2237  0.2116  0.1367
   87DG     C12 1990   1.079   1.429   4.155 -0.3264 -0.2501  0.4137
   87DG     H13 1991   1.128   1.863   4.520  2.4300  0.7346 -1.8492
   87DG     H14 1992   1.063   1.706   4.567 -1.0295 -1.6540 -1.7108
   87DG     H15 1993   1.011   1.368   4.214  0.5300 -1.7577 -0.0907
   87DG     H16 1994   1.061   1.404   4.050 -1.6394  0.9983  0.3151
   87DG     C17 1995   1.060   1.733   4.349 -0.3175 -0.1082 -0.0472
   87DG     C18 1996   1.054   1.571   4.166 -0.3715  0.1704 -0.0719
   87DG     O19 1997   1.107   1.608   4.292 -0.0093 -0.3002  0.0887
   87DG     H20 1998   1.066   1.824   4.290 -1.9546  0.3316  0.4144
   87DG     H21 1999   0.953   1.722   4.363 -0.2832 -2.6809 -1.1221
   87DG     H22 2000   1.099   1.622   4.080  0.8427 -1.1316 -0.2585
   87DG     H23 2001   0.949   1.600   4.167 -0.1399  1.4599 -3.1690
   88DG      C1 2002   0.362   1.639   2.534 -0.2823 -0.2254  0.1231
   88DG      C2 2003   0.982   1.520   2.466 -0.2858 -0.3416 -0.5279
   88DG      H3 2004   0.270   1.687   2.503 -0.7001 -0.7676  0.5102
   88DG      H4 2005   0.433   1.721   2.541  0.2855 -0.6450 -0.5178
   88DG      H5 2006   0.354   1.596   2.633 -2.3721  0.0606  0.1169
   88DG      H6 2007   0.974   1.519   2.575 -1.1965  1.2271 -0.5571
   88DG      H7 2008   1.001   1.414   2.444 -0.5210 -0.4435 -0.2495
   88DG      H8 2009   1.066   1.585   2.442  0.2465 -0.4614  0.9265
   88DG      O9 2010   0.392   1.539   2.437  0.1396  0.1348  0.0949
   88DG     O10 2011   0.864   1.560   2.401  0.4735 -0.4935  0.2604
   88DG     C11 2012   0.379   1.592   2.305 -0.9184 -0.2654 -0.5890
   88DG     C12 2013   0.853   1.699   2.375  0.2377 -0.1122  0.0192
   88DG     H13 2014   0.288   1.652   2.301  0.0793  1.4149  0.7054
   88DG     H14 2015   0.375   1.515   2.228 -0.2504  0.1581 -1.0531
   88DG     H15 2016   0.938   1.733   2.316  0.4416 -0.2914  0.2097
   88DG     H16 2017   0.872   1.755   2.467 -0.1420  1.1177 -0.6203
   88DG     C17 2018   0.504   1.687   2.277 -0.2849 -0.0604 -0.1857
   88DG     C18 2019   0.726   1.732   2.305  0.6621 -0.0610 -0.1552
   88DG     O19 2020   0.618   1.643   2.339 -0.7531  0.0853 -0.3238
   88DG     H20 2021   0.482   1.791   2.302  1.3795  0.4649 -0.7683
   88DG     H21 2022   0.516   1.694   2.169  3.0036 -0.7929  0.0104
   88DG     H22 2023   0.692   1.829   2.342 -0.7141 -1.1695  1.7415
   88DG     H23 2024   0.745   1.740   2.199 -1.7737  1.0404 -0.5844
   89DG      C1 2025   2.022   4.388   3.581  0.1073 -0.4075 -1.0468
   89DG      C2 2026   1.967   3.816   3.190  0.0249  0.0235 -0.1980
   89DG      H3 2027   2.045   4.494   3.583 -2.9990  0.3451  0.8259
   89DG      H4 2028   2.114   4.337   3.613  0.0791 -0.4837 -1.0855
   89DG      H5 2029   1.938   4.366   3.647  0.7626  0.0406 -0.0374
   89DG      H6 2030   2.040   3.760   3.249  0.4368  0.3858 -0.3599
   89DG      H7 2031   1.885   3.824   3.261  0.0392  1.2181 -0.3118
   89DG      H8 2032   1.947   3.757   3.100  3.5062 -2.8014  0.6477
   89DG      O9 2033   2.000   4.335   3.456  0.0732 -0.4576 -0.0194
   89DG     O10 2034   2.013   3.942   3.152 -0.5417  0.1047  0.5471
   89DG     C11 2035   2.068   4.400   3.348 -0.2099  0.7607 -0.2692
   89DG     C12 2036   2.114   3.986   3.244 -0.1375  0.0594 -0.8590
   89DG     H13 2037   2.173   4.414   3.374 -0.0750 -1.3073  0.4907
   89DG     H14 2038   2.040   4.505   3.352 -0.9877  0.6237 -1.6135
   89DG     H15 2039   2.206   3.929   3.238  0.3606  0.9098 -1.4308
   89DG     H16 2040   2.072   3.975   3.345  2.4391  1.0917  0.3997
   89DG     C17 2041   2.047   4.344   3.206 -0.1191 -0.4055  0.2246
   89DG     C18 2042   2.146   4.136   3.219 -0.6615 -0.1800 -0.0331
   89DG     O19 2043   2.022   4.206   3.222  0.1105  0.1631  0.2864
   89DG     H20 2044   2.128   4.389   3.150 -0.2411 -0.2343  0.1837
   89DG     H21 2045   1.951   4.379   3.167 -0.2272 -1.3536 -0.4139
   89DG     H22 2046   2.221   4.183   3.283 -0.2385  1.6050 -1.7293
   89DG     H23 2047   2.194   4.136   3.122 -0.7138 -2.0153 -0.0911
   90DG      C1 2048   0.474   3.938   0.310 -0.0591  0.2883 -0.5662
   90DG      C2 2049   0.471   3.521  -0.216 -0.4390 -0.8279  0.1137
   90DG      H3 2050   0.368   3.966   0.313 -0.1564  0.0256 -1.2146
   90DG      H4 2051   0.535   4.013   0.359  0.5963 -2.2064  2.8032
   90DG      H5 2052   0.478   3.840   0.358 -1.7659  0.8255  0.8236
   90DG      H6 2053   0.578   3.503  -0.230 -0.1652 -0.0902  1.0974
   90DG      H7 2054   0.433   3.451  -0.141 -0.2153 -0.5957  0.4495
   90DG      H8 2055   0.428   3.489  -0.310  0.0947 -1.5858  0.1175
   90DG      O9 2056   0.523   3.930   0.173  0.1423  0.2636 -0.4602
   90DG     O10 2057   0.438   3.654  -0.182  0.0098 -0.8381 -0.0995
   90DG     C11 2058   0.498   4.047   0.102  0.4452 -0.2879 -1.4329
   90DG     C12 2059   0.485   3.750  -0.277  0.6832 -0.0470  0.4911
   90DG     H13 2060   0.579   4.119   0.091 -1.1316  1.4299 -2.3334
   90DG     H14 2061   0.416   4.096   0.154 -1.1114 -3.7298 -0.2980
   90DG     H15 2062   0.454   3.740  -0.381 -0.2426  0.1925  0.7288
   90DG     H16 2063   0.593   3.737  -0.288  0.2968 -2.3410 -1.4389
   90DG     C17 2064   0.445   4.027  -0.037 -0.5141  0.0441 -0.9471
   90DG     C18 2065   0.449   3.894  -0.229 -0.4071  0.0783  0.5342
   90DG     O19 2066   0.481   3.903  -0.093  0.5545 -0.3181 -0.5434
   90DG     H20 2067   0.478   4.113  -0.096 -2.7922  0.4485 -1.7301
   90DG     H21 2068   0.337   4.040  -0.038 -0.2054  5.2798  1.6661
   90DG     H22 2069   0.495   3.968  -0.295  2.6298 -2.6952 -0.7497
   90DG     H23 2070   0.342   3.911  -0.246 -0.7231 -1.3564  1.0102
   91DG      C1 2071   4.230   0.829   3.740  0.1284  0.6278 -0.1886
   91DG      C2 2072   4.053   0.307   4.106  0.2571  0.4604  0.1553
   91DG      H3 2073   4.327   0.798   3.779  0.2905  1.1719 -0.1542
   91DG      H4 2074   4.207   0.919   3.797  1.5643  0.7730  0.1963
   91DG      H5 2075   4.244   0.843   3.632 -1.1607 -0.3129 -0.5076
   91DG      H6 2076   3.995   0.215   4.116  0.7242 -0.2723 -2.7384
   91DG      H7 2077   4.157   0.279   4.088 -0.5937 -2.6119 -0.6985
   91DG      H8 2078   4.045   0.361   4.200 -1.3664 -0.2974  0.5024
   91DG      O9 2079   4.137   0.727   3.759 -0.1127  0.2758 -0.1396
   91DG     O10 2080   4.004   0.367   3.984 -0.9108  0.4053 -0.2313
   91DG     C11 2081   4.003   0.774   3.738 -0.0390 -0.3832 -0.4662
   91DG     C12 2082   3.865   0.392   3.985  0.5182  0.3025 -0.5871
   91DG     H13 2083   3.997   0.824   3.642 -2.2427 -0.9521 -0.6664
   91DG     H14 2084   3.971   0.845   3.815  0.9543  1.9654 -2.0960
   91DG     H15 2085   3.843   0.457   4.070  1.1114 -0.0812 -0.1298
   91DG     H16 2086   3.801   0.304   3.980 -1.0803  1.2537  1.6686
   91DG     C17 2087   3.903   0.663   3.736  0.3270  0.6429  0.0558
   91DG     C18 2088   3.839   0.466   3.854  0.5055 -0.9584  0.9104
   91DG     O19 2089   3.934   0.565   3.829  0.4143  0.1181  0.4590
   91DG     H20 2090   3.895   0.633   3.632  0.6948  1.9583 -0.3708
   91DG     H21 2091   3.814   0.717   3.770 -0.4332 -1.8345  2.3967
   91DG     H22 2092   3.845   0.397   3.769 -1.7799 -2.2613  1.7034
   91DG     H23 2093   3.738   0.507   3.862  0.2900 -1.7130  2.3415
   92DG      C1 2094   0.148   1.298   2.582 -0.0778  0.3139  0.2004
   92DG      C2 2095  -0.180   1.347   3.253 -0.7242 -0.4342 -0.7561
   92DG      H3 2096   0.196   1.344   2.496 -1.6095  1.4940 -0.0554
   92DG      H4 2097   0.048   1.268   2.551  0.2167 -1.1699  0.5788
   92DG      H5 2098   0.201   1.218   2.634 -2.4573 -0.1879  2.0359
   92DG      H6 2099  -0.191   1.247   3.212  0.1727 -1.3186  1.0466
   92DG      H7 2100  -0.108   1.346   3.334 -1.5662 -2.9149  0.0453
   92DG      H8 2101  -0.265   1.408   3.287 -0.2087 -1.3898  2.6787
   92DG      O9 2102   0.144   1.383   2.696  0.0588  0.7205 -0.1392
   92DG     O10 2103  -0.129   1.413   3.139  0.1503  0.2404 -0.4336
   92DG     C11 2104   0.048   1.489   2.699 -0.5291  0.1132  0.4293
   92DG     C12 2105  -0.066   1.533   3.161 -0.7457  1.1088  0.2037
   92DG     H13 2106  -0.051   1.447   2.682  0.3132 -1.2432 -1.5904
   92DG     H14 2107   0.074   1.550   2.612  0.6927  1.3970  1.6361
   92DG     H15 2108   0.030   1.510   3.208 -0.2258  2.2526 -0.2647
   92DG     H16 2109  -0.121   1.600   3.227 -2.3627  1.7745 -1.7197
   92DG     C17 2110   0.078   1.586   2.813  0.1364  0.6099 -0.1178
   92DG     C18 2111  -0.046   1.597   3.019  0.6299  0.3284  0.0906
   92DG     O19 2112   0.053   1.524   2.941  0.6346 -0.4449  0.0737
   92DG     H20 2113   0.017   1.676   2.806 -1.1175 -0.0436  1.6338
   92DG     H21 2114   0.184   1.610   2.805 -0.1258  1.2527 -2.5303
   92DG     H22 2115  -0.141   1.611   2.966  0.7825 -2.2993 -1.0467
   92DG     H23 2116  -0.007   1.697   3.036  1.6157 -0.3565  2.0792
   93DG      C1 2117   2.031   1.833   2.350 -0.1987 -0.3271 -0.5599
   93DG      C2 2118   1.943   2.048   1.773 -0.1376 -0.2440 -0.5280
   93DG      H3 2119   2.131   1.794   2.334 -0.2684 -1.8061  2.0226
   93DG      H4 2120   1.966   1.766   2.407 -0.4275  0.0817 -0.3319
   93DG      H5 2121   2.044   1.916   2.420  0.6030 -0.0363 -1.0414
   93DG      H6 2122   2.019   2.011   1.842 -0.0829  0.3799 -0.2381
   93DG      H7 2123   1.966   1.990   1.685 -0.3330 -2.9333  1.0852
   93DG      H8 2124   1.963   2.153   1.753  2.0667 -0.0939  1.8826
   93DG      O9 2125   1.961   1.876   2.235 -0.4809 -0.1866 -0.1451
   93DG     O10 2126   1.810   2.031   1.822  0.0760 -0.0870  0.0277
   93DG     C11 2127   1.848   1.947   2.266  0.3864 -0.3364 -0.7539
   93DG     C12 2128   1.761   1.894   1.835  0.3357 -0.1969 -0.4330
   93DG     H13 2129   1.883   2.031   2.326 -0.2832 -0.8232  0.3501
   93DG     H14 2130   1.779   1.886   2.325 -0.7080  0.3861 -1.2397
   93DG     H15 2131   1.836   1.819   1.860  1.0051  0.9846  1.2821
   93DG     H16 2132   1.701   1.876   1.746  0.5113  1.2508 -0.8742
   93DG     C17 2133   1.762   1.985   2.140  0.3271  0.6237 -0.5569
   93DG     C18 2134   1.664   1.889   1.946  0.1282  0.0747  0.3413
   93DG     O19 2135   1.737   1.863   2.069  0.5922  0.2803 -0.0603
   93DG     H20 2136   1.826   2.052   2.083  0.2250  1.7817  0.6475
   93DG     H21 2137   1.671   2.039   2.167 -0.2410 -0.5324 -0.0939
   93DG     H22 2138   1.591   1.970   1.941  1.0144  0.9357  0.9803
   93DG     H23 2139   1.611   1.795   1.931  1.2374 -0.7083  1.1380
   94DG      C1 2140   5.394   1.636   2.316  0.9004 -0.0466  0.0558
   94DG      C2 2141   4.994   2.248   2.372  0.1726 -0.7077  0.4918
   94DG      H3 2142   5.366   1.625   2.211 -1.4185  1.7569  0.4013
   94DG      H4 2143   5.317   1.584   2.372  1.5186 -2.6374 -1.3420
   94DG      H5 2144   5.496   1.604   2.337  0.9037  0.2530  0.5165
   94DG      H6 2145   4.898   2.235   2.422  0.2043 -1.8006  0.3076
   94DG      H7 2146   5.001   2.356   2.379 -1.5414 -0.6750  2.4864
   94DG      H8 2147   4.998   2.233   2.264  1.0831 -0.9482  0.5480
   94DG      O9 2148   5.387   1.778   2.339  0.0184 -0.1494 -0.1632
   94DG     O10 2149   5.107   2.185   2.444  0.2602  0.5345 -0.0152
   94DG     C11 2150   5.398   1.802   2.473  0.0945 -0.5624  0.7927
   94DG     C12 2151   5.230   2.228   2.389 -0.2768  0.0017 -0.0911
   94DG     H13 2152   5.480   1.743   2.515  0.8048  1.2606  2.1481
   94DG     H14 2153   5.312   1.785   2.539  1.5837 -0.7068  2.8127
   94DG     H15 2154   5.240   2.336   2.401 -0.5662 -0.0103  0.3087
   94DG     H16 2155   5.253   2.196   2.288  1.2908  0.8650 -0.0407
   94DG     C17 2156   5.439   1.949   2.484  0.0497 -0.6874 -0.9051
   94DG     C18 2157   5.347   2.169   2.455  0.7748  0.0075 -0.5397
   94DG     O19 2158   5.330   2.027   2.443  0.0520  0.8474  0.0824
   94DG     H20 2159   5.531   1.972   2.431 -0.1753 -0.7451 -1.3203
   94DG     H21 2160   5.453   1.975   2.589  0.0634  0.4091 -1.1713
   94DG     H22 2161   5.439   2.187   2.399  2.0512 -0.7686  1.1984
   94DG     H23 2162   5.361   2.198   2.559  2.2701 -1.2271 -0.3556
   95DG      C1 2163   2.392   3.535   3.221  0.6602 -0.3293  0.1316
   95DG      C2 2164   1.966   2.950   3.094  0.0676 -0.2406 -0.3175
   95DG      H3 2165   2.315   3.602   3.183  0.8179 -1.8499 -3.2747
   95DG      H4 2166   2.470   3.504   3.151  0.3522 -1.8879  0.4337
   95DG      H5 2167   2.449   3.580   3.301 -0.3783  1.9267 -0.3241
   95DG      H6 2168   1.882   2.903   3.145  0.9427 -0.6035  0.8218
   95DG      H7 2169   1.929   2.992   3.000  0.6572  0.2229 -0.3483
   95DG      H8 2170   2.039   2.879   3.056  0.6509  0.8835 -1.3822
   95DG      O9 2171   2.329   3.412   3.258 -0.0393 -0.3709 -0.4600
   95DG     O10 2172   2.007   3.055   3.181  0.4196 -0.1045 -0.3787
   95DG     C11 2173   2.243   3.428   3.371  0.4124  0.3268 -0.1551
   95DG     C12 2174   2.052   2.990   3.298  0.0496 -0.0353 -0.0239
   95DG     H13 2175   2.148   3.467   3.333  0.3439  0.9202  0.5875
   95DG     H14 2176   2.271   3.490   3.457 -2.0765  0.3049  0.7647
   95DG     H15 2177   2.139   2.930   3.270  0.0300  0.2544 -0.7464
   95DG     H16 2178   1.978   2.930   3.350 -2.1186  3.1248  0.8666
   95DG     C17 2179   2.215   3.293   3.442  0.0099 -0.6683 -0.3543
   95DG     C18 2180   2.093   3.093   3.401 -0.2171 -0.2482 -0.2639
   95DG     O19 2181   2.165   3.202   3.343 -0.0934 -0.2049  0.4379
   95DG     H20 2182   2.131   3.306   3.510  0.3950  2.2015 -0.3321
   95DG     H21 2183   2.306   3.251   3.486  0.4001  0.8538  0.3457
   95DG     H22 2184   2.000   3.139   3.437  0.8029  1.7894 -0.0618
   95DG     H23 2185   2.143   3.047   3.486  0.2043  1.2247  0.3114
   96DG      C1 2186   2.450   3.478   1.160 -0.4250 -0.1698 -0.6130
   96DG      C2 2187   3.047   3.362   1.621 -0.3572 -0.0990  0.0977
   96DG      H3 2188   2.480   3.536   1.072 -2.2891  1.9586  0.0641
   96DG      H4 2189   2.379   3.539   1.216  0.6081  0.5409 -0.0296
   96DG      H5 2190   2.407   3.379   1.149  1.2977 -1.1620  1.0121
   96DG      H6 2191   3.045   3.256   1.647  1.0271  0.3335  2.2457
   96DG      H7 2192   3.082   3.365   1.518  1.0416 -1.4687  0.4982
   96DG      H8 2193   3.120   3.399   1.693 -0.6197 -0.3584  0.5030
   96DG      O9 2194   2.550   3.453   1.259 -0.1691  0.2225  0.0786
   96DG     O10 2195   2.919   3.431   1.641 -0.3082  0.2673 -0.0645
   96DG     C11 2196   2.623   3.566   1.306  0.3437  0.2162 -0.2314
   96DG     C12 2197   2.920   3.571   1.655  0.4537 -0.3768 -0.2286
   96DG     H13 2198   2.562   3.655   1.323  0.2737 -0.0473  1.0063
   96DG     H14 2199   2.701   3.599   1.238  2.5043 -1.9568  1.0357
   96DG     H15 2200   2.980   3.620   1.578  2.0782 -1.9917 -0.0738
   96DG     H16 2201   2.967   3.595   1.751 -1.2335 -1.2070  0.8528
   96DG     C17 2202   2.690   3.520   1.439 -0.4130 -0.1444  0.7095
   96DG     C18 2203   2.774   3.610   1.644  0.5596  0.4078  0.1373
   96DG     O19 2204   2.747   3.630   1.507  0.7579 -0.1784 -0.1011
   96DG     H20 2205   2.772   3.453   1.414  1.7517  2.0176  1.6277
   96DG     H21 2206   2.608   3.475   1.495  0.4405 -0.6608  1.5617
   96DG     H22 2207   2.696   3.553   1.694 -0.8222 -0.2714 -2.6056
   96DG     H23 2208   2.775   3.718   1.662  0.8870  0.2832  0.9317
   97DG      C1 2209   1.448   2.373   0.146 -0.4304  0.2784 -0.2810
   97DG      C2 2210   0.903   2.108  -0.089 -0.0544 -0.6136  0.5010
   97DG      H3 2211   1.468   2.374   0.039 -2.0093 -1.0123 -0.6374
   97DG      H4 2212   1.524   2.314   0.196  0.5189  1.6589 -0.0491
   97DG      H5 2213   1.459   2.479   0.170  2.6580 -0.1734  0.7141
   97DG      H6 2214   0.956   2.019  -0.123 -2.3157 -1.6778 -0.4447
   97DG      H7 2215   0.798   2.090  -0.113  0.2118 -0.5331 -0.8103
   97DG      H8 2216   0.929   2.191  -0.155 -0.8859 -0.8314 -0.1201
   97DG      O9 2217   1.320   2.307   0.165 -0.0235  0.0769 -0.2174
   97DG     O10 2218   0.942   2.137   0.037 -0.0676  0.5656 -0.1258
   97DG     C11 2219   1.286   2.297   0.305 -0.2855  0.3885 -0.8370
   97DG     C12 2220   0.926   2.037   0.129 -0.7013  0.7502 -1.0712
   97DG     H13 2221   1.300   2.396   0.347  2.1717 -0.3031  0.1401
   97DG     H14 2222   1.352   2.219   0.343  0.4693  2.4366  2.4786
   97DG     H15 2223   0.983   1.946   0.109 -1.2613 -0.6924  2.9692
   97DG     H16 2224   0.820   2.023   0.148 -0.0967 -1.3092  1.3380
   97DG     C17 2225   1.147   2.251   0.322  0.8636 -0.2184 -0.0136
   97DG     C18 2226   0.986   2.092   0.253 -0.0846  0.0888 -0.2704
   97DG     O19 2227   1.113   2.148   0.233  0.0052 -0.0494  0.1871
   97DG     H20 2228   1.082   2.338   0.317  1.9171  0.6003  0.2013
   97DG     H21 2229   1.139   2.218   0.426 -1.7867  0.0577 -0.0692
   97DG     H22 2230   0.918   2.168   0.291 -0.0401  0.1678 -0.3500
   97DG     H23 2231   1.011   2.003   0.311 -0.1697 -0.6433 -1.3207
   98DG      C1 2232   2.404   4.311   4.650  0.2359 -0.2916 -0.0503
   98DG      C2 2233   2.847   4.786   4.843 -0.6819 -0.2031  0.4660
   98DG      H3 2234   2.316   4.275   4.597  0.2734 -2.7236  1.3998
   98DG      H4 2235   2.398   4.269   4.751 -0.6255  0.2721  0.1475
   98DG      H5 2236   2.491   4.259   4.611  0.0832 -1.7401  1.4219
   98DG      H6 2237   2.913   4.712   4.798 -0.3266  0.0949  0.4913
   98DG      H7 2238   2.902   4.880   4.839  0.1539 -0.6801  0.4682
   98DG      H8 2239   2.832   4.761   4.949  0.2608  1.4511  1.0187
   98DG      O9 2240   2.418   4.458   4.659  0.6002 -0.1777  0.0354
   98DG     O10 2241   2.726   4.792   4.772 -0.5484  0.4212 -0.2353
   98DG     C11 2242   2.427   4.499   4.525  0.0720  0.7877 -0.3861
   98DG     C12 2243   2.755   4.785   4.629  0.1190  0.3685  0.0882
   98DG     H13 2244   2.347   4.470   4.456 -1.0727  0.5206  0.9889
   98DG     H14 2245   2.518   4.455   4.486  1.1106  0.1789  2.4605
   98DG     H15 2246   2.797   4.687   4.609 -0.1075  0.2516  0.1813
   98DG     H16 2247   2.813   4.870   4.595 -0.9748  0.3965 -1.8857
   98DG     C17 2248   2.437   4.646   4.517  0.0066  0.0640  1.0521
   98DG     C18 2249   2.627   4.793   4.548  0.7672  0.8054 -0.1069
   98DG     O19 2250   2.547   4.684   4.599  0.3541 -0.0586 -0.2872
   98DG     H20 2251   2.346   4.687   4.560 -0.2853 -0.4934  0.9701
   98DG     H21 2252   2.440   4.686   4.415 -1.5598 -0.2449  0.8628
   98DG     H22 2253   2.566   4.883   4.559  1.5339  1.0392  3.3990
   98DG     H23 2254   2.654   4.765   4.447 -1.9115 -0.5735 -0.5212
   99DG      C1 2255   3.385   0.136   1.086  0.4471 -0.1460 -0.3078
   99DG      C2 2256   3.721  -0.264   1.463  0.1879 -0.1192 -0.2448
   99DG      H3 2257   3.424   0.211   1.016 -2.3422 -0.4612 -2.3634
   99DG      H4 2258   3.280   0.151   1.110  0.8279  0.7366  0.8902
   99DG      H5 2259   3.389   0.042   1.031 -1.3068 -0.1864 -0.4054
   99DG      H6 2260   3.825  -0.258   1.496  0.4816  0.2380 -1.2016
   99DG      H7 2261   3.665  -0.313   1.544 -1.1790 -1.6264 -2.0145
   99DG      H8 2262   3.722  -0.317   1.368  1.8905  1.6182 -1.2575
   99DG      O9 2263   3.465   0.137   1.204 -0.2111 -0.1790  0.1146
   99DG     O10 2264   3.672  -0.133   1.450 -0.4367  0.2618  0.2330
   99DG     C11 2265   3.437   0.243   1.289  0.3223 -1.0845  1.5020
   99DG     C12 2266   3.677  -0.062   1.571 -0.1416  0.3990  0.1046
   99DG     H13 2267   3.337   0.216   1.322 -0.8028 -1.4557 -1.7876
   99DG     H14 2268   3.427   0.336   1.233  2.4608 -1.2946  0.6566
   99DG     H15 2269   3.771  -0.081   1.623  1.0087 -0.7683 -2.2704
   99DG     H16 2270   3.594  -0.095   1.634  1.0235 -1.6569  0.6549
   99DG     C17 2271   3.534   0.246   1.417  0.3153 -0.3326  0.5575
   99DG     C18 2272   3.657   0.080   1.545  0.0809 -0.4739  0.0366
   99DG     O19 2273   3.556   0.108   1.451 -0.1445 -0.0988 -0.0322
   99DG     H20 2274   3.489   0.290   1.506  0.7581  0.2694  0.4860
   99DG     H21 2275   3.629   0.294   1.395 -0.3962  0.3003 -1.3807
   99DG     H22 2276   3.643   0.146   1.630  1.4280  2.5043 -1.8751
   99DG     H23 2277   3.755   0.109   1.506 -0.5799 -0.4651 -1.7074
  100DG      C1 2278   4.808   2.105   2.832 -0.3627  0.1222 -0.2591
  100DG      C2 2279   5.352   2.319   3.257  0.0724 -0.0858  0.6773
  100DG      H3 2280   4.741   2.083   2.915  0.1991 -1.0706 -0.0906
  100DG      H4 2281   4.841   2.006   2.799  1.1474  0.1789  0.9527
  100DG      H5 2282   4.739   2.149   2.761 -0.3769 -1.5354 -1.3413
  100DG      H6 2283   5.274   2.339   3.331 -1.2073  1.8778 -1.0915
  100DG      H7 2284   5.399   2.222   3.271 -3.0690 -1.9925 -0.8849
  100DG      H8 2285   5.428   2.394   3.280  1.9884 -1.3972 -0.9665
  100DG      O9 2286   4.921   2.188   2.865 -0.1601 -0.5712  0.6144
  100DG     O10 2287   5.301   2.328   3.127 -0.2837  0.1911  0.0796
  100DG     C11 2288   5.006   2.210   2.749 -0.0886 -0.0794  0.0486
  100DG     C12 2289   5.394   2.293   3.028  0.7877 -0.7484 -0.5902
  100DG     H13 2290   4.946   2.267   2.678 -1.0969 -0.0146  0.9403
  100DG     H14 2291   5.039   2.112   2.715  0.9665  0.0779  0.5671
  100DG     H15 2292   5.410   2.186   3.040 -0.7493 -0.8095  1.5930
  100DG     H16 2293   5.483   2.353   3.045  0.8135 -0.8669 -0.3093
  100DG     C17 2294   5.117   2.305   2.778 -0.3756 -0.0288  0.3793
  100DG     C18 2295   5.327   2.335   2.895 -0.5048  0.0326  0.0018
  100DG     O19 2296   5.204   2.262   2.881 -0.3515 -0.8029  0.1550
  100DG     H20 2297   5.068   2.398   2.806 -0.0592 -0.1394  1.3418
  100DG     H21 2298   5.188   2.320   2.696 -0.2320  1.3466  0.7286
  100DG     H22 2299   5.310   2.442   2.892  3.9444  0.9302 -1.0356
  100DG     H23 2300   5.398   2.309   2.816  1.3172  2.3839  0.7662
  101DG      C1 2301   0.180   0.838   0.592  0.4105  0.0576  0.1951
  101DG      C2 2302   0.932   1.058   0.644  0.1380 -0.1561  0.5793
  101DG      H3 2303   0.117   0.749   0.602 -0.9492  0.6929 -2.1757
  101DG      H4 2304   0.190   0.855   0.485  0.4065 -0.5582  0.0898
  101DG      H5 2305   0.129   0.926   0.630  0.7853 -0.0328  0.9304
  101DG      H6 2306   0.890   1.142   0.589 -1.0236 -2.0075 -1.5395
  101DG      H7 2307   0.982   1.083   0.738  3.7667  1.6538 -1.5908
  101DG      H8 2308   1.014   1.020   0.583 -0.9121 -0.6731 -0.5600
  101DG      O9 2309   0.293   0.810   0.666 -0.2153  0.1136  0.2753
  101DG     O10 2310   0.842   0.957   0.670  0.2039  0.3223 -0.2128
  101DG     C11 2311   0.386   0.727   0.600  0.5050  0.0909  0.4035
  101DG     C12 2312   0.756   0.982   0.778 -0.0869 -0.0007 -0.1185
  101DG     H13 2313   0.403   0.759   0.497 -0.9075  0.0357  0.1366
  101DG     H14 2314   0.343   0.626   0.599  0.4695  0.0936 -1.4228
  101DG     H15 2315   0.717   1.081   0.755 -0.4688  0.4560  2.1636
  101DG     H16 2316   0.814   0.968   0.870  0.6521 -1.7295 -0.7932
  101DG     C17 2317   0.517   0.731   0.673  0.7636 -0.6782  0.5681
  101DG     C18 2318   0.652   0.877   0.794  0.3407  0.4908  0.0781
  101DG     O19 2319   0.555   0.869   0.693  0.4531 -0.2915 -0.1456
  101DG     H20 2320   0.601   0.688   0.618  0.8107  1.3749 -1.0825
  101DG     H21 2321   0.511   0.697   0.777 -1.0255  1.1916  1.1386
  101DG     H22 2322   0.701   0.780   0.801 -0.6018  0.0569  0.9027
  101DG     H23 2323   0.605   0.890   0.891 -1.7215 -0.2090 -0.7674
  102DG      C1 2324   5.403   0.415   0.722  0.1521 -0.9875  0.0519
  102DG      C2 2325   4.805   0.344   0.975  0.1865  0.4963  0.3366
  102DG      H3 2326   5.389   0.372   0.821  0.3342  0.4309  0.7140
  102DG      H4 2327   5.491   0.479   0.723 -0.6247  0.1239 -0.5891
  102DG      H5 2328   5.427   0.335   0.651  0.8444  0.7208 -1.7418
  102DG      H6 2329   4.713   0.362   0.919  0.1769 -0.0881  0.1609
  102DG      H7 2330   4.834   0.241   0.956 -0.1171  0.4735 -0.0253
  102DG      H8 2331   4.782   0.358   1.081 -1.2535 -0.5600  0.1919
  102DG      O9 2332   5.287   0.488   0.681 -0.4679 -0.1362 -0.4784
  102DG     O10 2333   4.904   0.433   0.918 -0.1208  0.8921  0.0172
  102DG     C11 2334   5.283   0.623   0.736 -0.7751  0.2009  0.0646
  102DG     C12 2335   4.858   0.567   0.914 -0.7200  0.3037  0.5869
  102DG     H13 2336   5.340   0.684   0.666 -0.0265 -1.3886 -0.7660
  102DG     H14 2337   5.315   0.641   0.839 -1.3226 -0.5016  0.3687
  102DG     H15 2338   4.890   0.608   1.010 -0.1503  0.5816  0.2815
  102DG     H16 2339   4.751   0.579   0.901 -0.9047 -0.8212  0.9910
  102DG     C17 2340   5.145   0.682   0.723  0.2334 -0.6110  0.6714
  102DG     C18 2341   4.934   0.658   0.810  0.7490 -0.3148 -0.8154
  102DG     O19 2342   5.057   0.596   0.782  0.2912  0.0783 -0.2479
  102DG     H20 2343   5.119   0.696   0.618  0.7766  2.6461  0.8488
  102DG     H21 2344   5.142   0.781   0.769  0.7867 -0.6060  0.7049
  102DG     H22 2345   4.869   0.660   0.722 -1.1740 -1.3065  0.5100
  102DG     H23 2346   4.938   0.760   0.848 -0.8566 -0.2971 -0.6246
  103DG      C1 2347   1.779   4.587   5.045  0.0826 -0.5665  0.1305
  103DG      C2 2348   1.276   4.091   5.321 -0.4164  0.5773  0.4046
  103DG      H3 2349   1.828   4.565   4.950 -0.7773  0.5555 -0.5996
  103DG      H4 2350   1.838   4.657   5.104 -0.7444 -0.1460  0.4870
  103DG      H5 2351   1.689   4.644   5.018  1.2504  1.2061 -0.2381
  103DG      H6 2352   1.226   4.155   5.393 -1.6631  0.7814 -0.6099
  103DG      H7 2353   1.222   4.090   5.227  0.3260  0.1849 -0.0261
  103DG      H8 2354   1.271   3.990   5.363 -1.6239  0.9355  1.1784
  103DG      O9 2355   1.744   4.490   5.135  0.4448 -0.4656 -0.4946
  103DG     O10 2356   1.409   4.133   5.298 -0.1687 -0.3724  0.3215
  103DG     C11 2357   1.806   4.362   5.112 -1.0367  0.4072  0.6657
  103DG     C12 2358   1.485   4.129   5.418 -0.6421 -0.4454 -0.6730
  103DG     H13 2359   1.914   4.368   5.099 -0.9632 -1.6578  0.0829
  103DG     H14 2360   1.770   4.318   5.019  1.4279  0.1297 -0.2186
  103DG     H15 2361   1.482   4.040   5.481 -2.5510  1.3814  2.1013
  103DG     H16 2362   1.447   4.205   5.488  0.3266 -1.2842  0.8117
  103DG     C17 2363   1.784   4.279   5.243  0.4532  0.2017 -0.2027
  103DG     C18 2364   1.628   4.180   5.388  0.2160 -0.2873  0.1000
  103DG     O19 2365   1.645   4.264   5.270  0.4333  0.3720 -0.3386
  103DG     H20 2366   1.843   4.321   5.324  1.9541 -1.7614 -0.2069
  103DG     H21 2367   1.837   4.187   5.219  0.2497  0.1751 -0.5699
  103DG     H22 2368   1.667   4.236   5.474 -0.4292 -0.5418  0.5639
  103DG     H23 2369   1.680   4.084   5.388 -0.5830 -0.7206  0.1161
  104DG      C1 2370   2.072   0.449   3.895 -0.8492  0.1073  0.3483
  104DG      C2 2371   2.396   0.473   3.294 -0.2347  0.8451 -0.0607
  104DG      H3 2372   2.110   0.462   3.996  1.7790  0.9703 -0.6642
  104DG      H4 2373   1.973   0.404   3.899 -0.4605 -0.8549 -0.3991
  104DG      H5 2374   2.066   0.552   3.860  0.5297  0.2274  0.4272
  104DG      H6 2375   2.291   0.496   3.281 -0.3635 -0.0962 -0.7947
  104DG      H7 2376   2.451   0.564   3.317  1.4855 -0.7220  2.5580
  104DG      H8 2377   2.423   0.431   3.197 -1.9055 -1.9707  0.5631
  104DG      O9 2378   2.160   0.376   3.806 -0.0594 -0.4028  0.3352
  104DG     O10 2379   2.426   0.378   3.396 -0.4252 -0.2305  0.0444
  104DG     C11 2380   2.141   0.230   3.796 -0.0199  0.1077 -0.3672
  104DG     C12 2381   2.379   0.253   3.372 -0.3769 -0.1135 -0.2635
  104DG     H13 2382   2.043   0.214   3.752 -0.0819 -0.2545 -0.1051
  104DG     H14 2383   2.135   0.184   3.895  2.6524  2.1022  0.8589
  104DG     H15 2384   2.441   0.203   3.298 -0.0971  1.4852 -1.1416
  104DG     H16 2385   2.279   0.236   3.332 -0.4663  0.7093 -0.3946
  104DG     C17 2386   2.255   0.169   3.714  0.0211  0.3637  0.5450
  104DG     C18 2387   2.372   0.168   3.505  0.3475  0.3285  0.0577
  104DG     O19 2388   2.277   0.236   3.592  0.0333 -0.0169 -0.1396
  104DG     H20 2389   2.236   0.064   3.695  0.6129  0.3594 -0.0694
  104DG     H21 2390   2.347   0.173   3.773 -0.6899 -0.3627  1.7451
  104DG     H22 2391   2.335   0.068   3.484  2.0301 -0.1596 -0.7721
  104DG     H23 2392   2.460   0.161   3.569 -1.5926  0.3993  2.8971
  105DG      C1 2393   1.427   5.228   3.985 -0.0163  0.0505 -0.3902
  105DG      C2 2394   1.674   4.703   3.620 -1.0606 -0.3032 -0.2643
  105DG      H3 2395   1.488   5.318   3.981 -1.8828  1.3205 -2.1620
  105DG      H4 2396   1.469   5.174   4.070 -2.4705 -1.1109  0.1821
  105DG      H5 2397   1.333   5.272   4.017 -0.2178 -0.5884 -0.0718
  105DG      H6 2398   1.664   4.626   3.543  0.7525  0.7827 -1.6566
  105DG      H7 2399   1.779   4.719   3.645 -1.4196  1.0022  0.4851
  105DG      H8 2400   1.634   4.660   3.712 -0.9044 -0.0792 -0.0897
  105DG      O9 2401   1.432   5.145   3.875 -0.2768  0.5151  0.0985
  105DG     O10 2402   1.597   4.816   3.608  0.1772 -0.0050 -0.0696
  105DG     C11 2403   1.409   5.223   3.759 -0.0846 -0.7439 -0.5247
  105DG     C12 2404   1.638   4.903   3.505 -0.2358  0.4676  0.0330
  105DG     H13 2405   1.493   5.293   3.752 -1.8072  1.2738 -2.2516
  105DG     H14 2406   1.317   5.280   3.772 -0.5623 -0.9770 -2.5345
  105DG     H15 2407   1.665   4.850   3.414  0.5694  1.2840 -0.2266
  105DG     H16 2408   1.734   4.944   3.537  0.8009 -2.1520  0.5366
  105DG     C17 2409   1.401   5.143   3.633 -0.6378  0.0771 -1.0511
  105DG     C18 2410   1.530   5.005   3.499 -0.4689  1.0304 -0.2912
  105DG     O19 2411   1.521   5.082   3.620 -0.7949  0.0210 -0.1810
  105DG     H20 2412   1.382   5.215   3.554 -1.3099  0.1505 -0.8308
  105DG     H21 2413   1.310   5.084   3.640 -0.7757  0.2531 -1.3249
  105DG     H22 2414   1.557   5.080   3.425  0.7292  1.0926  0.1861
  105DG     H23 2415   1.437   4.957   3.468  0.0012 -0.5428  0.6228
  106DG      C1 2416   2.302   3.448   4.928  0.4575 -0.6748  0.3584
  106DG      C2 2417   2.487   3.479   5.607  0.4974  0.7439  0.0324
  106DG      H3 2418   2.276   3.342   4.937 -0.8160 -0.3106  1.4393
  106DG      H4 2419   2.408   3.453   4.905  0.4017 -2.7771 -0.6322
  106DG      H5 2420   2.250   3.498   4.847 -0.5488 -1.6965  0.3438
  106DG      H6 2421   2.521   3.557   5.675 -2.3925  1.1487  1.1438
  106DG      H7 2422   2.424   3.413   5.665 -0.8590  1.1308 -0.9518
  106DG      H8 2423   2.576   3.428   5.569 -0.3996 -0.8848  0.0527
  106DG      O9 2424   2.293   3.528   5.051 -0.1875 -0.1586 -0.8162
  106DG     O10 2425   2.412   3.527   5.501  0.8848  0.2015  0.3224
  106DG     C11 2426   2.157   3.562   5.085 -0.1826  0.3613  0.2359
  106DG     C12 2427   2.294   3.599   5.541  0.0481 -0.7076 -0.5840
  106DG     H13 2428   2.102   3.469   5.100  0.8354 -1.1144 -3.9012
  106DG     H14 2429   2.113   3.613   4.999 -1.2542  0.0877  0.6138
  106DG     H15 2430   2.335   3.665   5.617  0.0239 -1.9450  0.5564
  106DG     H16 2431   2.226   3.526   5.585 -0.8009  0.1674 -0.4150
  106DG     C17 2432   2.147   3.664   5.209 -0.4088  0.2257  0.1291
  106DG     C18 2433   2.226   3.684   5.431 -0.0800 -0.0837 -0.2968
  106DG     O19 2434   2.221   3.606   5.309  0.3164 -0.4323  0.1835
  106DG     H20 2435   2.041   3.658   5.234 -0.3356 -2.4300  0.1430
  106DG     H21 2436   2.188   3.762   5.188 -1.2780  0.9300  1.5998
  106DG     H22 2437   2.135   3.729   5.472 -0.9276 -1.2765 -0.8186
  106DG     H23 2438   2.282   3.776   5.412 -1.8134  1.1414  0.2117
  107DG      C1 2439   3.889   2.781   4.673 -1.0287  0.5164  0.0700
  107DG      C2 2440   3.528   2.285   4.599  0.2736 -0.1112 -0.2811
  107DG      H3 2441   3.916   2.809   4.774 -0.5755 -0.7383  0.3155
  107DG      H4 2442   3.786   2.809   4.650 -0.7946 -0.6228 -2.8294
  107DG      H5 2443   3.943   2.862   4.623 -2.1061  1.8407  0.9961
  107DG      H6 2444   3.473   2.191   4.605 -1.4952  0.8665 -0.6051
  107DG      H7 2445   3.451   2.360   4.615 -0.8190 -0.9571 -1.3547
  107DG      H8 2446   3.553   2.300   4.494  0.1493 -1.1916 -0.4810
  107DG      O9 2447   3.931   2.650   4.641 -0.3093 -0.2472  0.6181
  107DG     O10 2448   3.638   2.298   4.684  0.2580  0.5767  0.0094
  107DG     C11 2449   3.912   2.614   4.511 -0.2540  0.1971  0.0543
  107DG     C12 2450   3.738   2.200   4.654  0.1840 -0.2312  0.6360
  107DG     H13 2451   3.992   2.665   4.457 -0.4287 -0.3666 -0.7418
  107DG     H14 2452   3.816   2.659   4.485 -2.1881 -2.6406  1.8239
  107DG     H15 2453   3.710   2.097   4.631  1.0339 -0.1306 -0.9946
  107DG     H16 2454   3.794   2.184   4.746 -0.2409 -0.7014  0.8183
  107DG     C17 2455   3.926   2.462   4.483  0.4617  0.5761 -0.3291
  107DG     C18 2456   3.838   2.269   4.555  0.6474 -0.2657 -0.4216
  107DG     O19 2457   3.848   2.403   4.581 -0.1348  0.0513 -0.2652
  107DG     H20 2458   4.026   2.418   4.488  0.0545 -0.2834  0.4025
  107DG     H21 2459   3.883   2.455   4.383  0.7634  1.3888 -0.5291
  107DG     H22 2460   3.936   2.223   4.564  1.6741  1.8978  0.0261
  107DG     H23 2461   3.812   2.247   4.452  2.1635  0.4557 -0.9874
  108DG      C1 2462   2.695   2.415   2.248  0.3876  0.0372 -0.8236
  108DG      C2 2463   2.721   3.093   2.436  0.4639 -1.1446 -0.0816
  108DG      H3 2464   2.589   2.439   2.259  0.4567 -0.2534  0.6348
  108DG      H4 2465   2.725   2.342   2.323 -1.2359  0.0894 -0.0964
  108DG      H5 2466   2.710   2.360   2.155 -0.6853  1.1822 -1.6994
  108DG      H6 2467   2.779   3.185   2.446  0.1551 -0.9750  0.1782
  108DG      H7 2468   2.628   3.118   2.385  0.4443  0.6190  0.7348
  108DG      H8 2469   2.692   3.047   2.531  1.4376  0.3361  0.9771
  108DG      O9 2470   2.763   2.541   2.243 -0.1532  0.3213 -0.1435
  108DG     O10 2471   2.786   2.989   2.367 -0.0734 -0.0198 -0.4820
  108DG     C11 2472   2.907   2.535   2.273  0.3759  0.5061  0.2286
  108DG     C12 2473   2.923   2.972   2.407 -0.2502  0.1365 -0.2014
  108DG     H13 2474   2.956   2.462   2.208 -0.6621  1.9499 -2.2995
  108DG     H14 2475   2.938   2.504   2.373 -0.7648 -0.1809  0.3894
  108DG     H15 2476   2.937   2.926   2.505 -1.3587 -0.1342 -0.1530
  108DG     H16 2477   2.977   3.066   2.415  2.3937 -1.2202 -0.7398
  108DG     C17 2478   2.965   2.667   2.235 -0.6512  1.2010  0.2236
  108DG     C18 2479   2.980   2.883   2.301 -0.2636  0.9174  0.9005
  108DG     O19 2480   2.908   2.763   2.317  0.1414 -0.4270  0.5280
  108DG     H20 2481   2.946   2.686   2.129  0.2237  2.6033  0.2942
  108DG     H21 2482   3.073   2.654   2.236 -0.5770  1.8151  0.3895
  108DG     H22 2483   2.971   2.918   2.198 -1.2566  1.1033  1.0421
  108DG     H23 2484   3.084   2.865   2.328  0.3334  1.0741 -1.1178
  109DG      C1 2485   4.250   2.218   4.448  0.4383  0.3011  0.6535
  109DG      C2 2486   4.325   1.547   4.925 -0.5075  0.1918  0.4174
  109DG      H3 2487   4.164   2.253   4.506  0.2934  1.3688 -0.1702
  109DG      H4 2488   4.216   2.218   4.345  0.3238 -0.7910  0.6854
  109DG      H5 2489   4.326   2.296   4.445 -2.3858  3.2568 -0.0747
  109DG      H6 2490   4.364   1.619   4.997 -0.5858  1.0083 -0.3539
  109DG      H7 2491   4.227   1.506   4.950 -1.0688  1.0262 -0.3927
  109DG      H8 2492   4.401   1.469   4.920  0.9181  1.3910  2.0265
  109DG      O9 2493   4.307   2.102   4.486  0.3664 -0.5545  0.3370
  109DG     O10 2494   4.327   1.618   4.797  0.0131 -0.1157 -0.6047
  109DG     C11 2495   4.212   1.996   4.483  0.1224 -0.5437  0.2766
  109DG     C12 2496   4.456   1.661   4.738  0.0940 -0.0910 -0.4682
  109DG     H13 2497   4.153   2.001   4.391  1.2058  2.3355 -0.3910
  109DG     H14 2498   4.139   2.001   4.564 -0.6003 -0.1566 -0.3774
  109DG     H15 2499   4.529   1.581   4.721  0.1416  0.2435 -1.8958
  109DG     H16 2500   4.502   1.735   4.804 -2.1154  1.9512 -1.0995
  109DG     C17 2501   4.278   1.867   4.487 -0.5338 -0.3235 -0.4470
  109DG     C18 2502   4.417   1.710   4.603  0.2677 -0.8268  0.0729
  109DG     O19 2503   4.325   1.820   4.615 -0.1999 -0.6237 -0.3840
  109DG     H20 2504   4.355   1.871   4.410  1.3707  0.6432  1.4221
  109DG     H21 2505   4.202   1.799   4.447 -0.9698  0.0059 -0.1872
  109DG     H22 2506   4.508   1.742   4.552  0.3403  1.0020  1.2245
  109DG     H23 2507   4.372   1.638   4.535 -0.5219  0.8375 -1.2421
  110DG      C1 2508   0.010   3.186   2.832  0.1749  0.3412  0.4522
  110DG      C2 2509  -0.391   3.680   2.846  0.5591  0.5119  0.0464
  110DG      H3 2510   0.071   3.277   2.834  2.1165 -0.8397 -1.0744
  110DG      H4 2511   0.072   3.104   2.797  0.2127  1.0798 -1.3212
  110DG      H5 2512  -0.031   3.156   2.929 -0.2050  2.2895  0.9495
  110DG      H6 2513  -0.386   3.656   2.953  1.6411  1.1401  0.1562
  110DG      H7 2514  -0.323   3.764   2.834  2.9428 -1.1166  1.3429
  110DG      H8 2515  -0.486   3.718   2.810  0.4813 -0.1761 -0.5003
  110DG      O9 2516  -0.100   3.197   2.754 -0.0463  0.1705  0.1344
  110DG     O10 2517  -0.362   3.572   2.762 -0.4960 -0.7794 -0.2586
  110DG     C11 2518  -0.079   3.222   2.616 -0.0708 -0.9218 -0.6130
  110DG     C12 2519  -0.340   3.603   2.624 -0.0289 -0.7553 -0.3552
  110DG     H13 2520  -0.033   3.132   2.575  2.3762 -0.3731  0.6986
  110DG     H14 2521  -0.010   3.306   2.610 -1.2696  0.4418  2.6140
  110DG     H15 2522  -0.250   3.665   2.619 -1.6093  2.1167  2.5510
  110DG     H16 2523  -0.417   3.672   2.589  0.3994  0.5122  1.0515
  110DG     C17 2524  -0.210   3.274   2.556 -0.4482  0.6927 -0.3672
  110DG     C18 2525  -0.328   3.477   2.542  0.5979  0.3010 -0.9319
  110DG     O19 2526  -0.234   3.399   2.608 -0.3450  0.4400 -0.6846
  110DG     H20 2527  -0.298   3.215   2.585  0.9059 -2.0426 -1.4540
  110DG     H21 2528  -0.196   3.269   2.448  4.1019  0.9819  0.0297
  110DG     H22 2529  -0.417   3.414   2.533  1.3098 -0.7702 -0.7131
  110DG     H23 2530  -0.293   3.503   2.442  2.7272  0.0832 -0.2866
  111DG      C1 2531   0.147   5.245   4.340 -0.9072 -0.7318  0.0083
  111DG      C2 2532  -0.431   5.579   4.152  0.1653 -0.3576  0.2297
  111DG      H3 2533   0.194   5.340   4.364 -0.1349 -1.5839  2.1198
  111DG      H4 2534   0.184   5.197   4.250 -1.4524  1.1636 -1.2689
  111DG      H5 2535   0.167   5.188   4.431 -0.4343  0.4254  0.6540
  111DG      H6 2536  -0.496   5.600   4.067 -0.1040 -0.5764  0.3796
  111DG      H7 2537  -0.489   5.556   4.241 -0.4747 -3.2100 -0.8071
  111DG      H8 2538  -0.378   5.667   4.186 -0.5105 -0.8771  2.8506
  111DG      O9 2539  -0.004   5.266   4.338 -0.1254  0.0671 -0.4267
  111DG     O10 2540  -0.345   5.470   4.135  0.4419  0.5061  0.3987
  111DG     C11 2541  -0.074   5.148   4.369 -0.1402  0.3259  0.5041
  111DG     C12 2542  -0.421   5.353   4.110  0.0861 -0.9988  0.6909
  111DG     H13 2543  -0.126   5.147   4.465 -1.2438 -0.6320 -0.0692
  111DG     H14 2544  -0.012   5.058   4.370  0.4109  0.5943 -2.3750
  111DG     H15 2545  -0.467   5.365   4.012 -1.6096 -0.5321  1.5022
  111DG     H16 2546  -0.512   5.344   4.168 -2.0457  0.6454 -2.1721
  111DG     C17 2547  -0.178   5.111   4.258 -0.3653 -0.2749 -0.3696
  111DG     C18 2548  -0.333   5.224   4.120 -0.2833  0.0831 -0.9284
  111DG     O19 2549  -0.268   5.218   4.244 -0.4098  0.2177 -0.8589
  111DG     H20 2550  -0.226   5.017   4.288 -1.3023  0.0744 -0.7332
  111DG     H21 2551  -0.122   5.095   4.166 -0.9108 -0.1950 -0.7246
  111DG     H22 2552  -0.393   5.134   4.106  2.7670 -2.4003  0.7923
  111DG     H23 2553  -0.260   5.225   4.040 -0.5169 -1.0607 -1.1728
  112DG      C1 2554   5.323   1.228   2.875 -1.1959 -0.3261 -0.1439
  112DG      C2 2555   4.727   1.039   2.570  0.7101  0.1620 -0.6834
  112DG      H3 2556   5.300   1.321   2.927  2.8690  0.2849  0.9160
  112DG      H4 2557   5.336   1.249   2.769 -2.7356  0.1540 -0.2579
  112DG      H5 2558   5.409   1.179   2.920 -1.3771 -1.0380 -0.5739
  112DG      H6 2559   4.655   1.088   2.635 -1.1026  0.6289 -2.9265
  112DG      H7 2560   4.750   1.125   2.506 -1.2584  0.1749 -1.4449
  112DG      H8 2561   4.676   0.958   2.518  0.1583  0.5971 -0.8187
  112DG      O9 2562   5.222   1.134   2.878  0.5335  0.0510  0.0911
  112DG     O10 2563   4.844   0.992   2.637 -0.2713 -0.1473  0.3120
  112DG     C11 2564   5.188   1.090   3.010 -0.1879 -0.0431  0.6197
  112DG     C12 2565   4.810   0.910   2.748  0.1436 -0.2628  0.2351
  112DG     H13 2566   5.145   1.159   3.083  0.7738 -0.7489  1.9102
  112DG     H14 2567   5.274   1.058   3.069 -1.5094 -2.4833  1.3732
  112DG     H15 2568   4.772   0.817   2.709  0.0149 -0.2215  0.2613
  112DG     H16 2569   4.734   0.960   2.809  1.0110  0.2861  0.9075
  112DG     C17 2570   5.103   0.968   2.983  0.2388 -0.2390  0.6853
  112DG     C18 2571   4.941   0.881   2.832 -0.2743 -0.7835  0.1308
  112DG     O19 2572   4.996   1.001   2.888 -0.0721  0.3984  0.3891
  112DG     H20 2573   5.053   0.927   3.071 -0.6350  0.2964  0.4443
  112DG     H21 2574   5.171   0.894   2.941  1.7722  0.7052  1.4381
  112DG     H22 2575   4.901   0.827   2.918 -2.3028 -2.2162 -1.5986
  112DG     H23 2576   5.013   0.825   2.772  2.7453  3.2404 -0.3711
  113DG      C1 2577   1.666   4.433   3.256 -0.8637  0.0145  0.1985
  113DG      C2 2578   1.798   3.887   2.861 -0.1839 -0.8093  0.0563
  113DG      H3 2579   1.582   4.455   3.321 -0.3184 -0.2925  1.0242
  113DG      H4 2580   1.696   4.525   3.206  0.4450  0.0496  0.9915
  113DG      H5 2581   1.734   4.396   3.333 -0.7642 -1.0382 -0.3826
  113DG      H6 2582   1.755   3.791   2.831  0.8659 -1.3886  0.3816
  113DG      H7 2583   1.830   3.950   2.778  2.4455 -0.5729  1.1821
  113DG      H8 2584   1.892   3.872   2.912  2.2557 -0.1412 -3.8319
  113DG      O9 2585   1.629   4.332   3.167  0.5618 -0.0687  0.3311
  113DG     O10 2586   1.702   3.963   2.931 -0.9834  0.4699  0.3955
  113DG     C11 2587   1.525   4.381   3.080 -0.2556  0.3644 -1.0033
  113DG     C12 2588   1.586   3.999   2.860  0.1398  0.0213 -0.5933
  113DG     H13 2589   1.545   4.469   3.019 -0.2033  0.8464 -0.2954
  113DG     H14 2590   1.437   4.392   3.144 -1.5709 -0.2749 -2.6340
  113DG     H15 2591   1.554   3.916   2.798 -1.8225 -0.3861  0.8690
  113DG     H16 2592   1.592   4.080   2.787 -3.0978 -2.6343 -4.1930
  113DG     C17 2593   1.499   4.275   2.977  0.8042 -0.3174 -0.2727
  113DG     C18 2594   1.474   4.032   2.967 -0.2203 -0.4969  0.6233
  113DG     O19 2595   1.498   4.148   3.047 -0.2623  0.0725  0.0178
  113DG     H20 2596   1.575   4.275   2.899  1.2396 -0.7548  0.1466
  113DG     H21 2597   1.405   4.305   2.929  1.2137  1.5104  0.0131
  113DG     H22 2598   1.381   4.056   2.915  0.9344  1.2234 -0.7516
  113DG     H23 2599   1.460   3.948   3.036  0.2945 -1.6222 -0.5927
  114DG      C1 2600   4.095   1.836   2.561  0.6620 -0.0013 -0.2091
  114DG      C2 2601   4.026   2.082   1.958  0.2927 -0.0289  0.1862
  114DG      H3 2602   4.201   1.829   2.539  1.0985 -1.5190  2.0153
  114DG      H4 2603   4.083   1.753   2.631 -0.9456  1.0956  0.8919
  114DG      H5 2604   4.076   1.930   2.612  2.5762  0.3611 -0.1020
  114DG      H6 2605   4.135   2.090   1.960  0.5620 -2.1349 -1.6921
  114DG      H7 2606   3.996   2.044   1.861  3.3079  1.8436 -1.6582
  114DG      H8 2607   3.991   2.185   1.967  0.8689  0.0481  1.8822
  114DG      O9 2608   4.029   1.810   2.432 -0.4006  0.1272 -0.2308
  114DG     O10 2609   3.983   2.001   2.065 -0.0695  0.1503 -0.0870
  114DG     C11 2610   3.883   1.809   2.446 -0.0377 -0.0034  0.0861
  114DG     C12 2611   3.842   1.995   2.054 -0.4206 -0.0783 -0.3572
  114DG     H13 2612   3.838   1.906   2.468 -2.0434 -0.6711 -0.8094
  114DG     H14 2613   3.854   1.744   2.529 -1.2850 -0.6506 -0.8136
  114DG     H15 2614   3.815   1.930   1.971 -0.6037 -2.7873  1.6580
  114DG     H16 2615   3.794   2.092   2.046 -1.5442 -0.4777  1.1400
  114DG     C17 2616   3.825   1.740   2.319  0.0290 -0.7969  0.0812
  114DG     C18 2617   3.787   1.932   2.181 -0.5854  0.1889  0.1019
  114DG     O19 2618   3.850   1.803   2.195  0.7669 -0.0420 -0.2367
  114DG     H20 2619   3.721   1.712   2.340 -0.5963  0.9576 -0.5072
  114DG     H21 2620   3.871   1.642   2.310 -1.0294 -1.1716 -1.7456
  114DG     H22 2621   3.807   2.000   2.263  0.2362  0.4011 -0.2601
  114DG     H23 2622   3.679   1.921   2.180 -0.5873  0.1108  0.6762
  115DG      C1 2623   5.405   4.516   2.238 -0.2996  0.4663 -0.7040
  115DG      C2 2624   4.862   4.389   2.578 -0.5260 -0.4235  0.6470
  115DG      H3 2625   5.449   4.421   2.267 -0.6204 -0.0108 -1.7331
  115DG      H4 2626   5.490   4.584   2.245 -0.2777  0.6291 -2.1322
  115DG      H5 2627   5.376   4.514   2.133 -2.0909  0.1449 -0.2297
  115DG      H6 2628   4.809   4.462   2.517  0.7066 -0.5164 -0.5567
  115DG      H7 2629   4.866   4.313   2.501  0.1745 -0.8220  1.0651
  115DG      H8 2630   4.798   4.358   2.661 -0.1901 -1.8816  0.3952
  115DG      O9 2631   5.291   4.554   2.315 -0.4399  0.6071 -0.5860
  115DG     O10 2632   4.981   4.439   2.623 -0.1718 -0.1990  0.3205
  115DG     C11 2633   5.273   4.691   2.354 -0.8140 -0.4772  0.8925
  115DG     C12 2634   4.965   4.565   2.688  0.8899  0.1029 -0.0469
  115DG     H13 2635   5.298   4.752   2.267 -0.7413 -2.2982 -0.4277
  115DG     H14 2636   5.343   4.707   2.436  0.3782  0.0629 -0.2059
  115DG     H15 2637   5.037   4.589   2.767  0.4431  1.3716 -0.0062
  115DG     H16 2638   4.868   4.581   2.734  0.7500 -2.1288  0.5898
  115DG     C17 2639   5.133   4.728   2.412 -0.2947  0.3917  0.6240
  115DG     C18 2640   4.990   4.678   2.586  0.6283 -0.2602  0.5988
  115DG     O19 2641   5.112   4.648   2.524  0.2316 -0.1497 -0.4334
  115DG     H20 2642   5.054   4.705   2.341 -0.1996 -1.6298  1.1260
  115DG     H21 2643   5.125   4.833   2.440  0.5854  0.7909 -0.5567
  115DG     H22 2644   4.915   4.661   2.509  1.0876 -0.4543  0.1884
  115DG     H23 2645   4.978   4.782   2.616 -0.3663 -0.2425  0.1885
  116DG      C1 2646   1.250   4.238   3.513  0.1005 -0.2157 -0.0073
  116DG      C2 2647   1.951   4.521   3.936  0.2640  0.3796 -0.0292
  116DG      H3 2648   1.190   4.328   3.502 -0.0606 -0.0160  2.0662
  116DG      H4 2649   1.185   4.150   3.508 -1.2894  0.6964  1.1977
  116DG      H5 2650   1.317   4.245   3.428 -2.0775  1.9856 -1.7011
  116DG      H6 2651   1.968   4.564   4.034 -0.5331  1.7509 -0.4676
  116DG      H7 2652   2.034   4.455   3.912 -0.7510 -1.3924  1.1135
  116DG      H8 2653   1.952   4.607   3.869 -0.4229 -1.0464 -1.9653
  116DG      O9 2654   1.306   4.243   3.644 -0.3073  0.6874 -0.7193
  116DG     O10 2655   1.831   4.446   3.926 -0.3262  0.2559  0.7994
  116DG     C11 2656   1.395   4.351   3.653  0.3718  0.5638 -0.5709
  116DG     C12 2657   1.722   4.503   3.982 -0.1417  0.1341  0.2585
  116DG     H13 2658   1.354   4.450   3.676 -1.0108 -0.4096  1.4673
  116DG     H14 2659   1.475   4.350   3.579  0.4114 -2.1352 -0.5673
  116DG     H15 2660   1.706   4.603   3.942  2.8620  0.0336 -1.4985
  116DG     H16 2661   1.728   4.505   4.091  2.1673 -2.0357  0.2541
  116DG     C17 2662   1.464   4.331   3.788  0.4958 -0.8290  0.8133
  116DG     C18 2663   1.606   4.422   3.943  0.4192  0.0412  0.3710
  116DG     O19 2664   1.565   4.434   3.803 -0.8437  0.0805 -0.4522
  116DG     H20 2665   1.498   4.227   3.794 -0.5042 -1.1286  1.7209
  116DG     H21 2666   1.389   4.351   3.864 -1.3097  2.1409 -1.5619
  116DG     H22 2667   1.620   4.318   3.973  0.0479 -0.3150 -0.6297
  116DG     H23 2668   1.524   4.443   4.011 -0.7919 -0.1126 -0.9812
  117DG      C1 2669   0.905   3.462   3.076  0.5082 -0.4557 -0.3205
  117DG      C2 2670   1.100   3.439   2.480 -0.6041  0.9008 -0.0006
  117DG      H3 2671   0.953   3.503   3.165 -0.1648 -0.3631  0.0023
  117DG      H4 2672   0.837   3.384   3.111 -0.1291 -0.3057 -1.1951
  117DG      H5 2673   0.843   3.542   3.037  0.7912 -0.1156 -0.0805
  117DG      H6 2674   1.181   3.505   2.510  1.4428 -1.6552  0.4361
  117DG      H7 2675   1.141   3.387   2.393 -1.7516 -2.0935  1.1441
  117DG      H8 2676   1.015   3.498   2.445  0.1690  1.7653 -0.4863
  117DG      O9 2677   0.994   3.401   2.976  0.3215 -0.4450  0.0815
  117DG     O10 2678   1.075   3.351   2.592  0.0539 -0.0571  0.0641
  117DG     C11 2679   1.066   3.298   3.032  0.0850 -0.0214  1.2155
  117DG     C12 2680   1.164   3.240   2.614 -0.4127 -0.4663  0.8908
  117DG     H13 2681   0.988   3.225   3.056  0.9097 -1.1988  0.4113
  117DG     H14 2682   1.130   3.336   3.112  0.6564  0.6148  0.4729
  117DG     H15 2683   1.214   3.199   2.526 -1.9710 -0.8486  0.1511
  117DG     H16 2684   1.109   3.148   2.638 -0.4156 -1.5157 -2.6153
  117DG     C17 2685   1.147   3.228   2.925 -0.5091  0.0654 -1.0979
  117DG     C18 2686   1.264   3.280   2.725  0.2691 -0.0259 -0.0034
  117DG     O19 2687   1.202   3.333   2.845 -0.2587 -0.1929  0.3185
  117DG     H20 2688   1.085   3.168   2.859 -0.7420  2.0477 -2.7731
  117DG     H21 2689   1.221   3.160   2.968 -1.5593 -0.0202  0.6548
  117DG     H22 2690   1.326   3.193   2.748  0.5756 -0.0369 -0.8441
  117DG     H23 2691   1.330   3.363   2.697  4.3736 -2.0249  2.6207
  118DG      C1 2692   5.166   2.199   3.962 -0.4662  0.6837 -0.3754
  118DG      C2 2693   4.531   2.144   3.709 -0.2802  0.1408  0.3659
  118DG      H3 2694   5.234   2.258   4.023  0.2642 -0.0691 -0.4454
  118DG      H4 2695   5.210   2.189   3.863 -1.3904  1.1506 -0.8485
  118DG      H5 2696   5.169   2.107   4.020 -0.0653  1.5737  1.0474
  118DG      H6 2697   4.509   2.091   3.801 -0.4392  1.0933  0.8958
  118DG      H7 2698   4.445   2.164   3.645  0.2503 -0.1699 -0.4542
  118DG      H8 2699   4.587   2.069   3.653  1.4042  0.8451  1.0350
  118DG      O9 2700   5.038   2.254   3.977  0.0325 -0.5497  0.3685
  118DG     O10 2701   4.615   2.249   3.743  0.3659  0.1181  0.5407
  118DG     C11 2702   5.041   2.396   3.938  0.2852 -0.3208 -0.3067
  118DG     C12 2703   4.656   2.321   3.627 -0.2976  0.4968 -0.3235
  118DG     H13 2704   5.144   2.428   3.955 -0.3824  1.3979  0.7671
  118DG     H14 2705   4.979   2.455   4.006  0.8157  0.8799 -0.8297
  118DG     H15 2706   4.570   2.386   3.612 -0.9202 -0.2366 -0.0132
  118DG     H16 2707   4.689   2.269   3.537 -0.5808 -1.5364  0.6970
  118DG     C17 2708   4.980   2.411   3.793 -1.1881 -0.1163 -0.4544
  118DG     C18 2709   4.778   2.410   3.671  0.5640  0.0138 -0.3341
  118DG     O19 2710   4.850   2.349   3.782 -0.2109 -0.7413 -0.6220
  118DG     H20 2711   5.039   2.367   3.712 -0.3436 -1.5826  0.9031
  118DG     H21 2712   4.973   2.517   3.767  0.7338  0.1646  0.0345
  118DG     H22 2713   4.848   2.412   3.587  1.3989  0.1107  0.3514
  118DG     H23 2714   4.749   2.512   3.697  0.2527  0.2505 -1.5684
  119DG      C1 2715   0.789   3.957   2.915  0.1751 -0.4347 -0.6567
  119DG      C2 2716   0.297   3.442   2.665 -0.4933 -0.3409 -0.0055
  119DG      H3 2717   0.774   3.897   3.005 -0.8385  0.8828  0.0971
  119DG      H4 2718   0.785   4.063   2.942 -1.8861 -0.2906 -1.3069
  119DG      H5 2719   0.894   3.951   2.886  0.0005  2.3970 -2.3070
  119DG      H6 2720   0.374   3.365   2.667  0.7688  0.8610 -0.4830
  119DG      H7 2721   0.202   3.400   2.698 -0.3510 -1.4783 -0.9721
  119DG      H8 2722   0.274   3.480   2.565  2.3271 -0.3455 -0.7639
  119DG      O9 2723   0.692   3.928   2.810 -0.2121  0.5777  0.1962
  119DG     O10 2724   0.326   3.551   2.744 -0.3345  0.2529 -0.5518
  119DG     C11 2725   0.561   3.962   2.849 -0.6487  0.0591 -0.1614
  119DG     C12 2726   0.399   3.507   2.856  0.1993 -0.1896 -0.4928
  119DG     H13 2727   0.510   3.965   2.752  1.0042 -0.0652 -1.0724
  119DG     H14 2728   0.556   4.063   2.890 -0.9805  1.5027 -3.4509
  119DG     H15 2729   0.494   3.463   2.823  0.2541 -0.7705  0.4212
  119DG     H16 2730   0.347   3.421   2.898  1.1293  0.6360  2.5920
  119DG     C17 2731   0.512   3.848   2.946  0.9048 -0.7034 -0.3137
  119DG     C18 2732   0.427   3.621   2.951  0.2098 -0.8764 -0.7663
  119DG     O19 2733   0.495   3.722   2.880 -0.2694  0.1481  0.2337
  119DG     H20 2734   0.413   3.879   2.982  1.9809  0.6239  1.6947
  119DG     H21 2735   0.574   3.829   3.034 -0.4867 -2.6079  0.3320
  119DG     H22 2736   0.336   3.671   2.984 -0.0709  0.6342 -3.5522
  119DG     H23 2737   0.490   3.596   3.037 -0.5130  0.9211  0.3573
  120DG      C1 2738   5.297   1.898   2.941 -0.3531  0.7579 -0.8665
  120DG      C2 2739   4.840   2.339   3.147 -0.1393 -0.6486  0.1665
  120DG      H3 2740   5.404   1.883   2.946 -0.3695  0.6138 -0.9174
  120DG      H4 2741   5.278   1.971   2.862  0.0147  2.5048  0.6063
  120DG      H5 2742   5.244   1.804   2.921  0.7940  0.1841 -1.3159
  120DG      H6 2743   4.870   2.385   3.053 -1.2771 -0.6594 -0.2222
  120DG      H7 2744   4.765   2.265   3.121  1.7472 -2.1896 -1.2011
  120DG      H8 2745   4.802   2.415   3.216  0.9008  0.8931 -0.9067
  120DG      O9 2746   5.243   1.949   3.063 -0.5547  0.0220  0.4449
  120DG     O10 2747   4.958   2.281   3.201  0.5780 -0.8947 -0.4025
  120DG     C11 2748   5.258   1.878   3.178 -0.2434 -0.6174 -0.1484
  120DG     C12 2749   4.926   2.212   3.317 -0.3301 -0.1275  0.4405
  120DG     H13 2750   5.354   1.834   3.204  0.9395  0.8080 -1.8995
  120DG     H14 2751   5.190   1.794   3.163 -2.7318  1.2345  0.1547
  120DG     H15 2752   4.833   2.157   3.303 -1.2087  1.4683 -0.1124
  120DG     H16 2753   4.910   2.290   3.391  2.0283  0.3216  0.5626
  120DG     C17 2754   5.212   1.961   3.300 -0.5435  0.1625 -0.1182
  120DG     C18 2755   5.034   2.109   3.366 -0.4832 -0.0576  0.1684
  120DG     O19 2756   5.093   2.029   3.260  0.1934  0.1302 -0.0377
  120DG     H20 2757   5.289   2.033   3.328  0.2655  0.1475 -2.1421
  120DG     H21 2758   5.189   1.905   3.391  0.4591 -2.6079 -1.4466
  120DG     H22 2759   5.109   2.169   3.419  0.1603 -0.0625 -0.7122
  120DG     H23 2760   4.980   2.038   3.429 -0.9831 -0.3114 -0.5379
  121DG      C1 2761   1.707   0.040   5.032  0.3616  0.0061  1.1033
  121DG      C2 2762   1.949  -0.652   4.869  0.0244 -0.2226  0.6602
  121DG      H3 2763   1.757   0.098   4.954 -0.7296 -0.2644  0.1872
  121DG      H4 2764   1.677   0.088   5.125  0.4026  1.4115  0.4176
  121DG      H5 2765   1.629  -0.014   4.979  1.4457 -0.4755 -0.0806
  121DG      H6 2766   2.038  -0.711   4.892 -0.9412 -2.0421 -0.0761
  121DG      H7 2767   1.861  -0.713   4.889  0.4140 -1.2606 -0.6433
  121DG      H8 2768   1.943  -0.642   4.761 -2.6972 -0.2635  0.7340
  121DG      O9 2769   1.805  -0.060   5.041  0.1212  0.0604  0.0863
  121DG     O10 2770   1.954  -0.520   4.918  0.2387  0.0799  0.1051
  121DG     C11 2771   1.920  -0.048   5.118 -0.5734 -0.1502  0.1568
  121DG     C12 2772   1.962  -0.510   5.056 -0.0721 -0.3069  0.0660
  121DG     H13 2773   1.894  -0.061   5.223  0.6675 -3.3163  0.1795
  121DG     H14 2774   1.960   0.052   5.101 -0.3829 -0.6792 -3.2281
  121DG     H15 2775   2.061  -0.541   5.089  1.1620  2.1205 -1.1091
  121DG     H16 2776   1.885  -0.578   5.091 -0.1583 -0.4282 -0.3553
  121DG     C17 2777   2.041  -0.143   5.092 -0.6356  0.3374  0.0628
  121DG     C18 2778   1.935  -0.365   5.103  0.5431  0.1000 -0.2022
  121DG     O19 2779   2.015  -0.271   5.023 -0.2849 -0.3462 -0.6574
  121DG     H20 2780   2.090  -0.157   5.189  1.9836 -0.3039 -1.2360
  121DG     H21 2781   2.109  -0.092   5.024  1.5839 -3.6641 -1.0955
  121DG     H22 2782   1.837  -0.327   5.075  0.5514 -0.2051 -0.6433
  121DG     H23 2783   1.940  -0.366   5.212  2.1769 -0.2654 -0.2511
  122DG      C1 2784   0.993   2.536   1.377 -0.8210 -0.4179  0.0575
  122DG      C2 2785   0.679   2.970   1.063 -0.0794  0.6578 -0.0448
  122DG      H3 2786   0.937   2.557   1.467 -0.4061 -2.5691  0.8806
  122DG      H4 2787   1.091   2.582   1.384 -0.7282 -0.1696 -2.0876
  122DG      H5 2788   1.002   2.427   1.374  2.4632 -0.3243  2.0767
  122DG      H6 2789   0.748   2.997   0.983  1.8589 -2.8628  0.2674
  122DG      H7 2790   0.578   3.009   1.049 -0.3182  0.2160  0.4069
  122DG      H8 2791   0.721   2.998   1.159  0.1092 -0.7219  0.2905
  122DG      O9 2792   0.920   2.576   1.261  0.0014  0.4083 -0.2820
  122DG     O10 2793   0.681   2.825   1.065 -0.3237  0.0087 -0.2690
  122DG     C11 2794   0.987   2.528   1.141  0.1481 -0.7234 -0.5544
  122DG     C12 2795   0.672   2.774   0.937  0.1580  0.3630  0.3460
  122DG     H13 2796   0.984   2.419   1.137  1.8890 -0.7782 -1.0610
  122DG     H14 2797   1.093   2.550   1.131  0.5513 -2.5533 -0.7338
  122DG     H15 2798   0.744   2.825   0.873 -1.3273  1.8962 -0.1746
  122DG     H16 2799   0.572   2.799   0.902  0.0550  0.3920  0.6520
  122DG     C17 2800   0.904   2.575   1.026 -0.8066 -0.4340 -0.6440
  122DG     C18 2801   0.689   2.620   0.936 -0.2689  0.3888  0.3213
  122DG     O19 2802   0.766   2.566   1.044  0.2712 -0.5541  0.1971
  122DG     H20 2803   0.935   2.523   0.935 -0.6090  0.5274 -1.1408
  122DG     H21 2804   0.928   2.681   1.021 -3.4350  0.4446  2.6062
  122DG     H22 2805   0.588   2.580   0.931 -1.1356  2.3373  1.2114
  122DG     H23 2806   0.726   2.588   0.839 -0.2296  0.8651  0.1769
  123DG      C1 2807   3.470   5.422   4.734 -0.0030 -0.7275  0.0538
  123DG      C2 2808   2.890   5.656   4.569 -0.0367 -0.2481 -0.2754
  123DG      H3 2809   3.466   5.323   4.690  3.2644 -0.7421 -0.4970
  123DG      H4 2810   3.552   5.430   4.805  0.4510 -2.0666 -0.2959
  123DG      H5 2811   3.482   5.494   4.652 -0.8530  0.2498  0.7553
  123DG      H6 2812   2.875   5.574   4.499 -0.3364  0.9935 -1.7070
  123DG      H7 2813   2.795   5.702   4.599  0.7710  0.0989  1.9991
  123DG      H8 2814   2.957   5.725   4.518  0.1872  0.3317  0.7657
  123DG      O9 2815   3.346   5.458   4.800  0.1251 -0.4102  0.3590
  123DG     O10 2816   2.961   5.611   4.692 -0.0437 -0.7876  0.5915
  123DG     C11 2817   3.298   5.361   4.890 -0.2171  0.0751  0.3640
  123DG     C12 2818   2.870   5.553   4.789 -0.1378 -0.2926 -0.3582
  123DG     H13 2819   3.369   5.322   4.963  0.3588 -0.0287 -0.2291
  123DG     H14 2820   3.278   5.276   4.825 -0.7965  0.9104 -0.5759
  123DG     H15 2821   2.818   5.461   4.760  0.6423 -0.5005 -1.1224
  123DG     H16 2822   2.804   5.634   4.821  0.5887 -0.3008  1.2613
  123DG     C17 2823   3.172   5.415   4.959 -0.0673 -0.1922 -0.3905
  123DG     C18 2824   2.965   5.515   4.908 -0.0944  0.2172 -0.1998
  123DG     O19 2825   3.089   5.466   4.858  0.1166 -0.0424 -0.5447
  123DG     H20 2826   3.195   5.499   5.024 -0.5069  0.9390 -1.6540
  123DG     H21 2827   3.128   5.336   5.021 -0.8375  0.0557 -0.6038
  123DG     H22 2828   2.990   5.600   4.971  1.3774 -0.4802  0.2128
  123DG     H23 2829   2.915   5.436   4.964 -0.7412  1.6540  1.3354
  124DG      C1 2830   2.679   2.680   2.531 -0.5768 -0.4001 -0.6616
  124DG      C2 2831   2.652   2.588   1.869  0.6677  0.2417  0.9292
  124DG      H3 2832   2.677   2.767   2.596 -2.4545 -1.3472  0.6123
  124DG      H4 2833   2.782   2.662   2.500  0.4461  2.2920  0.8230
  124DG      H5 2834   2.644   2.593   2.587 -1.8024 -0.3485 -1.3051
  124DG      H6 2835   2.740   2.530   1.899  0.9340 -0.8654 -1.7742
  124DG      H7 2836   2.565   2.526   1.851 -0.5000  2.0792 -0.0776
  124DG      H8 2837   2.668   2.636   1.773 -1.5936 -0.3088  0.2182
  124DG      O9 2838   2.593   2.700   2.419 -0.0082  0.4502 -0.5587
  124DG     O10 2839   2.628   2.678   1.973 -0.0821 -0.1983  0.0804
  124DG     C11 2840   2.452   2.698   2.443  0.4455 -0.4550  0.2390
  124DG     C12 2841   2.513   2.759   1.959  0.2035  0.4870 -0.0055
  124DG     H13 2842   2.411   2.783   2.497  2.5268 -0.7367  2.4395
  124DG     H14 2843   2.420   2.616   2.508 -0.3304  0.2866  0.8144
  124DG     H15 2844   2.465   2.750   1.862  0.3917 -0.8832  0.0101
  124DG     H16 2845   2.548   2.863   1.963  1.4541  0.1125 -0.7123
  124DG     C17 2846   2.384   2.695   2.302 -0.4767  0.3210 -0.1658
  124DG     C18 2847   2.403   2.743   2.071  0.3238 -0.3601  0.5070
  124DG     O19 2848   2.457   2.768   2.200  0.3708  0.3636 -0.2255
  124DG     H20 2849   2.277   2.713   2.315 -0.0398  1.8656  1.8089
  124DG     H21 2850   2.392   2.587   2.287 -0.3321 -0.1335  2.6914
  124DG     H22 2851   2.329   2.821   2.051 -0.3223 -0.5203  2.1981
  124DG     H23 2852   2.360   2.645   2.051  2.8095 -1.3818 -0.1985
  125DG      C1 2853   1.923   3.796   1.887  0.0926 -0.1401 -0.5824
  125DG      C2 2854   1.834   4.349   2.406 -0.3419 -0.3047 -0.2633
  125DG      H3 2855   2.028   3.765   1.881  1.0920  3.2150 -3.4412
  125DG      H4 2856   1.923   3.887   1.828 -0.5920  0.3735  0.1954
  125DG      H5 2857   1.862   3.715   1.846 -0.9274  0.4321 -0.2162
  125DG      H6 2858   1.933   4.391   2.392 -0.7684  1.0894  0.6950
  125DG      H7 2859   1.773   4.414   2.343 -0.3878 -0.3491 -0.2651
  125DG      H8 2860   1.792   4.367   2.505  1.0230  1.0218  0.0988
  125DG      O9 2861   1.896   3.817   2.022  0.2723  0.2837 -0.1274
  125DG     O10 2862   1.806   4.226   2.348 -0.0586  0.0238  0.2212
  125DG     C11 2863   1.763   3.841   2.042 -0.6670 -0.4835 -0.2315
  125DG     C12 2864   1.889   4.124   2.402 -0.6216 -0.5128 -0.5599
  125DG     H13 2865   1.695   3.762   2.010 -1.1308  0.4826 -1.7024
  125DG     H14 2866   1.730   3.932   1.992  1.3593  1.8949  2.4659
  125DG     H15 2867   1.873   4.118   2.510 -0.1758  0.0133 -0.4540
  125DG     H16 2868   1.997   4.128   2.383  0.0227 -3.2799  1.7676
  125DG     C17 2869   1.742   3.870   2.189 -0.3689  0.4690  0.1141
  125DG     C18 2870   1.830   3.991   2.368 -0.2862 -0.6809  0.6665
  125DG     O19 2871   1.825   3.976   2.226  0.6815  0.7808  0.3437
  125DG     H20 2872   1.773   3.773   2.229 -0.4053  0.9242  1.2939
  125DG     H21 2873   1.635   3.877   2.212 -1.1505 -4.1382 -0.9935
  125DG     H22 2874   1.888   3.914   2.418 -0.4354 -0.3951  1.2912
  125DG     H23 2875   1.736   3.981   2.422 -1.2671 -0.8987 -1.0229
  126DG      C1 2876   4.524   1.392   0.477 -1.0692  0.1608  0.4488
  126DG      C2 2877   5.175   1.571   0.501 -0.7553 -0.2814 -0.4009
  126DG      H3 2878   4.475   1.487   0.499  0.2607  1.0880 -0.4252
  126DG      H4 2879   4.453   1.310   0.472  0.1873 -0.9039 -3.7053
  126DG      H5 2880   4.556   1.415   0.376 -1.6945 -0.6265  0.0613
  126DG      H6 2881   5.279   1.572   0.535 -0.5891 -1.9384 -0.7877
  126DG      H7 2882   5.185   1.566   0.393 -0.0716  0.9390 -0.4191
  126DG      H8 2883   5.134   1.669   0.527  0.4780 -0.4378  2.5253
  126DG      O9 2884   4.648   1.370   0.551  0.5875  0.6637 -0.3170
  126DG     O10 2885   5.091   1.479   0.561  0.1142 -0.0939  0.0917
  126DG     C11 2886   4.623   1.368   0.693 -0.1532 -0.4039 -0.2315
  126DG     C12 2887   5.085   1.490   0.700  0.1478 -0.5616  0.1136
  126DG     H13 2888   4.547   1.300   0.731 -0.4534 -0.9429 -1.7385
  126DG     H14 2889   4.594   1.469   0.724  0.5341  0.3268 -1.8498
  126DG     H15 2890   5.065   1.592   0.730  0.9239 -0.1588 -0.6883
  126DG     H16 2891   5.181   1.461   0.744  0.4146 -0.4261 -0.3724
  126DG     C17 2892   4.748   1.340   0.774  0.1366  0.1539 -0.2298
  126DG     C18 2893   4.980   1.398   0.769 -0.7238 -0.1624  0.1423
  126DG     O19 2894   4.847   1.423   0.715 -0.2084  0.4098  0.1098
  126DG     H20 2895   4.773   1.234   0.767  0.9774  0.1075  2.2816
  126DG     H21 2896   4.737   1.344   0.883 -0.3092 -0.6349 -0.2324
  126DG     H22 2897   5.008   1.293   0.761  0.4033  0.0580  0.9436
  126DG     H23 2898   4.974   1.416   0.876  4.6385  0.5148  0.5993
  127DG      C1 2899   2.781   5.003   3.080  0.6171 -0.1191  0.1425
  127DG      C2 2900   3.386   5.201   2.752 -0.3690  1.1497  0.7840
  127DG      H3 2901   2.687   4.979   3.031  0.9358  1.1803 -1.1692
  127DG      H4 2902   2.828   5.082   3.021 -0.1646  1.6587  1.8172
  127DG      H5 2903   2.762   5.051   3.176 -0.0888  1.0852 -0.5909
  127DG      H6 2904   3.473   5.165   2.697  0.1795  2.1376  0.9839
  127DG      H7 2905   3.345   5.293   2.711  0.6922  1.4329  0.3146
  127DG      H8 2906   3.420   5.236   2.850  0.4539  2.8187 -0.0585
  127DG      O9 2907   2.860   4.893   3.110  0.5895  0.0080  0.5447
  127DG     O10 2908   3.293   5.098   2.772  0.2195  0.2372 -0.1110
  127DG     C11 2909   2.927   4.842   2.995 -0.0621 -0.2179  0.4762
  127DG     C12 2910   3.157   5.129   2.750  0.0203  0.2669 -0.4146
  127DG     H13 2911   2.875   4.864   2.901  1.7735 -1.5429 -0.9297
  127DG     H14 2912   2.928   4.735   3.013 -0.6786  0.0153  2.0094
  127DG     H15 2913   3.146   5.155   2.645 -2.2133 -0.6004 -0.4387
  127DG     H16 2914   3.129   5.217   2.808 -0.3655 -0.0455 -0.1214
  127DG     C17 2915   3.070   4.884   2.987 -0.8691 -0.3645  0.4906
  127DG     C18 2916   3.073   5.009   2.792  0.4784  0.2132  0.6736
  127DG     O19 2917   3.089   5.014   2.931  0.6581  0.5572  0.6984
  127DG     H20 2918   3.138   4.819   2.933 -0.8831  0.7688 -0.9585
  127DG     H21 2919   3.115   4.875   3.085 -0.7585 -0.2035  0.4556
  127DG     H22 2920   2.968   5.030   2.769  0.6509  0.9461  0.5330
  127DG     H23 2921   3.105   4.917   2.743  0.2912  1.1233 -1.2439
  128DG      C1 2922   5.299   0.120   0.510  0.0811 -0.1248 -0.2562
  128DG      C2 2923   5.169   0.536   1.139 -0.8064  0.0838  0.1157
  128DG      H3 2924   5.304   0.217   0.460 -0.0369  0.6309  1.1386
  128DG      H4 2925   5.199   0.081   0.492  0.5332 -2.1689  1.2873
  128DG      H5 2926   5.371   0.052   0.464  0.2132 -0.1919  0.0460
  128DG      H6 2927   5.062   0.539   1.159 -0.9202  0.4157 -0.5062
  128DG      H7 2928   5.235   0.513   1.223 -1.7638 -2.7696  0.2162
  128DG      H8 2929   5.210   0.631   1.106  1.4056 -0.3053  1.5317
  128DG      O9 2930   5.326   0.132   0.649  0.5596 -0.0569 -0.4368
  128DG     O10 2931   5.204   0.426   1.055  0.5689 -0.4022 -0.7818
  128DG     C11 2932   5.263   0.028   0.726  0.7201  0.0977  0.0712
  128DG     C12 2933   5.164   0.303   1.111 -0.4482  0.7892  0.3078
  128DG     H13 2934   5.289  -0.074   0.698 -2.1692 -0.1061 -2.3891
  128DG     H14 2935   5.154   0.033   0.724  0.7785  1.9163 -1.4968
  128DG     H15 2936   5.055   0.293   1.102 -0.7141  3.0094  0.6059
  128DG     H16 2937   5.194   0.300   1.216  0.1545 -0.0023  0.1207
  128DG     C17 2938   5.300   0.056   0.874  0.2002 -0.2116 -0.1105
  128DG     C18 2939   5.242   0.185   1.060  0.1363 -0.4137  0.2068
  128DG     O19 2940   5.254   0.183   0.916 -0.1598 -0.6611  0.4619
  128DG     H20 2941   5.409   0.060   0.884  0.3672 -4.7381  3.1553
  128DG     H21 2942   5.252  -0.017   0.940  1.4206 -0.7855  0.1663
  128DG     H22 2943   5.320   0.164   1.133 -0.5351 -0.4789  0.9237
  128DG     H23 2944   5.172   0.104   1.081 -0.7982 -0.0075 -1.1989
  129DG      C1 2945   1.002   0.420   0.199  0.0323  0.1074 -0.0842
  129DG      C2 2946   1.382  -0.069  -0.117  0.0934  0.4542 -0.2123
  129DG      H3 2947   0.964   0.460   0.293  1.7764  0.5809  0.4543
  129DG      H4 2948   0.931   0.361   0.143  1.1194  1.4971 -3.1683
  129DG      H5 2949   1.019   0.513   0.144  1.9313 -0.2987 -0.2664
  129DG      H6 2950   1.451  -0.153  -0.115 -0.7665 -0.3142 -1.4055
  129DG      H7 2951   1.288  -0.103  -0.160  0.4933  0.7373 -1.3460
  129DG      H8 2952   1.426   0.007  -0.181 -1.6934  0.1255 -1.9168
  129DG      O9 2953   1.125   0.361   0.246 -0.2203 -0.5430  0.6022
  129DG     O10 2954   1.348  -0.027   0.017 -0.1606  0.2568 -0.4212
  129DG     C11 2955   1.104   0.237   0.312  0.2789 -0.3806 -0.4757
  129DG     C12 2956   1.457  -0.003   0.104  0.1135 -0.9266  0.0584
  129DG     H13 2957   1.030   0.171   0.268 -2.4624  1.5162  0.9497
  129DG     H14 2958   1.063   0.254   0.412 -1.4616  0.8559 -1.3371
  129DG     H15 2959   1.533   0.067   0.068  1.4787 -2.1579  0.4563
  129DG     H16 2960   1.522  -0.090   0.112  1.5769 -0.1325 -2.2462
  129DG     C17 2961   1.232   0.166   0.344 -0.0998 -0.3388 -0.0724
  129DG     C18 2962   1.411   0.055   0.234  0.3586 -0.6911 -0.2213
  129DG     O19 2963   1.297   0.144   0.221 -0.1804  0.3325  0.4251
  129DG     H20 2964   1.210   0.069   0.390 -0.6013 -0.7975 -1.2454
  129DG     H21 2965   1.288   0.223   0.418 -1.5489 -0.7381  1.4188
  129DG     H22 2966   1.386  -0.022   0.306 -1.0765 -0.1466 -0.0959
  129DG     H23 2967   1.494   0.107   0.282 -0.0148  0.4767 -0.8061
  130DG      C1 2968   5.135   3.292   1.831  0.3397  0.7714 -0.3442
  130DG      C2 2969   5.540   3.650   2.402  0.8809 -0.1767 -0.3437
  130DG      H3 2970   5.193   3.223   1.769 -1.8618  0.3906 -2.0783
  130DG      H4 2971   5.066   3.332   1.757  0.5160 -2.7108 -2.6012
  130DG      H5 2972   5.073   3.239   1.903  0.2985 -0.0460 -0.9636
  130DG      H6 2973   5.599   3.731   2.360  0.9485 -0.4942 -0.8715
  130DG      H7 2974   5.495   3.703   2.486  0.7923  0.9823 -1.1080
  130DG      H8 2975   5.589   3.558   2.433  0.2152 -0.0671  1.1054
  130DG      O9 2976   5.210   3.393   1.892  0.7002 -0.8217 -0.1461
  130DG     O10 2977   5.440   3.633   2.304 -0.4236 -0.3659  0.3390
  130DG     C11 2978   5.141   3.507   1.935  0.1544 -0.6133 -0.0485
  130DG     C12 2979   5.488   3.532   2.209 -0.2665  0.5329  0.2148
  130DG     H13 2980   5.075   3.493   2.021 -0.5792  1.5456 -0.1882
  130DG     H14 2981   5.075   3.545   1.856  0.1317 -1.4235 -0.4247
  130DG     H15 2982   5.518   3.438   2.255 -1.0267 -0.0166 -0.3996
  130DG     H16 2983   5.571   3.572   2.150 -0.5492 -0.0947 -0.6241
  130DG     C17 2984   5.234   3.620   1.959 -0.3755  0.2072  0.1742
  130DG     C18 2985   5.369   3.494   2.122 -0.1983 -0.0073 -0.3157
  130DG     O19 2986   5.302   3.619   2.080  0.2175  0.1299 -0.2195
  130DG     H20 2987   5.171   3.709   1.963  0.5015  0.9101 -0.8532
  130DG     H21 2988   5.305   3.638   1.878  0.6196  0.3542  1.0527
  130DG     H22 2989   5.402   3.454   2.026 -1.2832  1.6273 -1.4141
  130DG     H23 2990   5.294   3.427   2.165 -0.6451  0.7292  0.0862
  131DG      C1 2991   3.179   1.922   2.881 -0.2918 -0.1210  0.3599
  131DG      C2 2992   3.344   1.667   2.282 -0.4439 -0.4260  0.0692
  131DG      H3 2993   3.115   1.976   2.950  1.1140  3.0030 -0.6118
  131DG      H4 2994   3.203   1.998   2.807 -3.8071 -1.8291 -2.8512
  131DG      H5 2995   3.274   1.896   2.927  0.5792  1.6594 -0.3368
  131DG      H6 2996   3.440   1.708   2.314 -0.7144  0.9196 -0.7906
  131DG      H7 2997   3.360   1.573   2.229  0.2446  0.5463 -1.5148
  131DG      H8 2998   3.300   1.747   2.222 -2.7172  0.2549  2.4912
  131DG      O9 2999   3.116   1.808   2.829 -0.0931  0.0835 -0.2891
  131DG     O10 3000   3.265   1.650   2.400 -0.1437 -0.6532 -0.2096
  131DG     C11 3001   2.992   1.837   2.764  0.2301  0.3576  0.2414
  131DG     C12 3002   3.128   1.615   2.370 -0.3001 -0.1627  0.4911
  131DG     H13 3003   2.993   1.922   2.696  0.0720  0.3030  0.1716
  131DG     H14 3004   2.924   1.878   2.838  0.4882  1.1099  0.0696
  131DG     H15 3005   3.131   1.516   2.326 -0.5389  0.7291 -1.6703
  131DG     H16 3006   3.076   1.683   2.302 -0.4442 -0.0115  0.7526
  131DG     C17 3007   2.956   1.709   2.688  0.7344 -0.1505  0.6038
  131DG     C18 3008   3.038   1.601   2.495 -0.1271  0.2914 -0.0872
  131DG     O19 3009   3.056   1.702   2.588  0.2345 -0.1506 -0.1801
  131DG     H20 3010   2.860   1.725   2.639  2.4454 -0.6477 -3.2221
  131DG     H21 3011   2.959   1.624   2.757  0.3840  1.3730  2.6214
  131DG     H22 3012   2.932   1.599   2.466  0.0422 -1.7167 -0.7201
  131DG     H23 3013   3.059   1.507   2.546 -0.0912 -0.0759 -0.7687
  132DG      C1 3014   0.930   0.288   4.142 -0.8623  0.7929  0.0477
  132DG      C2 3015   0.487  -0.151   4.420 -0.1374  0.8785 -0.2519
  132DG      H3 3016   0.953   0.277   4.036  3.3611 -1.7148  1.0040
  132DG      H4 3017   1.017   0.317   4.201 -0.3180 -3.0430  1.3857
  132DG      H5 3018   0.856   0.368   4.148 -1.4362  0.2137  0.8715
  132DG      H6 3019   0.431  -0.057   4.426  0.7164  1.5730 -2.2097
  132DG      H7 3020   0.426  -0.233   4.458 -0.3741  0.8846 -0.6139
  132DG      H8 3021   0.576  -0.143   4.482  1.2033 -0.7134 -1.8616
  132DG      O9 3022   0.872   0.166   4.185  0.7013 -0.2553  0.3643
  132DG     O10 3023   0.536  -0.168   4.287 -0.1256 -0.4387 -0.3408
  132DG     C11 3024   0.958   0.059   4.169  0.2169 -0.2077 -0.5061
  132DG     C12 3025   0.620  -0.279   4.286 -0.1707 -0.1885 -0.7883
  132DG     H13 3026   1.059   0.092   4.196 -0.6229  3.5060 -1.2933
  132DG     H14 3027   0.968   0.038   4.063  0.5962 -1.0938 -0.3042
  132DG     H15 3028   0.630  -0.324   4.187  2.6947 -0.1287 -0.6217
  132DG     H16 3029   0.581  -0.365   4.341 -0.6988 -0.4715 -1.5855
  132DG     C17 3030   0.924  -0.075   4.251 -0.0012 -0.5232 -0.2825
  132DG     C18 3031   0.769  -0.240   4.308 -0.3739  0.4810  0.4066
  132DG     O19 3032   0.801  -0.130   4.223  0.0905 -0.0752 -0.1000
  132DG     H20 3033   0.934  -0.049   4.357  1.2143  1.0724 -0.7516
  132DG     H21 3034   0.995  -0.154   4.228  0.2901  0.0156 -1.2846
  132DG     H22 3035   0.800  -0.239   4.412 -0.7479 -1.5796  0.5674
  132DG     H23 3036   0.830  -0.315   4.258 -0.6918 -0.0002  0.7361
  133DG      C1 3037   1.850   5.261   2.249 -0.0524 -0.3046 -0.1318
  133DG      C2 3038   1.980   4.872   2.791  0.2271 -0.5201  0.4514
  133DG      H3 3039   1.958   5.278   2.240 -0.1178 -0.2408 -0.8908
  133DG      H4 3040   1.796   5.324   2.320 -0.2388  1.8832 -2.0839
  133DG      H5 3041   1.803   5.278   2.152 -0.1903  0.9224  0.1260
  133DG      H6 3042   1.907   4.921   2.856  1.8881  2.7200  0.0770
  133DG      H7 3043   2.017   4.776   2.827  3.9948  1.3232  2.0831
  133DG      H8 3044   2.066   4.937   2.802 -0.0304 -0.2392  0.7943
  133DG      O9 3045   1.835   5.126   2.291  0.0796 -0.4166 -0.0035
  133DG     O10 3046   1.941   4.885   2.657 -0.3152 -0.1986  0.1702
  133DG     C11 3047   1.919   5.033   2.219  0.6878  0.3132 -0.4898
  133DG     C12 3048   1.821   4.806   2.623 -0.3779 -0.0574 -0.4140
  133DG     H13 3049   2.020   5.067   2.242 -0.4077  2.1734  2.0880
  133DG     H14 3050   1.919   5.044   2.111 -0.6891  0.7638 -0.4612
  133DG     H15 3051   1.732   4.860   2.654  1.1984  2.6051 -0.1703
  133DG     H16 3052   1.824   4.710   2.674  3.4807  0.9930  1.8097
  133DG     C17 3053   1.879   4.885   2.260  0.0063  0.0354  0.3174
  133DG     C18 3054   1.828   4.779   2.470 -0.2295  0.1163  0.5506
  133DG     O19 3055   1.897   4.884   2.405 -0.8691  0.6135 -0.3627
  133DG     H20 3056   1.947   4.812   2.216  0.2554 -0.3749  1.3544
  133DG     H21 3057   1.776   4.865   2.231  0.7380 -2.7237 -0.6889
  133DG     H22 3058   1.874   4.684   2.442 -0.7839  0.6133 -2.3464
  133DG     H23 3059   1.725   4.770   2.437 -0.6173  0.0635  1.7157
  134DG      C1 3060   3.466   2.399   1.000  0.3882 -1.1018  0.1151
  134DG      C2 3061   3.500   2.621   1.634 -0.8897 -0.3177  0.4781
  134DG      H3 3062   3.403   2.369   0.916  0.1332  0.0109 -0.1110
  134DG      H4 3063   3.571   2.400   0.969 -0.6600  0.6407 -4.1776
  134DG      H5 3064   3.444   2.503   1.027 -0.9839 -0.9664 -1.3443
  134DG      H6 3065   3.458   2.713   1.594 -0.7031 -1.0138 -1.4295
  134DG      H7 3066   3.474   2.602   1.738 -2.5097  1.8091  0.5322
  134DG      H8 3067   3.606   2.645   1.628 -1.1052  0.9258  1.3209
  134DG      O9 3068   3.447   2.316   1.115 -0.1077  0.3485  0.4948
  134DG     O10 3069   3.461   2.517   1.541  0.4328 -0.3159  0.1847
  134DG     C11 3070   3.309   2.311   1.146  0.5140 -0.0338  0.0975
  134DG     C12 3071   3.328   2.477   1.556  0.4364 -0.2605 -0.6627
  134DG     H13 3072   3.262   2.255   1.065 -1.0779 -0.9880  1.6150
  134DG     H14 3073   3.261   2.408   1.160 -0.6078 -0.6344  0.6430
  134DG     H15 3074   3.264   2.562   1.577  0.7537  0.6082 -2.8670
  134DG     H16 3075   3.311   2.411   1.641 -0.7635 -1.2017 -1.6021
  134DG     C17 3076   3.285   2.236   1.278  0.0846  0.1194  0.5521
  134DG     C18 3077   3.279   2.419   1.429  0.0424 -0.5150 -0.3503
  134DG     O19 3078   3.350   2.299   1.388  0.0547 -0.1992 -0.2968
  134DG     H20 3079   3.326   2.136   1.265 -1.1337 -0.3545  0.1766
  134DG     H21 3080   3.178   2.216   1.286 -0.3904  0.8230 -2.6461
  134DG     H22 3081   3.174   2.391   1.439 -0.1539 -0.0626 -1.1034
  134DG     H23 3082   3.291   2.504   1.362  0.1886  1.0184  1.5341
  135DG      C1 3083   1.767   4.955   5.475 -0.3707 -0.0444 -0.2047
  135DG      C2 3084   2.025   4.508   5.957 -0.2718 -0.1163 -0.0395
  135DG      H3 3085   1.787   5.017   5.563  2.7640 -1.0673 -0.0739
  135DG      H4 3086   1.662   4.933   5.455 -0.0391 -1.0510 -0.8898
  135DG      H5 3087   1.814   5.005   5.390 -2.0989  0.3794 -0.9536
  135DG      H6 3088   2.131   4.503   5.986 -0.2617  0.0176 -0.0546
  135DG      H7 3089   1.975   4.586   6.015  1.7506  0.1981  1.3979
  135DG      H8 3090   1.975   4.411   5.964  1.1346 -0.9547 -1.0696
  135DG      O9 3091   1.835   4.838   5.509  0.5984  0.7366  0.1062
  135DG     O10 3092   2.015   4.547   5.821  0.2855 -0.5731  0.6431
  135DG     C11 3093   1.842   4.752   5.399  0.1844  0.2641 -1.0212
  135DG     C12 3094   2.037   4.447   5.726  0.0057  0.2358  0.3576
  135DG     H13 3095   1.853   4.792   5.299  0.0597  2.5161 -0.1925
  135DG     H14 3096   1.761   4.679   5.404  1.0145 -0.7062  4.1606
  135DG     H15 3097   1.951   4.380   5.726  0.0596  0.1665  0.5486
  135DG     H16 3098   2.127   4.389   5.743 -0.3371 -0.3166  0.2975
  135DG     C17 3099   1.962   4.654   5.421 -0.0571 -0.3624 -0.1373
  135DG     C18 3100   2.054   4.498   5.583 -0.0904  0.0737 -0.1867
  135DG     O19 3101   1.960   4.598   5.553  0.2353 -0.0026  0.0144
  135DG     H20 3102   2.041   4.726   5.404 -2.4791  2.4361 -0.3830
  135DG     H21 3103   1.961   4.584   5.338  1.8306  0.5439 -0.9707
  135DG     H22 3104   2.150   4.548   5.578  0.0258  0.3200  2.9208
  135DG     H23 3105   2.038   4.419   5.509 -0.9793  0.9610 -0.9779
  136DG      C1 3106   4.813   3.370   1.273 -0.8382 -0.3850  0.6156
  136DG      C2 3107   4.360   3.564   0.715  0.5710  0.3181  0.3689
  136DG      H3 3108   4.760   3.284   1.314 -2.2721  1.6610  3.4462
  136DG      H4 3109   4.883   3.415   1.343 -0.8717 -1.4746  1.3865
  136DG      H5 3110   4.872   3.333   1.189 -4.1279 -0.1126 -2.0102
  136DG      H6 3111   4.356   3.456   0.707  0.3392  0.2242  1.5973
  136DG      H7 3112   4.260   3.607   0.707  0.4573 -0.1857 -1.1459
  136DG      H8 3113   4.415   3.599   0.628 -0.5608 -0.1977 -0.5706
  136DG      O9 3114   4.719   3.465   1.222  0.0442  0.0078  0.2599
  136DG     O10 3115   4.419   3.596   0.837  0.7006  0.4137  0.0972
  136DG     C11 3116   4.783   3.585   1.163  0.1735  1.2090 -0.2197
  136DG     C12 3117   4.445   3.739   0.839 -0.2299  0.4060 -0.2660
  136DG     H13 3118   4.831   3.553   1.070  0.1259 -0.5794  0.3217
  136DG     H14 3119   4.868   3.617   1.223  2.2643 -1.6168 -1.4260
  136DG     H15 3120   4.353   3.796   0.825  0.1642  1.3187  0.7384
  136DG     H16 3121   4.515   3.770   0.761  1.1915 -0.5059  0.6019
  136DG     C17 3122   4.694   3.702   1.126  0.0843  0.0596 -0.2888
  136DG     C18 3123   4.524   3.769   0.969  0.1387  0.4373 -0.2475
  136DG     O19 3124   4.621   3.669   1.008  0.6076  0.0118 -0.9110
  136DG     H20 3125   4.754   3.791   1.106  0.7457 -0.8083 -2.5832
  136DG     H21 3126   4.638   3.733   1.214 -0.7554 -1.6301 -0.1840
  136DG     H22 3127   4.567   3.868   0.953 -0.8429  0.8068 -0.6772
  136DG     H23 3128   4.450   3.779   1.048 -0.4998  1.2474 -0.9293
  137DG      C1 3129   1.530   2.298   2.276 -0.2144  0.4498  0.6074
  137DG      C2 3130   1.373   2.804   1.906  0.2810  0.2589  0.9425
  137DG      H3 3131   1.623   2.259   2.235 -0.1689 -0.2182  1.2986
  137DG      H4 3132   1.445   2.257   2.221  1.2356 -1.6151 -0.2117
  137DG      H5 3133   1.526   2.270   2.382  0.2572 -0.1782  0.4663
  137DG      H6 3134   1.317   2.897   1.898 -4.1468 -2.1508  0.9753
  137DG      H7 3135   1.459   2.822   1.842  0.4895  0.7648  1.3649
  137DG      H8 3136   1.306   2.732   1.858  1.5695  0.3898 -1.2288
  137DG      O9 3137   1.529   2.441   2.277 -0.5142 -0.4236  0.4197
  137DG     O10 3138   1.411   2.764   2.036  0.3347  0.4597  0.5322
  137DG     C11 3139   1.655   2.500   2.304  0.2494  0.5689 -0.0089
  137DG     C12 3140   1.458   2.872   2.112  0.5169 -0.0260 -0.7239
  137DG     H13 3141   1.729   2.469   2.231 -0.4693 -0.3961 -0.3348
  137DG     H14 3142   1.680   2.440   2.392 -0.7872 -0.1044 -0.1559
  137DG     H15 3143   1.380   2.944   2.137 -2.0689 -2.3123 -1.7377
  137DG     H16 3144   1.542   2.925   2.067 -0.1237  1.0911 -0.6550
  137DG     C17 3145   1.648   2.655   2.329 -0.7977  0.0690 -0.6252
  137DG     C18 3146   1.498   2.820   2.249  0.5400  0.1994 -0.0734
  137DG     O19 3147   1.580   2.711   2.219  0.0462 -0.1693  0.4950
  137DG     H20 3148   1.749   2.694   2.328 -0.9277  0.4523  0.1502
  137DG     H21 3149   1.599   2.670   2.426  0.7319 -0.0717  0.1951
  137DG     H22 3150   1.551   2.904   2.294  1.0906  0.5357 -1.2837
  137DG     H23 3151   1.413   2.793   2.311  1.9696  1.2862  2.5150
  138DG      C1 3152   1.223   5.006   4.784  0.4540 -0.1747  0.2926
  138DG      C2 3153   0.648   5.209   4.997 -0.7756 -0.6966  0.2672
  138DG      H3 3154   1.305   4.975   4.719  1.3054  3.5113 -0.6329
  138DG      H4 3155   1.215   4.924   4.855 -2.4101  0.6943  1.0817
  138DG      H5 3156   1.256   5.095   4.839  1.8897 -1.1562  1.0933
  138DG      H6 3157   0.733   5.256   5.046 -1.6416 -2.0462  3.2522
  138DG      H7 3158   0.600   5.298   4.956 -2.2215 -1.7251 -0.3413
  138DG      H8 3159   0.596   5.165   5.082 -2.4478  1.4772  0.4522
  138DG      O9 3160   1.090   5.010   4.734 -0.3745  0.0387  0.5199
  138DG     O10 3161   0.704   5.125   4.893 -0.1135  0.2453 -0.2656
  138DG     C11 3162   1.041   4.883   4.676 -0.0206 -0.2998  0.7397
  138DG     C12 3163   0.615   5.052   4.821  0.1061  0.1142  0.0762
  138DG     H13 3164   1.055   4.805   4.751 -0.3495 -1.0807  0.0080
  138DG     H14 3165   1.109   4.848   4.598 -1.3607 -2.8265  0.5771
  138DG     H15 3166   0.539   5.120   4.784  0.7664  0.8703  0.0937
  138DG     H16 3167   0.558   4.992   4.891 -2.3192  2.4315  0.2285
  138DG     C17 3168   0.900   4.897   4.627  0.3635  0.2390  0.0856
  138DG     C18 3169   0.685   4.972   4.711  0.5908 -0.0970  0.0226
  138DG     O19 3170   0.825   4.956   4.734 -0.1970 -0.3411 -0.4848
  138DG     H20 3171   0.851   4.806   4.593 -1.2115  1.2453 -0.4391
  138DG     H21 3172   0.895   4.969   4.545  1.2353  1.3598  0.9767
  138DG     H22 3173   0.660   4.866   4.702 -0.6225  0.2578 -1.1301
  138DG     H23 3174   0.660   5.016   4.614  0.0610 -1.4237 -0.4681
  139DG      C1 3175   1.931   1.909   0.979  0.1938 -0.3326  0.1541
  139DG      C2 3176   2.432   1.917   0.550  0.3886 -0.0331 -0.4816
  139DG      H3 3177   1.875   1.948   1.064 -0.4763 -2.1418  0.5847
  139DG      H4 3178   2.002   1.836   1.018  0.1422  0.3801  1.6588
  139DG      H5 3179   1.867   1.848   0.917 -1.4984 -1.7828  3.1060
  139DG      H6 3180   2.499   1.955   0.472  0.1202 -2.2518 -1.8726
  139DG      H7 3181   2.488   1.913   0.644  0.4389  2.5863 -0.3445
  139DG      H8 3182   2.417   1.814   0.517 -2.2820  0.0399  0.2989
  139DG      O9 3183   2.013   2.010   0.918  0.0249  0.5986  0.0335
  139DG     O10 3184   2.307   1.984   0.570  0.4856 -0.3189  0.1742
  139DG     C11 3185   1.937   2.109   0.859 -0.8811 -0.0300 -0.0011
  139DG     C12 3186   2.315   2.129   0.558  0.3170  1.2268 -0.0114
  139DG     H13 3187   1.884   2.165   0.937 -0.0581  0.1705  0.4199
  139DG     H14 3188   1.861   2.057   0.800 -0.6862 -0.5257  0.1756
  139DG     H15 3189   2.353   2.174   0.466  0.0613  0.3525 -0.5583
  139DG     H16 3190   2.386   2.165   0.632 -0.1306 -2.2225  2.3551
  139DG     C17 3191   2.030   2.196   0.779 -0.6436  0.0263  0.4952
  139DG     C18 3192   2.179   2.183   0.592 -0.1349 -0.1540 -0.2019
  139DG     O19 3193   2.121   2.114   0.708  0.2493 -0.5077  0.2923
  139DG     H20 3194   2.095   2.252   0.846 -0.0338  1.2174 -1.0364
  139DG     H21 3195   1.989   2.280   0.723  0.0847 -0.7944 -1.3416
  139DG     H22 3196   2.192   2.291   0.601  1.1924 -0.2948 -0.1804
  139DG     H23 3197   2.108   2.175   0.509 -3.2321  1.1558  2.1336
  140DG      C1 3198   3.511   2.645   3.117  0.1674  0.1894 -0.2204
  140DG      C2 3199   2.771   2.087   3.195  0.9538  0.4124 -0.0187
  140DG      H3 3200   3.515   2.690   3.216 -0.0596 -1.9152  0.7875
  140DG      H4 3201   3.441   2.695   3.050  0.9902 -1.0580 -2.0911
  140DG      H5 3202   3.612   2.661   3.079  0.9648  0.6405  1.9586
  140DG      H6 3203   2.712   2.137   3.272  0.2567 -2.8450  1.7618
  140DG      H7 3204   2.753   2.145   3.104 -0.7135  1.0629  0.6789
  140DG      H8 3205   2.714   1.994   3.196 -0.7745  1.4247  0.9869
  140DG      O9 3206   3.479   2.507   3.132 -0.0764 -0.9693  0.0276
  140DG     O10 3207   2.907   2.072   3.227 -0.2726  0.4311  0.0492
  140DG     C11 3208   3.345   2.495   3.165 -0.3904 -0.2170 -0.0398
  140DG     C12 3209   2.977   2.201   3.216  0.1520  0.1709 -0.0433
  140DG     H13 3210   3.282   2.558   3.101 -0.1622  0.9766  0.8772
  140DG     H14 3211   3.334   2.534   3.266  0.9867 -0.5872  0.2725
  140DG     H15 3212   2.952   2.268   3.299  2.2548 -0.6839  1.3784
  140DG     H16 3213   2.952   2.247   3.121  2.2680  0.8610 -0.3136
  140DG     C17 3214   3.304   2.352   3.161 -0.0177 -0.0436  0.0916
  140DG     C18 3215   3.126   2.201   3.219  0.0211 -0.4321  0.4665
  140DG     O19 3216   3.162   2.340   3.195 -0.1366  0.8559  0.2376
  140DG     H20 3217   3.373   2.296   3.224  1.7866  2.0084  0.0504
  140DG     H21 3218   3.316   2.311   3.061 -0.8096 -0.2385  0.0689
  140DG     H22 3219   3.161   2.163   3.316  0.3602 -1.4348 -0.0415
  140DG     H23 3220   3.163   2.141   3.136  2.1298 -1.3805  1.9877
  141DG      C1 3221   2.233   1.356   5.003  0.3883 -0.2518  0.6149
  141DG      C2 3222   2.496   0.994   5.673  0.0143 -0.4865  0.1219
  141DG      H3 3223   2.126   1.365   5.020 -0.2062  1.0613 -3.0011
  141DG      H4 3224   2.232   1.252   4.970 -0.9306 -0.5979  1.6574
  141DG      H5 3225   2.261   1.412   4.913 -1.2696 -1.4203 -0.6876
  141DG      H6 3226   2.493   1.024   5.778 -2.0004 -0.5505  0.1123
  141DG      H7 3227   2.501   0.886   5.653 -1.0355 -0.0385 -3.0929
  141DG      H8 3228   2.593   1.028   5.636  0.8188 -0.4041  2.1318
  141DG      O9 3229   2.315   1.384   5.115 -0.1993 -0.4263  0.5677
  141DG     O10 3230   2.375   1.042   5.620  0.1108 -0.0798  0.1144
  141DG     C11 3231   2.444   1.340   5.092 -0.1271  0.2497 -0.3165
  141DG     C12 3232   2.375   1.046   5.481  0.4763 -0.0173  0.0413
  141DG     H13 3233   2.498   1.423   5.045 -0.2612 -0.5213 -1.8923
  141DG     H14 3234   2.451   1.256   5.023 -0.8364 -1.6221  1.8076
  141DG     H15 3235   2.271   1.053   5.449  0.4272  1.9606  0.5354
  141DG     H16 3236   2.411   0.952   5.439  1.4794  0.2659  0.2524
  141DG     C17 3237   2.490   1.294   5.227  0.4441  0.5257 -0.2096
  141DG     C18 3238   2.453   1.170   5.426  0.1120 -0.2997  0.1753
  141DG     O19 3239   2.417   1.191   5.288 -0.2851 -0.3699  0.2532
  141DG     H20 3240   2.483   1.381   5.292 -0.2157  0.2645  0.0793
  141DG     H21 3241   2.592   1.257   5.221  0.5569 -0.1847  3.5870
  141DG     H22 3242   2.419   1.260   5.477  0.8258  2.5202 -3.8107
  141DG     H23 3243   2.561   1.167   5.442  0.2908  1.8950 -0.3713
  142DG      C1 3244   0.529   2.964   1.391  0.3865 -0.2165 -0.0428
  142DG      C2 3245   0.656   2.279   1.239 -0.0519  0.2600  0.2116
  142DG      H3 3246   0.631   2.954   1.428 -0.2196 -1.3464  1.4249
  142DG      H4 3247   0.464   2.944   1.476  0.9447 -1.1929  0.1717
  142DG      H5 3248   0.497   3.062   1.356 -1.6817 -0.5111  0.8758
  142DG      H6 3249   0.644   2.237   1.339 -0.6295  0.6972  0.3355
  142DG      H7 3250   0.631   2.195   1.175  0.3951  0.0605  0.2945
  142DG      H8 3251   0.763   2.287   1.217 -0.4731  1.4448 -1.6906
  142DG      O9 3252   0.518   2.874   1.284  0.6167  0.1109 -0.2899
  142DG     O10 3253   0.585   2.404   1.214  0.7064  0.0308 -0.4538
  142DG     C11 3254   0.380   2.857   1.254 -0.0939  0.5766 -0.0915
  142DG     C12 3255   0.447   2.385   1.243 -0.4014 -0.1269  0.6972
  142DG     H13 3256   0.348   2.945   1.198  0.3114  0.0778 -1.1278
  142DG     H14 3257   0.324   2.837   1.345  2.8594  0.5980  1.8800
  142DG     H15 3258   0.429   2.393   1.351  0.2999 -1.6727  0.9589
  142DG     H16 3259   0.408   2.292   1.202 -1.6675  0.9163 -0.5704
  142DG     C17 3260   0.370   2.735   1.166  0.0109 -0.4307  0.3202
  142DG     C18 3261   0.380   2.497   1.169  0.5537 -0.3484  0.1836
  142DG     O19 3262   0.407   2.619   1.236 -0.1448  0.1576 -0.2926
  142DG     H20 3263   0.440   2.743   1.082  1.6222 -2.4242  1.3819
  142DG     H21 3264   0.268   2.728   1.131  0.7941 -0.2982 -2.1817
  142DG     H22 3265   0.422   2.500   1.069  0.0989  2.3073  0.0021
  142DG     H23 3266   0.273   2.481   1.169  0.2602  1.3220 -1.5748
  143DG      C1 3267   2.452   2.175   1.861 -0.0829  0.5112  0.6075
  143DG      C2 3268   2.428   1.703   1.372 -0.5107  0.7748  0.0859
  143DG      H3 3269   2.548   2.137   1.897  0.1976  1.0835  0.4677
  143DG      H4 3270   2.382   2.161   1.944 -0.9389  0.2096 -0.1451
  143DG      H5 3271   2.463   2.283   1.850  0.2202  0.4991  0.7636
  143DG      H6 3272   2.365   1.628   1.326  2.0084 -1.5916  0.2394
  143DG      H7 3273   2.462   1.761   1.285 -1.5919 -0.2040 -1.0123
  143DG      H8 3274   2.507   1.652   1.427 -0.1486  0.4796 -0.6889
  143DG      O9 3275   2.417   2.130   1.731  0.0059 -0.1288 -0.1306
  143DG     O10 3276   2.349   1.787   1.451 -0.2117 -0.2740 -0.6117
  143DG     C11 3277   2.311   2.201   1.669 -1.0025  0.1075  0.0402
  143DG     C12 3278   2.263   1.873   1.385 -0.6812  0.2009  0.2967
  143DG     H13 3279   2.356   2.297   1.642 -1.0347 -0.1753 -1.0578
  143DG     H14 3280   2.220   2.215   1.726 -0.8986  0.2356  0.1784
  143DG     H15 3281   2.213   1.822   1.303 -0.3233  0.8142 -0.3178
  143DG     H16 3282   2.320   1.957   1.343  0.1888  0.4421  1.8705
  143DG     C17 3283   2.269   2.125   1.546 -0.2524 -0.6828 -0.6350
  143DG     C18 3284   2.156   1.938   1.471 -0.2816 -0.3590  0.0084
  143DG     O19 3285   2.213   2.003   1.585 -0.5284  0.2969  0.0663
  143DG     H20 3286   2.352   2.111   1.477  0.0260 -0.5636 -0.3252
  143DG     H21 3287   2.186   2.177   1.498 -0.3385  0.5467  0.8013
  143DG     H22 3288   2.089   1.998   1.410 -0.4823 -0.1451  0.4336
  143DG     H23 3289   2.079   1.867   1.501 -0.3359 -0.0663  0.5936
  144DG      C1 3290   4.111   0.671   4.111  0.0969  0.0058 -0.1166
  144DG      C2 3291   4.178   0.145   3.690  0.2654  0.2035  0.1122
  144DG      H3 3292   4.008   0.661   4.079 -0.0437 -0.2373  0.3997
  144DG      H4 3293   4.118   0.777   4.135  1.1911 -0.0360 -0.1613
  144DG      H5 3294   4.121   0.618   4.206  1.8759 -1.6641 -1.1507
  144DG      H6 3295   4.235   0.071   3.632 -0.7708 -0.6829  0.1926
  144DG      H7 3296   4.132   0.094   3.774  0.7241 -0.1001  0.1809
  144DG      H8 3297   4.095   0.175   3.626  1.5168  0.9190 -1.2380
  144DG      O9 3298   4.207   0.620   4.018 -0.0981 -0.3272 -0.4161
  144DG     O10 3299   4.261   0.247   3.742  0.3211  0.5563 -0.7428
  144DG     C11 3300   4.346   0.625   4.065  0.2804 -0.3462  0.0287
  144DG     C12 3301   4.343   0.201   3.858 -0.1002  0.1121 -0.0370
  144DG     H13 3302   4.369   0.586   4.164  1.6002 -2.7489 -1.1325
  144DG     H14 3303   4.391   0.724   4.056 -2.6655  0.9500 -1.7808
  144DG     H15 3304   4.397   0.112   3.830 -0.9302  0.1114 -1.7182
  144DG     H16 3305   4.284   0.165   3.943 -2.3364  1.1762 -1.0509
  144DG     C17 3306   4.427   0.531   3.969 -0.4076  0.8965 -0.1753
  144DG     C18 3307   4.444   0.303   3.904  0.5997 -1.0373 -1.1652
  144DG     O19 3308   4.362   0.407   3.960  0.2917 -0.2685 -0.2367
  144DG     H20 3309   4.531   0.511   3.998 -0.8178  1.0930  1.5764
  144DG     H21 3310   4.427   0.562   3.865  0.3451  1.6328  0.0292
  144DG     H22 3311   4.515   0.266   3.978  0.7553 -0.5128 -1.0478
  144DG     H23 3312   4.495   0.342   3.816  0.7003 -0.0157 -0.6619
  145DG      C1 3313   4.860   2.292   1.238 -0.2490  0.1307 -0.3583
  145DG      C2 3314   4.577   2.553   1.813  0.0284  0.0981 -0.2206
  145DG      H3 3315   4.953   2.258   1.193 -0.6488 -1.9406  0.2801
  145DG      H4 3316   4.805   2.347   1.162 -0.7739  0.4372  0.2350
  145DG      H5 3317   4.802   2.203   1.261  0.4637 -0.4062 -0.6136
  145DG      H6 3318   4.594   2.460   1.868  0.9737  0.1742 -0.3573
  145DG      H7 3319   4.581   2.638   1.880 -1.6883 -0.1225  0.1932
  145DG      H8 3320   4.476   2.540   1.776 -1.2195  1.7744  2.3313
  145DG      O9 3321   4.898   2.374   1.350  0.4070 -0.3804  0.0403
  145DG     O10 3322   4.680   2.570   1.718  0.0887 -0.6097 -0.3208
  145DG     C11 3323   5.013   2.335   1.427 -0.6211 -0.4516 -0.7392
  145DG     C12 3324   4.814   2.578   1.778  0.0218  0.3211 -0.0207
  145DG     H13 3325   5.093   2.314   1.357  0.8688  2.2353  0.0011
  145DG     H14 3326   4.991   2.243   1.481 -1.5818  0.3228  0.2419
  145DG     H15 3327   4.839   2.495   1.844  4.1836  0.4932 -1.0935
  145DG     H16 3328   4.821   2.669   1.838 -1.6321 -0.1057  0.8971
  145DG     C17 3329   5.049   2.437   1.538  0.7283  0.4928 -0.5794
  145DG     C18 3330   4.930   2.583   1.682 -0.4837 -0.1895 -0.6834
  145DG     O19 3331   4.925   2.468   1.600 -0.1647  0.1132  0.6419
  145DG     H20 3332   5.119   2.515   1.507  1.2609 -0.4583 -1.8579
  145DG     H21 3333   5.110   2.383   1.609 -1.7207 -2.6075 -0.6330
  145DG     H22 3334   4.925   2.670   1.616 -0.7189  1.5745  1.5623
  145DG     H23 3335   5.026   2.585   1.734 -2.1727 -0.7048  2.6415
  146DG      C1 3336   5.175   4.997   2.177  0.4336 -0.1717  0.0851
  146DG      C2 3337   5.476   4.927   1.745  0.5257  0.0623 -0.0887
  146DG      H3 3338   5.153   5.098   2.212 -0.1013 -0.5064  0.7248
  146DG      H4 3339   5.267   4.966   2.227  0.6135 -1.4244 -0.9582
  146DG      H5 3340   5.092   4.942   2.220 -0.1954  2.0434  1.9107
  146DG      H6 3341   5.492   4.852   1.668  2.7299 -1.1281  1.3910
  146DG      H7 3342   5.564   4.938   1.809 -1.8065  0.5223  3.3224
  146DG      H8 3343   5.393   4.895   1.808  1.9884 -1.1951  1.3123
  146DG      O9 3344   5.185   4.987   2.037 -0.3092 -0.3963 -0.1322
  146DG     O10 3345   5.440   5.044   1.673 -0.1808  0.5086  0.2078
  146DG     C11 3346   5.061   5.022   1.975 -0.2639 -0.6995  0.3967
  146DG     C12 3347   5.327   5.041   1.578  0.3139  0.3686  0.8756
  146DG     H13 3348   4.995   5.079   2.039 -0.0634  0.2995 -0.2558
  146DG     H14 3349   5.017   4.925   1.954 -1.8514 -0.7915  3.6519
  146DG     H15 3350   5.316   4.941   1.535 -1.0245  0.9666 -0.2259
  146DG     H16 3351   5.356   5.111   1.500  1.9459  0.1248  1.2242
  146DG     C17 3352   5.086   5.102   1.848  0.3659  0.5397  0.4511
  146DG     C18 3353   5.200   5.098   1.644  0.1659  0.1400 -0.1659
  146DG     O19 3354   5.174   5.032   1.768  0.1889  0.0983 -0.2898
  146DG     H20 3355   5.125   5.201   1.874  0.5862  0.3171  0.9829
  146DG     H21 3356   4.985   5.122   1.812 -0.4410 -0.1407  2.2102
  146DG     H22 3357   5.209   5.206   1.655 -1.4344  0.3154 -0.3415
  146DG     H23 3358   5.119   5.081   1.574 -0.0171  0.3782 -0.0134
  147DG      C1 3359   0.304   0.612   5.131 -0.3852 -0.2224  0.3214
  147DG      C2 3360   0.141   0.821   4.590  0.7940 -0.1126  0.4003
  147DG      H3 3361   0.246   0.521   5.147 -0.8662  0.0105 -0.0640
  147DG      H4 3362   0.255   0.699   5.175  0.6885  0.7396 -0.3096
  147DG      H5 3363   0.390   0.606   5.198 -0.1955  0.9507  0.2071
  147DG      H6 3364   0.056   0.856   4.648  1.0853  2.0084 -0.3550
  147DG      H7 3365   0.149   0.896   4.511 -0.5085  0.1380  0.4860
  147DG      H8 3366   0.114   0.732   4.534  1.3913  0.9864 -1.7431
  147DG      O9 3367   0.334   0.616   4.993 -0.3211 -0.8438  0.3723
  147DG     O10 3368   0.270   0.824   4.656  0.9727  0.3721 -0.1680
  147DG     C11 3369   0.412   0.504   4.949  0.7340  0.2538 -0.6691
  147DG     C12 3370   0.364   0.747   4.588  1.2269  0.8965 -0.2340
  147DG     H13 3371   0.351   0.415   4.964  0.5846  0.5747  0.7941
  147DG     H14 3372   0.504   0.488   5.006 -0.4415  0.7342  1.4675
  147DG     H15 3373   0.459   0.765   4.638 -0.2167  0.5839  2.8245
  147DG     H16 3374   0.368   0.773   4.482 -0.8542  0.3817 -0.4698
  147DG     C17 3375   0.452   0.531   4.808  0.3806  0.0701 -0.0401
  147DG     C18 3376   0.352   0.597   4.597 -0.6259  0.2571  1.4549
  147DG     O19 3377   0.329   0.555   4.731  0.7079  0.1729 -0.4259
  147DG     H20 3378   0.493   0.437   4.771  2.7378  1.2685 -0.6965
  147DG     H21 3379   0.521   0.615   4.796 -0.1730  0.3967 -1.0638
  147DG     H22 3380   0.267   0.555   4.543  1.0030 -0.7767 -0.4136
  147DG     H23 3381   0.437   0.548   4.549 -1.6016 -0.8159  0.7547
  148DG      C1 3382   3.504   2.730   4.652 -0.2954 -0.9782 -0.2553
  148DG      C2 3383   3.628   2.099   5.001  0.1684 -0.5136 -0.1807
  148DG      H3 3384   3.479   2.832   4.678  0.5207 -0.7926 -0.1571
  148DG      H4 3385   3.415   2.669   4.635 -0.3279 -0.7328 -1.0059
  148DG      H5 3386   3.562   2.737   4.560  0.4906 -0.3932  0.2764
  148DG      H6 3387   3.670   2.045   5.086  2.0862  1.0825 -0.0390
  148DG      H7 3388   3.549   2.046   4.948 -0.2518 -1.4973  1.3819
  148DG      H8 3389   3.703   2.106   4.922 -0.9053  2.9124 -1.0799
  148DG      O9 3390   3.580   2.684   4.768  0.1104  0.0410  0.3624
  148DG     O10 3391   3.592   2.233   5.043 -0.0461  0.0848 -0.6624
  148DG     C11 3392   3.504   2.710   4.884 -0.2975  0.6862 -0.8372
  148DG     C12 3393   3.694   2.303   5.117  0.1531 -0.1217  0.5734
  148DG     H13 3394   3.410   2.654   4.877 -0.1649  0.4996 -1.1712
  148DG     H14 3395   3.493   2.816   4.905  1.9369  0.4889  2.0453
  148DG     H15 3396   3.788   2.312   5.063 -1.7108 -0.1074 -3.0066
  148DG     H16 3397   3.699   2.263   5.218 -4.0500 -0.7071  0.7492
  148DG     C17 3398   3.582   2.643   5.004  0.1086 -0.9779  0.3574
  148DG     C18 3399   3.649   2.450   5.128 -0.0255  0.0164 -0.4749
  148DG     O19 3400   3.620   2.506   4.997 -0.2940  0.0817 -0.1665
  148DG     H20 3401   3.529   2.665   5.096 -1.5794 -0.6551 -0.6358
  148DG     H21 3402   3.678   2.691   5.025 -0.0131  0.1191 -1.3641
  148DG     H22 3403   3.565   2.455   5.198 -0.7369 -4.9451 -0.6223
  148DG     H23 3404   3.730   2.489   5.189 -1.3755  1.1537  0.6306
  149DG      C1 3405   4.525   4.892   0.190 -0.4793  0.1375 -0.0408
  149DG      C2 3406   3.872   5.206   0.048 -0.8730 -0.2151  0.4448
  149DG      H3 3407   4.544   4.810   0.259 -0.6297  0.4326  0.3534
  149DG      H4 3408   4.544   4.990   0.235  1.7615 -0.4107  0.3492
  149DG      H5 3409   4.595   4.887   0.107 -0.4695  3.6423 -0.3958
  149DG      H6 3410   3.765   5.188   0.047 -0.6319 -2.5826 -3.2705
  149DG      H7 3411   3.894   5.260   0.140 -2.2279  2.3019 -0.6036
  149DG      H8 3412   3.894   5.278  -0.031  1.4709  1.7128  2.6974
  149DG      O9 3413   4.388   4.896   0.144  0.5882 -0.0179 -0.3189
  149DG     O10 3414   3.947   5.087   0.063 -0.1102  0.1976  0.2155
  149DG     C11 3415   4.344   4.772   0.082 -1.0060 -0.5178 -0.5850
  149DG     C12 3416   3.918   4.998  -0.051 -0.3527  0.6968 -0.0060
  149DG     H13 3417   4.386   4.684   0.131 -0.8475  0.3259  0.8622
  149DG     H14 3418   4.394   4.767  -0.014  1.1003  0.9239  0.3512
  149DG     H15 3419   3.967   5.038  -0.140 -0.7924  0.2356 -0.4600
  149DG     H16 3420   3.809   4.993  -0.054 -0.3087  0.2379 -0.8829
  149DG     C17 3421   4.196   4.760   0.062 -0.5118 -0.0009 -0.0188
  149DG     C18 3422   3.983   4.862  -0.012  0.0694 -0.5592  0.0801
  149DG     O19 3423   4.122   4.866   0.002 -0.2384  0.4722 -0.1351
  149DG     H20 3424   4.164   4.741   0.164  1.5267 -0.6478  0.5610
  149DG     H21 3425   4.184   4.669   0.004  0.9635  0.2698 -0.8056
  149DG     H22 3426   3.948   4.828   0.085 -0.4130  1.5297  0.7017
  149DG     H23 3427   3.966   4.798  -0.098  1.4330 -2.1418  0.9315
  150DG      C1 3428   0.277   5.246   3.014 -0.3352 -0.1005  0.5879
  150DG      C2 3429   0.595   4.761   3.350  0.5441 -0.3433 -0.4360
  150DG      H3 3430   0.246   5.304   2.927 -0.6681 -0.4042  0.5002
  150DG      H4 3431   0.371   5.291   3.045 -0.3890  1.8391 -1.7723
  150DG      H5 3432   0.205   5.269   3.092 -1.1479  0.1862 -0.2294
  150DG      H6 3433   0.610   4.656   3.323  1.0754 -0.6056  0.8018
  150DG      H7 3434   0.672   4.799   3.417  1.4268  0.9892 -2.1352
  150DG      H8 3435   0.505   4.766   3.410  1.2407  0.9969  0.5587
  150DG      O9 3436   0.290   5.103   2.984  0.4069  0.2745 -0.2194
  150DG     O10 3437   0.593   4.848   3.240 -0.4840  0.2403 -0.9230
  150DG     C11 3438   0.377   5.079   2.880 -0.3990  0.0767  0.5012
  150DG     C12 3439   0.682   4.820   3.130  0.0410  0.4393 -0.9816
  150DG     H13 3440   0.362   5.155   2.803 -0.8845 -0.7924 -0.2999
  150DG     H14 3441   0.350   4.991   2.820 -0.4293  0.3844  0.0605
  150DG     H15 3442   0.636   4.727   3.098 -1.3607  0.2359  1.3985
  150DG     H16 3443   0.784   4.788   3.147 -0.9721 -3.0226 -0.7652
  150DG     C17 3444   0.523   5.073   2.916 -0.7004 -0.0846 -0.0813
  150DG     C18 3445   0.678   4.926   3.023 -0.6493 -0.0273 -0.2843
  150DG     O19 3446   0.539   4.966   3.012 -0.6311 -0.4444  0.2817
  150DG     H20 3447   0.548   5.166   2.967 -1.1384 -0.5998  1.1190
  150DG     H21 3448   0.583   5.055   2.827 -1.0005 -0.9330 -0.1237
  150DG     H22 3449   0.746   5.006   3.054  1.7295 -2.6658  1.9463
  150DG     H23 3450   0.711   4.894   2.925  1.8144  1.3248  0.0209
  151DG      C1 3451   2.122   5.187   2.680 -0.2296 -0.3061  0.4754
  151DG      C2 3452   2.181   4.555   2.452  0.3972 -0.5563  0.1169
  151DG      H3 3453   2.113   5.185   2.788 -0.2800 -1.9920  0.4664
  151DG      H4 3454   2.024   5.152   2.650 -1.0685  1.6815  0.7262
  151DG      H5 3455   2.132   5.285   2.632 -0.1349 -0.9158 -0.7851
  151DG      H6 3456   2.197   4.449   2.472 -1.8007 -0.7963  0.8422
  151DG      H7 3457   2.105   4.558   2.374  0.8350 -1.6362 -0.3658
  151DG      H8 3458   2.264   4.606   2.402  0.1484  0.5785  0.8099
  151DG      O9 3459   2.214   5.082   2.632  0.6051 -1.1403  0.2650
  151DG     O10 3460   2.148   4.636   2.564 -0.7332 -0.1635 -0.2900
  151DG     C11 3461   2.333   5.083   2.699 -0.2524 -0.3499  0.3524
  151DG     C12 3462   2.254   4.616   2.664  0.8116  0.5162  0.6170
  151DG     H13 3463   2.313   5.079   2.806 -2.3008  0.7710  0.0624
  151DG     H14 3464   2.392   5.167   2.662 -3.3646  0.7271 -2.7130
  151DG     H15 3465   2.284   4.511   2.670  1.4336  0.7529  1.8542
  151DG     H16 3466   2.215   4.629   2.764  2.4367 -0.5184  1.4268
  151DG     C17 3467   2.414   4.957   2.665 -0.1829 -0.0460  0.6593
  151DG     C18 3468   2.364   4.723   2.648 -0.3865  0.7463 -0.2333
  151DG     O19 3469   2.315   4.854   2.665 -0.2242 -0.0744 -0.5112
  151DG     H20 3470   2.489   4.946   2.743  0.2763  2.2047  0.5943
  151DG     H21 3471   2.470   4.976   2.574  0.0940  1.1542  1.0644
  151DG     H22 3472   2.450   4.703   2.712 -0.0067 -0.7483 -1.1474
  151DG     H23 3473   2.404   4.720   2.547 -1.1086  3.1733 -0.6402
  152DG      C1 3474   3.218   2.024   2.433  0.1017  0.0259 -0.4736
  152DG      C2 3475   3.430   1.457   2.705  0.4692  0.4141 -0.0115
  152DG      H3 3476   3.119   1.985   2.456 -0.3354 -0.1070 -2.4033
  152DG      H4 3477   3.260   1.986   2.340  1.0245 -0.9966  0.3341
  152DG      H5 3478   3.201   2.132   2.437  0.9994  0.3315 -2.9452
  152DG      H6 3479   3.486   1.389   2.770 -1.5914  1.1331  2.7149
  152DG      H7 3480   3.325   1.434   2.720  0.9759 -0.5968  2.6196
  152DG      H8 3481   3.462   1.434   2.604  0.0523 -1.6624  0.2792
  152DG      O9 3482   3.304   1.986   2.539  0.0259 -0.3159 -0.3238
  152DG     O10 3483   3.450   1.596   2.718 -0.0110  0.1473  0.3018
  152DG     C11 3484   3.431   2.048   2.527  0.2025  0.5113  0.3268
  152DG     C12 3485   3.588   1.630   2.702  0.1899 -0.1022  0.3071
  152DG     H13 3486   3.414   2.154   2.547 -1.9635  0.6406 -1.7588
  152DG     H14 3487   3.477   2.034   2.429 -1.1842  0.6487 -0.3743
  152DG     H15 3488   3.618   1.608   2.599 -0.2434  0.3647  0.0790
  152DG     H16 3489   3.657   1.582   2.772  0.0559  0.2664  0.6999
  152DG     C17 3490   3.532   1.995   2.628  0.0293 -0.1705 -0.6141
  152DG     C18 3491   3.610   1.783   2.715 -0.5261  0.1138 -0.4865
  152DG     O19 3492   3.519   1.856   2.623 -0.4677 -0.7532 -0.4244
  152DG     H20 3493   3.516   2.045   2.723  0.2247 -0.7432 -0.2735
  152DG     H21 3494   3.636   2.015   2.603  0.0653 -1.4413 -1.6147
  152DG     H22 3495   3.600   1.801   2.822  1.5166  1.9423 -0.5429
  152DG     H23 3496   3.711   1.817   2.694 -0.7839  1.7909  0.7342
  153DG      C1 3497   4.026   3.535   3.599  0.3335 -0.1991  0.2019
  153DG      C2 3498   4.598   3.308   3.611  0.0006  0.0265  0.2889
  153DG      H3 3499   3.941   3.602   3.587  0.3289 -0.1764  0.3535
  153DG      H4 3500   4.002   3.458   3.672  2.9772  0.1380  1.5286
  153DG      H5 3501   4.031   3.474   3.509  2.9223  1.3570 -0.7994
  153DG      H6 3502   4.706   3.299   3.628  0.2996  2.2886 -0.0860
  153DG      H7 3503   4.549   3.250   3.689  0.8858  1.2217  1.7725
  153DG      H8 3504   4.590   3.262   3.512  1.2233  0.2485  0.0658
  153DG      O9 3505   4.153   3.596   3.619  0.1091  0.2060 -0.0725
  153DG     O10 3506   4.552   3.446   3.618 -1.1480  0.3675  0.0522
  153DG     C11 3507   4.175   3.711   3.548  0.3795  0.4849  0.3287
  153DG     C12 3508   4.605   3.532   3.514 -0.0312  0.7006  0.1195
  153DG     H13 3509   4.123   3.795   3.593  0.7650  0.7085  0.3625
  153DG     H14 3510   4.135   3.708   3.447 -1.2812  1.0555  0.9324
  153DG     H15 3511   4.584   3.474   3.424 -0.4628  0.7162  0.2090
  153DG     H16 3512   4.713   3.545   3.513  0.3898 -1.9565  1.3536
  153DG     C17 3513   4.327   3.757   3.554 -0.1199  0.3474  0.2917
  153DG     C18 3514   4.539   3.665   3.531 -0.2692  0.7322  0.5695
  153DG     O19 3515   4.400   3.643   3.532  1.0005 -0.2364 -0.4821
  153DG     H20 3516   4.359   3.803   3.648  1.7283  0.9952 -0.6014
  153DG     H21 3517   4.342   3.828   3.473  1.3472  1.3692  1.4014
  153DG     H22 3518   4.579   3.708   3.624 -0.3561 -1.5533  1.7354
  153DG     H23 3519   4.572   3.734   3.453  1.5872 -1.6802 -0.9490
  154DG      C1 3520   2.150   3.181   3.856 -0.0162 -0.0198  0.2622
  154DG      C2 3521   1.640   2.773   4.054 -1.0801 -0.1635  0.7425
  154DG      H3 3522   2.236   3.155   3.793  0.5578  0.5907  0.7750
  154DG      H4 3523   2.178   3.265   3.919  0.8046 -1.2152  1.5760
  154DG      H5 3524   2.070   3.197   3.785  0.0964 -2.0204 -0.3779
  154DG      H6 3525   1.650   2.726   3.956  1.2902  2.4616 -0.4144
  154DG      H7 3526   1.592   2.699   4.117  1.9924 -1.9016  1.2607
  154DG      H8 3527   1.580   2.862   4.040 -0.5205 -0.0527 -1.2656
  154DG      O9 3528   2.120   3.066   3.936 -0.1730  0.1745  0.0037
  154DG     O10 3529   1.777   2.796   4.092 -0.3136 -0.3677 -0.2291
  154DG     C11 3530   2.235   3.015   3.990 -0.0491 -0.1540  0.3787
  154DG     C12 3531   1.868   2.693   4.060 -0.8827  0.2033 -0.4940
  154DG     H13 3532   2.294   3.085   4.049  1.0371 -0.5052 -0.2789
  154DG     H14 3533   2.308   2.983   3.916 -0.6724 -0.5045 -0.0930
  154DG     H15 3534   1.870   2.684   3.952 -0.6947  1.3276 -0.5940
  154DG     H16 3535   1.839   2.599   4.106 -0.0312 -1.5800 -3.3478
  154DG     C17 3536   2.191   2.896   4.079  0.1009  0.2447  0.0762
  154DG     C18 3537   2.012   2.726   4.101  0.0142  0.7417  0.1376
  154DG     O19 3538   2.075   2.830   4.025 -0.0761  0.2741  0.2243
  154DG     H20 3539   2.152   2.936   4.173 -1.1494  1.3168 -0.8655
  154DG     H21 3540   2.274   2.827   4.095  0.1957  0.1361 -0.8443
  154DG     H22 3541   2.022   2.727   4.209  0.4249  0.8284  0.1043
  154DG     H23 3542   2.076   2.641   4.077  0.7190  1.4569 -0.6039
  155DG      C1 3543   4.649   0.770   4.570 -0.4890 -1.1415  0.2164
  155DG      C2 3544   4.388   0.391   4.461  0.6258  0.3674 -0.5786
  155DG      H3 3545   4.583   0.699   4.520  0.9114 -2.7506  0.5523
  155DG      H4 3546   4.738   0.775   4.508  0.8075 -1.3686  1.9623
  155DG      H5 3547   4.602   0.868   4.575 -1.0946 -1.4776  3.4365
  155DG      H6 3548   4.364   0.479   4.400 -1.1031 -0.9173 -1.8524
  155DG      H7 3549   4.445   0.321   4.400 -0.0221 -0.5081 -0.1878
  155DG      H8 3550   4.287   0.351   4.472  1.3030 -1.2301  0.0980
  155DG      O9 3551   4.704   0.738   4.700 -0.4448  0.2162 -0.3826
  155DG     O10 3552   4.455   0.431   4.576 -0.0551  0.4359 -0.4148
  155DG     C11 3553   4.612   0.719   4.810  0.6812  0.1227  0.7564
  155DG     C12 3554   4.492   0.323   4.650  0.1950 -0.4803 -0.4536
  155DG     H13 3555   4.551   0.805   4.838 -0.8314 -0.0163 -1.7967
  155DG     H14 3556   4.679   0.705   4.895  0.6872  1.5144  1.0049
  155DG     H15 3557   4.590   0.297   4.610  0.2390  2.3115 -2.4887
  155DG     H16 3558   4.428   0.235   4.644  1.4504 -1.5869  1.5590
  155DG     C17 3559   4.514   0.605   4.803  0.7968  0.2930  0.1591
  155DG     C18 3560   4.520   0.365   4.793  0.0598 -0.5696  0.1386
  155DG     O19 3561   4.590   0.488   4.793 -0.3698 -0.2635  0.3273
  155DG     H20 3562   4.449   0.606   4.716  2.4809  1.4763 -1.1468
  155DG     H21 3563   4.450   0.603   4.892  2.2529 -0.7548  1.2284
  155DG     H22 3564   4.429   0.380   4.852  0.6563  0.3083  0.8704
  155DG     H23 3565   4.588   0.295   4.841  1.1306  0.2137 -0.2079
  156DG      C1 3566   0.098   4.201   5.234 -0.0986 -0.2738 -0.8357
  156DG      C2 3567   0.830   4.504   5.346 -0.1217  0.3408  0.3760
  156DG      H3 3568   0.086   4.258   5.142  1.1533 -0.7008 -1.2734
  156DG      H4 3569   0.006   4.205   5.293  1.1819 -1.9220  1.4603
  156DG      H5 3570   0.121   4.100   5.201  4.9085  0.8610 -1.6665
  156DG      H6 3571   0.894   4.416   5.351  0.3413  0.7257  2.8789
  156DG      H7 3572   0.860   4.555   5.254 -0.1360 -2.0970 -1.0692
  156DG      H8 3573   0.862   4.569   5.428 -0.4106 -0.0902  0.8313
  156DG      O9 3574   0.207   4.229   5.313 -0.8411 -0.3342  0.1597
  156DG     O10 3575   0.694   4.470   5.365 -0.7893 -0.4003  0.6931
  156DG     C11 3576   0.218   4.367   5.326 -0.4378  0.4817 -0.9224
  156DG     C12 3577   0.673   4.386   5.477  0.5386 -0.1150 -0.4879
  156DG     H13 3578   0.116   4.401   5.349  0.5580  3.3046 -0.2582
  156DG     H14 3579   0.252   4.428   5.243  2.3495  1.1430  0.5795
  156DG     H15 3580   0.750   4.405   5.552 -0.1964  1.1228 -0.0027
  156DG     H16 3581   0.695   4.285   5.445  0.6917 -0.0123 -0.7111
  156DG     C17 3582   0.299   4.402   5.457  0.0071 -0.9286  0.1002
  156DG     C18 3583   0.525   4.419   5.517 -0.4679 -0.3483  0.4220
  156DG     O19 3584   0.432   4.361   5.424  0.0456  0.6157 -0.1268
  156DG     H20 3585   0.250   4.344   5.536  1.7644 -2.0699  0.4164
  156DG     H21 3586   0.291   4.502   5.499 -1.8737  0.1038 -2.4806
  156DG     H22 3587   0.513   4.371   5.614  3.8857  0.1267  1.4010
  156DG     H23 3588   0.513   4.527   5.525  0.1653 -0.2717  0.3760
  157DG      C1 3589   4.069   0.195   2.588  0.0640  0.4131  0.0799
  157DG      C2 3590   3.524   0.624   2.529  0.6671  0.0562 -0.9186
  157DG      H3 3591   4.148   0.149   2.529 -0.3884  0.0486 -0.2500
  157DG      H4 3592   4.024   0.128   2.662  0.1484  1.1771  0.8411
  157DG      H5 3593   4.116   0.282   2.633  1.1883 -1.1245  2.0675
  157DG      H6 3594   3.514   0.718   2.474 -1.2715  0.2751 -0.2638
  157DG      H7 3595   3.420   0.591   2.525  0.2838  1.1872 -0.8276
  157DG      H8 3596   3.548   0.648   2.632 -0.6947  0.6880 -0.7211
  157DG      O9 3597   3.974   0.248   2.497 -0.3414  0.3882 -0.3569
  157DG     O10 3598   3.606   0.526   2.467 -0.1641  0.1868 -0.2723
  157DG     C11 3599   3.927   0.157   2.401 -0.3784 -0.3996  0.5352
  157DG     C12 3600   3.546   0.460   2.353  0.1284  0.1929 -0.1089
  157DG     H13 3601   3.877   0.071   2.446 -2.1382  0.5412  0.4763
  157DG     H14 3602   3.999   0.124   2.326 -0.2347 -2.8337  1.6327
  157DG     H15 3603   3.524   0.528   2.271  1.8012  2.3740  1.1569
  157DG     H16 3604   3.450   0.410   2.366  0.0268  0.0416 -1.2696
  157DG     C17 3605   3.823   0.214   2.312  0.4485 -0.7828  0.1836
  157DG     C18 3606   3.651   0.370   2.287  1.0152  0.3378 -0.0331
  157DG     O19 3607   3.715   0.277   2.377 -0.0236  0.1183 -0.6394
  157DG     H20 3608   3.786   0.141   2.240 -2.0629 -0.4071  0.9900
  157DG     H21 3609   3.869   0.297   2.258 -1.4187 -0.8961 -1.7013
  157DG     H22 3610   3.616   0.315   2.199  1.0602  3.5012 -2.2218
  157DG     H23 3611   3.716   0.445   2.241  1.1609 -0.8133 -1.8268
  158DG      C1 3612   0.305   4.263   3.966 -0.1247 -0.0318  0.1984
  158DG      C2 3613   0.547   4.266   4.486 -0.0604  0.0502  0.2681
  158DG      H3 3614   0.307   4.203   3.875  3.2202  2.1278 -1.3841
  158DG      H4 3615   0.208   4.310   3.983  0.3995  0.9603  0.5100
  158DG      H5 3616   0.344   4.203   4.048  1.6334  1.4133  0.4932
  158DG      H6 3617   0.495   4.265   4.581 -1.0472  0.0397 -0.2545
  158DG      H7 3618   0.572   4.162   4.466  0.7258 -0.0520  1.6432
  158DG      H8 3619   0.641   4.322   4.495  0.6957 -0.8876 -1.2753
  158DG      O9 3620   0.395   4.371   3.943 -0.6761 -0.1694 -0.1603
  158DG     O10 3621   0.448   4.314   4.394 -0.0181 -0.5941  0.5245
  158DG     C11 3622   0.528   4.343   3.973 -0.8003  0.3308  0.4415
  158DG     C12 3623   0.416   4.451   4.389  0.8403  0.3467 -0.4630
  158DG     H13 3624   0.590   4.413   3.916 -0.7165  1.3885  1.7940
  158DG     H14 3625   0.557   4.246   3.933 -0.7378  0.4702  0.1388
  158DG     H15 3626   0.413   4.495   4.489  0.6699  1.4404 -0.9357
  158DG     H16 3627   0.319   4.458   4.340 -0.2774  0.0081  1.5750
  158DG     C17 3628   0.555   4.365   4.118  0.1086 -0.5131  0.4154
  158DG     C18 3629   0.511   4.532   4.306  0.7934 -0.0782 -0.3957
  158DG     O19 3630   0.499   4.489   4.165 -0.3655 -0.2604 -0.1626
  158DG     H20 3631   0.662   4.361   4.134  0.5034 -1.5492 -2.0310
  158DG     H21 3632   0.513   4.280   4.173  0.7132 -0.3177  1.2024
  158DG     H22 3633   0.474   4.633   4.297  0.2845 -0.2408 -0.1283
  158DG     H23 3634   0.615   4.513   4.335  0.6508 -2.4345 -1.1949
  159DG      C1 3635   4.606   3.504   5.382 -0.0453  0.3399  0.3341
  159DG      C2 3636   4.957   3.843   5.862  0.4718  0.3988  0.3784
  159DG      H3 3637   4.514   3.554   5.413  0.0495  2.0963 -1.9168
  159DG      H4 3638   4.612   3.407   5.433  2.4487  0.0862 -0.2920
  159DG      H5 3639   4.597   3.493   5.274 -0.1346  2.0667  0.1442
  159DG      H6 3640   5.048   3.892   5.897  2.0835 -1.2953 -1.2079
  159DG      H7 3641   4.866   3.885   5.905  0.5730  0.1074  0.8838
  159DG      H8 3642   4.969   3.742   5.899  3.2506  0.5291 -0.0052
  159DG      O9 3643   4.701   3.603   5.420  0.2960  0.6646 -0.1253
  159DG     O10 3644   4.944   3.848   5.720 -0.4711  0.3643 -0.7914
  159DG     C11 3645   4.827   3.586   5.350  0.1345 -0.4730 -0.0301
  159DG     C12 3646   5.063   3.827   5.647  0.1859 -0.2625 -0.9517
  159DG     H13 3647   4.799   3.547   5.252 -0.2985  0.3201 -0.2299
  159DG     H14 3648   4.875   3.496   5.388 -2.0384 -1.7996 -0.2656
  159DG     H15 3649   5.104   3.727   5.663 -0.8995 -0.6086 -0.1551
  159DG     H16 3650   5.137   3.906   5.663  2.0535 -2.2580  0.8422
  159DG     C17 3651   4.920   3.703   5.343 -0.1133 -0.1418 -0.5416
  159DG     C18 3652   5.033   3.835   5.496 -0.0863  0.2597  0.0450
  159DG     O19 3653   4.948   3.724   5.474 -0.0974 -0.0362 -0.5895
  159DG     H20 3654   4.875   3.792   5.299 -0.1506  1.2349  2.0986
  159DG     H21 3655   5.012   3.679   5.290  0.4457 -0.1001  0.4097
  159DG     H22 3656   4.983   3.932   5.485  0.7422  0.5543 -1.3964
  159DG     H23 3657   5.127   3.842   5.442 -0.5577  2.5046 -0.5802
  160DG      C1 3658   1.629   4.621   0.202 -0.6543 -0.2171 -0.2868
  160DG      C2 3659   2.185   4.906   0.382 -0.5868  0.1327  0.5402
  160DG      H3 3660   1.700   4.563   0.143  2.4996  1.0832  1.9628
  160DG      H4 3661   1.591   4.707   0.147  0.6413 -0.4277 -1.5704
  160DG      H5 3662   1.536   4.563   0.211 -1.4893  1.1410  0.1408
  160DG      H6 3663   2.201   4.914   0.489  0.4273  2.7851  0.2792
  160DG      H7 3664   2.221   4.816   0.334 -3.1474 -1.3100  1.1466
  160DG      H8 3665   2.243   4.988   0.340 -3.8592  2.7017  0.6071
  160DG      O9 3666   1.679   4.661   0.330  0.0862  0.7254  0.6550
  160DG     O10 3667   2.054   4.913   0.336 -0.4291  0.5574  0.7121
  160DG     C11 3668   1.590   4.748   0.399  0.0085 -0.1914 -0.1225
  160DG     C12 3669   1.991   5.018   0.409  0.7504  0.2859 -0.1759
  160DG     H13 3670   1.602   4.719   0.504  0.8375 -0.8467 -0.3809
  160DG     H14 3671   1.485   4.749   0.370 -0.8968 -0.7431  2.7148
  160DG     H15 3672   2.034   5.114   0.378 -0.6886  1.9491  2.5369
  160DG     H16 3673   2.006   4.997   0.515 -1.3671 -0.9643 -0.0778
  160DG     C17 3674   1.640   4.896   0.382 -0.3479  1.1355  0.0593
  160DG     C18 3675   1.837   5.026   0.407  1.0684  0.2817  0.3853
  160DG     O19 3676   1.780   4.897   0.394 -0.0963 -0.0956 -0.6167
  160DG     H20 3677   1.592   4.957   0.459 -1.0913  0.0400  0.4892
  160DG     H21 3678   1.609   4.931   0.283  1.2493 -2.3065 -1.8103
  160DG     H22 3679   1.789   5.080   0.488  0.0166 -2.3557  1.6207
  160DG     H23 3680   1.808   5.071   0.312 -1.8042  0.1291  1.1034
  161DG      C1 3681   0.165   2.393   0.862  0.2496  0.3521  0.2649
  161DG      C2 3682  -0.167   1.827   0.780  0.0858 -0.6250 -0.3471
  161DG      H3 3683   0.187   2.326   0.946 -2.3033  0.9925  1.5502
  161DG      H4 3684   0.159   2.497   0.894 -1.4768  0.7693 -1.3167
  161DG      H5 3685   0.244   2.375   0.790 -0.1985 -1.5265  0.1800
  161DG      H6 3686  -0.225   1.784   0.861  1.2009  0.6105  1.1779
  161DG      H7 3687  -0.164   1.749   0.705 -0.3557 -1.6069  0.6381
  161DG      H8 3688  -0.066   1.852   0.813 -0.5270 -0.1098  1.2468
  161DG      O9 3689   0.039   2.354   0.810  0.5782  0.9406 -0.0283
  161DG     O10 3690  -0.223   1.949   0.728  0.9323  0.1672  0.1464
  161DG     C11 3691  -0.001   2.407   0.680  0.3067  0.1181  0.0548
  161DG     C12 3692  -0.193   1.977   0.592 -0.0164 -0.3017  0.1710
  161DG     H13 3693   0.080   2.382   0.611  0.9102  4.0467 -0.8634
  161DG     H14 3694  -0.002   2.515   0.689  0.8310  0.1199  0.1278
  161DG     H15 3695  -0.260   1.918   0.529 -1.3966  0.7610  0.5896
  161DG     H16 3696  -0.101   1.928   0.558 -0.5038 -0.2082 -1.3712
  161DG     C17 3697  -0.138   2.335   0.626 -0.6009  0.2399  0.1802
  161DG     C18 3698  -0.209   2.122   0.559  0.1268 -0.3453 -0.0202
  161DG     O19 3699  -0.116   2.194   0.642  0.0029  0.3730 -0.3433
  161DG     H20 3700  -0.143   2.353   0.519 -0.9422 -1.9468 -0.2062
  161DG     H21 3701  -0.231   2.370   0.671  0.5016  2.3199  0.9917
  161DG     H22 3702  -0.186   2.141   0.454  1.5172 -0.9736  0.1404
  161DG     H23 3703  -0.303   2.164   0.594  0.9021  0.9346  0.5822
  162DG      C1 3704   1.700   3.732   0.518 -0.3484 -0.7501  0.2673
  162DG      C2 3705   1.879   3.378  -0.189 -0.3861  0.2046 -0.3209
  162DG      H3 3706   1.738   3.826   0.559 -2.0698  0.7058 -1.2796
  162DG      H4 3707   1.618   3.694   0.578  0.1237 -0.9871  0.7705
  162DG      H5 3708   1.664   3.745   0.416 -1.5169 -3.3041  0.2794
  162DG      H6 3709   1.775   3.411  -0.196  0.0754  1.4672 -1.8554
  162DG      H7 3710   1.931   3.466  -0.226 -0.2052 -0.5744 -2.0467
  162DG      H8 3711   1.900   3.298  -0.260 -2.3018  0.6261 -1.4723
  162DG      O9 3712   1.792   3.619   0.515 -0.4079 -0.2451 -0.6112
  162DG     O10 3713   1.928   3.353  -0.057  0.1195  0.5421  0.0234
  162DG     C11 3714   1.926   3.644   0.472 -0.2569  0.3345 -0.3868
  162DG     C12 3715   1.895   3.458   0.027  0.0808  0.0166 -0.5078
  162DG     H13 3716   2.001   3.660   0.550  0.5323  0.8007 -1.2229
  162DG     H14 3717   1.940   3.728   0.404  2.8770  0.8914  0.7766
  162DG     H15 3718   1.787   3.471   0.038  0.1458  0.6356 -0.5560
  162DG     H16 3719   1.944   3.549  -0.007  2.2687 -0.7227  0.5060
  162DG     C17 3720   1.972   3.525   0.379  0.0512  0.2522  0.2941
  162DG     C18 3721   1.951   3.428   0.169 -0.3175 -0.6329  0.0479
  162DG     O19 3722   1.893   3.516   0.260 -0.0565  0.0478  0.5358
  162DG     H20 3723   1.977   3.431   0.434  2.4514 -0.4583 -1.0291
  162DG     H21 3724   2.072   3.552   0.345  0.9038 -2.3227  0.6083
  162DG     H22 3725   1.931   3.323   0.194 -1.2573 -0.7643 -1.1705
  162DG     H23 3726   2.060   3.429   0.166 -0.3044 -2.1937 -1.2810
  163DG      C1 3727   3.636   1.664   3.603 -0.6646  0.1161  0.0750
  163DG      C2 3728   4.238   1.770   3.794  0.3574 -0.4121  0.7780
  163DG      H3 3729   3.655   1.557   3.591  1.1295  0.3546  0.5455
  163DG      H4 3730   3.672   1.725   3.520  0.0435  1.8927  1.6086
  163DG      H5 3731   3.529   1.687   3.611 -0.6923  0.9073 -2.0403
  163DG      H6 3732   4.294   1.845   3.851 -2.5500  2.2439  0.4023
  163DG      H7 3733   4.301   1.682   3.782 -0.6796 -0.8461 -2.4436
  163DG      H8 3734   4.230   1.807   3.692 -0.1652 -0.5138  0.7800
  163DG      O9 3735   3.696   1.699   3.724 -0.9833  0.6436 -0.0212
  163DG     O10 3736   4.102   1.742   3.840  0.6697 -0.6271 -0.0693
  163DG     C11 3737   3.658   1.609   3.831 -0.4154 -0.2270  0.5392
  163DG     C12 3738   4.096   1.660   3.959  0.2020 -0.4607 -0.0762
  163DG     H13 3739   3.684   1.504   3.815  1.2246 -0.2917  3.1037
  163DG     H14 3740   3.550   1.621   3.828 -0.5076 -1.1671 -0.4202
  163DG     H15 3741   4.108   1.709   4.056 -1.6242  0.0767 -0.0855
  163DG     H16 3742   4.174   1.586   3.941  0.9879  0.0651  1.0161
  163DG     C17 3743   3.728   1.650   3.961  0.6831 -0.6333  0.8650
  163DG     C18 3744   3.958   1.599   3.957  0.2803  0.5271  0.0058
  163DG     O19 3745   3.858   1.700   3.949  0.3114 -0.3018  0.4595
  163DG     H20 3746   3.713   1.576   4.040 -0.8339 -0.9382  0.3307
  163DG     H21 3747   3.662   1.733   3.985 -1.3747 -2.0824  0.5033
  163DG     H22 3748   3.963   1.542   3.864 -3.1630  0.2723 -0.1433
  163DG     H23 3749   3.932   1.534   4.040 -1.9671  0.5777 -0.6002
  164DG      C1 3750   2.995   0.614   5.280  0.1281 -0.4293 -0.7154
  164DG      C2 3751   2.534   0.727   4.755 -0.3164 -1.0182  0.1597
  164DG      H3 3752   2.952   0.596   5.378 -0.9808 -2.7544 -1.5533
  164DG      H4 3753   3.033   0.716   5.273  0.3304 -0.5188 -0.9477
  164DG      H5 3754   3.091   0.563   5.279  0.7009  0.6134 -0.2090
  164DG      H6 3755   2.483   0.682   4.670 -0.4774  0.2963 -0.4653
  164DG      H7 3756   2.476   0.785   4.826  1.1471  0.4579  0.2078
  164DG      H8 3757   2.602   0.798   4.707 -0.8090 -0.3005  0.5081
  164DG      O9 3758   2.912   0.562   5.177 -0.3812  0.1490  0.0336
  164DG     O10 3759   2.620   0.635   4.819 -0.0455  0.5201  0.2112
  164DG     C11 3760   2.886   0.426   5.206 -0.3045 -0.4133 -0.3150
  164DG     C12 3761   2.549   0.523   4.877  0.5753 -0.9656  0.0808
  164DG     H13 3762   2.842   0.412   5.305  1.7064 -0.8388  0.5598
  164DG     H14 3763   2.981   0.376   5.222 -0.3295  0.2798  2.6570
  164DG     H15 3764   2.478   0.481   4.806  0.9671  1.9354 -2.2573
  164DG     H16 3765   2.496   0.555   4.966  0.8888  1.1658 -0.4219
  164DG     C17 3766   2.791   0.371   5.099 -0.1385  0.2859  0.5744
  164DG     C18 3767   2.667   0.425   4.907  0.2665  0.0580  0.5412
  164DG     O19 3768   2.733   0.471   5.019 -0.0239  0.2058 -0.6229
  164DG     H20 3769   2.712   0.310   5.143 -0.6531  0.5268 -0.0026
  164DG     H21 3770   2.840   0.306   5.026 -0.8845  1.9322 -1.5064
  164DG     H22 3771   2.622   0.327   4.921  1.0403 -0.6685 -1.6344
  164DG     H23 3772   2.740   0.418   4.827  0.7405 -1.5843  1.0687
  165DG      C1 3773   2.628   2.775   1.098 -0.2385 -0.1621  0.2739
  165DG      C2 3774   2.979   2.236   0.906  0.4116 -0.1028  0.1123
  165DG      H3 3775   2.685   2.788   1.006 -0.8857  2.2310  0.1361
  165DG      H4 3776   2.632   2.867   1.157 -0.1521  0.0351 -0.0376
  165DG      H5 3777   2.522   2.761   1.076 -0.0634  0.1981 -0.8412
  165DG      H6 3778   3.052   2.156   0.906  0.1953 -0.3440 -1.5326
  165DG      H7 3779   2.875   2.212   0.885  0.1052  0.6622  0.7053
  165DG      H8 3780   3.016   2.315   0.839  0.3987  0.6086  0.9326
  165DG      O9 3781   2.673   2.661   1.174 -0.2381 -0.1063 -0.7568
  165DG     O10 3782   2.997   2.299   1.027 -0.5778  0.0150  0.8330
  165DG     C11 3783   2.651   2.532   1.113  0.1641 -0.1874  0.7962
  165DG     C12 3784   2.936   2.228   1.136 -0.2410 -0.1273  0.3257
  165DG     H13 3785   2.688   2.532   1.011  2.5297 -0.0148  1.6062
  165DG     H14 3786   2.543   2.515   1.105  0.7586 -4.0056 -1.5267
  165DG     H15 3787   3.012   2.152   1.155  0.1596  0.2733  0.3428
  165DG     H16 3788   2.845   2.173   1.112  0.7944 -0.7451 -2.6172
  165DG     C17 3789   2.712   2.415   1.188  0.7395  0.0626 -0.4732
  165DG     C18 3790   2.919   2.326   1.246  0.5426 -0.2648  0.8935
  165DG     O19 3791   2.851   2.440   1.198  0.3132 -0.2464 -0.2920
  165DG     H20 3792   2.690   2.328   1.127  2.2035 -0.3293 -0.4775
  165DG     H21 3793   2.683   2.400   1.293  1.9627 -2.2350 -0.3925
  165DG     H22 3794   2.866   2.280   1.330 -1.9660  0.6550 -0.0982
  165DG     H23 3795   3.016   2.354   1.289  0.4749  0.8798  0.3411
  166DG      C1 3796   5.371   0.602   2.435  0.0990  0.2405 -0.2369
  166DG      C2 3797   5.874   0.235   2.210  0.3040 -0.6615  0.4234
  166DG      H3 3798   5.299   0.530   2.472 -3.1903  3.8641  1.1416
  166DG      H4 3799   5.316   0.693   2.412  1.2370  0.3896 -2.6380
  166DG      H5 3800   5.442   0.642   2.508  0.5972  1.1647 -1.1950
  166DG      H6 3801   5.914   0.282   2.300  0.4383 -1.0438  0.5658
  166DG      H7 3802   5.826   0.141   2.239 -1.3231 -1.2614 -3.5399
  166DG      H8 3803   5.964   0.208   2.155 -0.9561  0.4234 -2.3568
  166DG      O9 3804   5.451   0.562   2.325  0.4276 -0.2584  0.0640
  166DG     O10 3805   5.796   0.333   2.149  0.6486  0.1035  0.6702
  166DG     C11 3806   5.366   0.544   2.210  0.4870 -0.4653 -0.8334
  166DG     C12 3807   5.736   0.281   2.034  0.7334 -0.2416 -0.3965
  166DG     H13 3808   5.326   0.642   2.183  0.7116  0.1604  0.9427
  166DG     H14 3809   5.281   0.478   2.228  0.7175 -1.0807 -1.9422
  166DG     H15 3810   5.705   0.177   2.045  1.1336 -0.2896  0.3547
  166DG     H16 3811   5.817   0.274   1.961  0.7581  0.3191 -0.4279
  166DG     C17 3812   5.447   0.492   2.093 -0.2757  0.1329  0.0264
  166DG     C18 3813   5.612   0.360   1.997  1.0464 -0.4600  0.0005
  166DG     O19 3814   5.531   0.381   2.112  0.5672 -0.1134 -0.6943
  166DG     H20 3815   5.496   0.572   2.037 -0.3289 -1.0629 -1.8189
  166DG     H21 3816   5.376   0.447   2.023 -0.1016 -0.1082  0.0026
  166DG     H22 3817   5.654   0.452   1.956  0.1476  0.4660  1.0935
  166DG     H23 3818   5.553   0.299   1.929  0.0455 -0.2582  0.6633
  167DG      C1 3819   0.872   0.354   3.128 -0.7503 -0.5088 -0.4645
  167DG      C2 3820   0.130   0.383   3.010  0.6416  0.2392 -0.1231
  167DG      H3 3821   0.969   0.333   3.083 -0.8994 -1.5093 -0.3353
  167DG      H4 3822   0.842   0.249   3.136  0.9320 -0.8681  2.1849
  167DG      H5 3823   0.881   0.398   3.227  0.3350  0.2132 -0.8711
  167DG      H6 3824   0.060   0.444   2.953 -0.0072  0.2415  0.6748
  167DG      H7 3825   0.092   0.283   3.028  0.2628  0.6186  1.2543
  167DG      H8 3826   0.128   0.433   3.107  3.9157  0.8847 -0.2623
  167DG      O9 3827   0.768   0.414   3.057  0.3629  0.3139 -0.2034
  167DG     O10 3828   0.246   0.378   2.933  0.2297 -0.3929 -0.1810
  167DG     C11 3829   0.756   0.360   2.925  0.2593  0.1749 -0.1282
  167DG     C12 3830   0.338   0.285   2.983  0.2524 -0.6534 -0.6505
  167DG     H13 3831   0.734   0.253   2.932  2.8017 -0.4468 -0.6641
  167DG     H14 3832   0.848   0.363   2.866 -0.5061  0.9685 -1.3127
  167DG     H15 3833   0.288   0.189   2.993 -1.5039  0.3511  0.6943
  167DG     H16 3834   0.362   0.307   3.086 -1.5731  0.8129 -0.4776
  167DG     C17 3835   0.640   0.429   2.852 -0.1180  0.1111 -0.5013
  167DG     C18 3836   0.470   0.281   2.910  0.2781 -0.2023  0.2887
  167DG     O19 3837   0.515   0.415   2.915 -0.8479 -0.1487  0.3189
  167DG     H20 3838   0.639   0.385   2.752 -0.1193 -2.2200  0.4519
  167DG     H21 3839   0.647   0.538   2.850  2.8233  0.1244  2.0965
  167DG     H22 3840   0.538   0.210   2.958 -0.7078 -0.1051  1.9268
  167DG     H23 3841   0.445   0.251   2.809  1.2099 -1.4775  0.4080
  168DG      C1 3842   3.261   2.810   3.933  0.5893  0.1416 -0.0284
  168DG      C2 3843   3.727   2.667   3.483 -0.1540  0.0880 -0.1514
  168DG      H3 3844   3.174   2.788   3.994 -1.2804 -3.3352 -3.4907
  168DG      H4 3845   3.252   2.877   3.848  0.4155 -0.3699 -0.4212
  168DG      H5 3846   3.341   2.840   4.001  0.6151 -2.4835  1.2369
  168DG      H6 3847   3.797   2.614   3.419  1.0722  1.3187  0.1076
  168DG      H7 3848   3.675   2.740   3.421  2.1187 -1.0635 -3.6616
  168DG      H8 3849   3.787   2.729   3.550 -1.4217  0.6038  0.5552
  168DG      O9 3850   3.310   2.693   3.868 -0.2666  0.0006 -0.1848
  168DG     O10 3851   3.633   2.592   3.556  0.7032  0.6813  0.3916
  168DG     C11 3852   3.208   2.626   3.795  0.2983 -0.1053  0.3010
  168DG     C12 3853   3.529   2.532   3.475  0.7727 -0.3043  0.7208
  168DG     H13 3854   3.153   2.700   3.737 -0.7730 -1.6987 -0.7755
  168DG     H14 3855   3.138   2.584   3.868  1.4102 -1.3994  0.6602
  168DG     H15 3856   3.563   2.466   3.396 -1.9003  0.2787 -1.0722
  168DG     H16 3857   3.470   2.608   3.423 -0.6867 -2.1133 -0.3775
  168DG     C17 3858   3.253   2.519   3.702  0.4888  0.2326 -0.1046
  168DG     C18 3859   3.436   2.451   3.560 -0.1242 -0.2405 -0.8306
  168DG     O19 3860   3.378   2.555   3.651  0.0497  0.7696  0.4232
  168DG     H20 3861   3.175   2.504   3.628  0.5680 -0.3079 -0.0828
  168DG     H21 3862   3.266   2.419   3.744  3.1828 -0.1185 -1.5432
  168DG     H22 3863   3.362   2.396   3.502 -0.2453  1.4789 -2.3905
  168DG     H23 3864   3.492   2.381   3.622 -1.8621  0.3384  1.5344
  169DG      C1 3865   3.068   1.495   3.056  0.0452 -0.2529 -0.5747
  169DG      C2 3866   3.003   1.442   3.681 -0.0313 -0.0178 -0.3906
  169DG      H3 3867   3.151   1.476   2.988  0.0638 -1.7776 -0.1701
  169DG      H4 3868   3.076   1.599   3.087  4.3609  0.7267 -4.0348
  169DG      H5 3869   2.970   1.493   3.008 -1.5845  0.7498  2.4606
  169DG      H6 3870   2.898   1.418   3.697 -0.6712  2.1932 -0.9271
  169DG      H7 3871   3.061   1.405   3.766 -0.0918 -1.9444 -1.1387
  169DG      H8 3872   3.009   1.550   3.668  0.5593  0.2337  1.5993
  169DG      O9 3873   3.079   1.407   3.161  0.2673  0.0979 -0.1093
  169DG     O10 3874   3.041   1.371   3.564 -0.5128  0.1000 -0.3268
  169DG     C11 3875   3.066   1.268   3.118  0.0302  0.0542 -0.2773
  169DG     C12 3876   3.054   1.229   3.587 -0.3725  0.0576 -0.2714
  169DG     H13 3877   3.112   1.250   3.021  2.0207 -0.4496  0.6992
  169DG     H14 3878   2.959   1.260   3.097  0.1363  0.5738 -1.0526
  169DG     H15 3879   2.956   1.182   3.594  0.4766 -1.8452 -0.6046
  169DG     H16 3880   3.092   1.207   3.686 -1.1987  0.0807  0.0630
  169DG     C17 3881   3.123   1.172   3.225 -0.1472  0.1914 -0.1133
  169DG     C18 3882   3.120   1.159   3.467 -0.5272  0.1634  0.0386
  169DG     O19 3883   3.050   1.194   3.343 -0.2953  0.4978  0.0674
  169DG     H20 3884   3.226   1.201   3.247 -0.5772  1.2150  0.6041
  169DG     H21 3885   3.127   1.066   3.199  2.7572  0.2229 -0.1725
  169DG     H22 3886   3.220   1.202   3.466 -0.8520  1.0083  1.1605
  169DG     H23 3887   3.126   1.051   3.474  2.8133  0.2051 -0.6919
  170DG      C1 3888   1.544   2.040   4.363  0.3145  0.6180  0.0996
  170DG      C2 3889   1.145   2.208   3.798  0.1810 -0.0896  0.5929
  170DG      H3 3890   1.584   2.123   4.421  1.2463 -0.6378  1.3289
  170DG      H4 3891   1.617   1.992   4.299  0.4094  3.2989 -1.9840
  170DG      H5 3892   1.510   1.969   4.438 -1.2452  0.0887 -1.0477
  170DG      H6 3893   1.081   2.130   3.758 -1.1558  0.9371  0.6467
  170DG      H7 3894   1.089   2.301   3.787  0.2816 -0.2408 -1.6013
  170DG      H8 3895   1.237   2.203   3.741  0.1362  1.7301  0.2914
  170DG      O9 3896   1.429   2.059   4.282 -0.3147  0.5085 -0.4036
  170DG     O10 3897   1.167   2.177   3.939 -0.0740  0.1988 -0.1288
  170DG     C11 3898   1.329   2.127   4.361  0.1249 -0.3675  0.1423
  170DG     C12 3899   1.052   2.172   4.015 -0.1347 -0.5731  0.5033
  170DG     H13 3900   1.377   2.217   4.400  3.6663 -2.4442  0.9364
  170DG     H14 3901   1.303   2.063   4.445  1.2789  0.5776  1.2665
  170DG     H15 3902   0.960   2.146   3.964 -1.6964 -0.8430  3.2778
  170DG     H16 3903   1.032   2.268   4.061  0.4439 -1.3223  2.4296
  170DG     C17 3904   1.208   2.177   4.284  0.1795  0.2249 -0.1878
  170DG     C18 3905   1.051   2.068   4.127  0.1527 -0.5007 -1.3192
  170DG     O19 3906   1.176   2.065   4.195 -0.7891  0.0936 -0.8184
  170DG     H20 3907   1.232   2.262   4.220  1.5174 -0.1103 -0.1470
  170DG     H21 3908   1.119   2.205   4.341 -0.3803  0.7647 -1.2906
  170DG     H22 3909   0.974   2.089   4.202  0.0064  0.2204 -1.6681
  170DG     H23 3910   1.025   1.966   4.097  2.1039 -1.8779  1.2016
  171DG      C1 3911   5.054   4.969   0.398 -0.6996 -0.2290  0.5435
  171DG      C2 3912   5.569   4.979  -0.103  0.1004  0.5914  0.8685
  171DG      H3 3913   5.060   4.860   0.403  0.9187 -0.1974 -0.1099
  171DG      H4 3914   4.952   4.999   0.379 -0.4205  0.8848  0.7529
  171DG      H5 3915   5.069   5.003   0.501 -0.4192 -1.6941  1.0231
  171DG      H6 3916   5.575   4.874  -0.074 -0.1262  1.0625  2.7261
  171DG      H7 3917   5.509   5.000  -0.191  3.3863  1.5752 -1.3467
  171DG      H8 3918   5.669   5.021  -0.111  0.7604 -0.9048  0.9114
  171DG      O9 3919   5.163   5.025   0.328 -0.2785 -1.0297  0.3403
  171DG     O10 3920   5.505   5.039   0.008  0.0025 -0.3311 -0.1021
  171DG     C11 3921   5.148   5.167   0.320 -0.1569  0.0295  0.4017
  171DG     C12 3922   5.501   5.179   0.008 -0.0176  0.6766 -0.0164
  171DG     H13 3923   5.125   5.210   0.417  2.1093 -1.0151  1.4714
  171DG     H14 3924   5.068   5.190   0.250  0.0338 -0.5154 -0.0073
  171DG     H15 3925   5.417   5.213  -0.051 -1.6229  1.6086  2.6283
  171DG     H16 3926   5.593   5.227  -0.025 -0.5746  0.9164 -1.2527
  171DG     C17 3927   5.271   5.246   0.281 -0.9864 -0.2237 -0.1141
  171DG     C18 3928   5.467   5.221   0.156 -0.5924 -0.0150 -0.3098
  171DG     O19 3929   5.344   5.157   0.194 -0.0421  0.1803 -0.0094
  171DG     H20 3930   5.329   5.268   0.370  1.4425 -0.2807 -1.6012
  171DG     H21 3931   5.240   5.336   0.229 -2.1717 -0.4275  0.2012
  171DG     H22 3932   5.543   5.184   0.225 -1.2694  1.1153  1.0958
  171DG     H23 3933   5.471   5.330   0.166  1.3154 -0.0906  0.2689
  172DG      C1 3934   0.026   0.045   4.115 -0.0521 -0.1999  0.3074
  172DG      C2 3935  -0.422  -0.110   4.495 -0.2324  0.0586  0.0942
  172DG      H3 3936  -0.037   0.083   4.035 -1.4964  3.0182  2.7676
  172DG      H4 3937   0.042  -0.062   4.099 -0.4939 -0.5863  2.1827
  172DG      H5 3938   0.121   0.093   4.090  0.4974 -1.4951 -0.1790
  172DG      H6 3939  -0.345  -0.181   4.466 -0.8568 -0.2351 -0.8968
  172DG      H7 3940  -0.454  -0.119   4.599  1.4832  1.1839  0.7672
  172DG      H8 3941  -0.511  -0.120   4.433 -0.3441 -2.4945  0.5593
  172DG      O9 3942  -0.008   0.094   4.239  0.5959  0.6718  0.3076
  172DG     O10 3943  -0.369   0.018   4.471 -0.3667 -0.0391 -0.0358
  172DG     C11 3944  -0.037   0.224   4.231  0.7636 -0.3734  0.5302
  172DG     C12 3945  -0.296   0.055   4.588 -0.3559  0.1104 -0.4424
  172DG     H13 3946  -0.124   0.239   4.166  1.4891  0.4543 -0.2717
  172DG     H14 3947   0.039   0.291   4.192  1.2960 -0.2641  1.7163
  172DG     H15 3948  -0.225  -0.024   4.610 -0.2381  0.2305 -0.3894
  172DG     H16 3949  -0.362   0.075   4.673  0.7523 -0.8474  0.6749
  172DG     C17 3950  -0.087   0.271   4.365  0.5398 -0.5571  0.6493
  172DG     C18 3951  -0.226   0.186   4.548 -0.2604  0.6093 -0.5624
  172DG     O19 3952  -0.151   0.164   4.428 -0.2678  0.2091  0.0743
  172DG     H20 3953  -0.147   0.362   4.367 -0.6802 -1.3428  1.1127
  172DG     H21 3954  -0.005   0.308   4.426  1.2631 -1.7860  0.4475
  172DG     H22 3955  -0.296   0.267   4.526 -1.3712  0.1609  1.1797
  172DG     H23 3956  -0.151   0.219   4.621 -1.4813 -1.1023  1.5802
  173DG      C1 3957   5.000   3.443   3.119 -0.4001 -0.3440 -0.6706
  173DG      C2 3958   5.472   3.618   2.753 -0.0182 -0.3031  0.1885
  173DG      H3 3959   5.003   3.535   3.177 -1.7098  0.3518 -1.6559
  173DG      H4 3960   4.957   3.366   3.184  1.6280 -0.3368  0.7899
  173DG      H5 3961   4.938   3.455   3.030  0.0594  2.3408 -0.6827
  173DG      H6 3962   5.580   3.632   2.758  0.0281 -0.7226  0.3806
  173DG      H7 3963   5.454   3.568   2.658 -0.1855 -0.2598  0.1970
  173DG      H8 3964   5.438   3.722   2.754  0.5723 -0.0852 -0.7167
  173DG      O9 3965   5.129   3.402   3.096 -0.2887 -0.0439  0.5025
  173DG     O10 3966   5.432   3.543   2.859  0.4602  0.2705  0.2901
  173DG     C11 3967   5.194   3.336   3.210  0.6693 -0.1209 -0.2380
  173DG     C12 3968   5.487   3.583   2.990  0.4606  0.1785  0.2551
  173DG     H13 3969   5.141   3.246   3.243  0.5852 -0.3670 -1.0077
  173DG     H14 3970   5.195   3.395   3.301 -0.4110  0.4261 -0.5626
  173DG     H15 3971   5.455   3.686   3.005 -0.7524 -0.3887  1.8504
  173DG     H16 3972   5.596   3.584   2.990  0.4785  0.5237 -1.0252
  173DG     C17 3973   5.324   3.290   3.154 -0.3517  0.2327  0.2837
  173DG     C18 3974   5.425   3.504   3.107  0.1733  0.2313 -0.0189
  173DG     O19 3975   5.386   3.379   3.055  0.5183  0.1967 -0.4193
  173DG     H20 3976   5.313   3.202   3.091  2.8366  0.6631 -1.0881
  173DG     H21 3977   5.399   3.276   3.232 -0.7691  2.1284  1.0773
  173DG     H22 3978   5.507   3.486   3.177  1.0851  1.0979 -0.8381
  173DG     H23 3979   5.342   3.554   3.157  1.4775  0.0744  2.4463
  174DG      C1 3980   4.951   5.292   3.729  0.5964  0.4488  0.5141
  174DG      C2 3981   4.907   5.699   3.218 -0.0355 -0.2573 -0.8188
  174DG      H3 3982   5.055   5.298   3.759  1.2803 -0.1038 -1.6243
  174DG      H4 3983   4.907   5.202   3.773  1.2237 -1.1275 -1.8782
  174DG      H5 3984   4.898   5.379   3.769  0.1264  0.3175  0.1908
  174DG      H6 3985   4.869   5.741   3.312  2.7895 -2.1496  1.3412
  174DG      H7 3986   5.010   5.734   3.227 -0.1800 -0.1731  1.0007
  174DG      H8 3987   4.854   5.739   3.132 -0.9688  1.0744  0.3205
  174DG      O9 3988   4.927   5.292   3.589 -0.4612  0.3451  0.1940
  174DG     O10 3989   4.889   5.559   3.230  0.0834  0.3403 -0.3549
  174DG     C11 3990   5.007   5.188   3.526 -0.0934 -0.2028  0.2847
  174DG     C12 3991   4.969   5.474   3.143 -1.0387  0.2957  0.1026
  174DG     H13 3992   4.982   5.087   3.557 -1.4418 -1.1090 -3.2569
  174DG     H14 3993   5.107   5.211   3.562  0.6027 -2.8664  0.2607
  174DG     H15 3994   5.071   5.512   3.137 -0.2718 -1.7128 -0.3272
  174DG     H16 3995   4.933   5.482   3.041  1.0892  0.0671 -0.7239
  174DG     C17 3996   4.991   5.185   3.376  0.0576  0.5018 -0.0678
  174DG     C18 3997   4.988   5.323   3.188  0.2193 -0.3484  0.6741
  174DG     O19 3998   4.987   5.321   3.327 -0.3512  0.4030  0.1192
  174DG     H20 3999   4.888   5.153   3.361  0.1553  0.0085  0.3088
  174DG     H21 4000   5.062   5.115   3.333  0.6146  0.1697  1.3242
  174DG     H22 4001   4.907   5.265   3.144  0.2957 -0.2235  0.3693
  174DG     H23 4002   5.081   5.291   3.141  0.5029  0.2122  0.8458
  175DG      C1 4003   1.001   3.132   3.889  0.1843  0.5561  0.7014
  175DG      C2 4004   0.402   2.811   3.901 -0.0936 -0.2742 -0.0839
  175DG      H3 4005   1.079   3.129   3.965 -0.7616 -0.5480  1.6650
  175DG      H4 4006   0.995   3.232   3.848  0.5006  1.3897  2.5683
  175DG      H5 4007   1.018   3.066   3.804 -0.0365  0.0327  1.0569
  175DG      H6 4008   0.389   2.791   3.795  1.0944  0.7924 -0.4558
  175DG      H7 4009   0.398   2.710   3.944  0.5277 -0.2763 -0.0204
  175DG      H8 4010   0.306   2.858   3.923  0.6303  1.4402 -0.5009
  175DG      O9 4011   0.875   3.105   3.943 -0.0904  0.3084  0.5862
  175DG     O10 4012   0.515   2.884   3.924  0.1362  0.5097  0.1363
  175DG     C11 4013   0.835   3.210   4.029  0.4035 -0.0597 -0.0108
  175DG     C12 4014   0.539   2.907   4.064  0.3696  0.1093  0.4228
  175DG     H13 4015   0.805   3.301   3.977 -0.1657  0.6708  1.5294
  175DG     H14 4016   0.915   3.232   4.099  0.2190 -1.7969  0.8236
  175DG     H15 4017   0.637   2.874   4.097  1.2428  1.1892 -0.9947
  175DG     H16 4018   0.475   2.852   4.134  1.2977  1.0548  2.0694
  175DG     C17 4019   0.722   3.155   4.113 -0.4596  0.4542  0.8719
  175DG     C18 4020   0.518   3.053   4.078 -0.3832 -0.5408  0.1462
  175DG     O19 4021   0.623   3.133   4.021  0.2507  0.1074  0.4186
  175DG     H20 4022   0.688   3.235   4.179  1.0956  0.3055  1.9142
  175DG     H21 4023   0.751   3.065   4.168 -0.3347  0.0775  0.2015
  175DG     H22 4024   0.427   3.079   4.023  0.7906 -0.3231 -1.7742
  175DG     H23 4025   0.493   3.078   4.181 -3.4289  3.7191 -1.3222
  176DG      C1 4026   1.309   3.670   2.801  0.1746  0.3348 -0.0751
  176DG      C2 4027   0.734   3.331   2.767  0.2152  0.4371  0.3880
  176DG      H3 4028   1.370   3.580   2.800 -0.3183 -0.0259 -2.5565
  176DG      H4 4029   1.281   3.699   2.903 -0.2539  1.0122 -0.3788
  176DG      H5 4030   1.370   3.754   2.766 -0.2439  0.3801 -0.7003
  176DG      H6 4031   0.805   3.249   2.756 -0.2677  0.2470 -1.5842
  176DG      H7 4032   0.721   3.366   2.870  1.2797 -0.6819  0.9328
  176DG      H8 4033   0.639   3.300   2.722  0.9477  0.4874 -1.2573
  176DG      O9 4034   1.193   3.658   2.724  0.0074 -0.1158  0.6286
  176DG     O10 4035   0.793   3.434   2.697 -0.4411 -0.2713 -0.2744
  176DG     C11 4036   1.129   3.785   2.706  0.7929 -0.2512 -0.4528
  176DG     C12 4037   0.713   3.554   2.708 -0.0427  0.4412  0.2872
  176DG     H13 4038   1.198   3.852   2.655  2.4831 -2.3893 -1.1858
  176DG     H14 4039   1.111   3.832   2.802 -3.5537  1.4027 -1.8334
  176DG     H15 4040   0.720   3.587   2.812  1.9259  3.7285 -0.7395
  176DG     H16 4041   0.613   3.542   2.667 -0.5003  0.6408  1.3041
  176DG     C17 4042   0.996   3.769   2.631  0.2967  0.0819 -0.1388
  176DG     C18 4043   0.792   3.666   2.634  0.3691 -0.4423  0.8681
  176DG     O19 4044   0.910   3.687   2.709  0.5327  0.3089 -0.1205
  176DG     H20 4045   1.011   3.708   2.542 -0.0366 -0.3551  0.0955
  176DG     H21 4046   0.947   3.863   2.608 -0.3739 -0.4333 -0.8690
  176DG     H22 4047   0.806   3.627   2.534 -2.4437 -1.9859  0.9684
  176DG     H23 4048   0.737   3.759   2.623  1.0846 -0.0523  0.5167
  177DG      C1 4049   5.090   3.890   4.294 -0.8950  0.5252  0.5927
  177DG      C2 4050   4.924   4.539   4.705 -0.1022  0.1431  0.0178
  177DG      H3 4051   5.178   3.826   4.293 -0.3262  1.2226 -2.5127
  177DG      H4 4052   5.111   3.985   4.246  3.2291 -0.5053 -0.0436
  177DG      H5 4053   5.014   3.836   4.237  0.4872  0.5344 -1.3542
  177DG      H6 4054   4.921   4.551   4.813  1.6188  0.8218  0.0114
  177DG      H7 4055   5.027   4.539   4.670 -0.6092  0.5561 -1.5400
  177DG      H8 4056   4.862   4.613   4.654  0.1046  0.3282  0.0337
  177DG      O9 4057   5.058   3.919   4.426 -0.0212  0.3827 -0.4233
  177DG     O10 4058   4.869   4.409   4.689  0.0284 -0.4344 -0.3608
  177DG     C11 4059   4.923   3.923   4.462  0.3619  0.0880  0.5093
  177DG     C12 4060   4.944   4.319   4.768 -1.0050  0.5768 -0.3042
  177DG     H13 4061   4.882   3.823   4.453  2.0273 -0.4890 -1.6286
  177DG     H14 4062   4.867   3.978   4.386 -1.5403 -1.1294  0.9749
  177DG     H15 4063   4.929   4.335   4.875 -3.1082  0.5496 -0.5534
  177DG     H16 4064   5.050   4.344   4.771 -1.0669  1.0355 -1.4112
  177DG     C17 4065   4.908   3.984   4.601  0.5776  0.5092  0.8585
  177DG     C18 4066   4.910   4.166   4.733  0.0374 -0.4328 -0.6541
  177DG     O19 4067   4.956   4.113   4.609  0.5267  0.0793  0.6418
  177DG     H20 4068   4.974   3.926   4.666 -1.4242 -1.2029  1.4746
  177DG     H21 4069   4.808   3.965   4.641  0.4431  0.8759  0.6993
  177DG     H22 4070   4.963   4.105   4.807 -1.9991 -1.6515 -0.1078
  177DG     H23 4071   4.803   4.149   4.745 -0.3580  1.4746 -1.1594
  178DG      C1 4072   3.890   4.979   3.285 -0.5809  0.7591  0.7580
  178DG      C2 4073   3.353   4.631   3.333 -0.0385  0.5970  0.0777
  178DG      H3 4074   3.851   5.062   3.225 -3.4050  0.3020  1.8123
  178DG      H4 4075   3.901   4.895   3.217 -1.1486  1.3014 -0.0263
  178DG      H5 4076   3.993   5.005   3.309 -0.1219  0.8522 -1.0891
  178DG      H6 4077   3.266   4.613   3.396 -0.0568  0.9280  0.1493
  178DG      H7 4078   3.308   4.682   3.248 -0.2614  1.8249  0.9008
  178DG      H8 4079   3.388   4.530   3.314 -2.3439 -0.3390  0.5117
  178DG      O9 4080   3.815   4.946   3.401 -0.1081 -0.1504  0.3418
  178DG     O10 4081   3.438   4.714   3.410  0.2945  0.2117 -0.6129
  178DG     C11 4082   3.886   4.836   3.466  0.4494 -0.5739  0.0488
  178DG     C12 4083   3.459   4.667   3.544  0.2696 -0.1231  1.2433
  178DG     H13 4084   3.982   4.868   3.506  0.9584 -0.0219 -1.5640
  178DG     H14 4085   3.923   4.758   3.400  0.4368 -0.5515  0.0153
  178DG     H15 4086   3.497   4.566   3.533  3.9150  0.9128  2.7935
  178DG     H16 4087   3.367   4.660   3.602 -1.0637 -0.6903 -0.8663
  178DG     C17 4088   3.804   4.776   3.574  0.2141 -0.0336 -0.0226
  178DG     C18 4089   3.565   4.752   3.608  0.2330  0.0357  0.1420
  178DG     O19 4090   3.680   4.726   3.524 -0.2998 -0.6524 -0.5730
  178DG     H20 4091   3.792   4.850   3.653 -0.0417 -0.8082  0.6740
  178DG     H21 4092   3.854   4.691   3.621  1.4971  0.2554 -0.8067
  178DG     H22 4093   3.544   4.858   3.613  0.2875  0.0386  0.3321
  178DG     H23 4094   3.569   4.724   3.714 -3.8077 -1.4832  0.0797
  179DG      C1 4095   3.254   2.573   2.553  0.3985 -0.4104 -0.0105
  179DG      C2 4096   3.277   2.772   1.911  0.3998 -0.0078  0.1342
  179DG      H3 4097   3.359   2.601   2.538 -0.6308  3.2149 -1.5134
  179DG      H4 4098   3.249   2.514   2.644 -0.9654 -0.3496 -0.0355
  179DG      H5 4099   3.191   2.662   2.561 -2.0132 -1.9774 -0.6642
  179DG      H6 4100   3.370   2.826   1.930  0.5364 -0.3256  0.3877
  179DG      H7 4101   3.256   2.768   1.804  0.4556 -0.1216  0.1273
  179DG      H8 4102   3.197   2.821   1.966 -1.0251 -0.0895 -1.7833
  179DG      O9 4103   3.209   2.505   2.439  0.1736  0.1375 -1.0290
  179DG     O10 4104   3.297   2.639   1.959  0.3502  0.4740 -0.2745
  179DG     C11 4105   3.296   2.402   2.385 -1.0160 -0.1713  0.1408
  179DG     C12 4106   3.184   2.550   1.935  0.2124  0.2918 -0.6545
  179DG     H13 4107   3.303   2.318   2.454 -0.3024  0.6993  1.1699
  179DG     H14 4108   3.397   2.442   2.378 -1.3878  0.4811 -2.4529
  179DG     H15 4109   3.183   2.503   1.837 -2.1965 -0.6435 -0.2525
  179DG     H16 4110   3.088   2.598   1.956 -0.8079 -1.4791 -1.0925
  179DG     C17 4111   3.253   2.355   2.248 -0.1094 -0.2753 -1.0118
  179DG     C18 4112   3.210   2.427   2.033 -0.2997 -0.6986  0.2529
  179DG     O19 4113   3.250   2.461   2.157 -0.1475 -0.1159  0.9357
  179DG     H20 4114   3.152   2.315   2.261 -0.2127  0.2465 -0.1519
  179DG     H21 4115   3.312   2.267   2.221 -3.3937 -2.4901 -1.5591
  179DG     H22 4116   3.121   2.365   2.043 -1.0975  0.7124  2.3340
  179DG     H23 4117   3.275   2.351   1.990 -0.7671 -1.3255  0.6341
  180DG      C1 4118   4.082   0.523   2.363  0.0604 -0.2847 -0.4972
  180DG      C2 4119   3.983   0.404   2.887  0.3520  0.7240 -0.1438
  180DG      H3 4120   4.115   0.580   2.276  0.9819  3.0474  1.8357
  180DG      H4 4121   4.094   0.417   2.344 -0.7816 -0.4379 -0.1974
  180DG      H5 4122   4.157   0.554   2.437  0.9923 -0.7888 -1.2150
  180DG      H6 4123   4.016   0.448   2.981  1.5083 -0.1278 -0.1158
  180DG      H7 4124   3.984   0.295   2.886 -0.9147  0.6729  1.2427
  180DG      H8 4125   4.061   0.440   2.819  0.7656  0.5320  0.2171
  180DG      O9 4126   3.947   0.535   2.399  0.4430 -0.1617  0.0352
  180DG     O10 4127   3.849   0.439   2.834 -0.0867  0.9687  0.0505
  180DG     C11 4128   3.911   0.668   2.430  0.3517 -0.5518  0.1194
  180DG     C12 4129   3.807   0.568   2.874 -0.1407 -0.0980 -0.2685
  180DG     H13 4130   3.804   0.657   2.413  0.0785  1.1858  0.5007
  180DG     H14 4131   3.945   0.745   2.360 -0.0218  1.7852  2.3511
  180DG     H15 4132   3.815   0.579   2.982 -3.1422 -2.4895  0.3079
  180DG     H16 4133   3.704   0.576   2.841  0.2969  1.9482 -1.3499
  180DG     C17 4134   3.940   0.714   2.576  0.0945 -0.2923 -0.1860
  180DG     C18 4135   3.869   0.682   2.793 -0.3124 -0.0838  0.2099
  180DG     O19 4136   3.853   0.644   2.663  0.0000  0.0858 -0.1905
  180DG     H20 4137   3.909   0.819   2.581  0.4248 -0.1432 -1.0802
  180DG     H21 4138   4.043   0.698   2.607  0.1172 -2.4236 -1.2304
  180DG     H22 4139   3.810   0.771   2.810  1.3985  0.9424  1.1220
  180DG     H23 4140   3.974   0.692   2.824 -0.5336  1.2613  0.5914
  181DG      C1 4141   2.005   4.122   1.645 -0.1575  0.0751 -0.2078
  181DG      C2 4142   2.275   4.329   1.139  1.0287  0.0869 -0.0005
  181DG      H3 4143   1.911   4.147   1.693  1.0735  1.5409  1.5895
  181DG      H4 4144   2.075   4.068   1.710  0.8566 -2.3681 -3.0841
  181DG      H5 4145   1.993   4.056   1.559 -0.8130 -0.6763  0.4554
  181DG      H6 4146   2.248   4.224   1.124 -1.6370  0.3117  2.3068
  181DG      H7 4147   2.192   4.389   1.101 -0.2405 -2.0456 -0.8056
  181DG      H8 4148   2.361   4.361   1.080 -0.3669 -0.2328 -2.3511
  181DG      O9 4149   2.063   4.239   1.590  0.1175 -0.1591 -0.0490
  181DG     O10 4150   2.298   4.369   1.270 -0.4728 -0.1171 -0.1604
  181DG     C11 4151   2.086   4.332   1.694 -0.4163 -0.5558 -0.1486
  181DG     C12 4152   2.322   4.507   1.302 -0.3182 -0.6306  0.2869
  181DG     H13 4153   2.100   4.296   1.796  1.1836 -1.3924 -0.6257
  181DG     H14 4154   1.991   4.384   1.695 -0.4018 -0.0335 -4.8881
  181DG     H15 4155   2.262   4.582   1.250  1.4739  0.9914  0.4523
  181DG     H16 4156   2.426   4.533   1.285 -0.2842 -1.3077 -0.6692
  181DG     C17 4157   2.194   4.427   1.644  0.5426 -0.6978  0.0633
  181DG     C18 4158   2.312   4.509   1.451 -0.9038 -0.1874  0.1283
  181DG     O19 4159   2.192   4.449   1.502 -0.4165 -0.6691 -0.1754
  181DG     H20 4160   2.288   4.378   1.666  1.9357  1.5379 -0.6164
  181DG     H21 4161   2.192   4.521   1.699  0.2058  0.8535 -2.4207
  181DG     H22 4162   2.404   4.475   1.499 -1.2853 -0.0821  0.9520
  181DG     H23 4163   2.307   4.612   1.486 -0.2781  0.5551 -1.8364
  182DG      C1 4164   2.990   0.904   0.685  0.3771 -0.1407  0.0556
  182DG      C2 4165   3.634   1.248   0.611  0.4000 -0.2701  0.7072
  182DG      H3 4166   2.958   0.916   0.581 -2.5587 -2.6232  0.5455
  182DG      H4 4167   2.939   0.977   0.747 -0.9685 -0.4099 -0.6961
  182DG      H5 4168   2.950   0.809   0.719  0.2082 -0.3990 -0.8305
  182DG      H6 4169   3.742   1.236   0.613  0.2564 -1.5924  0.9556
  182DG      H7 4170   3.617   1.243   0.503  0.7564 -2.2617  0.7007
  182DG      H8 4171   3.593   1.341   0.652 -1.6618 -0.3352 -0.9904
  182DG      O9 4172   3.129   0.895   0.695 -0.0128 -0.3295 -0.1341
  182DG     O10 4173   3.572   1.131   0.674 -0.5772 -0.4032 -0.1406
  182DG     C11 4174   3.182   0.790   0.620  0.4637  0.1874 -0.3550
  182DG     C12 4175   3.620   1.002   0.625  0.3176 -0.1218 -0.5623
  182DG     H13 4176   3.157   0.812   0.516 -1.0018  1.9724  0.2963
  182DG     H14 4177   3.131   0.700   0.652 -0.0077  0.2674 -0.8633
  182DG     H15 4178   3.726   0.981   0.629  0.2796 -0.1101  1.3589
  182DG     H16 4179   3.594   1.012   0.520  2.1090  1.2879 -0.9182
  182DG     C17 4180   3.333   0.780   0.650  0.3996 -0.0611  0.2773
  182DG     C18 4181   3.530   0.893   0.689 -0.4433 -0.0690  0.4316
  182DG     O19 4182   3.392   0.906   0.651 -0.5645 -0.9380  0.6328
  182DG     H20 4183   3.392   0.714   0.586  1.4379  0.5108  0.6210
  182DG     H21 4184   3.336   0.736   0.750 -0.7722  1.1014  0.8506
  182DG     H22 4185   3.579   0.803   0.651 -2.1692 -0.5550 -0.7489
  182DG     H23 4186   3.553   0.887   0.796 -0.2469 -1.0689  0.3440
  183DG      C1 4187   2.697   1.209   3.493  0.0950 -0.0715  0.6798
  183DG      C2 4188   3.135   1.683   3.398  0.3204  0.6317 -0.0378
  183DG      H3 4189   2.766   1.153   3.431 -1.2584  1.1042 -2.0539
  183DG      H4 4190   2.610   1.143   3.490 -0.1631  0.2561  0.8200
  183DG      H5 4191   2.741   1.204   3.593 -1.5936  2.9618  1.7253
  183DG      H6 4192   3.194   1.592   3.413  1.9745  2.0302  2.6130
  183DG      H7 4193   3.129   1.720   3.296 -0.5857  0.7370  0.0455
  183DG      H8 4194   3.171   1.765   3.459 -3.2965  0.4288  2.7226
  183DG      O9 4195   2.679   1.344   3.447 -0.3735 -0.1082 -0.2694
  183DG     O10 4196   3.002   1.651   3.432  0.2722  0.0604  0.3546
  183DG     C11 4197   2.604   1.420   3.536  0.4444  0.8297  0.0185
  183DG     C12 4198   2.915   1.761   3.410  0.1087 -0.0965 -0.1987
  183DG     H13 4199   2.644   1.407   3.637 -0.1176 -1.1841  0.0138
  183DG     H14 4200   2.500   1.388   3.540  0.3615  0.1045 -4.2350
  183DG     H15 4201   2.879   1.756   3.307  0.2484 -2.9095 -0.1858
  183DG     H16 4202   2.951   1.859   3.440  0.9911 -0.4820  0.0361
  183DG     C17 4203   2.604   1.568   3.501 -0.5745  0.2141 -0.4723
  183DG     C18 4204   2.781   1.741   3.483  0.3999  0.5219  0.3304
  183DG     O19 4205   2.736   1.605   3.456  0.1789 -0.8081 -0.0721
  183DG     H20 4206   2.569   1.637   3.578 -1.0312  2.6596 -2.7152
  183DG     H21 4207   2.529   1.581   3.423 -1.6034 -2.7627 -0.1121
  183DG     H22 4208   2.788   1.746   3.591  0.4159  0.2827  0.3405
  183DG     H23 4209   2.703   1.801   3.436  0.1570 -0.5747 -0.7264
  184DG      C1 4210   1.586   1.714   0.788 -0.3370 -0.2736 -0.2169
  184DG      C2 4211   1.000   1.583   1.083 -0.0035 -0.5902  0.1954
  184DG      H3 4212   1.662   1.636   0.780 -0.5323 -0.5119  0.2080
  184DG      H4 4213   1.646   1.796   0.826 -0.1859 -0.8524  0.8565
  184DG      H5 4214   1.539   1.729   0.691 -0.0977 -0.8329 -0.4258
  184DG      H6 4215   0.973   1.557   0.980 -1.7943  0.8820  0.2314
  184DG      H7 4216   1.024   1.498   1.147  0.9450  0.0644  0.7345
  184DG      H8 4217   0.913   1.628   1.130  0.5442 -0.0478  0.7053
  184DG      O9 4218   1.483   1.685   0.878  0.2256 -0.2966  0.1637
  184DG     O10 4219   1.106   1.677   1.089  0.3029  0.5357  0.4934
  184DG     C11 4220   1.530   1.672   1.010  0.0021  0.2102 -0.2527
  184DG     C12 4221   1.139   1.720   1.217 -0.0260  0.3367 -0.4993
  184DG     H13 4222   1.595   1.754   1.039  0.7587 -0.5233  0.1562
  184DG     H14 4223   1.589   1.580   1.013 -0.6022 -0.2011 -0.6327
  184DG     H15 4224   1.182   1.636   1.272  1.9659  0.9849 -0.9768
  184DG     H16 4225   1.055   1.750   1.280 -0.8941 -1.9839 -0.4521
  184DG     C17 4226   1.423   1.670   1.121 -0.5428  0.4214 -0.1951
  184DG     C18 4227   1.253   1.823   1.210 -0.4305 -0.3446  0.1695
  184DG     O19 4228   1.342   1.791   1.107 -0.2288 -0.3726  0.6370
  184DG     H20 4229   1.465   1.660   1.221  0.1386 -0.7469 -0.5849
  184DG     H21 4230   1.357   1.585   1.103 -1.2994  0.6205  1.4078
  184DG     H22 4231   1.217   1.920   1.176  2.2581  0.3677 -0.8880
  184DG     H23 4232   1.304   1.834   1.306  0.2036 -0.9275 -0.0932
  185DG      C1 4233   0.580   1.768   1.754  0.6513  0.2086 -0.3778
  185DG      C2 4234   0.165   2.173   2.074 -0.1686 -0.1776  0.1392
  185DG      H3 4235   0.618   1.672   1.719  1.7190  0.0553  1.1347
  185DG      H4 4236   0.622   1.795   1.851 -1.0843 -0.1869  0.5313
  185DG      H5 4237   0.609   1.848   1.686  0.0287 -0.4794 -1.4788
  185DG      H6 4238   0.187   2.254   2.004  1.6104 -0.8577 -0.1333
  185DG      H7 4239   0.066   2.204   2.107 -0.1744  1.8763 -1.5787
  185DG      H8 4240   0.221   2.170   2.167 -1.5877 -2.9909  1.0228
  185DG      O9 4241   0.437   1.774   1.752 -0.0892  0.2160  0.3003
  185DG     O10 4242   0.167   2.044   2.022 -0.1048 -0.1737  0.5548
  185DG     C11 4243   0.379   1.657   1.817  0.3041  0.0689 -0.2830
  185DG     C12 4244   0.145   1.933   2.111  0.8018  0.0940  0.0233
  185DG     H13 4245   0.430   1.655   1.913 -1.0230  3.0897  0.6184
  185DG     H14 4246   0.401   1.568   1.757  0.6909  1.3692 -2.1885
  185DG     H15 4247   0.047   1.957   2.153  0.0321 -0.1701 -1.5506
  185DG     H16 4248   0.222   1.922   2.188  1.2535  2.4503 -0.0259
  185DG     C17 4249   0.234   1.671   1.862  0.0530  0.0896 -0.2178
  185DG     C18 4250   0.124   1.802   2.030  0.0720  0.6898  0.2347
  185DG     O19 4251   0.226   1.793   1.926  0.0974  0.6136  0.1702
  185DG     H20 4252   0.198   1.596   1.933 -0.7071  0.8572  0.2214
  185DG     H21 4253   0.161   1.654   1.782  2.6062  0.6021 -2.7968
  185DG     H22 4254   0.120   1.726   2.107 -2.2994  0.7157  0.2098
  185DG     H23 4255   0.027   1.807   1.980  0.4314 -0.4502 -0.6145
  186DG      C1 4256   1.077   2.483   5.493  0.3024 -0.6984 -0.7928
  186DG      C2 4257   1.484   2.189   4.899 -0.4286  0.5918  0.4879
  186DG      H3 4258   1.026   2.422   5.568 -0.5787  1.2319  0.2617
  186DG      H4 4259   1.007   2.556   5.452  1.3725  0.5304 -0.5206
  186DG      H5 4260   1.164   2.534   5.535  0.5542 -0.5519 -1.4915
  186DG      H6 4261   1.428   2.121   4.836 -0.5791  0.3689  0.8584
  186DG      H7 4262   1.489   2.289   4.854  0.3275  0.3724  0.0691
  186DG      H8 4263   1.588   2.163   4.878 -0.7015  1.4907 -2.3328
  186DG      O9 4264   1.141   2.389   5.404  0.2532  0.1337  0.0405
  186DG     O10 4265   1.443   2.175   5.030  0.0647 -0.7723 -0.4646
  186DG     C11 4266   1.192   2.453   5.290  0.3542 -0.1198  0.0274
  186DG     C12 4267   1.532   2.242   5.119 -0.1351  0.6879 -0.4240
  186DG     H13 4268   1.183   2.561   5.292 -1.3902 -0.2310 -0.1410
  186DG     H14 4269   1.118   2.426   5.214 -0.7234  0.4132  0.8505
  186DG     H15 4270   1.563   2.343   5.090  1.9606  0.5122  0.9339
  186DG     H16 4271   1.631   2.197   5.128 -0.0636  1.2938  2.7836
  186DG     C17 4272   1.329   2.415   5.253  0.3945  0.5317  0.3204
  186DG     C18 4273   1.481   2.228   5.264  0.1197  0.2779 -0.8721
  186DG     O19 4274   1.343   2.272   5.266  0.0992 -0.5823 -1.1381
  186DG     H20 4275   1.387   2.461   5.334 -0.3343  2.4209 -0.1771
  186DG     H21 4276   1.358   2.454   5.155 -0.4480 -0.4850 -0.3475
  186DG     H22 4277   1.488   2.124   5.292 -1.5203 -0.2841 -2.3134
  186DG     H23 4278   1.536   2.281   5.341  0.4566 -0.7655 -0.3918
  187DG      C1 4279   4.542   2.272   4.180  0.0882 -1.3210  0.0174
  187DG      C2 4280   4.880   2.028   3.686  0.4493  0.4892 -0.2159
  187DG      H3 4281   4.575   2.355   4.118 -1.1601 -0.4002  0.5580
  187DG      H4 4282   4.611   2.263   4.264 -0.2617 -1.5805  0.2803
  187DG      H5 4283   4.439   2.278   4.215  0.5046  0.5700  0.9954
  187DG      H6 4284   4.905   2.133   3.671  1.0182  0.1667 -1.7963
  187DG      H7 4285   4.978   1.986   3.712 -0.8124 -1.2115  2.1301
  187DG      H8 4286   4.859   1.984   3.588 -0.1143 -1.8937  0.9192
  187DG      O9 4287   4.557   2.164   4.102  0.7958 -0.0237  0.2052
  187DG     O10 4288   4.775   1.997   3.779 -0.7817 -0.8864  0.1293
  187DG     C11 4289   4.526   2.045   4.180  0.3742 -0.5616  0.5539
  187DG     C12 4290   4.784   1.859   3.816 -0.3481 -0.1006 -0.1688
  187DG     H13 4291   4.419   2.048   4.199  0.1286 -1.8947 -0.4519
  187DG     H14 4292   4.566   2.033   4.281 -1.7680  0.0102  1.5247
  187DG     H15 4293   4.880   1.837   3.864  0.1925 -0.1399 -1.2492
  187DG     H16 4294   4.766   1.792   3.733 -1.7010  0.6489 -0.5072
  187DG     C17 4295   4.544   1.923   4.084 -0.5231  1.1065  0.2403
  187DG     C18 4296   4.660   1.828   3.909  0.7177  0.0218 -0.2533
  187DG     O19 4297   4.657   1.936   4.002  0.2553  0.1915  0.2530
  187DG     H20 4298   4.461   1.931   4.015 -2.0386 -0.0548  1.8491
  187DG     H21 4299   4.537   1.827   4.133 -0.5672  0.2971 -1.2988
  187DG     H22 4300   4.575   1.837   3.842 -0.4868  0.2271  1.2476
  187DG     H23 4301   4.667   1.730   3.957 -0.9686 -1.3238 -2.5431
  188DG      C1 4302   1.260   4.773   3.630  0.0850  0.8940  0.4371
  188DG      C2 4303   1.801   4.915   3.920 -0.2797 -0.1091 -0.0338
  188DG      H3 4304   1.350   4.754   3.571 -0.2784 -0.4319  0.2692
  188DG      H4 4305   1.207   4.849   3.574 -0.6406 -0.4059 -0.7044
  188DG      H5 4306   1.186   4.695   3.612  0.6054  0.7706 -1.4120
  188DG      H6 4307   1.808   4.991   3.842  1.1274 -2.6929 -2.5913
  188DG      H7 4308   1.885   4.930   3.989 -1.0554  2.4485  0.4651
  188DG      H8 4309   1.819   4.821   3.868 -0.6637  1.6273 -3.5576
  188DG      O9 4310   1.273   4.796   3.772  0.2375  0.1421 -0.0280
  188DG     O10 4311   1.676   4.926   3.986  0.2773  0.5015  0.2463
  188DG     C11 4312   1.299   4.676   3.836  0.3331  0.1971  0.6764
  188DG     C12 4313   1.650   4.842   4.094 -0.9506 -0.2687 -0.1665
  188DG     H13 4314   1.377   4.620   3.784 -1.1336  0.3402 -1.8297
  188DG     H14 4315   1.208   4.617   3.833 -1.6780  3.0444  1.0098
  188DG     H15 4316   1.678   4.900   4.182  2.1612 -1.2096 -0.4492
  188DG     H16 4317   1.711   4.754   4.108 -1.9634 -1.2003 -1.3501
  188DG     C17 4318   1.329   4.695   3.981  0.4365 -0.2354  0.5082
  188DG     C18 4319   1.495   4.821   4.098  0.1794 -0.1710  0.9281
  188DG     O19 4320   1.464   4.739   3.986  0.4048  0.3380 -0.2755
  188DG     H20 4321   1.330   4.600   4.035  0.1573 -0.4086  0.2123
  188DG     H21 4322   1.259   4.758   4.037 -0.9998 -2.0939  0.9284
  188DG     H22 4323   1.466   4.768   4.188 -0.3841  0.1924  0.9613
  188DG     H23 4324   1.441   4.915   4.099 -1.4213 -1.0123 -0.5106
  189DG      C1 4325   3.485   2.901   3.640  0.3045  0.2761 -0.2093
  189DG      C2 4326   3.773   2.438   3.778  0.2087  0.0901  0.5391
  189DG      H3 4327   3.414   2.822   3.663  0.9218 -0.1318  0.3612
  189DG      H4 4328   3.514   2.881   3.537 -0.6704 -2.9536  0.0237
  189DG      H5 4329   3.439   2.999   3.640  0.5700  0.4037 -0.7296
  189DG      H6 4330   3.676   2.408   3.739  0.1150  0.1766  0.7054
  189DG      H7 4331   3.839   2.469   3.696 -2.2944  1.4409 -1.1163
  189DG      H8 4332   3.811   2.351   3.831 -0.0707  0.9780  2.2531
  189DG      O9 4333   3.580   2.891   3.736  0.0878  0.2503  0.5343
  189DG     O10 4334   3.773   2.540   3.873 -0.2395  0.0522 -0.0397
  189DG     C11 4335   3.696   2.969   3.716 -0.1877 -0.6409 -0.4654
  189DG     C12 4336   3.901   2.589   3.918 -0.5547  0.7560 -0.7030
  189DG     H13 4337   3.673   3.075   3.724 -0.5429 -0.8234  1.2782
  189DG     H14 4338   3.739   2.955   3.616 -4.7489  0.0201 -2.7892
  189DG     H15 4339   3.973   2.584   3.836 -2.9018  1.6712 -3.0016
  189DG     H16 4340   3.940   2.542   4.008  0.5946 -0.0763 -1.5967
  189DG     C17 4341   3.804   2.933   3.821  0.0059  0.0867  0.0000
  189DG     C18 4342   3.876   2.740   3.947  0.2945 -0.5036 -0.4041
  189DG     O19 4343   3.821   2.789   3.827 -0.5392 -0.3041  0.1832
  189DG     H20 4344   3.770   2.973   3.917  2.7878  2.3101  0.1920
  189DG     H21 4345   3.901   2.979   3.801  1.1316 -1.1379  2.2621
  189DG     H22 4346   3.792   2.751   4.016  1.3296  0.4951  0.7572
  189DG     H23 4347   3.969   2.786   3.979  0.0402 -0.7367  0.7299
  190DG      C1 4348   3.747   5.241   0.462  0.2335 -0.1891 -0.3422
  190DG      C2 4349   3.638   4.804   0.902 -0.5893  0.1172  0.1948
  190DG      H3 4350   3.737   5.312   0.380 -2.1194 -0.4281 -0.3355
  190DG      H4 4351   3.844   5.191   0.462 -0.6503 -2.0384  0.5519
  190DG      H5 4352   3.750   5.284   0.562  1.0268 -2.5217  0.7220
  190DG      H6 4353   3.543   4.764   0.939 -0.3711 -1.3954 -0.7686
  190DG      H7 4354   3.693   4.725   0.851 -0.1614 -0.0845  0.9604
  190DG      H8 4355   3.692   4.855   0.982 -2.3597  0.4444  1.2504
  190DG      O9 4356   3.643   5.141   0.458  0.6163 -0.1463 -0.1014
  190DG     O10 4357   3.601   4.908   0.809 -0.4992 -0.2188 -0.6589
  190DG     C11 4358   3.513   5.189   0.459 -0.1117 -0.0318  0.0991
  190DG     C12 4359   3.465   4.950   0.815 -0.3211 -0.0794  0.1374
  190DG     H13 4360   3.496   5.251   0.371 -0.8541  1.4701  1.2378
  190DG     H14 4361   3.497   5.258   0.542  1.6058  0.9710 -0.3501
  190DG     H15 4362   3.455   4.991   0.915  1.3709 -0.8383  0.6474
  190DG     H16 4363   3.385   4.875   0.817 -1.4450  1.0639 -0.3367
  190DG     C17 4364   3.410   5.075   0.463 -0.6773  0.0868 -0.4794
  190DG     C18 4365   3.425   5.043   0.700  0.4996 -0.1310  0.2008
  190DG     O19 4366   3.441   4.987   0.570  0.1246 -0.3934  0.5082
  190DG     H20 4367   3.409   5.007   0.377 -2.9109 -0.8851  0.2386
  190DG     H21 4368   3.308   5.108   0.481  0.5461  3.1577  1.5975
  190DG     H22 4369   3.319   5.065   0.708  0.2678 -0.7857 -0.9693
  190DG     H23 4370   3.477   5.138   0.714  2.2197 -0.9659 -0.2398
  191DG      C1 4371   1.072   3.264   0.371 -0.1780 -0.5480 -0.1405
  191DG      C2 4372   1.588   2.865   0.380 -0.1023  0.2885  0.5341
  191DG      H3 4373   0.970   3.299   0.390  0.1346  0.8249 -0.8844
  191DG      H4 4374   1.104   3.319   0.283 -2.6029  0.2060 -0.6352
  191DG      H5 4375   1.137   3.291   0.454 -0.2638  3.2004 -1.1142
  191DG      H6 4376   1.623   2.968   0.387  0.2798  0.3791 -1.8587
  191DG      H7 4377   1.618   2.811   0.470  1.5364  0.3473  0.0459
  191DG      H8 4378   1.637   2.821   0.293 -0.4836 -0.9040  0.9031
  191DG      O9 4379   1.087   3.122   0.355  0.0151 -0.0722 -0.7553
  191DG     O10 4380   1.452   2.882   0.346  0.1771  0.6016 -0.3118
  191DG     C11 4381   1.034   3.072   0.233  0.0158  0.1052  0.0615
  191DG     C12 4382   1.393   2.756   0.311  0.3140 -0.2032  0.0446
  191DG     H13 4383   1.088   3.112   0.148  0.9174 -1.0447  0.0687
  191DG     H14 4384   0.928   3.098   0.236 -0.2410 -0.9615  1.4922
  191DG     H15 4385   1.418   2.692   0.396  0.5314  1.0586  0.9652
  191DG     H16 4386   1.436   2.710   0.222 -0.5342 -1.7288  0.3878
  191DG     C17 4387   1.063   2.924   0.234  0.6559  0.1886 -0.1353
  191DG     C18 4388   1.239   2.767   0.302 -0.2944 -0.2471  0.3464
  191DG     O19 4389   1.206   2.903   0.261 -0.2731  0.2614  0.1304
  191DG     H20 4390   1.045   2.891   0.132 -0.0353  2.6201 -0.8750
  191DG     H21 4391   1.003   2.871   0.308  0.2503  0.5675 -0.1903
  191DG     H22 4392   1.191   2.696   0.234 -0.4625  1.1514 -1.0467
  191DG     H23 4393   1.197   2.757   0.402  1.3872  1.3170  1.2496
  192DG      C1 4394   2.295   2.286   3.489  0.6356  0.4496 -0.1390
  192DG      C2 4395   1.865   1.952   3.138  0.6084 -0.0572  0.0677
  192DG      H3 4396   2.269   2.269   3.594 -0.3571 -0.2890 -0.4846
  192DG      H4 4397   2.235   2.371   3.454  0.7150  0.1249 -1.0699
  192DG      H5 4398   2.398   2.320   3.489  1.1392 -0.7029  3.0531
  192DG      H6 4399   1.930   1.974   3.053  0.5406 -2.2563 -0.6222
  192DG      H7 4400   1.799   1.874   3.101 -0.8344 -0.1147  2.5296
  192DG      H8 4401   1.799   2.036   3.162 -0.8501 -1.1645  0.0316
  192DG      O9 4402   2.272   2.162   3.415 -0.3957  0.4800 -0.3400
  192DG     O10 4403   1.932   1.908   3.251 -0.3603  0.2875  0.2051
  192DG     C11 4404   2.349   2.051   3.457  0.1080 -0.2864 -0.3676
  192DG     C12 4405   2.040   1.822   3.221 -0.2860  0.6259  0.5382
  192DG     H13 4406   2.342   2.056   3.566 -0.8247  2.1025 -0.4705
  192DG     H14 4407   2.453   2.072   3.436 -0.1265  1.3919  0.0020
  192DG     H15 4408   2.107   1.860   3.145 -1.3505  0.1431 -0.6775
  192DG     H16 4409   1.998   1.726   3.193  1.3513 -0.3850  1.4044
  192DG     C17 4410   2.300   1.929   3.377 -0.1748  0.0084  0.3137
  192DG     C18 4411   2.111   1.792   3.357 -0.5870 -0.6671 -0.2692
  192DG     O19 4412   2.156   1.913   3.405  0.0739 -0.3774 -0.4420
  192DG     H20 4413   2.352   1.835   3.395 -0.9073 -1.0180 -2.4346
  192DG     H21 4414   2.306   1.942   3.268 -0.5518 -0.3506  0.2475
  192DG     H22 4415   2.041   1.742   3.423 -1.5543 -0.2002 -0.9099
  192DG     H23 4416   2.191   1.720   3.337 -0.6837 -1.0378  0.6633
  193DG      C1 4417   5.080   4.258   2.243 -0.7889  0.0366 -0.0115
  193DG      C2 4418   5.392   4.470   2.813  0.6772  0.4727  0.3610
  193DG      H3 4419   5.087   4.239   2.136  0.0018 -1.1857  0.2246
  193DG      H4 4420   5.032   4.355   2.254  0.8069  0.8455  0.1682
  193DG      H5 4421   5.011   4.186   2.287 -0.2904  0.7996  2.1432
  193DG      H6 4422   5.401   4.372   2.858 -1.9478  0.9598  2.2094
  193DG      H7 4423   5.471   4.524   2.866  0.7122 -0.9849  1.8614
  193DG      H8 4424   5.306   4.515   2.863  0.7344 -0.4050  1.2845
  193DG      O9 4425   5.206   4.261   2.318  0.2125  0.2308  0.3356
  193DG     O10 4426   5.384   4.473   2.668  0.6195 -0.0865  0.4000
  193DG     C11 4427   5.256   4.129   2.340  0.0944  0.2557  0.2238
  193DG     C12 4428   5.504   4.422   2.618 -0.0800  0.3403 -0.6062
  193DG     H13 4429   5.281   4.078   2.247 -0.6064  0.6295 -0.1765
  193DG     H14 4430   5.174   4.080   2.392 -0.2140  0.7858  0.2470
  193DG     H15 4431   5.595   4.458   2.664  0.6213 -2.5307  0.4207
  193DG     H16 4432   5.491   4.460   2.516 -0.9737 -3.1474 -1.9494
  193DG     C17 4433   5.381   4.133   2.432  0.1937 -0.0199 -0.7316
  193DG     C18 4434   5.486   4.268   2.600  0.3164  0.2372  0.3164
  193DG     O19 4435   5.372   4.237   2.528  0.3040 -0.1228 -0.1145
  193DG     H20 4436   5.462   4.158   2.364 -0.3162 -0.4933 -1.5180
  193DG     H21 4437   5.383   4.041   2.490 -1.2651 -0.0777 -0.7244
  193DG     H22 4438   5.575   4.226   2.555  0.6238  0.5414  0.6358
  193DG     H23 4439   5.479   4.213   2.694 -0.6150  0.8451  0.6095
  194DG      C1 4440   4.114   1.467   2.174 -0.6706 -0.3668  0.1575
  194DG      C2 4441   4.156   2.141   2.312 -0.0998  0.2508  0.2796
  194DG      H3 4442   4.013   1.492   2.142 -0.5558  0.9703  0.8029
  194DG      H4 4443   4.113   1.386   2.248  2.3182 -1.2523 -0.5997
  194DG      H5 4444   4.165   1.416   2.091  0.6772  1.4217 -0.1638
  194DG      H6 4445   4.125   2.184   2.217  3.2660 -1.1059 -1.6182
  194DG      H7 4446   4.070   2.104   2.367  0.0861  0.1410  0.4976
  194DG      H8 4447   4.213   2.218   2.364  1.8031 -0.4129 -0.7178
  194DG      O9 4448   4.199   1.581   2.197  0.6299  0.3900  0.5710
  194DG     O10 4449   4.234   2.024   2.306 -0.6896 -0.3146 -0.3584
  194DG     C11 4450   4.338   1.565   2.170 -0.3789  0.0841  0.5874
  194DG     C12 4451   4.369   2.040   2.265  0.0220  0.3643  0.0787
  194DG     H13 4452   4.356   1.576   2.063  0.2911  0.2914  0.7174
  194DG     H14 4453   4.385   1.468   2.189  1.4819  0.8379  0.0683
  194DG     H15 4454   4.415   2.130   2.306  2.5135 -1.2691  1.1755
  194DG     H16 4455   4.345   2.056   2.160 -1.8504  0.2613  0.4661
  194DG     C17 4456   4.409   1.670   2.260 -0.1792  0.2352 -0.2421
  194DG     C18 4457   4.442   1.906   2.294 -0.3383  0.5058 -0.1794
  194DG     O19 4458   4.369   1.804   2.224 -0.1433  0.8508 -0.1715
  194DG     H20 4459   4.515   1.654   2.242 -0.4043 -0.7977 -0.7338
  194DG     H21 4460   4.395   1.651   2.366  1.8876  0.1801  0.0489
  194DG     H22 4461   4.547   1.915   2.264 -0.2273  2.2075  0.5717
  194DG     H23 4462   4.443   1.884   2.401  1.5500 -0.7885 -0.4180
  195DG      C1 4463   0.300   2.568   5.032 -0.1095  0.4369 -0.0008
  195DG      C2 4464  -0.011   2.333   5.548 -0.1859 -0.6201  0.8169
  195DG      H3 4465   0.299   2.629   4.941 -4.5029 -0.1513 -0.5542
  195DG      H4 4466   0.356   2.481   4.997 -0.1057 -0.2417  1.6383
  195DG      H5 4467   0.362   2.613   5.110 -1.3622  1.1493  0.6188
  195DG      H6 4468   0.083   2.357   5.597  2.1583 -3.2559 -1.9814
  195DG      H7 4469  -0.087   2.370   5.617 -0.6765  2.5244 -1.2172
  195DG      H8 4470  -0.006   2.224   5.549 -1.2554 -0.8458 -3.1349
  195DG      O9 4471   0.171   2.541   5.096  0.2983  0.4145 -0.2688
  195DG     O10 4472  -0.038   2.384   5.414 -0.3624 -0.1224 -0.0264
  195DG     C11 4473   0.098   2.439   5.022 -0.6444 -0.3001  0.0694
  195DG     C12 4474  -0.159   2.334   5.356  0.3316 -0.1523 -0.1530
  195DG     H13 4475   0.155   2.354   4.986  1.7780  1.6993 -1.1406
  195DG     H14 4476   0.051   2.482   4.933  0.8030  1.0568 -0.0692
  195DG     H15 4477  -0.238   2.336   5.431 -0.5633  1.2073 -1.0792
  195DG     H16 4478  -0.157   2.233   5.316  1.6753 -0.5588  0.8885
  195DG     C17 4479  -0.004   2.381   5.112  0.1882 -0.4030  0.1669
  195DG     C18 4480  -0.190   2.441   5.251  0.6531  0.5624 -0.5591
  195DG     O19 4481  -0.075   2.480   5.186  0.1961 -0.1929  0.1329
  195DG     H20 4482   0.055   2.317   5.177  0.8746 -0.6211 -0.6473
  195DG     H21 4483  -0.077   2.316   5.063 -0.3076 -0.2491  0.6981
  195DG     H22 4484  -0.264   2.400   5.181 -0.7511 -1.3078  1.8424
  195DG     H23 4485  -0.235   2.531   5.291  1.1335  0.2721  0.6592
  196DG      C1 4486   0.418   3.915   3.671  0.0368  0.3382 -0.3188
  196DG      C2 4487   0.492   3.893   4.272 -0.2902  0.1282 -0.4683
  196DG      H3 4488   0.524   3.926   3.651  0.2359  0.4085  0.6893
  196DG      H4 4489   0.362   4.008   3.677  0.6528  0.7223 -0.4549
  196DG      H5 4490   0.373   3.857   3.590 -1.8347 -0.9224  1.4952
  196DG      H6 4491   0.471   3.905   4.166  0.6874  0.1054 -0.6771
  196DG      H7 4492   0.428   3.954   4.335 -1.5636  0.6031 -2.1597
  196DG      H8 4493   0.594   3.929   4.285 -1.5959  4.9007 -1.5097
  196DG      O9 4494   0.404   3.848   3.795 -0.0789  0.1671  0.2605
  196DG     O10 4495   0.480   3.751   4.308 -0.2701 -0.3858 -0.0138
  196DG     C11 4496   0.271   3.796   3.816  0.0016  0.4641 -0.2027
  196DG     C12 4497   0.353   3.692   4.289 -0.2218  0.5400 -0.1574
  196DG     H13 4498   0.241   3.750   3.722 -0.0651 -1.5020  0.7230
  196DG     H14 4499   0.208   3.882   3.840  0.9552  0.9121  0.8072
  196DG     H15 4500   0.276   3.763   4.319  0.9509  1.0690  1.7765
  196DG     H16 4501   0.335   3.611   4.360  0.3316  0.6120  0.0666
  196DG     C17 4502   0.268   3.689   3.927  0.4489 -1.0733  1.1775
  196DG     C18 4503   0.331   3.633   4.153 -0.3015  0.1420 -0.0782
  196DG     O19 4504   0.316   3.733   4.055  0.1169 -0.0825  0.1535
  196DG     H20 4505   0.335   3.610   3.895  0.6279 -0.4090 -0.1485
  196DG     H21 4506   0.167   3.648   3.939  0.2709 -1.4922 -1.1946
  196DG     H22 4507   0.411   3.563   4.128  0.5146  0.7765  0.6590
  196DG     H23 4508   0.241   3.571   4.157  0.1603 -0.5035  1.9066
  197DG      C1 4509   2.766   4.413   4.842 -0.9878  0.5872 -0.2276
  197DG      C2 4510   2.296   4.934   4.793 -0.3401 -0.7097 -0.4174
  197DG      H3 4511   2.702   4.326   4.826  2.4265 -1.9987 -1.2166
  197DG      H4 4512   2.862   4.375   4.879 -0.6217 -1.5238 -2.9721
  197DG      H5 4513   2.771   4.458   4.743  2.2344 -1.3659 -1.1410
  197DG      H6 4514   2.233   4.879   4.722 -0.2021  0.9148 -1.8745
  197DG      H7 4515   2.235   5.005   4.849  3.0169  1.0085  1.3048
  197DG      H8 4516   2.374   4.993   4.745  1.0317 -0.2660  2.1967
  197DG      O9 4517   2.732   4.517   4.924  0.1913 -0.5972  0.0503
  197DG     O10 4518   2.354   4.836   4.879  0.2542  0.0804 -0.2699
  197DG     C11 4519   2.689   4.490   5.058 -0.3415 -0.5870  0.9403
  197DG     C12 4520   2.446   4.904   4.968  0.7487  0.0596  0.0786
  197DG     H13 4521   2.772   4.461   5.121 -0.8342 -2.0886  0.9282
  197DG     H14 4522   2.610   4.415   5.051 -0.5923 -0.3282  0.9859
  197DG     H15 4523   2.394   4.986   5.018  0.5637 -0.8821  1.4753
  197DG     H16 4524   2.527   4.951   4.911  0.6913  0.2846  0.1798
  197DG     C17 4525   2.623   4.613   5.119  0.5280  0.1271 -0.6420
  197DG     C18 4526   2.503   4.818   5.078  0.4130  0.4724  0.8050
  197DG     O19 4527   2.566   4.698   5.025 -0.1426  0.3674  0.2540
  197DG     H20 4528   2.705   4.667   5.165 -0.6090  0.8560  0.5809
  197DG     H21 4529   2.546   4.601   5.195 -0.6709  0.1515 -1.8129
  197DG     H22 4530   2.576   4.878   5.132  0.5206  2.3785 -1.3030
  197DG     H23 4531   2.425   4.793   5.149  0.9232  1.0211  1.5672
  198DG      C1 4532   0.207   1.461   4.191 -0.5450  0.0265  0.1774
  198DG      C2 4533  -0.120   2.152   4.263  0.1863  0.7676 -0.2127
  198DG      H3 4534   0.252   1.379   4.248  0.3121  0.8092  0.6510
  198DG      H4 4535   0.274   1.475   4.106 -0.8099  0.0964 -0.0200
  198DG      H5 4536   0.115   1.420   4.149 -1.3228  0.8161  1.0541
  198DG      H6 4537  -0.083   2.184   4.165  0.3380 -0.6870 -0.6591
  198DG      H7 4538  -0.218   2.111   4.240  0.5080  0.3975 -0.9801
  198DG      H8 4539  -0.143   2.231   4.333 -0.1921  0.7024 -0.2611
  198DG      O9 4540   0.184   1.584   4.260  0.1420  0.5400 -0.5072
  198DG     O10 4541  -0.036   2.045   4.315  0.3645 -0.6560  0.1839
  198DG     C11 4542   0.297   1.644   4.319 -0.1611  0.0223 -0.2192
  198DG     C12 4543   0.090   2.092   4.359 -0.0384  0.2414 -0.4256
  198DG     H13 4544   0.368   1.671   4.240  1.3739  1.2134  1.4774
  198DG     H14 4545   0.365   1.582   4.378 -1.1105  1.8754  3.0547
  198DG     H15 4546   0.073   2.179   4.423 -1.5991  1.3011 -2.1804
  198DG     H16 4547   0.151   2.126   4.276 -2.5326  1.6358 -1.8188
  198DG     C17 4548   0.265   1.762   4.413 -0.2316  0.3562  0.4899
  198DG     C18 4549   0.163   1.976   4.433  0.4588  0.4295  1.0463
  198DG     O19 4550   0.185   1.859   4.351  0.0543  0.2883  0.4339
  198DG     H20 4551   0.359   1.804   4.448  0.2760 -0.8443  0.6269
  198DG     H21 4552   0.219   1.727   4.505  1.2441  0.0282  1.1334
  198DG     H22 4553   0.255   2.000   4.486  1.5265 -0.4003 -0.3723
  198DG     H23 4554   0.097   1.947   4.515  0.3531 -1.7648  0.2418
  199DG      C1 4555   2.284   4.129   2.478 -0.0316  0.6434 -0.3697
  199DG      C2 4556   2.726   3.918   2.123 -0.2471  0.3140  0.1701
  199DG      H3 4557   2.236   4.137   2.575 -2.0076 -0.0601 -1.2410
  199DG      H4 4558   2.265   4.035   2.426  0.6745  1.1437 -1.5963
  199DG      H5 4559   2.234   4.208   2.422 -0.2068  0.7154 -0.1132
  199DG      H6 4560   2.826   3.913   2.081 -0.1486  2.7160 -0.0339
  199DG      H7 4561   2.687   3.817   2.132 -1.2213  0.7881  1.5220
  199DG      H8 4562   2.662   3.965   2.048 -2.1293 -0.5153  1.1799
  199DG      O9 4563   2.423   4.140   2.491  0.3998 -0.1486  0.1225
  199DG     O10 4564   2.729   3.980   2.253  0.1019  0.3613  0.1270
  199DG     C11 4565   2.473   4.271   2.520  0.3282 -0.0186  0.2932
  199DG     C12 4566   2.822   4.094   2.259  0.2375 -0.1760 -0.4250
  199DG     H13 4567   2.455   4.310   2.620  1.7915  0.6605  0.3271
  199DG     H14 4568   2.436   4.342   2.446  0.9126  0.7392  0.7130
  199DG     H15 4569   2.795   4.155   2.173  0.4091 -1.3244 -1.3051
  199DG     H16 4570   2.925   4.059   2.256  0.3778  0.1872 -0.0906
  199DG     C17 4571   2.622   4.266   2.521  0.0772 -0.1580  0.0733
  199DG     C18 4572   2.798   4.176   2.390 -0.0768 -0.4945  0.7544
  199DG     O19 4573   2.661   4.199   2.404  0.1223 -0.0667 -0.4897
  199DG     H20 4574   2.659   4.214   2.609  2.1669  0.2986 -0.4912
  199DG     H21 4575   2.654   4.370   2.531 -1.1427  0.0791  2.2108
  199DG     H22 4576   2.837   4.119   2.474  1.3900  0.1284  0.5358
  199DG     H23 4577   2.851   4.271   2.381  1.7113 -1.3094  2.0214
  200DG      C1 4578   3.310   1.090   0.961 -0.2976 -0.8357  0.1618
  200DG      C2 4579   3.230   1.049   0.352  0.5449  0.0345 -0.1460
  200DG      H3 4580   3.269   1.095   1.062  0.5897  2.0115  0.4810
  200DG      H4 4581   3.416   1.110   0.974 -0.5856  0.5453  0.6242
  200DG      H5 4582   3.292   0.994   0.913  1.2467  1.3269 -5.7105
  200DG      H6 4583   3.249   1.071   0.247  0.1403 -1.5288 -0.5742
  200DG      H7 4584   3.323   0.992   0.363  1.5632  1.6995  0.2624
  200DG      H8 4585   3.144   0.983   0.364  0.1541  0.1734 -1.9738
  200DG      O9 4586   3.258   1.199   0.877 -0.1178  0.2866  0.4761
  200DG     O10 4587   3.222   1.157   0.441 -0.0276 -0.0737 -0.1585
  200DG     C11 4588   3.114   1.201   0.892  0.3770 -0.5908  0.3148
  200DG     C12 4589   3.096   1.225   0.427 -0.0209 -0.2090  0.3363
  200DG     H13 4590   3.102   1.251   0.989  2.1109  0.6411 -0.0611
  200DG     H14 4591   3.070   1.102   0.900  0.2010 -0.4574  1.0601
  200DG     H15 4592   3.005   1.166   0.429  0.1361 -0.4477  2.4840
  200DG     H16 4593   3.104   1.278   0.332  3.0014 -0.1131  0.5514
  200DG     C17 4594   3.039   1.274   0.781  0.7180 -0.3171 -1.1371
  200DG     C18 4595   3.085   1.325   0.550  0.1095  0.2676 -0.2316
  200DG     O19 4596   3.081   1.229   0.657 -0.1965  0.3985 -0.2178
  200DG     H20 4597   3.050   1.381   0.797  0.9882 -0.2690 -1.6342
  200DG     H21 4598   2.934   1.245   0.793  1.0421 -1.2771 -0.5085
  200DG     H22 4599   3.165   1.398   0.562  0.8764 -0.7154  0.8255
  200DG     H23 4600   2.993   1.383   0.549  0.3784  0.7294  0.6247
  201DG      C1 4601   3.003   4.173   1.876  0.1831  0.4648  0.2778
  201DG      C2 4602   3.162   3.833   1.169  0.2781 -0.2971  0.3363
  201DG      H3 4603   2.928   4.144   1.950  0.0473  1.2054  0.4398
  201DG      H4 4604   2.975   4.260   1.816  0.2587 -1.3370 -2.5559
  201DG      H5 4605   3.098   4.193   1.925 -0.4798  0.8975  1.4225
  201DG      H6 4606   3.139   3.744   1.228  2.0534 -1.7287 -0.9789
  201DG      H7 4607   3.162   3.801   1.065 -0.0068  1.5146 -0.2514
  201DG      H8 4608   3.259   3.876   1.195 -0.0666  1.2505 -0.8434
  201DG      O9 4609   2.996   4.072   1.776 -0.0440  0.1325  0.4519
  201DG     O10 4610   3.058   3.924   1.197  0.6402  0.0646  0.1967
  201DG     C11 4611   2.865   4.063   1.723 -0.1821  0.1035 -0.0513
  201DG     C12 4612   3.044   3.945   1.331 -0.4195  0.4752 -0.1462
  201DG     H13 4613   2.821   4.162   1.712 -2.8748 -1.1794 -1.9663
  201DG     H14 4614   2.798   4.006   1.788 -0.4315  0.8929  0.3983
  201DG     H15 4615   3.134   3.981   1.380 -0.3845 -1.2735  1.1715
  201DG     H16 4616   3.035   3.854   1.390  0.8146  1.2682  1.3340
  201DG     C17 4617   2.865   4.002   1.589  0.7982 -0.1332 -0.3729
  201DG     C18 4618   2.923   4.036   1.361 -0.4296  0.1582  0.1198
  201DG     O19 4619   2.920   4.084   1.497 -0.2783 -0.0836  0.5664
  201DG     H20 4620   2.759   3.998   1.564  1.1267 -0.4213 -1.8201
  201DG     H21 4621   2.915   3.906   1.590 -0.3942 -0.8122 -1.6587
  201DG     H22 4622   2.932   4.126   1.300  0.1225  0.7185  0.9930
  201DG     H23 4623   2.827   3.988   1.342 -0.1205 -0.7919  0.8690
  202DG      C1 4624   4.096   1.070   1.491  0.2231 -0.6335 -0.1834
  202DG      C2 4625   4.463   0.960   1.747  0.2911 -0.0327 -0.4736
  202DG      H3 4626   4.050   1.147   1.429  1.3211  0.9561  0.9232
  202DG      H4 4627   4.177   1.112   1.550 -0.2646 -0.5136  0.4185
  202DG      H5 4628   4.024   1.031   1.564 -2.3491 -0.0838 -2.2574
  202DG      H6 4629   4.528   1.036   1.790  0.7011 -0.1845 -0.8128
  202DG      H7 4630   4.370   1.010   1.724  0.2701  0.4297  0.5629
  202DG      H8 4631   4.454   0.888   1.828 -0.0165  1.3871  0.8029
  202DG      O9 4632   4.153   0.962   1.420 -0.3711  0.7265 -0.2007
  202DG     O10 4633   4.542   0.894   1.650 -0.2548 -0.1388  0.7401
  202DG     C11 4634   4.236   0.993   1.305 -0.4091 -0.1724  0.2397
  202DG     C12 4635   4.631   0.982   1.581  0.1676  0.0910 -0.1291
  202DG     H13 4636   4.170   1.052   1.242  0.7258  0.5020 -0.3419
  202DG     H14 4637   4.263   0.898   1.259  1.3909 -0.7944  2.3951
  202DG     H15 4638   4.705   0.923   1.527 -0.2114 -0.7857  0.2989
  202DG     H16 4639   4.692   1.040   1.650  1.2212 -0.9918 -0.1081
  202DG     C17 4640   4.370   1.070   1.339 -0.3255  0.5584  0.4382
  202DG     C18 4641   4.558   1.072   1.474 -0.2969  0.2066 -0.0098
  202DG     O19 4642   4.454   0.992   1.419  0.5172 -0.4982 -0.1020
  202DG     H20 4643   4.343   1.168   1.378  0.4143  0.9291  0.0123
  202DG     H21 4644   4.418   1.087   1.243 -2.4108  0.5821 -0.6786
  202DG     H22 4645   4.532   1.163   1.527 -1.4431 -0.0042 -0.1743
  202DG     H23 4646   4.630   1.099   1.396  1.0493  1.2168  1.5285
  203DG      C1 4647   3.910   3.198   1.502 -0.9236 -0.1395 -0.4699
  203DG      C2 4648   3.674   2.869   0.967  0.2392 -0.0347 -0.2424
  203DG      H3 4649   4.005   3.218   1.451  0.0149 -1.6859  0.6099
  203DG      H4 4650   3.916   3.094   1.533  1.2375 -0.1123 -0.6477
  203DG      H5 4651   3.908   3.261   1.591 -2.7006 -2.0448  0.9117
  203DG      H6 4652   3.690   2.781   1.028 -1.4039 -1.1976 -1.3750
  203DG      H7 4653   3.578   2.864   0.915  0.6310  1.4243 -1.1979
  203DG      H8 4654   3.746   2.857   0.886  1.4959 -0.2592  0.8923
  203DG      O9 4655   3.800   3.220   1.420 -0.1296  0.6052  0.0812
  203DG     O10 4656   3.714   2.988   1.036  0.5082 -0.2635 -0.2552
  203DG     C11 4657   3.798   3.355   1.363 -0.8717  0.1663 -0.1920
  203DG     C12 4658   3.706   3.107   0.950 -0.9425 -0.3400  0.1332
  203DG     H13 4659   3.899   3.375   1.329 -0.0970  0.2092  2.0003
  203DG     H14 4660   3.766   3.421   1.443 -4.0654  0.3148 -1.4399
  203DG     H15 4661   3.618   3.100   0.887 -1.0690  0.1076  0.2509
  203DG     H16 4662   3.797   3.117   0.891 -1.5042  3.5720 -0.3634
  203DG     C17 4663   3.714   3.360   1.240  0.5003 -0.1115  0.6371
  203DG     C18 4664   3.679   3.228   1.034 -0.7964 -0.2357  0.5510
  203DG     O19 4665   3.763   3.250   1.150  0.1101 -0.2102  0.1524
  203DG     H20 4666   3.711   3.457   1.191  0.5732  1.1990  3.1001
  203DG     H21 4667   3.610   3.331   1.256  0.3515 -1.3909 -2.1004
  203DG     H22 4668   3.684   3.319   0.974 -0.0296 -1.2163 -0.9496
  203DG     H23 4669   3.575   3.223   1.067 -1.6956 -1.0628 -2.1479
  204DG      C1 4670   5.004   1.448   2.803  0.1291  0.1514  0.2475
  204DG      C2 4671   5.308   0.960   2.570 -0.2685 -0.0206  0.8041
  204DG      H3 4672   5.030   1.553   2.796 -0.8346  0.3287 -1.0231
  204DG      H4 4673   5.034   1.413   2.902 -1.3824 -1.3772  0.2166
  204DG      H5 4674   4.897   1.432   2.793 -0.0389  1.5270 -0.3655
  204DG      H6 4675   5.336   1.054   2.618 -0.3516 -0.7800  2.4064
  204DG      H7 4676   5.298   0.894   2.656  2.7254 -1.1381  0.4253
  204DG      H8 4677   5.387   0.919   2.507 -0.3625  0.9510  0.0299
  204DG      O9 4678   5.079   1.365   2.705 -0.2564  0.0156  0.8735
  204DG     O10 4679   5.178   0.955   2.509  0.1456 -0.4304  0.0869
  204DG     C11 4680   5.087   1.432   2.582  0.2361  0.4264 -0.1016
  204DG     C12 4681   5.168   1.006   2.372  0.1125 -0.4525  0.2030
  204DG     H13 4682   5.127   1.533   2.593 -1.1753  0.8652  1.7098
  204DG     H14 4683   4.985   1.445   2.546 -1.0490 -2.2185  2.2021
  204DG     H15 4684   5.068   0.989   2.333  0.1065 -0.4635  0.2231
  204DG     H16 4685   5.234   0.952   2.304 -1.9791 -3.0236  0.0575
  204DG     C17 4686   5.174   1.351   2.490  0.0666  0.1556 -0.2714
  204DG     C18 4687   5.196   1.154   2.371 -0.3653 -0.2920 -0.2181
  204DG     O19 4688   5.120   1.218   2.473 -0.2315 -0.1010 -0.0133
  204DG     H20 4689   5.272   1.346   2.538 -0.6634  0.1379  1.2953
  204DG     H21 4690   5.196   1.409   2.401  0.8171 -0.6896 -0.6476
  204DG     H22 4691   5.298   1.171   2.404 -1.1109  0.6650  1.7436
  204DG     H23 4692   5.165   1.200   2.277  2.4086  2.1756 -0.0334
  205DG      C1 4693   1.128   5.113   2.033  0.2474 -0.3423  0.2792
  205DG      C2 4694   1.146   5.665   2.234  0.0983  0.0699  0.6187
  205DG      H3 4695   1.039   5.075   1.983  0.2236  0.6118 -0.4086
  205DG      H4 4696   1.113   5.216   2.066  1.5538  1.2426 -3.5331
  205DG      H5 4697   1.150   5.049   2.119  3.4149 -1.7233 -1.4215
  205DG      H6 4698   1.088   5.586   2.283  1.8979 -0.9802  1.1494
  205DG      H7 4699   1.214   5.707   2.309 -0.6243  1.9695  0.2471
  205DG      H8 4700   1.087   5.744   2.189  0.7459  0.2000 -0.0216
  205DG      O9 4701   1.228   5.107   1.937 -0.4238  0.0418 -0.1587
  205DG     O10 4702   1.221   5.617   2.121  0.3581  0.0760 -0.4500
  205DG     C11 4703   1.233   5.198   1.831  0.2887 -1.3689  0.2131
  205DG     C12 4704   1.328   5.532   2.162  0.4760 -0.1440 -0.0443
  205DG     H13 4705   1.136   5.238   1.800  1.1361 -1.0389 -2.2327
  205DG     H14 4706   1.271   5.143   1.745  2.1397  0.7358 -0.4101
  205DG     H15 4707   1.294   5.453   2.230 -0.6246 -0.4778 -0.9523
  205DG     H16 4708   1.400   5.582   2.227 -0.2708 -0.2913  0.9231
  205DG     C17 4709   1.326   5.313   1.875  0.0424 -0.0687 -1.2316
  205DG     C18 4710   1.386   5.473   2.033 -0.4352  0.1203 -0.3531
  205DG     O19 4711   1.284   5.395   1.981  0.1610 -0.1960  0.8389
  205DG     H20 4712   1.347   5.381   1.792 -0.3956  2.4874  0.6464
  205DG     H21 4713   1.416   5.258   1.902 -0.2770 -0.2958 -0.6096
  205DG     H22 4714   1.418   5.562   1.980  1.1906  1.3042  2.4536
  205DG     H23 4715   1.466   5.404   2.062 -1.4428 -1.0023 -0.1308
  206DG      C1 4716   0.598   4.842   0.700 -0.4615 -0.3289 -0.9735
  206DG      C2 4717   0.507   4.528   1.276  0.4690  0.1132 -0.1336
  206DG      H3 4718   0.696   4.803   0.673 -0.6042 -0.9192 -0.6528
  206DG      H4 4719   0.590   4.937   0.647 -0.1389 -1.7857 -3.8329
  206DG      H5 4720   0.513   4.780   0.670 -0.0697 -1.7682  0.7026
  206DG      H6 4721   0.536   4.471   1.188 -1.5223 -0.8387 -0.2211
  206DG      H7 4722   0.531   4.471   1.365 -4.1798 -2.1777 -0.0745
  206DG      H8 4723   0.399   4.521   1.284  0.5838 -2.0467  0.1483
  206DG      O9 4724   0.595   4.869   0.838  0.3645 -0.4780  0.0316
  206DG     O10 4725   0.532   4.671   1.261  0.0865  0.4479 -0.2587
  206DG     C11 4726   0.714   4.926   0.887 -0.2819 -0.3667  0.2577
  206DG     C12 4727   0.666   4.701   1.288 -0.1069 -0.3317 -0.2185
  206DG     H13 4728   0.723   5.019   0.832 -1.0018  0.4448  1.4552
  206DG     H14 4729   0.808   4.872   0.871 -0.7387 -1.3090  0.6602
  206DG     H15 4730   0.738   4.638   1.236  1.2840  0.0947  1.0929
  206DG     H16 4731   0.693   4.681   1.392 -0.6797 -2.8362 -0.4894
  206DG     C17 4732   0.705   4.956   1.037 -0.2690 -0.0573  0.0517
  206DG     C18 4733   0.688   4.841   1.240 -0.2783 -0.2798 -0.5569
  206DG     O19 4734   0.690   4.836   1.097  0.2030 -0.5656  0.4951
  206DG     H20 4735   0.613   5.012   1.050 -0.0523  0.1460  0.7618
  206DG     H21 4736   0.789   5.006   1.085  0.2344 -0.5522 -0.2993
  206DG     H22 4737   0.618   4.914   1.281 -0.8692 -1.3704  0.4232
  206DG     H23 4738   0.790   4.867   1.264 -0.4537 -0.1756  0.0826
  207DG      C1 4739   1.084   1.395   4.633  0.1164 -0.1817  0.2025
  207DG      C2 4740   1.568   1.554   4.250 -0.0707 -0.1857 -0.0800
  207DG      H3 4741   1.021   1.329   4.574  0.7359 -0.1588 -0.4948
  207DG      H4 4742   1.050   1.494   4.602  0.6999 -0.3216 -0.9028
  207DG      H5 4743   1.061   1.382   4.739  0.3642  2.2951  0.6376
  207DG      H6 4744   1.493   1.596   4.183  1.9160  2.5411 -0.7399
  207DG      H7 4745   1.590   1.618   4.335  0.0947 -0.4777  0.0957
  207DG      H8 4746   1.654   1.525   4.189  0.3081 -1.7559  1.1222
  207DG      O9 4747   1.215   1.362   4.604 -0.3426 -0.5168  0.7694
  207DG     O10 4748   1.516   1.435   4.295  0.1282  0.6748  0.1318
  207DG     C11 4749   1.243   1.226   4.640 -0.6366  0.8079  0.0286
  207DG     C12 4750   1.614   1.359   4.369  1.0539  0.1676 -0.0178
  207DG     H13 4751   1.155   1.162   4.637  0.2856 -0.5965  1.3758
  207DG     H14 4752   1.270   1.218   4.745  1.4955 -0.6966 -0.5801
  207DG     H15 4753   1.658   1.430   4.439 -2.1700  2.8689 -0.4730
  207DG     H16 4754   1.700   1.324   4.312  1.5446 -0.0086  0.8094
  207DG     C17 4755   1.358   1.178   4.556 -0.1668  0.0565  0.2058
  207DG     C18 4756   1.548   1.239   4.439  0.5062 -0.3939  0.7917
  207DG     O19 4757   1.434   1.285   4.509 -0.0065  0.5407 -0.0278
  207DG     H20 4758   1.314   1.117   4.478 -0.0231  3.8554 -3.1586
  207DG     H21 4759   1.431   1.116   4.610  1.3011  0.3109 -1.3871
  207DG     H22 4760   1.519   1.168   4.362  0.9949 -0.2453  0.4670
  207DG     H23 4761   1.621   1.185   4.500  2.2152 -3.6965 -3.6401
  208DG      C1 4762   2.617   1.614   4.285 -0.3377  0.7986 -0.5013
  208DG      C2 4763   2.696   2.236   4.400 -0.9912 -0.0554  0.7453
  208DG      H3 4764   2.574   1.514   4.281 -2.9199  1.8766 -2.5077
  208DG      H4 4765   2.709   1.617   4.343 -0.3244  0.0437 -0.4717
  208DG      H5 4766   2.644   1.644   4.184 -0.4580 -0.1502 -0.8209
  208DG      H6 4767   2.744   2.213   4.496 -0.7105 -3.0155 -0.0083
  208DG      H7 4768   2.770   2.287   4.338  0.1145 -1.2184  1.0582
  208DG      H8 4769   2.619   2.312   4.414 -1.6834 -0.6263  0.0749
  208DG      O9 4770   2.520   1.705   4.336 -0.1227 -0.0752  0.2971
  208DG     O10 4771   2.665   2.114   4.338 -0.0124  0.6720  0.1320
  208DG     C11 4772   2.406   1.710   4.250  0.9351 -0.2849 -0.2455
  208DG     C12 4773   2.616   2.144   4.210 -1.5265 -0.2023  0.4867
  208DG     H13 4774   2.313   1.733   4.303  0.4642 -0.1366 -1.1055
  208DG     H14 4775   2.394   1.619   4.191  3.3036 -0.0788 -1.1436
  208DG     H15 4776   2.701   2.182   4.154  0.1735 -1.6510  1.9279
  208DG     H16 4777   2.537   2.219   4.204 -1.5672 -0.3703 -2.3420
  208DG     C17 4778   2.428   1.826   4.148  0.0874  0.0989 -0.1033
  208DG     C18 4779   2.566   2.018   4.141 -0.9105  0.3400  0.1497
  208DG     O19 4780   2.494   1.928   4.220  0.4285 -0.0058  0.1907
  208DG     H20 4781   2.338   1.873   4.110  0.1771 -0.9234 -1.6741
  208DG     H21 4782   2.492   1.793   4.066  0.2426 -2.3933  0.9359
  208DG     H22 4783   2.519   2.044   4.046 -1.5999 -1.3988 -0.0347
  208DG     H23 4784   2.662   1.969   4.125 -0.3834  2.0338 -2.8244
  209DG      C1 4785   3.727   0.670   4.910  0.1308 -0.5879  0.3191
  209DG      C2 4786   4.046   1.471   5.141  0.6761 -0.3589 -0.0434
  209DG      H3 4787   3.708   0.634   4.809 -0.9953 -2.1250  1.0350
  209DG      H4 4788   3.636   0.697   4.963  0.6385 -1.5606  1.7823
  209DG      H5 4789   3.784   0.586   4.950  2.1163 -0.3273 -1.7311
  209DG      H6 4790   4.062   1.568   5.093  1.0698 -0.5128 -0.2319
  209DG      H7 4791   3.965   1.484   5.213 -0.0742 -0.5214 -0.8364
  209DG      H8 4792   4.129   1.438   5.203 -1.5865 -2.0416  2.3331
  209DG      O9 4793   3.822   0.778   4.899 -0.5208 -0.2158  0.2144
  209DG     O10 4794   4.025   1.377   5.031  0.4799 -0.1963 -0.3437
  209DG     C11 4795   3.868   0.820   5.027  0.0366 -0.2054  0.2853
  209DG     C12 4796   3.967   1.255   5.067  0.4800  0.2678  0.0453
  209DG     H13 4797   3.920   0.737   5.074  0.5939  0.8085  1.5410
  209DG     H14 4798   3.775   0.843   5.079  0.1523  0.5492  0.1796
  209DG     H15 4799   3.862   1.262   5.094 -0.3210 -1.1270 -2.3980
  209DG     H16 4800   4.013   1.214   5.157  0.1478 -1.1522 -0.4008
  209DG     C17 4801   3.965   0.943   5.025  0.6153  0.3784  0.0397
  209DG     C18 4802   3.973   1.166   4.953 -0.6569  0.1058  0.4581
  209DG     O19 4803   3.893   1.046   4.965 -0.2125 -0.1665  0.4063
  209DG     H20 4804   4.053   0.929   4.963  0.2059  2.5176 -1.1186
  209DG     H21 4805   4.008   0.950   5.125  0.5828 -2.5680  0.3502
  209DG     H22 4806   3.932   1.213   4.863 -1.0002 -0.0191  0.5459
  209DG     H23 4807   4.078   1.157   4.925 -0.5687 -0.7027  1.0442
  210DG      C1 4808   3.577   5.135   3.538 -0.1422  0.2350  0.2494
  210DG      C2 4809   3.721   4.722   3.033  0.2400  0.0834  0.8224
  210DG      H3 4810   3.630   5.066   3.604 -2.2941  0.6305  2.5418
  210DG      H4 4811   3.525   5.210   3.598 -1.0901 -0.8386  0.8048
  210DG      H5 4812   3.664   5.183   3.493  0.3138  0.1356  1.0075
  210DG      H6 4813   3.790   4.796   2.993 -0.6327  0.3215 -0.2688
  210DG      H7 4814   3.766   4.663   3.114  0.0852  1.7692  2.2007
  210DG      H8 4815   3.694   4.655   2.951 -2.0360 -3.6661  4.2088
  210DG      O9 4816   3.504   5.073   3.440 -0.6037 -0.5733 -0.4525
  210DG     O10 4817   3.609   4.792   3.088  0.2565 -0.6407 -0.4858
  210DG     C11 4818   3.457   5.166   3.344  0.1471  0.0881  0.1167
  210DG     C12 4819   3.556   4.873   2.989  0.6350  0.1688  0.2577
  210DG     H13 4820   3.539   5.231   3.315  0.1138  0.0769 -0.0054
  210DG     H14 4821   3.388   5.230   3.398 -0.3224 -0.2531 -0.0714
  210DG     H15 4822   3.512   4.802   2.919  0.9269 -0.8513  1.0713
  210DG     H16 4823   3.635   4.935   2.946  0.8423 -0.3030 -0.0536
  210DG     C17 4824   3.385   5.095   3.237 -0.2634  0.6884 -0.4371
  210DG     C18 4825   3.442   4.959   3.050 -0.6436  0.0023 -0.3516
  210DG     O19 4826   3.484   5.029   3.166 -0.3025  0.5301  0.4972
  210DG     H20 4827   3.327   5.156   3.167 -0.5032 -0.8476 -1.6252
  210DG     H21 4828   3.325   5.017   3.283  0.7792 -0.8711 -1.6237
  210DG     H22 4829   3.409   5.021   2.966  0.6696  0.1302 -0.7893
  210DG     H23 4830   3.356   4.897   3.077  0.0653 -0.5925  0.6063
  211DG      C1 4831   4.706   1.636   0.186  0.2388  0.3837  0.9630
  211DG      C2 4832   4.766   1.088   0.433 -0.7019  0.7720 -0.6606
  211DG      H3 4833   4.643   1.656   0.272 -1.0543 -1.1398  0.4218
  211DG      H4 4834   4.653   1.572   0.115  0.3270 -0.6199  1.7810
  211DG      H5 4835   4.726   1.723   0.123  1.1076 -0.4564  0.0508
  211DG      H6 4836   4.771   1.055   0.329  0.2955  0.4342 -0.5229
  211DG      H7 4837   4.789   1.000   0.492  0.6670  0.0961 -2.1069
  211DG      H8 4838   4.662   1.113   0.449 -0.8226 -0.6768  1.1424
  211DG      O9 4839   4.830   1.580   0.232  0.2313  0.2095  0.3143
  211DG     O10 4840   4.862   1.188   0.464 -0.4164  0.4626 -0.3444
  211DG     C11 4841   4.936   1.562   0.132  0.5440 -0.1773  0.0945
  211DG     C12 4842   4.995   1.175   0.417 -0.4400  0.0419  0.2534
  211DG     H13 4843   5.025   1.620   0.155  0.6249 -0.1081 -0.3823
  211DG     H14 4844   4.901   1.593   0.033  1.0363 -0.1144 -0.0635
  211DG     H15 4845   5.025   1.072   0.436  2.3239  0.6977 -0.1416
  211DG     H16 4846   5.054   1.240   0.481 -1.7557 -1.0188  2.6860
  211DG     C17 4847   4.978   1.417   0.135  0.3512  0.1073 -0.0658
  211DG     C18 4848   5.016   1.226   0.272 -0.4368  0.5614  0.0179
  211DG     O19 4849   4.966   1.358   0.260 -0.0098 -0.3178  0.0106
  211DG     H20 4850   5.082   1.412   0.103  1.0178 -0.4350  2.0514
  211DG     H21 4851   4.917   1.368   0.058  1.2828  0.9543 -1.3714
  211DG     H22 4852   5.122   1.224   0.245 -0.0837  1.9924  1.2039
  211DG     H23 4853   4.967   1.157   0.202  1.0366  1.8206 -2.4091
  212DG      C1 4854   2.314   3.214   5.368  0.4399  0.5883  0.0165
  212DG      C2 4855   2.594   3.797   5.340  0.1783 -0.1320  0.6266
  212DG      H3 4856   2.264   3.220   5.464 -0.6727 -1.2352 -0.4016
  212DG      H4 4857   2.313   3.109   5.338 -3.8158  0.7594 -0.9995
  212DG      H5 4858   2.232   3.250   5.307 -0.0720 -0.4302  0.0807
  212DG      H6 4859   2.498   3.806   5.392  0.2857  2.9705  0.4297
  212DG      H7 4860   2.677   3.827   5.403 -0.3291  0.3687  1.0669
  212DG      H8 4861   2.597   3.870   5.259  2.1407 -0.8502  0.0088
  212DG      O9 4862   2.436   3.297   5.348 -0.2840  0.0778 -0.5418
  212DG     O10 4863   2.614   3.666   5.299  0.0745 -0.1854  0.1348
  212DG     C11 4864   2.537   3.210   5.301 -0.3086  0.1638 -0.5603
  212DG     C12 4865   2.717   3.636   5.203 -0.2129 -0.4444  0.0855
  212DG     H13 4866   2.511   3.171   5.202 -3.3959 -0.0091  0.2075
  212DG     H14 4867   2.553   3.122   5.364 -0.2562 -0.1087 -0.9452
  212DG     H15 4868   2.803   3.702   5.212 -0.2858 -0.1312 -1.1928
  212DG     H16 4869   2.685   3.641   5.099 -0.8856  0.0172  0.3108
  212DG     C17 4870   2.671   3.283   5.288 -0.1040 -0.8317  0.4883
  212DG     C18 4871   2.758   3.490   5.235 -0.1149  0.0681 -0.2880
  212DG     O19 4872   2.643   3.407   5.241 -0.0482 -0.3230  0.4945
  212DG     H20 4873   2.736   3.240   5.212  0.1100  1.1098 -0.4896
  212DG     H21 4874   2.725   3.291   5.382 -0.4220 -2.6277  0.8631
  212DG     H22 4875   2.833   3.457   5.163  0.3475  1.1361 -0.3221
  212DG     H23 4876   2.803   3.497   5.334 -0.4702  0.8597 -0.1697
  213DG      C1 4877   1.963   4.269   1.224  0.2190 -0.1633  0.0503
  213DG      C2 4878   2.582   4.233   1.255  0.2654 -0.0568  0.8000
  213DG      H3 4879   1.862   4.229   1.210  0.7202 -0.7223 -2.6908
  213DG      H4 4880   1.984   4.301   1.122 -1.2803  0.9765  0.0606
  213DG      H5 4881   1.961   4.354   1.292  0.1715 -0.2721  0.1866
  213DG      H6 4882   2.616   4.211   1.153 -4.6734 -1.7017 -0.7648
  213DG      H7 4883   2.537   4.332   1.258 -0.5724 -0.2110 -2.5233
  213DG      H8 4884   2.655   4.213   1.334  0.8588  0.0054  0.2797
  213DG      O9 4885   2.047   4.171   1.280  0.0884 -0.0576  0.3930
  213DG     O10 4886   2.469   4.148   1.272 -0.5267  0.4142 -0.0948
  213DG     C11 4887   2.037   4.058   1.193 -0.4427 -0.0750  0.5218
  213DG     C12 4888   2.491   4.004   1.270 -0.9322 -0.1803  0.1892
  213DG     H13 4889   2.070   4.075   1.090  2.7752 -2.8961  0.9262
  213DG     H14 4890   1.935   4.019   1.186  0.2019 -1.7860  0.2023
  213DG     H15 4891   2.559   3.980   1.352  0.6995  0.0161 -1.0476
  213DG     H16 4892   2.541   3.981   1.176 -1.5509 -1.7788  0.2356
  213DG     C17 4893   2.131   3.954   1.251 -0.1712 -0.5312 -0.0361
  213DG     C18 4894   2.359   3.934   1.296  0.0910  0.5981 -0.1452
  213DG     O19 4895   2.257   4.013   1.231 -0.3717  0.2607  0.0720
  213DG     H20 4896   2.118   3.866   1.188  0.4789  0.6026 -1.8306
  213DG     H21 4897   2.109   3.929   1.355 -0.1861 -0.2975  0.0167
  213DG     H22 4898   2.363   3.836   1.249  0.5469  1.2936 -1.6022
  213DG     H23 4899   2.342   3.923   1.403  2.7086  1.2877  0.4155
  214DG      C1 4900   0.215   1.556   1.470 -0.6133  0.3846 -0.4661
  214DG      C2 4901  -0.105   1.213   1.011  0.0591  0.4750  0.1655
  214DG      H3 4902   0.291   1.520   1.401 -1.0925 -0.9984 -0.2925
  214DG      H4 4903   0.250   1.569   1.573  2.3356  0.6109 -1.3813
  214DG      H5 4904   0.196   1.658   1.436  0.4540 -0.1243 -2.7995
  214DG      H6 4905  -0.004   1.180   0.989 -0.5167 -0.3172 -1.4509
  214DG      H7 4906  -0.184   1.142   0.984  0.9356 -0.3281 -0.3605
  214DG      H8 4907  -0.112   1.307   0.957  1.6369  0.8689  0.6129
  214DG      O9 4908   0.107   1.462   1.458  0.2244 -0.2746 -0.7658
  214DG     O10 4909  -0.102   1.220   1.151  0.1759 -0.0658  0.3687
  214DG     C11 4910  -0.001   1.486   1.550  0.5566  0.6557  0.2554
  214DG     C12 4911  -0.230   1.236   1.217 -0.3453 -0.0847 -0.0434
  214DG     H13 4912  -0.050   1.583   1.546 -1.1912 -0.1372  1.1374
  214DG     H14 4913   0.030   1.491   1.655  1.2176  0.1464  0.0936
  214DG     H15 4914  -0.311   1.162   1.212 -0.8103  0.3489  0.8847
  214DG     H16 4915  -0.274   1.332   1.193 -0.1510 -0.1854 -0.8236
  214DG     C17 4916  -0.092   1.358   1.540 -0.4637 -0.8639  0.4168
  214DG     C18 4917  -0.190   1.231   1.366  0.1847  0.0567 -0.3706
  214DG     O19 4918  -0.102   1.341   1.399  0.4870 -0.5054  0.2804
  214DG     H20 4919  -0.193   1.371   1.579 -0.0133  1.3578  0.9477
  214DG     H21 4920  -0.048   1.268   1.583  0.1893 -0.6512  0.2011
  214DG     H22 4921  -0.280   1.242   1.427  0.9336  1.7745  0.4832
  214DG     H23 4922  -0.134   1.140   1.387 -0.1558 -0.1013 -0.1369
  215DG      C1 4923   1.087   1.227   3.054  0.6464 -0.1908 -0.5001
  215DG      C2 4924   0.677   1.010   3.536 -0.0939 -0.1280 -0.0792
  215DG      H3 4925   1.006   1.244   2.983 -1.3901  3.3230  2.3115
  215DG      H4 4926   1.134   1.129   3.042 -0.2193 -0.6043 -0.5634
  215DG      H5 4927   1.171   1.294   3.038  0.3859  0.4802  0.7820
  215DG      H6 4928   0.743   0.976   3.615  0.6093  0.6121 -0.3415
  215DG      H7 4929   0.586   1.035   3.590  1.4081  1.8244  1.7081
  215DG      H8 4930   0.661   0.932   3.461 -0.3129 -0.9139  0.7671
  215DG      O9 4931   1.040   1.227   3.185 -0.2782 -0.0689 -0.2280
  215DG     O10 4932   0.725   1.139   3.488 -0.4709 -0.2645 -0.1765
  215DG     C11 4933   1.066   1.354   3.248  0.1071  0.1553  0.4769
  215DG     C12 4934   0.733   1.251   3.574 -0.1591 -0.0332  0.0486
  215DG     H13 4935   0.986   1.419   3.213 -1.2793 -1.1744  1.0191
  215DG     H14 4936   1.163   1.396   3.224  1.2164 -1.2917  2.1833
  215DG     H15 4937   0.691   1.223   3.670 -3.7332  0.3271 -1.2513
  215DG     H16 4938   0.669   1.330   3.536 -0.1289  0.5055  1.0957
  215DG     C17 4939   1.051   1.338   3.407 -0.0809 -0.2186  0.0373
  215DG     C18 4940   0.880   1.296   3.575  0.0440  0.7035  0.0324
  215DG     O19 4941   0.937   1.269   3.441 -0.5494  0.6199 -0.4386
  215DG     H20 4942   1.043   1.441   3.443 -0.3592  0.7374 -2.5766
  215DG     H21 4943   1.134   1.288   3.457 -0.0211 -0.6408 -0.4836
  215DG     H22 4944   0.879   1.404   3.594 -2.1448  0.8058 -0.4846
  215DG     H23 4945   0.933   1.245   3.655  0.2365  1.2593  0.2676
  216DG      C1 4946   3.686   4.899   2.200 -0.0497  0.2906 -0.5742
  216DG      C2 4947   4.273   4.965   1.857  0.4983  0.1690 -0.4717
  216DG      H3 4948   3.736   4.859   2.288 -0.8993 -0.5075 -0.4407
  216DG      H4 4949   3.588   4.851   2.198 -1.3271  2.7848 -0.9243
  216DG      H5 4950   3.663   5.005   2.206  0.1332  0.3062 -0.0881
  216DG      H6 4951   4.339   4.917   1.785 -0.6972 -1.0372 -0.7916
  216DG      H7 4952   4.260   5.071   1.832 -0.8179  0.1239 -0.0278
  216DG      H8 4953   4.326   4.959   1.952  1.4799  2.1782 -0.8205
  216DG      O9 4954   3.744   4.861   2.082 -0.0586 -0.7375  0.4229
  216DG     O10 4955   4.146   4.904   1.858  0.6204  0.3113 -0.3129
  216DG     C11 4956   3.668   4.899   1.969  0.5224 -0.1474 -1.0378
  216DG     C12 4957   4.086   4.918   1.734  0.0557  0.3358  0.4097
  216DG     H13 4958   3.658   5.007   1.978 -1.2864 -0.4001  0.3813
  216DG     H14 4959   3.567   4.860   1.974  0.8783 -0.9493  0.1409
  216DG     H15 4960   4.149   4.877   1.655 -3.0521 -1.4073 -1.3197
  216DG     H16 4961   4.085   5.025   1.710 -3.7912  0.0159 -1.5522
  216DG     C17 4962   3.731   4.876   1.832  0.0298 -0.3404 -0.2598
  216DG     C18 4963   3.949   4.848   1.731  0.3369  0.7255 -0.0240
  216DG     O19 4964   3.873   4.902   1.841  0.6257 -0.4288 -0.2086
  216DG     H20 4965   3.682   4.944   1.763 -0.9458 -3.2266 -2.6581
  216DG     H21 4966   3.721   4.776   1.789  0.6340  0.1203 -1.5377
  216DG     H22 4967   3.884   4.847   1.644 -0.2079  0.7229  0.3783
  216DG     H23 4968   3.953   4.739   1.735  0.6127  0.7024 -0.7388
  217DG      C1 4969   3.575   1.339   4.466  0.4895 -0.1973  0.0616
  217DG      C2 4970   4.211   1.007   4.552 -0.4588 -0.0996 -0.4023
  217DG      H3 4971   3.485   1.308   4.413  1.2665  0.2561 -1.6126
  217DG      H4 4972   3.627   1.410   4.402  1.4712 -0.5438  0.4582
  217DG      H5 4973   3.547   1.396   4.554 -1.4885  0.4000 -0.9025
  217DG      H6 4974   4.231   0.928   4.479 -0.5988 -0.2177 -0.3135
  217DG      H7 4975   4.256   1.099   4.514 -0.3910  0.5813  1.2547
  217DG      H8 4976   4.246   0.969   4.648 -2.7379 -1.9199 -0.1934
  217DG      O9 4977   3.656   1.235   4.503 -0.1919 -0.2903  0.0781
  217DG     O10 4978   4.071   1.019   4.541  0.0852 -0.0252  0.0456
  217DG     C11 4979   3.577   1.142   4.578  0.2098 -0.4668 -0.3317
  217DG     C12 4980   4.001   0.910   4.604 -0.2786 -0.2038  0.3384
  217DG     H13 4981   3.472   1.137   4.550 -0.5236  1.1324  1.9020
  217DG     H14 4982   3.596   1.179   4.679  1.7800 -2.4858  0.1885
  217DG     H15 4983   4.016   0.932   4.709 -1.3863 -0.6233  0.5955
  217DG     H16 4984   4.056   0.820   4.577 -1.3036 -0.7233 -0.0800
  217DG     C17 4985   3.640   1.000   4.565 -0.2970 -0.0229  0.5206
  217DG     C18 4986   3.852   0.892   4.566 -0.8925 -0.0089 -0.2027
  217DG     O19 4987   3.780   1.014   4.577  0.3266 -0.1483  0.4228
  217DG     H20 4988   3.612   0.947   4.474  1.5784 -1.9428  0.9766
  217DG     H21 4989   3.605   0.942   4.651 -1.5493  2.4432  1.7640
  217DG     H22 4990   3.843   0.842   4.470 -0.7488 -0.1994 -0.1159
  217DG     H23 4991   3.814   0.819   4.638  1.0320 -0.9080 -0.0397
  218DG      C1 4992   4.547   4.208   4.856 -0.3942  0.0549  0.3572
  218DG      C2 4993   3.889   4.092   5.078  0.0932 -0.1842  0.0106
  218DG      H3 4994   4.562   4.101   4.843 -0.0428 -0.1484  2.2871
  218DG      H4 4995   4.581   4.239   4.954 -0.9453  3.3271 -0.3543
  218DG      H5 4996   4.607   4.258   4.780 -1.3012 -0.7072 -0.9017
  218DG      H6 4997   3.794   4.103   5.026  0.3127  2.2979  0.0242
  218DG      H7 4998   3.920   3.987   5.088  0.0308 -0.2346 -0.3268
  218DG      H8 4999   3.863   4.128   5.177 -1.2789 -2.9411  0.7523
  218DG      O9 5000   4.414   4.233   4.825 -0.1253 -0.0334 -0.4599
  218DG     O10 5001   3.985   4.168   5.015 -0.1411  0.1678  0.1468
  218DG     C11 5002   4.395   4.372   4.820  0.2131  0.1912 -0.0527
  218DG     C12 5003   3.957   4.304   5.003 -0.5965 -0.1022  0.1557
  218DG     H13 5004   4.451   4.426   4.744 -0.3222  2.1540  0.8685
  218DG     H14 5005   4.439   4.417   4.908  1.3408 -1.5074  0.2888
  218DG     H15 5006   4.011   4.343   5.090 -0.0538 -0.0157 -0.2190
  218DG     H16 5007   3.850   4.328   5.010 -0.5256  0.5440 -0.8115
  218DG     C17 5008   4.241   4.411   4.804  0.2109  0.8141 -0.0712
  218DG     C18 5009   4.028   4.357   4.877  0.4820 -0.2123 -0.7152
  218DG     O19 5010   4.170   4.334   4.897 -0.0843  0.0407 -0.3147
  218DG     H20 5011   4.210   4.380   4.704 -1.4930  0.9230  0.4046
  218DG     H21 5012   4.238   4.520   4.808 -2.0294  1.0010 -3.3859
  218DG     H22 5013   3.994   4.314   4.783  1.6659 -1.6915 -0.5070
  218DG     H23 5014   4.009   4.464   4.883  0.2928 -0.2959  0.4852
  219DG      C1 5015   2.305   0.505   0.764  0.4721  0.3336  0.2210
  219DG      C2 5016   2.391   1.053   1.083  0.5088 -0.6309 -0.5625
  219DG      H3 5017   2.376   0.438   0.812 -1.4695 -1.3348  0.9347
  219DG      H4 5018   2.353   0.580   0.702  1.6466 -0.6992 -0.1562
  219DG      H5 5019   2.238   0.447   0.700  1.5421 -0.8580  0.1518
  219DG      H6 5020   2.484   0.997   1.074  1.2367  0.5762 -0.7839
  219DG      H7 5021   2.358   1.099   0.990 -1.9871  1.1641  1.0856
  219DG      H8 5022   2.409   1.131   1.156  0.1472 -0.0339 -1.1025
  219DG      O9 5023   2.230   0.580   0.859  0.4091 -0.1982 -0.0811
  219DG     O10 5024   2.297   0.957   1.114  0.5194 -0.4239  0.0692
  219DG     C11 5025   2.202   0.507   0.981 -0.4121 -0.2312  0.0131
  219DG     C12 5026   2.315   0.897   1.236  0.1547  0.5859 -0.5038
  219DG     H13 5027   2.301   0.470   1.008 -0.2618  0.9091  1.1026
  219DG     H14 5028   2.131   0.425   0.971 -0.6701 -0.0928  0.7091
  219DG     H15 5029   2.272   0.961   1.313  3.7467  0.6557  1.6765
  219DG     H16 5030   2.417   0.874   1.268 -1.1549 -2.2003  2.2894
  219DG     C17 5031   2.164   0.588   1.104 -0.5399 -0.5002  0.3060
  219DG     C18 5032   2.223   0.769   1.226 -0.6714  0.0090  0.6635
  219DG     O19 5033   2.252   0.696   1.105 -0.0854 -0.1586 -0.7528
  219DG     H20 5034   2.169   0.526   1.194 -1.2108 -0.5527  0.3181
  219DG     H21 5035   2.063   0.629   1.100  0.5865  2.5000 -0.1317
  219DG     H22 5036   2.254   0.713   1.315 -1.7112 -1.0922  0.3498
  219DG     H23 5037   2.119   0.799   1.234 -1.7933 -1.8288 -3.9173
  220DG      C1 5038   3.595   1.601   0.056 -0.1868 -0.5129  0.1716
  220DG      C2 5039   3.078   2.014   0.009  0.8509  0.4548  0.9190
  220DG      H3 5040   3.671   1.570   0.128  0.7682 -0.3356 -0.7398
  220DG      H4 5041   3.617   1.696   0.007 -2.0647  0.6386  1.4385
  220DG      H5 5042   3.599   1.520  -0.017 -1.4249  0.3747 -0.9236
  220DG      H6 5043   3.029   2.093   0.067 -0.6586  0.6117 -0.4973
  220DG      H7 5044   3.157   2.061  -0.050  2.1568 -2.5468  0.1076
  220DG      H8 5045   3.003   1.984  -0.063  0.9201 -0.0473  1.0557
  220DG      O9 5046   3.472   1.632   0.121 -0.6730 -0.5012  0.4430
  220DG     O10 5047   3.138   1.908   0.076 -0.0696  0.6491  0.4013
  220DG     C11 5048   3.432   1.525   0.208 -1.0104 -0.5007  0.3687
  220DG     C12 5049   3.061   1.830   0.164  0.5437 -0.1762 -0.0554
  220DG     H13 5050   3.508   1.500   0.283 -0.4174 -0.8434 -0.3286
  220DG     H14 5051   3.397   1.435   0.158 -1.3671 -1.0182  1.4950
  220DG     H15 5052   2.987   1.773   0.108  0.2549 -0.3304  0.4713
  220DG     H16 5053   3.006   1.901   0.225 -0.6511  0.3699 -1.6919
  220DG     C17 5054   3.303   1.578   0.282 -0.2326  0.4600  0.2635
  220DG     C18 5055   3.140   1.743   0.259  0.0613  0.0943  0.0712
  220DG     O19 5056   3.229   1.654   0.192 -0.8291  0.3001 -0.3724
  220DG     H20 5057   3.346   1.637   0.363  3.4649 -2.5546  0.7760
  220DG     H21 5058   3.242   1.495   0.317 -0.7560  0.1384 -1.3109
  220DG     H22 5059   3.201   1.814   0.315  1.3107 -1.4184  0.7240
  220DG     H23 5060   3.082   1.685   0.331  1.5551 -0.1328  1.1668
  221DG      C1 5061   4.977   3.449   0.229  0.2961  1.1427  0.3743
  221DG      C2 5062   4.640   4.038   0.282  0.3020  0.6144  0.0336
  221DG      H3 5063   4.999   3.342   0.224  0.4108  1.1267  1.0899
  221DG      H4 5064   5.021   3.491   0.319  3.5289 -1.9439  0.4590
  221DG      H5 5065   5.034   3.493   0.147  2.8198 -1.2414  0.6728
  221DG      H6 5066   4.555   4.060   0.347 -0.4395 -0.0248 -0.7011
  221DG      H7 5067   4.738   4.058   0.324  1.0830 -0.6789 -1.1249
  221DG      H8 5068   4.631   4.095   0.189 -1.2137 -0.7414 -0.7055
  221DG      O9 5069   4.841   3.481   0.217  0.6067 -0.7455 -0.6179
  221DG     O10 5070   4.638   3.893   0.252  0.2230 -0.5811  0.0865
  221DG     C11 5071   4.753   3.445   0.323 -0.3267 -0.4489  0.2773
  221DG     C12 5072   4.515   3.850   0.208  1.3363 -0.0576 -0.3186
  221DG     H13 5073   4.793   3.493   0.412 -0.9998 -0.3153  0.5138
  221DG     H14 5074   4.756   3.338   0.340 -0.0772 -0.0300  3.5625
  221DG     H15 5075   4.505   3.838   0.100  1.8679  2.6531 -0.7298
  221DG     H16 5076   4.428   3.908   0.237  1.1517 -1.5040  2.3868
  221DG     C17 5077   4.607   3.496   0.293  0.2494  0.2269 -1.0481
  221DG     C18 5078   4.488   3.705   0.257 -0.0399  0.2296  0.8252
  221DG     O19 5079   4.612   3.634   0.259  0.5084 -0.0036  0.5080
  221DG     H20 5080   4.544   3.481   0.381  0.5488 -0.5457 -0.9577
  221DG     H21 5081   4.560   3.440   0.212 -1.0339 -1.2722  0.6255
  221DG     H22 5082   4.435   3.704   0.353 -1.4768  0.0529  0.0612
  221DG     H23 5083   4.414   3.664   0.189 -0.3552 -1.6348  2.1954
  222DG      C1 5084   0.752   2.967   2.433  0.1235 -0.1775  0.0247
  222DG      C2 5085   0.823   2.320   2.299 -0.2718 -0.3673 -0.0769
  222DG      H3 5086   0.702   2.967   2.336 -0.8840  3.6946  0.3728
  222DG      H4 5087   0.831   3.041   2.434 -0.7800  0.7999  0.4679
  222DG      H5 5088   0.678   3.002   2.504 -1.0234 -0.1805 -1.1201
  222DG      H6 5089   0.736   2.312   2.363  0.9948  3.1999  2.3955
  222DG      H7 5090   0.785   2.359   2.205  0.5312  0.2969 -0.1449
  222DG      H8 5091   0.874   2.227   2.271 -2.1234 -1.0307 -1.4129
  222DG      O9 5092   0.803   2.833   2.466  0.0584 -0.5417 -0.0932
  222DG     O10 5093   0.912   2.421   2.347 -0.1673 -0.1660  0.4150
  222DG     C11 5094   0.793   2.804   2.605 -0.3872 -0.1599  0.4601
  222DG     C12 5095   0.971   2.402   2.476  0.1632  1.0199 -0.0036
  222DG     H13 5096   0.694   2.785   2.646 -0.6732 -2.8390 -1.2016
  222DG     H14 5097   0.838   2.882   2.666 -0.1481 -0.7320  1.0198
  222DG     H15 5098   1.068   2.450   2.483 -0.0323  1.8203 -2.1304
  222DG     H16 5099   0.988   2.296   2.494 -0.1184  1.0397  0.4073
  222DG     C17 5100   0.875   2.672   2.618  0.4249 -0.1428 -0.1026
  222DG     C18 5101   0.868   2.438   2.580 -0.0330  0.0282  0.5814
  222DG     O19 5102   0.815   2.566   2.551 -0.7122  0.0189  0.5885
  222DG     H20 5103   0.879   2.645   2.723 -0.0498 -0.2684 -0.1119
  222DG     H21 5104   0.979   2.680   2.587  0.1664  0.8249 -0.7920
  222DG     H22 5105   0.781   2.372   2.571 -1.2889  1.9503 -2.8702
  222DG     H23 5106   0.915   2.430   2.678 -2.0039  0.0581  1.5842
  223DG      C1 5107   2.967   5.156   4.702  0.0474  0.1308 -0.0124
  223DG      C2 5108   3.210   5.764   4.395 -0.6637  0.4709 -0.7153
  223DG      H3 5109   2.950   5.195   4.802  1.2981  0.5894  0.0321
  223DG      H4 5110   3.045   5.084   4.726  0.8973  1.3043  0.8195
  223DG      H5 5111   2.883   5.092   4.675 -0.0791  0.0681  0.5212
  223DG      H6 5112   3.111   5.761   4.351 -0.7081 -0.1295 -0.5939
  223DG      H7 5113   3.223   5.819   4.488 -0.1232  0.0697 -0.5470
  223DG      H8 5114   3.284   5.803   4.326  0.8972  0.8541  1.0865
  223DG      O9 5115   3.005   5.255   4.605  0.0120  0.3964 -0.2157
  223DG     O10 5116   3.251   5.636   4.423  0.2895 -0.4336  0.9299
  223DG     C11 5117   3.028   5.183   4.481 -0.1658 -0.6916  0.4903
  223DG     C12 5118   3.233   5.555   4.302  0.1156  0.1028 -0.9146
  223DG     H13 5119   2.932   5.149   4.441  1.1712 -4.2062 -0.1107
  223DG     H14 5120   3.095   5.098   4.491  0.5249  0.0275  2.4176
  223DG     H15 5121   3.297   5.594   4.224  3.3412 -0.7451  1.1146
  223DG     H16 5122   3.130   5.547   4.268 -0.2433  2.8841 -0.7253
  223DG     C17 5123   3.091   5.278   4.375  0.5031  0.1788 -0.6207
  223DG     C18 5124   3.281   5.407   4.328 -0.1405  0.0585 -0.6095
  223DG     O19 5125   3.205   5.341   4.428 -0.1018 -0.3138  0.2096
  223DG     H20 5126   3.021   5.348   4.330 -0.0629  0.6844  0.9712
  223DG     H21 5127   3.112   5.213   4.290 -2.4271  0.9884 -2.1008
  223DG     H22 5128   3.287   5.347   4.237  1.0015 -1.1595  0.2164
  223DG     H23 5129   3.382   5.396   4.368 -0.1225 -2.6813 -1.1947
  224DG      C1 5130   1.426   3.145   0.110  0.5978  0.3111 -0.4475
  224DG      C2 5131   1.326   2.958   0.794 -0.7524  0.0019  0.8174
  224DG      H3 5132   1.488   3.193   0.033  2.4829 -0.4418  0.5284
  224DG      H4 5133   1.333   3.123   0.059  0.1265  1.1892  0.0139
  224DG      H5 5134   1.487   3.057   0.131  0.6247  0.3178 -0.4966
  224DG      H6 5135   1.288   3.008   0.883 -0.0713  0.7821  0.6897
  224DG      H7 5136   1.267   2.874   0.758  0.5556 -0.5279 -0.1752
  224DG      H8 5137   1.418   2.907   0.825  0.1309  1.0128 -0.0666
  224DG      O9 5138   1.411   3.216   0.229  0.8494  0.3753  0.3020
  224DG     O10 5139   1.352   3.053   0.694 -0.4648  0.2267 -0.4710
  224DG     C11 5140   1.534   3.258   0.285 -0.6308  0.1483 -0.3302
  224DG     C12 5141   1.473   3.128   0.734  0.2819  0.0416  0.4938
  224DG     H13 5142   1.585   3.334   0.225 -1.9959  1.7549  0.4577
  224DG     H14 5143   1.597   3.170   0.293  0.0849  0.8076  2.5779
  224DG     H15 5144   1.560   3.063   0.731  0.4797  0.2973 -1.9770
  224DG     H16 5145   1.461   3.169   0.834 -2.1468  4.1325 -1.2254
  224DG     C17 5146   1.516   3.321   0.416 -0.1088  0.3222 -0.1705
  224DG     C18 5147   1.486   3.251   0.645 -0.1346  0.1211  0.7630
  224DG     O19 5148   1.482   3.219   0.511  0.2975  0.5972  0.0927
  224DG     H20 5149   1.443   3.400   0.400 -1.0635 -0.3199  0.8308
  224DG     H21 5150   1.613   3.358   0.449 -0.6369  0.1400  1.7291
  224DG     H22 5151   1.396   3.309   0.667 -0.9818 -0.4772 -0.9382
  224DG     H23 5152   1.575   3.311   0.662  0.4755 -0.8974  1.2483
  225DG      C1 5153   5.032   2.790   2.394 -0.0192  0.3338  0.4707
  225DG      C2 5154   4.604   2.265   2.088 -0.2802 -0.3420 -0.2017
  225DG      H3 5155   5.130   2.836   2.382 -0.8182  1.8256 -0.6338
  225DG      H4 5156   4.995   2.818   2.492  1.4527 -1.5408  1.6515
  225DG      H5 5157   4.964   2.836   2.323 -0.2751 -0.2932  0.2992
  225DG      H6 5158   4.645   2.175   2.135  2.4115  1.2179  0.6447
  225DG      H7 5159   4.500   2.271   2.120 -0.0329  2.8348  0.2956
  225DG      H8 5160   4.597   2.246   1.981 -1.1786  1.9833 -0.6150
  225DG      O9 5161   5.029   2.651   2.375  0.5722  0.2569  0.6844
  225DG     O10 5162   4.676   2.385   2.096 -0.0372 -0.1428  0.1146
  225DG     C11 5163   5.094   2.601   2.253 -0.6584  0.0725  0.5405
  225DG     C12 5164   4.697   2.416   2.230 -0.0621 -0.2935  0.1032
  225DG     H13 5165   5.143   2.507   2.276 -0.5673 -0.1458 -0.4858
  225DG     H14 5166   5.175   2.669   2.226 -0.3273 -1.4014 -2.6239
  225DG     H15 5167   4.744   2.343   2.297  0.4101  1.8919  2.2985
  225DG     H16 5168   4.606   2.452   2.278  0.2939 -0.6698  1.0872
  225DG     C17 5169   5.002   2.587   2.136 -0.6146 -1.0751 -0.7140
  225DG     C18 5170   4.792   2.533   2.221  0.7755 -0.6606  0.1118
  225DG     O19 5171   4.909   2.482   2.162  0.6706  0.6555 -0.3666
  225DG     H20 5172   5.054   2.543   2.051 -3.0008 -1.2311 -2.1734
  225DG     H21 5173   4.960   2.680   2.097  1.1397  0.7274  1.4190
  225DG     H22 5174   4.759   2.616   2.159  0.7371 -0.7602 -0.0014
  225DG     H23 5175   4.805   2.560   2.326 -1.2770 -2.6459  0.9974
  226DG      C1 5176   5.409   4.714   0.270 -0.4928  0.5732 -0.6876
  226DG      C2 5177   5.081   5.206  -0.091  0.3807 -0.6759  0.2676
  226DG      H3 5178   5.489   4.782   0.242 -2.1121  1.3270 -3.9504
  226DG      H4 5179   5.435   4.616   0.230  1.2277  0.3741  0.7733
  226DG      H5 5180   5.405   4.719   0.379  3.8895  2.3495 -0.4362
  226DG      H6 5181   5.037   5.261  -0.008  2.7602 -0.1759  1.2676
  226DG      H7 5182   5.187   5.229  -0.086  0.7773 -2.3614  0.1342
  226DG      H8 5183   5.043   5.241  -0.187 -0.7004 -4.5965 -0.9305
  226DG      O9 5184   5.298   4.751   0.194 -0.6123  0.6783 -0.4882
  226DG     O10 5185   5.072   5.072  -0.096  0.0160  0.4553  0.5566
  226DG     C11 5186   5.177   4.675   0.213 -1.1895  0.5469  0.1736
  226DG     C12 5187   4.948   5.034  -0.041  0.3896  0.2375  0.7845
  226DG     H13 5188   5.131   4.685   0.311 -2.3824 -0.1187 -0.3063
  226DG     H14 5189   5.201   4.569   0.202  1.2131  1.1107 -0.7937
  226DG     H15 5190   4.870   5.047  -0.116  2.2136  0.4682 -1.1681
  226DG     H16 5191   4.915   5.088   0.048 -0.4694  0.7560  0.1621
  226DG     C17 5192   5.078   4.714   0.097  0.4667 -0.5067  0.0748
  226DG     C18 5193   4.963   4.880  -0.012 -0.0292 -0.3394 -0.5556
  226DG     O19 5194   5.065   4.851   0.074  0.1774 -0.0227  0.1914
  226DG     H20 5195   4.984   4.663   0.118 -0.1474  0.6990  0.2793
  226DG     H21 5196   5.104   4.655   0.009 -3.1595 -2.2981  0.0343
  226DG     H22 5197   4.866   4.850   0.030  0.4425  1.0251  1.6739
  226DG     H23 5198   4.967   4.822  -0.104  0.9584 -1.0044 -0.1091
  227DG      C1 5199   3.411   3.201   0.150 -0.3091  0.0238 -0.1265
  227DG      C2 5200   2.938   2.873   0.470 -0.5064  0.4234 -0.5059
  227DG      H3 5201   3.342   3.286   0.145 -1.3351 -0.7103  0.8788
  227DG      H4 5202   3.442   3.194   0.046 -0.4758  0.9225 -0.2434
  227DG      H5 5203   3.494   3.233   0.213 -2.6789  1.7242  2.4005
  227DG      H6 5204   2.983   2.863   0.569  0.4429 -0.0443 -0.9722
  227DG      H7 5205   2.895   2.973   0.473 -2.0113 -0.2104  0.9312
  227DG      H8 5206   2.852   2.806   0.459 -1.0453  0.9451  0.4140
  227DG      O9 5207   3.355   3.079   0.200 -0.2178  0.1517 -0.9473
  227DG     O10 5208   3.033   2.843   0.368 -0.2296  0.0045  0.1731
  227DG     C11 5209   3.450   2.968   0.189  0.1898  0.7818 -0.3642
  227DG     C12 5210   3.084   2.710   0.362 -0.2410  0.2770  0.1890
  227DG     H13 5211   3.509   2.954   0.279 -1.0101  2.0159  0.6723
  227DG     H14 5212   3.529   2.994   0.119  0.2850 -0.9585 -0.9373
  227DG     H15 5213   3.004   2.639   0.337 -0.0192 -0.1385  0.6412
  227DG     H16 5214   3.124   2.662   0.451 -0.2241 -0.5656 -0.2526
  227DG     C17 5215   3.377   2.844   0.161  0.2555  0.0776  0.1902
  227DG     C18 5216   3.189   2.715   0.244  0.1915 -0.4273  1.2177
  227DG     O19 5217   3.280   2.820   0.274 -0.0198  0.5341  0.3944
  227DG     H20 5218   3.442   2.758   0.146 -0.8101 -0.9791  1.3101
  227DG     H21 5219   3.321   2.849   0.068 -0.2407 -0.9567  0.4120
  227DG     H22 5220   3.237   2.619   0.225 -1.5411 -1.1796  0.3828
  227DG     H23 5221   3.144   2.734   0.146  0.6094  1.8265  1.3926
  228DG      C1 5222   4.138   3.553   0.396 -0.0043 -0.8131  0.2018
  228DG      C2 5223   3.760   4.049   0.448  0.1128  0.0050  0.0403
  228DG      H3 5224   4.152   3.484   0.312  0.1851  0.0362 -0.4876
  228DG      H4 5225   4.153   3.485   0.480  0.9059 -0.5257  0.2812
  228DG      H5 5226   4.205   3.637   0.383 -2.4955  1.2070 -0.5098
  228DG      H6 5227   3.771   4.099   0.544  1.5523 -0.9354  0.4025
  228DG      H7 5228   3.862   4.063   0.412  0.2278  1.0458  0.7488
  228DG      H8 5229   3.682   4.110   0.402  0.3132  1.1513  1.1662
  228DG      O9 5230   4.007   3.590   0.383  0.9547  0.0007  0.4036
  228DG     O10 5231   3.737   3.912   0.485  0.1964 -0.2411 -0.1637
  228DG     C11 5232   3.913   3.477   0.377 -0.2309  0.1946  0.2939
  228DG     C12 5233   3.629   3.855   0.413 -0.5165 -0.7416  0.2592
  228DG     H13 5234   3.947   3.389   0.431  0.4951  0.6423  0.5704
  228DG     H14 5235   3.924   3.439   0.275  1.3905  0.9085  0.1674
  228DG     H15 5236   3.646   3.874   0.307  0.4743  1.2962  0.7373
  228DG     H16 5237   3.542   3.913   0.445  0.3933  0.6517  0.3217
  228DG     C17 5238   3.763   3.512   0.413 -0.4850  0.3269 -0.1859
  228DG     C18 5239   3.606   3.706   0.435 -0.4935  0.3920  0.1159
  228DG     O19 5240   3.722   3.649   0.376 -0.2640 -0.0779 -0.1731
  228DG     H20 5241   3.761   3.490   0.520  3.3904 -0.3343 -0.0992
  228DG     H21 5242   3.687   3.445   0.373 -0.2604  0.4527 -0.8349
  228DG     H22 5243   3.607   3.683   0.542  2.2572  1.3936  0.3887
  228DG     H23 5244   3.520   3.659   0.387  0.5954 -1.2742 -0.2925
  229DG      C1 5245   0.529   2.134   2.086 -0.8674 -0.3623  0.3748
  229DG      C2 5246   0.094   1.911   1.593  0.6010  0.4179 -0.5727
  229DG      H3 5247   0.599   2.210   2.119  2.0180 -0.7128 -4.0489
  229DG      H4 5248   0.584   2.040   2.100  1.9372  1.0611 -0.3591
  229DG      H5 5249   0.439   2.137   2.148 -1.2945  0.2111 -0.2614
  229DG      H6 5250   0.015   1.934   1.665  0.2329 -0.3867 -0.7093
  229DG      H7 5251   0.055   1.913   1.491 -2.4718 -3.5229  0.2857
  229DG      H8 5252   0.125   1.809   1.614  1.0346  0.8835  1.2160
  229DG      O9 5253   0.497   2.158   1.943  0.3433 -0.2571 -0.3761
  229DG     O10 5254   0.202   1.998   1.615  0.5449 -0.1952 -0.4773
  229DG     C11 5255   0.610   2.149   1.859 -0.2794  0.1461 -0.2026
  229DG     C12 5256   0.308   1.994   1.519 -0.0492 -0.3432 -0.3735
  229DG     H13 5257   0.656   2.051   1.868 -0.8085 -0.3363 -2.2446
  229DG     H14 5258   0.689   2.218   1.890 -0.6927 -0.0910  1.4883
  229DG     H15 5259   0.274   1.993   1.416  3.9112 -2.1534 -1.8534
  229DG     H16 5260   0.342   1.891   1.527  1.6968  0.1918 -0.4402
  229DG     C17 5261   0.566   2.182   1.716  0.2345  0.0288 -0.2184
  229DG     C18 5262   0.426   2.096   1.539 -0.2260 -0.0024  0.1549
  229DG     O19 5263   0.468   2.089   1.671  0.1084  0.3031 -0.2948
  229DG     H20 5264   0.650   2.171   1.648 -1.6945  0.3155 -2.8233
  229DG     H21 5265   0.534   2.286   1.705  3.1614  1.0006 -0.3067
  229DG     H22 5266   0.511   2.080   1.473 -1.8816 -2.5608 -1.5356
  229DG     H23 5267   0.398   2.200   1.527 -0.8236  0.1911  2.5986
  230DG      C1 5268   4.208   4.068   4.657 -0.6321 -0.9155 -0.4003
  230DG      C2 5269   4.526   3.935   5.266  0.2555 -0.5320 -0.0168
  230DG      H3 5270   4.302   4.118   4.633 -0.8934  0.0236  0.4343
  230DG      H4 5271   4.128   4.139   4.678  1.1009  1.2631 -0.7726
  230DG      H5 5272   4.170   4.018   4.568 -0.2511  1.7162 -2.1555
  230DG      H6 5273   4.566   3.860   5.334  2.0762 -0.2440 -0.7043
  230DG      H7 5274   4.608   3.996   5.228  2.5129 -1.9722  2.2259
  230DG      H8 5275   4.465   4.008   5.320 -0.1098 -0.0196 -1.1003
  230DG      O9 5276   4.220   3.979   4.762 -0.0251  0.5363  0.1205
  230DG     O10 5277   4.450   3.876   5.162  0.1560 -0.2879 -0.1476
  230DG     C11 5278   4.094   3.922   4.790  0.1679  0.1198  0.2694
  230DG     C12 5279   4.331   3.818   5.216 -1.0181  0.3297  0.4688
  230DG     H13 5280   4.055   3.874   4.700 -1.2701  0.0001  0.9224
  230DG     H14 5281   4.016   3.990   4.824  0.4549 -0.8005  3.0194
  230DG     H15 5282   4.281   3.889   5.282 -0.1403  0.7125  0.7494
  230DG     H16 5283   4.358   3.736   5.282 -0.6624  0.0795  0.0186
  230DG     C17 5284   4.129   3.825   4.895  0.2495  0.4445  0.0060
  230DG     C18 5285   4.234   3.769   5.101 -0.6848  0.3568 -0.6064
  230DG     O19 5286   4.214   3.873   5.005  0.6356 -0.4018  0.6070
  230DG     H20 5287   4.179   3.739   4.850 -1.6265 -0.6076 -0.1645
  230DG     H21 5288   4.033   3.797   4.940  0.6118 -0.2933  0.3404
  230DG     H22 5289   4.279   3.685   5.047  0.5331  1.2076 -0.9421
  230DG     H23 5290   4.135   3.746   5.140  0.8839 -1.9415  2.4228
  231DG      C1 5291   4.232   4.553   1.817 -0.2597 -0.7451 -0.7328
  231DG      C2 5292   4.909   4.855   1.602  0.0513 -0.0328  0.7705
  231DG      H3 5293   4.263   4.463   1.764 -0.0608 -2.8381  2.6328
  231DG      H4 5294   4.160   4.606   1.754  1.9528 -0.4133 -3.1468
  231DG      H5 5295   4.175   4.530   1.907  2.3199 -0.7564  1.0020
  231DG      H6 5296   5.001   4.868   1.659  1.2454 -0.8182 -0.8647
  231DG      H7 5297   4.957   4.811   1.515  2.0950  2.3369  0.5956
  231DG      H8 5298   4.864   4.947   1.565 -0.9503 -0.4957  0.7899
  231DG      O9 5299   4.344   4.638   1.839 -0.3032  0.2567  0.0343
  231DG     O10 5300   4.817   4.763   1.659 -0.8824 -0.3522 -0.3177
  231DG     C11 5301   4.428   4.580   1.940  0.3877  0.5402  0.8348
  231DG     C12 5302   4.763   4.823   1.777  0.0826  0.3280 -0.6728
  231DG     H13 5303   4.487   4.499   1.897 -0.4538 -0.4631  1.5284
  231DG     H14 5304   4.364   4.540   2.019 -1.5568  3.2986  0.8091
  231DG     H15 5305   4.702   4.914   1.773 -0.9418 -0.3681 -1.2251
  231DG     H16 5306   4.842   4.845   1.849  1.5597 -0.9936 -1.8180
  231DG     C17 5307   4.513   4.686   2.017 -0.2712  0.1685  0.0206
  231DG     C18 5308   4.688   4.716   1.845 -0.4900  0.2058  0.2955
  231DG     O19 5309   4.581   4.770   1.918  0.2659 -0.1223  0.6846
  231DG     H20 5310   4.582   4.636   2.085 -0.2097  1.8848  1.2731
  231DG     H21 5311   4.451   4.743   2.086 -0.2289  0.4014 -0.1326
  231DG     H22 5312   4.653   4.643   1.772  0.5860  0.1693 -0.2000
  231DG     H23 5313   4.756   4.673   1.918 -0.2169 -0.4807 -0.3567
  232DG      C1 5314   0.346   0.670   3.148  0.6968 -0.1444  0.1075
  232DG      C2 5315   0.968   0.629   3.396  0.3214  1.2500  0.0487
  232DG      H3 5316   0.238   0.662   3.145  0.7381 -1.1337  0.7403
  232DG      H4 5317   0.371   0.645   3.044 -0.4170  2.4031 -0.8514
  232DG      H5 5318   0.365   0.776   3.164 -0.1496 -0.0734  0.6927
  232DG      H6 5319   1.039   0.567   3.451 -0.4394  0.5046  0.1953
  232DG      H7 5320   0.991   0.622   3.289 -1.8927  0.9933 -0.4621
  232DG      H8 5321   0.977   0.733   3.426 -3.3548  1.4671  0.7916
  232DG      O9 5322   0.392   0.578   3.247 -0.5672  0.1008 -1.0238
  232DG     O10 5323   0.835   0.585   3.413  0.1927  0.1390 -0.1807
  232DG     C11 5324   0.331   0.592   3.377 -0.3701 -0.8552  0.1209
  232DG     C12 5325   0.775   0.635   3.537 -0.1568  0.0052 -0.1069
  232DG     H13 5326   0.229   0.554   3.380 -0.2519 -1.1183  0.9211
  232DG     H14 5327   0.329   0.699   3.398  0.2186 -1.1514  1.8456
  232DG     H15 5328   0.744   0.739   3.524  1.4280  0.5260  0.0402
  232DG     H16 5329   0.839   0.631   3.626  3.1667 -0.7518 -2.3530
  232DG     C17 5330   0.419   0.524   3.474 -0.1924 -0.8501 -0.2666
  232DG     C18 5331   0.646   0.541   3.557 -0.7901  0.6657 -0.7350
  232DG     O19 5332   0.553   0.581   3.460  0.3767  0.8292 -0.0937
  232DG     H20 5333   0.420   0.417   3.453  0.3963 -0.8181 -0.4143
  232DG     H21 5334   0.380   0.532   3.576 -0.3005  1.6442 -0.4447
  232DG     H22 5335   0.680   0.438   3.556  1.2379  1.1771  2.0742
  232DG     H23 5336   0.600   0.572   3.651  1.7109 -1.6683  1.4351
  233DG      C1 5337   2.733   0.867   5.227 -0.0672 -0.0006  0.3138
  233DG      C2 5338   3.054   0.483   4.826  0.0592  0.2851  0.3353
  233DG      H3 5339   2.821   0.842   5.286  0.6784 -0.2880 -0.8714
  233DG      H4 5340   2.687   0.768   5.231  0.2997 -0.2262 -0.6065
  233DG      H5 5341   2.661   0.932   5.275 -0.3658  0.0320 -0.1688
  233DG      H6 5342   3.127   0.450   4.753 -1.0971 -0.6341 -0.4457
  233DG      H7 5343   3.095   0.485   4.927 -1.3073  0.6482  0.9060
  233DG      H8 5344   2.982   0.403   4.843 -1.2075  1.2424 -0.3232
  233DG      O9 5345   2.771   0.882   5.088  0.2839 -0.1482 -0.0733
  233DG     O10 5346   3.006   0.609   4.776 -0.5313  0.1641  0.1460
  233DG     C11 5347   2.826   1.011   5.060  0.2614 -0.2208  0.3288
  233DG     C12 5348   3.102   0.716   4.797 -0.1307  0.6429 -0.0457
  233DG     H13 5349   2.912   1.027   5.125  1.0372 -1.3263 -0.3790
  233DG     H14 5350   2.763   1.100   5.061  0.3001 -0.1852 -0.0341
  233DG     H15 5351   3.183   0.712   4.724 -0.4055  1.0731 -0.3743
  233DG     H16 5352   3.136   0.701   4.899 -1.2763  0.1977  0.2908
  233DG     C17 5353   2.882   0.984   4.919  0.6196 -0.3169 -0.4566
  233DG     C18 5354   3.020   0.840   4.790  0.2836  0.1665 -0.2090
  233DG     O19 5355   2.952   0.867   4.913  0.1686  0.2974 -0.2665
  233DG     H20 5356   2.951   1.064   4.892  1.8188 -1.3541 -0.5593
  233DG     H21 5357   2.794   0.981   4.855  0.4467 -0.6801 -0.2063
  233DG     H22 5358   3.094   0.920   4.779 -0.1277  0.7606  1.1241
  233DG     H23 5359   2.956   0.835   4.703 -2.2248 -1.0694  1.5939
  234DG      C1 5360   2.076   5.109   4.591  0.0233  0.5221  0.0387
  234DG      C2 5361   1.488   5.305   4.767  0.0760  0.3315  0.4841
  234DG      H3 5362   1.978   5.125   4.547 -1.0223  0.5275  2.2806
  234DG      H4 5363   2.074   5.003   4.616 -1.8170  0.4518 -0.3148
  234DG      H5 5364   2.159   5.136   4.525 -1.6543  1.4859 -1.8119
  234DG      H6 5365   1.493   5.255   4.864 -1.0846  0.9782  0.8987
  234DG      H7 5366   1.447   5.404   4.786 -1.2855 -0.1233  0.0215
  234DG      H8 5367   1.423   5.253   4.697  2.2677 -1.3576 -0.4150
  234DG      O9 5368   2.080   5.181   4.713 -0.0218 -0.0233  0.5606
  234DG     O10 5369   1.621   5.327   4.719 -0.1234 -0.2627 -0.0260
  234DG     C11 5370   2.095   5.322   4.702 -0.1230 -0.8181 -0.1219
  234DG     C12 5371   1.643   5.369   4.592  1.1522 -1.0943  0.3971
  234DG     H13 5372   2.197   5.352   4.679 -0.0216  0.9145  2.2734
  234DG     H14 5373   2.089   5.376   4.796  3.7478  1.0934 -0.8015
  234DG     H15 5374   1.571   5.446   4.566  2.5392  0.4024  0.8406
  234DG     H16 5375   1.619   5.278   4.537 -3.2948 -0.0786  0.2814
  234DG     C17 5376   2.013   5.386   4.600 -0.6204  0.2171  0.3422
  234DG     C18 5377   1.780   5.426   4.564 -0.0096 -0.1332  0.4562
  234DG     O19 5378   1.880   5.345   4.624 -0.0727  0.2004  0.3378
  234DG     H20 5379   2.036   5.362   4.497  1.2991  0.6739  0.6353
  234DG     H21 5380   2.024   5.494   4.602 -2.7401  0.5347 -1.3094
  234DG     H22 5381   1.784   5.440   4.456 -0.5521 -0.7356  0.3539
  234DG     H23 5382   1.777   5.528   4.601  0.5591  0.6004 -1.3787
  235DG      C1 5383   2.778   0.583   0.650  0.4336 -0.6345 -0.0578
  235DG      C2 5384   2.895  -0.089   0.488 -0.6800 -0.5052 -0.5415
  235DG      H3 5385   2.845   0.594   0.735  1.0873 -1.0586 -0.5111
  235DG      H4 5386   2.709   0.663   0.679 -0.8024 -0.5717 -2.9111
  235DG      H5 5387   2.831   0.610   0.559 -1.5372  2.0680 -0.5444
  235DG      H6 5388   2.939  -0.102   0.587 -2.0091  0.5409  0.2270
  235DG      H7 5389   2.861  -0.183   0.444 -1.7501 -0.2673 -0.2537
  235DG      H8 5390   2.977  -0.052   0.427 -1.1239 -0.0239 -0.8558
  235DG      O9 5391   2.720   0.456   0.656  0.1392  0.0524 -0.0372
  235DG     O10 5392   2.777  -0.005   0.496  0.0266  0.2573  0.1917
  235DG     C11 5393   2.618   0.445   0.557 -0.2478  0.3615  0.3509
  235DG     C12 5394   2.693  -0.022   0.611  0.7902 -0.1334  0.4019
  235DG     H13 5395   2.653   0.449   0.454  1.4775 -1.4789  0.7889
  235DG     H14 5396   2.550   0.529   0.572 -2.0967 -1.2191  1.3206
  235DG     H15 5397   2.755  -0.005   0.699  1.4647 -0.2867 -0.0375
  235DG     H16 5398   2.659  -0.124   0.629 -0.0331  0.0235 -0.2100
  235DG     C17 5399   2.543   0.313   0.597 -0.5843 -0.0383  0.5590
  235DG     C18 5400   2.574   0.074   0.602 -0.5275  0.1606  0.2500
  235DG     O19 5401   2.629   0.201   0.607  0.1010 -0.0706  0.1877
  235DG     H20 5402   2.469   0.302   0.517  0.1540 -0.8350 -0.0266
  235DG     H21 5403   2.483   0.317   0.688 -0.9753  1.6698  0.2675
  235DG     H22 5404   2.517   0.071   0.509 -0.5117  1.6571  0.1619
  235DG     H23 5405   2.502   0.056   0.682 -2.1732  0.6598 -1.0790
  236THF     O1 5406   5.191   2.096   2.068 -0.2425  0.4270 -0.7837
  236THF     C2 5407   5.061   2.069   2.015 -0.3035  0.0949 -0.0401
  236THF     C3 5408   5.281   2.145   1.969  1.0752  0.4432 -0.0384
  236THF     H4 5409   4.990   2.052   2.096  0.5578 -0.2101  0.6595
  236THF     H5 5410   5.059   1.987   1.943 -1.6650  0.7670 -0.8165
  236THF     H6 5411   5.365   2.210   1.993  2.6448 -0.6334 -2.2092
  236THF     H7 5412   5.321   2.055   1.921 -0.1539  0.8465 -1.9501
  236THF     C8 5413   5.182   2.218   1.876  0.2763  0.1641 -0.5681
  236THF     C9 5414   5.045   2.205   1.944  0.1196 -0.0758 -0.4547
  236THF    H10 5415   5.187   2.171   1.778  1.4846  1.6802 -1.2861
  236THF    H11 5416   5.230   2.315   1.865  2.0143 -0.4562  1.1266
  236THF    H12 5417   5.041   2.281   2.021  0.5080 -1.4398  0.9625
  236THF    H13 5418   4.961   2.220   1.876 -0.5422 -0.2106  0.3157
  237THF     O1 5419   3.856   1.502   1.035  0.2985 -0.2823  0.1770
  237THF     C2 5420   3.880   1.365   1.005 -0.2405 -0.3718  1.2013
  237THF     C3 5421   3.870   1.579   0.916 -0.5267 -0.0002  0.2750
  237THF     H4 5422   3.825   1.295   1.068 -1.2087 -0.9209 -0.2043
  237THF     H5 5423   3.987   1.346   1.003  0.2311  1.7104 -2.3708
  237THF     H6 5424   3.785   1.646   0.903  0.0927  0.7661  0.0874
  237THF     H7 5425   3.962   1.637   0.915 -1.3210  1.3048 -1.4713
  237THF     C8 5426   3.892   1.475   0.801  0.6956  0.1829 -0.2800
  237THF     C9 5427   3.831   1.354   0.862  0.0811  0.1646  0.5807
  237THF    H10 5428   3.997   1.449   0.792  0.8288 -0.3409  2.1724
  237THF    H11 5429   3.849   1.506   0.706  2.0386  0.1215 -0.9207
  237THF    H12 5430   3.723   1.366   0.857 -0.1217 -1.7660 -0.5091
  237THF    H13 5431   3.853   1.260   0.811 -1.3696 -0.1365  0.4721
  238THF     O1 5432   5.375   2.084   4.979  0.2378  0.3854 -0.2985
  238THF     C2 5433   5.446   2.150   4.877  0.0424  0.2047 -0.1880
  238THF     C3 5434   5.258   2.017   4.922 -0.0263 -0.2476  1.0404
  238THF     H4 5435   5.551   2.173   4.897  0.1229  0.1189 -0.5051
  238THF     H5 5436   5.391   2.238   4.845  0.8319  0.8858  0.3067
  238THF     H6 5437   5.249   1.917   4.964 -1.3848  0.2174  1.8991
  238THF     H7 5438   5.168   2.075   4.943  0.0326 -0.2656  1.3447
  238THF     C8 5439   5.277   2.004   4.768  0.0957  0.4117  0.0536
  238THF     C9 5440   5.420   2.056   4.753  0.5056 -0.2659 -0.0136
  238THF    H10 5441   5.207   2.068   4.715  0.8617 -0.1900 -1.7359
  238THF    H11 5442   5.264   1.902   4.734  0.0254  0.9174 -1.5186
  238THF    H12 5443   5.487   1.970   4.750 -0.8075 -1.2984 -1.1529
  238THF    H13 5444   5.437   2.102   4.657 -0.9148  1.8674  0.6927
  239THF     O1 5445   1.344   0.481   2.370 -0.1910 -0.5406 -0.2021
  239THF     C2 5446   1.472   0.442   2.339  0.3029  0.1274  0.7281
  239THF     C3 5447   1.349   0.573   2.478  0.1142  0.1665 -0.0403
  239THF     H4 5448   1.470   0.392   2.242  0.3484 -0.5686  1.0827
  239THF     H5 5449   1.496   0.382   2.427  0.3028 -0.1941  0.5086
  239THF     H6 5450   1.256   0.628   2.492  0.3521  1.1408 -1.9191
  239THF     H7 5451   1.388   0.526   2.568 -0.4021  0.0671  0.1330
  239THF     C8 5452   1.463   0.657   2.437 -0.0452 -0.4654 -0.2736
  239THF     C9 5453   1.541   0.578   2.335 -0.3980 -0.1929 -0.0338
  239THF    H10 5454   1.528   0.689   2.518  0.3644  2.7601 -1.7618
  239THF    H11 5455   1.431   0.750   2.392 -1.6421  1.1931  3.8214
  239THF    H12 5456   1.530   0.622   2.236 -1.9203  0.9518  0.6162
  239THF    H13 5457   1.646   0.573   2.362 -0.7390 -0.8441  1.2454
  240THF     O1 5458   2.450   0.423   3.728 -0.0951  0.1843 -0.4852
  240THF     C2 5459   2.578   0.431   3.678 -0.2309  0.1404  0.0925
  240THF     C3 5460   2.444   0.495   3.850 -0.4876 -0.1140 -0.2980
  240THF     H4 5461   2.598   0.530   3.636  0.6801  0.0448  0.2960
  240THF     H5 5462   2.597   0.349   3.609  0.8182 -0.5968  1.2195
  240THF     H6 5463   2.404   0.594   3.832  0.3000  0.3420  0.3833
  240THF     H7 5464   2.382   0.436   3.918  1.1387  0.3936  1.7329
  240THF     C8 5465   2.587   0.494   3.911  0.2463 -0.1011 -0.2783
  240THF     C9 5466   2.665   0.419   3.802 -1.0967 -0.0697  0.1312
  240THF    H10 5467   2.589   0.444   4.008 -1.1531 -1.6610 -0.9998
  240THF    H11 5468   2.620   0.598   3.914 -0.3258  0.1101  2.7886
  240THF    H12 5469   2.760   0.468   3.780 -0.4353 -0.8637  1.1178
  240THF    H13 5470   2.681   0.313   3.822  0.1365 -0.2003 -1.3599
  241THF     O1 5471   3.411   3.188   4.678  0.3082  0.9430  0.0725
  241THF     C2 5472   3.499   3.153   4.787  0.5071  0.6260  0.3393
  241THF     C3 5473   3.355   3.308   4.721 -0.2859  0.2375 -0.9907
  241THF     H4 5474   3.587   3.217   4.776  0.5900  0.8418  2.0366
  241THF     H5 5475   3.530   3.049   4.785  0.6682  0.6595  0.8593
  241THF     H6 5476   3.425   3.391   4.708  0.7700 -0.0728  1.9310
  241THF     H7 5477   3.263   3.339   4.672 -0.8505 -1.1551 -0.8347
  241THF     C8 5478   3.340   3.313   4.873  0.5563 -0.6656  0.2123
  241THF     C9 5479   3.416   3.188   4.917 -0.3412  0.6836  1.1929
  241THF    H10 5480   3.240   3.297   4.915  0.2966 -1.1247 -0.5546
  241THF    H11 5481   3.381   3.406   4.911  1.3464 -0.7177 -0.4724
  241THF    H12 5482   3.482   3.215   4.999  0.8585  0.5767  0.2833
  241THF    H13 5483   3.361   3.096   4.938  1.4559 -0.7684 -0.1026
  242THF     O1 5484   2.984   3.627   0.128  0.5595 -0.2162  0.4322
  242THF     C2 5485   2.928   3.749   0.068  0.7813 -0.3141 -0.0161
  242THF     C3 5486   3.129   3.649   0.146 -0.2233  0.6673 -0.3066
  242THF     H4 5487   2.839   3.773   0.126  1.6301 -0.3736  1.3701
  242THF     H5 5488   2.893   3.734  -0.034 -0.1524 -0.2896  0.2871
  242THF     H6 5489   3.139   3.680   0.250  0.8624 -0.9414  0.1182
  242THF     H7 5490   3.193   3.566   0.114  1.3348  2.1256 -1.1290
  242THF     C8 5491   3.162   3.768   0.067 -0.0178  0.0282  0.3993
  242THF     C9 5492   3.041   3.854   0.083 -0.4606  0.7859  0.5877
  242THF    H10 5493   3.173   3.726  -0.033  0.8340 -0.5282  0.7160
  242THF    H11 5494   3.258   3.813   0.094  0.8208 -1.0714 -0.5933
  242THF    H12 5495   3.043   3.907   0.179  1.7242 -1.4942  1.9068
  242THF    H13 5496   3.041   3.933   0.008  1.7722 -0.3744 -0.7044
  243THF     O1 5497   4.618   2.397   4.757 -0.0617  0.4319 -0.7322
  243THF     C2 5498   4.525   2.405   4.860  0.3530 -0.7202 -0.1217
  243THF     C3 5499   4.603   2.275   4.696 -0.1554 -0.2809 -0.6468
  243THF     H4 5500   4.438   2.468   4.840  1.9801  1.1527 -1.8088
  243THF     H5 5501   4.565   2.446   4.953  0.6799 -1.4641  0.0715
  243THF     H6 5502   4.523   2.274   4.621 -0.8372  0.2811  0.0514
  243THF     H7 5503   4.699   2.265   4.646 -0.2469 -1.9828 -0.5420
  243THF     C8 5504   4.583   2.178   4.812  0.0959  0.4254  1.1958
  243THF     C9 5505   4.476   2.261   4.883  0.3318 -0.1701  0.1847
  243THF    H10 5506   4.684   2.162   4.850  0.9506  0.9285 -0.7159
  243THF    H11 5507   4.536   2.082   4.789  0.9803  0.2759 -0.1160
  243THF    H12 5508   4.381   2.247   4.832 -0.6131  1.2359  1.4757
  243THF    H13 5509   4.460   2.227   4.985 -1.8748 -1.9337 -0.6645
  244THF     O1 5510   3.792   4.549   5.097 -0.2915 -0.5750  0.7198
  244THF     C2 5511   3.813   4.535   5.237 -0.8821  0.3716  1.3091
  244THF     C3 5512   3.772   4.690   5.093  0.6498  0.1677  0.1918
  244THF     H4 5513   3.916   4.567   5.251 -0.9517  1.1922  0.1314
  244THF     H5 5514   3.821   4.431   5.270 -0.3437  0.2019  0.6699
  244THF     H6 5515   3.865   4.743   5.111  1.1787 -1.1539  1.5520
  244THF     H7 5516   3.727   4.720   4.998 -2.9372 -0.4347  1.5626
  244THF     C8 5517   3.673   4.724   5.200 -0.1763  0.9712 -0.1119
  244THF     C9 5518   3.714   4.622   5.306  0.4511 -0.4086 -0.6527
  244THF    H10 5519   3.579   4.704   5.149 -0.5383 -0.6834  1.1059
  244THF    H11 5520   3.691   4.826   5.234 -2.2791  0.9190  1.3241
  244THF    H12 5521   3.750   4.668   5.398  0.1014 -0.2507 -0.5921
  244THF    H13 5522   3.621   4.569   5.327 -0.2713  0.7676 -0.8188
  245THF     O1 5523   2.915   1.381   2.239  0.3839 -0.4497 -0.7403
  245THF     C2 5524   2.836   1.497   2.215 -0.2010  0.2329 -0.4483
  245THF     C3 5525   2.845   1.266   2.182  0.0328 -0.2816  0.7235
  245THF     H4 5526   2.887   1.592   2.233  2.0351 -0.4651 -2.5558
  245THF     H5 5527   2.742   1.486   2.270 -0.6570  0.8403 -1.0876
  245THF     H6 5528   2.908   1.179   2.166  2.2984  1.5703 -1.2052
  245THF     H7 5529   2.764   1.240   2.250  0.7033 -1.0044  1.2590
  245THF     C8 5530   2.781   1.328   2.050 -0.1305 -0.3734  0.2922
  245THF     C9 5531   2.806   1.478   2.070 -0.3133 -0.5741  0.2480
  245THF    H10 5532   2.682   1.284   2.034  0.5794 -1.2078 -2.3622
  245THF    H11 5533   2.821   1.289   1.956 -0.1671 -0.7447  0.4287
  245THF    H12 5534   2.892   1.508   2.011 -0.6141 -0.7358 -0.2861
  245THF    H13 5535   2.725   1.543   2.036 -0.0531 -0.6531 -0.5468
  246THF     O1 5536   1.598   5.269   0.591 -0.0372  0.3558 -0.0626
  246THF     C2 5537   1.483   5.233   0.515  0.2567  0.1754  0.0693
  246THF     C3 5538   1.596   5.407   0.592 -0.0184 -0.0809 -0.3423
  246THF     H4 5539   1.449   5.133   0.538  0.0232  0.3445  0.4549
  246THF     H5 5540   1.491   5.244   0.406 -0.9115 -1.2265 -0.1762
  246THF     H6 5541   1.665   5.441   0.670  1.6671 -1.5694 -1.0991
  246THF     H7 5542   1.646   5.430   0.498  0.0561  1.0620 -0.0324
  246THF     C8 5543   1.452   5.450   0.591 -0.2691  0.0111 -0.9195
  246THF     C9 5544   1.377   5.323   0.565  0.3715 -1.1605 -0.0294
  246THF    H10 5545   1.440   5.529   0.516 -1.2460  0.3097 -0.4692
  246THF    H11 5546   1.422   5.499   0.684  0.4737 -0.1549 -0.5872
  246THF    H12 5547   1.321   5.285   0.651 -0.0223  0.3894  0.4380
  246THF    H13 5548   1.304   5.332   0.484  1.1293 -0.7234 -0.6845
  247THF     O1 5549   4.231   4.695   0.503  0.1247 -0.1520  0.4335
  247THF     C2 5550   4.318   4.701   0.616  0.9220  0.3405  0.6322
  247THF     C3 5551   4.257   4.573   0.436 -0.8016  0.0241 -0.2190
  247THF     H4 5552   4.278   4.643   0.699 -0.9747  2.0799  1.0118
  247THF     H5 5553   4.336   4.799   0.660  0.3055  1.0125 -0.5521
  247THF     H6 5554   4.205   4.485   0.474  0.7391 -0.3328  1.1819
  247THF     H7 5555   4.221   4.573   0.333  0.4638  3.3727 -0.7739
  247THF     C8 5556   4.409   4.556   0.435 -0.1372 -0.3557 -0.2712
  247THF     C9 5557   4.447   4.633   0.563 -0.6923  0.7820 -0.5487
  247THF    H10 5558   4.445   4.608   0.346  1.0975 -1.4452 -0.4418
  247THF    H11 5559   4.448   4.455   0.432  1.9179  0.1387  3.3876
  247THF    H12 5560   4.491   4.566   0.636  0.4927 -0.1566 -2.0802
  247THF    H13 5561   4.520   4.710   0.537 -0.2529  0.2694 -0.8470
  248THF     O1 5562   3.264   2.529   5.441  0.4089  0.5265  0.8634
  248THF     C2 5563   3.239   2.390   5.455 -0.3302  0.4907 -0.1030
  248THF     C3 5564   3.149   2.589   5.377  0.5594  0.4885 -0.2108
  248THF     H4 5565   3.279   2.357   5.551 -0.8290 -4.8226 -1.4158
  248THF     H5 5566   3.290   2.325   5.385 -0.5992 -0.6934  0.7637
  248THF     H6 5567   3.102   2.656   5.448  0.7338  1.0162 -0.5857
  248THF     H7 5568   3.188   2.652   5.298 -2.8848  0.0789 -2.4912
  248THF     C8 5569   3.051   2.478   5.333 -0.4534 -0.4153 -0.4665
  248THF     C9 5570   3.084   2.368   5.437  0.3676 -0.6834  0.6885
  248THF    H10 5571   3.076   2.445   5.232  0.0584 -1.1023 -0.1284
  248THF    H11 5572   2.947   2.510   5.329 -0.6514 -1.0112 -0.1833
  248THF    H12 5573   3.028   2.389   5.527 -2.1685  0.4211 -1.0274
  248THF    H13 5574   3.056   2.271   5.396 -0.8126  0.1513 -0.6012
  249THF     O1 5575   3.042   3.740   2.297 -0.3902  0.1053  0.2379
  249THF     C2 5576   3.111   3.627   2.251  0.2270 -0.6050 -0.1252
  249THF     C3 5577   2.930   3.691   2.364 -0.0713 -0.3776 -0.9983
  249THF     H4 5578   3.167   3.588   2.337 -0.0683  1.3194  0.9945
  249THF     H5 5579   3.181   3.657   2.172 -1.7541  0.0452 -1.6994
  249THF     H6 5580   2.955   3.649   2.462  0.4774  2.0564 -0.0200
  249THF     H7 5581   2.864   3.777   2.373  0.8761  0.2877 -0.1011
  249THF     C8 5582   2.876   3.589   2.276 -0.6561 -0.4354  0.4175
  249THF     C9 5583   3.003   3.535   2.201  0.0447 -0.4725 -0.9485
  249THF    H10 5584   2.807   3.632   2.204 -0.4469 -0.0953  0.4197
  249THF    H11 5585   2.825   3.508   2.329 -1.5063 -1.3434 -1.6647
  249THF    H12 5586   3.030   3.431   2.220  0.0329 -0.1613  0.9606
  249THF    H13 5587   2.987   3.546   2.094 -0.1619 -3.2197 -1.2525
  250THF     O1 5588   3.753   1.610   0.442 -0.0763 -0.0403 -0.0258
  250THF     C2 5589   3.819   1.735   0.434 -0.5542 -0.2233 -0.0053
  250THF     C3 5590   3.844   1.502   0.414  0.4851 -0.0638  0.1190
  250THF     H4 5591   3.862   1.748   0.533  1.8773  0.5131 -1.0912
  250THF     H5 5592   3.746   1.811   0.406 -1.5656 -0.7278  1.1638
  250THF     H6 5593   3.899   1.498   0.508 -0.1353  1.3805  0.5751
  250THF     H7 5594   3.793   1.407   0.396 -0.2236  0.5484 -1.2387
  250THF     C8 5595   3.935   1.563   0.307 -0.8839  0.3303  0.0333
  250THF     C9 5596   3.933   1.712   0.342  0.6095 -0.8307 -0.0959
  250THF    H10 5597   3.893   1.541   0.209  1.3534 -3.3726 -0.2860
  250THF    H11 5598   4.038   1.526   0.310 -1.6535 -1.9615  0.1015
  250THF    H12 5599   4.027   1.736   0.391  0.4459  0.4742 -0.3843
  250THF    H13 5600   3.926   1.780   0.257  1.7401  0.8077  1.0690
  251THF     O1 5601   3.807   4.951   4.403  0.7081 -0.3105  0.5381
  251THF     C2 5602   3.799   5.083   4.358 -0.5171 -0.7693  0.0376
  251THF     C3 5603   3.690   4.908   4.473  0.6873 -0.5033  0.3439
  251THF     H4 5604   3.801   5.077   4.249  1.3050  1.1013 -0.0984
  251THF     H5 5605   3.883   5.141   4.397  0.3249 -1.0753 -1.2500
  251THF     H6 5606   3.636   4.846   4.401 -1.0360 -0.2289  1.3382
  251THF     H7 5607   3.702   4.846   4.561  1.2017 -0.4265  0.3274
  251THF     C8 5608   3.615   5.037   4.510 -0.0544  0.1559 -0.7032
  251THF     C9 5609   3.657   5.132   4.403 -0.2331 -0.3448  0.2049
  251THF    H10 5610   3.642   5.068   4.611  1.2767 -1.3498 -0.5630
  251THF    H11 5611   3.508   5.014   4.501 -0.5372  1.3313  1.3216
  251THF    H12 5612   3.588   5.124   4.319  0.5230 -2.9997 -0.2506
  251THF    H13 5613   3.676   5.230   4.448  0.1561 -0.5006  0.3930
  252THF     O1 5614   2.887   5.038   1.345 -0.5481 -0.3004  0.2262
  252THF     C2 5615   2.991   5.025   1.439 -1.2759  0.1509  0.2403
  252THF     C3 5616   2.926   5.006   1.210 -0.0207  0.2728  0.1472
  252THF     H4 5617   2.958   4.957   1.518  1.1139 -0.0313  1.1611
  252THF     H5 5618   3.006   5.128   1.472  0.9886  0.2501 -0.9589
  252THF     H6 5619   2.860   4.928   1.172 -2.0274  2.8963 -2.1895
  252THF     H7 5620   2.905   5.096   1.151 -2.3420 -0.1921  0.1766
  252THF     C8 5621   3.074   4.970   1.214 -0.2076 -0.6679  0.0716
  252THF     C9 5622   3.115   4.970   1.365  0.9276  0.0676 -0.3096
  252THF    H10 5623   3.133   5.040   1.154 -0.8478 -0.4612 -0.3207
  252THF    H11 5624   3.091   4.874   1.166 -0.3065 -0.7521  0.2049
  252THF    H12 5625   3.128   4.866   1.394 -0.6004  0.2241  1.0762
  252THF    H13 5626   3.210   5.018   1.388  0.6828 -0.8822  3.1947
  253THF     O1 5627   4.502   2.418   2.638  0.0353  0.0940  0.8489
  253THF     C2 5628   4.495   2.351   2.767  0.3073  0.9481 -0.1558
  253THF     C3 5629   4.517   2.314   2.544  0.5165  0.1850 -0.0978
  253THF     H4 5630   4.461   2.416   2.847  1.5044  1.9565 -0.4247
  253THF     H5 5631   4.597   2.332   2.800 -0.3410 -0.5728  1.1170
  253THF     H6 5632   4.481   2.343   2.446  2.0190 -0.0644 -0.7503
  253THF     H7 5633   4.620   2.286   2.525  0.6104  0.1952  0.3727
  253THF     C8 5634   4.436   2.197   2.606  0.4289  0.2782  0.4649
  253THF     C9 5635   4.428   2.216   2.752 -0.5631 -0.1363 -0.3686
  253THF    H10 5636   4.483   2.100   2.590 -0.8629 -0.5996  1.7534
  253THF    H11 5637   4.335   2.195   2.566  0.7971 -1.2570 -0.4780
  253THF    H12 5638   4.326   2.221   2.788 -1.1375  3.1453 -2.0277
  253THF    H13 5639   4.485   2.144   2.811  0.1529  1.2125  0.6276
  254THF     O1 5640   3.717   2.485   5.454  0.1699 -0.2823 -0.1828
  254THF     C2 5641   3.815   2.565   5.512 -0.1545 -0.1515 -0.6840
  254THF     C3 5642   3.594   2.510   5.520  0.8566 -0.5021  0.0203
  254THF     H4 5643   3.840   2.654   5.455  0.5535  1.5692  2.1016
  254THF     H5 5644   3.900   2.496   5.515  1.0066  1.2343 -0.2098
  254THF     H6 5645   3.542   2.603   5.496 -1.3235 -1.2752  1.4447
  254THF     H7 5646   3.532   2.426   5.489  3.0601 -0.8313 -4.2632
  254THF     C8 5647   3.634   2.501   5.661  0.1305 -0.0851 -0.8215
  254THF     C9 5648   3.756   2.591   5.654 -0.4791  0.5762 -0.1658
  254THF    H10 5649   3.659   2.396   5.676  0.4037 -0.0342 -0.9099
  254THF    H11 5650   3.551   2.531   5.725  0.1627  1.1556 -1.3390
  254THF    H12 5651   3.719   2.693   5.662  0.0591  0.7518  0.1159
  254THF    H13 5652   3.826   2.566   5.734  2.0063 -1.7019 -2.7801
  255THF     O1 5653   0.628   4.200   3.299 -0.6732  0.0293 -0.5840
  255THF     C2 5654   0.740   4.266   3.252 -0.0148  0.2875  0.5105
  255THF     C3 5655   0.519   4.193   3.205 -0.0201 -0.9315 -0.0998
  255THF     H4 5656   0.824   4.205   3.219  0.2529  0.6368  0.5466
  255THF     H5 5657   0.778   4.327   3.334  0.5709  0.0425  0.4230
  255THF     H6 5658   0.530   4.118   3.126  1.9132  0.1061 -0.8869
  255THF     H7 5659   0.431   4.172   3.266 -0.1874 -1.4901 -0.5161
  255THF     C8 5660   0.538   4.333   3.142  0.2491  0.6902 -0.2160
  255THF     C9 5661   0.692   4.349   3.139  0.3947 -0.0207  0.0789
  255THF    H10 5662   0.498   4.403   3.214  0.6912 -0.7112  1.4669
  255THF    H11 5663   0.495   4.330   3.042  0.5862  2.6571 -0.4609
  255THF    H12 5664   0.725   4.311   3.042  0.5362  0.5993 -0.1184
  255THF    H13 5665   0.724   4.453   3.148  0.3206  0.0239 -0.1598
  256THF     O1 5666   2.016   2.868   1.966 -0.4018  0.0013  1.2603
  256THF     C2 5667   2.048   3.008   1.986  0.3946 -0.3481  0.2252
  256THF     C3 5668   2.070   2.832   1.838 -0.2816 -0.2320  0.0879
  256THF     H4 5669   2.079   3.036   2.087 -0.5874  0.9794  0.1760
  256THF     H5 5670   1.959   3.065   1.961  1.1315  0.1208 -1.5515
  256THF     H6 5671   2.169   2.787   1.852 -0.5631 -1.3528 -1.3432
  256THF     H7 5672   2.012   2.756   1.787  2.9005 -2.1405 -1.0139
  256THF     C8 5673   2.098   2.954   1.756 -0.4627  0.0375  0.3831
  256THF     C9 5674   2.143   3.046   1.869  0.2429 -0.1358  0.1828
  256THF    H10 5675   2.008   2.986   1.703  0.4735  0.0257 -1.2672
  256THF    H11 5676   2.173   2.942   1.679 -0.3695  1.5612  0.2051
  256THF    H12 5677   2.245   3.021   1.897  0.5686 -0.3474 -1.1458
  256THF    H13 5678   2.129   3.151   1.842 -3.3857 -0.7308 -0.8434
  257THF     O1 5679   2.930   3.828   4.116  0.1602 -0.3809 -0.2078
  257THF     C2 5680   2.910   3.702   4.051  0.2564 -0.5271 -0.1694
  257THF     C3 5681   2.807   3.873   4.165  0.5285  0.3360 -0.5716
  257THF     H4 5682   3.008   3.656   4.036  0.5772 -0.8487  2.3826
  257THF     H5 5683   2.861   3.720   3.956 -0.8265 -0.6898  0.3431
  257THF     H6 5684   2.822   3.945   4.246  4.3476 -1.2868  0.4020
  257THF     H7 5685   2.729   3.906   4.096 -1.3873 -0.7534  0.9726
  257THF     C8 5686   2.751   3.737   4.216 -0.6060 -0.1376 -0.3894
  257THF     C9 5687   2.811   3.626   4.138 -0.2750  0.7590 -0.1577
  257THF    H10 5688   2.642   3.736   4.213 -0.6299  0.7795 -0.0780
  257THF    H11 5689   2.775   3.729   4.322 -1.1739 -1.6717 -0.3645
  257THF    H12 5690   2.856   3.551   4.202 -2.6455 -0.5528  0.0985
  257THF    H13 5691   2.734   3.577   4.077  0.3366  0.0509 -0.3825
  258THF     O1 5692   2.700   2.507   0.484 -0.0392 -0.3446  0.0982
  258THF     C2 5693   2.762   2.531   0.605  0.2956 -0.5585 -0.2769
  258THF     C3 5694   2.659   2.370   0.480  0.0811 -0.4328  0.2377
  258THF     H4 5695   2.752   2.639   0.620 -0.5106 -0.3030 -2.3310
  258THF     H5 5696   2.869   2.512   0.596  0.1509 -1.1697 -0.7432
  258THF     H6 5697   2.555   2.366   0.449 -0.1179 -1.9704  0.9898
  258THF     H7 5698   2.703   2.298   0.411 -0.7469 -1.7792  1.0599
  258THF     C8 5699   2.672   2.314   0.621 -0.0885  0.0252  0.1244
  258THF     C9 5700   2.692   2.439   0.701 -0.7101  0.1059 -0.4765
  258THF    H10 5701   2.759   2.248   0.627  0.1635  0.3005 -0.4005
  258THF    H11 5702   2.581   2.256   0.637  0.2120 -0.6758 -0.5964
  258THF    H12 5703   2.601   2.472   0.752 -0.7758 -0.2266 -0.3805
  258THF    H13 5704   2.757   2.402   0.781 -0.8103 -0.8799 -0.8474
  259THF     O1 5705   2.607   3.528   3.867  0.0454 -0.5811  0.3033
  259THF     C2 5706   2.677   3.459   3.770  0.0255 -0.1949  0.4808
  259THF     C3 5707   2.471   3.479   3.882  0.2489 -0.1009  0.7460
  259THF     H4 5708   2.705   3.376   3.835  0.9203  0.8164  1.4327
  259THF     H5 5709   2.778   3.491   3.746  0.8859 -0.9623  2.7488
  259THF     H6 5710   2.481   3.391   3.946 -1.4314 -0.2120  0.9010
  259THF     H7 5711   2.410   3.560   3.922  0.7487  0.3164  0.6727
  259THF     C8 5712   2.439   3.429   3.734  0.2135  0.0703  0.2074
  259THF     C9 5713   2.572   3.430   3.664  0.3768  0.1518 -0.3868
  259THF    H10 5714   2.370   3.493   3.680 -1.5010 -0.7914  1.2774
  259THF    H11 5715   2.398   3.329   3.742  1.8055 -0.5791  0.6983
  259THF    H12 5716   2.582   3.346   3.596  0.7002  1.4632 -2.0540
  259THF    H13 5717   2.572   3.512   3.591 -1.1464  1.5887  1.1303
  260THF     O1 5718   0.418   4.535   3.531 -0.6251 -0.2194  0.2165
  260THF     C2 5719   0.433   4.400   3.577  0.1277 -0.1609 -0.9882
  260THF     C3 5720   0.291   4.551   3.478  0.2844 -0.0955  0.4007
  260THF     H4 5721   0.471   4.409   3.679  0.0993 -0.1526 -0.9785
  260THF     H5 5722   0.498   4.340   3.513  0.9304 -0.2472 -0.1090
  260THF     H6 5723   0.264   4.656   3.469 -1.8428 -0.7048 -1.0560
  260THF     H7 5724   0.283   4.516   3.375  0.0957 -0.0025  0.3834
  260THF     C8 5725   0.208   4.455   3.564  0.2175  0.1228  0.0913
  260THF     C9 5726   0.295   4.338   3.570 -1.2798  0.1794 -0.3498
  260THF    H10 5727   0.104   4.436   3.535 -0.8141  0.3465  3.1684
  260THF    H11 5728   0.218   4.488   3.668  2.4793  0.5831 -0.2279
  260THF    H12 5729   0.276   4.259   3.643  0.3776 -0.2170 -0.2991
  260THF    H13 5730   0.301   4.297   3.468  1.8970 -1.7837  0.4623
  261THF     O1 5731   0.775   1.454   1.624  0.5766 -0.0573  0.0945
  261THF     C2 5732   0.887   1.531   1.650 -0.0666 -0.0399  0.6521
  261THF     C3 5733   0.715   1.488   1.501  0.4664  0.3641 -0.0263
  261THF     H4 5734   0.968   1.458   1.647  1.6104  1.7584 -1.3575
  261THF     H5 5735   0.905   1.576   1.748  1.6481  0.1128  0.2988
  261THF     H6 5736   0.677   1.400   1.449  0.8561  0.1211  0.1014
  261THF     H7 5737   0.635   1.560   1.518 -0.0974 -0.3626  0.4713
  261THF     C8 5738   0.822   1.571   1.427 -0.0338  0.1039 -0.2220
  261THF     C9 5739   0.887   1.641   1.541 -0.1569 -0.5181 -0.3263
  261THF    H10 5740   0.767   1.640   1.363  0.4791  2.3803  1.6618
  261THF    H11 5741   0.894   1.525   1.360 -0.0514  1.5190 -1.2487
  261THF    H12 5742   0.986   1.688   1.531  0.4020 -0.8830  2.5272
  261THF    H13 5743   0.820   1.720   1.574  0.8293 -0.2631  1.2208
  262THF     O1 5744   4.298   1.333   1.703 -0.0945 -0.3811 -0.7527
  262THF     C2 5745   4.233   1.285   1.823  0.1662  0.4627 -0.2092
  262THF     C3 5746   4.403   1.431   1.737 -0.4555 -0.6421 -0.6053
  262THF     H4 5747   4.178   1.194   1.801  0.7799  0.2448 -0.8744
  262THF     H5 5748   4.166   1.364   1.857 -0.2222  0.2046 -0.3756
  262THF     H6 5749   4.490   1.453   1.674  1.9516  1.8142  3.1830
  262THF     H7 5750   4.352   1.526   1.751  2.5718  1.1729 -0.9800
  262THF     C8 5751   4.459   1.372   1.872 -0.3924  0.3080  0.6723
  262THF     C9 5752   4.356   1.273   1.916  0.4799  0.4240 -0.2999
  262THF    H10 5753   4.477   1.450   1.947 -0.6243  1.4963 -0.4719
  262THF    H11 5754   4.551   1.321   1.843 -0.8579  0.5038 -1.2894
  262THF    H12 5755   4.398   1.174   1.898  3.6044  1.6603 -0.4368
  262THF    H13 5756   4.335   1.285   2.023 -1.6466  3.4661 -0.9214
  263THF     O1 5757   3.888   4.456   4.219 -1.2867  0.0140 -0.4095
  263THF     C2 5758   3.982   4.432   4.119 -0.4675 -0.0213 -0.7871
  263THF     C3 5759   3.875   4.600   4.216 -0.6999  0.4464  0.2196
  263THF     H4 5760   4.000   4.328   4.092 -1.0626 -0.0513 -1.0946
  263THF     H5 5761   4.082   4.463   4.149 -0.9016  0.1337  0.5933
  263THF     H6 5762   3.782   4.633   4.262 -1.1652  1.6805 -1.5000
  263THF     H7 5763   3.962   4.655   4.251  0.5632 -1.7561  0.7106
  263THF     C8 5764   3.854   4.632   4.071 -0.2487  0.0707  0.8270
  263THF     C9 5765   3.919   4.509   4.002 -0.1825  0.2374 -0.1596
  263THF    H10 5766   3.910   4.721   4.041 -3.4816  1.6526 -1.0127
  263THF    H11 5767   3.752   4.643   4.034  0.6306  0.9276 -1.5621
  263THF    H12 5768   3.851   4.448   3.942 -2.1095  0.6302  1.5258
  263THF    H13 5769   3.996   4.540   3.930 -0.1431 -1.4307 -0.8840
  264THF     O1 5770   1.020   0.213   2.772 -0.1454  0.7701  0.2264
  264THF     C2 5771   0.948   0.192   2.655  0.3947 -0.2658  0.3515
  264THF     C3 5772   1.131   0.304   2.736 -0.4294  0.3762  0.3144
  264THF     H4 5773   0.862   0.256   2.637  0.2468 -0.9532 -1.6742
  264THF     H5 5774   0.908   0.092   2.666 -0.0761 -0.1498 -0.2509
  264THF     H6 5775   1.115   0.408   2.765  0.2288 -0.2853  3.3796
  264THF     H7 5776   1.218   0.271   2.791  0.7842  2.3522 -0.2852
  264THF     C8 5777   1.150   0.292   2.582 -0.8072  0.0422  1.1940
  264THF     C9 5778   1.048   0.183   2.546  0.1948  0.2308  0.0257
  264THF    H10 5779   1.254   0.283   2.552 -1.2232  1.1938 -0.7427
  264THF    H11 5780   1.110   0.384   2.540 -0.5824  0.0797  1.0627
  264THF    H12 5781   1.004   0.210   2.450  0.3271  0.9402  0.1599
  264THF    H13 5782   1.083   0.082   2.529 -1.1499  0.1908 -3.2355
  265THF     O1 5783   2.513   5.126   0.999  0.3230 -0.0252  0.0236
  265THF     C2 5784   2.416   5.051   0.922 -0.2753 -0.1393  0.0843
  265THF     C3 5785   2.454   5.247   1.022 -0.1356 -0.3097 -0.7360
  265THF     H4 5786   2.442   4.945   0.927 -0.8167 -0.2682  0.1840
  265THF     H5 5787   2.430   5.080   0.818  1.5452  0.0545  0.3461
  265THF     H6 5788   2.507   5.300   1.101 -1.3529 -3.4159  2.4248
  265THF     H7 5789   2.454   5.308   0.931  0.1565 -1.2173 -1.3624
  265THF     C8 5790   2.308   5.218   1.062 -0.2605 -0.0424  0.5648
  265THF     C9 5791   2.290   5.086   0.992  0.0391 -0.2308  0.2215
  265THF    H10 5792   2.248   5.297   1.017  2.0090  0.7585 -1.2477
  265THF    H11 5793   2.280   5.206   1.167 -2.1437 -1.5929 -0.0496
  265THF    H12 5794   2.249   5.017   1.066 -2.3054  1.8981  1.0209
  265THF    H13 5795   2.210   5.101   0.920  1.3739  1.2404 -1.0340
  266THF     O1 5796   2.101   0.208   5.382 -0.2264  0.2111 -0.3489
  266THF     C2 5797   1.986   0.291   5.341  0.2144  0.1789  0.6845
  266THF     C3 5798   2.219   0.268   5.320 -0.1778 -0.3402  0.5571
  266THF     H4 5799   1.975   0.382   5.400 -2.2583  2.4162 -2.8116
  266THF     H5 5800   1.897   0.228   5.343  1.3194 -1.5203 -0.2346
  266THF     H6 5801   2.284   0.311   5.396 -0.5476  1.5814 -0.1683
  266THF     H7 5802   2.261   0.186   5.262 -2.9340 -1.0587 -0.5569
  266THF     C8 5803   2.177   0.372   5.220  0.6818  0.4606 -0.3371
  266THF     C9 5804   2.030   0.345   5.198 -0.0208  0.4786 -0.3006
  266THF    H10 5805   2.233   0.383   5.127 -0.2465 -1.7903 -1.2224
  266THF    H11 5806   2.182   0.468   5.272  0.7275 -0.3050  1.1235
  266THF    H12 5807   1.961   0.419   5.156  0.2921 -0.1828 -2.0888
  266THF    H13 5808   2.014   0.265   5.126 -2.0469 -0.2586  0.8685
  267THF     O1 5809   4.358   2.418   5.365  0.2761 -0.1666 -0.2487
  267THF     C2 5810   4.261   2.456   5.457  0.3338  0.1150  0.6635
  267THF     C3 5811   4.376   2.276   5.379  0.6001  0.4039 -0.1171
  267THF     H4 5812   4.212   2.552   5.441 -0.3992 -0.5275 -1.2677
  267THF     H5 5813   4.295   2.444   5.560  0.4979  0.1833  0.6179
  267THF     H6 5814   4.417   2.237   5.286  0.8023 -0.9048  0.5049
  267THF     H7 5815   4.439   2.260   5.466 -1.0640 -1.3998  0.8159
  267THF     C8 5816   4.236   2.219   5.392  0.0566 -0.0598 -0.5979
  267THF     C9 5817   4.166   2.344   5.450 -0.7329 -0.2633  0.4202
  267THF    H10 5818   4.240   2.127   5.450  2.1667 -0.3446 -1.1016
  267THF    H11 5819   4.204   2.193   5.291  1.6895 -2.9413 -0.4616
  267THF    H12 5820   4.092   2.379   5.378  2.3060  0.7209 -2.4628
  267THF    H13 5821   4.119   2.320   5.546 -0.8609 -0.3787  0.3296
  268THF     O1 5822   3.489   2.553   0.520  0.6869  0.0529  0.4979
  268THF     C2 5823   3.433   2.529   0.650 -0.3924 -0.2192  0.2372
  268THF     C3 5824   3.562   2.671   0.508  0.0283  0.1648  0.4570
  268THF     H4 5825   3.500   2.467   0.709  1.3819  0.8521 -0.5707
  268THF     H5 5826   3.336   2.480   0.648  0.2970 -1.6732  0.4751
  268THF     H6 5827   3.667   2.660   0.481  0.2316 -0.2877  1.3907
  268THF     H7 5828   3.527   2.710   0.413  1.3044 -1.9343 -0.9401
  268THF     C8 5829   3.529   2.748   0.635 -0.0765 -0.2935  0.2153
  268THF     C9 5830   3.413   2.670   0.697  0.7609 -0.4057 -0.2954
  268THF    H10 5831   3.515   2.856   0.641  1.0200 -0.2243  3.1931
  268THF    H11 5832   3.614   2.734   0.701  1.4599  0.5488 -1.4924
  268THF    H12 5833   3.402   2.686   0.804  0.5472 -0.7309 -0.2648
  268THF    H13 5834   3.317   2.708   0.660  1.8158  1.7250 -0.9957
  269THF     O1 5835   3.233   4.390   1.246  0.1535 -0.0573 -0.2904
  269THF     C2 5836   3.146   4.465   1.149 -0.7795 -0.4061  0.2141
  269THF     C3 5837   3.314   4.304   1.172 -0.0083  0.6594  0.4554
  269THF     H4 5838   3.107   4.561   1.181  0.8634  0.2841  0.2724
  269THF     H5 5839   3.070   4.399   1.107 -0.3125  0.0479 -1.4553
  269THF     H6 5840   3.410   4.294   1.222  0.7370  0.3696 -0.9852
  269THF     H7 5841   3.269   4.205   1.157 -0.5525  0.9281  0.2825
  269THF     C8 5842   3.341   4.369   1.035  0.1729 -0.1314 -0.3660
  269THF     C9 5843   3.260   4.495   1.048 -0.0745  0.8552  0.1501
  269THF    H10 5844   3.297   4.301   0.963 -2.5287  0.1755  0.8644
  269THF    H11 5845   3.443   4.394   1.006  0.7296 -1.4476  0.3582
  269THF    H12 5846   3.313   4.582   1.087  1.1381 -0.0431  0.6074
  269THF    H13 5847   3.222   4.520   0.949 -1.4418  0.3729  0.5335
  270THF     O1 5848   3.219   1.909   4.557 -0.0126  0.1709 -0.8223
  270THF     C2 5849   3.345   1.901   4.491 -0.7357 -0.1579 -0.2290
  270THF     C3 5850   3.217   1.889   4.695  0.3426 -1.1789  1.0896
  270THF     H4 5851   3.348   2.000   4.445  0.1612 -0.1544 -0.1753
  270THF     H5 5852   3.343   1.815   4.425  1.2785 -0.5960  0.2069
  270THF     H6 5853   3.158   1.960   4.752 -0.2918  0.2277 -1.1969
  270THF     H7 5854   3.166   1.794   4.710 -2.5314 -0.0965 -0.9562
  270THF     C8 5855   3.366   1.915   4.738  0.1725  0.6339 -0.7070
  270THF     C9 5856   3.445   1.890   4.605  0.3350  0.2455  0.6305
  270THF    H10 5857   3.392   1.861   4.829 -1.6870  0.1673 -0.4131
  270THF    H11 5858   3.384   2.017   4.769  0.2218  0.1455  0.9396
  270THF    H12 5859   3.530   1.958   4.597 -0.1533  1.0648  2.0550
  270THF    H13 5860   3.485   1.789   4.608  2.0017  0.8545  0.2177
  271THF     O1 5861   4.413   0.243   1.207  0.5085 -0.0215 -0.2149
  271THF     C2 5862   4.321   0.171   1.281  0.1198 -0.1896  0.4960
  271THF     C3 5863   4.523   0.169   1.173 -0.0195  0.4111 -0.0304
  271THF     H4 5864   4.216   0.202   1.285  0.1610  0.0749 -0.4164
  271THF     H5 5865   4.351   0.176   1.386 -0.6716  1.1812  0.6786
  271THF     H6 5866   4.557   0.189   1.071 -2.1563  0.7248 -0.7405
  271THF     H7 5867   4.608   0.201   1.233  0.3688  0.3331 -0.5258
  271THF     C8 5868   4.493   0.015   1.192  1.0337 -0.5052 -0.5187
  271THF     C9 5869   4.344   0.030   1.227  0.3111 -0.8179 -0.3390
  271THF    H10 5870   4.529  -0.020   1.288 -1.5221 -1.0024  0.3285
  271THF    H11 5871   4.504  -0.047   1.103  1.7060  1.1461 -1.6504
  271THF    H12 5872   4.282   0.006   1.140 -1.2268  0.2102  0.4196
  271THF    H13 5873   4.323  -0.046   1.303  1.4339  0.0928  0.9344
  272THF     O1 5874   2.155   3.435   1.003  0.2232  0.3385 -0.1337
  272THF     C2 5875   2.204   3.370   0.888 -0.3229 -0.9493 -0.5716
  272THF     C3 5876   2.145   3.575   0.975  0.2877  0.0224 -0.3522
  272THF     H4 5877   2.120   3.319   0.841 -1.5209 -0.8539  1.3598
  272THF     H5 5878   2.271   3.293   0.924  1.2492  0.4065 -0.4938
  272THF     H6 5879   2.060   3.624   1.021 -0.7662 -0.6938 -1.4584
  272THF     H7 5880   2.234   3.614   1.024 -0.3347  0.3715  0.5295
  272THF     C8 5881   2.155   3.590   0.824 -0.4683  0.0835 -0.6166
  272THF     C9 5882   2.259   3.480   0.796  0.0433 -0.8310  0.3276
  272THF    H10 5883   2.179   3.692   0.793  1.0615 -0.3129 -0.8187
  272THF    H11 5884   2.057   3.562   0.785 -0.7484  0.6675 -0.3526
  272THF    H12 5885   2.283   3.441   0.697  1.6824 -1.4330  0.9378
  272THF    H13 5886   2.353   3.509   0.843  0.3822  0.5854 -1.1316
  273THF     O1 5887   0.635   1.072   0.262 -0.1560 -0.5717 -0.3661
  273THF     C2 5888   0.563   1.107   0.382 -0.5767 -0.3348 -0.4188
  273THF     C3 5889   0.537   1.083   0.165  0.0659  0.5297  0.0300
  273THF     H4 5890   0.625   1.130   0.469 -0.7689 -0.7777 -0.1604
  273THF     H5 5891   0.499   1.024   0.413 -1.6386  1.1363  1.5592
  273THF     H6 5892   0.579   1.062   0.067 -2.6946 -2.3643 -0.6773
  273THF     H7 5893   0.453   1.015   0.174  0.3320  0.3110  0.9235
  273THF     C8 5894   0.488   1.222   0.187  0.1079  0.0763  0.0332
  273THF     C9 5895   0.484   1.223   0.339  0.1026  0.0593 -0.4979
  273THF    H10 5896   0.395   1.246   0.135  0.7588 -0.6897 -1.5636
  273THF    H11 5897   0.565   1.290   0.149  2.1912 -2.1135  0.1393
  273THF    H12 5898   0.528   1.312   0.383 -1.1035  0.7172 -0.5690
  273THF    H13 5899   0.380   1.214   0.369  0.3657  0.5402  0.5886
  274THF     O1 5900   5.049   0.943   4.390 -0.4971 -0.2093  0.2088
  274THF     C2 5901   5.143   0.863   4.327 -0.1653  0.1224  0.1578
  274THF     C3 5902   5.033   0.884   4.521 -0.1532  0.1483 -0.1513
  274THF     H4 5903   5.194   0.914   4.244 -0.2698 -1.4307 -0.9077
  274THF     H5 5904   5.096   0.773   4.288 -0.8686 -0.5612  2.4378
  274THF     H6 5905   4.983   0.945   4.595  0.5446 -1.2314  1.5304
  274THF     H7 5906   4.970   0.795   4.516 -1.2478  0.9694 -3.1952
  274THF     C8 5907   5.176   0.842   4.561  0.3393 -0.0497 -0.4399
  274THF     C9 5908   5.242   0.820   4.432 -0.0595  0.1541 -0.4846
  274THF    H10 5909   5.190   0.757   4.627  1.2482  0.8977  0.6377
  274THF    H11 5910   5.226   0.927   4.609  1.1499 -0.8130  0.1038
  274THF    H12 5911   5.331   0.882   4.425 -0.5985  0.8637 -1.2462
  274THF    H13 5912   5.265   0.713   4.429 -1.0080 -0.1577  1.5417
  275THF     O1 5913   5.300   0.750   3.326 -0.3893  0.1696  0.2524
  275THF     C2 5914   5.418   0.682   3.299 -0.5703  0.3054  0.2033
  275THF     C3 5915   5.189   0.665   3.295 -0.1172  0.0237 -0.0639
  275THF     H4 5916   5.501   0.727   3.353 -1.3823  0.2715  1.5362
  275THF     H5 5917   5.423   0.684   3.190  2.7384  0.6473  0.2692
  275THF     H6 5918   5.099   0.702   3.345 -1.2604 -1.4145 -0.9569
  275THF     H7 5919   5.160   0.669   3.190  1.2013  1.5687 -0.4039
  275THF     C8 5920   5.235   0.524   3.349  0.3693  0.7990 -0.0086
  275THF     C9 5921   5.384   0.539   3.358 -0.6237 -0.7707  0.4053
  275THF    H10 5922   5.211   0.454   3.269 -0.5445  1.4676 -0.3353
  275THF    H11 5923   5.182   0.506   3.442  2.1515 -0.5854  0.7946
  275THF    H12 5924   5.420   0.533   3.461 -2.0129  0.6664  1.0191
  275THF    H13 5925   5.431   0.457   3.304 -0.1195  0.4934 -1.1390
  276THF     O1 5926   1.102   3.005   5.411 -0.6273  0.4933 -0.0991
  276THF     C2 5927   1.021   2.918   5.338  0.2662 -0.4920  0.0047
  276THF     C3 5928   1.091   3.143   5.372  0.4805  0.3469  0.0857
  276THF     H4 5929   0.985   2.828   5.387 -2.4576  0.6302  0.2547
  276THF     H5 5930   1.068   2.889   5.245  1.5047  2.3448 -0.3592
  276THF     H6 5931   1.095   3.205   5.462  3.2100  0.8782 -0.3256
  276THF     H7 5932   1.172   3.182   5.311 -0.3715 -0.3678 -1.5536
  276THF     C8 5933   0.965   3.129   5.292  0.2731 -0.0224  0.4894
  276THF     C9 5934   0.894   2.999   5.323  0.8928  0.4877  0.7124
  276THF    H10 5935   0.983   3.133   5.185 -4.8688 -1.7837 -0.7178
  276THF    H11 5936   0.903   3.215   5.316 -0.1272  0.8533 -3.1025
  276THF    H12 5937   0.836   2.995   5.415 -0.3406  1.8347  0.0321
  276THF    H13 5938   0.826   2.963   5.245  2.0741 -0.2677  0.0038
  277THF     O1 5939   4.790   4.926   3.121 -0.6094  0.2744  0.2414
  277THF     C2 5940   4.902   4.905   3.032 -0.1188  0.4610 -0.1626
  277THF     C3 5941   4.693   5.008   3.065  0.5442  0.0597  0.1227
  277THF     H4 5942   4.953   4.810   3.039 -2.0474 -0.5617  0.8489
  277THF     H5 5943   4.968   4.984   3.067  0.2345  0.2026 -0.2442
  277THF     H6 5944   4.596   5.010   3.115  1.4237  1.8226  1.9065
  277THF     H7 5945   4.737   5.106   3.082 -0.9347  0.4751  1.8782
  277THF     C8 5946   4.692   4.976   2.918 -0.7996  0.2722 -0.5208
  277THF     C9 5947   4.842   4.923   2.895 -0.1332 -0.3623 -0.0645
  277THF    H10 5948   4.678   5.076   2.878  3.4331  0.6804 -1.4138
  277THF    H11 5949   4.610   4.917   2.878 -1.0487  0.3211 -0.0931
  277THF    H12 5950   4.835   4.827   2.843 -0.1442 -1.4311  1.8293
  277THF    H13 5951   4.906   4.994   2.843  1.0964 -0.7039  0.9215
  278THF     O1 5952   5.448   4.162   0.354 -0.2373  0.7314  0.7779
  278THF     C2 5953   5.378   4.167   0.236  0.4095 -0.2045  0.0920
  278THF     C3 5954   5.473   4.023   0.381  0.4214  0.0133 -0.4045
  278THF     H4 5955   5.386   4.263   0.184 -0.0867 -0.5938 -0.7171
  278THF     H5 5956   5.276   4.131   0.226  0.9319 -1.4691 -1.0412
  278THF     H6 5957   5.542   3.996   0.461 -0.7495  2.4464  1.5632
  278THF     H7 5958   5.378   3.975   0.404  1.0294 -0.6555  0.8104
  278THF     C8 5959   5.533   3.979   0.253 -0.4933  0.4564  0.2466
  278THF     C9 5960   5.452   4.058   0.149 -0.1436  0.6442 -0.5863
  278THF    H10 5961   5.524   3.871   0.239  2.2281 -0.0652  1.8272
  278THF    H11 5962   5.638   4.009   0.248  0.4179 -2.1745  1.7404
  278THF    H12 5963   5.519   4.092   0.069  0.3453  1.9697  0.3508
  278THF    H13 5964   5.383   3.985   0.107  0.7740 -1.8132  1.9070
  279THF     O1 5965   4.369   0.980   3.431 -0.5832 -0.0096  0.0408
  279THF     C2 5966   4.385   1.089   3.526  0.2562 -0.1718  0.9240
  279THF     C3 5967   4.471   1.000   3.327  0.2707 -0.3376 -0.0488
  279THF     H4 5968   4.480   1.074   3.577  0.7294  0.2386  0.1825
  279THF     H5 5969   4.301   1.103   3.594 -2.2369  1.2662 -2.1730
  279THF     H6 5970   4.575   0.988   3.356 -0.3086 -2.1081  1.4839
  279THF     H7 5971   4.458   0.926   3.247  3.0214 -1.5390  0.5016
  279THF     C8 5972   4.455   1.152   3.295 -0.2622  0.6658  0.1826
  279THF     C9 5973   4.403   1.207   3.425 -0.3295 -0.2284  0.0596
  279THF    H10 5974   4.378   1.153   3.218  0.9270 -3.0457 -1.2754
  279THF    H11 5975   4.543   1.204   3.258 -1.7305  1.9118 -1.7563
  279THF    H12 5976   4.473   1.273   3.475 -1.0105  0.7794 -0.2978
  279THF    H13 5977   4.311   1.262   3.406  0.5108  1.6008  1.1018
  280THF     O1 5978   5.458   1.494   5.293  0.6691  0.3953 -0.1383
  280THF     C2 5979   5.565   1.499   5.201  0.5441 -0.6219  0.4049
  280THF     C3 5980   5.386   1.374   5.254  0.1127  0.3002 -0.2337
  280THF     H4 5981   5.632   1.580   5.232 -0.2441 -0.2033  1.0453
  280THF     H5 5982   5.534   1.529   5.100 -3.0625 -1.1979  1.2303
  280THF     H6 5983   5.328   1.325   5.332  2.3616  0.3012  1.5474
  280THF     H7 5984   5.318   1.392   5.170 -0.4002  0.0667  0.1282
  280THF     C8 5985   5.496   1.271   5.228 -0.2029 -0.3383 -0.3100
  280THF     C9 5986   5.622   1.358   5.212 -0.2698 -0.0666  0.8489
  280THF    H10 5987   5.467   1.207   5.144  1.0395  1.1300 -1.9431
  280THF    H11 5988   5.506   1.209   5.316 -1.4969 -1.6327 -1.0264
  280THF    H12 5989   5.691   1.357   5.296 -0.4189 -1.1532  0.9715
  280THF    H13 5990   5.680   1.331   5.124  0.3913  3.0670  0.2340
  281THF     O1 5991   3.509   4.767   1.216 -0.4758  0.2776 -0.2335
  281THF     C2 5992   3.592   4.656   1.211  0.4390 -0.0338  0.2904
  281THF     C3 5993   3.563   4.857   1.312 -0.0708 -0.4131  0.5013
  281THF     H4 5994   3.677   4.691   1.153  0.6135  1.7265  1.5311
  281THF     H5 5995   3.532   4.575   1.168  1.1713 -0.7845  0.6451
  281THF     H6 5996   3.647   4.906   1.264 -1.3848  2.4283  0.8954
  281THF     H7 5997   3.488   4.931   1.342  1.2849  1.5342 -0.7136
  281THF     C8 5998   3.622   4.765   1.428 -0.1359  0.8159  0.0635
  281THF     C9 5999   3.635   4.629   1.356 -0.0906 -0.7225  0.3439
  281THF    H10 6000   3.565   4.755   1.520  1.1939 -0.8803  0.7501
  281THF    H11 6001   3.716   4.808   1.463  0.3733 -1.1176  1.2109
  281THF    H12 6002   3.733   4.583   1.358 -0.2717 -1.1249 -0.0760
  281THF    H13 6003   3.585   4.551   1.414  0.8877 -0.6542  1.3163
  282THF     O1 6004   1.463   3.865   4.037 -0.5076  0.3997 -0.4070
  282THF     C2 6005   1.430   3.959   3.936 -0.0218 -0.8854  0.2749
  282THF     C3 6006   1.486   3.742   3.967  0.1544  0.4324  0.2594
  282THF     H4 6007   1.514   3.991   3.873 -0.2311  1.8604  1.2437
  282THF     H5 6008   1.403   4.050   3.989  0.6338 -1.3493  1.4410
  282THF     H6 6009   1.591   3.738   3.938 -0.1553  0.3924 -0.9141
  282THF     H7 6010   1.466   3.663   4.039 -2.1580  1.2009  0.5579
  282THF     C8 6011   1.396   3.744   3.841 -0.2144 -0.5070 -0.1877
  282THF     C9 6012   1.326   3.879   3.847  0.0906 -0.1052 -0.9288
  282THF    H10 6013   1.335   3.654   3.839 -0.5749 -0.2811  0.4641
  282THF    H11 6014   1.456   3.736   3.750  0.8224 -0.3386  0.4667
  282THF    H12 6015   1.297   3.932   3.756 -0.7608 -1.1700 -1.3027
  282THF    H13 6016   1.237   3.858   3.906  0.9878 -0.6848  0.2552
  283THF     O1 6017   4.327   4.248   5.195 -0.2046 -0.6609 -0.5237
  283THF     C2 6018   4.230   4.237   5.293  0.2321  0.2228  0.0247
  283THF     C3 6019   4.436   4.328   5.246  0.2207 -0.3235 -0.4121
  283THF     H4 6020   4.171   4.146   5.281  0.0709  0.2587  0.5356
  283THF     H5 6021   4.164   4.323   5.284  1.0815  0.8788 -0.0862
  283THF     H6 6022   4.533   4.282   5.226  0.5828 -0.1242  0.7874
  283THF     H7 6023   4.436   4.430   5.207 -0.2491 -0.1553  0.0199
  283THF     C8 6024   4.419   4.340   5.396  0.4025 -0.0260 -0.0275
  283THF     C9 6025   4.311   4.243   5.423 -0.0333  0.0840  0.4680
  283THF    H10 6026   4.377   4.436   5.426  0.4299 -0.4898  1.5529
  283THF    H11 6027   4.514   4.332   5.449  0.5889  0.3218 -0.2962
  283THF    H12 6028   4.373   4.155   5.443 -2.6514 -2.5597 -2.1423
  283THF    H13 6029   4.252   4.277   5.508 -1.9052  0.4479 -0.9257
  284THF     O1 6030   4.941   0.969   5.100  0.3959 -0.3903 -0.4357
  284THF     C2 6031   5.036   0.974   4.990  0.4347  0.3221 -0.2619
  284THF     C3 6032   4.806   0.946   5.043 -0.4723  0.3925 -0.4213
  284THF     H4 6033   5.052   0.871   4.957 -0.7765  0.5036 -1.5529
  284THF     H5 6034   5.133   1.018   5.009  0.4238 -0.5562  2.1686
  284THF     H6 6035   4.807   0.838   5.040  0.0364  0.3871 -0.1410
  284THF     H7 6036   4.733   0.981   5.117  0.5704  0.7189  0.4820
  284THF     C8 6037   4.816   1.021   4.903  0.2098  0.9976  0.1471
  284THF     C9 6038   4.967   1.054   4.884  0.3657 -0.7759 -1.2143
  284THF    H10 6039   4.746   1.105   4.910 -0.9452  0.2194 -1.4474
  284THF    H11 6040   4.787   0.954   4.823  0.0978  1.7247 -0.4345
  284THF    H12 6041   4.998   1.046   4.780  2.0740  0.7674 -0.8963
  284THF    H13 6042   4.979   1.160   4.909 -0.4346 -1.2521  1.4847
  285THF     O1 6043   5.393   3.809   5.397 -0.2427  0.6285  0.3151
  285THF     C2 6044   5.421   3.857   5.265 -0.5285  0.1313  0.0581
  285THF     C3 6045   5.382   3.662   5.400  0.3977 -0.2930  0.2999
  285THF     H4 6046   5.527   3.841   5.249 -0.7999  0.0223 -1.7980
  285THF     H5 6047   5.395   3.963   5.268  1.1156  0.5888 -0.9591
  285THF     H6 6048   5.483   3.622   5.411  1.4087  2.2096  0.8584
  285THF     H7 6049   5.317   3.614   5.473 -0.1368  0.0080  0.0316
  285THF     C8 6050   5.335   3.630   5.254  0.3105  0.1995  0.1714
  285THF     C9 6051   5.339   3.763   5.178  0.3688 -0.2880 -0.3356
  285THF    H10 6052   5.239   3.579   5.259  0.4764 -0.0815  0.4998
  285THF    H11 6053   5.402   3.554   5.215 -0.1516 -0.5259  0.7585
  285THF    H12 6054   5.369   3.756   5.073 -3.2515 -1.7321 -1.4586
  285THF    H13 6055   5.238   3.803   5.171 -0.1068 -0.9013  2.2384
  286THF     O1 6056   0.192   1.653   0.167 -0.4504  0.3868  0.2707
  286THF     C2 6057   0.059   1.695   0.160  0.5913 -0.1729  0.4457
  286THF     C3 6058   0.200   1.529   0.096  0.8797 -0.0321  0.3826
  286THF     H4 6059   0.039   1.744   0.065 -0.5814  0.7977  1.1558
  286THF     H5 6060   0.033   1.766   0.239 -1.5161  0.4839 -0.7605
  286THF     H6 6061   0.198   1.553  -0.010  0.3030 -1.1164  0.1344
  286THF     H7 6062   0.296   1.477   0.100  0.9662  0.1926  1.9091
  286THF     C8 6063   0.079   1.455   0.146 -0.4368 -0.3198  0.4549
  286THF     C9 6064  -0.023   1.564   0.169  0.5604 -0.0279 -0.5410
  286THF    H10 6065   0.105   1.407   0.241  0.1457  0.1199  0.5191
  286THF    H11 6066   0.044   1.379   0.076 -0.8662 -0.2654  0.6028
  286THF    H12 6067  -0.097   1.543   0.091  0.7047 -2.4791 -0.0925
  286THF    H13 6068  -0.059   1.534   0.267 -0.2826  3.6057  0.4079
  287THF     O1 6069   2.977   0.130   5.226 -0.1763 -0.1426  0.9485
  287THF     C2 6070   2.892   0.027   5.277 -0.0336  0.2315 -0.1664
  287THF     C3 6071   3.095   0.151   5.295 -0.4799  0.6589 -0.6209
  287THF     H4 6072   2.839  -0.025   5.197  1.3926 -2.2571  0.3882
  287THF     H5 6073   2.829   0.084   5.345  2.1633  2.1997  0.3490
  287THF     H6 6074   3.176   0.194   5.235 -0.5711  1.6051 -0.0738
  287THF     H7 6075   3.095   0.221   5.378 -0.1203  1.0099 -0.9145
  287THF     C8 6076   3.125   0.010   5.346 -0.4812  1.2343  0.2276
  287THF     C9 6077   2.987  -0.057   5.369 -0.7198 -0.5761  0.0444
  287THF    H10 6078   3.191   0.011   5.432  0.4787 -0.1571 -0.4594
  287THF    H11 6079   3.162  -0.054   5.266 -2.4226 -0.7362  0.7930
  287THF    H12 6080   2.981  -0.165   5.352 -2.2144 -0.4799 -0.2585
  287THF    H13 6081   2.959  -0.041   5.473  0.9920 -2.8060  0.9268
  288THF     O1 6082   4.276   3.098   4.995  0.1179  0.3521  0.0848
  288THF     C2 6083   4.192   2.992   4.940 -0.0648  0.0833 -0.2054
  288THF     C3 6084   4.193   3.193   5.058  0.0861 -0.2745 -0.1191
  288THF     H4 6085   4.167   2.930   5.026 -1.8992 -2.1823 -2.1995
  288THF     H5 6086   4.248   2.940   4.862  0.5084  0.6187 -0.1564
  288THF     H6 6087   4.208   3.180   5.166  3.0225 -0.7798 -0.4892
  288THF     H7 6088   4.230   3.288   5.020 -0.7379 -0.2232 -0.8041
  288THF     C8 6089   4.051   3.166   5.000  0.0713 -0.1760  0.0443
  288THF     C9 6090   4.065   3.055   4.895 -0.5669 -0.0820 -0.1753
  288THF    H10 6091   4.024   3.263   4.957  0.3099 -0.5364 -0.9444
  288THF    H11 6092   3.989   3.133   5.084  0.8023 -4.0455 -0.7641
  288THF    H12 6093   3.978   2.990   4.900  0.6627 -1.8658 -0.9566
  288THF    H13 6094   4.084   3.103   4.799  2.0908  2.4336  1.4466
  289THF     O1 6095   1.196   0.317   1.594  0.4821  0.1435  0.2347
  289THF     C2 6096   1.121   0.217   1.649  0.1513  0.1355  0.3968
  289THF     C3 6097   1.259   0.386   1.695 -0.1494 -0.4091  0.0718
  289THF     H4 6098   1.166   0.126   1.608 -2.4429 -0.2642 -1.8722
  289THF     H5 6099   1.019   0.227   1.613  0.1080  2.0656  0.9397
  289THF     H6 6100   1.352   0.428   1.658 -0.1069 -2.0911 -1.9295
  289THF     H7 6101   1.199   0.470   1.729  1.9127  0.4790  1.6981
  289THF     C8 6102   1.276   0.293   1.812  0.0945  0.1873 -0.0376
  289THF     C9 6103   1.138   0.231   1.798  0.2878  0.7817  0.1518
  289THF    H10 6104   1.293   0.334   1.912  2.9660 -0.6235 -0.1095
  289THF    H11 6105   1.356   0.223   1.788 -0.9268 -0.5649 -1.4063
  289THF    H12 6106   1.125   0.142   1.858  2.3011  1.3818  1.5915
  289THF    H13 6107   1.064   0.303   1.832 -0.2517  0.6874 -0.7754
  290THF     O1 6108   5.490   2.795   5.200 -0.3597  0.2180 -0.5579
  290THF     C2 6109   5.460   2.785   5.062 -0.2591  0.2877  0.1628
  290THF     C3 6110   5.537   2.929   5.224 -0.4857  0.1208  0.1957
  290THF     H4 6111   5.393   2.702   5.036  4.2769 -3.0661 -2.3263
  290THF     H5 6112   5.553   2.770   5.007  1.0729 -0.8083  2.5334
  290THF     H6 6113   5.554   2.963   5.326  0.3839 -0.4937  0.2682
  290THF     H7 6114   5.631   2.950   5.173 -0.0199  0.2438  1.0820
  290THF     C8 6115   5.435   3.009   5.141 -0.1255  0.4330 -0.0898
  290THF     C9 6116   5.391   2.914   5.030  0.0511 -0.1108 -0.0388
  290THF    H10 6117   5.465   3.107   5.104  0.4763  2.0379  4.0675
  290THF    H11 6118   5.359   3.035   5.215  0.7324  0.3436  0.8432
  290THF    H12 6119   5.282   2.912   5.029  0.0350 -0.8380  1.2229
  290THF    H13 6120   5.426   2.950   4.933  1.0676 -0.8562  0.0353
  291THF     O1 6121   4.044   4.443   2.313 -0.3318  0.0588  0.3687
  291THF     C2 6122   4.009   4.445   2.452 -0.0135  0.4861 -0.3485
  291THF     C3 6123   4.181   4.399   2.299  0.2543 -0.0986 -1.0006
  291THF     H4 6124   3.903   4.436   2.475  0.1379 -1.4590 -0.2142
  291THF     H5 6125   4.043   4.544   2.481 -0.7161  0.1681  1.7468
  291THF     H6 6126   4.184   4.301   2.251 -1.4194 -0.2269 -0.8830
  291THF     H7 6127   4.245   4.463   2.238 -0.0779  0.1708 -1.0656
  291THF     C8 6128   4.227   4.370   2.439 -0.4130  0.8548 -0.6661
  291THF     C9 6129   4.096   4.349   2.523 -0.5994  0.5943  0.2977
  291THF    H10 6130   4.290   4.453   2.472 -2.4254  2.0871  0.2680
  291THF    H11 6131   4.296   4.286   2.441 -1.0030  0.3331 -1.3930
  291THF    H12 6132   4.062   4.247   2.506  0.5972  0.3144 -0.5879
  291THF    H13 6133   4.111   4.371   2.628  2.8098  2.5486 -0.4404
  292THF     O1 6134   0.651   2.631   4.224  0.0832  0.4773  0.3852
  292THF     C2 6135   0.784   2.618   4.278  0.4732 -0.0480  0.2190
  292THF     C3 6136   0.556   2.623   4.326  0.5320  0.5177 -0.0499
  292THF     H4 6137   0.854   2.662   4.206  1.0952 -0.0773  0.7892
  292THF     H5 6138   0.810   2.515   4.300 -0.7618 -0.4517 -0.1622
  292THF     H6 6139   0.481   2.702   4.322 -0.3174 -0.1861  1.2080
  292THF     H7 6140   0.497   2.531   4.326  0.8755  0.2957  0.0183
  292THF     C8 6141   0.632   2.662   4.449 -0.3451 -0.1087  0.2103
  292THF     C9 6142   0.776   2.704   4.404 -0.3338 -0.1948  0.1829
  292THF    H10 6143   0.637   2.584   4.526  1.2898  1.0345  1.3185
  292THF    H11 6144   0.586   2.748   4.497 -1.9351 -1.3470  1.0580
  292THF    H12 6145   0.786   2.812   4.388  0.8816 -0.1638  1.0115
  292THF    H13 6146   0.863   2.697   4.469  0.9883  1.8589 -1.2412
  293THF     O1 6147   1.847   4.606   1.906  0.0988 -0.1688 -0.5729
  293THF     C2 6148   1.810   4.537   2.026 -0.1142  0.2890 -0.0889
  293THF     C3 6149   1.976   4.664   1.929 -0.4816  0.2839 -0.0671
  293THF     H4 6150   1.739   4.454   2.027 -0.4862  0.6075  0.3323
  293THF     H5 6151   1.786   4.607   2.106 -0.8945  0.3876 -0.3953
  293THF     H6 6152   2.035   4.669   1.837 -1.6677  0.6294 -0.8347
  293THF     H7 6153   1.979   4.763   1.974 -0.8162  0.2504  0.0292
  293THF     C8 6154   2.051   4.562   2.013  0.1233  0.4179 -0.8811
  293THF     C9 6155   1.939   4.475   2.075 -0.6632  0.1128 -0.4088
  293THF    H10 6156   2.113   4.621   2.082  0.1457  0.6011 -1.0581
  293THF    H11 6157   2.115   4.490   1.962  0.4280 -0.3578  0.5317
  293THF    H12 6158   1.960   4.379   2.028 -1.9618 -1.0449  1.2212
  293THF    H13 6159   1.934   4.457   2.183  2.2594 -2.6779 -0.5988
  294THF     O1 6160   3.321   0.485   0.929  0.3129  0.0727 -0.1601
  294THF     C2 6161   3.218   0.531   1.015  0.5275 -0.3373 -0.1132
  294THF     C3 6162   3.445   0.545   0.956  0.9684 -0.2925 -0.1823
  294THF     H4 6163   3.206   0.470   1.105 -0.1216  0.3085  0.2503
  294THF     H5 6164   3.117   0.531   0.973  0.1335 -2.1591  0.7362
  294THF     H6 6165   3.521   0.477   0.995  0.6121  0.4636  1.9872
  294THF     H7 6166   3.485   0.576   0.860 -1.2208 -1.9057 -1.7102
  294THF     C8 6167   3.424   0.661   1.055  0.1542  0.3123  0.5039
  294THF     C9 6168   3.271   0.663   1.058 -0.3623 -0.5687 -0.3272
  294THF    H10 6169   3.465   0.755   1.018  0.6938  0.1677  0.7365
  294THF    H11 6170   3.460   0.633   1.153  1.3617  1.5402  0.4322
  294THF    H12 6171   3.228   0.685   1.156  0.9470 -0.6829  0.2905
  294THF    H13 6172   3.243   0.736   0.982 -0.9146 -1.0580 -0.5936
  295THF     O1 6173   4.391   2.570   0.319  0.4603 -1.0983 -0.3358
  295THF     C2 6174   4.265   2.624   0.366 -0.2663 -0.0928  0.0949
  295THF     C3 6175   4.480   2.584   0.427 -0.4292  0.0710 -0.1070
  295THF     H4 6176   4.215   2.547   0.424 -0.9579  0.6967  0.5681
  295THF     H5 6177   4.205   2.662   0.284  1.8782  1.1832 -0.9770
  295THF     H6 6178   4.481   2.500   0.497  0.8626  0.2108  0.0758
  295THF     H7 6179   4.584   2.592   0.394 -0.5384 -2.1770 -1.2390
  295THF     C8 6180   4.440   2.714   0.502 -0.1869 -0.5065 -0.1745
  295THF     C9 6181   4.297   2.737   0.460  0.3560  0.0294  0.0182
  295THF    H10 6182   4.496   2.805   0.480  0.4877 -0.8693  0.0265
  295THF    H11 6183   4.442   2.691   0.609 -0.7110  1.5807  0.3525
  295THF    H12 6184   4.233   2.749   0.547  1.5205  0.5009  0.8347
  295THF    H13 6185   4.288   2.823   0.395 -2.2858 -0.4431 -0.3345
  296THF     O1 6186   3.455   1.530   4.054  0.0777  0.2360 -0.1899
  296THF     C2 6187   3.365   1.636   4.044  0.0690  0.2913  0.1720
  296THF     C3 6188   3.444   1.465   4.177  0.0773  0.3458  0.4774
  296THF     H4 6189   3.353   1.660   3.939  0.0083 -0.6121 -0.0399
  296THF     H5 6190   3.409   1.725   4.089  1.5990 -0.5238  0.3559
  296THF     H6 6191   3.491   1.369   4.200  0.8853  0.1451 -1.7510
  296THF     H7 6192   3.483   1.539   4.247  1.2241 -0.6402  0.9124
  296THF     C8 6193   3.295   1.466   4.199  0.1867 -0.0247  0.4712
  296THF     C9 6194   3.238   1.582   4.125 -0.1978  0.1294  0.5466
  296THF    H10 6195   3.284   1.477   4.307 -0.6938  0.1893  0.3694
  296THF    H11 6196   3.251   1.372   4.165  0.1347  0.0378  0.3654
  296THF    H12 6197   3.162   1.555   4.052  0.0164  0.9567 -0.0098
  296THF    H13 6198   3.187   1.651   4.191 -1.2733  0.1526 -0.2817
  297THF     O1 6199   0.094   0.780   1.658  0.4375  0.4423  0.1373
  297THF     C2 6200  -0.020   0.841   1.717 -0.4761 -1.0556  0.3390
  297THF     C3 6201   0.093   0.810   1.522  0.4009 -0.1110  0.0844
  297THF     H4 6202  -0.033   0.840   1.825  3.3899  1.4747  1.0265
  297THF     H5 6203  -0.114   0.794   1.687 -1.0787 -0.5155  1.3070
  297THF     H6 6204   0.191   0.825   1.476 -0.3232  2.0580 -0.9066
  297THF     H7 6205   0.040   0.739   1.459 -1.1806 -0.1126  1.3505
  297THF     C8 6206   0.034   0.952   1.515 -0.0334 -0.1700 -0.6615
  297THF     C9 6207  -0.011   0.980   1.660  0.1895  0.6187 -0.7768
  297THF    H10 6208  -0.053   0.947   1.449 -0.2373  3.7757 -0.8830
  297THF    H11 6209   0.101   1.026   1.471  0.0128  0.2420  0.0943
  297THF    H12 6210   0.061   1.041   1.714  0.5402 -0.9979  0.6928
  297THF    H13 6211  -0.110   1.025   1.669  0.5012  0.8191  4.3105
  298THF     O1 6212   3.799   3.782   4.716 -0.7621  0.7110 -0.3800
  298THF     C2 6213   3.688   3.861   4.739 -0.3815  0.0778  0.1697
  298THF     C3 6214   3.759   3.656   4.763  0.8852  0.3133  0.3039
  298THF     H4 6215   3.680   3.959   4.693 -1.9296 -0.6420 -1.2191
  298THF     H5 6216   3.684   3.874   4.848 -3.0139 -0.7802  0.2519
  298THF     H6 6217   3.821   3.575   4.723 -0.1462 -1.0220  1.3230
  298THF     H7 6218   3.776   3.653   4.870  2.6544 -1.4294  0.0438
  298THF     C8 6219   3.615   3.633   4.722 -1.2260  0.5799 -0.0754
  298THF     C9 6220   3.569   3.775   4.702  0.0948 -0.4229 -0.3487
  298THF    H10 6221   3.562   3.590   4.806 -0.4702  0.2368  0.2362
  298THF    H11 6222   3.607   3.577   4.629 -1.3430 -1.1213  0.9213
  298THF    H12 6223   3.532   3.784   4.599 -1.0322  2.3652  0.2034
  298THF    H13 6224   3.486   3.793   4.770 -0.1239  2.2197 -1.1983
  299THF     O1 6225   5.321   3.606   4.329 -0.2382 -0.0290 -0.3027
  299THF     C2 6226   5.317   3.629   4.467 -0.1655 -0.1808 -0.8714
  299THF     C3 6227   5.462   3.597   4.306 -0.8066 -0.1567 -0.4841
  299THF     H4 6228   5.223   3.601   4.514  2.3445 -3.7360  2.7324
  299THF     H5 6229   5.340   3.735   4.480  0.2501 -0.4679  1.1999
  299THF     H6 6230   5.480   3.550   4.209 -2.2579 -0.3640 -0.6854
  299THF     H7 6231   5.516   3.687   4.335 -0.9847 -1.0951  3.2900
  299THF     C8 6232   5.511   3.502   4.407 -0.3819 -0.3880 -0.6629
  299THF     C9 6233   5.431   3.545   4.532 -0.0462  0.5776 -0.0571
  299THF    H10 6234   5.618   3.516   4.418 -0.5941  0.4481  0.4957
  299THF    H11 6235   5.486   3.401   4.377  0.0054 -0.9330  0.7691
  299THF    H12 6236   5.395   3.455   4.582  1.0357  0.5759  0.7416
  299THF    H13 6237   5.493   3.588   4.610  0.6798 -1.5309  0.5909
  300THF     O1 6238   4.838   1.741   1.005 -0.0684 -0.3488  0.5485
  300THF     C2 6239   4.904   1.738   1.131  0.2026 -0.1442 -0.6571
  300THF     C3 6240   4.698   1.714   1.018 -0.0511 -0.2252  0.6259
  300THF     H4 6241   4.881   1.834   1.177  0.8815 -1.2023  2.0935
  300THF     H5 6242   5.009   1.711   1.118  0.4643  0.9681 -0.9658
  300THF     H6 6243   4.640   1.792   1.066 -0.6450 -0.4593  0.2977
  300THF     H7 6244   4.659   1.700   0.917 -1.4202  3.0003  0.6037
  300THF     C8 6245   4.696   1.598   1.116  0.0976  0.0020  0.7572
  300THF     C9 6246   4.827   1.630   1.201  0.1272  0.2423 -0.1006
  300THF    H10 6247   4.704   1.503   1.063  0.7775  1.0960 -1.2135
  300THF    H11 6248   4.613   1.607   1.185 -0.0247  2.4517  0.3879
  300THF    H12 6249   4.796   1.665   1.300  0.1829  0.1503 -0.0496
  300THF    H13 6250   4.880   1.535   1.203  0.1561  0.2088 -1.5327
  301THF     O1 6251   3.821   1.577   1.662 -0.4965 -0.2430  0.0046
  301THF     C2 6252   3.828   1.527   1.528  0.2107  0.2686  0.1174
  301THF     C3 6253   3.769   1.703   1.650  0.4201  0.0224 -0.1579
  301THF     H4 6254   3.740   1.473   1.493  1.3588 -1.4663 -0.2481
  301THF     H5 6255   3.916   1.463   1.539  0.1749  0.2415  0.2405
  301THF     H6 6256   3.663   1.695   1.627  0.3589 -2.9115  0.7959
  301THF     H7 6257   3.803   1.762   1.736  2.9717  1.5078 -2.0284
  301THF     C8 6258   3.842   1.759   1.526  0.0226 -0.0444 -0.1525
  301THF     C9 6259   3.844   1.640   1.434 -0.2616 -0.8249 -0.3331
  301THF    H10 6260   3.942   1.786   1.557  0.6022 -2.6674  0.4650
  301THF    H11 6261   3.779   1.834   1.478 -1.2298 -0.1025  1.3312
  301THF    H12 6262   3.760   1.653   1.366  0.2064 -0.3774 -0.8317
  301THF    H13 6263   3.933   1.637   1.372  0.7599  0.0841  1.0416
  302THF     O1 6264   1.688   4.001   3.330 -0.0825 -0.5050  0.2853
  302THF     C2 6265   1.559   3.961   3.384 -0.3471 -0.3441 -0.2871
  302THF     C3 6266   1.769   4.042   3.441 -0.1558  0.0611  0.1519
  302THF     H4 6267   1.554   3.852   3.377  1.1097 -0.3973 -0.8695
  302THF     H5 6268   1.479   4.007   3.328  1.5562  0.8769 -2.1664
  302THF     H6 6269   1.819   3.954   3.482 -1.7037 -1.3624 -0.8391
  302THF     H7 6270   1.843   4.111   3.401 -0.9965  1.1718  0.4679
  302THF     C8 6271   1.665   4.109   3.535 -0.1587 -0.0721  0.0165
  302THF     C9 6272   1.549   4.004   3.530 -0.6172 -0.6057 -0.5224
  302THF    H10 6273   1.619   4.196   3.488 -2.8771 -0.0460  2.4812
  302THF    H11 6274   1.700   4.135   3.634 -0.7578  3.3547 -0.5395
  302THF    H12 6275   1.578   3.914   3.584  0.8381  0.5311  0.6592
  302THF    H13 6276   1.457   4.047   3.570  1.2898  1.6535  1.7180
  303THF     O1 6277   0.681   4.563   5.036  0.2239 -0.1346 -0.1294
  303THF     C2 6278   0.721   4.573   4.898  0.2736  0.7136  0.8671
  303THF     C3 6279   0.569   4.470   5.048 -0.2998  0.4492 -0.5558
  303THF     H4 6280   0.826   4.549   4.882  0.2082  1.0777 -0.2382
  303THF     H5 6281   0.719   4.678   4.865  2.6818  0.5579  0.0024
  303THF     H6 6282   0.602   4.372   5.082  1.0662  1.1444  0.2229
  303THF     H7 6283   0.502   4.497   5.130  0.6443  2.7803 -0.4678
  303THF     C8 6284   0.507   4.467   4.906 -0.5111  0.2669 -0.3430
  303THF     C9 6285   0.628   4.476   4.818 -0.4723 -0.4817  0.5402
  303THF    H10 6286   0.435   4.548   4.892 -1.4660 -0.8359 -2.3958
  303THF    H11 6287   0.459   4.371   4.887 -0.8321 -0.0407  1.7596
  303THF    H12 6288   0.676   4.380   4.798 -0.0743 -0.0362 -0.7565
  303THF    H13 6289   0.595   4.517   4.722 -0.4669 -0.5839  0.4946
  304THF     O1 6290   4.630   4.613   5.030 -0.3005  0.4326  0.6057
  304THF     C2 6291   4.720   4.522   5.086 -0.3824 -0.5886 -0.0322
  304THF     C3 6292   4.667   4.745   5.082 -0.4907 -0.4238  0.1536
  304THF     H4 6293   4.719   4.428   5.030 -0.1852 -0.5197 -0.1520
  304THF     H5 6294   4.690   4.499   5.188  0.4932 -1.0002  0.1404
  304THF     H6 6295   4.616   4.825   5.027 -1.7626 -0.3323  1.3893
  304THF     H7 6296   4.639   4.749   5.187  0.3385  0.0673  0.3664
  304THF     C8 6297   4.817   4.748   5.052  0.3479 -0.2528  0.2323
  304THF     C9 6298   4.853   4.601   5.094 -0.1121 -0.6444  0.3946
  304THF    H10 6299   4.866   4.822   5.114  0.1740  0.2081 -0.1755
  304THF    H11 6300   4.837   4.755   4.945 -1.7930  1.4607 -0.1175
  304THF    H12 6301   4.930   4.557   5.030 -0.6108  1.3495 -1.6858
  304THF    H13 6302   4.892   4.604   5.196  0.9122  1.7168 -0.0080
  305THF     O1 6303   3.219   3.125   4.128 -0.1279  0.3714 -0.4092
  305THF     C2 6304   3.206   3.168   3.996 -0.2242  0.0206  0.3724
  305THF     C3 6305   3.113   3.171   4.203 -0.0258 -0.2114  0.2760
  305THF     H4 6306   3.277   3.096   3.954  1.5438  0.1260  2.9169
  305THF     H5 6307   3.243   3.269   3.977 -1.4311  0.7521  1.7372
  305THF     H6 6308   3.086   3.106   4.287  0.4308 -0.4164  0.2686
  305THF     H7 6309   3.140   3.270   4.239 -3.2245  0.6911  0.5017
  305THF     C8 6310   2.996   3.183   4.101  0.2789 -0.4631  0.3484
  305THF     C9 6311   3.061   3.138   3.969 -0.1745 -0.1064 -0.3026
  305THF    H10 6312   2.972   3.289   4.096 -1.6118 -0.8722  0.2278
  305THF    H11 6313   2.906   3.127   4.123  1.3311 -1.7587  1.5850
  305THF    H12 6314   3.048   3.031   3.958 -0.1333 -0.4573  2.3063
  305THF    H13 6315   3.031   3.195   3.881  0.1910  4.0663  2.0237
  306THF     O1 6316   3.094   4.823   3.612  0.2800 -0.5834  0.9964
  306THF     C2 6317   3.078   4.914   3.509 -0.2845 -0.5040  0.0727
  306THF     C3 6318   3.179   4.879   3.715 -0.3283 -0.0704  0.2021
  306THF     H4 6319   2.986   4.905   3.452  0.1677 -1.1047 -0.5860
  306THF     H5 6320   3.151   4.886   3.433 -0.6208  2.3096 -1.4289
  306THF     H6 6321   3.111   4.881   3.799  0.0335  0.8842  0.4787
  306THF     H7 6322   3.266   4.814   3.727  0.7220  1.3681  0.5869
  306THF     C8 6323   3.222   5.018   3.673 -0.3451 -0.1781 -0.3363
  306THF     C9 6324   3.114   5.053   3.571  0.0340 -0.0514  0.0252
  306THF    H10 6325   3.320   5.010   3.625 -0.9479 -0.9301 -1.4763
  306THF    H11 6326   3.242   5.086   3.755 -0.2529 -0.2791 -0.2744
  306THF    H12 6327   3.024   5.099   3.610 -1.0457 -1.0209 -1.2315
  306THF    H13 6328   3.158   5.125   3.501  0.3525  0.2034  0.4813
  307THF     O1 6329   3.506   2.368   2.627  0.2004 -0.2633 -0.3148
  307THF     C2 6330   3.634   2.420   2.613  0.6498 -0.2726 -0.7422
  307THF     C3 6331   3.476   2.380   2.765 -0.3315  0.4019 -0.2547
  307THF     H4 6332   3.652   2.437   2.506  1.5605 -1.3772 -0.7911
  307THF     H5 6333   3.706   2.344   2.644  0.2206 -0.2164  0.4414
  307THF     H6 6334   3.371   2.386   2.794 -0.7523  3.1317 -1.9627
  307THF     H7 6335   3.527   2.297   2.814 -1.9583 -1.0123 -0.8546
  307THF     C8 6336   3.554   2.509   2.809 -0.2008 -0.8612 -0.5235
  307THF     C9 6337   3.643   2.550   2.687 -0.1933 -0.2247  0.4100
  307THF    H10 6338   3.616   2.493   2.898  1.8665 -1.6244 -2.0152
  307THF    H11 6339   3.487   2.593   2.827  0.5491 -0.4785  0.5887
  307THF    H12 6340   3.601   2.636   2.635 -0.0650 -0.1585  0.4167
  307THF    H13 6341   3.739   2.589   2.721 -0.9903  1.3182  0.9859
  308THF     O1 6342   2.797   4.736   2.605  0.3125 -0.0880 -0.1039
  308THF     C2 6343   2.813   4.860   2.542 -0.1937  0.6965  0.6817
  308THF     C3 6344   2.782   4.636   2.513 -0.4675 -0.6181  0.1518
  308THF     H4 6345   2.899   4.910   2.588  0.0134  0.7387  0.2567
  308THF     H5 6346   2.719   4.910   2.565  0.0066  0.7194  1.4864
  308THF     H6 6347   2.810   4.534   2.542  0.5087 -0.7796 -1.2901
  308THF     H7 6348   2.675   4.626   2.494 -1.0944 -0.5752  3.1525
  308THF     C8 6349   2.865   4.685   2.389  0.0173  1.4304  0.0687
  308THF     C9 6350   2.825   4.827   2.381  0.3427  0.0034 -0.1961
  308THF    H10 6351   2.828   4.625   2.306 -0.7634  1.5982  0.2813
  308THF    H11 6352   2.974   4.682   2.383 -0.0446  1.5643 -1.9529
  308THF    H12 6353   2.895   4.893   2.330  0.7672  1.0372  1.6393
  308THF    H13 6354   2.732   4.843   2.327  1.2610  0.4020 -1.7009
  309THF     O1 6355   5.170   1.755   2.037  0.7713  0.2138  0.1075
  309THF     C2 6356   5.251   1.664   1.964  0.9776 -0.1518  0.9461
  309THF     C3 6357   5.041   1.711   2.012 -0.0985 -0.3197 -0.5127
  309THF     H4 6358   5.358   1.660   1.982  0.9145 -3.1717  1.1845
  309THF     H5 6359   5.234   1.675   1.857 -0.2988  1.4201  1.2764
  309THF     H6 6360   4.973   1.759   2.083  0.3542 -0.8903  0.3264
  309THF     H7 6361   5.007   1.735   1.912  0.4428  2.3252 -0.1405
  309THF     C8 6362   5.050   1.560   2.027  0.3369  0.9389  0.0028
  309THF     C9 6363   5.197   1.528   1.999 -0.8316  0.1054 -0.5016
  309THF    H10 6364   4.986   1.505   1.958  3.4450  1.3230 -3.5508
  309THF    H11 6365   5.017   1.531   2.126  1.9134  2.1398  0.9413
  309THF    H12 6366   5.256   1.490   2.082  2.3687  3.2986 -1.0571
  309THF    H13 6367   5.210   1.465   1.911 -1.3792 -0.2328 -0.3457
  310THF     O1 6368   0.896   3.959   0.618  0.3694 -0.0098 -0.5187
  310THF     C2 6369   0.769   3.980   0.558 -0.6456  0.0406  0.2017
  310THF     C3 6370   0.988   4.070   0.598 -0.1265 -0.8233  0.5191
  310THF     H4 6371   0.688   3.923   0.603 -0.9980  0.1343 -0.3118
  310THF     H5 6372   0.773   3.953   0.453 -0.1345 -3.9882  1.0963
  310THF     H6 6373   1.060   4.091   0.677 -0.1017 -0.3413  0.3727
  310THF     H7 6374   1.046   4.056   0.507 -0.3110 -1.3941  0.4841
  310THF     C8 6375   0.896   4.181   0.568  0.2410 -0.7594  0.0104
  310THF     C9 6376   0.753   4.130   0.592  0.3629  0.5352 -0.2590
  310THF    H10 6377   0.902   4.220   0.466  3.7702  0.4080  0.5284
  310THF    H11 6378   0.914   4.269   0.629  3.2365 -1.4780  0.3546
  310THF    H12 6379   0.731   4.136   0.699 -0.9012 -1.4580 -0.3574
  310THF    H13 6380   0.672   4.175   0.536 -0.5109 -0.1021  0.4653
  311THF     O1 6381   4.427   3.943   1.709 -0.2361  0.0010 -0.3339
  311THF     C2 6382   4.302   3.996   1.741  0.2381  0.5689 -0.2300
  311THF     C3 6383   4.511   4.018   1.787 -0.0714  1.1599 -0.4116
  311THF     H4 6384   4.268   3.966   1.840  0.2141  3.2322  0.6501
  311THF     H5 6385   4.236   3.959   1.662  0.4477 -0.5655  0.1021
  311THF     H6 6386   4.510   3.979   1.889 -0.1399 -0.7302 -1.0960
  311THF     H7 6387   4.608   3.996   1.742 -0.5096 -2.4884  0.1304
  311THF     C8 6388   4.469   4.160   1.765 -0.3932 -0.7614 -0.7144
  311THF     C9 6389   4.323   4.148   1.724  0.4021 -0.2718 -0.6891
  311THF    H10 6390   4.530   4.213   1.692  1.5071 -0.8376  0.7285
  311THF    H11 6391   4.493   4.208   1.860  0.1172 -0.0662 -1.1793
  311THF    H12 6392   4.258   4.206   1.790  1.0829  0.9684 -1.0717
  311THF    H13 6393   4.310   4.176   1.620  0.7724 -0.6034 -0.8245
  312THF     O1 6394   1.445   5.010   2.488 -0.0847 -0.5679 -0.4462
  312THF     C2 6395   1.332   5.093   2.508  0.8727 -0.6877  0.0794
  312THF     C3 6396   1.528   5.084   2.387 -0.3067 -0.0722  0.1703
  312THF     H4 6397   1.354   5.174   2.577  0.8684  0.1845 -0.9204
  312THF     H5 6398   1.245   5.037   2.544  0.9470 -1.4002 -0.8038
  312THF     H6 6399   1.585   5.163   2.436  0.9184 -0.2673 -0.8642
  312THF     H7 6400   1.595   5.018   2.331  0.9578  1.5139 -0.2891
  312THF     C8 6401   1.428   5.140   2.288 -0.4236  0.4762  0.2357
  312THF     C9 6402   1.299   5.148   2.365  0.1853 -1.2497 -0.5459
  312THF    H10 6403   1.407   5.068   2.209  0.5512  0.8480 -0.3727
  312THF    H11 6404   1.456   5.236   2.244 -2.7891  1.7234  1.2118
  312THF    H12 6405   1.248   5.244   2.360  1.3070 -0.5353  0.9820
  312THF    H13 6406   1.228   5.076   2.322 -1.4880 -0.2998  0.5219
  313THF     O1 6407   3.127   4.971   0.222 -0.1307  0.0108 -0.3989
  313THF     C2 6408   3.104   5.091   0.139 -0.9145  0.4514 -0.4499
  313THF     C3 6409   3.008   4.917   0.283  0.1295 -0.6296  0.7876
  313THF     H4 6410   3.089   5.050   0.040 -0.7590 -0.7721  0.0129
  313THF     H5 6411   3.179   5.170   0.135  0.1386 -0.3880  1.2519
  313THF     H6 6412   2.990   4.821   0.236  0.2248 -0.4982  0.4734
  313THF     H7 6413   3.012   4.914   0.391  0.4536  1.4065  0.8789
  313THF     C8 6414   2.901   5.013   0.237 -0.5189 -0.6470 -0.4264
  313THF     C9 6415   2.967   5.144   0.188 -0.2018 -0.0314 -0.1793
  313THF    H10 6416   2.817   5.019   0.306  0.2226  0.6828  0.3958
  313THF    H11 6417   2.862   4.972   0.144  0.0679 -0.7638 -0.6244
  313THF    H12 6418   2.912   5.185   0.104  1.4325  0.3498 -1.1205
  313THF    H13 6419   2.973   5.208   0.276  1.2608 -1.4219  0.7967
  314THF     O1 6420   5.474   4.087   3.156 -0.2201  0.5437  0.1459
  314THF     C2 6421   5.394   4.021   3.051 -0.3188  0.7774 -0.0909
  314THF     C3 6422   5.608   4.094   3.115  0.2662  0.0104 -0.0653
  314THF     H4 6423   5.296   4.069   3.049 -0.3431  0.7356 -1.7181
  314THF     H5 6424   5.388   3.912   3.062  1.9126  0.7555  1.5260
  314THF     H6 6425   5.658   4.180   3.160 -0.9507  0.4039  0.5648
  314THF     H7 6426   5.666   4.004   3.133 -1.0772 -0.9309 -0.3005
  314THF     C8 6427   5.595   4.112   2.961 -0.0282 -0.4470  0.6690
  314THF     C9 6428   5.465   4.049   2.925  0.3336  0.0091  0.5323
  314THF    H10 6429   5.684   4.065   2.919 -0.4921 -1.3785  0.7201
  314THF    H11 6430   5.609   4.220   2.947 -0.3650 -0.2091  1.9854
  314THF    H12 6431   5.394   4.113   2.872 -1.9880 -1.6363  1.4981
  314THF    H13 6432   5.488   3.959   2.867 -0.3408 -0.2250  0.6286
  315THF     O1 6433   3.996   3.402   4.665  0.1757 -0.0157  0.0318
  315THF     C2 6434   3.910   3.389   4.550 -0.4623  0.5642 -0.3253
  315THF     C3 6435   4.110   3.474   4.625  0.1248 -0.1831  0.1771
  315THF     H4 6436   3.809   3.410   4.587 -0.9591 -0.5476 -0.9953
  315THF     H5 6437   3.906   3.288   4.509  1.0302  0.8513 -1.2483
  315THF     H6 6438   4.118   3.573   4.670 -1.7214 -0.2111  0.6338
  315THF     H7 6439   4.207   3.428   4.643  0.6360  0.0663 -1.6633
  315THF     C8 6440   4.102   3.490   4.471  0.4182  0.2597  0.2424
  315THF     C9 6441   3.952   3.496   4.444 -0.2877  0.2986  0.3785
  315THF    H10 6442   4.150   3.406   4.420  0.1970  0.8245 -0.9195
  315THF    H11 6443   4.146   3.587   4.447 -0.5158  0.2632 -1.6860
  315THF    H12 6444   3.912   3.596   4.464  0.2630  0.6811 -0.3931
  315THF    H13 6445   3.929   3.474   4.340 -1.1196  1.4884  0.2939
  316THF     O1 6446   4.996   2.408   4.996  0.2766 -0.0819 -0.3317
  316THF     C2 6447   5.091   2.451   4.900 -0.2582  0.0730 -0.0626
  316THF     C3 6448   4.914   2.305   4.947 -0.0232 -0.2655  0.3239
  316THF     H4 6449   5.189   2.453   4.948 -0.9179  0.8924  1.3298
  316THF     H5 6450   5.077   2.555   4.871 -2.1302 -0.6438 -1.9192
  316THF     H6 6451   4.954   2.216   4.995  0.9987  0.0852  0.1364
  316THF     H7 6452   4.814   2.333   4.981  0.4675 -0.4009  2.0003
  316THF     C8 6453   4.952   2.303   4.796 -0.0940 -0.1645 -0.3379
  316THF     C9 6454   5.096   2.348   4.794 -0.2361  0.0622  0.0861
  316THF    H10 6455   4.887   2.369   4.739  0.0604 -1.1196 -1.6607
  316THF    H11 6456   4.935   2.206   4.750  1.1458 -0.9721  0.8257
  316THF    H12 6457   5.154   2.258   4.815 -0.5745  0.3675  2.6688
  316THF    H13 6458   5.126   2.397   4.701 -1.3092  3.7545  1.5425
  317THF     O1 6459   3.323   4.549   4.003 -0.3409 -0.9746 -0.0947
  317THF     C2 6460   3.467   4.538   4.003  0.5272 -0.5733 -0.4667
  317THF     C3 6461   3.260   4.453   4.086  0.0852 -0.3171 -0.5623
  317THF     H4 6462   3.511   4.638   3.998 -0.9390  0.0703 -1.0330
  317THF     H5 6463   3.496   4.477   3.918 -0.7493 -1.5960 -0.1858
  317THF     H6 6464   3.189   4.497   4.156  3.1303  1.2339  1.7773
  317THF     H7 6465   3.194   4.389   4.028  1.6300  0.1035 -2.9202
  317THF     C8 6466   3.373   4.374   4.160  0.0738  0.1602  0.0643
  317THF     C9 6467   3.498   4.463   4.138  0.1547 -0.0880  0.0301
  317THF    H10 6468   3.392   4.277   4.116  0.2881  0.4655 -0.5272
  317THF    H11 6469   3.346   4.367   4.266 -0.0638 -2.0692 -0.0775
  317THF    H12 6470   3.509   4.544   4.210  0.8638  2.0839 -2.3623
  317THF    H13 6471   3.586   4.399   4.140  0.8118  0.7864 -0.1773
  318THF     O1 6472   5.170   3.529   1.597  0.1174  0.7026  0.2342
  318THF     C2 6473   5.176   3.444   1.483  0.4104  0.6254 -0.1250
  318THF     C3 6474   5.304   3.560   1.640 -0.3150  0.8181  0.0504
  318THF     H4 6475   5.076   3.440   1.439  0.7307  0.5066 -0.8621
  318THF     H5 6476   5.202   3.340   1.502 -0.3468  0.3757 -0.4100
  318THF     H6 6477   5.329   3.664   1.661 -1.3102  1.4471 -1.7183
  318THF     H7 6478   5.348   3.485   1.706  3.1257  1.3001 -1.4642
  318THF     C8 6479   5.393   3.522   1.518  0.2094  0.1642 -0.6202
  318THF     C9 6480   5.288   3.508   1.405 -0.2468  0.2785 -0.1160
  318THF    H10 6481   5.444   3.428   1.538  0.6623  0.6090  0.3580
  318THF    H11 6482   5.468   3.598   1.496  0.7130 -0.2931 -0.4938
  318THF    H12 6483   5.254   3.604   1.366 -1.3185 -0.3194 -0.6840
  318THF    H13 6484   5.333   3.447   1.327 -1.1677 -0.1790 -0.2958
  319THF     O1 6485   0.676   0.842   2.556  0.0294 -0.4568  0.4808
  319THF     C2 6486   0.715   0.744   2.653  0.0083  0.2356  0.1052
  319THF     C3 6487   0.791   0.875   2.475  0.4105  0.4535 -0.0576
  319THF     H4 6488   0.626   0.682   2.664  0.3431 -0.2173  0.2729
  319THF     H5 6489   0.735   0.795   2.747 -0.2443 -1.0031  0.8463
  319THF     H6 6490   0.769   0.861   2.369 -0.9378 -1.0608  0.3969
  319THF     H7 6491   0.823   0.976   2.499  0.5952  0.6535 -1.0825
  319THF     C8 6492   0.905   0.781   2.522  0.0885 -0.6098  0.6333
  319THF     C9 6493   0.837   0.677   2.601  0.8691  0.5956 -0.4378
  319THF    H10 6494   0.963   0.846   2.587 -0.2079 -0.1894  0.4805
  319THF    H11 6495   0.970   0.743   2.443 -0.8634  0.9437 -0.9619
  319THF    H12 6496   0.815   0.597   2.531  0.8301 -0.0413  0.2836
  319THF    H13 6497   0.892   0.628   2.681 -0.3469  0.4828  0.3587
  320THF     O1 6498   2.900   5.457   1.214  0.2481 -0.3650 -0.2321
  320THF     C2 6499   3.020   5.404   1.165  0.0975  0.3722  0.0795
  320THF     C3 6500   2.787   5.426   1.136  0.4587  0.4046 -0.0044
  320THF     H4 6501   3.039   5.300   1.191  0.5015 -0.3908 -2.8779
  320THF     H5 6502   3.096   5.475   1.197  0.3874 -0.0949  0.4306
  320THF     H6 6503   2.729   5.349   1.186  2.2980 -1.2207 -0.2885
  320THF     H7 6504   2.733   5.518   1.112  0.2894  0.5240  0.8066
  320THF     C8 6505   2.852   5.382   1.006 -0.3588  0.0330  0.8451
  320THF     C9 6506   3.003   5.414   1.015  0.0138 -0.0931  0.0373
  320THF    H10 6507   2.812   5.433   0.918  0.6463 -1.5314 -0.6032
  320THF    H11 6508   2.824   5.277   0.991  1.0697 -0.4335  1.2808
  320THF    H12 6509   3.068   5.347   0.960  0.7437  0.0798  0.6749
  320THF    H13 6510   3.015   5.517   0.982  1.0558  0.2308  1.3311
  321THF     O1 6511   4.991   0.996   2.047  0.1086 -0.5850 -0.0248
  321THF     C2 6512   5.004   0.855   2.021  0.0715 -0.2170 -0.3979
  321THF     C3 6513   5.096   1.056   1.974  0.3192 -0.3603  0.1915
  321THF     H4 6514   4.956   0.825   1.928  1.3217 -1.5624 -0.6448
  321THF     H5 6515   4.970   0.796   2.107 -0.0990  0.4481 -0.0009
  321THF     H6 6516   5.055   1.083   1.876 -0.4693 -1.8248  0.0857
  321THF     H7 6517   5.117   1.148   2.028  1.5287 -0.2882 -0.3708
  321THF     C8 6518   5.217   0.957   1.972  0.0189 -0.2811  0.6575
  321THF     C9 6519   5.152   0.827   1.994 -0.0826  0.2237  0.3588
  321THF    H10 6520   5.284   0.973   2.057  0.3059 -0.5752  0.4884
  321THF    H11 6521   5.278   0.969   1.883  2.2878 -2.9337  1.7081
  321THF    H12 6522   5.169   0.751   1.918  1.9828 -2.1953  2.9834
  321THF    H13 6523   5.178   0.787   2.093 -0.7147  0.6712  0.7132
  322THF     O1 6524   1.944   0.163   2.511  0.4765  0.2444 -0.1288
  322THF     C2 6525   1.977   0.117   2.381 -0.0529  0.1532  0.5798
  322THF     C3 6526   1.822   0.231   2.489  0.7068 -0.1304  0.6557
  322THF     H4 6527   1.917   0.028   2.362 -0.4754  0.8944 -1.8898
  322THF     H5 6528   2.085   0.104   2.381  0.1709  1.7646 -0.0481
  322THF     H6 6529   1.746   0.154   2.503  1.4798 -1.0005  0.2292
  322THF     H7 6530   1.815   0.313   2.560  0.8136 -0.2347  0.7876
  322THF     C8 6531   1.819   0.279   2.341  0.5714 -0.1730 -0.0578
  322THF     C9 6532   1.949   0.234   2.285  0.5343  0.1461  1.0434
  322THF    H10 6533   1.811   0.387   2.325  3.7534  0.1804  0.1757
  322THF    H11 6534   1.734   0.229   2.296  0.4199  0.7282 -0.8080
  322THF    H12 6535   1.968   0.201   2.183  1.4792 -0.6739  1.4691
  322THF    H13 6536   2.021   0.314   2.302  0.8014 -0.1983  1.5339
  323THF     O1 6537   1.939   2.918   0.587 -0.3238  0.0250  0.2740
  323THF     C2 6538   2.059   2.930   0.671  0.4911 -0.1598  0.7443
  323THF     C3 6539   1.930   3.044   0.522 -0.1519  0.1686  0.1658
  323THF     H4 6540   2.148   2.935   0.608 -1.2152 -0.6448 -1.8245
  323THF     H5 6541   2.062   2.847   0.742 -0.1504 -0.2348  0.6895
  323THF     H6 6542   1.997   3.047   0.436 -0.9465  2.2367 -0.4536
  323THF     H7 6543   1.825   3.060   0.498  0.1840 -1.5365 -3.0331
  323THF     C8 6544   1.972   3.145   0.630 -0.0655  0.3421 -0.3058
  323THF     C9 6545   2.029   3.059   0.741  0.3765 -0.0656  0.2590
  323THF    H10 6546   1.886   3.201   0.667 -0.5485  1.4068 -2.7775
  323THF    H11 6547   2.042   3.218   0.590  1.7033 -1.5226 -0.7831
  323THF    H12 6548   2.102   3.104   0.808 -1.1382  0.0641  1.9172
  323THF    H13 6549   1.944   3.037   0.806 -0.6926  0.1252 -1.0170
  324THF     O1 6550   5.474   3.937   4.910 -0.2226  0.6160  0.1236
  324THF     C2 6551   5.454   3.901   4.775 -0.3283 -0.7649 -0.0265
  324THF     C3 6552   5.364   4.023   4.945 -0.5060  0.1424 -0.2353
  324THF     H4 6553   5.507   3.809   4.750 -0.5201 -0.8260 -0.2064
  324THF     H5 6554   5.492   3.990   4.725  1.9284 -0.7360  1.5593
  324THF     H6 6555   5.364   4.040   5.053 -0.0643  2.2136 -0.5222
  324THF     H7 6556   5.384   4.121   4.901 -0.4184 -0.3336 -1.2783
  324THF     C8 6557   5.244   3.972   4.872  0.1736 -0.0387  0.1477
  324THF     C9 6558   5.301   3.878   4.772 -0.7944  0.1165 -0.4496
  324THF    H10 6559   5.178   4.045   4.828  0.2311 -0.4822 -0.6890
  324THF    H11 6560   5.181   3.917   4.942  0.5993  0.4632  0.9457
  324THF    H12 6561   5.295   3.773   4.802 -0.4312 -0.2278 -1.5398
  324THF    H13 6562   5.253   3.883   4.674 -2.1911 -1.8695  0.0765
  325THF     O1 6563   2.773   4.877   4.215 -0.5354 -0.0899 -0.5581
  325THF     C2 6564   2.824   4.977   4.122  0.3026  0.0192 -0.3589
  325THF     C3 6565   2.701   4.782   4.144  0.3186  0.3420 -0.2644
  325THF     H4 6566   2.915   5.024   4.159  0.0357  0.1005  0.2104
  325THF     H5 6567   2.755   5.060   4.108 -0.3099 -0.1098  1.5537
  325THF     H6 6568   2.686   4.688   4.197  1.3736 -0.3477 -1.1511
  325THF     H7 6569   2.601   4.822   4.124  0.4703  0.0974 -1.5959
  325THF     C8 6570   2.776   4.766   4.015  0.4302  0.0359 -0.3597
  325THF     C9 6571   2.846   4.897   3.993  0.8208 -0.0619  0.4734
  325THF    H10 6572   2.713   4.733   3.932 -1.0751  0.7250  0.4714
  325THF    H11 6573   2.843   4.680   4.017  0.0271 -0.2824  1.8977
  325THF    H12 6574   2.951   4.866   3.991  0.7447 -0.2844 -0.3790
  325THF    H13 6575   2.829   4.948   3.899  1.0308  0.1412  0.5450
  326THF     O1 6576   0.863   3.588   4.108 -0.1226  0.6300  0.0598
  326THF     C2 6577   0.970   3.639   4.037  0.3756  0.2194 -0.0861
  326THF     C3 6578   0.761   3.685   4.116 -0.4227  0.0563 -0.2779
  326THF     H4 6579   0.952   3.612   3.933  0.3142  1.2584 -0.3555
  326THF     H5 6580   1.064   3.591   4.064  1.3760  1.4402 -1.2301
  326THF     H6 6581   0.724   3.688   4.014  1.0633 -3.6645 -1.0821
  326THF     H7 6582   0.687   3.651   4.189 -1.2334 -2.2110 -2.0385
  326THF     C8 6583   0.849   3.808   4.141  0.3796  0.4828 -0.3267
  326THF     C9 6584   0.971   3.788   4.060 -0.4533  0.2633 -0.0650
  326THF    H10 6585   0.882   3.823   4.244 -0.7649 -0.4440  0.1934
  326THF    H11 6586   0.803   3.901   4.110 -4.2281 -1.4325 -0.0503
  326THF    H12 6587   0.959   3.842   3.966  1.2862 -0.1758 -0.5642
  326THF    H13 6588   1.061   3.823   4.111 -2.0817  0.4110  2.9463
  327THF     O1 6589   3.646   4.366   2.592 -0.5580 -0.4678 -0.3108
  327THF     C2 6590   3.524   4.327   2.538 -0.2744  0.5315  0.0028
  327THF     C3 6591   3.727   4.251   2.622  0.7715  0.3905 -0.0150
  327THF     H4 6592   3.479   4.405   2.476 -0.8347  0.9972  0.9764
  327THF     H5 6593   3.453   4.314   2.619 -0.3356  2.5568  0.3372
  327THF     H6 6594   3.831   4.277   2.640  1.5805 -0.8699 -2.4975
  327THF     H7 6595   3.688   4.186   2.700 -0.3003 -0.4235 -1.1908
  327THF     C8 6596   3.704   4.164   2.493  0.5550  0.0835 -0.2198
  327THF     C9 6597   3.559   4.193   2.462 -0.5927 -0.6002 -0.1435
  327THF    H10 6598   3.714   4.056   2.508  0.9038  0.0925 -0.3823
  327THF    H11 6599   3.761   4.203   2.409 -0.9096 -0.0616 -1.2998
  327THF    H12 6600   3.538   4.213   2.357 -0.4361  1.8727  0.2304
  327THF    H13 6601   3.491   4.114   2.493 -0.2399 -0.7440  0.2845
  328THF     O1 6602   4.358   0.021   3.037  0.0419  0.1991 -0.1117
  328THF     C2 6603   4.503   0.033   3.029  0.7621  0.0305 -0.1381
  328THF     C3 6604   4.314   0.157   3.020 -0.2868  0.6773  0.4830
  328THF     H4 6605   4.528   0.044   2.924 -1.8595  2.4375 -0.5929
  328THF     H5 6606   4.559  -0.052   3.069  1.1798  0.1962 -0.3701
  328THF     H6 6607   4.316   0.185   2.914  0.0886 -0.8196  0.0606
  328THF     H7 6608   4.207   0.165   3.039 -0.4827  0.5972 -0.5082
  328THF     C8 6609   4.400   0.236   3.111 -0.2182  0.1275 -0.1269
  328THF     C9 6610   4.535   0.166   3.099  0.4113  0.1285 -0.3916
  328THF    H10 6611   4.351   0.219   3.207 -2.9420 -2.7726 -1.8600
  328THF    H11 6612   4.408   0.344   3.097  3.3056  0.8404  4.6506
  328THF    H12 6613   4.613   0.219   3.045  1.2877 -1.9857 -1.3005
  328THF    H13 6614   4.572   0.144   3.199  0.2055  1.2854 -0.0493
  329THF     O1 6615   1.843   2.345   0.441  0.0119  0.0637  0.8957
  329THF     C2 6616   1.830   2.445   0.538 -1.0494  0.1331  0.5247
  329THF     C3 6617   1.785   2.387   0.315  0.2121  0.1042  0.2442
  329THF     H4 6618   1.918   2.452   0.602  0.0218  0.4483 -0.9117
  329THF     H5 6619   1.746   2.425   0.603 -2.1132  0.0805 -0.8129
  329THF     H6 6620   1.858   2.397   0.235 -1.8516  2.1582 -1.5233
  329THF     H7 6621   1.714   2.313   0.276 -0.8085  2.1525 -2.0496
  329THF     C8 6622   1.728   2.521   0.348  0.3497 -0.1392  0.3889
  329THF     C9 6623   1.797   2.574   0.472 -0.7103 -0.0187  0.2137
  329THF    H10 6624   1.620   2.518   0.365 -0.1889  2.4436 -1.7644
  329THF    H11 6625   1.733   2.591   0.264  0.0992 -0.0504  0.4472
  329THF    H12 6626   1.881   2.643   0.460 -0.6066 -0.0235  0.8743
  329THF    H13 6627   1.716   2.624   0.525 -0.8590 -0.7029  0.6387
  330THF     O1 6628   3.309   4.446   1.805 -0.2183 -0.1262  0.4156
  330THF     C2 6629   3.330   4.517   1.682  0.2678 -0.7906  0.2293
  330THF     C3 6630   3.359   4.313   1.779 -0.3742  0.1220  0.0570
  330THF     H4 6631   3.432   4.557   1.676  0.2665 -0.6602  0.9753
  330THF     H5 6632   3.271   4.608   1.675 -0.0017 -0.8867  1.1841
  330THF     H6 6633   3.468   4.318   1.792 -0.6952  0.6393  3.2101
  330THF     H7 6634   3.319   4.237   1.846 -2.7185  1.4155  0.1937
  330THF     C8 6635   3.320   4.282   1.633 -0.1369 -0.6730  0.3689
  330THF     C9 6636   3.302   4.422   1.571  0.6960  0.2051 -0.1821
  330THF    H10 6637   3.229   4.221   1.641 -0.4856 -0.3545 -0.9005
  330THF    H11 6638   3.395   4.219   1.585  0.2331 -1.8889  2.4547
  330THF    H12 6639   3.370   4.442   1.488 -0.2817 -0.8495 -1.2753
  330THF    H13 6640   3.199   4.432   1.536  0.7579 -1.3117 -0.8800
  331THF     O1 6641   1.102   2.081   1.335 -0.3859 -0.5672  0.2069
  331THF     C2 6642   0.980   2.028   1.378  0.1917 -0.5343  0.7517
  331THF     C3 6643   1.171   2.139   1.447  0.9654  0.1231  0.0090
  331THF     H4 6644   1.005   1.922   1.385  1.8065 -0.1395  1.5266
  331THF     H5 6645   0.902   2.029   1.302  1.4068 -1.1322 -0.5445
  331THF     H6 6646   1.258   2.076   1.464  1.4871  0.8315  0.0018
  331THF     H7 6647   1.201   2.241   1.424 -1.5143  0.5795 -1.6048
  331THF     C8 6648   1.073   2.143   1.563 -0.3439 -0.2313  0.0777
  331THF     C9 6649   0.940   2.098   1.505  0.1554  0.1435  0.0343
  331THF    H10 6650   1.074   2.240   1.613 -0.9425 -0.9613  1.5533
  331THF    H11 6651   1.096   2.069   1.639 -0.4209 -1.7122 -1.2848
  331THF    H12 6652   0.877   2.033   1.566 -0.7643 -2.4885 -3.4446
  331THF    H13 6653   0.868   2.178   1.488 -0.0785 -0.0845 -0.0513
  332THF     O1 6654   1.826   1.226   3.640  0.3229 -0.0007  0.0536
  332THF     C2 6655   1.721   1.304   3.595  0.1752  0.0823  0.0878
  332THF     C3 6656   1.891   1.304   3.747 -0.4470 -0.6551  0.8940
  332THF     H4 6657   1.637   1.235   3.594  1.4185 -1.5542  1.3597
  332THF     H5 6658   1.729   1.336   3.491 -0.5333  1.4804  0.4468
  332THF     H6 6659   1.873   1.262   3.846 -2.7460 -0.1088  0.7809
  332THF     H7 6660   1.999   1.300   3.736 -0.5313 -0.8729  0.0658
  332THF     C8 6661   1.835   1.447   3.736 -0.0187 -0.2129 -0.2792
  332THF     C9 6662   1.695   1.422   3.686  0.3627 -0.2348  0.2864
  332THF    H10 6663   1.894   1.497   3.659  0.8443 -1.4312 -0.4596
  332THF    H11 6664   1.833   1.503   3.829 -0.1466  0.2795 -0.5753
  332THF    H12 6665   1.623   1.393   3.762 -0.0392  1.6645  0.6752
  332THF    H13 6666   1.650   1.505   3.632 -2.1954 -0.6530  1.6206
  333THF     O1 6667   4.287   5.004   0.998 -0.1434 -0.3502 -0.9823
  333THF     C2 6668   4.207   5.027   0.886  0.0459 -0.4278 -0.3290
  333THF     C3 6669   4.324   5.128   1.048  0.0849 -0.7401 -0.4986
  333THF     H4 6670   4.105   5.055   0.914  0.4142 -0.1265  0.7370
  333THF     H5 6671   4.212   4.937   0.825 -0.1101 -0.1453 -0.7692
  333THF     H6 6672   4.236   5.176   1.090  0.1278 -1.4976  0.4880
  333THF     H7 6673   4.408   5.120   1.117  2.6430  3.8534 -2.5574
  333THF     C8 6674   4.364   5.200   0.920  0.4007 -0.2140  0.1820
  333THF     C9 6675   4.266   5.140   0.814  0.8919  0.4333  0.4187
  333THF    H10 6676   4.466   5.169   0.901  1.0635  0.2488  2.6056
  333THF    H11 6677   4.352   5.306   0.939 -3.5608 -0.6737  1.2300
  333THF    H12 6678   4.190   5.211   0.780  0.1114 -1.3296 -1.7536
  333THF    H13 6679   4.312   5.115   0.718  0.0126  0.3527  0.0130
  334THF     O1 6680   3.598   0.532   1.540  0.1107 -0.1563 -0.6734
  334THF     C2 6681   3.656   0.607   1.651  0.5626 -0.1612  0.0221
  334THF     C3 6682   3.698   0.543   1.439  0.1423 -0.1918  0.2306
  334THF     H4 6683   3.736   0.541   1.683  0.9108  0.5640  0.6769
  334THF     H5 6684   3.598   0.626   1.741 -0.7324 -1.5803 -0.4816
  334THF     H6 6685   3.780   0.487   1.483 -0.0665  0.4314  1.4633
  334THF     H7 6686   3.667   0.515   1.338 -0.1532 -0.8569  0.4963
  334THF     C8 6687   3.724   0.692   1.441  0.0212 -0.4159  0.6412
  334THF     C9 6688   3.696   0.741   1.587  0.5203  0.2049 -0.1087
  334THF    H10 6689   3.656   0.745   1.374  0.8925  0.8410  0.7170
  334THF    H11 6690   3.827   0.711   1.411  0.1923  0.8471  1.8722
  334THF    H12 6691   3.773   0.813   1.614  0.5481  0.7126 -1.4788
  334THF    H13 6692   3.602   0.795   1.599 -0.1831 -1.5268  3.8800
  335THF     O1 6693   3.252   0.897   1.267 -0.1619 -0.7009 -0.6707
  335THF     C2 6694   3.160   0.962   1.357 -0.5783  0.3596  0.3142
  335THF     C3 6695   3.359   0.853   1.340 -0.3965  0.0823  0.2043
  335THF     H4 6696   3.106   0.885   1.412  0.3453 -1.6710 -1.4231
  335THF     H5 6697   3.083   1.017   1.303 -1.8969 -0.8598  0.8924
  335THF     H6 6698   3.344   0.755   1.385  1.6017 -0.8537 -1.0241
  335THF     H7 6699   3.440   0.846   1.267 -1.6495  0.2750 -1.2608
  335THF     C8 6700   3.394   0.961   1.440  0.7688  0.0666 -0.1516
  335THF     C9 6701   3.261   1.040   1.435  0.0115  0.5107 -0.1397
  335THF    H10 6702   3.475   1.024   1.401  0.3493  0.0093 -1.1527
  335THF    H11 6703   3.426   0.921   1.536  0.3897  0.7087  0.2422
  335THF    H12 6704   3.227   1.055   1.538 -0.4942  1.0068 -0.3735
  335THF    H13 6705   3.263   1.141   1.393 -1.2863  0.1677 -1.0699
  336THF     O1 6706   0.227   1.846   3.562  0.3828 -0.4554  0.7252
  336THF     C2 6707   0.124   1.790   3.478  0.6530 -0.0729 -0.3497
  336THF     C3 6708   0.327   1.894   3.475  0.9526  0.5285  0.2934
  336THF     H4 6709   0.058   1.865   3.434  1.4435  0.0156 -1.4299
  336THF     H5 6710   0.056   1.728   3.537  0.6661  0.6411  0.4378
  336THF     H6 6711   0.295   1.979   3.416  1.3215 -0.0089 -0.7019
  336THF     H7 6712   0.422   1.921   3.521  0.6208  2.0021  0.1643
  336THF     C8 6713   0.341   1.778   3.374 -0.0785  0.9129  0.4205
  336THF     C9 6714   0.202   1.715   3.372  0.1000  0.5602  0.0871
  336THF    H10 6715   0.410   1.707   3.420 -0.2500  0.6202  0.2259
  336THF    H11 6716   0.372   1.803   3.272  3.7103  0.4900  1.3171
  336THF    H12 6717   0.155   1.721   3.274  0.1373 -1.9286 -0.1460
  336THF    H13 6718   0.195   1.608   3.389 -1.3283  0.4682 -0.9595
  337THF     O1 6719   4.624   0.964   0.120 -0.0663 -0.0258 -0.1482
  337THF     C2 6720   4.533   1.074   0.146 -0.4950  0.1284  0.4337
  337THF     C3 6721   4.681   0.995  -0.005 -0.8595  0.2643 -0.3204
  337THF     H4 6722   4.517   1.090   0.253 -0.8185  1.3918  0.2123
  337THF     H5 6723   4.439   1.043   0.101 -0.4331  0.8430 -0.2016
  337THF     H6 6724   4.767   0.933  -0.027 -1.6510 -0.1886 -2.3096
  337THF     H7 6725   4.617   0.983  -0.092  1.3645 -0.1911 -1.9818
  337THF     C8 6726   4.715   1.142   0.007 -0.4137 -0.1158  0.0066
  337THF     C9 6727   4.597   1.196   0.084 -0.3482 -0.4107 -0.2687
  337THF    H10 6728   4.726   1.181  -0.095 -3.1208 -0.1741 -0.3807
  337THF    H11 6729   4.813   1.149   0.053 -0.3983 -0.6251  0.0557
  337THF    H12 6730   4.625   1.257   0.170 -0.8823 -0.7651  0.1641
  337THF    H13 6731   4.522   1.252   0.028 -0.8183 -0.6727  0.0933
  338THF     O1 6732   0.069   0.413   1.662 -0.0392  0.6974 -0.0345
  338THF     C2 6733   0.190   0.401   1.581  0.1034 -0.4822  1.2440
  338THF     C3 6734  -0.043   0.373   1.579 -0.0851  0.6224 -0.6962
  338THF     H4 6735   0.276   0.382   1.646  1.1689 -1.9170 -0.5010
  338THF     H5 6736   0.205   0.494   1.527  1.4066 -0.4179  1.6862
  338THF     H6 6737  -0.090   0.288   1.629  1.7562 -0.4897 -0.7360
  338THF     H7 6738  -0.117   0.449   1.556 -1.8674 -0.2677  1.6786
  338THF     C8 6739   0.011   0.320   1.449  0.4415  0.2101  0.6128
  338THF     C9 6740   0.162   0.292   1.474  0.4418  0.5818  0.1281
  338THF    H10 6741   0.006   0.397   1.372  0.9156 -3.2798 -3.2072
  338THF    H11 6742  -0.039   0.232   1.410  1.2673  0.2410 -0.5516
  338THF    H12 6743   0.179   0.196   1.521  1.5669  1.0630  0.7305
  338THF    H13 6744   0.221   0.305   1.383 -0.7379  1.9380 -0.4999
  339THF     O1 6745   2.765   0.770   1.209  0.5925 -0.0767 -1.1395
  339THF     C2 6746   2.868   0.853   1.155 -0.1535 -0.1464  0.1063
  339THF     C3 6747   2.708   0.685   1.112  0.3097  0.0993 -0.6632
  339THF     H4 6748   2.967   0.814   1.178 -0.2367 -1.5900 -1.6771
  339THF     H5 6749   2.864   0.953   1.195  1.9108  0.4470 -0.9920
  339THF     H6 6750   2.762   0.592   1.099 -0.6633 -0.6891  0.6615
  339THF     H7 6751   2.607   0.667   1.150  0.5516 -1.2507 -0.6256
  339THF     C8 6752   2.708   0.781   0.995 -0.5034  0.0385 -0.3295
  339THF     C9 6753   2.846   0.843   1.007  0.2524 -0.6929  0.6866
  339THF    H10 6754   2.624   0.850   1.002 -2.0386 -1.9135  1.3880
  339THF    H11 6755   2.696   0.743   0.893  0.3774 -0.0672 -0.4015
  339THF    H12 6756   2.924   0.789   0.954  0.9591  1.7946 -1.0011
  339THF    H13 6757   2.853   0.942   0.962  0.1229 -1.0199 -0.0705
  340THF     O1 6758   3.460   0.601   5.418  0.0565 -0.0973 -0.7125
  340THF     C2 6759   3.464   0.722   5.347  0.4841  0.2074 -0.1767
  340THF     C3 6760   3.558   0.507   5.363 -0.6101 -0.0929 -0.3278
  340THF     H4 6761   3.413   0.804   5.397 -1.8997 -1.4632  0.2962
  340THF     H5 6762   3.406   0.703   5.257 -0.2181 -0.8493  0.4753
  340THF     H6 6763   3.582   0.442   5.447  2.6066  1.3577 -0.0027
  340THF     H7 6764   3.534   0.454   5.271  2.4939 -0.8585 -0.7812
  340THF     C8 6765   3.681   0.597   5.328 -0.6903 -0.1821  0.2798
  340THF     C9 6766   3.613   0.729   5.314  0.3009 -0.5455 -0.1502
  340THF    H10 6767   3.725   0.567   5.233 -0.5861  0.4801  0.1110
  340THF    H11 6768   3.758   0.610   5.404 -1.0837 -0.1414  0.6732
  340THF    H12 6769   3.659   0.816   5.360 -0.7310 -1.0467  1.9629
  340THF    H13 6770   3.624   0.764   5.211  1.5982  0.1354  0.1942
  341THF     O1 6771   1.822   3.969   0.938 -0.4274  0.5435 -0.3747
  341THF     C2 6772   1.690   3.932   0.899  0.2669 -0.4407  0.6876
  341THF     C3 6773   1.906   3.867   0.888 -0.5131  0.1682  0.0444
  341THF     H4 6774   1.676   3.947   0.792 -2.3334 -0.9442  0.8821
  341THF     H5 6775   1.607   3.985   0.946 -1.3219 -0.1777 -2.1681
  341THF     H6 6776   1.917   3.908   0.788 -0.2287 -0.1392 -0.0537
  341THF     H7 6777   2.000   3.868   0.943  0.6108  0.4117 -1.7957
  341THF     C8 6778   1.826   3.733   0.911  0.1444 -0.3993  0.2849
  341THF     C9 6779   1.674   3.779   0.924  0.1882 -0.0887  0.6085
  341THF    H10 6780   1.855   3.681   1.003  0.1513  1.0487  1.1432
  341THF    H11 6781   1.838   3.662   0.829  1.6058  1.5451 -1.2808
  341THF    H12 6782   1.608   3.730   0.852  1.5383 -0.2344 -0.5601
  341THF    H13 6783   1.630   3.755   1.021  1.0657 -1.0091  0.7988
  342THF     O1 6784   2.619   5.496   0.059 -0.0422  0.0479  0.6563
  342THF     C2 6785   2.634   5.357   0.093  0.5840  0.1023  0.4297
  342THF     C3 6786   2.502   5.541   0.114  0.1243 -0.0883 -0.1765
  342THF     H4 6787   2.664   5.340   0.196 -2.3333  0.3169  1.3855
  342THF     H5 6788   2.707   5.314   0.024  0.3576  0.2621  0.0881
  342THF     H6 6789   2.501   5.571   0.219  0.5559 -1.4030  0.2150
  342THF     H7 6790   2.462   5.633   0.071 -0.7667 -0.0478  0.7000
  342THF     C8 6791   2.404   5.431   0.086  0.2091 -0.1576 -0.4506
  342THF     C9 6792   2.491   5.312   0.048  0.3995 -0.2478  0.4291
  342THF    H10 6793   2.329   5.459   0.011  1.9725  0.6456 -2.0076
  342THF    H11 6794   2.354   5.418   0.182 -1.1593  0.9485 -0.9724
  342THF    H12 6795   2.465   5.220   0.100 -0.4353 -1.4078 -1.9125
  342THF    H13 6796   2.487   5.291  -0.059  1.0880 -3.1625  0.8789
  343THF     O1 6797   2.009   2.341   4.839 -0.0917 -0.0275 -0.3741
  343THF     C2 6798   1.879   2.307   4.848  0.1868 -0.1942  0.1091
  343THF     C3 6799   2.088   2.285   4.945  0.7380 -0.2155 -0.0383
  343THF     H4 6800   1.831   2.304   4.751 -1.4518 -0.7559  0.9026
  343THF     H5 6801   1.831   2.385   4.907 -0.3412 -0.5431  0.1461
  343THF     H6 6802   2.195   2.285   4.926  0.9024  1.8535  0.6500
  343THF     H7 6803   2.062   2.337   5.037  2.0486  0.0415  0.2027
  343THF     C8 6804   2.025   2.147   4.938  0.8096  0.1481  0.3210
  343THF     C9 6805   1.878   2.172   4.923 -0.3664 -0.0117 -0.1030
  343THF    H10 6806   2.039   2.075   5.019 -0.1986  0.2536  0.6002
  343THF    H11 6807   2.061   2.098   4.847  1.1683  2.5280 -0.8996
  343THF    H12 6808   1.832   2.096   4.860  0.9209  0.0651 -1.1663
  343THF    H13 6809   1.835   2.170   5.024 -0.4779  2.0731 -0.0748
  344THF     O1 6810   4.789   2.764   3.570 -0.2324 -1.0049 -0.5226
  344THF     C2 6811   4.658   2.805   3.616 -0.3224 -0.2918  0.1975
  344THF     C3 6812   4.782   2.723   3.432 -0.5444 -0.4554 -0.4867
  344THF     H4 6813   4.659   2.895   3.677  0.0420 -0.5475  0.5789
  344THF     H5 6814   4.611   2.720   3.665 -0.9974 -1.4589 -2.3329
  344THF     H6 6815   4.839   2.795   3.374 -1.9130  1.2456  0.1814
  344THF     H7 6816   4.813   2.620   3.414 -1.9055 -1.3955  2.0014
  344THF     C8 6817   4.640   2.742   3.388 -0.0758  0.0728 -0.4177
  344THF     C9 6818   4.584   2.839   3.483  0.6411 -0.1752 -0.0680
  344THF    H10 6819   4.577   2.655   3.404  1.4628 -1.2872 -1.5269
  344THF    H11 6820   4.631   2.769   3.282 -2.2684  2.6215  0.2957
  344THF    H12 6821   4.603   2.945   3.463 -1.6651  0.8570  2.5442
  344THF    H13 6822   4.475   2.828   3.482  0.4130  1.5407  0.9678
  345THF     O1 6823   2.358   4.269   5.373 -0.0634 -0.2873 -1.0150
  345THF     C2 6824   2.504   4.239   5.357  0.8317  0.7263  0.0155
  345THF     C3 6825   2.299   4.170   5.456  0.5485  0.6317  0.1336
  345THF     H4 6826   2.557   4.326   5.316 -1.0779  1.1914 -1.6469
  345THF     H5 6827   2.532   4.158   5.289 -0.2324 -0.7360  1.2609
  345THF     H6 6828   2.225   4.204   5.529  1.6644 -0.0546  1.6431
  345THF     H7 6829   2.262   4.097   5.384 -0.8747  0.9433  0.5212
  345THF     C8 6830   2.418   4.110   5.527 -0.9775  0.0547 -0.3462
  345THF     C9 6831   2.545   4.191   5.500  0.4361  0.0672  0.0949
  345THF    H10 6832   2.425   4.002   5.509  1.4911 -0.1227  1.2137
  345THF    H11 6833   2.402   4.109   5.635  0.0066 -3.6178 -0.0699
  345THF    H12 6834   2.556   4.271   5.573  1.0619 -3.3640  4.1617
  345THF    H13 6835   2.636   4.134   5.519  0.2576  0.0455  0.9220
  346THF     O1 6836   5.299   0.393   2.852  0.1459 -0.2404  0.6293
  346THF     C2 6837   5.191   0.402   2.755 -0.4029  0.3992  0.1913
  346THF     C3 6838   5.256   0.304   2.952  0.1293 -0.3100  0.3806
  346THF     H4 6839   5.192   0.308   2.700 -0.3709 -0.0762  0.9925
  346THF     H5 6840   5.205   0.490   2.692  1.1989  0.6997  0.9211
  346THF     H6 6841   5.269   0.202   2.917  0.5348  0.2168 -1.0573
  346THF     H7 6842   5.306   0.324   3.047  1.7157 -3.7972  0.4388
  346THF     C8 6843   5.102   0.341   2.967  0.1394  0.4220 -0.0179
  346THF     C9 6844   5.066   0.410   2.837 -0.2477 -0.1012  0.0891
  346THF    H10 6845   5.087   0.415   3.046 -1.3326  1.1935 -0.9766
  346THF    H11 6846   5.037   0.258   2.996 -2.0683  2.7316  2.1996
  346THF    H12 6847   4.992   0.350   2.785  0.4845 -0.1448 -0.9561
  346THF    H13 6848   5.045   0.514   2.861  0.3255 -0.4245  2.2032
  347THF     O1 6849   2.410   1.578   1.667 -0.4975 -0.3953  0.2654
  347THF     C2 6850   2.287   1.506   1.688  0.9359  0.1756  0.2845
  347THF     C3 6851   2.518   1.485   1.678 -0.2193  1.1289 -0.5735
  347THF     H4 6852   2.195   1.559   1.664  0.2345 -1.8063 -1.7583
  347THF     H5 6853   2.284   1.474   1.792 -0.3120  1.4120  0.6649
  347THF     H6 6854   2.615   1.526   1.653  0.3749 -1.2037 -2.3984
  347THF     H7 6855   2.519   1.448   1.781 -0.8720 -1.4429 -1.4098
  347THF     C8 6856   2.468   1.358   1.608  0.0670 -0.8509 -0.1082
  347THF     C9 6857   2.314   1.375   1.598  0.2449  0.0150  0.1026
  347THF    H10 6858   2.490   1.277   1.678  1.3001  0.4891  1.1030
  347THF    H11 6859   2.521   1.339   1.515 -0.7057  1.4520 -1.0865
  347THF    H12 6860   2.285   1.387   1.494  0.5266  0.6927  0.1031
  347THF    H13 6861   2.253   1.287   1.623 -0.1543 -0.1369 -1.3490
  348THF     O1 6862   1.759   3.725   1.298 -0.2940  0.1592 -0.3996
  348THF     C2 6863   1.632   3.660   1.301  0.4445  0.1369  0.6263
  348THF     C3 6864   1.782   3.764   1.428 -0.2438  0.2908 -0.3914
  348THF     H4 6865   1.616   3.599   1.211  0.8181 -0.0515  0.6847
  348THF     H5 6866   1.552   3.733   1.302  0.3467  0.0203  1.7183
  348THF     H6 6867   1.884   3.798   1.446 -0.8036  1.2935  1.1084
  348THF     H7 6868   1.711   3.841   1.460 -1.1423 -1.8713  3.4576
  348THF     C8 6869   1.752   3.641   1.515  0.0755  0.9431 -0.2335
  348THF     C9 6870   1.630   3.583   1.430 -0.3844  0.0772 -0.4704
  348THF    H10 6871   1.729   3.663   1.620 -0.8902 -0.7186 -0.0534
  348THF    H11 6872   1.840   3.578   1.530  0.0278  0.5482 -1.4671
  348THF    H12 6873   1.651   3.480   1.402  1.1756  0.4200 -0.6621
  348THF    H13 6874   1.539   3.593   1.488 -1.5345 -1.2858 -1.9615
  349THF     O1 6875   0.425   2.919   0.239  0.1083  0.4951  0.0538
  349THF     C2 6876   0.447   3.051   0.301  0.9106  0.4399 -0.0657
  349THF     C3 6877   0.549   2.850   0.265  0.4663  0.3352 -1.0611
  349THF     H4 6878   0.426   3.045   0.408  0.4862  0.2592 -0.1577
  349THF     H5 6879   0.380   3.128   0.265  0.2685 -0.6175 -1.1961
  349THF     H6 6880   0.554   2.827   0.372  1.9893  0.0841 -1.1602
  349THF     H7 6881   0.547   2.758   0.206 -0.7878  0.1158 -0.6980
  349THF     C8 6882   0.649   2.955   0.229  0.6864 -0.3495  0.1686
  349THF     C9 6883   0.587   3.086   0.266 -0.0017 -0.2116 -0.2947
  349THF    H10 6884   0.648   2.956   0.120  1.3404  0.9282  0.1562
  349THF    H11 6885   0.750   2.940   0.268  1.7709  1.6980 -1.6391
  349THF    H12 6886   0.629   3.132   0.355 -2.4207  1.1879  0.2247
  349THF    H13 6887   0.594   3.153   0.181 -0.4542 -0.5802 -0.6316
  350THF     O1 6888   0.210   1.858   3.001 -0.6759 -0.4563  0.0314
  350THF     C2 6889   0.294   1.911   2.906  0.0970  0.4650  0.1285
  350THF     C3 6890   0.152   1.962   3.074  0.2033  0.6226  0.6546
  350THF     H4 6891   0.242   1.977   2.836 -0.1392  0.3969  0.2367
  350THF     H5 6892   0.351   1.843   2.844  0.3697  0.4792  0.3633
  350THF     H6 6893   0.073   2.009   3.016 -1.4314 -1.3721  1.1521
  350THF     H7 6894   0.102   1.937   3.168 -2.3895  0.0417 -0.7933
  350THF     C8 6895   0.278   2.050   3.092  0.2442 -0.3525  1.3223
  350THF     C9 6896   0.383   1.999   2.997  0.4997  0.3239 -0.0388
  350THF    H10 6897   0.313   2.040   3.195  0.2299  2.3306  1.6704
  350THF    H11 6898   0.257   2.157   3.082  1.0497 -0.3135 -0.2930
  350THF    H12 6899   0.443   2.077   2.950  1.0921 -1.2856 -2.1372
  350THF    H13 6900   0.455   1.938   3.052  0.5907 -0.2124 -0.7400
  351THF     O1 6901   3.695   5.104   4.930 -0.3224  0.0304 -0.2925
  351THF     C2 6902   3.805   5.016   4.957  0.0791  0.9390 -0.5923
  351THF     C3 6903   3.731   5.225   4.995  0.6138 -0.2296 -1.3039
  351THF     H4 6904   3.817   4.939   4.880 -0.3274  1.5962 -1.3286
  351THF     H5 6905   3.789   4.953   5.044  0.1598 -0.9732 -1.9011
  351THF     H6 6906   3.664   5.308   4.971 -0.8438 -0.5929  1.1806
  351THF     H7 6907   3.708   5.209   5.100 -2.9485  1.3688 -1.6914
  351THF     C8 6908   3.880   5.246   4.956 -0.9751 -0.2482  0.3500
  351THF     C9 6909   3.933   5.106   4.967  0.9616  0.5232  0.1968
  351THF    H10 6910   3.930   5.319   5.021  0.8746  0.5896 -1.8552
  351THF    H11 6911   3.885   5.278   4.852  1.3055  0.0771  0.4952
  351THF    H12 6912   4.002   5.078   4.887 -0.4542 -0.0706 -0.8638
  351THF    H13 6913   3.973   5.081   5.065  1.0307 -1.5069 -0.3016
  352THF     O1 6914   3.231   2.262   5.142 -0.1142  0.1041  0.0052
  352THF     C2 6915   3.130   2.199   5.062  0.3014  0.1660  0.0279
  352THF     C3 6916   3.304   2.352   5.058  0.1995 -0.7890  0.2732
  352THF     H4 6917   3.040   2.259   5.045  1.0717  0.8817 -1.7496
  352THF     H5 6918   3.094   2.100   5.092 -2.1768  0.7465 -0.7605
  352THF     H6 6919   3.252   2.448   5.053  0.8378 -0.4790 -0.6205
  352THF     H7 6920   3.408   2.357   5.090 -0.1665  0.2334  1.3717
  352THF     C8 6921   3.285   2.302   4.918 -0.1476 -0.0075  0.4015
  352THF     C9 6922   3.192   2.182   4.925  0.0457 -0.3024 -0.2097
  352THF    H10 6923   3.382   2.274   4.876  1.1035  2.2432  1.5428
  352THF    H11 6924   3.259   2.389   4.857  1.0920 -0.5867 -1.0155
  352THF    H12 6925   3.119   2.173   4.845  0.1336 -0.4162 -0.2775
  352THF    H13 6926   3.251   2.091   4.937 -0.5726 -0.4427  2.2539
  353THF     O1 6927   0.327   3.323   3.128 -0.8570 -0.6773 -0.1171
  353THF     C2 6928   0.247   3.233   3.208 -0.0803 -0.1057  0.2023
  353THF     C3 6929   0.449   3.247   3.098  0.1416  0.1396 -0.3277
  353THF     H4 6930   0.146   3.275   3.203  0.5639  1.4006 -1.4178
  353THF     H5 6931   0.272   3.240   3.314  1.6100 -2.6131  0.0569
  353THF     H6 6932   0.510   3.296   3.023 -0.2410  0.1573 -0.6305
  353THF     H7 6933   0.503   3.249   3.193 -1.3603  1.1852  0.5450
  353THF     C8 6934   0.389   3.109   3.065 -0.4445  0.0069  0.5001
  353THF     C9 6935   0.261   3.101   3.144  0.3319  0.2531  0.2944
  353THF    H10 6936   0.462   3.031   3.083 -2.5416 -1.9098  1.0862
  353THF    H11 6937   0.364   3.108   2.959 -0.5684  1.0688  0.5081
  353THF    H12 6938   0.172   3.082   3.084  0.1826  2.1290 -0.1416
  353THF    H13 6939   0.266   3.021   3.218  1.4406 -0.3898 -0.4459
  354THF     O1 6940   1.557   0.240   4.835 -0.3417  0.3688 -0.0207
  354THF     C2 6941   1.643   0.327   4.764  0.1489 -0.0713  0.2390
  354THF     C3 6942   1.420   0.282   4.834 -0.3115 -0.6210  0.3424
  354THF     H4 6943   1.675   0.281   4.670  2.8753  1.4249  0.3253
  354THF     H5 6944   1.739   0.349   4.810  1.3539  0.2753 -2.2353
  354THF     H6 6945   1.383   0.250   4.736 -2.4572  0.6076  0.6898
  354THF     H7 6946   1.353   0.240   4.909 -0.7730 -0.7345 -0.1273
  354THF     C8 6947   1.443   0.434   4.829  0.1612 -0.3177 -0.0344
  354THF     C9 6948   1.563   0.451   4.744  0.9923 -0.7640 -0.3016
  354THF    H10 6949   1.456   0.472   4.930 -1.0574 -0.9455  0.3791
  354THF    H11 6950   1.362   0.487   4.779  0.5065  0.8821  0.6312
  354THF    H12 6951   1.531   0.448   4.640 -2.0121  1.7477  0.3982
  354THF    H13 6952   1.616   0.545   4.762 -1.6136  0.7225  0.0537
  355THF     O1 6953   0.573   0.985   1.906  0.6875 -0.4788 -0.2997
  355THF     C2 6954   0.592   1.118   1.861  0.2025  0.4109 -0.1864
  355THF     C3 6955   0.514   0.913   1.803 -0.2532 -0.7536  0.5229
  355THF     H4 6956   0.669   1.109   1.783  0.1643 -0.8432 -0.1088
  355THF     H5 6957   0.610   1.192   1.938  0.1291 -1.0129  1.2473
  355THF     H6 6958   0.591   0.882   1.733 -2.2967  1.3626 -2.9417
  355THF     H7 6959   0.461   0.826   1.844  1.3039 -1.2895  1.5151
  355THF     C8 6960   0.413   1.001   1.734  0.1628  0.8759 -1.0103
  355THF     C9 6961   0.451   1.141   1.791 -0.0402  0.2588 -0.0562
  355THF    H10 6962   0.308   0.977   1.751 -0.3695  2.2247 -2.1851
  355THF    H11 6963   0.421   1.006   1.626  2.2857  0.0623 -0.9452
  355THF    H12 6964   0.474   1.216   1.716  0.3528  0.0428 -0.1522
  355THF    H13 6965   0.368   1.182   1.848 -1.7856 -2.2336 -0.6025
  356THF     O1 6966   3.494   1.361   1.502 -0.1883 -0.4181 -0.0208
  356THF     C2 6967   3.413   1.480   1.510  0.2631 -0.1819  0.2921
  356THF     C3 6968   3.513   1.325   1.360  0.4404 -0.4816  0.1392
  356THF     H4 6969   3.474   1.566   1.483 -1.9838  1.3981 -0.1341
  356THF     H5 6970   3.359   1.497   1.604  0.4937 -1.4638  0.6699
  356THF     H6 6971   3.599   1.376   1.316  1.5360 -0.5335  2.1323
  356THF     H7 6972   3.522   1.220   1.332 -1.0229 -0.6354  0.1792
  356THF     C8 6973   3.389   1.386   1.295  0.3404  0.0538  0.0758
  356THF     C9 6974   3.314   1.454   1.403 -0.0391  0.2234 -0.4181
  356THF    H10 6975   3.336   1.298   1.260  3.2614 -1.2654 -1.3890
  356THF    H11 6976   3.419   1.455   1.216 -1.2092 -0.4010 -0.9352
  356THF    H12 6977   3.261   1.542   1.366 -3.9729 -2.6821 -2.3144
  356THF    H13 6978   3.241   1.385   1.444  0.8750  0.7960  2.4626
  357THF     O1 6979   3.263   0.794   1.885 -0.1332 -0.3481  0.0091
  357THF     C2 6980   3.240   0.806   1.744  0.5156 -0.2590  0.0494
  357THF     C3 6981   3.255   0.656   1.922  0.5823 -0.0988 -0.3741
  357THF     H4 6982   3.315   0.754   1.684  0.9642 -1.0339  1.2395
  357THF     H5 6983   3.214   0.904   1.703  0.3081  0.0246  0.8488
  357THF     H6 6984   3.336   0.593   1.886 -0.9641 -1.7258 -1.1760
  357THF     H7 6985   3.256   0.653   2.031  1.5885 -0.4151 -0.3808
  357THF     C8 6986   3.124   0.624   1.845  0.1572 -0.6882  0.1839
  357THF     C9 6987   3.118   0.717   1.724  0.3794 -0.1503  0.0965
  357THF    H10 6988   3.034   0.635   1.906  1.3668 -3.0444  2.6058
  357THF    H11 6989   3.121   0.521   1.809  0.3229  0.3085 -3.0469
  357THF    H12 6990   3.110   0.671   1.625 -1.9142  0.8341 -0.2453
  357THF    H13 6991   3.026   0.772   1.745  1.0462  0.6911  0.8865
  358THF     O1 6992   3.775   3.184   2.073 -0.3949  0.5151  0.2994
  358THF     C2 6993   3.849   3.275   1.991 -0.3778 -0.3119  0.1070
  358THF     C3 6994   3.722   3.094   1.977 -0.6723  0.8972 -0.2608
  358THF     H4 6995   3.907   3.341   2.055 -1.7032  1.0944 -0.0838
  358THF     H5 6996   3.785   3.338   1.929 -1.3492 -0.5194  0.8637
  358THF     H6 6997   3.693   3.004   2.031  0.8845  0.6334  0.2090
  358THF     H7 6998   3.647   3.135   1.909 -0.7060  0.4151 -0.5146
  358THF     C8 6999   3.843   3.061   1.888  0.9738 -0.6321 -0.4645
  358THF     C9 7000   3.929   3.189   1.893 -0.5485 -0.0977 -0.7334
  358THF    H10 7001   3.827   3.026   1.787 -0.1270 -1.4261 -0.0347
  358THF    H11 7002   3.901   2.981   1.933 -1.4804 -2.0483  0.3601
  358THF    H12 7003   4.030   3.166   1.925 -0.2120  1.2653 -0.7512
  358THF    H13 7004   3.934   3.250   1.803  0.4872  1.0362  0.0716
  359THF     O1 7005   0.188   4.409   1.646  0.0380 -0.3039 -0.5270
  359THF     C2 7006   0.178   4.543   1.644  0.7720  0.2574  0.0385
  359THF     C3 7007   0.157   4.379   1.785 -0.0285  0.6480 -0.7053
  359THF     H4 7008   0.072   4.570   1.646  0.3019 -1.4191  3.1833
  359THF     H5 7009   0.224   4.570   1.548  2.8220 -0.2066  0.8550
  359THF     H6 7010   0.051   4.358   1.801 -0.8172  3.2063 -1.8643
  359THF     H7 7011   0.213   4.291   1.814 -0.5233  1.1330  1.9145
  359THF     C8 7012   0.185   4.504   1.870  0.5175  0.4882 -0.5016
  359THF     C9 7013   0.246   4.594   1.771  0.0780  0.7952 -0.0286
  359THF    H10 7014   0.247   4.493   1.959  0.4850  0.9740 -0.4145
  359THF    H11 7015   0.086   4.533   1.905  0.8442 -1.2634  2.2048
  359THF    H12 7016   0.209   4.695   1.790  1.9368  1.4711  0.2435
  359THF    H13 7017   0.355   4.591   1.780  0.0320 -2.1581  0.6155
  360THF     O1 7018   3.677   4.790   2.702  0.4337  0.1340 -0.2245
  360THF     C2 7019   3.667   4.911   2.625 -0.3435 -0.9432 -0.0210
  360THF     C3 7020   3.643   4.691   2.609  0.1288  0.4575 -0.6355
  360THF     H4 7021   3.757   4.927   2.566  1.3003 -0.3815  2.4752
  360THF     H5 7022   3.663   4.994   2.695  1.4583 -0.4950 -0.4179
  360THF     H6 7023   3.722   4.670   2.538  2.2056  2.1994  1.0242
  360THF     H7 7024   3.610   4.602   2.663 -1.1675 -0.6958 -3.1795
  360THF     C8 7025   3.521   4.747   2.544  0.1473 -0.3686  0.5360
  360THF     C9 7026   3.538   4.897   2.548 -0.1027 -0.9463  0.3871
  360THF    H10 7027   3.427   4.706   2.581 -0.9060 -0.0507 -1.6354
  360THF    H11 7028   3.524   4.730   2.436  0.2700 -0.8314  0.6072
  360THF    H12 7029   3.543   4.952   2.454 -0.1498 -1.6979 -0.0581
  360THF    H13 7030   3.457   4.936   2.609 -1.7099 -0.9563 -1.6380
  361THF     O1 7031   2.188   3.260   0.367  0.3403  0.3762  0.2686
  361THF     C2 7032   2.293   3.219   0.454 -0.3268 -0.0372  0.1011
  361THF     C3 7033   2.164   3.160   0.265  0.5777  0.0093 -0.1622
  361THF     H4 7034   2.252   3.165   0.540 -0.9006 -0.4819 -0.4413
  361THF     H5 7035   2.355   3.304   0.483 -1.0140  0.4989  0.0193
  361THF     H6 7036   2.065   3.115   0.264  0.2549  0.6676  0.8193
  361THF     H7 7037   2.176   3.207   0.167 -0.3766  1.5508  0.4139
  361THF     C8 7038   2.270   3.050   0.298  0.2306 -0.0578 -0.3927
  361THF     C9 7039   2.373   3.124   0.371  0.0693  0.4974  0.4024
  361THF    H10 7040   2.316   3.009   0.208  0.9064 -0.6986  0.2404
  361THF    H11 7041   2.224   2.974   0.361  1.5731  0.5073  1.3471
  361THF    H12 7042   2.430   3.048   0.425  2.5024  1.3286 -0.8092
  361THF    H13 7043   2.437   3.175   0.298 -0.6480  0.9665  0.0958
  362THF     O1 7044   3.478   4.342   3.130 -0.3613 -0.1318 -0.0503
  362THF     C2 7045   3.488   4.205   3.089 -0.3102 -0.1154 -0.2803
  362THF     C3 7046   3.603   4.405   3.120 -0.7808 -0.1321 -0.6654
  362THF     H4 7047   3.402   4.183   3.026 -0.5744 -0.5651  0.2365
  362THF     H5 7048   3.509   4.146   3.179  1.7299 -0.1910 -0.7447
  362THF     H6 7049   3.591   4.482   3.044  1.2330 -1.8570 -2.8912
  362THF     H7 7050   3.623   4.434   3.223 -1.2909 -2.3005  0.0951
  362THF     C8 7051   3.704   4.310   3.068 -0.5599 -0.0347 -0.0661
  362THF     C9 7052   3.616   4.210   3.002  0.4771  0.0694 -0.0094
  362THF    H10 7053   3.765   4.273   3.150 -0.5611 -1.0484 -0.5057
  362THF    H11 7054   3.777   4.363   3.006 -1.3683  1.4423  0.1937
  362THF    H12 7055   3.589   4.246   2.903  1.3944  2.0851  0.4157
  362THF    H13 7056   3.659   4.111   2.993 -0.3602 -0.6405  2.7319
  363THF     O1 7057   1.403   1.076   3.910 -0.0468 -0.6144  0.4169
  363THF     C2 7058   1.499   1.121   3.814 -0.4273 -0.1451 -0.6131
  363THF     C3 7059   1.474   0.993   3.992  0.2583  0.2179 -0.2968
  363THF     H4 7060   1.547   1.217   3.833  0.3157 -0.3870 -1.1851
  363THF     H5 7061   1.448   1.132   3.718 -1.2219  0.5019 -0.1255
  363THF     H6 7062   1.546   1.048   4.051 -0.0670 -0.2422  0.5373
  363THF     H7 7063   1.411   0.939   4.062  1.2676 -0.8981 -0.2126
  363THF     C8 7064   1.551   0.903   3.907  0.0621  0.3029  0.1657
  363THF     C9 7065   1.600   1.005   3.801 -0.0288 -1.0637  0.2285
  363THF    H10 7066   1.502   0.814   3.867  1.8921  0.1532 -1.9063
  363THF    H11 7067   1.640   0.860   3.953  0.1852  0.6049  0.2117
  363THF    H12 7068   1.702   1.036   3.823 -0.1127 -1.1947  0.8252
  363THF    H13 7069   1.604   0.967   3.699  1.9516  1.1643 -0.6038
  364THF     O1 7070   1.594   2.860   5.381  0.1890 -0.3229  0.4622
  364THF     C2 7071   1.516   2.758   5.445  0.4115 -0.4962 -0.1647
  364THF     C3 7072   1.539   2.870   5.252  1.0012  0.3315 -0.2239
  364THF     H4 7073   1.537   2.755   5.552 -2.6521 -0.8449  0.5388
  364THF     H5 7074   1.541   2.662   5.400  1.2355  0.6433 -2.3105
  364THF     H6 7075   1.586   2.947   5.191  1.5228 -0.4184 -0.7970
  364THF     H7 7076   1.565   2.777   5.201 -0.5862 -0.0149 -0.4535
  364THF     C8 7077   1.387   2.878   5.274 -0.1630  0.5896 -0.4664
  364THF     C9 7078   1.374   2.807   5.409 -0.0210 -0.3844  0.4609
  364THF    H10 7079   1.325   2.826   5.201 -0.9995  1.0770 -0.1192
  364THF    H11 7080   1.353   2.981   5.282 -1.1504  0.2568 -0.2958
  364THF    H12 7081   1.346   2.878   5.486  0.7746 -0.3168  0.6981
  364THF    H13 7082   1.294   2.733   5.409 -3.1022  2.6470 -0.4380
  365THF     O1 7083   3.924   1.412   4.573 -0.0529 -0.7041  0.2852
  365THF     C2 7084   3.853   1.530   4.533 -0.0264  0.1019  0.0348
  365THF     C3 7085   4.008   1.442   4.681 -0.6519 -0.5483  0.3754
  365THF     H4 7086   3.755   1.528   4.581 -1.7814  0.2688 -3.2712
  365THF     H5 7087   3.842   1.518   4.425  1.4524 -0.1022 -0.1189
  365THF     H6 7088   3.940   1.439   4.766  0.3164  0.4004  1.2034
  365THF     H7 7089   4.079   1.360   4.687 -0.6538 -0.5167  0.8845
  365THF     C8 7090   4.055   1.592   4.647  0.5638  0.4451  0.4593
  365THF     C9 7091   3.941   1.650   4.566 -0.1754 -0.2022  0.0896
  365THF    H10 7092   4.147   1.592   4.589 -1.0585  0.4878 -2.2609
  365THF    H11 7093   4.070   1.646   4.741  0.0902  2.7688 -0.7325
  365THF    H12 7094   3.882   1.726   4.619 -0.2046 -0.2360  0.1058
  365THF    H13 7095   3.980   1.687   4.471  0.2307 -0.4960  0.1398
  366THF     O1 7096   0.168   4.466   0.453  0.0514  0.8095 -0.1819
  366THF     C2 7097   0.208   4.429   0.317 -0.7474 -0.4706  0.6128
  366THF     C3 7098   0.251   4.396   0.547  0.2859  0.6634  0.1952
  366THF     H4 7099   0.268   4.505   0.268 -2.2364 -0.0421 -0.6071
  366THF     H5 7100   0.114   4.410   0.266 -0.3363  1.0031 -0.7539
  366THF     H6 7101   0.345   4.442   0.574  0.5313  1.1601 -1.4296
  366THF     H7 7102   0.184   4.394   0.633 -0.2282  2.3837 -0.1342
  366THF     C8 7103   0.268   4.262   0.476 -0.0129 -0.1203  0.4080
  366THF     C9 7104   0.284   4.294   0.327  0.6361 -0.2934 -0.4084
  366THF    H10 7105   0.175   4.207   0.485  0.2082 -0.7009 -0.6975
  366THF    H11 7106   0.354   4.210   0.517  1.6310  1.5490 -0.7520
  366THF    H12 7107   0.391   4.305   0.306  0.5775  1.8607  0.2206
  366THF    H13 7108   0.237   4.215   0.268  0.9986 -2.1864  1.7188
  367THF     O1 7109   3.307   5.381   0.108 -0.4278  0.0529  0.3419
  367THF     C2 7110   3.253   5.414   0.230  0.0958 -0.3083 -0.0344
  367THF     C3 7111   3.422   5.465   0.082  0.0808  0.3554  0.5243
  367THF     H4 7112   3.314   5.367   0.308 -2.3835 -1.3739  1.3916
  367THF     H5 7113   3.151   5.380   0.245  0.6506 -0.7852  3.7523
  367THF     H6 7114   3.498   5.443   0.158  0.5047  2.9585  0.9295
  367THF     H7 7115   3.471   5.456  -0.015 -0.1831  0.9805  0.3338
  367THF     C8 7116   3.370   5.598   0.121  0.4239 -0.8763 -0.1763
  367THF     C9 7117   3.265   5.566   0.229 -0.3059 -0.7404  0.0047
  367THF    H10 7118   3.320   5.648   0.038  2.5200  0.3115 -0.8035
  367THF    H11 7119   3.445   5.664   0.164 -0.5305 -0.2876  0.6003
  367THF    H12 7120   3.284   5.619   0.323  2.7654 -2.6158  0.6122
  367THF    H13 7121   3.165   5.599   0.202 -0.3701  0.2621  1.3217
  368THF     O1 7122   2.729   1.492   3.150  0.4958 -0.4249  0.1764
  368THF     C2 7123   2.667   1.381   3.088 -0.1727 -0.1706 -0.3184
  368THF     C3 7124   2.685   1.611   3.082  0.5961  0.9265  0.4754
  368THF     H4 7125   2.667   1.285   3.140 -1.8104 -1.5773 -2.7117
  368THF     H5 7126   2.730   1.365   3.001  1.1547  2.6894  0.0017
  368THF     H6 7127   2.717   1.688   3.151 -0.1962  0.8903  0.8891
  368THF     H7 7128   2.733   1.609   2.984 -2.5809  1.7473 -1.2534
  368THF     C8 7129   2.531   1.574   3.070 -0.4728 -0.0629 -0.1883
  368THF     C9 7130   2.524   1.427   3.039 -0.1181  0.1360 -0.1206
  368THF    H10 7131   2.480   1.643   3.002 -2.7442  1.7604  3.0439
  368THF    H11 7132   2.480   1.592   3.165 -0.9300  0.8736 -0.5965
  368THF    H12 7133   2.451   1.372   3.098  1.2846 -0.5058  1.0700
  368THF    H13 7134   2.507   1.391   2.938  2.8946 -2.6238  0.1852
  369THF     O1 7135   3.167   3.346   3.684 -0.1155 -0.2578 -0.0695
  369THF     C2 7136   3.086   3.450   3.747  0.5202 -0.0772  0.6194
  369THF     C3 7137   3.296   3.411   3.658  0.0010 -0.3562  0.3280
  369THF     H4 7138   3.015   3.404   3.815  1.3660 -1.4590  0.6034
  369THF     H5 7139   3.022   3.487   3.667 -1.6028 -3.4220  0.5789
  369THF     H6 7140   3.369   3.353   3.715  0.6860  0.0233 -0.1544
  369THF     H7 7141   3.314   3.397   3.552  0.3572  1.2401  0.1436
  369THF     C8 7142   3.293   3.556   3.701 -0.3649 -0.8552  0.4373
  369THF     C9 7143   3.175   3.555   3.803  0.2469  0.1025  0.5867
  369THF    H10 7144   3.260   3.623   3.622 -1.0933  0.4221  1.7675
  369THF    H11 7145   3.386   3.595   3.741  0.6125 -1.9897 -0.6694
  369THF    H12 7146   3.214   3.511   3.895 -0.0733  0.5222  0.9250
  369THF    H13 7147   3.122   3.647   3.829 -1.3125 -1.2933  2.6074
  370THF     O1 7148   0.965   4.656   3.636 -0.2579  0.4269 -0.3041
  370THF     C2 7149   0.928   4.594   3.519  0.0714 -0.2263 -0.0466
  370THF     C3 7150   0.855   4.698   3.709 -0.1705  0.4876  0.3366
  370THF     H4 7151   1.012   4.533   3.486  1.2900  1.9510 -1.1661
  370THF     H5 7152   0.910   4.668   3.441  0.0483  1.4550  1.4973
  370THF     H6 7153   0.868   4.717   3.815  4.4102  1.2632 -0.1646
  370THF     H7 7154   0.824   4.792   3.662 -0.0191  0.1266 -0.5095
  370THF     C8 7155   0.752   4.581   3.682 -0.1663  0.2157  0.2177
  370THF     C9 7156   0.798   4.520   3.547  0.1726  0.0102  0.3688
  370THF    H10 7157   0.653   4.625   3.696  0.5370  1.2743  2.4947
  370THF    H11 7158   0.766   4.508   3.762 -1.3097  1.1178  1.2814
  370THF    H12 7159   0.827   4.416   3.561  0.0466  0.0383  0.8642
  370THF    H13 7160   0.726   4.532   3.466 -0.5441  0.7700  1.0995
  371THF     O1 7161   2.439   2.539   3.007 -1.0306  0.0006 -0.2140
  371THF     C2 7162   2.561   2.518   2.949 -0.2349  0.0414  0.1201
  371THF     C3 7163   2.404   2.425   3.082  0.3932 -0.7071 -0.1533
  371THF     H4 7164   2.631   2.601   2.959  1.0387 -0.7763 -1.5515
  371THF     H5 7165   2.542   2.496   2.844 -0.9490  1.4000 -0.0630
  371THF     H6 7166   2.337   2.442   3.166 -0.5624  0.1575 -1.0591
  371THF     H7 7167   2.348   2.355   3.020 -0.9223 -0.9467  1.2489
  371THF     C8 7168   2.537   2.383   3.138 -0.2695  0.1138 -0.2807
  371THF     C9 7169   2.630   2.404   3.022  0.0136  0.0009 -0.1791
  371THF    H10 7170   2.528   2.277   3.163 -0.6356  0.1960 -0.0637
  371THF    H11 7171   2.563   2.443   3.225 -1.9354  1.4977 -0.6857
  371THF    H12 7172   2.726   2.433   3.066 -0.7343  0.1675  1.4301
  371THF    H13 7173   2.641   2.311   2.967 -0.1920 -0.1416  0.0186
  372THF     O1 7174   4.237   4.828   2.818 -0.6776  0.2689  0.7160
  372THF     C2 7175   4.273   4.901   2.933  0.5877 -0.2638  0.3692
  372THF     C3 7176   4.138   4.889   2.745 -0.1546 -0.0049 -0.4472
  372THF     H4 7177   4.345   4.981   2.913  1.0204 -0.6901  0.2184
  372THF     H5 7178   4.319   4.842   3.012  1.3377 -0.2889 -0.0714
  372THF     H6 7179   4.180   4.959   2.673  0.0001  2.4788  1.8904
  372THF     H7 7180   4.081   4.810   2.695  1.3295 -1.7507  0.5130
  372THF     C8 7181   4.063   4.967   2.852 -0.1681  0.7460 -0.0749
  372THF     C9 7182   4.142   4.960   2.977  0.1012 -0.2334  0.2638
  372THF    H10 7183   3.963   4.933   2.880  0.3195 -0.8795 -0.2187
  372THF    H11 7184   4.050   5.069   2.813  0.2589  1.1822  0.8941
  372THF    H12 7185   4.144   5.058   3.025 -1.2307 -0.1178  0.1233
  372THF    H13 7186   4.096   4.893   3.050 -1.5024 -3.0040 -2.9741
  373THF     O1 7187   4.873   2.560   2.826  0.4691  0.0242  0.0971
  373THF     C2 7188   4.756   2.610   2.887  0.1632 -0.2464 -0.3800
  373THF     C3 7189   4.895   2.643   2.714 -0.2615  0.9084  0.0583
  373THF     H4 7190   4.789   2.675   2.968 -0.6390  0.2305 -0.4202
  373THF     H5 7191   4.698   2.526   2.926  0.8629 -0.0980  1.0502
  373THF     H6 7192   4.948   2.726   2.761 -1.6795  1.6444  0.3972
  373THF     H7 7193   4.981   2.613   2.654 -0.4961  1.5160 -0.5986
  373THF     C8 7194   4.771   2.671   2.646  0.2221 -0.1082 -0.0185
  373THF     C9 7195   4.685   2.699   2.772 -0.4269 -0.1029  0.9890
  373THF    H10 7196   4.730   2.585   2.594 -1.6207  0.9910 -0.4931
  373THF    H11 7197   4.769   2.758   2.580 -1.3369  0.1292  0.3008
  373THF    H12 7198   4.699   2.800   2.810  0.7680  0.0850  0.1049
  373THF    H13 7199   4.582   2.672   2.752 -0.3628 -0.3578  1.0005
  374THF     O1 7200   3.929   0.794   1.948 -0.3125  0.0576  0.4946
  374THF     C2 7201   4.024   0.828   1.849  0.1102  0.2313 -0.0014
  374THF     C3 7202   3.965   0.667   2.004  0.0202 -0.3173 -0.7411
  374THF     H4 7203   4.009   0.932   1.821 -0.4453 -0.5172 -2.7165
  374THF     H5 7204   3.999   0.768   1.761 -1.5410  1.2027 -0.2232
  374THF     H6 7205   3.940   0.675   2.110  1.3093  3.2240 -0.5660
  374THF     H7 7206   3.895   0.590   1.973  0.8227 -1.3846  0.0195
  374THF     C8 7207   4.111   0.648   1.978 -0.2470 -0.5984  1.0898
  374THF     C9 7208   4.146   0.782   1.926 -0.0023 -0.5854  0.6160
  374THF    H10 7209   4.128   0.584   1.891  0.0095  1.7527 -0.6957
  374THF    H11 7210   4.171   0.619   2.064  1.1840  2.0394  1.0775
  374THF    H12 7211   4.168   0.851   2.008  0.1072  2.1901 -1.6064
  374THF    H13 7212   4.236   0.780   1.866  1.0001 -1.1452  2.0710
  375THF     O1 7213   4.175   3.227   0.748 -0.5399  0.3134 -0.3153
  375THF     C2 7214   4.240   3.107   0.790 -0.0054  0.7747  0.2313
  375THF     C3 7215   4.036   3.214   0.772  0.2838  0.0311 -0.2727
  375THF     H4 7216   4.243   3.100   0.899  2.3707  0.7788  0.2100
  375THF     H5 7217   4.344   3.101   0.758  0.1577  2.3931  0.3584
  375THF     H6 7218   4.026   3.248   0.875  2.1481  0.9681 -0.3655
  375THF     H7 7219   3.973   3.274   0.706 -0.9721  0.0382  0.8905
  375THF     C8 7220   4.009   3.070   0.734 -0.0147  0.0840 -0.5993
  375THF     C9 7221   4.141   3.005   0.725 -0.3833 -0.3026 -0.1993
  375THF    H10 7222   3.950   3.053   0.644  0.8383  2.9668 -1.7939
  375THF    H11 7223   3.966   3.006   0.811 -1.8454  1.3688 -0.5011
  375THF    H12 7224   4.150   2.913   0.782 -0.6010  1.8175  3.5513
  375THF    H13 7225   4.165   2.994   0.619  0.9118 -0.3347  0.0720
  376THF     O1 7226   4.665   0.490   5.261 -0.1356  0.2042 -0.4076
  376THF     C2 7227   4.754   0.391   5.204  0.5366 -0.8267 -0.0717
  376THF     C3 7228   4.723   0.619   5.262 -0.4434  0.4255 -0.1232
  376THF     H4 7229   4.745   0.384   5.096  2.7383 -1.0380 -0.3062
  376THF     H5 7230   4.746   0.299   5.262 -0.2676 -0.4168  0.4862
  376THF     H6 7231   4.678   0.677   5.181 -0.3125 -0.6364 -0.9755
  376THF     H7 7232   4.698   0.653   5.363 -0.8693 -2.6485  0.9136
  376THF     C8 7233   4.867   0.600   5.250  0.0622 -0.2782  0.2140
  376THF     C9 7234   4.891   0.451   5.237  0.3287  0.3935 -0.4123
  376THF    H10 7235   4.919   0.635   5.339  2.9952  0.7730 -1.7975
  376THF    H11 7236   4.907   0.664   5.172 -1.9312  1.1592  0.2908
  376THF    H12 7237   4.962   0.429   5.158 -1.1785  0.9577 -1.9927
  376THF    H13 7238   4.933   0.408   5.328 -0.2888  1.3411  0.3553
  377THF     O1 7239   4.934   0.473   4.352 -0.0430  0.6911 -0.2676
  377THF     C2 7240   4.889   0.540   4.240 -0.1346  0.1391  0.5101
  377THF     C3 7241   4.884   0.334   4.337 -0.7292  0.6325  0.5322
  377THF     H4 7242   4.953   0.503   4.160  0.7240  3.1052 -0.2946
  377THF     H5 7243   4.897   0.648   4.252  0.3682  0.1185  0.3668
  377THF     H6 7244   4.956   0.273   4.283 -1.9910 -0.2125 -0.2666
  377THF     H7 7245   4.862   0.278   4.428  2.0618  0.2441  1.0395
  377THF     C8 7246   4.767   0.352   4.250  0.2842  0.2940 -0.3093
  377THF     C9 7247   4.748   0.497   4.228 -0.1757 -0.7825 -0.1578
  377THF    H10 7248   4.675   0.310   4.291  2.8593 -2.2418  3.5640
  377THF    H11 7249   4.781   0.294   4.160 -1.0602 -0.6942  0.0991
  377THF    H12 7250   4.697   0.521   4.135 -0.9291 -2.4662 -0.2118
  377THF    H13 7251   4.692   0.526   4.317  1.0888 -1.1207  0.7830
  378THF     O1 7252   2.340   2.186   2.285  0.3936  0.0274  0.2023
  378THF     C2 7253   2.289   2.280   2.372 -0.5606  0.5137 -0.3523
  378THF     C3 7254   2.322   2.054   2.334 -0.6882 -0.0557  0.2813
  378THF     H4 7255   2.182   2.290   2.355 -0.1853  0.6719 -3.0732
  378THF     H5 7256   2.326   2.383   2.367 -1.5680  0.9234  0.1834
  378THF     H6 7257   2.218   2.023   2.329 -0.8334  0.3802  0.5447
  378THF     H7 7258   2.384   1.982   2.281  0.9165 -2.0240  4.4115
  378THF     C8 7259   2.366   2.072   2.478  0.2305 -0.0885 -0.9222
  378THF     C9 7260   2.317   2.212   2.510 -0.4012  0.3929  0.2082
  378THF    H10 7261   2.475   2.068   2.484  0.1993  0.5403  0.2345
  378THF    H11 7262   2.323   1.991   2.536  1.3390 -1.0701 -1.4248
  378THF    H12 7263   2.225   2.202   2.568 -0.0070 -0.5808  0.6925
  378THF    H13 7264   2.375   2.270   2.583 -0.7138  0.9611  0.0057
  379THF     O1 7265   4.525   0.533   1.560 -0.6326  0.0110 -0.3846
  379THF     C2 7266   4.485   0.398   1.534 -0.1662 -0.0461  0.6547
  379THF     C3 7267   4.568   0.545   1.692 -0.7006  0.2911 -0.6810
  379THF     H4 7268   4.576   0.350   1.500 -0.0523  0.2532  0.5362
  379THF     H5 7269   4.407   0.390   1.457 -0.1513 -0.8929  0.7117
  379THF     H6 7270   4.669   0.505   1.702 -1.7632 -2.5205 -0.2100
  379THF     H7 7271   4.564   0.645   1.736 -0.1748  0.5419 -1.1997
  379THF     C8 7272   4.479   0.450   1.769 -0.7763 -0.1671  0.6050
  379THF     C9 7273   4.449   0.339   1.668  0.0341 -0.4261 -0.1852
  379THF    H10 7274   4.390   0.509   1.791 -1.0142  0.1976 -1.1322
  379THF    H11 7275   4.519   0.399   1.856 -2.0377 -0.9921  0.7184
  379THF    H12 7276   4.520   0.258   1.685  0.6164  0.0849 -0.1466
  379THF    H13 7277   4.359   0.279   1.682 -0.0998 -0.1645  0.1093
  380THF     O1 7278   4.233   2.187   1.592 -0.4161  0.1664  0.7948
  380THF     C2 7279   4.110   2.225   1.529 -0.0127 -0.0018  0.6307
  380THF     C3 7280   4.262   2.280   1.690 -0.0785 -0.1402 -0.8471
  380THF     H4 7281   4.034   2.148   1.542  0.6208 -0.8874 -0.6560
  380THF     H5 7282   4.108   2.245   1.421 -2.1550 -1.4387  0.3433
  380THF     H6 7283   4.286   2.237   1.787 -0.7041  2.3892  0.5217
  380THF     H7 7284   4.355   2.331   1.664  0.6297 -0.6269  0.6075
  380THF     C8 7285   4.126   2.354   1.714 -0.3716  0.0659 -0.0927
  380THF     C9 7286   4.061   2.359   1.581 -0.0711  0.4402 -0.2292
  380THF    H10 7287   4.156   2.452   1.751  0.6808 -0.6910  1.1361
  380THF    H11 7288   4.065   2.302   1.788 -2.2495  2.1082 -0.0976
  380THF    H12 7289   3.952   2.359   1.591  0.0816  0.8911  2.0062
  380THF    H13 7290   4.092   2.444   1.521  3.3730 -1.9709 -2.1957
  381THF     O1 7291   5.328   2.942   1.486  0.3722  0.2501 -0.5816
  381THF     C2 7292   5.398   3.028   1.393 -0.1238 -0.0980  0.1604
  381THF     C3 7293   5.383   2.816   1.462  0.1247  0.0896  0.3643
  381THF     H4 7294   5.366   3.130   1.413 -1.8570 -0.5513 -0.1696
  381THF     H5 7295   5.382   3.010   1.287 -0.1416  2.3464 -0.3111
  381THF     H6 7296   5.346   2.746   1.537  0.1135  1.4996  1.7332
  381THF     H7 7297   5.359   2.771   1.366  1.9896  2.0472 -1.1355
  381THF     C8 7298   5.531   2.830   1.455  0.2080 -0.0544  0.5547
  381THF     C9 7299   5.538   2.986   1.438 -0.3027 -0.4489  0.1745
  381THF    H10 7300   5.570   2.787   1.362 -1.1672  1.5692 -0.8466
  381THF    H11 7301   5.588   2.809   1.545 -0.0393 -1.3730  0.4337
  381THF    H12 7302   5.561   3.024   1.537  0.4980  1.9591 -0.8612
  381THF    H13 7303   5.613   3.037   1.377 -1.2074 -0.0263 -0.5995
  382THF     O1 7304   1.007   4.897   1.192  0.3571 -0.6045  0.1629
  382THF     C2 7305   1.116   4.900   1.284 -0.4111 -0.0548  0.0488
  382THF     C3 7306   1.049   4.821   1.083 -0.2511  0.0005  0.3726
  382THF     H4 7307   1.086   4.935   1.383  0.5745 -0.7204  0.6103
  382THF     H5 7308   1.188   4.975   1.250  3.5800 -2.9499  1.2350
  382THF     H6 7309   0.962   4.787   1.026 -0.5903  0.5595  0.5396
  382THF     H7 7310   1.124   4.863   1.015  0.6029  0.0947  1.3535
  382THF     C8 7311   1.096   4.692   1.163  0.5291 -0.4258  0.2053
  382THF     C9 7312   1.173   4.753   1.280  0.5758 -0.6925 -0.5745
  382THF    H10 7313   1.151   4.621   1.101 -0.5082 -0.1981 -1.0271
  382THF    H11 7314   1.004   4.649   1.202  0.9689 -1.0107  0.6181
  382THF    H12 7315   1.158   4.698   1.372  0.1301  0.2356 -0.0867
  382THF    H13 7316   1.279   4.773   1.261  0.2339  0.3658 -1.4362
  383THF     O1 7317   1.455   0.706   1.758 -0.0894  0.8059 -0.2463
  383THF     C2 7318   1.540   0.664   1.656  0.6877  0.1764 -0.0194
  383THF     C3 7319   1.504   0.652   1.882 -0.0863  0.0199 -0.1830
  383THF     H4 7320   1.557   0.738   1.577  1.7911 -1.2500 -1.1873
  383THF     H5 7321   1.497   0.580   1.601  1.1635  0.7028 -1.2550
  383THF     H6 7322   1.542   0.727   1.951 -1.2385  0.3165  0.1327
  383THF     H7 7323   1.419   0.605   1.931  1.1232 -1.5715  0.4827
  383THF     C8 7324   1.611   0.549   1.843 -0.8098 -0.4212  0.4239
  383THF     C9 7325   1.668   0.622   1.728 -0.4803  0.0160  0.0789
  383THF    H10 7326   1.565   0.458   1.804 -1.7403  0.6919 -1.1595
  383THF    H11 7327   1.682   0.532   1.924 -1.3446 -1.6555  0.6651
  383THF    H12 7328   1.727   0.710   1.755  0.4735 -0.5307 -0.1716
  383THF    H13 7329   1.734   0.564   1.664  3.0698  3.4857  0.1908
  384THF     O1 7330   4.634   0.124   0.137  0.8438 -0.3124  0.4915
  384THF     C2 7331   4.589   0.257   0.166 -0.3926 -0.3961 -0.2901
  384THF     C3 7332   4.535   0.061   0.064 -0.2958 -0.8360 -0.1327
  384THF     H4 7333   4.674   0.323   0.186  0.1784 -1.0812 -0.4147
  384THF     H5 7334   4.525   0.252   0.254 -1.7425 -0.9955 -1.2722
  384THF     H6 7335   4.584  -0.024   0.016  2.0477 -0.6271  1.6994
  384THF     H7 7336   4.454   0.022   0.126 -1.6821 -0.8082 -1.8471
  384THF     C8 7337   4.507   0.164  -0.044  0.2609 -0.2852  0.4591
  384THF     C9 7338   4.511   0.293   0.037  0.6963  0.1486  0.7886
  384THF    H10 7339   4.419   0.139  -0.102 -0.6869  2.1502  0.7221
  384THF    H11 7340   4.590   0.169  -0.114 -0.4591  1.2990 -0.3240
  384THF    H12 7341   4.551   0.374  -0.024 -1.1686 -0.4288 -1.3262
  384THF    H13 7342   4.409   0.312   0.068  0.0211  0.9495 -1.6961
  385THF     O1 7343   0.393   3.767   3.299  0.2329  0.3874 -0.1431
  385THF     C2 7344   0.533   3.790   3.335  0.2343  0.0782  0.2962
  385THF     C3 7345   0.339   3.644   3.362 -0.4848 -0.2879 -0.2984
  385THF     H4 7346   0.543   3.839   3.432 -2.3232  1.1916  0.0665
  385THF     H5 7347   0.584   3.862   3.271  0.4788 -0.9534 -0.7195
  385THF     H6 7348   0.284   3.669   3.453  0.7218  2.4509 -0.2368
  385THF     H7 7349   0.274   3.603   3.284 -1.4089 -0.0673  0.3365
  385THF     C8 7350   0.461   3.564   3.390  0.7521  0.4315  0.0718
  385THF     C9 7351   0.583   3.641   3.342  0.3913 -0.6304  0.6664
  385THF    H10 7352   0.454   3.467   3.340 -1.3046  0.5050  0.1176
  385THF    H11 7353   0.457   3.535   3.495 -1.6224  0.7108  0.1149
  385THF    H12 7354   0.666   3.608   3.404 -1.7791 -2.3948  2.8761
  385THF    H13 7355   0.597   3.608   3.239 -2.1744  2.8279 -1.0034
  386THF     O1 7356   4.370   3.829   2.339 -0.3232 -0.3502 -0.7667
  386THF     C2 7357   4.243   3.861   2.380  0.4350  0.3502 -0.0777
  386THF     C3 7358   4.433   3.947   2.297 -0.6911 -0.4591 -0.2119
  386THF     H4 7359   4.199   3.793   2.453  1.6762  1.2031  1.5530
  386THF     H5 7360   4.175   3.849   2.296 -0.0199 -2.6318  0.5979
  386THF     H6 7361   4.539   3.929   2.313 -0.8705 -0.7770  0.7462
  386THF     H7 7362   4.435   3.952   2.188  2.0237  1.8003 -0.1550
  386THF     C8 7363   4.369   4.065   2.349 -0.7289  0.0023  0.3104
  386THF     C9 7364   4.250   4.007   2.419  0.5518  0.0789 -0.6804
  386THF    H10 7365   4.340   4.121   2.260 -0.4842 -0.3319  0.0152
  386THF    H11 7366   4.438   4.124   2.408 -1.1197  0.1938  0.5784
  386THF    H12 7367   4.265   4.011   2.527 -3.1108 -1.4511  0.0178
  386THF    H13 7368   4.152   4.050   2.398  0.8026  0.1114 -1.8248
  387THF     O1 7369   1.903   0.512   1.241  0.2336 -0.4462  0.2280
  387THF     C2 7370   1.915   0.374   1.221  0.0354  0.8694  0.5180
  387THF     C3 7371   1.831   0.534   1.358 -0.0310  0.1745 -0.1081
  387THF     H4 7372   2.002   0.337   1.275 -0.6183 -0.5300  0.6542
  387THF     H5 7373   1.927   0.368   1.113 -2.3213 -0.1486  0.2434
  387THF     H6 7374   1.888   0.538   1.451  0.0143 -0.3513 -0.1138
  387THF     H7 7375   1.789   0.635   1.354  1.3504  0.9690  2.7527
  387THF     C8 7376   1.719   0.434   1.354 -0.7635 -0.0268  0.5177
  387THF     C9 7377   1.787   0.319   1.276  0.7243  0.1084 -0.3320
  387THF    H10 7378   1.636   0.476   1.298 -0.0753 -1.4929 -1.7380
  387THF    H11 7379   1.682   0.401   1.452  0.2518  1.4751  1.4578
  387THF    H12 7380   1.808   0.237   1.346  0.7112  1.7655  1.6917
  387THF    H13 7381   1.718   0.287   1.198 -0.3633 -2.0604  1.4044
  388THF     O1 7382   3.847   3.040   0.108 -0.0694 -0.4418  0.0869
  388THF     C2 7383   3.826   3.134   0.208 -0.0068  0.5213 -0.3433
  388THF     C3 7384   3.970   2.979   0.130 -0.3201  0.2664 -0.1262
  388THF     H4 7385   3.718   3.142   0.219 -0.2516 -1.4686 -0.9102
  388THF     H5 7386   3.866   3.229   0.171  1.1498  0.3142  0.3266
  388THF     H6 7387   3.970   2.884   0.078 -0.5613  0.6071 -0.7518
  388THF     H7 7388   4.051   3.037   0.087  1.6890 -2.0653  0.2562
  388THF     C8 7389   3.998   2.973   0.281  0.4091  0.5028  0.4547
  388THF     C9 7390   3.911   3.090   0.336  0.8051  0.4667  0.4022
  388THF    H10 7391   4.106   2.977   0.296  0.4226 -0.0633  0.5184
  388THF    H11 7392   3.972   2.875   0.321  0.1606  0.5458  0.3960
  388THF    H12 7393   3.852   3.044   0.415  1.7819 -0.8361  0.4069
  388THF    H13 7394   3.967   3.163   0.394 -0.4788  1.1435  0.8251
  389THF     O1 7395   1.223   4.085   4.401 -0.5950 -0.1304 -0.1475
  389THF     C2 7396   1.275   4.025   4.516  0.4555 -0.0325  0.3161
  389THF     C3 7397   1.228   4.000   4.287  0.1585  0.5726  0.1958
  389THF     H4 7398   1.192   3.993   4.579 -0.4082 -0.1015 -0.8237
  389THF     H5 7399   1.335   4.097   4.572  0.7414 -0.6708  0.8499
  389THF     H6 7400   1.126   3.994   4.250  0.3177  0.0553 -0.1774
  389THF     H7 7401   1.299   4.030   4.209  0.4073 -0.8129 -0.1332
  389THF     C8 7402   1.265   3.860   4.345 -0.3233 -0.0363 -0.2501
  389THF     C9 7403   1.346   3.904   4.469  0.2825 -0.2199  0.1008
  389THF    H10 7404   1.322   3.803   4.271  2.3501  2.6921 -0.4646
  389THF    H11 7405   1.182   3.798   4.379  0.7620 -0.7891  1.1433
  389THF    H12 7406   1.364   3.824   4.541  0.1616 -0.1979  0.1545
  389THF    H13 7407   1.448   3.932   4.443 -0.0697  1.6776  0.5860
  390THF     O1 7408   1.527   3.547   0.072 -0.0711 -0.7873  0.6257
  390THF     C2 7409   1.428   3.520  -0.021 -0.7259  0.3920  0.1261
  390THF     C3 7410   1.587   3.673   0.050 -0.0815  0.3240 -0.0636
  390THF     H4 7411   1.328   3.544   0.016 -0.8707  0.0415 -0.0228
  390THF     H5 7412   1.430   3.412  -0.037 -1.4419  0.3465  0.2781
  390THF     H6 7413   1.527   3.753   0.095 -1.0117 -0.6437  0.4583
  390THF     H7 7414   1.687   3.672   0.092 -0.3350 -0.7169  0.5463
  390THF     C8 7415   1.588   3.692  -0.105 -0.2173 -0.3085 -0.2714
  390THF     C9 7416   1.464   3.604  -0.144 -0.0514  0.1218  0.1016
  390THF    H10 7417   1.680   3.649  -0.144  0.8624  2.4073 -0.9740
  390THF    H11 7418   1.586   3.801  -0.115  0.4534 -0.0711  1.6408
  390THF    H12 7419   1.381   3.665  -0.179 -0.6703 -2.1924 -2.8868
  390THF    H13 7420   1.491   3.543  -0.230  1.3835  3.1805 -1.7901
  391THF     O1 7421   2.591   5.453   4.936  0.0676 -0.4061  0.3846
  391THF     C2 7422   2.533   5.493   5.056  0.1062  0.3805  0.1375
  391THF     C3 7423   2.492   5.411   4.842 -0.1013  0.1486  0.8121
  391THF     H4 7424   2.513   5.600   5.048  1.2512  0.4737 -2.8952
  391THF     H5 7425   2.608   5.474   5.132  1.0540 -0.6210 -1.0075
  391THF     H6 7426   2.445   5.501   4.801  2.4442  1.0238 -0.3770
  391THF     H7 7427   2.523   5.354   4.754  0.6003  0.0732  1.1000
  391THF     C8 7428   2.403   5.330   4.929 -0.0620  0.2520  0.5436
  391THF     C9 7429   2.406   5.397   5.066 -0.1195 -0.1914 -0.6719
  391THF    H10 7430   2.440   5.227   4.929  0.5819  0.4634 -0.6416
  391THF    H11 7431   2.299   5.318   4.897  0.6765 -0.8432 -1.6414
  391THF    H12 7432   2.318   5.459   5.085  0.7962  1.5508 -1.8256
  391THF    H13 7433   2.427   5.317   5.136 -1.0943 -0.5992 -0.8301
  392THF     O1 7434   3.320   4.883   4.999  0.3743  0.2936 -0.3918
  392THF     C2 7435   3.437   4.830   4.935  0.6161  0.1499  0.1513
  392THF     C3 7436   3.276   5.000   4.923 -0.4244 -0.3570  0.1005
  392THF     H4 7437   3.421   4.723   4.940 -1.4539  0.4244  0.5650
  392THF     H5 7438   3.523   4.859   4.996  1.5967  0.7748 -1.4683
  392THF     H6 7439   3.173   5.035   4.932 -0.7025 -1.2785  0.6166
  392THF     H7 7440   3.338   5.082   4.958  0.1867 -0.7295 -0.0925
  392THF     C8 7441   3.307   4.954   4.783 -0.5488 -0.1886  0.7070
  392THF     C9 7442   3.434   4.874   4.790  0.1781  0.2365  0.3066
  392THF    H10 7443   3.313   5.036   4.712 -1.4763 -0.5891  0.1528
  392THF    H11 7444   3.224   4.889   4.755 -1.6012  0.9673  1.0907
  392THF    H12 7445   3.439   4.801   4.710 -0.0415  0.7648 -0.2012
  392THF    H13 7446   3.527   4.928   4.773 -0.6882  1.2876 -1.3473
  393THF     O1 7447   5.443   2.457   2.283  0.1860 -0.2716 -0.0972
  393THF     C2 7448   5.569   2.482   2.220  0.2086  0.2661  1.0698
  393THF     C3 7449   5.422   2.555   2.390  0.5428 -0.1554  0.3518
  393THF     H4 7450   5.554   2.472   2.113  0.7551 -0.4989  1.0622
  393THF     H5 7451   5.640   2.404   2.248 -0.0179 -0.2290  0.2855
  393THF     H6 7452   5.315   2.568   2.406 -0.0233 -3.2998 -0.1288
  393THF     H7 7453   5.475   2.526   2.480  1.9334 -0.4332 -0.5235
  393THF     C8 7454   5.490   2.677   2.334 -0.3004  0.0792 -0.0971
  393THF     C9 7455   5.607   2.629   2.246 -0.7303  0.1024 -0.5580
  393THF    H10 7456   5.526   2.748   2.408  0.0964  0.3726 -0.5629
  393THF    H11 7457   5.417   2.731   2.273  0.6455  3.5830  1.5943
  393THF    H12 7458   5.616   2.686   2.154 -0.6227 -0.1102 -0.6809
  393THF    H13 7459   5.694   2.625   2.312 -1.9167 -0.0196  1.0899
  394THF     O1 7460   4.638   0.735   0.328 -0.2172  0.5281 -0.3190
  394THF     C2 7461   4.628   0.675   0.463 -0.3144  0.7979  0.1035
  394THF     C3 7462   4.504   0.748   0.282 -0.1308  0.7728 -0.2371
  394THF     H4 7463   4.588   0.744   0.537 -0.2762 -0.4528  1.3439
  394THF     H5 7464   4.726   0.640   0.497 -0.9436 -1.2881 -0.1082
  394THF     H6 7465   4.446   0.827   0.329 -1.4825 -1.4375  2.0133
  394THF     H7 7466   4.494   0.758   0.173  0.1784  1.2347 -0.2220
  394THF     C8 7467   4.447   0.610   0.310  0.2219  0.1742 -0.3992
  394THF     C9 7468   4.524   0.566   0.435 -0.2175 -0.5152 -0.1266
  394THF    H10 7469   4.462   0.539   0.229  3.5442  1.3647 -0.9680
  394THF    H11 7470   4.339   0.620   0.326  0.5345 -0.4034  2.9513
  394THF    H12 7471   4.462   0.533   0.519 -2.0882  2.8806  0.0016
  394THF    H13 7472   4.585   0.479   0.408  0.7204  0.0025  0.2576
  395THF     O1 7473   3.493   5.009   3.861  0.1035 -0.2437  0.6319
  395THF     C2 7474   3.629   5.019   3.891  0.0846  0.7495  0.5650
  395THF     C3 7475   3.428   4.955   3.975 -0.5113  0.5410  0.0638
  395THF     H4 7476   3.672   5.108   3.844  0.4427  1.0171  1.3810
  395THF     H5 7477   3.682   4.933   3.850 -1.2232  0.1316  0.1143
  395THF     H6 7478   3.343   5.018   4.000 -0.0456  1.3011 -0.2317
  395THF     H7 7479   3.387   4.855   3.957  0.9006 -0.2089  0.8195
  395THF     C8 7480   3.523   4.959   4.094  0.3428  0.2304 -0.8911
  395THF     C9 7481   3.650   5.025   4.042  0.2176 -0.0256 -0.1621
  395THF    H10 7482   3.541   4.863   4.144  0.5148  1.5595  1.7889
  395THF    H11 7483   3.479   5.016   4.175 -1.7871 -2.5035  0.0402
  395THF    H12 7484   3.654   5.131   4.066  1.7303  0.6285 -2.8746
  395THF    H13 7485   3.739   4.972   4.077  1.0507  1.1873 -0.4050
  396THF     O1 7486   4.755   3.471   1.852 -0.1877  0.0185 -0.3602
  396THF     C2 7487   4.705   3.512   1.976  0.1178 -0.6244 -0.6437
  396THF     C3 7488   4.669   3.516   1.754  1.1727  1.1225  0.6208
  396THF     H4 7489   4.728   3.619   1.981  0.8813 -0.8278  0.4853
  396THF     H5 7490   4.764   3.473   2.059  0.8225  0.4989 -0.5939
  396THF     H6 7491   4.655   3.624   1.742  0.0073  0.7342 -2.1378
  396THF     H7 7492   4.703   3.474   1.660  0.0355 -0.0268  0.7013
  396THF     C8 7493   4.544   3.458   1.817 -0.2435  0.0599 -0.5326
  396THF     C9 7494   4.554   3.483   1.961 -0.4006 -0.0568  0.1297
  396THF    H10 7495   4.522   3.352   1.800  0.0983  0.0007 -0.6008
  396THF    H11 7496   4.456   3.508   1.776 -0.3530 -0.2344 -0.6576
  396THF    H12 7497   4.494   3.569   1.992  0.9195  1.2595 -0.7979
  396THF    H13 7498   4.531   3.400   2.027 -0.6403  0.4434  0.6847
  397THF     O1 7499   4.419   1.809   0.780 -0.0528  0.2533  0.7561
  397THF     C2 7500   4.378   1.945   0.752 -0.3887  0.3198  0.1215
  397THF     C3 7501   4.354   1.742   0.669 -0.0253 -0.0518 -0.1342
  397THF     H4 7502   4.434   1.975   0.663 -0.2104 -0.8298 -0.1780
  397THF     H5 7503   4.417   1.997   0.840  1.8040 -1.8832  0.5793
  397THF     H6 7504   4.401   1.769   0.575  0.1187  1.3795  0.3327
  397THF     H7 7505   4.353   1.634   0.689  1.9151  0.1482  1.4152
  397THF     C8 7506   4.212   1.794   0.671 -0.3037  0.7321 -0.0194
  397THF     C9 7507   4.227   1.929   0.739  0.4848  0.6292  0.4394
  397THF    H10 7508   4.152   1.725   0.730 -0.5795 -0.5487 -1.7312
  397THF    H11 7509   4.176   1.806   0.569  0.9841 -2.7105 -1.0191
  397THF    H12 7510   4.188   2.011   0.680 -0.4251 -0.4698 -0.5284
  397THF    H13 7511   4.173   1.940   0.833  1.2562 -0.0947  0.9799
  398THF     O1 7512   3.947   1.817   2.870  0.0172 -0.0957 -0.1547
  398THF     C2 7513   3.861   1.735   2.952  0.6895  0.5916  0.2728
  398THF     C3 7514   3.951   1.949   2.933 -0.3463 -0.1593 -0.2579
  398THF     H4 7515   3.873   1.630   2.926 -1.4734  0.4237 -0.2562
  398THF     H5 7516   3.757   1.764   2.939  0.5187  1.0808  2.4091
  398THF     H6 7517   4.020   2.020   2.888 -1.9022  2.3889  1.1164
  398THF     H7 7518   3.851   1.991   2.927 -1.8582 -3.3782  0.2254
  398THF     C8 7519   3.978   1.902   3.083  0.1816  0.0766 -0.1929
  398THF     C9 7520   3.906   1.768   3.098  0.3685  0.4469  0.0900
  398THF    H10 7521   3.939   1.979   3.150  2.0695  1.6479 -0.8125
  398THF    H11 7522   4.083   1.896   3.110 -0.0911  1.8889  1.5520
  398THF    H12 7523   3.989   1.705   3.129  1.1672  0.0424 -2.6244
  398THF    H13 7524   3.825   1.759   3.170 -0.6412  0.1842 -1.0539
  399THF     O1 7525   3.971   5.199   3.924 -0.3654 -0.1301  0.6553
  399THF     C2 7526   3.970   5.112   3.805  0.0319  0.3188 -0.2031
  399THF     C3 7527   4.044   5.317   3.881  0.5862 -0.4823 -0.1599
  399THF     H4 7528   3.892   5.038   3.823  0.6010 -0.0905  0.6509
  399THF     H5 7529   4.058   5.048   3.799 -0.0210  0.2293 -0.0105
  399THF     H6 7530   4.001   5.402   3.933  0.8946 -0.5984  0.2923
  399THF     H7 7531   4.146   5.318   3.919  0.5137 -0.3845  0.0320
  399THF     C8 7532   4.038   5.328   3.733  0.6780 -0.7354 -0.1447
  399THF     C9 7533   3.953   5.211   3.684  0.1603  0.0077  0.0731
  399THF    H10 7534   4.139   5.336   3.691 -0.0131  3.0461 -1.4880
  399THF    H11 7535   4.001   5.424   3.697 -1.8709 -1.8442 -0.6191
  399THF    H12 7536   3.853   5.250   3.667 -0.1896  0.5122  2.7563
  399THF    H13 7537   3.992   5.163   3.595 -2.1734 -1.1999 -0.3717
  400THF     O1 7538   2.743   4.959   0.534  0.4995 -0.5318 -0.0806
  400THF     C2 7539   2.683   4.838   0.493 -0.3519  0.4849 -0.8111
  400THF     C3 7540   2.639   5.055   0.544 -0.1676 -0.4456 -0.0223
  400THF     H4 7541   2.659   4.783   0.584 -0.5502 -1.3272 -1.9110
  400THF     H5 7542   2.752   4.774   0.438 -0.3200 -0.4456  0.2670
  400THF     H6 7543   2.619   5.074   0.649  0.3759 -1.1589  0.2188
  400THF     H7 7544   2.671   5.151   0.502  0.5249 -1.1010 -1.0593
  400THF     C8 7545   2.512   5.010   0.476 -1.0319 -0.2451 -0.5323
  400THF     C9 7546   2.555   4.880   0.415  0.0267 -0.3787  0.4270
  400THF    H10 7547   2.491   5.085   0.400 -1.3883  2.5554  2.1347
  400THF    H11 7548   2.421   4.991   0.534 -0.1796  2.6614  2.0496
  400THF    H12 7549   2.476   4.805   0.420 -0.0892 -0.3821 -0.8889
  400THF    H13 7550   2.588   4.893   0.312 -2.3254 -0.9337 -0.4756
  401THF     O1 7551   2.560   0.519   2.188 -0.1030 -0.2159  0.0327
  401THF     C2 7552   2.664   0.615   2.197  0.0673 -0.1025 -0.0131
  401THF     C3 7553   2.463   0.578   2.276  0.4463  0.1568  0.2415
  401THF     H4 7554   2.748   0.590   2.131  1.0007  1.5958  0.4682
  401THF     H5 7555   2.705   0.616   2.298 -0.0732  1.1219  0.0531
  401THF     H6 7556   2.373   0.518   2.262  0.7890 -0.1891 -0.4959
  401THF     H7 7557   2.503   0.563   2.376  0.2892  0.0053  0.2815
  401THF     C8 7558   2.459   0.723   2.222  0.4076  0.0645  1.0861
  401THF     C9 7559   2.600   0.746   2.159  0.6472 -0.3275 -0.2446
  401THF    H10 7560   2.443   0.793   2.304  0.2250 -0.9764  1.9561
  401THF    H11 7561   2.384   0.744   2.145  0.7039  1.4365  1.1421
  401THF    H12 7562   2.587   0.747   2.051 -3.4867 -2.7492  0.0119
  401THF    H13 7563   2.653   0.833   2.199 -1.7815 -0.4319  3.7559
  402THF     O1 7564   4.893   4.815   3.593  0.1696  0.0119  0.1074
  402THF     C2 7565   4.783   4.820   3.502  0.0474  0.3095 -0.1844
  402THF     C3 7566   4.849   4.777   3.721  0.2991  0.3801 -0.4478
  402THF     H4 7567   4.757   4.717   3.477 -1.2054  0.4017  0.6485
  402THF     H5 7568   4.803   4.872   3.408 -1.3321  1.4214  0.0986
  402THF     H6 7569   4.868   4.672   3.741  1.2324  0.7829  0.9531
  402THF     H7 7570   4.915   4.825   3.794  1.4123 -0.0184 -1.1721
  402THF     C8 7571   4.704   4.820   3.722  0.2043 -0.4209 -0.2228
  402THF     C9 7572   4.674   4.880   3.578  0.1473 -0.3793  0.2576
  402THF    H10 7573   4.675   4.889   3.802  1.4637  0.7711 -0.7546
  402THF    H11 7574   4.645   4.730   3.741  0.7348 -0.3018  2.5563
  402THF    H12 7575   4.575   4.842   3.554  0.2854 -1.7139  1.6060
  402THF    H13 7576   4.688   4.988   3.577 -0.8195 -0.2403 -1.2571
  403THF     O1 7577   3.941   4.092   2.021  0.2566 -0.1442 -0.5350
  403THF     C2 7578   3.961   4.125   2.156  0.4534  0.2101 -0.2506
  403THF     C3 7579   3.801   4.056   2.007 -0.0160 -0.1479 -0.1195
  403THF     H4 7580   3.925   4.227   2.172 -1.5719 -0.3445 -1.0236
  403THF     H5 7581   4.066   4.131   2.188  0.2198  1.5206  0.3641
  403THF     H6 7582   3.745   4.142   1.970 -1.4233 -1.2758 -0.6693
  403THF     H7 7583   3.780   3.983   1.929 -1.5887  0.8502 -0.6759
  403THF     C8 7584   3.764   3.996   2.133  0.3335  0.3066 -0.3728
  403THF     C9 7585   3.887   4.010   2.220 -0.8395 -0.8310  0.6706
  403THF    H10 7586   3.730   3.892   2.128 -0.3097  0.4429  0.7573
  403THF    H11 7587   3.682   4.052   2.179  2.0812  1.0201  2.0357
  403THF    H12 7588   3.865   4.033   2.323 -0.5452  0.7235  0.4057
  403THF    H13 7589   3.943   3.916   2.220 -0.2387 -0.5135 -0.8231
  404THF     O1 7590   0.917   5.181   3.405 -0.1520 -0.2835  0.1021
  404THF     C2 7591   0.837   5.064   3.385 -0.2237 -0.0175 -0.2216
  404THF     C3 7592   1.035   5.169   3.327  0.2531 -0.3844  0.1302
  404THF     H4 7593   0.789   5.078   3.288  1.3967  0.3156 -1.0216
  404THF     H5 7594   0.767   5.068   3.468 -0.1539  0.5977 -0.1898
  404THF     H6 7595   1.024   5.225   3.234  1.1763  2.1818  1.4825
  404THF     H7 7596   1.126   5.202   3.378  0.2735  0.6632 -0.5645
  404THF     C8 7597   1.065   5.019   3.314 -0.4095 -0.5602 -0.0530
  404THF     C9 7598   0.942   4.952   3.371  0.1498  0.2138  0.4697
  404THF    H10 7599   1.160   4.988   3.357 -1.7175 -2.1138  1.9158
  404THF    H11 7600   1.069   4.999   3.207 -0.8818  1.5586 -0.5073
  404THF    H12 7601   0.905   4.870   3.310  0.4993  1.4546 -1.4892
  404THF    H13 7602   0.969   4.907   3.467  2.9689  0.8713  0.0717
  405THF     O1 7603   0.151   4.804   1.433 -0.0962 -0.0571  0.0856
  405THF     C2 7604   0.217   4.895   1.518 -0.4896 -0.6009  0.4452
  405THF     C3 7605   0.171   4.833   1.291 -0.0083  0.0909 -0.1879
  405THF     H4 7606   0.236   4.868   1.622  2.2086  2.7364  0.9730
  405THF     H5 7607   0.173   4.993   1.532  0.5667 -0.0666  0.1251
  405THF     H6 7608   0.193   4.743   1.234 -1.4513 -0.2465 -0.2495
  405THF     H7 7609   0.087   4.885   1.245  1.3530  0.8406 -1.9466
  405THF     C8 7610   0.297   4.913   1.294 -0.2530 -0.3745  0.5230
  405THF     C9 7611   0.347   4.916   1.434  0.0994  0.0001  0.4542
  405THF    H10 7612   0.276   5.016   1.262  1.1114 -0.0045  0.7701
  405THF    H11 7613   0.369   4.894   1.214 -0.1670  0.3921  0.4066
  405THF    H12 7614   0.411   4.829   1.450  1.3103  0.5071 -1.3793
  405THF    H13 7615   0.406   5.006   1.455  0.2794 -0.3712  1.6289
  406THF     O1 7616   5.178   5.387   2.759 -0.0978  0.8365  0.0063
  406THF     C2 7617   5.265   5.407   2.653 -0.1135  0.8649  0.2404
  406THF     C3 7618   5.231   5.283   2.843  0.2164  0.2756  0.3008
  406THF     H4 7619   5.263   5.507   2.609  2.3332  1.4883  1.3790
  406THF     H5 7620   5.242   5.335   2.575  2.2917  0.6892 -0.3977
  406THF     H6 7621   5.216   5.288   2.951 -1.2119 -0.0988  0.1446
  406THF     H7 7622   5.204   5.180   2.819  0.5440  0.0018  1.0730
  406THF     C8 7623   5.382   5.303   2.829 -0.1803 -0.5070 -0.5165
  406THF     C9 7624   5.399   5.399   2.720 -0.4174  0.5402  0.3258
  406THF    H10 7625   5.423   5.209   2.793  0.5761 -0.7218  0.8730
  406THF    H11 7626   5.447   5.321   2.914 -0.9549 -0.5736  0.1034
  406THF    H12 7627   5.442   5.493   2.757 -0.5622  1.5876 -2.0100
  406THF    H13 7628   5.475   5.361   2.652  1.3052 -0.1564  2.4930
  407THF     O1 7629   2.165   1.446   3.257  0.0391  0.4033  0.2584
  407THF     C2 7630   2.028   1.396   3.272 -0.4658  0.1053 -0.6733
  407THF     C3 7631   2.244   1.389   3.361  0.2646  0.5925 -0.2659
  407THF     H4 7632   1.963   1.399   3.184  0.7628  1.7309 -1.5626
  407THF     H5 7633   1.970   1.460   3.339 -0.3515  0.0263 -0.4977
  407THF     H6 7634   2.353   1.388   3.353  0.3226 -3.1645 -0.6151
  407THF     H7 7635   2.205   1.417   3.459 -1.9069 -1.0577 -0.5990
  407THF     C8 7636   2.201   1.247   3.346 -0.8530  0.5694  0.1083
  407THF     C9 7637   2.055   1.254   3.323 -0.3759  0.1509  0.1222
  407THF    H10 7638   2.227   1.181   3.429 -0.5732  0.0531 -0.3767
  407THF    H11 7639   2.241   1.198   3.257  0.0139  0.1006  0.7391
  407THF    H12 7640   2.033   1.180   3.247  0.6249 -0.5704  0.5058
  407THF    H13 7641   1.991   1.237   3.409  0.7572  0.0176  0.9726
  408THF     O1 7642   2.789   5.347   2.382 -0.3779  0.1618  0.4652
  408THF     C2 7643   2.712   5.237   2.324 -0.0455  0.2208  0.4243
  408THF     C3 7644   2.770   5.341   2.520  0.3222 -0.9824  0.1458
  408THF     H4 7645   2.759   5.142   2.350 -2.1967 -0.8821  0.4631
  408THF     H5 7646   2.690   5.230   2.217 -1.4025  1.4856  0.5993
  408THF     H6 7647   2.833   5.273   2.575 -0.6777 -2.0055  0.0624
  408THF     H7 7648   2.780   5.439   2.567  0.1580 -0.8914 -0.0075
  408THF     C8 7649   2.623   5.309   2.537 -0.4674 -0.2036  0.3347
  408THF     C9 7650   2.586   5.239   2.406  0.1718  0.6615 -0.3197
  408THF    H10 7651   2.566   5.402   2.546  2.4448  1.7272  0.0702
  408THF    H11 7652   2.600   5.243   2.621 -2.4840 -2.0835 -1.5704
  408THF    H12 7653   2.552   5.135   2.409 -1.3195  0.8168 -4.6114
  408THF    H13 7654   2.506   5.296   2.359  0.0697 -0.1248 -1.1197
  409THF     O1 7655   2.252   2.587   0.151  0.0721  0.3229 -0.6852
  409THF     C2 7656   2.126   2.549   0.215  0.4421  0.0120  0.0601
  409THF     C3 7657   2.352   2.539   0.248  1.0650 -0.1908  0.0218
  409THF     H4 7658   2.037   2.553   0.152 -0.5899  4.5997  1.3797
  409THF     H5 7659   2.101   2.615   0.299 -1.7290 -0.5634 -0.0839
  409THF     H6 7660   2.459   2.541   0.225  1.0337 -1.0345 -0.2314
  409THF     H7 7661   2.335   2.598   0.338  2.8694 -0.9395  0.9129
  409THF     C8 7662   2.303   2.401   0.287 -0.3273  0.1788 -0.7287
  409THF     C9 7663   2.156   2.406   0.255  0.4948  0.2358 -0.4623
  409THF    H10 7664   2.331   2.385   0.391  1.0646  1.3829 -0.8893
  409THF    H11 7665   2.373   2.340   0.230  1.7489  3.2353 -1.6643
  409THF    H12 7666   2.120   2.351   0.168 -1.3300  0.7572 -0.0866
  409THF    H13 7667   2.094   2.379   0.341  0.3359  1.4718 -0.1695
  410THF     O1 7668   2.450   5.403   3.690  0.2644  0.0195  0.0155
  410THF     C2 7669   2.400   5.344   3.813 -0.0746 -0.2958 -0.1551
  410THF     C3 7670   2.474   5.301   3.594  0.2695 -0.4079 -0.4181
  410THF     H4 7671   2.309   5.396   3.841  1.5162  1.9997  1.0727
  410THF     H5 7672   2.467   5.359   3.897 -0.2884 -0.1800 -0.0052
  410THF     H6 7673   2.482   5.350   3.497  0.1104 -0.0070 -0.2338
  410THF     H7 7674   2.573   5.260   3.612  0.2524 -0.9877 -1.5424
  410THF     C8 7675   2.367   5.204   3.624  0.6091  0.1205 -0.4289
  410THF     C9 7676   2.363   5.201   3.774  0.1210 -0.0796  0.2030
  410THF    H10 7677   2.385   5.111   3.571 -0.7278  0.0026 -0.7084
  410THF    H11 7678   2.277   5.255   3.589 -0.1852 -1.0956 -0.2213
  410THF    H12 7679   2.263   5.175   3.810 -0.1315  1.6261  0.8476
  410THF    H13 7680   2.432   5.134   3.826  1.0168  1.0937  0.5516
  411THF     O1 7681   1.460   1.754   1.698  0.1203  0.6143  0.6313
  411THF     C2 7682   1.479   1.621   1.646 -0.0218  0.1664  0.4120
  411THF     C3 7683   1.321   1.787   1.679 -0.0312  0.3041  0.2146
  411THF     H4 7684   1.562   1.571   1.696  1.3005  2.0512  0.1974
  411THF     H5 7685   1.496   1.611   1.539  2.4623  0.9534  0.6670
  411THF     H6 7686   1.283   1.835   1.769 -0.1235 -2.2148  1.6240
  411THF     H7 7687   1.310   1.850   1.591 -0.2645 -0.5303 -0.3587
  411THF     C8 7688   1.244   1.660   1.664 -0.6279 -0.3719 -0.2105
  411THF     C9 7689   1.352   1.553   1.695 -0.3012  0.0103 -0.4497
  411THF    H10 7690   1.206   1.658   1.562 -1.6629  0.0102  0.1570
  411THF    H11 7691   1.165   1.643   1.737  0.3739 -0.4209  0.8821
  411THF    H12 7692   1.365   1.537   1.802  0.5400 -2.9148 -0.9092
  411THF    H13 7693   1.319   1.457   1.655 -1.9239 -0.1426  1.1612
  412THF     O1 7694   3.775   3.764   1.350 -0.0678 -0.3118 -0.5417
  412THF     C2 7695   3.639   3.721   1.337 -0.3741  0.3097 -0.6475
  412THF     C3 7696   3.784   3.910   1.352 -0.1787 -0.2803 -0.0327
  412THF     H4 7697   3.609   3.685   1.435 -2.1542  3.9531  0.3122
  412THF     H5 7698   3.630   3.657   1.249  2.3414  0.4809 -1.1480
  412THF     H6 7699   3.777   3.943   1.455  0.7407  1.5125 -0.4952
  412THF     H7 7700   3.873   3.964   1.319  0.9540  0.5991  4.0003
  412THF     C8 7701   3.659   3.959   1.276 -0.4129 -0.4774 -0.3653
  412THF     C9 7702   3.561   3.851   1.307  0.2103  0.2370  0.7769
  412THF    H10 7703   3.682   3.970   1.170  0.6991  0.4894 -0.0399
  412THF    H11 7704   3.617   4.055   1.306 -0.0789 -0.9710  1.8551
  412THF    H12 7705   3.512   3.877   1.401  2.2533  0.8525  1.7131
  412THF    H13 7706   3.483   3.837   1.232 -1.3341 -1.7842  2.6007
  413THF     O1 7707   1.267   3.349   4.874  0.2440 -0.9195  0.0539
  413THF     C2 7708   1.185   3.300   4.977 -0.2996 -0.6390  0.9419
  413THF     C3 7709   1.390   3.283   4.879 -0.1191 -0.1799  0.1416
  413THF     H4 7710   1.080   3.307   4.951  0.2912 -0.0062 -1.6288
  413THF     H5 7711   1.187   3.367   5.062 -0.3556  1.6166 -0.7310
  413THF     H6 7712   1.454   3.284   4.791 -0.5371  0.3057 -0.1601
  413THF     H7 7713   1.452   3.326   4.958  0.5423  0.0734 -0.5013
  413THF     C8 7714   1.357   3.147   4.921  0.5914 -0.0438 -0.5481
  413THF     C9 7715   1.237   3.152   5.000 -0.2220 -0.3667 -0.3989
  413THF    H10 7716   1.438   3.090   4.966 -0.9689 -0.8051  1.4304
  413THF    H11 7717   1.332   3.094   4.829 -0.2620  1.6152 -1.3195
  413THF    H12 7718   1.158   3.085   4.966 -0.8165  0.1019  0.0385
  413THF    H13 7719   1.255   3.136   5.106  0.8982  1.3189 -0.3106
  414THF     O1 7720   5.277   4.809   0.779  0.0918  0.2563 -0.5000
  414THF     C2 7721   5.233   4.730   0.887  0.3655  0.2175  0.3873
  414THF     C3 7722   5.327   4.734   0.676  0.7746  0.4308  0.1119
  414THF     H4 7723   5.134   4.689   0.869  1.5279 -2.3561 -0.6939
  414THF     H5 7724   5.240   4.767   0.989  0.6055  1.0876  0.0652
  414THF     H6 7725   5.257   4.737   0.592  0.5137 -0.9117  0.2569
  414THF     H7 7726   5.420   4.780   0.643  0.9893 -0.8718 -1.2020
  414THF     C8 7727   5.324   4.589   0.727  0.9997  0.3946 -0.0616
  414THF     C9 7728   5.330   4.610   0.880  0.1036  0.5411  0.5863
  414THF    H10 7729   5.400   4.525   0.682  0.2119  0.1393 -1.0527
  414THF    H11 7730   5.226   4.544   0.712  1.2906 -0.5994  0.8959
  414THF    H12 7731   5.290   4.526   0.936  1.6240 -1.0898 -0.6569
  414THF    H13 7732   5.435   4.631   0.902 -0.7938  3.9870  2.3430
  415THF     O1 7733   5.399   4.737   3.594  0.2586 -0.3895  0.0329
  415THF     C2 7734   5.291   4.843   3.597 -0.1966  0.4890  0.0112
  415THF     C3 7735   5.376   4.637   3.689  0.4325 -0.0529 -0.9261
  415THF     H4 7736   5.223   4.810   3.518  0.3567 -0.1333 -0.2183
  415THF     H5 7737   5.328   4.943   3.572 -1.6209  0.9244 -0.4590
  415THF     H6 7738   5.385   4.532   3.658  1.2806 -0.3614  0.2964
  415THF     H7 7739   5.445   4.653   3.771  0.0334  1.2409 -0.8299
  415THF     C8 7740   5.234   4.677   3.746 -0.7543 -0.9055 -0.0833
  415THF     C9 7741   5.236   4.831   3.738 -0.2260  0.0234  0.4616
  415THF    H10 7742   5.212   4.641   3.847  1.0776 -1.7637  0.0657
  415THF    H11 7743   5.157   4.639   3.680  0.2247 -0.8411 -1.2933
  415THF    H12 7744   5.141   4.882   3.755  0.6687  1.0314  2.8356
  415THF    H13 7745   5.308   4.875   3.807  1.6919  0.9172 -1.9323
  416THF     O1 7746   3.580   1.594   0.791  0.3108 -0.3364  0.2931
  416THF     C2 7747   3.520   1.623   0.671  0.6018 -0.1706  1.2080
  416THF     C3 7748   3.467   1.594   0.884 -0.0186  0.2058  0.9423
  416THF     H4 7749   3.575   1.565   0.597 -1.6235 -3.1714  1.7120
  416THF     H5 7750   3.516   1.730   0.649 -3.0278 -0.6195 -1.0673
  416THF     H6 7751   3.493   1.554   0.982 -0.5165 -2.1452  0.1858
  416THF     H7 7752   3.434   1.696   0.901  0.3136  0.6488 -0.8833
  416THF     C8 7753   3.377   1.498   0.809  0.0546 -0.2702  0.1216
  416THF     C9 7754   3.385   1.551   0.669 -0.9417 -0.0908 -0.2283
  416THF    H10 7755   3.275   1.499   0.847 -0.6291 -0.8356 -1.5823
  416THF    H11 7756   3.414   1.395   0.806  1.2522  0.1587 -2.2766
  416THF    H12 7757   3.389   1.480   0.587 -0.7089  0.6873 -0.8989
  416THF    H13 7758   3.314   1.629   0.642 -1.6481 -0.8650 -0.6589
  417THF     O1 7759   1.015   2.788   1.701 -0.3619 -0.4369  0.5466
  417THF     C2 7760   0.877   2.808   1.672  0.3228 -0.3088 -0.5467
  417THF     C3 7761   1.095   2.894   1.653  0.3318  0.4067 -0.1665
  417THF     H4 7762   0.819   2.866   1.744  1.2736  1.2017 -0.9624
  417THF     H5 7763   0.830   2.709   1.670  0.4322 -0.4125 -3.6608
  417THF     H6 7764   1.090   2.967   1.735 -2.0261  0.5633 -0.3814
  417THF     H7 7765   1.191   2.849   1.628 -0.3871 -2.1833  1.4205
  417THF     C8 7766   1.010   2.950   1.539 -0.0746  0.0167  0.0570
  417THF     C9 7767   0.875   2.889   1.541 -0.1370  0.1857  0.4928
  417THF    H10 7768   1.063   2.966   1.445  0.4222  1.4428  0.5620
  417THF    H11 7769   1.002   3.050   1.580 -0.9212 -0.6479  1.5959
  417THF    H12 7770   0.796   2.963   1.548 -1.3068 -1.1101  1.5785
  417THF    H13 7771   0.870   2.826   1.452 -0.9562  0.1913  0.5314
  418THF     O1 7772   1.942   2.222   1.336 -0.0774  0.3129 -0.0259
  418THF     C2 7773   2.020   2.248   1.221 -0.2849 -0.1441  0.1450
  418THF     C3 7774   1.930   2.347   1.406 -0.5020 -0.0035 -0.3619
  418THF     H4 7775   2.018   2.163   1.152  0.1414 -0.3835  0.4259
  418THF     H5 7776   2.121   2.260   1.259 -1.1362 -0.6179  2.7819
  418THF     H6 7777   1.838   2.362   1.463 -0.9229  1.6148 -1.4372
  418THF     H7 7778   2.015   2.353   1.475 -0.9785 -0.5302  0.2847
  418THF     C8 7779   1.930   2.464   1.301  0.2980  0.5452 -0.3880
  418THF     C9 7780   1.972   2.387   1.176  0.3787  0.2728  0.2808
  418THF    H10 7781   2.008   2.534   1.330  0.4403  0.1245  0.2493
  418THF    H11 7782   1.830   2.508   1.290 -0.4872 -1.4187 -1.5947
  418THF    H12 7783   1.883   2.391   1.113  0.1229  2.4432  0.7131
  418THF    H13 7784   2.060   2.427   1.127 -0.8573  0.3476 -1.9843
  419THF     O1 7785   3.975   2.276   2.911  0.1420  0.5037  0.3115
  419THF     C2 7786   4.011   2.277   3.050  0.0896 -0.1051 -0.0389
  419THF     C3 7787   3.871   2.370   2.893 -0.0648  0.7714 -0.0907
  419THF     H4 7788   4.100   2.223   3.084 -1.3500 -3.1951 -0.8084
  419THF     H5 7789   3.926   2.237   3.106  0.3104 -1.2779 -0.5236
  419THF     H6 7790   3.878   2.429   2.801  1.3470  2.5204  1.0593
  419THF     H7 7791   3.779   2.314   2.904  0.9988 -1.1027 -0.3319
  419THF     C8 7792   3.882   2.470   3.006  0.1558  0.2321  0.4394
  419THF     C9 7793   4.012   2.426   3.071 -0.3222 -0.0285  0.2397
  419THF    H10 7794   3.796   2.468   3.073 -0.8307  0.9611 -0.7636
  419THF    H11 7795   3.889   2.573   2.970 -1.9558  0.1323 -0.3622
  419THF    H12 7796   4.092   2.477   3.016  0.1251  0.7712  1.5865
  419THF    H13 7797   4.016   2.458   3.175  2.6351 -0.8450  0.4935
  420THF     O1 7798   3.217   3.962   3.449 -0.6477 -0.1387  0.2881
  420THF     C2 7799   3.264   3.967   3.314 -0.1952 -0.0027 -0.1842
  420THF     C3 7800   3.104   3.870   3.449 -0.3324  0.0240 -0.0153
  420THF     H4 7801   3.364   4.011   3.306 -1.0562  2.1711  0.3189
  420THF     H5 7802   3.205   4.040   3.260  0.0465  0.4931  0.2126
  420THF     H6 7803   3.065   3.840   3.547 -0.7312  0.4534 -0.0386
  420THF     H7 7804   3.029   3.924   3.392  1.8873  1.6174 -1.6047
  420THF     C8 7805   3.149   3.761   3.359 -0.6663  0.3498 -1.6365
  420THF     C9 7806   3.241   3.829   3.260  0.0937  0.6139 -0.0138
  420THF    H10 7807   3.065   3.712   3.309  0.1870 -1.6078 -1.2345
  420THF    H11 7808   3.197   3.688   3.425  0.7376  1.4918 -1.3523
  420THF    H12 7809   3.330   3.769   3.242 -1.7319 -2.6123  0.8284
  420THF    H13 7810   3.179   3.842   3.172 -1.7045  2.6722  1.4445
  421THF     O1 7811   0.891   0.595   1.890  0.3077  0.3783  0.2754
  421THF     C2 7812   0.759   0.656   1.888 -0.3458  0.1052  0.6034
  421THF     C3 7813   0.881   0.476   1.966 -0.1439 -0.2349 -0.1454
  421THF     H4 7814   0.716   0.602   1.804  0.5845  0.8374 -0.3753
  421THF     H5 7815   0.762   0.760   1.856 -0.0126 -0.6226 -1.9454
  421THF     H6 7816   0.823   0.395   1.921 -0.0074 -2.5041  3.3694
  421THF     H7 7817   0.973   0.432   2.004 -0.6101  0.1139  1.4688
  421THF     C8 7818   0.804   0.529   2.086  1.0206 -0.3536 -0.8804
  421THF     C9 7819   0.705   0.622   2.027 -0.8420  0.0303 -0.8117
  421THF    H10 7820   0.870   0.579   2.156 -0.9117  1.0269  0.0670
  421THF    H11 7821   0.753   0.452   2.145  0.1126  0.4698 -0.5512
  421THF    H12 7822   0.609   0.574   2.012 -1.1782  0.0674  0.9576
  421THF    H13 7823   0.690   0.710   2.090 -2.4371 -1.4419  0.9975
  422THF     O1 7824   3.377   3.572   3.099 -0.0757  0.3773 -0.0687
  422THF     C2 7825   3.271   3.609   3.011 -0.5507 -0.2653 -0.4900
  422THF     C3 7826   3.341   3.442   3.150  0.2754  0.5346  0.8414
  422THF     H4 7827   3.308   3.691   2.949  2.0927 -1.0933 -0.1241
  422THF     H5 7828   3.182   3.637   3.066 -1.6834 -2.4230 -1.1158
  422THF     H6 7829   3.426   3.375   3.164 -0.1106  0.1108  1.1831
  422THF     H7 7830   3.287   3.429   3.243  0.3971 -0.6948  0.7589
  422THF     C8 7831   3.243   3.384   3.046 -0.4400  0.2255  0.3102
  422THF     C9 7832   3.231   3.489   2.935 -0.2146 -0.1156  0.4280
  422THF    H10 7833   3.150   3.352   3.094 -0.4645  0.2444  0.2752
  422THF    H11 7834   3.288   3.293   3.006  1.8343  1.1160  0.7269
  422THF    H12 7835   3.299   3.455   2.858  0.3371  0.5759  0.6002
  422THF    H13 7836   3.130   3.512   2.900 -0.3039 -0.6355  0.3421
  423THF     O1 7837   2.376   0.087   2.087  0.3946 -0.0026 -0.0226
  423THF     C2 7838   2.259   0.151   2.041  0.4661 -0.4871  0.5929
  423THF     C3 7839   2.341  -0.028   2.155 -0.0916 -0.4441  0.2546
  423THF     H4 7840   2.288   0.221   1.963 -3.1992  0.8680  0.2525
  423THF     H5 7841   2.206   0.208   2.117  1.6935 -0.0726  1.1559
  423THF     H6 7842   2.429  -0.092   2.169  1.3596  0.9222 -2.0156
  423THF     H7 7843   2.306  -0.001   2.255  2.1918  1.3496  0.6493
  423THF     C8 7844   2.228  -0.086   2.068  0.4023 -0.2900 -0.4162
  423THF     C9 7845   2.169   0.038   2.003 -0.1025  0.6099 -0.4849
  423THF    H10 7846   2.155  -0.149   2.119 -0.5646 -0.4247 -1.9120
  423THF    H11 7847   2.276  -0.143   1.989  2.4061  0.9331 -0.1584
  423THF    H12 7848   2.168   0.007   1.899 -0.2493 -1.0624 -0.0085
  423THF    H13 7849   2.066   0.054   2.037 -0.2510  0.4858 -0.8791
  424THF     O1 7850   1.270   3.506   4.501  0.4551  0.2127 -0.2723
  424THF     C2 7851   1.215   3.457   4.375 -0.9518  0.4619 -0.1712
  424THF     C3 7852   1.177   3.461   4.597  0.5196  0.1326 -0.3149
  424THF     H4 7853   1.227   3.349   4.369 -2.8408  0.2285 -0.0991
  424THF     H5 7854   1.267   3.511   4.296  0.4145  0.9375  0.9974
  424THF     H6 7855   1.208   3.366   4.638  2.3923  0.0442 -1.8217
  424THF     H7 7856   1.170   3.534   4.678 -0.4314  0.5792 -0.7774
  424THF     C8 7857   1.044   3.454   4.527 -0.4242 -0.2089 -0.1790
  424THF     C9 7858   1.075   3.493   4.386  0.0542  0.5205 -0.4237
  424THF    H10 7859   0.971   3.526   4.564 -0.4332 -0.3305  0.0402
  424THF    H11 7860   0.998   3.355   4.522 -1.4769  0.1924  1.0284
  424THF    H12 7861   1.007   3.445   4.316 -1.4829  0.5918  0.9616
  424THF    H13 7862   1.066   3.600   4.371  0.3078  0.2373 -3.0191
  425THF     O1 7863   4.614   1.287   3.912 -0.6268 -0.1951  0.2848
  425THF     C2 7864   4.533   1.177   3.885  0.4196 -0.2752  0.4338
  425THF     C3 7865   4.580   1.374   3.805 -0.4112 -0.2525  0.4705
  425THF     H4 7866   4.517   1.122   3.978 -1.6316 -1.3885 -0.5023
  425THF     H5 7867   4.568   1.109   3.808 -0.3927  0.2278 -0.3933
  425THF     H6 7868   4.613   1.477   3.815  0.3120 -0.5104  0.8151
  425THF     H7 7869   4.629   1.336   3.716 -2.2161 -2.1249  0.1933
  425THF     C8 7870   4.432   1.361   3.787  0.3793 -0.9575  0.0945
  425THF     C9 7871   4.395   1.236   3.851  0.5557  0.3810 -0.6567
  425THF    H10 7872   4.426   1.358   3.678  0.5814  2.3853 -0.0942
  425THF    H11 7873   4.384   1.449   3.828  1.5957  0.6481 -1.7559
  425THF    H12 7874   4.339   1.240   3.945 -0.7743 -0.2353 -1.3887
  425THF    H13 7875   4.348   1.159   3.789  0.0850  0.6288 -0.6086
  426THF     O1 7876   0.113   1.596   0.614 -0.6303 -0.5629  0.3653
  426THF     C2 7877   0.142   1.529   0.494  0.6138 -0.4770  0.6058
  426THF     C3 7878   0.232   1.675   0.645 -0.1653 -0.0773 -0.7438
  426THF     H4 7879   0.137   1.600   0.412  1.2630 -1.1752 -0.0518
  426THF     H5 7880   0.067   1.452   0.472  1.0535 -0.1432 -2.3891
  426THF     H6 7881   0.230   1.760   0.576 -0.4596  0.8177  0.3469
  426THF     H7 7882   0.234   1.704   0.750  1.1236 -1.9969 -0.1879
  426THF     C8 7883   0.349   1.586   0.604 -0.1227  0.1957  0.0642
  426THF     C9 7884   0.280   1.482   0.514  0.3242 -0.0447 -0.0103
  426THF    H10 7885   0.400   1.534   0.685  3.3509 -1.3986 -2.8782
  426THF    H11 7886   0.434   1.639   0.562  1.6056 -2.7189 -0.3438
  426THF    H12 7887   0.328   1.453   0.420 -1.1129  0.4318 -0.9333
  426THF    H13 7888   0.280   1.389   0.570  1.3850  0.5148  0.9553
  427THF     O1 7889   4.044   4.632   3.113 -0.0370 -0.3164  0.3299
  427THF     C2 7890   4.152   4.573   3.189  0.0722 -0.7821  0.2530
  427THF     C3 7891   4.039   4.578   2.981 -0.1859 -0.6430 -0.7854
  427THF     H4 7892   4.110   4.482   3.231 -1.2186 -0.2512  0.1590
  427THF     H5 7893   4.188   4.638   3.269 -0.3178 -1.6934  1.1819
  427THF     H6 7894   3.943   4.544   2.944 -1.4768  0.6862  1.0945
  427THF     H7 7895   4.062   4.665   2.919 -3.0380  0.4995 -0.4132
  427THF     C8 7896   4.159   4.483   2.967 -0.2616  0.2638  0.6490
  427THF     C9 7897   4.252   4.539   3.077  0.0159 -0.3285  0.2107
  427THF    H10 7898   4.205   4.485   2.868  2.2522 -0.3241  1.7267
  427THF    H11 7899   4.130   4.381   2.992 -0.9695  0.2862 -0.0328
  427THF    H12 7900   4.333   4.476   3.114 -0.1090 -1.1801 -0.9120
  427THF    H13 7901   4.292   4.634   3.043  1.9010 -0.2220  2.4661
  428THF     O1 7902   0.923   4.721   2.134 -0.7367  0.0178  0.0149
  428THF     C2 7903   1.027   4.739   2.039 -0.6294  0.1778 -0.3736
  428THF     C3 7904   0.974   4.663   2.255 -0.4101 -0.2481  0.5503
  428THF     H4 7905   1.022   4.840   1.998  0.5511  0.3605 -0.1053
  428THF     H5 7906   1.025   4.672   1.953  2.4272 -0.1046 -0.3602
  428THF     H6 7907   0.909   4.702   2.333 -2.2236 -0.0676 -0.9685
  428THF     H7 7908   0.978   4.554   2.261  0.2999 -0.1485  3.1196
  428THF     C8 7909   1.119   4.724   2.258  0.5039  0.0165  0.1214
  428THF     C9 7910   1.162   4.715   2.112  0.2359  0.3408  0.3339
  428THF    H10 7911   1.183   4.674   2.330 -1.9067  1.5090  3.5919
  428THF    H11 7912   1.109   4.830   2.285 -0.4953 -0.2695  0.9699
  428THF    H12 7913   1.248   4.772   2.078 -1.2064  1.1252 -2.3019
  428THF    H13 7914   1.191   4.611   2.095 -1.6424 -0.1276 -0.2180
  429THF     O1 7915   3.422   1.819   1.533  0.1717  0.1612  0.1964
  429THF     C2 7916   3.316   1.843   1.624  0.6320 -0.2040 -0.7981
  429THF     C3 7917   3.390   1.892   1.416  0.0265  0.3302 -0.0576
  429THF     H4 7918   3.324   1.944   1.664 -1.9659 -0.9342  1.8662
  429THF     H5 7919   3.308   1.781   1.713  4.3433  0.6872  0.3460
  429THF     H6 7920   3.423   1.995   1.432 -0.6035  0.3750  1.0399
  429THF     H7 7921   3.452   1.844   1.340 -1.1539  1.4354 -1.7936
  429THF     C8 7922   3.245   1.877   1.401  0.5745 -0.1278 -0.3106
  429THF     C9 7923   3.200   1.821   1.538  0.3744  0.5775  0.4256
  429THF    H10 7924   3.212   1.820   1.314 -1.0594  0.8936 -0.3905
  429THF    H11 7925   3.193   1.971   1.383 -0.2013 -0.5232 -0.1774
  429THF    H12 7926   3.104   1.861   1.574 -0.3227 -3.3419  3.6137
  429THF    H13 7927   3.185   1.715   1.517 -1.4056  1.3701 -3.0299
  430THF     O1 7928   2.018   2.526   1.951 -0.8145 -0.2077 -0.4902
  430THF     C2 7929   2.082   2.400   1.956 -0.1567  0.3781 -0.2606
  430THF     C3 7930   1.956   2.548   2.075 -0.7745 -0.1560  0.6699
  430THF     H4 7931   2.163   2.380   1.885  0.1084  1.0154 -0.1510
  430THF     H5 7932   2.008   2.324   1.932 -0.6473  1.2560 -1.6854
  430THF     H6 7933   1.938   2.655   2.090  0.1243  0.0074  0.6931
  430THF     H7 7934   1.868   2.485   2.069 -0.2729 -0.7559 -1.0752
  430THF     C8 7935   2.064   2.493   2.173 -0.2145  0.2422  0.0550
  430THF     C9 7936   2.133   2.377   2.101 -0.0798  0.7292  0.0997
  430THF    H10 7937   2.023   2.464   2.270  0.8460 -2.9932 -0.3419
  430THF    H11 7938   2.138   2.573   2.178  0.0836 -0.0116 -0.2393
  430THF    H12 7939   2.240   2.392   2.115 -0.1852  0.7831  0.8685
  430THF    H13 7940   2.089   2.285   2.139  3.4513 -2.3444 -2.4935
  431THF     O1 7941   1.003   2.912   4.454 -0.0343  0.8287 -0.5917
  431THF     C2 7942   1.029   2.961   4.318 -0.3778  0.0134 -0.1211
  431THF     C3 7943   1.122   2.918   4.530  0.0288  0.3020 -0.7383
  431THF     H4 7944   0.938   3.008   4.281 -0.3320 -0.5871 -1.0356
  431THF     H5 7945   1.040   2.879   4.248  2.3357 -0.0893  0.3308
  431THF     H6 7946   1.113   2.902   4.637  0.6799 -1.1596 -0.8743
  431THF     H7 7947   1.176   2.829   4.496  2.1228  0.5044  1.7607
  431THF     C8 7948   1.184   3.049   4.477 -0.0266 -0.1673 -0.2923
  431THF     C9 7949   1.153   3.037   4.327  0.3276  0.4557 -0.2466
  431THF    H10 7950   1.291   3.066   4.487 -0.4178  2.9317 -0.4246
  431THF    H11 7951   1.129   3.131   4.524 -0.4467 -1.0239  0.7410
  431THF    H12 7952   1.142   3.142   4.297 -1.9730 -0.6187 -3.7499
  431THF    H13 7953   1.224   2.993   4.258 -1.1051 -0.4707 -1.1935
  432THF     O1 7954   0.303   0.073   4.642 -0.3610  0.3733  0.2782
  432THF     C2 7955   0.200   0.162   4.654  0.4053 -0.1567 -0.3260
  432THF     C3 7956   0.299  -0.003   4.760 -0.0856  0.6465 -0.1553
  432THF     H4 7957   0.121   0.116   4.595  1.6400  1.0449 -3.1139
  432THF     H5 7958   0.219   0.252   4.596 -0.2656 -0.4940 -1.0890
  432THF     H6 7959   0.220  -0.078   4.760 -0.3917  0.9518  0.9349
  432THF     H7 7960   0.397  -0.051   4.772 -0.0658  0.6793 -0.1856
  432THF     C8 7961   0.271   0.091   4.872  0.3170  0.7903  1.5613
  432THF     C9 7962   0.176   0.188   4.804  0.0275  0.0515  0.0906
  432THF    H10 7963   0.361   0.136   4.914  2.2861  0.0978 -1.5570
  432THF    H11 7964   0.226   0.041   4.957 -0.1714  0.0133  0.8595
  432THF    H12 7965   0.076   0.156   4.833  0.6653 -1.6348  0.5781
  432THF    H13 7966   0.192   0.289   4.844 -0.7809  1.1553 -2.1967
  433THF     O1 7967   2.526   3.900   0.858 -0.6101 -0.2570 -1.0948
  433THF     C2 7968   2.384   3.910   0.860  0.3160  0.0245  0.2020
  433THF     C3 7969   2.582   4.030   0.832  0.4085  0.6264 -0.2658
  433THF     H4 7970   2.354   3.859   0.952  0.2367 -2.3682 -1.0728
  433THF     H5 7971   2.340   3.844   0.785 -1.1485 -0.6404  1.5699
  433THF     H6 7972   2.681   4.016   0.875 -0.2673 -0.8197  0.9361
  433THF     H7 7973   2.605   4.049   0.728  0.5133  1.9683 -0.0125
  433THF     C8 7974   2.474   4.131   0.888  0.4600 -0.2297  0.4831
  433THF     C9 7975   2.343   4.058   0.855  0.1548  0.2221  0.3421
  433THF    H10 7976   2.471   4.227   0.836 -0.6615 -0.1243  0.7114
  433THF    H11 7977   2.481   4.157   0.994 -1.2759  2.1374  0.0990
  433THF    H12 7978   2.267   4.070   0.933 -2.0540 -4.3891 -0.7265
  433THF    H13 7979   2.306   4.078   0.754 -1.3861 -0.6916  0.6953
  434THF     O1 7980   2.220   0.944   4.937  0.0401  0.5143  0.5839
  434THF     C2 7981   2.177   0.810   4.956  0.0500 -0.2315 -0.9346
  434THF     C3 7982   2.226   1.009   5.067  0.3460  0.1284  0.3871
  434THF     H4 7983   2.213   0.744   4.877 -0.5191 -2.0993  0.2925
  434THF     H5 7984   2.070   0.789   4.957 -0.5202  2.3631 -0.6325
  434THF     H6 7985   2.307   1.082   5.071 -0.5193  1.1211  0.3750
  434THF     H7 7986   2.125   1.043   5.092  0.0293  0.8815 -1.7362
  434THF     C8 7987   2.272   0.895   5.164  0.3834 -0.2210 -0.4225
  434THF     C9 7988   2.239   0.763   5.094 -0.6533 -0.4146 -0.3340
  434THF    H10 7989   2.215   0.915   5.255 -0.4602 -0.2586 -0.9246
  434THF    H11 7990   2.379   0.911   5.176  0.4346  1.1530 -2.3383
  434THF    H12 7991   2.332   0.706   5.092 -1.9646 -2.6511 -1.6687
  434THF    H13 7992   2.166   0.704   5.150 -1.5809  0.0669 -0.9988
  435THF     O1 7993   2.823   2.447   2.732  0.0631 -0.0513  0.0247
  435THF     C2 7994   2.957   2.421   2.719  0.4094  0.6785 -0.5744
  435THF     C3 7995   2.750   2.334   2.690 -0.1544 -0.3632 -0.3126
  435THF     H4 7996   3.019   2.495   2.769  0.6924  1.1467 -1.5897
  435THF     H5 7997   2.977   2.414   2.612 -1.2613 -0.7345 -0.8326
  435THF     H6 7998   2.652   2.343   2.737 -0.9570  1.4246 -2.2433
  435THF     H7 7999   2.740   2.323   2.582  1.2444  0.7121 -0.5840
  435THF     C8 8000   2.834   2.218   2.734 -0.0730 -0.3971  0.5497
  435THF     C9 8001   2.962   2.278   2.776  0.1197  0.2181 -0.2881
  435THF    H10 8002   2.844   2.153   2.647  0.1975 -1.1514  1.1323
  435THF    H11 8003   2.799   2.152   2.814  2.6547 -1.0706  1.2971
  435THF    H12 8004   2.976   2.293   2.883  1.3919 -2.0888 -0.0616
  435THF    H13 8005   3.056   2.239   2.736  1.0986  1.9252  0.2359
  436THF     O1 8006   4.017   1.957   4.956 -0.6673 -0.2963 -0.3597
  436THF     C2 8007   4.113   1.852   4.938 -0.2382  0.4405  0.3137
  436THF     C3 8008   4.092   2.076   4.945  0.5773  0.8318 -0.3220
  436THF     H4 8009   4.135   1.844   4.831  0.6290 -3.0858  0.6397
  436THF     H5 8010   4.074   1.756   4.971  1.0721  0.5931  2.4788
  436THF     H6 8011   4.091   2.118   4.845  0.2727  1.3085 -0.1216
  436THF     H7 8012   4.039   2.146   5.010  1.2963 -0.0177  1.2334
  436THF     C8 8013   4.232   2.047   4.988  0.2424 -0.1254 -0.2901
  436THF     C9 8014   4.233   1.902   5.020 -0.1261 -0.2512 -0.7143
  436THF    H10 8015   4.271   2.105   5.071 -0.5400 -1.4399  1.0396
  436THF    H11 8016   4.297   2.058   4.900  0.5441  2.6043  0.2049
  436THF    H12 8017   4.329   1.852   5.013 -0.9533 -1.6610 -3.0599
  436THF    H13 8018   4.206   1.896   5.126  0.6984 -0.0956 -0.4836
  437THF     O1 8019   5.247   5.087   4.729  0.0250  0.1787 -0.4449
  437THF     C2 8020   5.249   5.171   4.845  0.1507 -0.0259 -0.0683
  437THF     C3 8021   5.319   4.965   4.768 -0.2401  0.0076 -0.1938
  437THF     H4 8022   5.179   5.254   4.833 -0.7248 -0.6863  0.4390
  437THF     H5 8023   5.349   5.207   4.872  0.4211 -0.6340 -0.2485
  437THF     H6 8024   5.289   4.888   4.697  0.5791  0.8971 -1.5410
  437THF     H7 8025   5.427   4.971   4.761 -0.2109  1.3255  1.0294
  437THF     C8 8026   5.271   4.944   4.909  0.7949 -0.8094 -0.5542
  437THF     C9 8027   5.208   5.072   4.954  0.5415  0.1163  0.0810
  437THF    H10 8028   5.340   4.899   4.980 -0.3275  1.1600  1.9450
  437THF    H11 8029   5.191   4.870   4.908  4.1750 -4.8081 -1.2009
  437THF    H12 8030   5.100   5.062   4.964  0.6541 -0.4116  0.9177
  437THF    H13 8031   5.239   5.115   5.049 -0.4967  2.7472 -0.6887
  438THF     O1 8032   5.290   2.786   3.173  0.2944  0.0358  0.1191
  438THF     C2 8033   5.208   2.901   3.192 -0.3237 -0.8542  0.5782
  438THF     C3 8034   5.200   2.683   3.139  0.2554 -0.2636 -0.4976
  438THF     H4 8035   5.181   2.947   3.097  1.5142 -1.0957 -0.1022
  438THF     H5 8036   5.262   2.973   3.252 -1.5142  0.8040 -0.2478
  438THF     H6 8037   5.181   2.675   3.032 -0.7429 -1.2729 -0.2620
  438THF     H7 8038   5.251   2.594   3.175  1.7811 -0.0919 -2.0875
  438THF     C8 8039   5.062   2.712   3.206  0.4084 -0.0116  0.0270
  438THF     C9 8040   5.090   2.843   3.276 -0.2088  0.4679  0.1547
  438THF    H10 8041   5.019   2.640   3.275 -0.7012  2.1537  1.7419
  438THF    H11 8042   4.992   2.743   3.128  0.0619  1.0669  0.7410
  438THF    H12 8043   5.007   2.915   3.269 -1.6156 -1.1204 -0.0905
  438THF    H13 8044   5.130   2.818   3.374  1.1570 -1.5276 -0.8535
  439THF     O1 8045   4.143   2.970   3.204 -0.6529 -0.3207  0.4783
  439THF     C2 8046   4.037   3.070   3.200 -0.1439 -0.0412  0.5707
  439THF     C3 8047   4.070   2.855   3.237 -0.7224 -0.2863 -0.5908
  439THF     H4 8048   4.074   3.163   3.156  1.4302  0.2075  2.2640
  439THF     H5 8049   4.034   3.103   3.304  3.3309 -0.1968  0.8569
  439THF     H6 8050   4.133   2.769   3.213  1.9339  1.1162  0.9355
  439THF     H7 8051   4.052   2.858   3.344  0.7852 -0.9244 -0.2965
  439THF     C8 8052   3.942   2.864   3.149  0.0990  0.6578  0.3332
  439THF     C9 8053   3.912   3.008   3.124 -0.7268 -0.0754 -0.1940
  439THF    H10 8054   3.858   2.810   3.194  0.2973 -1.6930 -1.8662
  439THF    H11 8055   3.969   2.821   3.053  0.7299 -0.8101  1.1151
  439THF    H12 8056   3.922   3.027   3.017 -0.2211 -1.2298 -0.3700
  439THF    H13 8057   3.813   3.042   3.154 -0.5194  0.3816 -0.0182
  440THF     O1 8058   1.459   4.476   4.255 -0.1670 -0.0975 -0.7309
  440THF     C2 8059   1.378   4.553   4.346  0.4072  0.5796 -0.3299
  440THF     C3 8060   1.459   4.340   4.300 -0.1895  0.4080  0.2598
  440THF     H4 8061   1.281   4.537   4.298  0.6169 -0.2255 -0.4969
  440THF     H5 8062   1.397   4.659   4.366 -2.2134  0.7781  1.6659
  440THF     H6 8063   1.379   4.274   4.270  0.3281 -1.3433  2.4893
  440THF     H7 8064   1.559   4.313   4.266 -1.2729 -0.7572 -2.2247
  440THF     C8 8065   1.463   4.352   4.453  0.4631 -0.8822  0.9775
  440THF     C9 8066   1.377   4.465   4.478  0.5039 -0.0103  0.0952
  440THF    H10 8067   1.560   4.379   4.495  0.2727 -1.7488  2.0393
  440THF    H11 8068   1.420   4.264   4.500  0.6315 -0.0940  2.6649
  440THF    H12 8069   1.271   4.440   4.483  0.7227 -1.3414 -1.3830
  440THF    H13 8070   1.407   4.519   4.568 -1.3053 -0.2109  0.8481
  441THF     O1 8071   3.697   3.723   3.645  0.0822  0.2012 -0.1301
  441THF     C2 8072   3.623   3.653   3.549 -0.1668  0.6773  0.3236
  441THF     C3 8073   3.723   3.846   3.592  0.1798 -0.8261 -0.5515
  441THF     H4 8074   3.575   3.568   3.599 -1.2646  1.6797  1.0240
  441THF     H5 8075   3.678   3.616   3.462 -2.4058 -2.4357  0.0324
  441THF     H6 8076   3.766   3.919   3.661  1.0392 -1.6668 -0.1863
  441THF     H7 8077   3.787   3.845   3.504  0.9898  0.3137 -0.0017
  441THF     C8 8078   3.578   3.881   3.556  0.6684  0.7154 -0.4097
  441THF     C9 8079   3.518   3.754   3.499  0.3662  0.2139  0.2244
  441THF    H10 8080   3.577   3.958   3.479 -0.2556 -0.7649 -1.9158
  441THF    H11 8081   3.526   3.911   3.648  0.0071 -0.0662 -0.5107
  441THF    H12 8082   3.418   3.732   3.536  0.4092 -0.4359 -0.0322
  441THF    H13 8083   3.501   3.756   3.391  0.0424 -1.7745  0.1887
  442THF     O1 8084   4.574   4.205   3.436  0.7421 -0.1675  0.0056
  442THF     C2 8085   4.447   4.146   3.404  0.5239 -0.0304  0.0744
  442THF     C3 8086   4.545   4.348   3.453  0.0350 -0.1087 -0.0132
  442THF     H4 8087   4.406   4.121   3.502  1.2029  0.0747  0.3898
  442THF     H5 8088   4.452   4.055   3.345 -2.6673  1.5450 -3.0110
  442THF     H6 8089   4.530   4.366   3.560 -1.8507 -1.6985  0.0518
  442THF     H7 8090   4.632   4.406   3.423 -1.3249  1.6100 -0.8180
  442THF     C8 8091   4.413   4.378   3.380  0.6136  0.0991  0.3116
  442THF     C9 8092   4.362   4.250   3.324  0.1997 -0.7327 -0.1985
  442THF    H10 8093   4.439   4.449   3.301 -2.4301 -0.7667 -1.6120
  442THF    H11 8094   4.341   4.426   3.446  1.5857  0.2973  1.2471
  442THF    H12 8095   4.255   4.231   3.340  0.0799  0.8346  1.0854
  442THF    H13 8096   4.382   4.250   3.217  0.7167 -1.6647 -0.1114
  443THF     O1 8097   4.737   4.909   4.268 -0.1960 -0.5663 -0.7974
  443THF     C2 8098   4.743   4.958   4.134 -0.4700  0.1315  0.6853
  443THF     C3 8099   4.845   4.965   4.338 -0.3458  0.4685  0.1669
  443THF     H4 8100   4.651   4.957   4.075  0.5454  0.8339 -0.9636
  443THF     H5 8101   4.823   4.910   4.079 -2.0337 -1.2216 -0.5257
  443THF     H6 8102   4.831   4.944   4.444 -1.8542  0.0828 -0.0946
  443THF     H7 8103   4.924   4.918   4.280 -2.2463  0.7056 -2.8384
  443THF     C8 8104   4.821   5.107   4.302  0.0793  0.1716 -0.1643
  443THF     C9 8105   4.783   5.101   4.156 -0.1530  0.0540 -0.4315
  443THF    H10 8106   4.900   5.176   4.335 -0.4225 -0.0028  1.5281
  443THF    H11 8107   4.742   5.144   4.368 -1.2109 -2.3338 -0.2093
  443THF    H12 8108   4.701   5.171   4.143 -1.7727 -2.0294 -2.2845
  443THF    H13 8109   4.840   5.150   4.078 -1.1852  1.7354 -0.1801
  444THF     O1 8110   3.833   3.790   0.142  0.3915  0.0806  0.0846
  444THF     C2 8111   3.785   3.680   0.068 -0.0543 -0.5794 -0.1835
  444THF     C3 8112   3.767   3.903   0.083  0.5436 -0.2113 -0.4599
  444THF     H4 8113   3.821   3.585   0.107  0.8839  0.0034  0.4111
  444THF     H5 8114   3.829   3.675  -0.031  1.1552  0.2672  0.2937
  444THF     H6 8115   3.765   3.986   0.154  2.7372 -2.0954  2.0120
  444THF     H7 8116   3.824   3.940  -0.001 -0.7091  0.2405 -1.1387
  444THF     C8 8117   3.629   3.857   0.034  0.2383  0.4943  0.2705
  444THF     C9 8118   3.632   3.704   0.058  0.3565  0.0040  0.2355
  444THF    H10 8119   3.629   3.875  -0.074 -0.3368 -1.4169 -0.0931
  444THF    H11 8120   3.554   3.902   0.099  0.8469 -0.4955  1.7112
  444THF    H12 8121   3.579   3.687   0.152 -0.1919  2.3830  0.4065
  444THF    H13 8122   3.595   3.659  -0.034  1.4521 -1.5915  0.5226
  445THF     O1 8123   3.842   4.048   3.180  0.3238  0.3075 -0.7166
  445THF     C2 8124   3.937   4.086   3.273 -0.7880  0.3857 -0.3931
  445THF     C3 8125   3.794   3.915   3.219 -0.4785  0.2870  0.0255
  445THF     H4 8126   3.879   4.133   3.352  2.0960 -1.0306  2.8232
  445THF     H5 8127   4.012   4.162   3.248 -0.5051  0.1369 -0.3026
  445THF     H6 8128   3.731   3.923   3.307 -1.0594 -3.6291  0.1683
  445THF     H7 8129   3.741   3.859   3.142  1.9150  0.8072 -2.1595
  445THF     C8 8130   3.919   3.842   3.266  0.8347  0.1559  0.0937
  445THF     C9 8131   4.006   3.960   3.325 -0.3855 -0.3423  0.1102
  445THF    H10 8132   3.963   3.807   3.172  0.9175 -0.0385  0.2023
  445THF    H11 8133   3.898   3.755   3.328 -0.2480  0.0676 -0.3805
  445THF    H12 8134   4.009   3.970   3.433 -1.3003  3.5002 -0.0908
  445THF    H13 8135   4.105   3.944   3.282 -1.5966 -2.7470 -2.0341
  446THF     O1 8136   0.803   2.006   3.799 -0.0816  0.1333 -0.0578
  446THF     C2 8137   0.858   1.893   3.869 -0.5692  0.0820  0.7103
  446THF     C3 8138   0.797   1.969   3.666  0.1968  0.3574 -0.1123
  446THF     H4 8139   0.826   1.895   3.973  1.5261  2.4661  1.4066
  446THF     H5 8140   0.967   1.898   3.865 -0.5360 -1.0828 -0.5516
  446THF     H6 8141   0.726   2.040   3.623 -1.7601 -0.7303  1.1210
  446THF     H7 8142   0.892   1.973   3.614 -1.4523  3.8030 -3.3382
  446THF     C8 8143   0.742   1.826   3.670  0.1004  0.2808 -0.1788
  446THF     C9 8144   0.800   1.773   3.800  0.9559 -0.1987  0.2173
  446THF    H10 8145   0.777   1.770   3.583 -1.6415 -1.9249  0.4676
  446THF    H11 8146   0.634   1.839   3.671  0.0680  0.0165 -0.2447
  446THF    H12 8147   0.714   1.733   3.853 -0.9571  0.3902 -2.2635
  446THF    H13 8148   0.867   1.690   3.779 -1.6035 -3.3749  3.3538
  447THF     O1 8149   4.627   4.503   2.980  0.0039  0.4226 -0.0598
  447THF     C2 8150   4.629   4.605   3.075  0.4559 -0.2443 -0.1885
  447THF     C3 8151   4.665   4.385   3.051  0.2559 -0.4401  0.5069
  447THF     H4 8152   4.530   4.618   3.118 -0.0443 -2.1444 -0.6363
  447THF     H5 8153   4.663   4.692   3.019  1.5758  0.2175  1.1567
  447THF     H6 8154   4.595   4.327   3.111 -0.6448 -2.2081 -2.1004
  447THF     H7 8155   4.702   4.316   2.975 -0.2016  0.4709 -0.5781
  447THF     C8 8156   4.782   4.431   3.134 -0.1015 -0.5681 -0.0139
  447THF     C9 8157   4.735   4.565   3.183  0.1468  0.5177 -0.2153
  447THF    H10 8158   4.862   4.451   3.063  1.3792 -0.0370  1.7369
  447THF    H11 8159   4.795   4.359   3.215  0.9098  1.2314  1.4921
  447THF    H12 8160   4.696   4.558   3.284  0.8055  2.9910  0.2650
  447THF    H13 8161   4.817   4.636   3.177 -0.7838  1.6048 -0.2559
  448THF     O1 8162   0.914   5.343   1.190 -0.0357  0.0172 -0.6024
  448THF     C2 8163   1.003   5.252   1.258 -0.3854  0.3689 -0.0879
  448THF     C3 8164   0.908   5.466   1.264  0.0404 -0.5350  0.2861
  448THF     H4 8165   1.048   5.181   1.189 -1.9755 -2.9097  1.9615
  448THF     H5 8166   0.952   5.189   1.332  0.5769  0.9677  1.1316
  448THF     H6 8167   0.878   5.551   1.204 -0.6818 -0.7476  0.3409
  448THF     H7 8168   0.837   5.474   1.346 -2.6864  1.6214 -2.1277
  448THF     C8 8169   1.050   5.482   1.316 -0.1081  0.0336 -0.2034
  448THF     C9 8170   1.109   5.340   1.324  0.2996 -0.0783 -0.4243
  448THF    H10 8171   1.046   5.527   1.415  0.7385  2.3842 -1.1890
  448THF    H11 8172   1.109   5.562   1.273  0.1624 -0.4465 -0.7487
  448THF    H12 8173   1.203   5.331   1.269 -0.1446 -0.3526 -1.1542
  448THF    H13 8174   1.109   5.302   1.426 -0.8651 -1.6998 -0.9795
  449THF     O1 8175   4.839   3.027   1.755  0.3768 -0.4329  0.4234
  449THF     C2 8176   4.878   2.944   1.643  0.3214  0.1852 -0.2669
  449THF     C3 8177   4.771   3.146   1.703  0.2091  0.4577 -0.5214
  449THF     H4 8178   4.826   2.857   1.683 -1.3020  1.2719  0.1018
  449THF     H5 8179   4.987   2.938   1.638  0.2759 -0.0058 -1.1549
  449THF     H6 8180   4.696   3.179   1.775 -0.9386 -0.4157 -1.2791
  449THF     H7 8181   4.846   3.225   1.702 -0.2858  0.9851  0.8760
  449THF     C8 8182   4.717   3.111   1.568 -0.4639 -1.3412  0.8432
  449THF     C9 8183   4.815   3.008   1.515  0.5385  0.5310  0.3564
  449THF    H10 8184   4.694   3.199   1.508  1.5358  0.2078  2.2331
  449THF    H11 8185   4.622   3.058   1.571  0.3725 -2.8929  0.6724
  449THF    H12 8186   4.765   2.933   1.453 -1.7136  0.2236  2.3538
  449THF    H13 8187   4.895   3.061   1.464 -0.0444  2.8604  1.7108
  450THF     O1 8188   0.054   0.382   3.619  0.2509  0.4639  0.5258
  450THF     C2 8189  -0.003   0.432   3.742 -0.0770  0.2394 -0.2323
  450THF     C3 8190   0.175   0.311   3.645 -0.0256  0.3038 -0.9854
  450THF     H4 8191  -0.109   0.451   3.731 -1.0523 -3.3501  1.4791
  450THF     H5 8192   0.049   0.524   3.768 -1.2268  1.2795 -1.5169
  450THF     H6 8193   0.214   0.245   3.568  0.8767  1.2392 -1.3507
  450THF     H7 8194   0.260   0.371   3.676  0.8527 -1.3029 -0.1479
  450THF     C8 8195   0.126   0.226   3.763 -0.2015  0.5399 -0.2293
  450THF     C9 8196   0.031   0.317   3.837  0.7610 -1.1700 -0.8244
  450THF    H10 8197   0.203   0.189   3.830 -1.0270 -1.9397 -0.5787
  450THF    H11 8198   0.063   0.146   3.725 -1.6835  2.7554 -2.7670
  450THF    H12 8199  -0.058   0.266   3.875  0.9882 -1.0034 -0.0539
  450THF    H13 8200   0.089   0.366   3.915 -0.8529  1.2688 -1.0441
  451THF     O1 8201   3.398   0.906   5.009  0.3834 -0.2876 -0.2766
  451THF     C2 8202   3.495   0.989   4.966  0.1411  0.0254 -0.6348
  451THF     C3 8203   3.283   0.980   5.021  0.1876 -0.4306  0.1628
  451THF     H4 8204   3.532   0.974   4.864  1.3894 -0.5515 -0.1257
  451THF     H5 8205   3.573   0.960   5.037 -0.6014 -0.4737 -0.0071
  451THF     H6 8206   3.255   0.984   4.916  0.6273 -0.4741  0.0385
  451THF     H7 8207   3.206   0.928   5.078  1.0319 -2.7173 -0.7085
  451THF     C8 8208   3.330   1.122   5.065  0.3098  0.2713 -0.5405
  451THF     C9 8209   3.465   1.133   4.999 -0.0860  0.2245  0.7705
  451THF    H10 8210   3.338   1.122   5.173  0.2986 -0.8049 -0.5233
  451THF    H11 8211   3.259   1.201   5.041  1.2226  1.1447 -0.4203
  451THF    H12 8212   3.446   1.178   4.902 -2.5436 -2.0627  0.0527
  451THF    H13 8213   3.541   1.181   5.061  3.1235  0.1879 -2.7907
  452THF     O1 8214   0.931   0.777   0.333  0.8622 -0.0185 -0.3894
  452THF     C2 8215   0.997   0.859   0.244 -0.1979 -0.3687  0.2229
  452THF     C3 8216   0.799   0.736   0.295  0.2030  0.1457  0.3262
  452THF     H4 8217   1.090   0.808   0.218  0.4987  0.9943 -0.0867
  452THF     H5 8218   1.015   0.960   0.281 -2.7589  1.2048 -2.4167
  452THF     H6 8219   0.777   0.630   0.308  2.7971 -0.6987 -1.3950
  452THF     H7 8220   0.728   0.797   0.351  1.8815  1.5407  1.0046
  452THF     C8 8221   0.805   0.764   0.140  0.1278 -0.3262 -0.2463
  452THF     C9 8222   0.914   0.873   0.114  0.3840  0.1803 -0.5621
  452THF    H10 8223   0.714   0.787   0.086 -1.1590 -2.9493  0.6158
  452THF    H11 8224   0.849   0.674   0.097  0.6989  0.4667 -1.3448
  452THF    H12 8225   0.974   0.842   0.028  1.3146 -3.9170  1.3341
  452THF    H13 8226   0.858   0.966   0.100 -0.2813 -0.4837 -2.7871
  453THF     O1 8227   1.940   2.315   3.313 -0.5120 -0.8391  0.0459
  453THF     C2 8228   2.017   2.302   3.191 -0.0029  0.2802 -0.2607
  453THF     C3 8229   1.958   2.445   3.365 -0.6519 -0.2695  0.1036
  453THF     H4 8230   1.976   2.227   3.124 -0.5527 -2.0587  2.5190
  453THF     H5 8231   2.117   2.267   3.216  0.3647  0.8461 -0.8711
  453THF     H6 8232   1.862   2.480   3.403 -0.1400  1.2692  0.0608
  453THF     H7 8233   2.025   2.447   3.451 -0.5786 -0.8024  0.0584
  453THF     C8 8234   2.018   2.526   3.254  0.0933 -0.1779 -0.3058
  453THF     C9 8235   2.019   2.443   3.130  0.1440  0.2322 -0.1827
  453THF    H10 8236   2.118   2.563   3.275 -0.0792 -0.0825  0.3837
  453THF    H11 8237   1.960   2.616   3.235  2.0936  1.3060  0.3365
  453THF    H12 8238   1.923   2.455   3.080  0.3626  2.1594 -0.2309
  453THF    H13 8239   2.093   2.455   3.051 -1.5167  1.3000 -1.6328
  454THF     O1 8240   0.978   4.782   2.952 -0.2390  0.1718 -0.6219
  454THF     C2 8241   1.028   4.754   2.819  0.2201 -0.7655 -0.1496
  454THF     C3 8242   1.014   4.665   3.030  0.5656 -0.6104  0.1015
  454THF     H4 8243   1.135   4.754   2.802  0.3821  2.4672  0.4312
  454THF     H5 8244   0.984   4.829   2.753  0.3406  0.6877  1.3656
  454THF     H6 8245   1.117   4.680   3.063  0.5915  1.3132 -0.7816
  454THF     H7 8246   0.951   4.647   3.118  0.9427 -0.1358  0.4752
  454THF     C8 8247   1.003   4.540   2.938 -0.8957 -0.0998 -0.2637
  454THF     C9 8248   0.982   4.609   2.803  0.8738  0.3432  0.3884
  454THF    H10 8249   0.923   4.471   2.965 -2.9845  2.3473  0.2154
  454THF    H11 8250   1.095   4.483   2.943  0.4621  2.0421  0.5935
  454THF    H12 8251   1.043   4.562   2.726  0.6096  1.5029 -0.5558
  454THF    H13 8252   0.876   4.619   2.777  0.9966  0.8695  0.0889
  455THF     O1 8253   2.753   1.221   4.710 -0.1322  0.2659  0.5105
  455THF     C2 8254   2.713   1.193   4.580 -0.7497  0.3910  0.1089
  455THF     C3 8255   2.703   1.351   4.740 -0.1056 -0.0012 -0.4578
  455THF     H4 8256   2.614   1.146   4.581  0.3252 -1.9980  0.6168
  455THF     H5 8257   2.783   1.125   4.531 -0.4056  1.1134 -0.4185
  455THF     H6 8258   2.594   1.344   4.747 -0.0627 -0.4417 -0.2129
  455THF     H7 8259   2.747   1.388   4.832 -0.1285  1.1277 -0.8891
  455THF     C8 8260   2.735   1.429   4.612  0.2550  0.5543  0.7079
  455THF     C9 8261   2.717   1.321   4.502  0.2329 -0.4019  0.0307
  455THF    H10 8262   2.834   1.476   4.617  0.0291  0.9623  1.5256
  455THF    H11 8263   2.663   1.506   4.586  1.4957  0.4513 -4.0092
  455THF    H12 8264   2.625   1.343   4.448 -0.3849  3.9217  2.4593
  455THF    H13 8265   2.802   1.337   4.435 -0.4660 -1.2710 -1.1128
  456THF     O1 8266   0.385   3.943   4.776 -0.3173 -0.0317 -0.0870
  456THF     C2 8267   0.294   4.050   4.740  0.1398  0.4711 -0.6631
  456THF     C3 8268   0.449   3.996   4.895  0.1107 -0.3650  0.1791
  456THF     H4 8269   0.209   4.018   4.680 -0.2350  1.1605 -0.5133
  456THF     H5 8270   0.352   4.115   4.674  1.8454 -0.5119 -0.1948
  456THF     H6 8271   0.498   3.920   4.956  2.8422  2.8651  2.3855
  456THF     H7 8272   0.518   4.074   4.861  0.9173 -0.9412  0.4584
  456THF     C8 8273   0.325   4.045   4.968 -0.3370 -0.2556  0.0764
  456THF     C9 8274   0.246   4.122   4.866  0.2585  0.6958  0.3069
  456THF    H10 8275   0.339   4.110   5.054 -2.4702  0.3869  0.0008
  456THF    H11 8276   0.263   3.962   5.002  0.6863  0.2664  3.5542
  456THF    H12 8277   0.139   4.122   4.884  0.6541  1.0753  3.2350
  456THF    H13 8278   0.282   4.224   4.853  0.0463  1.1887  2.9007
  457THF     O1 8279   1.224   3.704   0.724 -0.2242 -0.3605 -0.0573
  457THF     C2 8280   1.177   3.722   0.589 -0.5758 -0.7422  0.0243
  457THF     C3 8281   1.121   3.633   0.795 -0.0659  0.1460 -0.4504
  457THF     H4 8282   1.249   3.670   0.525  1.5330  0.4778  1.3133
  457THF     H5 8283   1.196   3.826   0.565  2.1744 -0.9548  0.9794
  457THF     H6 8284   1.146   3.530   0.820 -2.5803 -0.2603  0.7834
  457THF     H7 8285   1.103   3.679   0.892 -0.8963  0.1301 -0.5837
  457THF     C8 8286   1.001   3.639   0.706  0.5470 -0.0280 -0.1627
  457THF     C9 8287   1.034   3.675   0.568 -0.0281  0.2295 -0.0681
  457THF    H10 8288   0.933   3.715   0.745  0.1240 -0.7965  0.6254
  457THF    H11 8289   0.942   3.548   0.717  0.0607  0.2269 -0.6194
  457THF    H12 8290   1.038   3.590   0.500 -0.2453  0.9157 -0.9533
  457THF    H13 8291   0.971   3.755   0.530 -0.8965 -0.5808 -0.3714
  458THF     O1 8292   1.761   2.382   5.444 -0.3242  0.4979 -0.0952
  458THF     C2 8293   1.846   2.273   5.427 -0.3859 -0.2852  0.0604
  458THF     C3 8294   1.795   2.476   5.352  0.3605 -0.0950  0.4324
  458THF     H4 8295   1.781   2.186   5.417 -1.9670  0.6337  1.7127
  458THF     H5 8296   1.908   2.281   5.516 -0.7420  1.9356  0.1668
  458THF     H6 8297   1.707   2.524   5.309 -0.4473 -1.3815  0.5952
  458THF     H7 8298   1.861   2.550   5.397  1.7601 -0.4589 -0.9381
  458THF     C8 8299   1.859   2.403   5.240 -0.1666  0.4800  0.7239
  458THF     C9 8300   1.935   2.288   5.307  0.0518 -0.0547 -0.1669
  458THF    H10 8301   1.930   2.465   5.186 -1.2771  1.0384 -0.1249
  458THF    H11 8302   1.785   2.366   5.169  0.1436  2.3908 -0.6791
  458THF    H12 8303   1.954   2.194   5.255  1.3875  0.3892 -0.5371
  458THF    H13 8304   2.035   2.315   5.343 -0.1161 -0.0775  0.3299
  459THF     O1 8305   0.699   0.088   2.037  0.2102 -0.1670  0.0298
  459THF     C2 8306   0.820   0.097   2.110 -0.5201 -0.1357  0.2599
  459THF     C3 8307   0.651  -0.044   2.049 -0.3488 -0.2784 -0.7710
  459THF     H4 8308   0.800   0.173   2.186  0.8111  0.0067  0.4945
  459THF     H5 8309   0.906   0.116   2.046 -1.2919 -0.0688 -0.7769
  459THF     H6 8310   0.576  -0.042   2.128  0.8728 -2.2260  0.4875
  459THF     H7 8311   0.597  -0.076   1.959 -1.5572  0.4877 -0.3458
  459THF     C8 8312   0.766  -0.126   2.093 -0.1088  0.3804 -0.4736
  459THF     C9 8313   0.839  -0.038   2.180  0.2046  0.1171 -0.0992
  459THF    H10 8314   0.834  -0.143   2.009 -0.4540  0.4384 -0.7711
  459THF    H11 8315   0.742  -0.218   2.145  2.7518  0.0550  0.4075
  459THF    H12 8316   0.779  -0.022   2.270  0.8893 -1.0729  0.5899
  459THF    H13 8317   0.940  -0.073   2.198 -0.9025 -2.4215  1.7277
  460THF     O1 8318   3.503   4.159   5.182  0.0791  0.1472  0.0242
  460THF     C2 8319   3.477   4.281   5.120 -0.7668 -1.1219 -0.2907
  460THF     C3 8320   3.536   4.201   5.317 -0.0591  0.4093 -0.3553
  460THF     H4 8321   3.432   4.264   5.022 -0.8831  1.3760 -0.7368
  460THF     H5 8322   3.575   4.324   5.100 -1.0942 -0.6323 -0.9099
  460THF     H6 8323   3.527   4.121   5.391  0.5130 -0.3047 -1.0368
  460THF     H7 8324   3.641   4.229   5.325  0.0173  0.2563 -0.8068
  460THF     C8 8325   3.442   4.313   5.347 -0.7165 -0.2114 -0.1391
  460THF     C9 8326   3.390   4.364   5.215 -0.2417  0.3109  0.1973
  460THF    H10 8327   3.483   4.384   5.419  0.2725 -0.4664 -0.4389
  460THF    H11 8328   3.358   4.267   5.398 -1.4021  1.5364  0.3621
  460THF    H12 8329   3.282   4.350   5.220 -0.2509 -0.2428 -1.1100
  460THF    H13 8330   3.404   4.471   5.199 -3.0293  0.4881 -1.6058
  461THF     O1 8331   3.513   0.828   0.319  0.1152  0.4161  1.0177
  461THF     C2 8332   3.641   0.764   0.330 -0.4396 -0.0176  0.1406
  461THF     C3 8333   3.418   0.733   0.271 -0.1853 -0.3130 -0.4406
  461THF     H4 8334   3.713   0.825   0.384 -0.1459 -2.3519  2.5630
  461THF     H5 8335   3.685   0.739   0.233  0.6922  0.1380  0.5952
  461THF     H6 8336   3.326   0.766   0.319  1.1704  1.5955  1.0262
  461THF     H7 8337   3.408   0.729   0.163  0.6899  0.9327 -0.5948
  461THF     C8 8338   3.468   0.597   0.325  0.2525 -0.1525 -0.0117
  461THF     C9 8339   3.602   0.634   0.395  0.4756  0.7311  0.3095
  461THF    H10 8340   3.472   0.520   0.248  0.8022 -0.7483  0.6045
  461THF    H11 8341   3.407   0.551   0.403  0.8022  1.0795  1.1927
  461THF    H12 8342   3.583   0.659   0.499  0.1632 -0.1663  0.4772
  461THF    H13 8343   3.672   0.551   0.406  0.1368  0.4033  0.0254
  462THF     O1 8344   0.590   3.263   1.962  0.8735  0.3084  0.0021
  462THF     C2 8345   0.599   3.122   1.969 -0.4646 -0.1862 -0.3084
  462THF     C3 8346   0.594   3.303   1.828  0.8722  0.2145 -0.4814
  462THF     H4 8347   0.502   3.073   1.978 -0.4755 -0.1934 -0.4767
  462THF     H5 8348   0.656   3.096   2.058  2.2851  1.0147 -1.6233
  462THF     H6 8349   0.496   3.316   1.783  1.0338 -1.8700 -1.5705
  462THF     H7 8350   0.633   3.404   1.819 -0.0409  0.7446  1.0957
  462THF     C8 8351   0.668   3.193   1.746  0.8523  0.5500 -0.3186
  462THF     C9 8352   0.663   3.070   1.834 -0.3326  0.0313  0.2070
  462THF    H10 8353   0.770   3.217   1.713  0.7070 -2.1275 -3.1058
  462THF    H11 8354   0.625   3.172   1.648  3.0875 -0.0933 -1.2377
  462THF    H12 8355   0.618   2.983   1.787 -1.5049  1.0550 -0.6329
  462THF    H13 8356   0.763   3.045   1.869 -0.6085 -0.4527  0.6677
  463THF     O1 8357   1.173   1.199   2.616 -1.1521  0.3345  0.0830
  463THF     C2 8358   1.282   1.279   2.564  0.2397 -0.6329  0.4764
  463THF     C3 8359   1.172   1.074   2.544 -0.2922 -1.0623  0.9097
  463THF     H4 8360   1.344   1.307   2.649  1.5349  0.3702 -0.7661
  463THF     H5 8361   1.254   1.372   2.515  0.7772 -0.6721  0.0907
  463THF     H6 8362   1.131   0.993   2.605 -1.2444 -1.1246  0.2062
  463THF     H7 8363   1.113   1.083   2.452  1.3937 -1.4625 -0.2732
  463THF     C8 8364   1.325   1.059   2.518  0.2063  0.1421  0.2437
  463THF     C9 8365   1.362   1.195   2.470  0.3592 -0.3445 -1.4090
  463THF    H10 8366   1.349   0.976   2.451 -1.3441 -0.7049  0.6788
  463THF    H11 8367   1.377   1.041   2.612  1.5144  2.1843 -0.0223
  463THF    H12 8368   1.468   1.211   2.485  0.1974  1.4472 -1.8562
  463THF    H13 8369   1.327   1.225   2.371 -1.9843  0.5341 -0.3963
  464THF     O1 8370   4.936   4.983   2.441 -0.0269  0.2545 -0.1269
  464THF     C2 8371   4.802   5.010   2.483 -0.4579 -0.6332  0.2480
  464THF     C3 8372   5.022   5.088   2.468 -0.3320  0.0997 -0.2006
  464THF     H4 8373   4.765   4.924   2.538 -0.2834 -0.5023  0.5750
  464THF     H5 8374   4.743   5.011   2.392  0.5566 -1.1487 -0.4276
  464THF     H6 8375   5.125   5.060   2.487 -0.4192 -1.6605 -1.9927
  464THF     H7 8376   5.014   5.158   2.385 -0.6992  1.4854  0.9566
  464THF     C8 8377   4.961   5.155   2.588  0.0101 -0.5538  0.1683
  464THF     C9 8378   4.808   5.145   2.554  0.0882 -0.1559 -0.6398
  464THF    H10 8379   5.002   5.256   2.592 -1.6228  0.1875 -0.6763
  464THF    H11 8380   4.973   5.089   2.674  0.0531 -0.3606  0.3124
  464THF    H12 8381   4.743   5.150   2.641 -0.7362 -2.7439 -1.0028
  464THF    H13 8382   4.778   5.236   2.502  0.5327  0.8070  0.7370
  465THF     O1 8383   1.094   0.997   3.445  0.0218  0.1217  0.1863
  465THF     C2 8384   1.141   0.974   3.580 -0.4307 -0.1371  0.5111
  465THF     C3 8385   1.211   1.001   3.363  0.0856 -0.1967  0.1047
  465THF     H4 8386   1.070   0.934   3.652 -0.1270 -0.9121  0.3894
  465THF     H5 8387   1.178   1.071   3.613 -0.0685  0.2391 -0.9311
  465THF     H6 8388   1.190   0.994   3.256 -2.6023  0.4014  0.5244
  465THF     H7 8389   1.248   1.102   3.381  0.1537  0.1884 -1.9358
  465THF     C8 8390   1.288   0.878   3.414  0.8436 -0.4974  0.0518
  465THF     C9 8391   1.255   0.876   3.561 -0.1499 -0.0140  0.2992
  465THF    H10 8392   1.395   0.883   3.394  0.8650  2.0051  0.5106
  465THF    H11 8393   1.245   0.790   3.366  0.0414  0.5895 -1.3172
  465THF    H12 8394   1.213   0.779   3.587 -1.1320  0.1870 -0.4671
  465THF    H13 8395   1.344   0.884   3.623 -0.2501  0.8160  0.3422
  466THF     O1 8396   2.305   1.116   4.018 -0.2942 -0.7071 -0.1545
  466THF     C2 8397   2.220   1.216   3.962 -0.2018 -1.0339 -0.4193
  466THF     C3 8398   2.430   1.111   3.953  0.4412 -0.1911  0.0111
  466THF     H4 8399   2.240   1.311   4.012  0.2088 -0.7756 -1.0653
  466THF     H5 8400   2.115   1.188   3.966 -0.1050 -1.3830 -0.3300
  466THF     H6 8401   2.507   1.167   4.007  0.3591 -0.0121 -0.0569
  466THF     H7 8402   2.459   1.008   3.935 -0.7481 -0.6735  0.7329
  466THF     C8 8403   2.410   1.176   3.817 -0.4017 -0.0331  0.0070
  466THF     C9 8404   2.260   1.202   3.819 -0.0686 -0.3090  0.3039
  466THF    H10 8405   2.450   1.118   3.733  0.1911  0.6828 -0.2082
  466THF    H11 8406   2.456   1.274   3.814  0.2801 -0.3306  0.4273
  466THF    H12 8407   2.219   1.278   3.751  1.8725  0.0124 -0.5924
  466THF    H13 8408   2.209   1.110   3.792 -1.2726 -0.3891  2.6090
  467THF     O1 8409   4.843   3.816   4.813 -0.0653 -0.5823  0.1111
  467THF     C2 8410   4.928   3.711   4.863 -0.3772  0.5494 -1.2403
  467THF     C3 8411   4.722   3.812   4.884 -0.2688 -0.2829  0.0266
  467THF     H4 8412   5.032   3.712   4.829 -0.0278 -1.8043 -0.4241
  467THF     H5 8413   4.885   3.612   4.849 -1.8844  1.1545 -1.0816
  467THF     H6 8414   4.667   3.906   4.880 -0.5165 -0.4450 -0.3622
  467THF     H7 8415   4.668   3.724   4.851  0.5216 -0.3851 -1.0245
  467THF     C8 8416   4.775   3.795   5.027 -0.5042  0.0021 -0.7843
  467THF     C9 8417   4.915   3.734   5.008  0.9167  0.5895  0.8473
  467THF    H10 8418   4.711   3.724   5.080 -2.2493  0.2352 -2.4529
  467THF    H11 8419   4.777   3.887   5.085  0.7000 -0.1197 -0.6074
  467THF    H12 8420   4.981   3.808   5.054 -0.4316  1.0827  2.0828
  467THF    H13 8421   4.922   3.642   5.066  0.0519  0.8475  1.3894
  468THF     O1 8422   0.292   3.892   0.769 -0.1646 -0.5553  0.1058
  468THF     C2 8423   0.302   3.795   0.664 -0.2194 -0.4729  0.3239
  468THF     C3 8424   0.334   3.830   0.893 -0.0178  0.2039 -0.0176
  468THF     H4 8425   0.400   3.793   0.616 -0.7624 -0.2322 -0.8180
  468THF     H5 8426   0.229   3.835   0.593  0.0700  2.3471  1.4502
  468THF     H6 8427   0.441   3.845   0.896  0.1331 -0.9430  1.1460
  468THF     H7 8428   0.287   3.870   0.983 -1.1629 -0.9863 -0.0482
  468THF     C8 8429   0.319   3.681   0.876  0.0800 -0.4158 -0.0218
  468THF     C9 8430   0.271   3.664   0.732 -0.0045  0.5102  0.2858
  468THF    H10 8431   0.256   3.630   0.948 -1.4984 -0.1900 -1.2046
  468THF    H11 8432   0.420   3.639   0.885 -0.0406 -0.5095  1.0499
  468THF    H12 8433   0.289   3.580   0.665  2.2470  0.1374  1.2539
  468THF    H13 8434   0.164   3.665   0.749 -0.5312 -1.9078 -2.1656
  469THF     O1 8435   5.459   5.415   3.179  0.5366 -1.1714 -0.3429
  469THF     C2 8436   5.478   5.357   3.308  0.4357  0.0656 -0.3207
  469THF     C3 8437   5.504   5.555   3.187 -0.2271 -0.0627  0.0844
  469THF     H4 8438   5.520   5.260   3.280  0.5759  0.4842 -1.6104
  469THF     H5 8439   5.378   5.351   3.351 -0.5406  0.7707 -2.3799
  469THF     H6 8440   5.511   5.578   3.080 -1.3011  2.3708  0.4896
  469THF     H7 8441   5.427   5.618   3.231  0.2722 -0.1411  1.0753
  469THF     C8 8442   5.624   5.539   3.282  0.7737 -0.0568  0.2881
  469THF     C9 8443   5.567   5.449   3.389 -0.1734 -0.2868  0.7609
  469THF    H10 8444   5.655   5.635   3.324 -1.1110 -0.8106  3.8356
  469THF    H11 8445   5.715   5.501   3.235  0.5565  1.7650 -1.7530
  469THF    H12 8446   5.643   5.404   3.453 -1.8890 -2.7372  1.2114
  469THF    H13 8447   5.505   5.504   3.460 -1.2799  1.3509 -1.3750
  470THF     O1 8448   1.210   2.746   4.790 -0.8243  0.7518  0.1420
  470THF     C2 8449   1.106   2.651   4.777 -0.5233  0.1797  0.3407
  470THF     C3 8450   1.246   2.764   4.929 -0.0117  0.2360  0.1313
  470THF     H4 8451   1.132   2.565   4.714  0.1021 -0.2414  1.1508
  470THF     H5 8452   1.027   2.704   4.723  0.2746  2.0077  0.8932
  470THF     H6 8453   1.327   2.702   4.967  1.3245  1.9719  0.1996
  470THF     H7 8454   1.268   2.868   4.951 -2.1994  0.5927  0.9039
  470THF     C8 8455   1.114   2.733   4.989 -0.3692 -0.3477  0.3705
  470THF     C9 8456   1.055   2.617   4.911 -0.4007 -0.5340 -0.1258
  470THF    H10 8457   1.053   2.823   4.986  2.3737  1.6405  0.8749
  470THF    H11 8458   1.125   2.695   5.091  0.0911 -1.9063 -0.2355
  470THF    H12 8459   1.086   2.520   4.948  1.0812 -0.9134 -2.1939
  470THF    H13 8460   0.947   2.630   4.916 -0.1300  1.8844  1.2000
  471THF     O1 8461   0.210   2.403   4.119 -0.5583  0.2030 -0.2195
  471THF     C2 8462   0.149   2.471   4.230 -1.2176  0.6603  0.3644
  471THF     C3 8463   0.141   2.440   3.998 -0.3851 -0.4140 -1.2129
  471THF     H4 8464   0.222   2.489   4.308  0.2777  2.8338 -1.4019
  471THF     H5 8465   0.062   2.411   4.259  0.1489 -1.2771  0.6348
  471THF     H6 8466   0.216   2.442   3.919  2.3063 -1.3223  1.1864
  471THF     H7 8467   0.062   2.366   3.984 -1.4102  0.6972 -1.4566
  471THF     C8 8468   0.071   2.575   4.033  0.2160  0.1808  0.2896
  471THF     C9 8469   0.103   2.603   4.179 -0.3908  0.4944  0.3057
  471THF    H10 8470  -0.037   2.581   4.018  0.3375 -0.8284 -1.1810
  471THF    H11 8471   0.109   2.654   3.968 -0.4595 -0.4062 -0.8485
  471THF    H12 8472   0.192   2.666   4.176  1.4242 -1.8992 -1.5674
  471THF    H13 8473   0.034   2.664   4.237  0.9518  2.9182 -0.4933
  472THF     O1 8474   0.971   0.787   1.477  0.2642  0.0843  0.3716
  472THF     C2 8475   1.088   0.816   1.400 -0.7220  0.2874 -0.2371
  472THF     C3 8476   1.008   0.699   1.579 -0.2379  0.0230 -0.4407
  472THF     H4 8477   1.078   0.909   1.344  1.7664  0.7958  0.0421
  472THF     H5 8478   1.109   0.732   1.334 -0.1518 -0.1277  0.4599
  472THF     H6 8479   0.937   0.691   1.661 -1.2107 -2.4899 -1.4271
  472THF     H7 8480   1.026   0.599   1.540 -1.8778 -1.0150  1.3309
  472THF     C8 8481   1.136   0.753   1.629 -0.4932 -0.3031  0.4939
  472THF     C9 8482   1.205   0.812   1.505  0.7216 -0.1967 -0.2765
  472THF    H10 8483   1.198   0.682   1.684  1.0118  0.6268  0.0697
  472THF    H11 8484   1.120   0.843   1.688 -1.1162  0.2231 -0.4583
  472THF    H12 8485   1.235   0.913   1.534 -1.0296  0.3894 -0.3596
  472THF    H13 8486   1.296   0.755   1.490  1.2168  0.4765  0.1291
  473THF     O1 8487   3.249   5.451   1.714  0.0769  0.2044 -0.2876
  473THF     C2 8488   3.124   5.429   1.765  0.8158 -0.2717 -0.7854
  473THF     C3 8489   3.237   5.512   1.587  0.5962 -0.6592 -0.6258
  473THF     H4 8490   3.104   5.500   1.845 -2.1742 -1.3807 -0.4105
  473THF     H5 8491   3.113   5.328   1.804 -0.3459  0.3931  0.7128
  473THF     H6 8492   3.301   5.601   1.593  0.2244 -0.4783  1.9997
  473THF     H7 8493   3.279   5.450   1.508 -0.6749 -1.8474 -0.4009
  473THF     C8 8494   3.092   5.556   1.574  0.0319 -0.4225 -0.0374
  473THF     C9 8495   3.029   5.454   1.657  0.3358 -0.6405  1.0000
  473THF    H10 8496   3.059   5.560   1.470 -1.3008 -0.5120  0.3672
  473THF    H11 8497   3.072   5.652   1.621 -1.9845 -0.7049 -0.2139
  473THF    H12 8498   2.923   5.462   1.683  0.3560  0.6372  0.7494
  473THF    H13 8499   3.022   5.362   1.600 -0.3951 -0.2232  0.3903
  474THF     O1 8500   0.431   4.812   4.550  0.9023 -0.1574 -0.4177
  474THF     C2 8501   0.363   4.754   4.655 -0.5581  0.1820 -0.0847
  474THF     C3 8502   0.324   4.860   4.465  0.0759 -0.3050  0.1300
  474THF     H4 8503   0.433   4.745   4.738 -0.5270 -1.4503 -0.2663
  474THF     H5 8504   0.323   4.653   4.646  0.8354 -0.4828  0.8266
  474THF     H6 8505   0.361   4.919   4.380 -0.7327 -1.1248 -0.8190
  474THF     H7 8506   0.271   4.773   4.427 -0.4577  0.1221 -0.1117
  474THF     C8 8507   0.244   4.947   4.563  0.3372 -0.9741  0.3715
  474THF     C9 8508   0.255   4.856   4.688 -0.0639  0.7606 -0.0633
  474THF    H10 8509   0.146   4.978   4.527  0.4257 -1.6547 -0.4775
  474THF    H11 8510   0.295   5.044   4.567 -2.1586  0.5145 -1.3563
  474THF    H12 8511   0.284   4.923   4.768  1.1986  1.6619 -1.2327
  474THF    H13 8512   0.161   4.807   4.714  0.1996 -1.4504 -2.8142
  475THF     O1 8513   2.163   2.058   0.121  0.1966  0.3156 -0.1349
  475THF     C2 8514   2.031   2.030   0.064  0.4124  0.2044  0.4729
  475THF     C3 8515   2.216   1.953   0.198  0.0439 -0.7397  0.6588
  475THF     H4 8516   2.020   2.039  -0.044  1.4446  2.0596  0.4744
  475THF     H5 8517   1.967   2.097   0.122  1.1841 -1.0035  2.8804
  475THF     H6 8518   2.270   1.900   0.120  0.5073 -0.5122  0.8211
  475THF     H7 8519   2.277   1.970   0.286 -0.1192 -1.6599  0.9658
  475THF     C8 8520   2.094   1.867   0.231 -0.1434 -0.4903 -0.7083
  475THF     C9 8521   2.000   1.889   0.115 -0.4356  0.3398 -0.2808
  475THF    H10 8522   2.060   1.899   0.329 -1.0711 -0.6570 -0.9642
  475THF    H11 8523   2.129   1.765   0.248 -1.3741 -0.9057 -0.5191
  475THF    H12 8524   2.026   1.813   0.042  3.0122  0.8365  0.2935
  475THF    H13 8525   1.895   1.880   0.144 -0.2439 -1.3494 -0.0397
  476THF     O1 8526   3.625   0.289   2.682 -0.2459 -0.3015 -0.2066
  476THF     C2 8527   3.491   0.318   2.723 -0.1312  0.0388  0.0658
  476THF     C3 8528   3.653   0.151   2.689 -0.0592 -0.4324 -0.2236
  476THF     H4 8529   3.421   0.291   2.643 -0.1043  0.3134 -0.0513
  476THF     H5 8530   3.480   0.426   2.737 -0.7836  0.4346 -2.8575
  476THF     H6 8531   3.594   0.097   2.614 -0.8263  0.1335 -0.0437
  476THF     H7 8532   3.758   0.129   2.673 -0.1937 -0.5042 -1.0907
  476THF     C8 8533   3.588   0.113   2.831  0.0110 -0.4598  0.8487
  476THF     C9 8534   3.483   0.232   2.851  0.0863  0.4214 -0.1902
  476THF    H10 8535   3.666   0.127   2.905 -1.2731  2.4298  1.8138
  476THF    H11 8536   3.551   0.014   2.858  0.5026 -0.5342  1.2522
  476THF    H12 8537   3.381   0.196   2.855  0.0395  0.4648 -0.8837
  476THF    H13 8538   3.505   0.295   2.937 -0.7896 -1.8862  1.8236
  477THF     O1 8539   2.805   2.475   3.553  0.3129 -0.6243 -0.3419
  477THF     C2 8540   2.836   2.584   3.469 -0.2789  0.0996  0.3030
  477THF     C3 8541   2.664   2.477   3.565  0.0935 -0.1382 -0.7559
  477THF     H4 8542   2.821   2.570   3.362  0.3508  0.7853  0.1180
  477THF     H5 8543   2.940   2.609   3.488 -0.1951 -0.5503  0.7172
  477THF     H6 8544   2.614   2.394   3.515  0.1199 -2.5958  2.9395
  477THF     H7 8545   2.634   2.465   3.669 -0.8007 -0.6309 -1.0632
  477THF     C8 8546   2.611   2.609   3.510 -0.4795  0.7677  0.2083
  477THF     C9 8547   2.737   2.692   3.520  0.4117  0.1097  0.8167
  477THF    H10 8548   2.528   2.644   3.571 -2.2943 -1.2739 -0.9884
  477THF    H11 8549   2.572   2.594   3.410  0.1565  0.5406 -0.0095
  477THF    H12 8550   2.723   2.781   3.459 -0.9962 -0.7593 -0.1866
  477THF    H13 8551   2.758   2.703   3.626  0.3571  0.5330  0.7881
  478THF     O1 8552   0.576   4.943   2.632 -0.4539 -0.4317 -0.1339
  478THF     C2 8553   0.476   4.954   2.537  0.0725 -0.1500 -0.0824
  478THF     C3 8554   0.582   4.804   2.664 -0.0786  0.1981 -0.1199
  478THF     H4 8555   0.478   5.048   2.481  0.4194 -0.8187 -1.2290
  478THF     H5 8556   0.381   4.938   2.587 -0.7321  1.1602 -1.1177
  478THF     H6 8557   0.665   4.772   2.727 -0.1628  0.3815  0.0826
  478THF     H7 8558   0.490   4.779   2.717  1.1241 -0.6136  1.6995
  478THF     C8 8559   0.587   4.755   2.517 -0.4323 -0.1123  0.0974
  478THF     C9 8560   0.512   4.847   2.436  0.4896  0.1280 -1.2782
  478THF    H10 8561   0.558   4.651   2.497 -1.1171  0.6006 -3.0803
  478THF    H11 8562   0.692   4.757   2.486 -0.5756  1.0511 -0.3528
  478THF    H12 8563   0.566   4.890   2.352  2.4440  0.9290  0.2938
  478THF    H13 8564   0.417   4.803   2.404  0.7628 -2.0792  0.6530
  479THF     O1 8565   0.277   0.372   0.788 -0.5594  0.5268  0.4210
  479THF     C2 8566   0.394   0.315   0.731 -0.1278 -0.9707 -0.3159
  479THF     C3 8567   0.204   0.273   0.859  0.0380 -0.1521 -0.0177
  479THF     H4 8568   0.455   0.305   0.821  1.2143  0.1314 -1.0656
  479THF     H5 8569   0.449   0.377   0.660 -0.7744 -0.6048 -0.4981
  479THF     H6 8570   0.235   0.266   0.963 -2.3734  2.2474  0.9699
  479THF     H7 8571   0.099   0.300   0.869  0.0550 -0.3334  0.6962
  479THF     C8 8572   0.231   0.143   0.784  0.2875  0.0608  0.9124
  479THF     C9 8573   0.339   0.181   0.687  0.4496  0.2906 -0.3129
  479THF    H10 8574   0.144   0.115   0.724  0.0549  1.2048  0.6815
  479THF    H11 8575   0.267   0.064   0.849  0.4333 -1.1583 -0.6008
  479THF    H12 8576   0.417   0.104   0.683  0.0738 -0.0479 -1.8828
  479THF    H13 8577   0.306   0.178   0.583 -0.4208 -0.9649 -0.0202
  480THF     O1 8578   4.031   0.723   3.229  0.0247 -0.0175 -0.3236
  480THF     C2 8579   3.950   0.820   3.278  0.0084  0.2107 -0.1902
  480THF     C3 8580   4.105   0.767   3.118 -0.0939 -0.0465  1.0799
  480THF     H4 8581   4.005   0.897   3.333  2.9346 -0.8414 -1.4294
  480THF     H5 8582   3.878   0.760   3.333  1.8594 -1.5378  0.4542
  480THF     H6 8583   4.197   0.814   3.154  0.3022 -1.0368  1.3860
  480THF     H7 8584   4.121   0.693   3.039 -1.4128  1.4715 -0.6913
  480THF     C8 8585   4.014   0.880   3.062  0.3688 -0.0701 -0.4274
  480THF     C9 8586   3.890   0.880   3.153 -0.3105  0.3063 -0.4646
  480THF    H10 8587   3.988   0.859   2.959  0.5538  1.1808 -0.7447
  480THF    H11 8588   4.057   0.980   3.064  2.3211 -0.7329 -3.1494
  480THF    H12 8589   3.852   0.978   3.184 -0.8625 -0.6352  2.0983
  480THF    H13 8590   3.814   0.821   3.102 -0.6703  0.7652 -0.4762
  481THF     O1 8591   5.238   3.860   1.281 -0.2082  0.0815  0.1331
  481THF     C2 8592   5.262   3.992   1.243 -0.2224  0.6357 -0.5701
  481THF     C3 8593   5.164   3.858   1.405 -0.3031  0.5648 -0.5394
  481THF     H4 8594   5.172   4.039   1.203 -0.0648  1.4994  0.0525
  481THF     H5 8595   5.349   4.006   1.179  0.7305  1.1431  0.7950
  481THF     H6 8596   5.061   3.829   1.383  0.0088  0.8842 -2.5794
  481THF     H7 8597   5.205   3.776   1.464 -1.4485 -1.7922 -2.8115
  481THF     C8 8598   5.190   3.991   1.467  0.3511 -0.2920  0.5151
  481THF     C9 8599   5.293   4.053   1.372  0.7148  0.0249  0.3808
  481THF    H10 8600   5.205   3.991   1.575  0.9719  0.3159  0.4309
  481THF    H11 8601   5.099   4.050   1.455  1.3938  1.0660 -1.1090
  481THF    H12 8602   5.277   4.161   1.374  1.0955  0.0993 -0.3019
  481THF    H13 8603   5.395   4.025   1.399  0.5833  0.7166  1.6864
  482THF     O1 8604   2.151   4.740   0.981  0.1653  0.0705  0.4972
  482THF     C2 8605   2.036   4.650   0.990 -0.6628 -0.2071 -0.3399
  482THF     C3 8606   2.243   4.682   0.883  0.3989  0.4271 -0.2547
  482THF     H4 8607   1.945   4.696   1.029 -0.9788 -0.1202 -1.1580
  482THF     H5 8608   2.058   4.567   1.057 -1.0004 -0.3257 -0.3742
  482THF     H6 8609   2.306   4.762   0.846  0.3769 -0.0521 -1.3581
  482THF     H7 8610   2.303   4.609   0.938 -1.8882 -0.7353  0.8625
  482THF     C8 8611   2.153   4.627   0.778  0.9658  0.1703  1.0588
  482THF     C9 8612   2.014   4.609   0.846 -0.2027 -0.8022 -0.0483
  482THF    H10 8613   2.191   4.537   0.730  0.9891 -1.2895  3.6359
  482THF    H11 8614   2.142   4.707   0.705 -1.3320  0.5660  1.7595
  482THF    H12 8615   1.938   4.671   0.799 -0.0208  0.2578  1.0185
  482THF    H13 8616   1.963   4.512   0.842 -1.9650  0.0159  0.9521
  483THF     O1 8617   0.188   1.988   5.421 -0.2386 -0.3434 -0.2087
  483THF     C2 8618   0.163   2.023   5.288  0.5168  0.1226 -0.1398
  483THF     C3 8619   0.323   1.953   5.441  0.1093  0.9765  0.4727
  483THF     H4 8620   0.194   2.126   5.277 -1.2668  0.9121  1.5679
  483THF     H5 8621   0.056   2.014   5.265  0.7029 -0.1578 -0.9340
  483THF     H6 8622   0.380   2.040   5.474  0.6116  0.6002  0.6068
  483THF     H7 8623   0.312   1.880   5.521 -1.9809  0.2879 -0.3708
  483THF     C8 8624   0.371   1.905   5.303 -0.1737  0.2955  0.7953
  483THF     C9 8625   0.250   1.930   5.210 -0.2405 -0.3467  0.2188
  483THF    H10 8626   0.397   1.800   5.314  0.2532  0.3385  0.2252
  483THF    H11 8627   0.461   1.959   5.275  1.5472 -2.0133  1.6634
  483THF    H12 8628   0.260   1.976   5.111 -2.7291  1.1060  0.5719
  483THF    H13 8629   0.202   1.833   5.203  0.7218 -0.7314 -1.6573
  484THF     O1 8630   4.292   5.316   1.702 -0.7842 -0.0131 -0.2942
  484THF     C2 8631   4.378   5.364   1.805 -0.7232  0.5347 -0.2757
  484THF     C3 8632   4.312   5.410   1.597  0.2339 -0.2673  0.5551
  484THF     H4 8633   4.398   5.303   1.893 -1.6874  1.2174  0.4435
  484THF     H5 8634   4.332   5.450   1.854  0.3387  0.6205  0.6076
  484THF     H6 8635   4.278   5.365   1.504  0.7990 -0.2525  0.3391
  484THF     H7 8636   4.259   5.506   1.600  2.0670  0.7803  1.6308
  484THF     C8 8637   4.464   5.434   1.591 -0.0410  0.3239 -0.2401
  484THF     C9 8638   4.504   5.408   1.732 -0.2416  0.0878 -0.4286
  484THF    H10 8639   4.486   5.533   1.550  0.0486 -0.1397 -1.3415
  484THF    H11 8640   4.516   5.364   1.525  0.4076 -0.3321  0.7820
  484THF    H12 8641   4.579   5.329   1.729  0.0364  0.3575 -0.7482
  484THF    H13 8642   4.531   5.497   1.789  1.2138 -1.4215  1.3623
  485THF     O1 8643   3.150   2.620   0.907  0.1302  0.1433  0.4648
  485THF     C2 8644   3.124   2.621   1.046 -0.4179  0.6853  0.5338
  485THF     C3 8645   3.019   2.628   0.840 -0.5278 -0.1159 -0.1321
  485THF     H4 8646   3.207   2.649   1.111  0.6882  0.0826 -0.5777
  485THF     H5 8647   3.079   2.529   1.081  2.4236 -1.4803 -1.1040
  485THF     H6 8648   3.013   2.674   0.741 -1.0743  0.6282  0.2381
  485THF     H7 8649   2.987   2.524   0.824 -0.2319 -0.3028  0.4729
  485THF     C8 8650   2.932   2.711   0.933 -0.4036 -0.0153  0.2917
  485THF     C9 8651   3.025   2.732   1.055  1.1342  1.1703  0.6126
  485THF    H10 8652   2.848   2.645   0.957  0.0904 -1.2090 -1.1070
  485THF    H11 8653   2.896   2.806   0.891 -0.5081 -0.4880 -0.7292
  485THF    H12 8654   3.069   2.832   1.057  1.1242  1.1692  1.0045
  485THF    H13 8655   2.968   2.733   1.148 -0.4313  0.4058 -0.2854
  486THF     O1 8656   3.256   5.052   5.241 -0.1635  0.1837  0.2606
  486THF     C2 8657   3.283   5.193   5.257 -0.1276 -0.2118  0.4538
  486THF     C3 8658   3.367   4.982   5.304 -0.4472 -0.1332  1.0236
  486THF     H4 8659   3.258   5.227   5.357  0.2504  0.6049  0.2764
  486THF     H5 8660   3.221   5.260   5.197  4.2874  4.9439  0.9121
  486THF     H6 8661   3.345   4.974   5.410  2.0432  2.3588  1.8385
  486THF     H7 8662   3.391   4.885   5.259 -0.5942  0.6538 -0.8402
  486THF     C8 8663   3.491   5.076   5.280 -0.0984 -0.3008 -0.3303
  486THF     C9 8664   3.434   5.209   5.235 -0.0144 -0.3187 -0.6693
  486THF    H10 8665   3.553   5.026   5.207 -0.1153 -0.4798 -0.2218
  486THF    H11 8666   3.555   5.094   5.366 -1.7104  1.0737  0.6665
  486THF    H12 8667   3.477   5.298   5.283  0.1184 -0.7364  0.0113
  486THF    H13 8668   3.444   5.220   5.127 -0.8948  2.0356 -0.5909
  487THF     O1 8669   1.304   3.146   3.507  0.3507 -0.0851 -0.5362
  487THF     C2 8670   1.353   3.205   3.390 -0.6053  0.9595  0.1409
  487THF     C3 8671   1.264   3.010   3.494 -0.6818  0.0209 -0.1002
  487THF     H4 8672   1.409   3.297   3.404 -0.5237  0.9373 -0.0355
  487THF     H5 8673   1.266   3.238   3.332 -1.5422 -0.8852  0.4001
  487THF     H6 8674   1.271   2.969   3.595  1.6951  1.2050  0.2862
  487THF     H7 8675   1.163   3.012   3.454 -2.0522  0.5285  3.0685
  487THF     C8 8676   1.364   2.959   3.382 -0.4643 -0.2459  0.3191
  487THF     C9 8677   1.428   3.090   3.321  0.2541 -0.0298 -0.0082
  487THF    H10 8678   1.300   2.919   3.304 -0.1418  1.1950 -0.7258
  487THF    H11 8679   1.436   2.889   3.425  0.5298  0.3728 -0.2869
  487THF    H12 8680   1.533   3.085   3.350  0.1626  0.4942  0.4194
  487THF    H13 8681   1.425   3.098   3.213  3.8283  1.7492 -0.1184
  488THF     O1 8682   3.512   4.390   4.471 -0.2424  0.2301  0.6259
  488THF     C2 8683   3.521   4.361   4.608  0.7795  0.0108 -0.1368
  488THF     C3 8684   3.648   4.379   4.427 -0.5146  0.7017 -0.7570
  488THF     H4 8685   3.429   4.309   4.636 -1.7715  3.9143 -0.4107
  488THF     H5 8686   3.499   4.457   4.655 -1.9114  0.0697 -1.2919
  488THF     H6 8687   3.656   4.298   4.354 -1.1898  0.0969 -0.1672
  488THF     H7 8688   3.677   4.461   4.361  1.4302 -0.1258 -1.0078
  488THF     C8 8689   3.737   4.374   4.546 -0.2546 -0.2861  0.1980
  488THF     C9 8690   3.650   4.299   4.651  0.5707 -0.3975 -0.0722
  488THF    H10 8691   3.769   4.472   4.581 -2.2509  1.1760 -1.8406
  488THF    H11 8692   3.828   4.317   4.528 -0.7893 -1.1852  0.3009
  488THF    H12 8693   3.661   4.192   4.632  3.0572 -0.0648 -0.7769
  488THF    H13 8694   3.677   4.315   4.755  0.0928  0.9073 -0.1288
  489THF     O1 8695   0.272   4.757   0.285 -0.2146  1.2538 -0.2729
  489THF     C2 8696   0.293   4.743   0.429 -0.0999  0.2882  0.3395
  489THF     C3 8697   0.346   4.864   0.247 -0.5946 -0.0070  0.3510
  489THF     H4 8698   0.391   4.703   0.459 -0.7916 -2.7878 -1.0438
  489THF     H5 8699   0.228   4.671   0.478  3.1868 -3.6507 -0.4933
  489THF     H6 8700   0.452   4.839   0.250 -0.8355 -1.0354  0.9728
  489THF     H7 8701   0.324   4.888   0.143  1.1208 -2.7489 -0.7496
  489THF     C8 8702   0.322   4.966   0.355  0.2846 -0.1976  0.3086
  489THF     C9 8703   0.272   4.887   0.474 -0.4761 -0.2481  1.5947
  489THF    H10 8704   0.247   5.034   0.314  0.6592 -0.9881 -1.8076
  489THF    H11 8705   0.419   5.012   0.370  0.6993 -0.7332 -0.6784
  489THF    H12 8706   0.326   4.910   0.565 -1.5085 -0.9768  2.4259
  489THF    H13 8707   0.167   4.913   0.491 -0.4931  1.0594 -0.2227
  490THF     O1 8708   0.147   3.594   1.729  0.1774 -0.2274  0.2354
  490THF     C2 8709   0.255   3.688   1.722 -0.1740  0.1168  0.2984
  490THF     C3 8710   0.169   3.508   1.838 -0.3871  0.3649 -0.8060
  490THF     H4 8711   0.227   3.778   1.777  2.0831  0.4745  0.9745
  490THF     H5 8712   0.282   3.723   1.622 -1.1924 -1.0333 -0.4020
  490THF     H6 8713   0.085   3.516   1.907 -0.8913 -0.3506 -1.3175
  490THF     H7 8714   0.173   3.404   1.806  0.5475 -0.0565  0.6021
  490THF     C8 8715   0.299   3.557   1.909 -0.1945 -0.6959 -1.0033
  490THF     C9 8716   0.366   3.628   1.797  0.3771 -0.0998  0.0088
  490THF    H10 8717   0.370   3.478   1.934 -0.3157 -0.7090 -0.6860
  490THF    H11 8718   0.282   3.629   1.989 -0.2932 -0.8892 -0.8504
  490THF    H12 8719   0.441   3.697   1.835 -1.1241  1.0622  0.9610
  490THF    H13 8720   0.426   3.558   1.738  0.9440  0.8279 -0.5282
  491THF     O1 8721   3.854   1.158   4.225  0.1209 -0.3545 -0.1401
  491THF     C2 8722   3.837   1.024   4.186 -0.2486 -0.2050 -0.1170
  491THF     C3 8723   3.851   1.231   4.104  0.6760 -0.5015  0.4868
  491THF     H4 8724   3.730   1.006   4.182 -0.2177 -0.4174 -0.0381
  491THF     H5 8725   3.878   0.942   4.246 -0.4032 -0.1686  0.0379
  491THF     H6 8726   3.749   1.267   4.086  1.6437  2.3266  0.1275
  491THF     H7 8727   3.911   1.322   4.102 -1.1023  0.7187 -1.5714
  491THF     C8 8728   3.897   1.145   3.983 -0.0919 -0.2000 -0.0319
  491THF     C9 8729   3.877   1.006   4.043 -0.1712 -0.1239  0.0926
  491THF    H10 8730   4.002   1.166   3.962  0.1461  2.2446  2.8926
  491THF    H11 8731   3.833   1.166   3.898  0.2840  2.9312  0.3417
  491THF    H12 8732   3.788   0.960   4.000 -0.7504  0.7651  0.3363
  491THF    H13 8733   3.970   0.949   4.033 -0.8533 -0.9687 -1.9082
  492THF     O1 8734   1.757   0.624   5.183  0.5160 -0.1671 -0.0292
  492THF     C2 8735   1.631   0.689   5.197 -0.6210 -0.3178  0.2807
  492THF     C3 8736   1.815   0.693   5.070  0.0210  0.1273 -0.1588
  492THF     H4 8737   1.573   0.664   5.286 -0.1373 -1.2528  0.3467
  492THF     H5 8738   1.568   0.654   5.116  0.8003 -0.1369 -0.9425
  492THF     H6 8739   1.921   0.665   5.073  0.8258  2.7004 -1.4027
  492THF     H7 8740   1.775   0.669   4.972  0.9424 -0.9969 -0.2933
  492THF     C8 8741   1.797   0.839   5.105  0.3058 -0.4682 -0.4299
  492THF     C9 8742   1.666   0.838   5.178  0.5830 -0.2075 -0.1755
  492THF    H10 8743   1.796   0.902   5.016 -3.6059  0.4796  0.1068
  492THF    H11 8744   1.871   0.867   5.180 -1.0025 -1.3725  1.2585
  492THF    H12 8745   1.679   0.890   5.273  1.1412  0.1603 -0.4468
  492THF    H13 8746   1.581   0.883   5.127 -0.6633 -2.9701 -0.7182
  493THF     O1 8747   4.848   2.171   4.211 -0.4908 -0.1707 -0.2874
  493THF     C2 8748   4.882   2.309   4.243  0.2743 -0.2217  0.5575
  493THF     C3 8749   4.923   2.086   4.298  0.2173 -0.1059 -0.4375
  493THF     H4 8750   4.828   2.381   4.182  0.0935 -0.2167  0.7216
  493THF     H5 8751   4.987   2.328   4.220 -0.2312 -0.3012 -2.1643
  493THF     H6 8752   4.874   1.988   4.297  1.6853 -0.9138  1.2644
  493THF     H7 8753   5.028   2.089   4.268 -0.4054 -1.7786 -3.2064
  493THF     C8 8754   4.910   2.160   4.430  0.4270  0.3153  0.6893
  493THF     C9 8755   4.859   2.300   4.394  0.9050 -0.0336  0.5062
  493THF    H10 8756   5.003   2.146   4.485  0.8573 -0.9858 -0.3108
  493THF    H11 8757   4.829   2.110   4.483 -0.7257 -0.2628 -1.4896
  493THF    H12 8758   4.759   2.331   4.424 -0.4416 -3.0535 -0.4525
  493THF    H13 8759   4.925   2.368   4.449  0.9375 -1.6486  2.5759
  494THF     O1 8760   1.714   5.010   4.672 -0.0288 -0.7901  0.4114
  494THF     C2 8761   1.625   4.937   4.761  0.0216 -0.2747  0.2855
  494THF     C3 8762   1.689   4.981   4.538 -0.6111 -0.0519  0.9516
  494THF     H4 8763   1.533   4.996   4.762  0.5342  0.5798 -0.8750
  494THF     H5 8764   1.664   4.913   4.860  2.1442  1.2550 -0.1092
  494THF     H6 8765   1.646   5.067   4.486 -1.1592 -0.3918  0.8334
  494THF     H7 8766   1.776   4.940   4.487 -0.4731  1.2019  0.1394
  494THF     C8 8767   1.584   4.876   4.542 -0.1155  0.0986  0.6118
  494THF     C9 8768   1.601   4.814   4.677  0.3148 -1.2633 -0.1002
  494THF    H10 8769   1.604   4.805   4.461 -1.2178 -0.6598  0.9815
  494THF    H11 8770   1.484   4.913   4.526 -0.1813 -0.1847  0.3478
  494THF    H12 8771   1.516   4.756   4.714  1.8670 -2.5413  1.6396
  494THF    H13 8772   1.680   4.740   4.686  0.3217 -1.2272  0.1562
  495THF     O1 8773   1.838   0.453   4.363  0.3893  1.0773 -0.1569
  495THF     C2 8774   1.858   0.323   4.302  0.2245 -0.5107 -0.1295
  495THF     C3 8775   1.811   0.554   4.257 -0.2530 -0.1322  0.2811
  495THF     H4 8776   1.810   0.240   4.354 -0.8598 -0.5397 -1.1243
  495THF     H5 8777   1.966   0.312   4.299  0.1470 -1.1877 -0.4482
  495THF     H6 8778   1.756   0.640   4.297  1.9290  3.1549 -3.0902
  495THF     H7 8779   1.909   0.589   4.224 -0.0695 -0.4908  0.4401
  495THF     C8 8780   1.745   0.477   4.141  0.5619  0.4317  0.5466
  495THF     C9 8781   1.792   0.337   4.159  0.0170 -0.3089 -0.1106
  495THF    H10 8782   1.783   0.525   4.051  2.2562 -0.8574  0.5237
  495THF    H11 8783   1.637   0.485   4.139  0.6951  3.8066 -1.6272
  495THF    H12 8784   1.709   0.267   4.156  0.3188 -0.7641  1.2915
  495THF    H13 8785   1.870   0.312   4.088  2.1504  2.2124  1.1591
  496THF     O1 8786   4.533   5.303   2.548  0.6313 -0.3626  0.1722
  496THF     C2 8787   4.554   5.395   2.658  0.6096  0.1382 -0.2518
  496THF     C3 8788   4.398   5.247   2.560 -0.6591 -0.0172 -0.4437
  496THF     H4 8789   4.517   5.493   2.627 -1.5051 -0.3544  0.5541
  496THF     H5 8790   4.660   5.377   2.679  0.4194 -0.3802  0.2841
  496THF     H6 8791   4.330   5.330   2.543 -0.5104  0.0259 -0.8402
  496THF     H7 8792   4.377   5.161   2.495 -0.6567 -0.7728  0.5324
  496THF     C8 8793   4.392   5.219   2.702 -0.3905  0.3273 -0.1797
  496THF     C9 8794   4.468   5.334   2.769  0.1167 -0.4077  0.1866
  496THF    H10 8795   4.430   5.120   2.729  1.9990  1.3430  0.4016
  496THF    H11 8796   4.290   5.215   2.741  0.2429 -0.5727  1.5027
  496THF    H12 8797   4.406   5.417   2.803  1.6008  0.0321  1.9834
  496THF    H13 8798   4.524   5.301   2.856  0.1096 -0.2673  0.2454
  497THF     O1 8799   1.205   0.673   2.771  0.2627  0.1547  0.8624
  497THF     C2 8800   1.264   0.797   2.794  0.2315  0.1126  0.1444
  497THF     C3 8801   1.184   0.615   2.902 -0.3161 -0.7625  0.0870
  497THF     H4 8802   1.251   0.866   2.710 -0.3610  0.6571  0.6746
  497THF     H5 8803   1.369   0.784   2.819  0.6007  1.1596 -0.7956
  497THF     H6 8804   1.080   0.582   2.899 -0.8255  0.7809 -0.4619
  497THF     H7 8805   1.250   0.534   2.933  1.4629  0.6427  0.1701
  497THF     C8 8806   1.170   0.726   3.006 -0.1526 -0.0762  0.0478
  497THF     C9 8807   1.172   0.842   2.910  0.3062 -0.4302  0.2992
  497THF    H10 8808   1.252   0.728   3.078 -0.0834  0.5644 -0.0441
  497THF    H11 8809   1.078   0.720   3.064 -1.1516  2.3913 -1.1194
  497THF    H12 8810   1.076   0.866   2.865  1.9386  2.3399 -1.9837
  497THF    H13 8811   1.212   0.934   2.951  1.1008 -0.0520 -1.2251
  498THF     O1 8812   3.198   3.159   2.605 -0.0228 -0.8909  0.4295
  498THF     C2 8813   3.092   3.245   2.645 -0.0504 -0.4183  0.2879
  498THF     C3 8814   3.303   3.241   2.554  0.2171  0.3028 -0.0168
  498THF     H4 8815   3.126   3.294   2.736  0.3215 -0.7299  0.3175
  498THF     H5 8816   2.996   3.196   2.656 -0.7716  0.5883 -1.1244
  498THF     H6 8817   3.364   3.286   2.632  2.7183  0.1630 -1.7594
  498THF     H7 8818   3.366   3.175   2.494 -0.8700 -0.4110 -0.4041
  498THF     C8 8819   3.229   3.336   2.466 -0.8567 -0.4284  0.5598
  498THF     C9 8820   3.091   3.343   2.531 -0.9130  0.4054  0.0241
  498THF    H10 8821   3.229   3.289   2.367  1.0151  0.4044  0.1154
  498THF    H11 8822   3.286   3.428   2.455 -0.5875 -0.5817  0.6434
  498THF    H12 8823   3.087   3.446   2.567  0.9522 -0.1100  1.8288
  498THF    H13 8824   3.005   3.348   2.464 -1.1791  2.0289  0.4473
  499THF     O1 8825   4.984   0.398   1.825 -0.1546 -0.3489  0.2890
  499THF     C2 8826   4.872   0.415   1.908 -0.5220 -0.5554  0.5192
  499THF     C3 8827   5.086   0.322   1.891 -0.5561 -0.6230 -0.0997
  499THF     H4 8828   4.774   0.418   1.862 -0.4720 -0.8132  0.3926
  499THF     H5 8829   4.889   0.506   1.965  0.0725 -1.7243  2.3210
  499THF     H6 8830   5.118   0.235   1.833 -0.4104 -0.3535 -0.4308
  499THF     H7 8831   5.176   0.384   1.895  1.4522 -3.2230 -1.4433
  499THF     C8 8832   5.040   0.285   2.031 -0.3496 -0.4785  0.7869
  499THF     C9 8833   4.887   0.291   2.005 -0.1099 -0.0725  0.1037
  499THF    H10 8834   5.072   0.360   2.103 -1.3410 -1.6982  2.6087
  499THF    H11 8835   5.080   0.190   2.067  2.3418  0.0734 -0.5146
  499THF    H12 8836   4.861   0.197   1.956  2.8386  0.1747 -2.2523
  499THF    H13 8837   4.830   0.308   2.096  3.2092  2.8808  1.9326
  500THF     O1 8838   3.080   5.060   2.432 -0.2759 -0.5889 -0.4125
  500THF     C2 8839   3.166   4.958   2.419 -0.3287  0.8815  1.1704
  500THF     C3 8840   3.060   5.125   2.308 -0.2561  0.2642 -0.5112
  500THF     H4 8841   3.117   4.876   2.366 -0.1309  1.5407 -0.0678
  500THF     H5 8842   3.208   4.928   2.515  0.8905  0.6111  0.5696
  500THF     H6 8843   2.974   5.072   2.268 -1.2149  1.3154  0.1258
  500THF     H7 8844   3.039   5.230   2.327 -0.0900  0.3525 -0.8141
  500THF     C8 8845   3.188   5.098   2.231 -0.3368 -0.1708  0.2238
  500THF     C9 8846   3.270   5.023   2.331 -0.0123 -0.1155  0.1659
  500THF    H10 8847   3.238   5.189   2.198  2.0020  0.0399  3.7253
  500THF    H11 8848   3.165   5.032   2.148  0.0292  0.3077 -0.2643
  500THF    H12 8849   3.344   4.958   2.284 -0.2364  0.5264 -1.1206
  500THF    H13 8850   3.338   5.078   2.395  2.0679 -1.7433 -0.5391
  501THF     O1 8851   0.512   1.328   3.044  0.1410  0.7290  0.5701
  501THF     C2 8852   0.590   1.357   3.152  0.5224  0.6050 -0.4885
  501THF     C3 8853   0.399   1.413   3.040 -0.1502 -0.3984 -0.2885
  501THF     H4 8854   0.689   1.311   3.153 -0.1349 -0.8407 -0.4360
  501THF     H5 8855   0.543   1.327   3.245  1.9662  0.8943  0.3688
  501THF     H6 8856   0.357   1.430   2.941  0.6861  1.5158 -0.3572
  501THF     H7 8857   0.322   1.375   3.107 -0.7243  0.1177 -0.6393
  501THF     C8 8858   0.469   1.542   3.080  0.4710 -0.0392 -0.4589
  501THF     C9 8859   0.596   1.510   3.154  0.4910 -0.3411  0.9273
  501THF    H10 8860   0.401   1.599   3.143 -1.4981 -1.8647 -0.8210
  501THF    H11 8861   0.498   1.597   2.990 -0.0650 -0.5992 -0.9786
  501THF    H12 8862   0.682   1.552   3.104 -0.7121  3.6394  1.8243
  501THF    H13 8863   0.597   1.549   3.256  0.1841  1.3948  0.3003
  502THF     O1 8864   1.543   4.048   0.537 -0.3025  0.0766 -0.1081
  502THF     C2 8865   1.658   4.130   0.498  0.2900  0.4802 -0.2185
  502THF     C3 8866   1.472   4.026   0.419 -0.6828  0.0877  0.2120
  502THF     H4 8867   1.739   4.066   0.463  1.2611  1.5155  0.0755
  502THF     H5 8868   1.694   4.182   0.586  2.3507 -2.7245  0.9760
  502THF     H6 8869   1.528   3.947   0.368 -1.5293 -1.1365  1.0945
  502THF     H7 8870   1.370   3.994   0.438 -0.9624 -0.8936 -2.4618
  502THF     C8 8871   1.494   4.161   0.344  0.0412  0.5870  0.7426
  502THF     C9 8872   1.609   4.235   0.399 -0.4407  0.1008  0.2444
  502THF    H10 8873   1.404   4.222   0.347  0.6427  1.7163 -1.8523
  502THF    H11 8874   1.500   4.152   0.236 -2.1060 -1.5136  0.7130
  502THF    H12 8875   1.679   4.268   0.322 -2.4050  0.4919 -1.4671
  502THF    H13 8876   1.572   4.322   0.453 -0.7806  0.7032 -0.9080
  503THF     O1 8877   2.959   4.359   0.333  0.1249 -0.1176 -0.6578
  503THF     C2 8878   2.911   4.227   0.333 -0.5899  1.0163  0.6607
  503THF     C3 8879   2.892   4.430   0.229 -0.2162 -0.1931 -0.4381
  503THF     H4 8880   2.813   4.223   0.382 -1.6392 -0.4811 -1.3903
  503THF     H5 8881   2.985   4.159   0.375 -0.8320  0.7054  0.5872
  503THF     H6 8882   2.816   4.494   0.275 -0.8639 -0.2047 -1.4553
  503THF     H7 8883   2.964   4.489   0.171 -0.8471 -0.7310 -1.8213
  503THF     C8 8884   2.837   4.320   0.137  0.2752  0.2726  0.3010
  503THF     C9 8885   2.892   4.190   0.180 -0.0436 -0.0776 -0.3791
  503THF    H10 8886   2.850   4.342   0.031  2.3392  0.9522  0.6531
  503THF    H11 8887   2.730   4.314   0.159  0.4545 -2.2116  0.8131
  503THF    H12 8888   2.823   4.108   0.158  0.4454 -1.0953  1.6241
  503THF    H13 8889   2.983   4.178   0.122 -1.2263  1.8356 -2.8268
  504THF     O1 8890   0.146   1.951   4.029  0.2393  0.1196  0.4886
  504THF     C2 8891   0.280   1.908   4.011  0.0641 -0.0301  0.1848
  504THF     C3 8892   0.147   2.082   3.978  0.0902 -0.6529 -0.9240
  504THF     H4 8893   0.290   1.800   4.017  0.2626 -0.0597 -0.6114
  504THF     H5 8894   0.331   1.958   4.093  1.8694 -1.7389  0.1870
  504THF     H6 8895   0.046   2.100   3.942  0.0413 -0.9626 -0.9417
  504THF     H7 8896   0.176   2.157   4.051 -0.9750 -0.0507 -1.1055
  504THF     C8 8897   0.240   2.082   3.860 -0.3075 -0.4376  0.4745
  504THF     C9 8898   0.313   1.950   3.869  0.1943  0.1605  1.1898
  504THF    H10 8899   0.313   2.161   3.879 -0.6337 -0.3165  1.2765
  504THF    H11 8900   0.186   2.101   3.767  0.1219 -1.2307  0.0561
  504THF    H12 8901   0.288   1.868   3.802  0.9444  0.6106  0.3506
  504THF    H13 8902   0.421   1.956   3.856  0.1945 -1.8885 -0.2077
  505THF     O1 8903   0.597   4.005   1.604 -0.3165  0.5167  0.7931
  505THF     C2 8904   0.531   4.112   1.527 -0.2574  0.3384  0.5416
  505THF     C3 8905   0.520   3.985   1.727  0.4355  0.9290  0.3910
  505THF     H4 8906   0.439   4.073   1.483 -0.3049  1.3731 -0.3091
  505THF     H5 8907   0.596   4.159   1.454  1.1727 -0.5206  1.2307
  505THF     H6 8908   0.432   3.928   1.699  2.1592 -0.3909 -2.9568
  505THF     H7 8909   0.578   3.932   1.802 -0.9469  1.0258  1.5741
  505THF     C8 8910   0.466   4.121   1.761  0.2100  0.1274  0.2438
  505THF     C9 8911   0.486   4.207   1.637 -0.4116 -0.2371  0.6986
  505THF    H10 8912   0.521   4.162   1.846 -0.4963  1.0770  0.2597
  505THF    H11 8913   0.364   4.119   1.800  0.7000 -0.5776  1.5938
  505THF    H12 8914   0.406   4.273   1.603 -0.3170  0.2746  1.4546
  505THF    H13 8915   0.579   4.264   1.644  0.3687 -1.5102  1.0654
  506THF     O1 8916   1.310   4.141   1.049 -0.0675 -0.0185 -0.0618
  506THF     C2 8917   1.324   4.009   1.097  0.1769  0.2447 -0.0702
  506THF     C3 8918   1.347   4.145   0.908 -0.7074  0.0773  0.0183
  506THF     H4 8919   1.258   3.989   1.182  0.4111 -1.5173 -0.2724
  506THF     H5 8920   1.426   4.001   1.133  0.3815 -0.6938 -0.8132
  506THF     H6 8921   1.296   4.226   0.858 -0.8330  1.0243  1.6116
  506THF     H7 8922   1.455   4.152   0.896 -0.5883  1.1062  1.3327
  506THF     C8 8923   1.298   4.008   0.855 -0.0210 -0.3214  0.5549
  506THF     C9 8924   1.312   3.916   0.975  0.3103  0.4629 -0.3310
  506THF    H10 8925   1.356   3.977   0.769 -1.5966 -0.1928 -0.6044
  506THF    H11 8926   1.190   4.009   0.836  0.1265 -1.1389 -0.3737
  506THF    H12 8927   1.223   3.855   0.985 -0.3073  1.4483  0.4826
  506THF    H13 8928   1.399   3.851   0.970  0.4752  0.7037 -0.5996
  507THF     O1 8929   3.454   3.736   5.034  0.1008 -0.0246 -0.0615
  507THF     C2 8930   3.315   3.735   4.998  0.3973  0.3850  0.0838
  507THF     C3 8931   3.481   3.860   5.095 -0.5170 -0.7029 -0.6238
  507THF     H4 8932   3.284   3.631   4.984 -0.7109  0.9798 -2.3781
  507THF     H5 8933   3.290   3.779   4.902  2.6633 -0.2040 -0.8385
  507THF     H6 8934   3.579   3.850   5.142 -0.4201 -1.7125 -0.9956
  507THF     H7 8935   3.489   3.938   5.020  2.1069  1.3760  1.6370
  507THF     C8 8936   3.370   3.876   5.191 -0.5584  0.6856 -0.3014
  507THF     C9 8937   3.252   3.818   5.112 -0.3524 -0.4317 -0.0836
  507THF    H10 8938   3.357   3.981   5.218  0.0410  1.0254 -1.2795
  507THF    H11 8939   3.397   3.817   5.278  0.5227 -0.7230 -1.5327
  507THF    H12 8940   3.187   3.757   5.175 -0.2883 -0.6235 -0.2006
  507THF    H13 8941   3.190   3.895   5.067 -0.1725 -0.1122  0.2199
  508THF     O1 8942   3.562   1.033   3.938 -0.0221 -0.2499 -0.2345
  508THF     C2 8943   3.477   0.985   3.839 -0.0355 -0.7164 -0.2833
  508THF     C3 8944   3.496   1.120   4.025 -0.0941  0.0728  0.3270
  508THF     H4 8945   3.493   0.877   3.840  3.5758 -0.3441  2.2969
  508THF     H5 8946   3.504   1.020   3.739  0.9854  0.8796  0.5088
  508THF     H6 8947   3.551   1.127   4.118  1.5134  1.0243 -0.6592
  508THF     H7 8948   3.496   1.218   3.976  0.1836 -0.5365 -0.9412
  508THF     C8 8949   3.352   1.075   4.018 -0.3020  0.6704  0.1823
  508THF     C9 8950   3.335   1.029   3.876 -0.2258 -0.2777 -0.1685
  508THF    H10 8951   3.291   1.159   4.052 -0.2959  1.9431 -2.6356
  508THF    H11 8952   3.340   0.989   4.084 -0.5606  0.8829  0.4130
  508THF    H12 8953   3.267   0.945   3.857  1.0557 -1.3527 -0.1970
  508THF    H13 8954   3.304   1.103   3.802  0.0441 -1.5084 -1.5709
  509THF     O1 8955   3.524   2.522   4.037 -0.3329 -0.3715  0.1023
  509THF     C2 8956   3.551   2.602   4.155  0.0556 -0.3743 -0.1234
  509THF     C3 8957   3.577   2.396   4.062  0.5272 -0.1484 -0.2266
  509THF     H4 8958   3.469   2.673   4.169 -0.3585 -0.6181 -1.2159
  509THF     H5 8959   3.647   2.653   4.156  0.0827 -0.4350  0.7151
  509THF     H6 8960   3.535   2.328   3.988 -1.1614 -0.2716  0.7943
  509THF     H7 8961   3.686   2.399   4.058  0.5991 -0.9728  0.6605
  509THF     C8 8962   3.545   2.372   4.209 -0.2976  0.1422  0.4970
  509THF     C9 8963   3.551   2.503   4.274  0.1337 -0.8198  0.1297
  509THF    H10 8964   3.625   2.306   4.241 -0.1401 -1.3896 -2.6700
  509THF    H11 8965   3.452   2.321   4.236 -0.4837 -0.4438 -1.1273
  509THF    H12 8966   3.468   2.525   4.342  0.5792 -0.0280  0.4286
  509THF    H13 8967   3.641   2.516   4.333 -0.4965 -0.1328  0.9652
  510THF     O1 8968   5.095   0.006   0.017 -0.8863  0.0913 -0.2919
  510THF     C2 8969   5.179   0.106   0.077 -0.3284 -0.2374 -0.3027
  510THF     C3 8970   4.962   0.056   0.025 -0.0661 -0.6655  0.3615
  510THF     H4 8971   5.229   0.163  -0.001  0.1063 -1.2953 -0.8101
  510THF     H5 8972   5.257   0.049   0.129 -2.5731 -0.5652  3.0336
  510THF     H6 8973   4.933   0.081  -0.077  0.1569 -2.3822 -0.1517
  510THF     H7 8974   4.895  -0.022   0.063 -0.5922  1.5239  4.5259
  510THF     C8 8975   4.968   0.194   0.100 -0.2064  0.7229  0.2543
  510THF     C9 8976   5.097   0.187   0.178 -0.7154  0.7734 -0.2168
  510THF    H10 8977   4.881   0.208   0.165 -0.1885  0.5804  0.3097
  510THF    H11 8978   4.970   0.273   0.024 -1.1202 -0.4165 -1.0110
  510THF    H12 8979   5.144   0.280   0.209  1.5568 -1.0269  2.2646
  510THF    H13 8980   5.091   0.126   0.269  0.5264  0.0822 -0.5648
  511THF     O1 8981   0.931   4.321   1.224  0.6056 -0.0994 -0.4489
  511THF     C2 8982   1.059   4.333   1.287  0.3467  0.2140 -0.0064
  511THF     C3 8983   0.832   4.273   1.316 -0.8272  0.2197  0.3736
  511THF     H4 8984   1.062   4.410   1.364  1.7410 -1.0920  1.3193
  511THF     H5 8985   1.142   4.345   1.218  0.9213 -2.6277  0.0865
  511THF     H6 8986   0.806   4.342   1.396  2.3437  0.7073  1.1156
  511THF     H7 8987   0.753   4.220   1.262  0.1029 -1.0567  0.2077
  511THF     C8 8988   0.920   4.164   1.391  0.5430 -0.5999 -0.0536
  511THF     C9 8989   1.058   4.190   1.337 -0.1890  0.1199 -0.2967
  511THF    H10 8990   0.884   4.063   1.372 -1.2661 -0.0925  0.4559
  511THF    H11 8991   0.908   4.178   1.498 -2.0474  2.7251 -0.6379
  511THF    H12 8992   1.144   4.175   1.402  1.3774  1.6317 -1.8868
  511THF    H13 8993   1.084   4.114   1.263 -1.2789 -0.3729 -0.1927
  512THF     O1 8994   4.955   3.626   3.438 -0.1120  0.2775 -0.4474
  512THF     C2 8995   4.975   3.762   3.404  0.1653  0.1010  0.5066
  512THF     C3 8996   5.012   3.608   3.565  0.1202  0.8664 -0.1989
  512THF     H4 8997   4.892   3.824   3.437 -1.2086 -0.5891 -1.4408
  512THF     H5 8998   4.965   3.775   3.296  0.3703  3.8314  0.8228
  512THF     H6 8999   4.952   3.653   3.645 -0.3832  2.6187 -1.5020
  512THF     H7 9000   5.027   3.500   3.571 -0.2608  0.7057 -1.6418
  512THF     C8 9001   5.144   3.683   3.546  0.4092  0.1320  0.0329
  512THF     C9 9002   5.108   3.804   3.462  0.2104 -0.1069 -0.1523
  512THF    H10 9003   5.201   3.613   3.485 -2.6114 -0.3285 -2.5171
  512THF    H11 9004   5.195   3.713   3.637  2.0726  1.0372 -1.1537
  512THF    H12 9005   5.089   3.893   3.523 -3.1180  0.8800 -2.3103
  512THF    H13 9006   5.177   3.822   3.379 -0.3453 -3.7159 -1.5661
  513THF     O1 9007   0.883   4.152   2.475  0.4052  0.3956 -0.2103
  513THF     C2 9008   0.890   4.285   2.418 -0.1837 -0.1527  1.1284
  513THF     C3 9009   0.814   4.158   2.598  0.2321 -0.0335  0.6606
  513THF     H4 9010   0.803   4.304   2.355  1.8584 -0.4079 -2.0118
  513THF     H5 9011   0.978   4.300   2.356 -1.2927  3.2759  0.1227
  513THF     H6 9012   0.706   4.150   2.594  0.3477 -1.3769 -0.7962
  513THF     H7 9013   0.830   4.061   2.645 -0.9225 -1.3244 -1.4417
  513THF     C8 9014   0.882   4.273   2.664  0.5951  0.2285  0.5600
  513THF     C9 9015   0.885   4.374   2.546  0.3923  0.3496  0.8735
  513THF    H10 9016   0.985   4.248   2.689  0.0632 -2.7410  0.0901
  513THF    H11 9017   0.832   4.299   2.758  0.6413 -1.6816  1.1445
  513THF    H12 9018   0.790   4.427   2.536 -0.6549 -1.3725  1.3204
  513THF    H13 9019   0.969   4.443   2.548 -0.7744  1.9645 -1.5393
  514THF     O1 9020   0.375   3.239   4.777 -0.5437  0.1223  0.2611
  514THF     C2 9021   0.284   3.198   4.674  0.3017  0.3830 -0.9326
  514THF     C3 9022   0.406   3.124   4.856 -0.4838  0.4909 -0.8866
  514THF     H4 9023   0.337   3.146   4.593 -1.1592 -1.7171 -0.6288
  514THF     H5 9024   0.232   3.286   4.635 -0.8734 -0.6113 -1.7068
  514THF     H6 9025   0.469   3.054   4.802  0.4217 -0.5671  1.3870
  514THF     H7 9026   0.454   3.150   4.951 -0.2469  0.2737 -0.9459
  514THF     C8 9027   0.268   3.060   4.875  0.3421 -0.0334  0.4954
  514THF     C9 9028   0.187   3.103   4.749 -0.1614 -0.0778  0.7195
  514THF    H10 9029   0.217   3.105   4.961  2.5527  0.4867  1.6130
  514THF    H11 9030   0.266   2.952   4.892  1.0392  0.2393  2.5827
  514THF    H12 9031   0.168   3.016   4.686  1.2376 -0.1759  0.3966
  514THF    H13 9032   0.088   3.144   4.771 -0.3034 -0.4371  0.7623
  515THF     O1 9033   2.820   4.218   4.401  0.4646  0.4723 -0.1369
  515THF     C2 9034   2.796   4.340   4.468 -0.2763  0.3158 -0.0213
  515THF     C3 9035   2.912   4.248   4.295  0.0624 -0.5517 -0.7825
  515THF     H4 9036   2.885   4.350   4.529 -0.6015  2.1708  0.1848
  515THF     H5 9037   2.706   4.345   4.530 -0.0470  2.3518  0.1988
  515THF     H6 9038   3.011   4.208   4.317  1.1198  2.9428  1.4335
  515THF     H7 9039   2.875   4.210   4.199 -2.0456 -0.1097 -0.1956
  515THF     C8 9040   2.922   4.401   4.287 -0.1668  0.3544  0.4973
  515THF     C9 9041   2.808   4.452   4.369 -0.1785 -0.2062 -0.4576
  515THF    H10 9042   2.919   4.443   4.186  0.1364  1.4750  0.9387
  515THF    H11 9043   3.025   4.426   4.314  0.0297 -0.4835  0.5475
  515THF    H12 9044   2.820   4.545   4.424 -0.9256 -0.6297  0.4355
  515THF    H13 9045   2.714   4.457   4.315 -0.8628  1.8372  0.8142
  516THF     O1 9046   0.744   2.070   4.241  0.5930 -0.3632 -0.5253
  516THF     C2 9047   0.659   2.119   4.142 -0.4187  0.1966  0.9453
  516THF     C3 9048   0.661   2.011   4.345 -0.4991 -0.3980  0.5299
  516THF     H4 9049   0.639   2.033   4.078 -1.5240  0.4424  0.9355
  516THF     H5 9050   0.697   2.202   4.082  1.8520 -0.3994  1.4743
  516THF     H6 9051   0.662   1.903   4.329 -4.3190 -0.6527  1.0271
  516THF     H7 9052   0.697   2.031   4.445 -1.7423 -2.1931  1.3898
  516THF     C8 9053   0.524   2.065   4.327  0.1662 -0.8622  0.2209
  516THF     C9 9054   0.538   2.175   4.224 -0.3298  0.1785  0.1615
  516THF    H10 9055   0.467   2.107   4.411  0.3383  2.3533 -1.1194
  516THF    H11 9056   0.466   1.983   4.286 -0.1415 -0.3315 -0.4241
  516THF    H12 9057   0.452   2.188   4.159 -0.4348  0.1304  0.2909
  516THF    H13 9058   0.564   2.268   4.273 -0.2328 -0.4587  1.3705
  517THF     O1 9059   1.811   4.160   4.724  0.2068  0.1295 -0.1206
  517THF     C2 9060   1.843   4.126   4.586 -0.1790 -0.1323  0.3634
  517THF     C3 9061   1.824   4.049   4.807 -0.2296  0.4261  0.3392
  517THF     H4 9062   1.952   4.129   4.578 -0.1269  2.1518  1.3835
  517THF     H5 9063   1.807   4.198   4.512 -0.4209 -0.8632 -0.2448
  517THF     H6 9064   1.914   4.062   4.867 -0.7207  1.5920  0.8623
  517THF     H7 9065   1.753   4.032   4.887  0.7979  0.2420  1.2323
  517THF     C8 9066   1.834   3.925   4.724  0.4419 -0.0253  0.3817
  517THF     C9 9067   1.799   3.976   4.585  0.0320 -0.3536 -0.1752
  517THF    H10 9068   1.762   3.850   4.757  1.4475  0.0425  2.9718
  517THF    H11 9069   1.936   3.891   4.739 -0.4012 -3.8108 -1.2832
  517THF    H12 9070   1.837   3.913   4.504  1.1477 -1.4095  1.1241
  517THF    H13 9071   1.690   3.975   4.576 -0.1042  1.2169  0.9709
  518THF     O1 9072   2.352   4.430   0.559 -0.2045 -0.3356  0.2153
  518THF     C2 9073   2.383   4.309   0.502  0.3415  0.2737 -0.1955
  518THF     C3 9074   2.466   4.474   0.624  0.3442 -0.2296 -0.1534
  518THF     H4 9075   2.315   4.293   0.419  0.3528  0.6204 -0.2764
  518THF     H5 9076   2.376   4.227   0.574  0.0871  0.5671  0.1197
  518THF     H6 9077   2.463   4.578   0.656  0.0877 -0.2772 -0.0249
  518THF     H7 9078   2.482   4.412   0.712  1.1361  0.8591  0.4971
  518THF     C8 9079   2.568   4.450   0.515  0.1380  0.1483  0.5951
  518THF     C9 9080   2.522   4.325   0.439 -0.1919 -0.2869 -0.6222
  518THF    H10 9081   2.671   4.449   0.550  0.7386  0.7957 -1.0351
  518THF    H11 9082   2.564   4.536   0.447  1.9266 -0.2844 -0.1346
  518THF    H12 9083   2.534   4.354   0.334  1.1400  2.1033  0.1138
  518THF    H13 9084   2.586   4.239   0.460 -0.5412 -0.3383  0.2414
  519THF     O1 9085   3.545   2.848   4.338 -0.3437  0.0484 -0.0920
  519THF     C2 9086   3.641   2.951   4.366  0.0840 -0.4290 -0.1676
  519THF     C3 9087   3.414   2.903   4.327  0.3255 -0.1059  0.3888
  519THF     H4 9088   3.720   2.957   4.291  0.0971  2.3803 -0.0306
  519THF     H5 9089   3.686   2.921   4.461 -1.2346 -0.8786  0.3382
  519THF     H6 9090   3.371   2.924   4.228  1.7488  1.0313 -0.0250
  519THF     H7 9091   3.350   2.827   4.372 -0.6733 -0.6810 -1.8715
  519THF     C8 9092   3.428   3.038   4.405 -0.2730  0.2022 -0.1697
  519THF     C9 9093   3.569   3.086   4.377  0.0973  0.3751  0.2704
  519THF    H10 9094   3.416   3.022   4.512  0.3447 -2.4332 -0.4253
  519THF    H11 9095   3.355   3.114   4.374 -0.5710 -0.1849 -0.4242
  519THF    H12 9096   3.561   3.126   4.276  0.3726  1.6744  0.7381
  519THF    H13 9097   3.599   3.164   4.448 -0.2723  0.4908  0.2991
  520THF     O1 9098   4.085   2.478   3.615  0.1658 -0.1233  0.2166
  520THF     C2 9099   4.100   2.618   3.573  0.1574 -0.5213  0.3740
  520THF     C3 9100   4.182   2.407   3.535 -0.8218 -0.8163 -0.5327
  520THF     H4 9101   4.054   2.672   3.656  0.1755  2.5567 -1.4393
  520THF     H5 9102   4.045   2.639   3.481 -0.2899  1.0400  0.9698
  520THF     H6 9103   4.203   2.304   3.564 -1.6670 -0.9060 -0.1916
  520THF     H7 9104   4.133   2.401   3.437  1.4149 -0.3980 -1.7437
  520THF     C8 9105   4.303   2.494   3.529  0.3323 -0.0545 -0.3522
  520THF     C9 9106   4.254   2.633   3.561  0.3401  0.1529  0.2495
  520THF    H10 9107   4.344   2.489   3.428 -0.7857  2.6493 -1.0392
  520THF    H11 9108   4.375   2.458   3.601 -1.0605 -1.5692  0.3394
  520THF    H12 9109   4.283   2.667   3.660  0.8719  0.4373  0.0013
  520THF    H13 9110   4.286   2.699   3.480  0.6197 -1.4704 -1.0201
  521THF     O1 9111   2.380   3.114   4.771  0.0847  0.2131 -0.2161
  521THF     C2 9112   2.487   3.104   4.868 -0.3843  0.8309  0.2764
  521THF     C3 9113   2.444   3.104   4.643  0.6913  0.0621 -0.6885
  521THF     H4 9114   2.444   3.061   4.958 -1.9630  1.1984 -0.2605
  521THF     H5 9115   2.540   3.196   4.893  1.6561 -0.5601  1.4083
  521THF     H6 9116   2.376   3.058   4.571  0.0544  0.5824 -0.4317
  521THF     H7 9117   2.450   3.205   4.601 -1.2726 -0.5035 -2.4966
  521THF     C8 9118   2.580   3.029   4.666  0.7400 -0.5327  0.4318
  521THF     C9 9119   2.585   3.004   4.814 -0.2177 -0.1444  0.2829
  521THF    H10 9120   2.666   3.084   4.628  0.0265 -0.2119 -0.7832
  521THF    H11 9121   2.573   2.932   4.615 -2.4199 -0.7645  1.1061
  521THF    H12 9122   2.558   2.900   4.830  0.3390 -0.4066 -0.4278
  521THF    H13 9123   2.686   3.015   4.854 -0.7012  0.5029  1.3855
  522THF     O1 9124   0.240   3.597   4.659  0.1339  0.0177  0.6784
  522THF     C2 9125   0.202   3.563   4.798 -0.3612  0.4698 -0.5986
  522THF     C3 9126   0.376   3.633   4.657 -0.4721  0.6726 -0.1713
  522THF     H4 9127   0.174   3.457   4.800 -0.0256  0.3932  0.9491
  522THF     H5 9128   0.116   3.620   4.834  1.0375  2.0086  0.4297
  522THF     H6 9129   0.438   3.585   4.581  0.0559 -0.3677  0.8890
  522THF     H7 9130   0.379   3.737   4.623  0.3336  0.1268 -1.9001
  522THF     C8 9131   0.437   3.619   4.793  0.3351  0.2033 -0.0662
  522THF     C9 9132   0.321   3.589   4.884  0.1680 -0.5943 -0.1511
  522THF    H10 9133   0.481   3.714   4.821  0.5508  0.2817 -0.6571
  522THF    H11 9134   0.516   3.544   4.789 -0.1778 -0.4051  0.9690
  522THF    H12 9135   0.334   3.499   4.943  1.4963 -0.8212 -0.7637
  522THF    H13 9136   0.309   3.679   4.945  2.4826 -0.0387 -0.4465
  523THF     O1 9137   0.967   5.233   2.599  0.0179  0.4853 -0.1305
  523THF     C2 9138   0.946   5.092   2.637  0.6117 -0.3107 -0.1210
  523THF     C3 9139   0.887   5.258   2.481 -0.6155 -0.7731 -0.1987
  523THF     H4 9140   0.847   5.082   2.680 -0.0727 -0.8778 -1.7465
  523THF     H5 9141   1.024   5.050   2.700  1.2505 -0.0855 -0.7492
  523THF     H6 9142   0.790   5.294   2.517 -0.2039  1.3600 -1.0559
  523THF     H7 9143   0.945   5.322   2.414 -0.3451 -1.3003 -0.4721
  523THF     C8 9144   0.873   5.128   2.411 -0.2784 -0.6011 -0.9230
  523THF     C9 9145   0.948   5.028   2.497  0.0292  0.0210 -0.0412
  523THF    H10 9146   0.934   5.132   2.321  0.6700 -0.4972 -0.2997
  523THF    H11 9147   0.771   5.091   2.400  0.4152 -2.4343 -1.5013
  523THF    H12 9148   0.908   4.926   2.492 -1.6342  0.5302  1.4142
  523THF    H13 9149   1.049   5.014   2.461 -0.3208  1.0998 -1.5093
  524THF     O1 9150   0.204   0.696   2.206  0.0598  0.5657 -0.5676
  524THF     C2 9151   0.158   0.803   2.281 -0.5202 -0.2762 -0.2815
  524THF     C3 9152   0.257   0.742   2.080 -0.5478 -0.0287  0.5692
  524THF     H4 9153   0.161   0.791   2.390 -2.1547 -3.2055 -0.4553
  524THF     H5 9154   0.058   0.823   2.245  0.1020  1.3652 -1.1898
  524THF     H6 9155   0.329   0.670   2.041  0.3926  0.1963  1.8286
  524THF     H7 9156   0.172   0.734   2.011  0.4763  0.0692 -0.7356
  524THF     C8 9157   0.302   0.882   2.099 -0.1859  0.2884 -0.3445
  524THF     C9 9158   0.255   0.916   2.239 -0.1257  0.8816  0.0499
  524THF    H10 9159   0.266   0.944   2.017  1.5109  0.7518 -0.7825
  524THF    H11 9160   0.411   0.886   2.092 -0.0655 -1.2142  0.2862
  524THF    H12 9161   0.342   0.911   2.304  1.6205 -3.1189 -2.2391
  524THF    H13 9162   0.219   1.019   2.237  0.0960  1.0067  1.3949
  525THF     O1 9163   2.786   2.951   2.025 -0.2948 -0.1405 -0.3269
  525THF     C2 9164   2.743   3.089   2.035 -0.1854  0.3386  0.1864
  525THF     C3 9165   2.816   2.925   1.892  0.2752  0.4035  0.5525
  525THF     H4 9166   2.731   3.106   2.142 -0.4455  1.8598 -0.0699
  525THF     H5 9167   2.648   3.114   1.989  0.4410  0.3901 -1.1040
  525THF     H6 9168   2.875   2.836   1.870  1.2591  1.5660 -1.8817
  525THF     H7 9169   2.726   2.922   1.831  0.3303  2.4451  0.2805
  525THF     C8 9170   2.887   3.060   1.854  0.2732 -0.6451 -0.5690
  525THF     C9 9171   2.861   3.151   1.965  0.0737 -0.5044  0.2396
  525THF    H10 9172   2.854   3.104   1.760  0.3720 -0.5806 -0.5737
  525THF    H11 9173   2.995   3.051   1.842  0.1715 -2.1685 -0.5192
  525THF    H12 9174   2.945   3.161   2.034  0.1875 -0.3193  0.0749
  525THF    H13 9175   2.850   3.252   1.926  1.5279  0.2355  1.6355
  526THF     O1 9176   4.396   3.420   2.227 -0.3687  0.1017  0.0560
  526THF     C2 9177   4.395   3.414   2.367  0.4184  0.3085  0.3006
  526THF     C3 9178   4.282   3.490   2.179  0.2939  0.7148  0.5397
  526THF     H4 9179   4.439   3.499   2.419  0.3662  0.1675  0.5780
  526THF     H5 9180   4.442   3.321   2.397  0.7867 -0.3119 -2.0405
  526THF     H6 9181   4.308   3.594   2.200  2.2083  0.5199 -0.6454
  526THF     H7 9182   4.259   3.471   2.075 -2.1999  1.4767  0.8965
  526THF     C8 9183   4.179   3.442   2.272 -0.1585 -0.0237 -0.1961
  526THF     C9 9184   4.249   3.428   2.404 -0.6417  0.3880 -0.5885
  526THF    H10 9185   4.121   3.351   2.254 -0.5471  0.2629 -0.4256
  526THF    H11 9186   4.114   3.528   2.285 -0.3082 -0.1188 -0.3043
  526THF    H12 9187   4.217   3.518   2.457 -0.4388  1.0912 -1.6358
  526THF    H13 9188   4.204   3.344   2.458 -1.4110  0.8818 -0.4293
  527THF     O1 9189   4.545   2.710   5.037 -0.3325 -0.1064  0.2199
  527THF     C2 9190   4.668   2.721   4.965  0.1995  0.3494 -0.2819
  527THF     C3 9191   4.469   2.830   5.008  0.2589 -0.0549  0.1113
  527THF     H4 9192   4.652   2.656   4.880 -2.8610  0.2670  0.2231
  527THF     H5 9193   4.746   2.686   5.033 -1.2031  1.0091  1.7878
  527THF     H6 9194   4.365   2.803   4.990 -0.5720  2.8575  0.1861
  527THF     H7 9195   4.476   2.905   5.087  1.9103 -0.2551  0.1844
  527THF     C8 9196   4.544   2.894   4.890  0.0096  0.3995  0.9214
  527THF     C9 9197   4.693   2.861   4.922 -0.3159 -0.0746  0.2448
  527THF    H10 9198   4.506   2.994   4.873 -0.2535  0.2889  0.8405
  527THF    H11 9199   4.519   2.836   4.801 -0.0456 -0.7072  1.6376
  527THF    H12 9200   4.757   2.882   4.836 -1.3463 -0.6556 -0.6762
  527THF    H13 9201   4.734   2.914   5.008 -2.8301  0.3556  1.2762
  528THF     O1 9202   4.630   1.474   5.044  0.0816  0.5784  0.6607
  528THF     C2 9203   4.640   1.548   5.163 -0.1646  0.3408 -0.3962
  528THF     C3 9204   4.723   1.370   5.053  0.4846  0.6268 -0.0147
  528THF     H4 9205   4.566   1.517   5.236 -1.4937  1.9583 -0.9733
  528THF     H5 9206   4.613   1.653   5.147  1.3492  0.8697  0.2672
  528THF     H6 9207   4.686   1.269   5.069  0.3347  0.8612  1.1423
  528THF     H7 9208   4.794   1.366   4.970  0.8327  1.1544  0.2498
  528THF     C8 9209   4.810   1.388   5.176 -0.2530  0.2658 -0.2801
  528THF     C9 9210   4.774   1.527   5.222 -1.1341  0.0643 -0.3902
  528THF    H10 9211   4.915   1.365   5.158 -0.0363  1.5151 -0.6343
  528THF    H11 9212   4.770   1.323   5.255  0.7002 -0.4066 -0.3433
  528THF    H12 9213   4.782   1.547   5.329  3.9015  0.3899 -0.5959
  528THF    H13 9214   4.838   1.601   5.173 -3.2403  0.5538 -2.6117
  529THF     O1 9215   0.881   3.488   1.064 -0.2951  0.3157  0.7465
  529THF     C2 9216   0.790   3.447   1.163 -0.6155 -0.0807  0.0494
  529THF     C3 9217   0.921   3.374   0.982 -0.2418 -0.3143  0.1335
  529THF     H4 9218   0.685   3.467   1.144 -0.6173 -1.2988 -1.4022
  529THF     H5 9219   0.821   3.507   1.249  0.1684  0.3417 -0.5146
  529THF     H6 9220   0.905   3.388   0.875  0.4221 -1.2133 -0.0936
  529THF     H7 9221   1.027   3.354   0.996 -0.1238  0.2585  0.1064
  529THF     C8 9222   0.845   3.260   1.037 -0.3516  0.6374 -0.4608
  529THF     C9 9223   0.811   3.297   1.182 -0.0571 -0.3791  0.4687
  529THF    H10 9224   0.901   3.168   1.021  0.8478  1.2358  0.1057
  529THF    H11 9225   0.751   3.263   0.982  0.0325  3.4552 -1.1386
  529THF    H12 9226   0.722   3.243   1.214  0.6582 -1.1319  1.2647
  529THF    H13 9227   0.898   3.279   1.246  0.3074 -0.6219 -0.0876
  530THF     O1 9228   0.337   3.048   2.738  0.2532 -0.3157  0.2156
  530THF     C2 9229   0.437   2.949   2.746  0.0793  0.1899 -0.0945
  530THF     C3 9230   0.322   3.067   2.593  0.0993 -0.2742  0.3292
  530THF     H4 9231   0.459   2.918   2.848  0.1062 -0.3041 -0.2470
  530THF     H5 9232   0.529   3.001   2.720 -1.0380  1.4059 -1.8099
  530THF     H6 9233   0.225   3.110   2.569  0.2569 -0.2351 -0.2411
  530THF     H7 9234   0.401   3.133   2.558 -0.2197  0.8457  1.6085
  530THF     C8 9235   0.334   2.931   2.526  0.4499  0.4017 -0.0855
  530THF     C9 9236   0.393   2.848   2.633 -0.4873 -0.3093 -0.5292
  530THF    H10 9237   0.393   2.931   2.434 -0.0278  1.8779 -0.4217
  530THF    H11 9238   0.232   2.893   2.521  0.2859  0.9630 -1.3327
  530THF    H12 9239   0.327   2.771   2.674  0.4369 -0.9100 -0.1331
  530THF    H13 9240   0.489   2.808   2.601  1.0606  2.5236  0.2338
  531THF     O1 9241   4.613   0.629   2.041 -0.1686  0.0192 -0.1641
  531THF     C2 9242   4.686   0.590   2.158  0.0397  0.5357 -0.5512
  531THF     C3 9243   4.508   0.716   2.084  0.2278 -0.1108  0.3062
  531THF     H4 9244   4.790   0.563   2.146 -0.4166 -0.8858 -1.5530
  531THF     H5 9245   4.634   0.504   2.200 -2.1878  2.0536  0.0109
  531THF     H6 9246   4.500   0.806   2.023 -0.8043 -0.3737  0.0330
  531THF     H7 9247   4.408   0.678   2.065  0.7019 -0.6621 -1.2036
  531THF     C8 9248   4.529   0.760   2.227 -0.3681  0.3906  0.5604
  531THF     C9 9249   4.672   0.718   2.241 -0.2137 -0.1052 -0.2277
  531THF    H10 9250   4.471   0.705   2.300  1.3970 -0.2086  1.5862
  531THF    H11 9251   4.514   0.867   2.239  0.5588  0.4407  1.4123
  531THF    H12 9252   4.738   0.800   2.210 -0.2707 -1.3167 -4.1304
  531THF    H13 9253   4.688   0.688   2.344  0.5335 -0.2283 -0.3681
  532THF     O1 9254   0.036   4.473   4.649  0.0737 -0.2419 -0.3242
  532THF     C2 9255   0.057   4.498   4.786 -0.2570 -0.4130  0.1201
  532THF     C3 9256  -0.065   4.372   4.643  0.1679  1.0301  0.7949
  532THF     H4 9257   0.117   4.586   4.808 -0.6505  0.5112 -2.2075
  532THF     H5 9258   0.114   4.414   4.826  0.4291  0.0021  0.0308
  532THF     H6 9259  -0.111   4.375   4.544 -0.4335 -0.0457  1.0264
  532THF     H7 9260  -0.032   4.269   4.659 -0.4811  0.1650 -2.6159
  532THF     C8 9261  -0.158   4.412   4.757 -0.0784  0.7375 -0.0839
  532THF     C9 9262  -0.069   4.484   4.859 -0.2586 -0.4646 -0.6648
  532THF    H10 9263  -0.226   4.333   4.788  0.8888 -0.4144 -0.7925
  532THF    H11 9264  -0.232   4.482   4.716  0.5399  0.7828 -1.1676
  532THF    H12 9265  -0.107   4.583   4.886  0.4572 -0.5383  0.6760
  532THF    H13 9266  -0.060   4.433   4.955 -0.5503  0.3259 -0.2053
  533THF     O1 9267   0.719   1.558   0.779  0.5907  0.0311  0.7739
  533THF     C2 9268   0.775   1.474   0.678  0.3381  0.1728  0.6260
  533THF     C3 9269   0.663   1.469   0.873  0.9462 -0.0935 -0.3942
  533THF     H4 9270   0.877   1.439   0.695  1.1191  1.7529 -0.6116
  533THF     H5 9271   0.782   1.540   0.592  1.0734 -1.6390 -0.7856
  533THF     H6 9272   0.727   1.453   0.959 -1.7699  1.3358  2.0838
  533THF     H7 9273   0.580   1.522   0.920 -0.4803 -0.8142 -1.9996
  533THF     C8 9274   0.618   1.339   0.805  0.2637  0.1089  0.2090
  533THF     C9 9275   0.677   1.350   0.661 -0.3523  0.6050  0.0663
  533THF    H10 9276   0.509   1.332   0.807  0.3339 -0.9542  0.8302
  533THF    H11 9277   0.644   1.248   0.858 -2.4574  0.5580  2.6063
  533THF    H12 9278   0.734   1.260   0.636 -1.5287 -0.0725 -0.2651
  533THF    H13 9279   0.606   1.358   0.579  0.1167  0.9625 -0.3135
  534THF     O1 9280   1.322   2.990   1.280  0.0659 -0.7056  0.1141
  534THF     C2 9281   1.278   2.869   1.231  0.2118  0.0760 -0.3142
  534THF     C3 9282   1.282   3.090   1.189  0.5174 -0.4094  0.0179
  534THF     H4 9283   1.262   2.800   1.314  1.3005 -0.1304 -0.2686
  534THF     H5 9284   1.351   2.834   1.157 -2.3959 -1.7850 -2.2105
  534THF     H6 9285   1.283   3.195   1.219 -0.6742  0.3940 -2.4718
  534THF     H7 9286   1.354   3.087   1.107 -0.6158 -0.0467 -1.0176
  534THF     C8 9287   1.151   3.048   1.146  0.4582  0.5249  0.1814
  534THF     C9 9288   1.148   2.899   1.158 -0.2553  0.1488  0.5481
  534THF    H10 9289   1.122   3.085   1.047  0.6006 -0.1609 -0.1173
  534THF    H11 9290   1.076   3.088   1.214 -1.3216 -0.7830 -0.9211
  534THF    H12 9291   1.073   2.847   1.218 -1.4136 -1.1142 -1.8484
  534THF    H13 9292   1.154   2.846   1.064 -0.8133 -0.7129  0.9846
  535THF     O1 9293   1.891   5.240   4.308  0.2392 -0.0977  0.4032
  535THF     C2 9294   2.020   5.244   4.245  0.2321  0.2091  0.7353
  535THF     C3 9295   1.811   5.166   4.214  0.0808 -0.5327  0.2842
  535THF     H4 9296   2.063   5.143   4.241 -1.2040 -0.4115  0.2631
  535THF     H5 9297   2.089   5.317   4.287  1.2178 -0.1378 -0.2229
  535THF     H6 9298   1.857   5.067   4.212 -0.6975 -0.9398  1.6663
  535THF     H7 9299   1.708   5.150   4.244 -0.4202 -0.2692 -1.1952
  535THF     C8 9300   1.836   5.258   4.084 -0.0104  0.4670 -0.8655
  535THF     C9 9301   1.982   5.299   4.106 -0.3445  0.1135  0.0131
  535THF    H10 9302   1.779   5.350   4.095  0.0553  0.5730 -1.3722
  535THF    H11 9303   1.807   5.214   3.989  1.4882 -0.3096 -0.9941
  535THF    H12 9304   2.048   5.267   4.026  0.0226 -0.1581  0.4198
  535THF    H13 9305   1.982   5.407   4.122 -1.5530 -0.0013  0.9830
  536THF     O1 9306   3.654   5.451   3.598  0.3230 -0.4079 -0.4424
  536THF     C2 9307   3.707   5.554   3.688 -0.2277 -0.6296  1.1774
  536THF     C3 9308   3.632   5.513   3.472 -0.2220 -1.0128  0.0621
  536THF     H4 9309   3.813   5.564   3.664 -0.6328 -0.2923 -0.6520
  536THF     H5 9310   3.682   5.523   3.789 -0.4154  0.1322  1.3711
  536THF     H6 9311   3.730   5.521   3.425 -0.6273 -1.6145 -0.9177
  536THF     H7 9312   3.565   5.454   3.410 -1.7992  0.1114  0.6199
  536THF     C8 9313   3.569   5.646   3.510 -0.0989  0.0787 -0.5103
  536THF     C9 9314   3.629   5.680   3.647  0.5908 -0.2676 -0.4545
  536THF    H10 9315   3.462   5.626   3.506  0.1314 -1.6584  0.6039
  536THF    H11 9316   3.598   5.722   3.439 -3.0739  2.6666  0.8087
  536THF    H12 9317   3.693   5.768   3.643 -1.4507  1.2873 -0.9259
  536THF    H13 9318   3.540   5.701   3.706 -1.9047 -0.3853 -3.8721
  537THF     O1 9319   0.824   3.497   4.879 -0.4395 -0.2256  0.2193
  537THF     C2 9320   0.850   3.581   4.994  0.3810  0.3645 -0.2037
  537THF     C3 9321   0.761   3.373   4.911  0.1697 -0.4644  0.8421
  537THF     H4 9322   0.773   3.650   5.029  1.1000  0.6631  0.8434
  537THF     H5 9323   0.946   3.631   4.979  0.8724 -0.6305 -0.4114
  537THF     H6 9324   0.654   3.388   4.910  0.2596  0.3870 -1.0601
  537THF     H7 9325   0.789   3.291   4.844  0.4280 -1.0892  1.6870
  537THF     C8 9326   0.803   3.346   5.056 -0.2526 -0.2768  0.3270
  537THF     C9 9327   0.864   3.475   5.110 -0.3071 -0.4045  0.1698
  537THF    H10 9328   0.886   3.276   5.051 -0.0164 -0.1038  1.4319
  537THF    H11 9329   0.720   3.321   5.122 -1.6026  1.6849 -0.5285
  537THF    H12 9330   0.812   3.510   5.199  0.2636 -1.3767  0.9047
  537THF    H13 9331   0.962   3.449   5.150 -1.0341 -1.8771  1.1202
  538THF     O1 9332   3.600   4.736   0.319 -0.3952 -0.5586  0.0874
  538THF     C2 9333   3.471   4.723   0.284  0.5732  0.5824  0.1657
  538THF     C3 9334   3.675   4.753   0.202 -0.2386  0.8537  0.7485
  538THF     H4 9335   3.394   4.741   0.359 -0.7388 -1.4508 -0.6029
  538THF     H5 9336   3.465   4.615   0.269 -1.4880  0.9928 -2.5709
  538THF     H6 9337   3.773   4.791   0.232  0.2509  1.4569 -1.4588
  538THF     H7 9338   3.712   4.658   0.164  1.6445  1.6178  0.5593
  538THF     C8 9339   3.584   4.838   0.112  0.6802 -0.3427 -0.5318
  538THF     C9 9340   3.439   4.795   0.151  0.4406  0.0519 -0.6165
  538THF    H10 9341   3.591   4.828   0.003 -0.5791 -0.7738 -0.5965
  538THF    H11 9342   3.604   4.943   0.136  1.3630 -0.1618 -1.7950
  538THF    H12 9343   3.367   4.873   0.177  1.1303 -0.3134  2.9011
  538THF    H13 9344   3.393   4.721   0.086 -3.1361 -0.6059  2.3351
  539THF     O1 9345   3.989   4.117   4.464  0.0922  0.0132 -0.1652
  539THF     C2 9346   4.024   4.086   4.326  0.0669 -0.0450  0.0952
  539THF     C3 9347   3.898   4.013   4.501 -0.3860 -0.4310  0.1323
  539THF     H4 9348   4.113   4.147   4.307 -1.5258  2.4437  0.0908
  539THF     H5 9349   3.944   4.107   4.255  0.2977 -0.9824 -0.4559
  539THF     H6 9350   3.916   3.985   4.605  0.2145 -2.3574 -0.4651
  539THF     H7 9351   3.792   4.038   4.506 -0.2012  0.1609  2.9666
  539THF     C8 9352   3.941   3.890   4.421 -0.5304 -0.0121 -0.3332
  539THF     C9 9353   4.033   3.941   4.311 -0.1063  0.7027 -0.4681
  539THF    H10 9354   3.853   3.835   4.389 -1.4946  1.2551  0.0255
  539THF    H11 9355   3.998   3.812   4.472 -0.1229  0.4025 -0.1449
  539THF    H12 9356   4.135   3.912   4.337 -1.0685 -1.6951  1.0073
  539THF    H13 9357   4.008   3.906   4.211 -1.9487  1.8193 -0.4447
  540THF     O1 9358   0.185   1.001   3.261  0.2827  0.2359 -0.6719
  540THF     C2 9359   0.311   1.060   3.267 -0.2420 -0.2260 -0.0834
  540THF     C3 9360   0.096   1.068   3.358 -0.1978  0.6166  0.4527
  540THF     H4 9361   0.315   1.158   3.221 -1.4149 -0.2212 -0.1951
  540THF     H5 9362   0.390   0.993   3.232  1.8037  1.1618  1.5808
  540THF     H6 9363   0.073   1.170   3.327  1.6058  1.2325  1.0189
  540THF     H7 9364   0.000   1.017   3.374 -0.5219  0.6640 -1.1830
  540THF     C8 9365   0.187   1.074   3.479 -0.7112  0.2822 -0.1247
  540THF     C9 9366   0.334   1.073   3.418 -0.4076  0.6812  0.2573
  540THF    H10 9367   0.165   0.993   3.549 -1.2744  1.4255  1.0722
  540THF    H11 9368   0.183   1.161   3.544 -0.5992  0.1577  0.0498
  540THF    H12 9369   0.380   1.168   3.447  2.5159 -0.5404 -0.0484
  540THF    H13 9370   0.385   0.983   3.449 -1.1001 -0.0764 -0.7293
  541THF     O1 9371   3.842   0.284   4.602 -0.6369  0.0848 -0.3671
  541THF     C2 9372   3.969   0.256   4.538 -0.3551  0.2498  0.1388
  541THF     C3 9373   3.871   0.341   4.723  0.6037 -0.4764  0.2578
  541THF     H4 9374   4.015   0.347   4.498 -0.1194  0.2721  0.4592
  541THF     H5 9375   3.961   0.186   4.455  0.5243 -0.3264  0.5278
  541THF     H6 9376   3.864   0.449   4.731 -0.0952 -0.5298  0.4054
  541THF     H7 9377   3.789   0.297   4.780  0.3173  0.9948  1.0339
  541THF     C8 9378   4.004   0.280   4.768  0.2492  0.4527 -0.2260
  541THF     C9 9379   4.048   0.189   4.648 -0.2143  0.2775 -0.1226
  541THF    H10 9380   3.997   0.232   4.865 -2.2954  0.0236 -0.5403
  541THF    H11 9381   4.079   0.358   4.776  0.7873 -0.1033  0.2915
  541THF    H12 9382   4.156   0.190   4.639  0.0956 -0.6420  2.6870
  541THF    H13 9383   4.017   0.084   4.654  1.8353 -0.3963 -0.4507
  542THF     O1 9384   4.093   3.659   1.780 -0.0357  0.2444  0.3616
  542THF     C2 9385   4.030   3.711   1.666  0.7245 -0.3884 -0.8102
  542THF     C3 9386   4.027   3.701   1.897 -0.4832  0.6645 -0.2767
  542THF     H4 9387   4.067   3.678   1.569 -0.3051  1.6910 -1.9867
  542THF     H5 9388   4.054   3.816   1.680 -2.6973  0.3318  0.6161
  542THF     H6 9389   4.055   3.640   1.984 -0.2472 -0.0326 -0.8261
  542THF     H7 9390   4.038   3.806   1.925 -0.6144  0.3568  0.9915
  542THF     C8 9391   3.884   3.665   1.848  0.2076 -0.4491  0.8629
  542THF     C9 9392   3.886   3.693   1.692  0.5287  0.1139 -0.2514
  542THF    H10 9393   3.807   3.723   1.900  0.6187  0.0994  0.8776
  542THF    H11 9394   3.853   3.563   1.869 -0.5662 -0.3232  0.3590
  542THF    H12 9395   3.838   3.610   1.641  0.8288  0.1734 -0.6298
  542THF    H13 9396   3.833   3.784   1.664 -0.2057  0.0805  0.9214
  543THF     O1 9397   0.930   2.130   4.591 -0.6970 -0.1867 -0.1111
  543THF     C2 9398   1.012   2.245   4.630 -0.3651 -0.4057 -0.8575
  543THF     C3 9399   0.813   2.143   4.672  0.6940 -0.1907  0.1956
  543THF     H4 9400   1.087   2.271   4.555 -0.2732  1.4578 -0.1814
  543THF     H5 9401   1.070   2.221   4.719  1.9248  2.5293 -1.3797
  543THF     H6 9402   0.718   2.091   4.656 -0.1267  1.0100  0.9927
  543THF     H7 9403   0.828   2.131   4.779 -0.1577 -1.5063  0.1920
  543THF     C8 9404   0.786   2.294   4.652  0.1082 -0.1670 -0.2115
  543THF     C9 9405   0.922   2.363   4.649  0.1647 -0.5926  0.3570
  543THF    H10 9406   0.732   2.334   4.738 -1.8611 -3.8467  0.4539
  543THF    H11 9407   0.729   2.301   4.560 -0.8121  0.6841  0.4035
  543THF    H12 9408   0.914   2.416   4.554 -0.7216 -0.2682  0.6046
  543THF    H13 9409   0.944   2.435   4.729 -1.4844  0.4012 -0.0498
  544THF     O1 9410   2.014   2.754   4.744 -0.1358 -0.4683 -0.1931
  544THF     C2 9411   2.137   2.828   4.757  0.6131 -0.2211  0.2295
  544THF     C3 9412   2.053   2.616   4.735  1.1746  0.0830  0.3342
  544THF     H4 9413   2.165   2.832   4.862 -0.1434  0.3863  0.4130
  544THF     H5 9414   2.127   2.935   4.735 -2.0192  0.0335  2.1812
  544THF     H6 9415   2.065   2.578   4.837 -0.5820 -1.1297  0.1485
  544THF     H7 9416   1.974   2.558   4.688 -1.7960  2.0938  2.4882
  544THF     C8 9417   2.182   2.615   4.674 -0.7957  0.6353 -0.4509
  544THF     C9 9418   2.236   2.758   4.665 -0.2309 -1.2920 -0.4452
  544THF    H10 9419   2.183   2.570   4.575 -0.5363  1.4831 -0.8416
  544THF    H11 9420   2.256   2.560   4.732 -1.6352 -1.5339 -1.3361
  544THF    H12 9421   2.338   2.780   4.695 -0.5834  0.8945 -0.6899
  544THF    H13 9422   2.225   2.796   4.564  0.3035  1.2634  0.3967
  545THF     O1 9423   1.968   3.340   3.091  0.4577 -0.3160  0.2305
  545THF     C2 9424   1.889   3.350   3.208 -0.8198  0.1408  0.0621
  545THF     C3 9425   1.876   3.367   2.979  0.4691 -0.0454  0.1187
  545THF     H4 9426   1.879   3.455   3.235  0.9359  0.3587 -0.0030
  545THF     H5 9427   1.941   3.292   3.284  1.0924  0.6657 -0.7768
  545THF     H6 9428   1.853   3.473   2.972  0.6871  0.0466  0.7846
  545THF     H7 9429   1.919   3.330   2.886  2.4078  0.7527  0.6458
  545THF     C8 9430   1.745   3.296   3.014  0.5118 -0.3175  0.1857
  545THF     C9 9431   1.748   3.292   3.167 -0.9410 -0.1200 -0.1379
  545THF    H10 9432   1.765   3.194   2.982  0.7475 -0.6361  1.3017
  545THF    H11 9433   1.662   3.331   2.953  1.8548  0.5129 -1.2556
  545THF    H12 9434   1.665   3.352   3.205 -0.0395  1.5648 -0.7248
  545THF    H13 9435   1.745   3.186   3.192  1.1615 -0.4777 -1.2128
  546THF     O1 9436   3.315   2.079   3.914  0.0755 -0.1356 -0.4810
  546THF     C2 9437   3.179   2.119   3.908  0.1168 -0.4632 -0.3446
  546THF     C3 9438   3.358   2.059   4.048 -0.0749 -0.7339  0.2238
  546THF     H4 9439   3.116   2.079   3.828  0.9722 -0.7613 -0.8941
  546THF     H5 9440   3.170   2.227   3.900 -2.5757 -0.4726  1.3918
  546THF     H6 9441   3.449   2.003   4.069 -0.3789 -0.7364  1.7135
  546THF     H7 9442   3.386   2.160   4.079 -1.9014 -0.8204  2.4875
  546THF     C8 9443   3.237   2.013   4.119  0.3748 -0.2754  0.4190
  546THF     C9 9444   3.128   2.088   4.048  0.9862  0.5108 -0.7913
  546THF    H10 9445   3.243   2.033   4.226  0.1392 -0.0364  0.3882
  546THF    H11 9446   3.225   1.905   4.107  0.4600 -0.0002 -2.9779
  546THF    H12 9447   3.040   2.024   4.055  1.2809  0.2386  0.8716
  546THF    H13 9448   3.096   2.176   4.103  0.8194 -1.6384  2.8506
  547THF     O1 9449   3.268   0.440   2.952  0.4702 -0.3050  0.5781
  547THF     C2 9450   3.337   0.553   3.000  0.4998  0.0177 -0.1119
  547THF     C3 9451   3.127   0.446   2.978 -0.7240  0.1585  0.0172
  547THF     H4 9452   3.417   0.571   2.928  0.7969  1.2117  0.5138
  547THF     H5 9453   3.368   0.531   3.102 -1.9447 -0.4575  0.6073
  547THF     H6 9454   3.075   0.387   2.903 -0.1945 -0.9388  0.4816
  547THF     H7 9455   3.105   0.424   3.082 -0.2095  1.0029  0.3094
  547THF     C8 9456   3.099   0.592   2.943  0.4316 -0.1392 -0.9242
  547THF     C9 9457   3.222   0.663   3.001 -0.2529 -0.4332 -0.0571
  547THF    H10 9458   3.007   0.625   2.991  0.5226  0.5462 -1.2066
  547THF    H11 9459   3.091   0.595   2.834 -0.4061 -1.2708 -0.9065
  547THF    H12 9460   3.255   0.756   2.954 -0.2779  0.6173  1.9159
  547THF    H13 9461   3.199   0.689   3.104 -0.8057 -2.2216  0.3053
  548THF     O1 9462   4.820   1.696   0.515  0.7744  0.4953  0.3069
  548THF     C2 9463   4.869   1.812   0.448 -0.0167 -0.5227  0.4381
  548THF     C3 9464   4.760   1.737   0.637 -0.0117 -0.6701 -0.1677
  548THF     H4 9465   4.805   1.830   0.361 -0.7150  0.7132  1.1771
  548THF     H5 9466   4.968   1.795   0.405 -0.4809 -1.1301 -0.4305
  548THF     H6 9467   4.657   1.768   0.621 -0.2030 -1.1812  0.0754
  548THF     H7 9468   4.764   1.663   0.716 -2.6914  0.4309  1.1010
  548THF     C8 9469   4.846   1.861   0.682 -0.0122 -0.6294 -0.4860
  548THF     C9 9470   4.866   1.932   0.547  0.1724  0.0176 -0.0849
  548THF    H10 9471   4.944   1.835   0.723  0.7069  0.6820 -1.3021
  548THF    H11 9472   4.805   1.929   0.756  0.1068 -2.0420  0.9321
  548THF    H12 9473   4.788   2.004   0.522  1.7601  0.9420 -2.6908
  548THF    H13 9474   4.959   1.988   0.549 -1.5785  3.4502 -3.2358
  549THF     O1 9475   2.392   2.715   0.751  0.4633 -0.2971  0.1867
  549THF     C2 9476   2.370   2.678   0.614 -0.3435  0.5129  0.1529
  549THF     C3 9477   2.332   2.615   0.834 -0.2400  0.4397  0.1243
  549THF     H4 9478   2.461   2.649   0.562  0.0699 -1.4057  1.8136
  549THF     H5 9479   2.328   2.763   0.561  0.4152  1.3985  0.9247
  549THF     H6 9480   2.409   2.541   0.854 -0.6211  0.5048  1.9795
  549THF     H7 9481   2.298   2.659   0.928 -0.3270  3.5640 -1.2358
  549THF     C8 9482   2.212   2.561   0.754 -0.2131 -0.8430  0.0152
  549THF     C9 9483   2.276   2.560   0.617 -0.1681  0.2796  0.6313
  549THF    H10 9484   2.126   2.627   0.754  0.6711  0.3378 -0.2825
  549THF    H11 9485   2.189   2.461   0.792  1.9950 -1.2856  0.3620
  549THF    H12 9486   2.328   2.465   0.604 -0.8898 -0.0608  0.1510
  549THF    H13 9487   2.210   2.581   0.533  0.3135 -1.8854 -0.3574
  550THF     O1 9488   3.409   5.376   2.149  1.0035 -0.1954  0.6269
  550THF     C2 9489   3.530   5.326   2.202 -0.2187 -0.1542  0.2653
  550THF     C3 9490   3.415   5.329   2.017  0.5495  0.2617  0.5603
  550THF     H4 9491   3.522   5.219   2.222 -0.1341  0.2876  2.9905
  550THF     H5 9492   3.560   5.373   2.296 -0.5894  0.0971  0.2581
  550THF     H6 9493   3.406   5.220   2.018 -0.1297  0.3188  1.0944
  550THF     H7 9494   3.335   5.380   1.964  0.6643  0.4736  0.5906
  550THF     C8 9495   3.553   5.359   1.962 -0.4433  0.6957  0.4406
  550THF     C9 9496   3.634   5.365   2.091  0.4818 -0.1307 -0.0599
  550THF    H10 9497   3.558   5.452   1.906  0.3394  0.2898 -0.1941
  550THF    H11 9498   3.585   5.276   1.899  0.9296  1.3185  0.2904
  550THF    H12 9499   3.727   5.312   2.111 -0.0771 -1.4685 -0.9303
  550THF    H13 9500   3.644   5.472   2.113 -0.9566  0.0886 -0.3864
  551THF     O1 9501   3.255   2.829   3.388 -0.0658  0.0542 -0.0459
  551THF     C2 9502   3.122   2.844   3.421  0.4544  0.0275  0.3531
  551THF     C3 9503   3.303   2.930   3.301 -0.3110 -0.3547  0.0841
  551THF     H4 9504   3.103   2.798   3.518 -1.2711  2.6903  1.4236
  551THF     H5 9505   3.068   2.792   3.342  0.6838  2.3194 -1.4306
  551THF     H6 9506   3.411   2.932   3.288 -0.2318  1.9927  0.5031
  551THF     H7 9507   3.268   2.914   3.200  0.1701  2.1256 -0.5485
  551THF     C8 9508   3.216   3.051   3.338 -1.1657 -0.1586 -0.6475
  551THF     C9 9509   3.094   2.993   3.413 -0.4745 -1.1999 -0.1444
  551THF    H10 9510   3.191   3.113   3.252 -0.4928 -0.2262 -0.8979
  551THF    H11 9511   3.282   3.108   3.403 -0.1189 -1.2795 -0.6776
  551THF    H12 9512   3.080   3.054   3.502  0.3332  0.8395 -1.3326
  551THF    H13 9513   3.001   3.007   3.358 -0.1568 -0.0507 -0.4173
  552THF     O1 9514   4.210   1.553   0.084  0.0768  1.0137 -0.4552
  552THF     C2 9515   4.341   1.576   0.136 -0.8480 -0.6208  0.6526
  552THF     C3 9516   4.159   1.670   0.028 -1.2962 -0.2154  0.0890
  552THF     H4 9517   4.404   1.490   0.160 -1.9898 -2.2118 -1.6347
  552THF     H5 9518   4.350   1.639   0.224  2.0919  0.0845 -0.0358
  552THF     H6 9519   4.094   1.641  -0.054 -4.0589  0.0202  2.0380
  552THF     H7 9520   4.106   1.729   0.103 -0.5967  0.4068  0.1075
  552THF     C8 9521   4.285   1.742  -0.031  0.7198  0.1688  0.4698
  552THF     C9 9522   4.404   1.667   0.025  0.3743  0.2087 -0.4106
  552THF    H10 9523   4.283   1.847  -0.003  0.7952  0.1596  0.5095
  552THF    H11 9524   4.295   1.736  -0.140  0.9027 -0.6541  0.5290
  552THF    H12 9525   4.464   1.612  -0.047 -0.7604 -1.0948 -0.4030
  552THF    H13 9526   4.473   1.742   0.063  1.4216  0.0971 -2.0237
  553THF     O1 9527   0.982   1.318   0.059 -0.0198 -0.0593  0.2104
  553THF     C2 9528   1.050   1.437   0.066 -0.1220  0.2041  0.0246
  553THF     C3 9529   1.051   1.228   0.149  0.0374  0.0502  0.2759
  553THF     H4 9530   0.988   1.516   0.024 -0.9401 -1.1364 -1.3881
  553THF     H5 9531   1.148   1.425   0.020 -0.1626  0.4833 -0.1336
  553THF     H6 9532   0.993   1.136   0.156 -2.7297  1.7335  1.0444
  553THF     H7 9533   1.145   1.202   0.101  0.2788  2.7477 -0.9185
  553THF     C8 9534   1.068   1.312   0.273 -0.2027  0.6708 -0.2455
  553THF     C9 9535   1.079   1.450   0.215  0.0298 -0.0240 -0.1755
  553THF    H10 9536   1.148   1.285   0.341  1.2330  0.1986 -2.0383
  553THF    H11 9537   0.978   1.312   0.335 -1.3917 -1.0765 -1.8234
  553THF    H12 9538   1.002   1.514   0.257  0.0921 -0.9392  1.3991
  553THF    H13 9539   1.175   1.497   0.238 -0.2804 -0.3407  1.9467
  554THF     O1 9540   2.551   4.550   0.210 -0.1504 -0.1969  0.0729
  554THF     C2 9541   2.416   4.532   0.160  0.1274  0.1019  0.1808
  554THF     C3 9542   2.639   4.598   0.104  0.2158 -0.0373  0.3952
  554THF     H4 9543   2.333   4.563   0.224  0.2957 -1.0517  0.9657
  554THF     H5 9544   2.406   4.424   0.155 -0.3021  0.1450  0.0376
  554THF     H6 9545   2.729   4.657   0.126  1.2961 -1.0741 -1.0789
  554THF     H7 9546   2.676   4.507   0.057 -2.0492 -1.1650  0.6799
  554THF     C8 9547   2.548   4.675   0.012  0.1922 -0.4820 -0.1427
  554THF     C9 9548   2.416   4.598   0.018 -0.4158 -0.5838 -1.0528
  554THF    H10 9549   2.594   4.671  -0.086  1.8454  1.3319  0.4860
  554THF    H11 9550   2.526   4.777   0.046 -2.6600 -0.9869 -0.2647
  554THF    H12 9551   2.327   4.654  -0.011 -0.9425 -1.1492 -0.5511
  554THF    H13 9552   2.425   4.522  -0.059 -0.5735 -2.2434  0.5149
  555THF     O1 9553   0.836   2.356   5.157 -0.0951 -0.2779 -0.5141
  555THF     C2 9554   0.715   2.385   5.235  0.0091 -0.0509  0.4839
  555THF     C3 9555   0.800   2.319   5.024  0.1392  0.0350 -0.7743
  555THF     H4 9556   0.704   2.493   5.244  0.7008  0.0242  0.4676
  555THF     H5 9557   0.707   2.345   5.336 -2.3949  1.5052  1.0151
  555THF     H6 9558   0.862   2.364   4.947  0.6308  1.7794  0.5793
  555THF     H7 9559   0.831   2.215   5.013 -0.5771 -0.0740 -2.0211
  555THF     C8 9560   0.642   2.331   5.009 -0.1798 -0.1242  0.3565
  555THF     C9 9561   0.595   2.331   5.148  0.2140 -0.8216 -0.6215
  555THF    H10 9562   0.596   2.258   4.942 -0.5225  0.9200 -0.5838
  555THF    H11 9563   0.625   2.436   4.984  2.7702  1.3475  3.6155
  555THF    H12 9564   0.506   2.392   5.161  0.3392 -0.9393  0.9663
  555THF    H13 9565   0.576   2.225   5.166 -1.3456 -0.7129 -1.4835
  556THF     O1 9566   1.237   0.233   4.425  0.3193 -0.4568  0.0638
  556THF     C2 9567   1.301   0.337   4.350  0.0726 -0.8122  0.3726
  556THF     C3 9568   1.303   0.110   4.399  0.0955  0.7483  0.0411
  556THF     H4 9569   1.320   0.423   4.415 -1.0136  0.6477 -1.1715
  556THF     H5 9570   1.241   0.371   4.266  0.4242  0.3319  0.5629
  556THF     H6 9571   1.348   0.062   4.485  0.0867 -0.1325 -0.4361
  556THF     H7 9572   1.226   0.038   4.372  1.1222 -1.8163  3.3209
  556THF     C8 9573   1.396   0.133   4.280 -0.1531  0.2771  0.1383
  556THF     C9 9574   1.429   0.280   4.295 -0.2110 -0.0023 -0.0359
  556THF    H10 9575   1.338   0.111   4.191  1.1329  0.6498 -0.8159
  556THF    H11 9576   1.485   0.071   4.269  0.1833  0.8906 -0.6615
  556THF    H12 9577   1.499   0.291   4.378 -0.0774 -0.0870 -0.1363
  556THF    H13 9578   1.468   0.315   4.199 -0.1496 -1.2005 -0.4689
  557THF     O1 9579   3.589   2.996   5.098  0.1047 -0.5550 -0.5051
  557THF     C2 9580   3.722   3.001   5.161 -0.6326 -0.4167 -0.0297
  557THF     C3 9581   3.492   3.016   5.201  0.1407 -0.5789 -0.1942
  557THF     H4 9582   3.733   3.106   5.191  0.5546 -0.2112 -1.0898
  557THF     H5 9583   3.805   2.976   5.095  0.1319  0.3550  0.6049
  557THF     H6 9584   3.496   3.121   5.231  0.4600 -0.9113  0.9802
  557THF     H7 9585   3.396   3.001   5.151  0.0301 -1.4267  0.2638
  557THF     C8 9586   3.541   2.922   5.309 -0.4753  0.1588 -0.5538
  557THF     C9 9587   3.695   2.914   5.283  0.0785 -0.2994 -1.4372
  557THF    H10 9588   3.491   2.826   5.298 -1.0364 -0.1207  3.0474
  557THF    H11 9589   3.522   2.937   5.416  2.0426  1.8726 -0.2600
  557THF    H12 9590   3.759   2.937   5.368 -1.7871 -0.7783  0.1579
  557THF    H13 9591   3.739   2.817   5.259 -0.6236 -0.8225 -0.6439
  558THF     O1 9592   0.833   3.222   3.611  0.0038  0.3101 -0.0001
  558THF     C2 9593   0.939   3.176   3.522 -0.4313  0.0371  0.1568
  558THF     C3 9594   0.812   3.357   3.599  0.0639 -0.4913  0.2597
  558THF     H4 9595   0.907   3.079   3.483  2.4405 -1.4701  1.2697
  558THF     H5 9596   1.036   3.159   3.568 -0.6416 -3.7105 -0.4022
  558THF     H6 9597   0.714   3.380   3.640 -0.7345  0.0849 -1.8590
  558THF     H7 9598   0.894   3.412   3.645  1.3405 -1.2843 -0.9735
  558THF     C8 9599   0.813   3.368   3.447 -1.4481 -0.1019  0.2717
  558THF     C9 9600   0.933   3.280   3.409 -0.0028 -0.8327  0.0920
  558THF    H10 9601   0.836   3.470   3.416  0.4162 -0.6718 -0.3445
  558THF    H11 9602   0.720   3.327   3.409 -0.2916 -1.8937 -0.7371
  558THF    H12 9603   0.906   3.231   3.315 -0.4959  0.4308 -0.4493
  558THF    H13 9604   1.024   3.338   3.392 -1.3624  1.1292 -0.7751
  559THF     O1 9605   2.610   5.344   1.680  0.4075 -0.2231  0.4717
  559THF     C2 9606   2.645   5.445   1.577 -0.2888  0.3678  0.1171
  559THF     C3 9607   2.475   5.353   1.721 -0.0558  0.4251  0.1397
  559THF     H4 9608   2.657   5.404   1.476 -2.7731  1.2381 -0.6151
  559THF     H5 9609   2.728   5.507   1.608 -0.4003  0.8102 -0.4570
  559THF     H6 9610   2.410   5.303   1.649  1.0672 -0.9509  0.0399
  559THF     H7 9611   2.463   5.301   1.816  0.7276 -1.6562 -0.8350
  559THF     C8 9612   2.451   5.502   1.711 -0.2061  0.2277  0.0746
  559THF     C9 9613   2.529   5.543   1.583 -0.0620  0.3698  0.4427
  559THF    H10 9614   2.473   5.556   1.803 -1.5739  0.6902  0.1470
  559THF    H11 9615   2.345   5.524   1.699  0.1955  1.1346 -2.3782
  559THF    H12 9616   2.462   5.529   1.499 -0.2853  0.3113  0.6274
  559THF    H13 9617   2.563   5.647   1.577  1.3418 -0.1406 -0.8311
  560THF     O1 9618   4.548   3.220   3.248 -0.6899 -0.3310  0.3351
  560THF     C2 9619   4.434   3.132   3.217 -0.0043 -0.4745  0.6141
  560THF     C3 9620   4.653   3.213   3.147  0.1756  0.5087  0.0949
  560THF     H4 9621   4.340   3.182   3.194 -0.8926 -2.5520 -0.5936
  560THF     H5 9622   4.425   3.073   3.308  1.7281 -1.4236  0.2187
  560THF     H6 9623   4.620   3.280   3.067 -0.1396  0.0005 -0.2093
  560THF     H7 9624   4.749   3.248   3.183  0.0092 -0.3737  1.4728
  560THF     C8 9625   4.636   3.064   3.093  0.1457  0.2363  0.0878
  560THF     C9 9626   4.481   3.042   3.104  0.4160  0.0820 -0.0370
  560THF    H10 9627   4.686   2.990   3.155  0.3646 -0.6678 -1.1512
  560THF    H11 9628   4.673   3.046   2.993  0.1574  0.4600  0.0503
  560THF    H12 9629   4.437   3.046   3.004  1.2035 -4.1534 -0.7221
  560THF    H13 9630   4.470   2.942   3.147  0.7085  0.2210  0.3643
  561THF     O1 9631   3.965   1.211   0.384  0.2505  0.5433 -0.0456
  561THF     C2 9632   4.035   1.212   0.256  0.1431  0.1466  0.2406
  561THF     C3 9633   4.022   1.111   0.457 -0.4807  0.4088  0.1297
  561THF     H4 9634   4.037   1.314   0.217  0.7947  0.2154  0.4306
  561THF     H5 9635   3.988   1.151   0.179  1.5294  1.3696 -1.6516
  561THF     H6 9636   3.984   1.132   0.557 -3.2344  0.5702 -0.8892
  561THF     H7 9637   3.990   1.011   0.428  0.7824  0.4666 -1.6191
  561THF     C8 9638   4.170   1.140   0.430  0.1548  0.1957 -0.3768
  561THF     C9 9639   4.177   1.161   0.284  0.0864 -0.3260  0.1382
  561THF    H10 9640   4.230   1.064   0.480 -1.2148  0.2927  1.5554
  561THF    H11 9641   4.202   1.231   0.481 -1.9228  0.0799  1.2747
  561THF    H12 9642   4.256   1.234   0.263 -1.0606  0.9866  0.2813
  561THF    H13 9643   4.203   1.068   0.234 -1.1903  0.2387 -1.6949
  562THF     O1 9644   0.119   5.106   0.694  0.0921  0.1092 -0.1038
  562THF     C2 9645  -0.013   5.086   0.753  0.9612 -0.1047  0.3817
  562THF     C3 9646   0.135   5.243   0.670  0.6892 -0.0959 -0.2940
  562THF     H4 9647  -0.025   4.991   0.805 -2.3410 -0.1167 -0.1763
  562THF     H5 9648  -0.096   5.105   0.684  1.6501 -0.1551 -0.4828
  562THF     H6 9649   0.239   5.274   0.667  0.6877 -0.0617 -0.0364
  562THF     H7 9650   0.074   5.282   0.588 -1.7468  2.6895  2.6008
  562THF     C8 9651   0.064   5.313   0.786  0.1512  0.0046 -0.7675
  562THF     C9 9652  -0.011   5.201   0.854 -0.0737  0.5903  0.0114
  562THF    H10 9653  -0.005   5.380   0.735  0.2722 -0.5011 -1.6211
  562THF    H11 9654   0.121   5.369   0.860 -0.4438  1.7236 -1.5477
  562THF    H12 9655   0.050   5.163   0.936  1.3617  2.4435 -0.1426
  562THF    H13 9656  -0.110   5.223   0.895  0.2110 -0.4959  1.3504
  563THF     O1 9657   0.218   0.037   1.702  0.2615  0.6170  0.0980
  563THF     C2 9658   0.109  -0.055   1.694  0.3212 -0.1461 -0.8034
  563THF     C3 9659   0.317  -0.004   1.790 -0.1322 -0.2470  0.3284
  563THF     H4 9660   0.056  -0.049   1.598 -1.4251 -2.5625 -0.0773
  563THF     H5 9661   0.032  -0.026   1.766  0.7713 -0.1527 -0.3153
  563THF     H6 9662   0.419   0.024   1.763 -0.3961 -0.5234 -1.0344
  563THF     H7 9663   0.305   0.017   1.897 -1.3703 -0.2661  0.2169
  563THF     C8 9664   0.306  -0.153   1.770 -0.3657 -0.8089  0.4090
  563THF     C9 9665   0.171  -0.192   1.719  0.0505 -0.6717 -0.2814
  563THF    H10 9666   0.341  -0.203   1.860 -0.7229 -1.2961  0.2794
  563THF    H11 9667   0.377  -0.188   1.695  0.2980  0.5222  0.3722
  563THF    H12 9668   0.183  -0.261   1.635  1.9660 -0.3084 -0.3561
  563THF    H13 9669   0.116  -0.233   1.804 -1.2335  1.5530  0.0293
  564THF     O1 9670   1.872   2.610   0.952 -0.1358 -0.1885 -0.0218
  564THF     C2 9671   1.797   2.641   0.829 -0.1929  0.6077 -0.7520
  564THF     C3 9672   1.877   2.722   1.043  0.0835 -0.4405 -0.3401
  564THF     H4 9673   1.735   2.556   0.799 -2.4898  2.3314 -1.2310
  564THF     H5 9674   1.861   2.669   0.746 -1.3259  1.0689 -1.4983
  564THF     H6 9675   1.843   2.693   1.143 -1.2801  2.1977  0.0796
  564THF     H7 9676   1.979   2.758   1.057  0.6556 -1.3412 -1.9394
  564THF     C8 9677   1.782   2.827   0.982 -0.4018 -0.3458  0.2512
  564THF     C9 9678   1.702   2.752   0.879 -0.3212  0.0726 -0.3230
  564THF    H10 9679   1.839   2.905   0.933  1.1014 -1.5879 -0.0878
  564THF    H11 9680   1.724   2.891   1.049  0.2674 -0.1698  0.6786
  564THF    H12 9681   1.610   2.710   0.920 -0.1378 -1.2231 -1.1953
  564THF    H13 9682   1.668   2.827   0.807 -1.6802  1.6260  1.7844
  565THF     O1 9683   1.101   3.290   1.422 -0.6050 -0.8635  0.1643
  565THF     C2 9684   1.117   3.426   1.408  0.1217 -0.6915 -0.2241
  565THF     C3 9685   1.186   3.255   1.534  0.1746  0.5409  0.6002
  565THF     H4 9686   1.042   3.478   1.467  0.2527 -0.0298 -0.6272
  565THF     H5 9687   1.086   3.452   1.307 -3.0542 -4.2652 -0.4220
  565THF     H6 9688   1.130   3.275   1.626 -0.6956  0.9781 -0.0093
  565THF     H7 9689   1.215   3.150   1.533  0.7124  0.6905  0.0596
  565THF     C8 9690   1.310   3.344   1.528  0.2507 -0.2517 -0.0906
  565THF     C9 9691   1.261   3.455   1.444 -0.3761 -0.3869  0.4679
  565THF    H10 9692   1.402   3.293   1.499  1.6410  2.2268 -0.3180
  565THF    H11 9693   1.337   3.375   1.629 -0.5524 -2.5048  0.8787
  565THF    H12 9694   1.270   3.556   1.482 -0.7138 -0.3988  0.5812
  565THF    H13 9695   1.316   3.453   1.350 -0.4065 -1.1128  0.4604
  566THF     O1 9696   3.252   3.339   2.092 -0.4333  0.6245  0.2245
  566THF     C2 9697   3.382   3.359   2.118  0.1928 -0.1663 -0.1376
  566THF     C3 9698   3.238   3.334   1.953  0.0141  0.5534  1.4188
  566THF     H4 9699   3.438   3.269   2.094  0.2009  0.3371 -2.2629
  566THF     H5 9700   3.395   3.397   2.219 -0.0505  0.1417 -0.2191
  566THF     H6 9701   3.288   3.245   1.914  0.9007  1.5051  0.2960
  566THF     H7 9702   3.133   3.335   1.925  0.1220  1.3154  1.0288
  566THF     C8 9703   3.311   3.450   1.904  0.0128 -0.2470 -0.1361
  566THF     C9 9704   3.413   3.469   2.017  0.1424 -0.1766 -0.3122
  566THF    H10 9705   3.241   3.534   1.907 -0.7840 -0.9026 -0.1584
  566THF    H11 9706   3.351   3.437   1.803 -0.1722  0.3735 -0.2962
  566THF    H12 9707   3.519   3.459   1.994  0.1088 -1.4305  0.0171
  566THF    H13 9708   3.395   3.566   2.063  1.6827 -0.1395  0.2738
  567THF     O1 9709   1.879   4.948   0.711 -0.8607  0.2825  0.3605
  567THF     C2 9710   1.962   5.018   0.803 -0.0015 -0.1445 -0.0809
  567THF     C3 9711   1.755   4.919   0.764  0.2881 -0.2181  0.2046
  567THF     H4 9712   1.966   5.122   0.770  0.5600  0.1419  0.8610
  567THF     H5 9713   2.061   4.973   0.806 -0.4483 -1.2343 -0.9608
  567THF     H6 9714   1.669   4.929   0.698  1.2141  1.0017 -0.8590
  567THF     H7 9715   1.760   4.811   0.782 -1.0594 -0.4365 -0.6303
  567THF     C8 9716   1.751   4.996   0.893 -0.2915  0.5007 -0.2647
  567THF     C9 9717   1.893   4.994   0.938  0.1617 -0.4812  0.0451
  567THF    H10 9718   1.680   4.964   0.970  1.5063 -1.4504  0.6918
  567THF    H11 9719   1.728   5.100   0.872  0.9565  0.7019 -0.7136
  567THF    H12 9720   1.896   5.076   1.010 -1.4049 -0.2483 -0.1317
  567THF    H13 9721   1.924   4.904   0.991 -2.0689 -0.1027  2.1740
  568THF     O1 9722   4.957   4.408   0.464  0.1275  0.6173 -0.3747
  568THF     C2 9723   4.902   4.378   0.586 -0.0379  0.9092  0.0738
  568THF     C3 9724   5.070   4.322   0.445  0.5543 -0.9414  0.0651
  568THF     H4 9725   4.794   4.378   0.602  0.2670 -2.8545  4.5053
  568THF     H5 9726   4.933   4.452   0.660 -0.1521  1.2360 -0.2050
  568THF     H6 9727   5.102   4.312   0.341  0.8666  0.5038  0.0119
  568THF     H7 9728   5.154   4.364   0.500  0.1457 -0.0517  0.0227
  568THF     C8 9729   5.028   4.194   0.508  0.0220 -0.3996 -0.1176
  568THF     C9 9730   4.954   4.241   0.628  0.3755  0.0539  0.2069
  568THF    H10 9731   5.110   4.131   0.543  0.7500  1.2520  1.3087
  568THF    H11 9732   4.952   4.139   0.453 -0.1806 -0.9090  0.6535
  568THF    H12 9733   4.874   4.170   0.649  0.4257  0.4611  1.8749
  568THF    H13 9734   5.008   4.242   0.722 -1.5774  1.2693  1.3576
  569THF     O1 9735   4.976   1.054   3.309 -0.3731 -0.2687  0.6390
  569THF     C2 9736   4.998   1.181   3.358  0.0392  0.3102  0.0722
  569THF     C3 9737   4.879   0.986   3.385  0.1666 -0.6106 -0.2009
  569THF     H4 9738   4.998   1.265   3.289  3.1722 -0.1914 -0.7153
  569THF     H5 9739   5.102   1.170   3.391 -0.2524  0.1670  0.9893
  569THF     H6 9740   4.783   0.987   3.333  0.0844  1.0860 -0.0877
  569THF     H7 9741   4.918   0.885   3.394  0.4285 -0.3986  1.4788
  569THF     C8 9742   4.878   1.064   3.517  0.4881 -0.3843 -0.2855
  569THF     C9 9743   4.921   1.208   3.483  0.0723 -0.1888  0.0862
  569THF    H10 9744   4.952   1.020   3.584  1.2878  2.2788  0.7170
  569THF    H11 9745   4.778   1.063   3.561  0.1887  2.7613 -0.6854
  569THF    H12 9746   4.827   1.257   3.456 -0.3732 -1.4297 -0.7037
  569THF    H13 9747   4.983   1.252   3.561  1.5459 -1.0051 -0.5984
  570THF     O1 9748   0.815   2.352   0.477 -0.4468  0.4135 -0.5354
  570THF     C2 9749   0.719   2.409   0.392 -0.3202 -0.4875  0.5969
  570THF     C3 9750   0.856   2.466   0.554 -0.4970  0.7623  0.6325
  570THF     H4 9751   0.626   2.440   0.439 -0.8914 -0.9546 -0.1885
  570THF     H5 9752   0.704   2.348   0.303 -0.9799 -1.1983  1.1899
  570THF     H6 9753   0.786   2.492   0.634 -1.6401 -0.4260  0.0683
  570THF     H7 9754   0.952   2.433   0.593  0.5614  0.0584 -2.2956
  570THF     C8 9755   0.875   2.584   0.460  0.3797 -0.6671 -0.3169
  570THF     C9 9756   0.802   2.532   0.338  0.1105  0.3865 -0.1070
  570THF    H10 9757   0.981   2.598   0.442  0.4869 -1.6559 -0.5151
  570THF    H11 9758   0.830   2.674   0.502 -0.6975 -1.3274 -0.0107
  570THF    H12 9759   0.738   2.606   0.290 -0.8096  1.2441  2.2624
  570THF    H13 9760   0.872   2.505   0.259 -1.1916  2.8134 -2.2191
  571THF     O1 9761   1.102   3.664   1.703 -0.2811 -0.4194 -0.2343
  571THF     C2 9762   1.025   3.565   1.750 -0.4103 -0.3900  0.0635
  571THF     C3 9763   1.031   3.784   1.720  0.0763 -0.1667 -0.7034
  571THF     H4 9764   1.026   3.574   1.858  1.3220 -0.8150  0.1100
  571THF     H5 9765   1.062   3.468   1.717  0.0331 -0.7403  1.5239
  571THF     H6 9766   1.047   3.833   1.817 -1.7299 -1.2034  0.1697
  571THF     H7 9767   1.070   3.860   1.652 -0.5948  0.2647 -0.6179
  571THF     C8 9768   0.884   3.745   1.690 -1.4887 -0.0050 -0.2815
  571THF     C9 9769   0.885   3.592   1.695  0.1858 -0.4256 -0.5360
  571THF    H10 9770   0.866   3.772   1.585  2.6382  1.9052 -0.7189
  571THF    H11 9771   0.824   3.793   1.767  1.0661  0.8855  1.2791
  571THF    H12 9772   0.815   3.542   1.762  1.3643 -0.6648  0.5590
  571THF    H13 9773   0.866   3.545   1.599  0.0664 -0.7672 -0.3466
  572THF     O1 9774   0.524   5.355   3.985 -0.5353  0.3527  0.1311
  572THF     C2 9775   0.394   5.324   3.919  0.1665 -0.1476 -0.1461
  572THF     C3 9776   0.627   5.286   3.916  0.9327  0.0859  1.0540
  572THF     H4 9777   0.310   5.384   3.952 -0.2002 -0.5771 -0.2858
  572THF     H5 9778   0.370   5.218   3.926  0.9716 -0.2251  1.8050
  572THF     H6 9779   0.717   5.347   3.924  0.3184  1.4756 -1.5865
  572THF     H7 9780   0.647   5.187   3.958 -0.1856 -0.5815  0.0875
  572THF     C8 9781   0.569   5.305   3.767 -0.5551 -0.2317 -0.0259
  572THF     C9 9782   0.434   5.366   3.780  0.2077 -0.1319 -0.0440
  572THF    H10 9783   0.587   5.217   3.705  0.3431  0.9754 -1.5191
  572THF    H11 9784   0.637   5.376   3.719 -1.0832  0.8672  0.8074
  572THF    H12 9785   0.439   5.474   3.768 -1.1073 -0.2183 -1.9031
  572THF    H13 9786   0.364   5.321   3.709 -0.4573 -0.0506  0.5462
  573THF     O1 9787   2.328   4.735   3.597 -0.1578 -0.4557  0.0833
  573THF     C2 9788   2.347   4.733   3.738  0.2638 -0.2957  0.6079
  573THF     C3 9789   2.191   4.767   3.583 -0.0408  0.4427  0.0679
  573THF     H4 9790   2.450   4.729   3.774  1.3022  0.1659 -2.1009
  573THF     H5 9791   2.309   4.646   3.792 -0.1848  0.2647  1.2089
  573THF     H6 9792   2.153   4.765   3.481  0.1896 -1.9533 -0.0335
  573THF     H7 9793   2.136   4.693   3.641  1.9057 -1.6765 -0.6505
  573THF     C8 9794   2.187   4.900   3.666  0.1115 -0.0310  0.4722
  573THF     C9 9795   2.266   4.856   3.786 -0.0900 -0.6457 -0.2046
  573THF    H10 9796   2.089   4.931   3.702  0.8596  2.0490  0.8479
  573THF    H11 9797   2.216   4.978   3.595  1.3875 -0.7938  0.1169
  573THF    H12 9798   2.326   4.933   3.836  0.4878 -1.6504  0.7070
  573THF    H13 9799   2.194   4.834   3.865 -1.3534  1.2520 -0.7789
  574THF     O1 9800   0.735   1.185   1.147 -0.1308  0.5784  0.4809
  574THF     C2 9801   0.743   1.137   1.282 -0.1074 -0.3114 -0.0790
  574THF     C3 9802   0.869   1.212   1.108  0.4402 -0.3724 -0.5249
  574THF     H4 9803   0.646   1.099   1.315  0.7097 -1.3474  1.1849
  574THF     H5 9804   0.778   1.214   1.350 -0.7606  0.5653 -0.7013
  574THF     H6 9805   0.873   1.242   1.003  0.2692  1.3842 -0.0555
  574THF     H7 9806   0.899   1.303   1.159  1.3179 -0.0462 -1.5811
  574THF     C8 9807   0.943   1.082   1.149  0.0304 -0.1671 -0.3017
  574THF     C9 9808   0.835   1.024   1.241 -0.2130 -0.1815  0.4495
  574THF    H10 9809   1.042   1.100   1.191 -0.4106  1.6210  0.0602
  574THF    H11 9810   0.956   1.027   1.056  5.9873 -1.0122  0.6565
  574THF    H12 9811   0.779   0.945   1.192 -0.6888  0.8599 -0.7533
  574THF    H13 9812   0.870   0.990   1.339 -2.6746 -0.0445  1.4453
  575THF     O1 9813   0.392   1.320   3.724  0.0713 -0.1380  0.7834
  575THF     C2 9814   0.362   1.440   3.654 -0.5480  0.0578  0.5164
  575THF     C3 9815   0.439   1.350   3.852  0.1189 -0.2487  0.2638
  575THF     H4 9816   0.258   1.462   3.681 -1.3533  0.2536 -2.3931
  575THF     H5 9817   0.363   1.424   3.547 -1.1689 -3.2210  0.8849
  575THF     H6 9818   0.354   1.330   3.917 -0.9711 -0.2342 -1.1141
  575THF     H7 9819   0.517   1.279   3.881 -0.7766 -2.0243 -1.4229
  575THF     C8 9820   0.488   1.496   3.860 -0.1400  0.5916 -0.3236
  575THF     C9 9821   0.475   1.533   3.708 -0.1229  0.2008  0.1656
  575THF    H10 9822   0.590   1.509   3.894  0.4309  0.3207 -1.8380
  575THF    H11 9823   0.427   1.551   3.931  1.8680  3.0734 -0.3938
  575THF    H12 9824   0.441   1.635   3.687  1.5548  0.6702 -0.4452
  575THF    H13 9825   0.555   1.513   3.637 -2.9233 -0.6307 -3.0543
  576THF     O1 9826   3.313   5.412   3.948 -0.3251 -0.2057  0.6512
  576THF     C2 9827   3.254   5.538   3.928  0.1517  0.9342  0.1933
  576THF     C3 9828   3.399   5.380   3.835 -0.5467 -0.7934 -0.2948
  576THF     H4 9829   3.325   5.617   3.953 -0.0826  1.3263 -0.3575
  576THF     H5 9830   3.170   5.551   3.997 -0.6834 -2.0629 -0.0904
  576THF     H6 9831   3.493   5.426   3.866 -0.7425 -1.2187  0.9943
  576THF     H7 9832   3.414   5.272   3.832  0.6497 -0.6196 -1.2904
  576THF     C8 9833   3.325   5.444   3.710 -0.6621 -0.6608  0.2055
  576THF     C9 9834   3.227   5.544   3.772 -0.4786  0.4409  0.8915
  576THF    H10 9835   3.270   5.370   3.651  1.0024 -0.6111 -1.5392
  576THF    H11 9836   3.400   5.485   3.642 -0.3988 -1.1931  0.1659
  576THF    H12 9837   3.238   5.643   3.727  1.8917 -0.7884 -1.5568
  576THF    H13 9838   3.124   5.515   3.751 -0.6169  2.2471 -1.3368
  577THF     O1 9839   3.128   4.753   4.266  0.3455  0.4533 -0.5435
  577THF     C2 9840   3.261   4.784   4.313  0.1281  0.1949 -0.4365
  577THF     C3 9841   3.040   4.725   4.375  0.5152 -0.5158 -0.0161
  577THF     H4 9842   3.323   4.853   4.256  0.5896  1.2346  1.2811
  577THF     H5 9843   3.305   4.684   4.316  2.3369  1.1289 -0.2946
  577THF     H6 9844   2.934   4.736   4.351  1.0976  0.0926 -2.5169
  577THF     H7 9845   3.055   4.618   4.392  1.0548 -0.4230  0.1023
  577THF     C8 9846   3.092   4.804   4.489 -0.8165  0.2991  0.3095
  577THF     C9 9847   3.232   4.838   4.456  0.2301 -0.6267  0.7753
  577THF    H10 9848   3.093   4.746   4.582 -0.3398 -1.7847 -0.9181
  577THF    H11 9849   3.031   4.891   4.513 -1.0065 -0.2837  2.1759
  577THF    H12 9850   3.243   4.946   4.466 -2.0857 -0.3376  0.8587
  577THF    H13 9851   3.287   4.780   4.529 -0.3842 -0.9031  1.0281
  578THF     O1 9852   0.444   5.454   0.164 -0.3357 -0.0050 -0.1150
  578THF     C2 9853   0.454   5.352   0.261  0.1814  0.1160 -0.0539
  578THF     C3 9854   0.350   5.546   0.222  0.4521  0.1673  0.3868
  578THF     H4 9855   0.555   5.327   0.292 -0.0725 -0.0139  0.6820
  578THF     H5 9856   0.418   5.265   0.206  0.4628  1.2575 -2.1636
  578THF     H6 9857   0.396   5.630   0.275 -1.3443  0.7122  1.1457
  578THF     H7 9858   0.303   5.588   0.133  0.6199 -1.8335 -0.7133
  578THF     C8 9859   0.248   5.465   0.304 -0.5206  0.0572 -0.0282
  578THF     C9 9860   0.352   5.382   0.376  0.6154 -0.0885 -0.4360
  578THF    H10 9861   0.185   5.406   0.237 -0.9397 -0.2850  0.6613
  578THF    H11 9862   0.195   5.535   0.368  0.2470 -0.6307  1.4179
  578THF    H12 9863   0.394   5.435   0.462 -0.1566 -1.6904  0.9765
  578THF    H13 9864   0.295   5.293   0.401  0.1314  0.1687 -0.5910
  579THF     O1 9865   3.694   2.392   2.208  0.1613 -0.2938  0.7012
  579THF     C2 9866   3.606   2.379   2.099 -0.2739  0.2728 -0.5257
  579THF     C3 9867   3.742   2.527   2.218 -0.0559  0.8546 -0.3718
  579THF     H4 9868   3.513   2.422   2.134  0.5373  1.3461  0.3626
  579THF     H5 9869   3.591   2.273   2.074  1.1914 -0.5972  1.9604
  579THF     H6 9870   3.685   2.585   2.291 -0.5494 -1.4451  1.1688
  579THF     H7 9871   3.844   2.519   2.256  0.0282  1.0929 -0.5452
  579THF     C8 9872   3.723   2.584   2.080  0.4230 -0.1076  0.3238
  579THF     C9 9873   3.667   2.472   1.993 -0.3936 -0.6641  0.8815
  579THF    H10 9874   3.809   2.639   2.041  0.6406  1.1011  2.3497
  579THF    H11 9875   3.642   2.658   2.080 -1.3975 -1.7836 -3.4391
  579THF    H12 9876   3.595   2.506   1.918  2.1748  1.5726 -0.7823
  579THF    H13 9877   3.745   2.420   1.937  1.0432  0.7508  1.5034
  580THF     O1 9878   4.191   3.967   1.169  0.2532 -0.4730  0.0982
  580THF     C2 9879   4.184   4.030   1.297  0.5812 -0.2158  0.0532
  580THF     C3 9880   4.243   4.076   1.088 -0.2159  0.5038 -0.4086
  580THF     H4 9881   4.281   4.040   1.346 -0.1038  0.0514  1.4103
  580THF     H5 9882   4.132   3.957   1.358  1.2900 -0.4343  0.4116
  580THF     H6 9883   4.352   4.088   1.090  0.0046 -1.0735 -1.5448
  580THF     H7 9884   4.216   4.069   0.983 -1.5006  1.0412 -0.1295
  580THF     C8 9885   4.173   4.202   1.139  0.4762 -0.4210  0.3872
  580THF     C9 9886   4.122   4.166   1.275  0.0805 -0.0594  0.8847
  580THF    H10 9887   4.083   4.216   1.079  0.3667  1.2417  0.8814
  580THF    H11 9888   4.243   4.285   1.130  1.7309 -1.5449 -0.7208
  580THF    H12 9889   4.141   4.245   1.348  1.0141  1.2900 -0.7474
  580THF    H13 9890   4.013   4.160   1.276  0.0166  0.2736 -0.9434
  581THF     O1 9891   4.676   1.420   2.982  0.6360 -0.2959  0.7668
  581THF     C2 9892   4.604   1.306   2.956  0.5588 -0.6685  0.0672
  581THF     C3 9893   4.762   1.397   3.087 -0.0854  0.3379 -0.3774
  581THF     H4 9894   4.584   1.297   2.849  0.8592  0.6699 -0.1181
  581THF     H5 9895   4.517   1.302   3.022 -0.5166  3.1481 -0.9169
  581THF     H6 9896   4.853   1.453   3.067 -0.7113  1.0693 -1.2645
  581THF     H7 9897   4.714   1.423   3.181  0.8223  0.1225  0.1548
  581THF     C8 9898   4.800   1.246   3.084  0.7674 -0.0184 -0.0884
  581THF     C9 9899   4.715   1.196   2.972  0.3874 -0.3056 -0.0596
  581THF    H10 9900   4.765   1.190   3.170  0.4707  0.0160 -0.1857
  581THF    H11 9901   4.906   1.226   3.070  0.7814  0.2072 -0.3291
  581THF    H12 9902   4.787   1.199   2.891 -1.3951  0.6670 -1.6800
  581THF    H13 9903   4.683   1.095   2.996  1.2172 -0.3050  1.1558
  582THF     O1 9904   0.912   3.089   0.782  0.4349  0.1056 -0.3082
  582THF     C2 9905   0.990   2.973   0.794 -0.0173 -0.5104 -0.3604
  582THF     C3 9906   0.819   3.076   0.670 -0.3792 -0.0340 -0.1465
  582THF     H4 9907   0.963   2.913   0.881  0.3599 -1.4709 -0.8871
  582THF     H5 9908   1.090   3.015   0.810  0.0087 -0.3299 -0.9680
  582THF     H6 9909   0.722   3.114   0.700 -0.2642  0.2032 -0.0728
  582THF     H7 9910   0.853   3.148   0.596 -1.3710  0.9623  0.3316
  582THF     C8 9911   0.822   2.932   0.623 -0.1303  0.3732  0.3080
  582THF     C9 9912   0.963   2.891   0.671  0.4425  0.0478 -0.4697
  582THF    H10 9913   0.813   2.925   0.514  0.8187  2.5110  0.0516
  582THF    H11 9914   0.741   2.870   0.662 -0.7557  0.1628 -1.2559
  582THF    H12 9915   0.971   2.782   0.679  0.5040 -0.0966 -2.0922
  582THF    H13 9916   1.032   2.924   0.594  1.0079 -0.9211 -0.3959
  583THF     O1 9917   3.116   4.400   3.626  0.6796 -0.5167  0.1407
  583THF     C2 9918   2.998   4.326   3.629  0.1289  0.9073  0.6315
  583THF     C3 9919   3.096   4.532   3.686  0.0046  0.3451  0.2273
  583THF     H4 9920   3.028   4.222   3.616  0.6461  1.1280  0.0336
  583THF     H5 9921   2.948   4.370   3.542 -0.5980  2.7231  1.8947
  583THF     H6 9922   3.190   4.578   3.715 -0.0981  0.9262 -0.3288
  583THF     H7 9923   3.067   4.601   3.606 -2.6375  0.6476  1.3525
  583THF     C8 9924   2.975   4.513   3.785 -0.1339 -0.3528  0.3197
  583THF     C9 9925   2.921   4.373   3.752  0.6845  0.6672  0.0953
  583THF    H10 9926   2.902   4.593   3.775 -1.7434 -1.9835 -1.7425
  583THF    H11 9927   3.006   4.527   3.889 -1.2620  1.1334  0.4969
  583THF    H12 9928   2.916   4.304   3.836 -3.5569  1.4130  0.7167
  583THF    H13 9929   2.812   4.377   3.746  0.6564 -0.1661  0.0226
  584THF     O1 9930   2.749   3.158   4.398 -0.7811  0.3184 -0.3786
  584THF     C2 9931   2.774   3.301   4.358  0.5675 -0.4889  0.1047
  584THF     C3 9932   2.644   3.112   4.311 -0.7109  0.9160  0.2663
  584THF     H4 9933   2.815   3.296   4.258  2.0432  2.2921  0.4534
  584THF     H5 9934   2.842   3.357   4.423  2.2976 -1.3931 -0.8727
  584THF     H6 9935   2.683   3.082   4.214  0.0292  0.6964  0.6227
  584THF     H7 9936   2.585   3.032   4.357  0.3033  0.0509  0.1169
  584THF     C8 9937   2.553   3.228   4.294 -0.0344 -0.1450  0.8198
  584THF     C9 9938   2.630   3.344   4.355 -0.6010  0.5390 -0.6580
  584THF    H10 9939   2.462   3.201   4.347 -0.8027 -0.5906 -0.6511
  584THF    H11 9940   2.537   3.238   4.186 -1.7674 -0.1218  1.0564
  584THF    H12 9941   2.613   3.431   4.292  0.1107  1.5210  0.4665
  584THF    H13 9942   2.598   3.366   4.457  1.8667 -1.8221  0.7661
  585THF     O1 9943   1.262   2.453   4.465 -0.0053 -0.2886 -0.2125
  585THF     C2 9944   1.359   2.476   4.567 -0.8192  0.4593 -0.2726
  585THF     C3 9945   1.325   2.506   4.347  0.1014  0.9767 -0.8402
  585THF     H4 9946   1.431   2.394   4.561 -0.5672  0.3607  2.5975
  585THF     H5 9947   1.317   2.459   4.666 -2.7723  0.2073 -1.1033
  585THF     H6 9948   1.391   2.426   4.314 -1.1547 -0.3800 -0.2106
  585THF     H7 9949   1.245   2.512   4.274  0.0774  2.3615 -0.7320
  585THF     C8 9950   1.396   2.636   4.387 -0.3940  1.0754 -0.2055
  585THF     C9 9951   1.408   2.620   4.544 -0.3124  0.8354  0.3799
  585THF    H10 9952   1.325   2.713   4.357 -0.5294  1.4271  0.9528
  585THF    H11 9953   1.488   2.653   4.332 -0.2659  1.7123  0.1998
  585THF    H12 9954   1.513   2.626   4.574  0.5597  1.2514 -2.4730
  585THF    H13 9955   1.349   2.690   4.603  0.5926  0.8818  1.2530
  586THF     O1 9956   5.130   4.178   2.842  0.0582 -0.4017 -0.2414
  586THF     C2 9957   4.999   4.211   2.875 -0.4574 -0.6428  0.4260
  586THF     C3 9958   5.119   4.141   2.705  0.6417 -0.1147 -0.5606
  586THF     H4 9959   4.966   4.307   2.835  0.8899  0.3059  1.5206
  586THF     H5 9960   4.982   4.225   2.982 -0.8977 -0.6331  0.3562
  586THF     H6 9961   5.101   4.236   2.654  1.6940  1.0609  1.1430
  586THF     H7 9962   5.209   4.087   2.677  2.1450  2.2419 -0.5893
  586THF     C8 9963   5.006   4.045   2.701 -0.0183  0.0071 -0.2832
  586THF     C9 9964   4.919   4.099   2.815  0.2812 -0.0521  0.1188
  586THF    H10 9965   5.036   3.943   2.728 -2.2336 -0.1995  1.7715
  586THF    H11 9966   4.962   4.036   2.601 -0.3022 -0.6549 -0.1051
  586THF    H12 9967   4.818   4.123   2.785  1.1282  2.2521 -1.1522
  586THF    H13 9968   4.921   4.021   2.891  1.5645 -0.4531 -0.2942
  587THF     O1 9969   4.487   3.260   4.597 -0.1227 -0.1651  0.4613
  587THF     C2 9970   4.390   3.183   4.528 -0.1368  1.2788 -0.4891
  587THF     C3 9971   4.606   3.228   4.548 -0.9301  0.7193  0.4301
  587THF     H4 9972   4.287   3.214   4.511 -0.5945  0.7173  1.1125
  587THF     H5 9973   4.379   3.092   4.587  0.8069  1.7113  0.3771
  587THF     H6 9974   4.679   3.308   4.559 -0.4717  0.4418 -0.5011
  587THF     H7 9975   4.642   3.140   4.602  0.4422  1.6108  1.0178
  587THF     C8 9976   4.603   3.198   4.400 -0.2997 -0.2081 -0.1675
  587THF     C9 9977   4.456   3.149   4.389 -0.0859 -0.1215 -0.2468
  587THF    H10 9978   4.676   3.124   4.369  0.9489  1.2971 -0.9841
  587THF    H11 9979   4.627   3.283   4.336 -0.6514  0.5889  0.7305
  587THF    H12 9980   4.412   3.203   4.305  0.5492 -0.4759 -0.8214
  587THF    H13 9981   4.438   3.044   4.365 -3.8826  0.2034  0.4800
  588THF     O1 9982   4.523   0.767   0.794 -0.1494  0.3836  0.0769
  588THF     C2 9983   4.377   0.779   0.808 -0.2829  0.4193 -0.4140
  588THF     C3 9984   4.576   0.894   0.778 -0.9091 -0.7099 -0.0778
  588THF     H4 9985   4.342   0.685   0.850  1.1907 -0.7282 -1.6349
  588THF     H5 9986   4.331   0.777   0.709  2.9151  0.3928 -2.0272
  588THF     H6 9987   4.683   0.891   0.798 -1.0199 -2.0671  0.4021
  588THF     H7 9988   4.548   0.926   0.678 -4.2814 -1.5301  0.4629
  588THF     C8 9989   4.508   0.962   0.889 -0.1577  0.1751 -0.4133
  588THF     C9 9990   4.359   0.919   0.878 -0.5010 -0.0944  0.3836
  588THF    H10 9991   4.526   1.070   0.884  0.2762  0.0790 -0.9977
  588THF    H11 9992   4.560   0.942   0.982 -0.6897  0.3944 -0.0676
  588THF    H12 9993   4.322   0.912   0.980  1.2115 -1.5788  0.9493
  588THF    H13 9994   4.309   0.982   0.804 -0.8750 -2.3045 -1.3464
  589THF     O1 9995   1.198   4.626   1.736 -0.3483  0.1298  0.1081
  589THF     C2 9996   1.149   4.738   1.673 -0.7267 -0.2703  0.1605
  589THF     C3 9997   1.309   4.584   1.661 -0.3977 -0.6632  0.5162
  589THF     H4 9998   1.074   4.792   1.730 -2.4406 -1.2687 -1.0642
  589THF     H5 9999   1.092   4.697   1.590  0.1600  0.3215 -0.7717
  589THF     H610000   1.379   4.508   1.693  0.1602 -0.3958 -0.0426
  589THF     H710001   1.279   4.542   1.565  3.3522 -1.1181 -0.6099
  589THF     C810002   1.382   4.713   1.647 -0.4293  0.1316 -0.2439
  589THF     C910003   1.273   4.817   1.649 -0.2295 -0.3623 -0.1282
  589THF    H1010004   1.453   4.731   1.566  2.6346 -0.2780  2.1590
  589THF    H1110005   1.448   4.714   1.734 -0.0471 -1.2373 -0.4940
  589THF    H1210006   1.288   4.893   1.727 -2.8826 -1.6360  1.7842
  589THF    H1310007   1.264   4.868   1.553  2.9338  0.4823 -0.0891
  590THF     O110008   1.204   3.450   3.845  0.6235  0.2240  0.2080
  590THF     C210009   1.281   3.382   3.932 -0.1099  0.0300 -0.0509
  590THF     C310010   1.241   3.396   3.713  0.5116 -0.0315  0.0646
  590THF     H410011   1.229   3.297   3.975 -0.6322  1.4602  2.2827
  590THF     H510012   1.315   3.440   4.017  1.4402  0.0278 -0.6312
  590THF     H610013   1.190   3.301   3.697  0.0379  0.4399 -1.4197
  590THF     H710014   1.200   3.456   3.632 -1.2962 -0.5751  0.5350
  590THF     C810015   1.395   3.396   3.722  0.2614 -0.3725  0.3723
  590THF     C910016   1.401   3.336   3.859 -0.2630  0.4052  0.0700
  590THF    H1010017   1.426   3.499   3.708 -0.2541 -0.3441 -0.6395
  590THF    H1110018   1.434   3.342   3.636  0.2906 -0.4283  0.4208
  590THF    H1210019   1.403   3.227   3.847 -1.0895  0.3340  0.4960
  590THF    H1310020   1.488   3.366   3.918 -0.1684 -0.2831  0.2907
  591THF     O110021   2.102   1.059   2.410  0.4063  0.9794  0.4693
  591THF     C210022   1.963   1.081   2.442  0.2576  0.5216 -0.6870
  591THF     C310023   2.128   1.121   2.287  0.5889 -0.1200 -0.0493
  591THF     H410024   1.961   1.180   2.486  0.8039 -0.6514  2.1913
  591THF     H510025   1.908   1.016   2.509  0.6905  1.4399  0.6000
  591THF     H610026   2.132   1.229   2.304 -1.7447  0.4316 -2.4106
  591THF     H710027   2.215   1.085   2.233 -0.2696 -0.1954 -1.4330
  591THF     C810028   1.998   1.090   2.203 -0.0253 -0.1101 -0.2561
  591THF     C910029   1.898   1.068   2.309  0.0761  0.3169 -0.2952
  591THF    H1010030   1.993   1.003   2.138 -2.0145 -1.3500  1.4066
  591THF    H1110031   1.966   1.181   2.154  0.0337 -0.5397 -1.1004
  591THF    H1210032   1.808   1.129   2.295 -0.6136  0.1001  2.4655
  591THF    H1310033   1.859   0.966   2.310  0.1916  0.2718 -0.3872
  592THF     O110034   4.859   5.356   1.653 -0.6564  0.2222  0.0025
  592THF     C210035   4.932   5.364   1.527  0.8108 -0.0820  0.3763
  592THF     C310036   4.845   5.485   1.706  0.2364 -0.0374 -0.3714
  592THF     H410037   4.915   5.266   1.482 -2.9428  0.0603  1.1210
  592THF     H510038   5.039   5.372   1.545  1.1037  0.3956 -1.4023
  592THF     H610039   4.769   5.484   1.785  0.4605  2.9768 -0.0103
  592THF     H710040   4.936   5.519   1.756  0.2343 -1.2122  0.4739
  592THF     C810041   4.812   5.570   1.581  0.4088  0.0861  0.2388
  592THF     C910042   4.864   5.485   1.457  0.4693 -0.2195 -0.2387
  592THF    H1010043   4.844   5.673   1.597 -2.9847  1.2878  0.0311
  592THF    H1110044   4.707   5.585   1.557  0.8902 -0.8655 -2.8128
  592THF    H1210045   4.776   5.467   1.395 -1.4842  0.9907  1.9992
  592THF    H1310046   4.938   5.541   1.401  1.5478  0.3051  1.6360
  593THF     O110047   4.453   4.058   4.260 -0.5713 -0.5131  0.0472
  593THF     C210048   4.404   4.186   4.300  0.1559 -0.4273 -0.0871
  593THF     C310049   4.574   4.038   4.331  0.3023  0.1249  0.3369
  593THF     H410050   4.309   4.185   4.354  1.0129 -1.7102  1.4899
  593THF     H510051   4.384   4.257   4.219 -0.1333  0.6796  0.9263
  593THF     H610052   4.603   3.933   4.346  1.0517  0.1387 -0.8610
  593THF     H710053   4.641   4.083   4.258 -0.6521 -1.0655 -1.3409
  593THF     C810054   4.576   4.125   4.458  0.4523  0.2324 -0.3477
  593THF     C910055   4.503   4.241   4.395 -0.4057 -0.4229 -1.0811
  593THF    H1010056   4.678   4.147   4.487  0.6386 -0.1903 -0.6612
  593THF    H1110057   4.525   4.089   4.547 -2.1906  0.8944 -1.4890
  593THF    H1210058   4.468   4.313   4.469  0.6754 -0.5497 -0.4165
  593THF    H1310059   4.573   4.296   4.332 -2.3194  2.9681 -0.4597
  594THF     O110060   2.605   3.203   1.657  0.0057  0.3348  0.3368
  594THF     C210061   2.487   3.125   1.678 -0.0167 -0.4400 -0.0310
  594THF     C310062   2.669   3.139   1.541 -0.3969 -0.0938 -0.2819
  594THF     H410063   2.428   3.163   1.762  1.0842  0.5633  0.3082
  594THF     H510064   2.513   3.024   1.709  0.9109 -0.3823 -0.6095
  594THF     H610065   2.735   3.212   1.495 -0.0697 -0.0938  0.1831
  594THF     H710066   2.723   3.049   1.571 -0.9065  0.0151  1.0458
  594THF     C810067   2.562   3.100   1.449  0.3113 -0.3912  0.6934
  594THF     C910068   2.428   3.116   1.535 -0.4710 -0.9579 -0.6028
  594THF    H1010069   2.569   2.995   1.418  1.6685 -0.6212  1.6865
  594THF    H1110070   2.564   3.167   1.363  0.3889  0.8203  1.6256
  594THF    H1210071   2.387   3.213   1.506 -0.8366 -1.8113 -3.1730
  594THF    H1310072   2.351   3.039   1.532 -0.2092 -1.4600  2.3490
  595THF     O110073   0.047   4.863   2.437  0.3499  0.0763  0.0527
  595THF     C210074   0.111   4.773   2.520 -0.2671 -0.2342 -0.5399
  595THF     C310075   0.074   4.991   2.480  0.5067 -0.2638  0.0850
  595THF     H410076   0.212   4.793   2.484 -0.9526  2.8598 -1.0224
  595THF     H510077   0.084   4.667   2.513 -0.6036 -0.2911  1.0482
  595THF     H610078   0.172   5.024   2.446  0.4152 -0.4619 -0.3740
  595THF     H710079   0.002   5.066   2.447  1.6054  0.3432 -0.9965
  595THF     C810080   0.074   4.977   2.630 -0.3515  0.2653 -0.3614
  595THF     C910081   0.081   4.828   2.662  0.8784 -0.0220 -0.2314
  595THF    H1010082  -0.024   5.013   2.661 -0.5632  0.1697 -0.9036
  595THF    H1110083   0.155   5.037   2.671 -0.6619  0.4302  0.0209
  595THF    H1210084   0.154   4.823   2.743  1.5403  0.3472 -0.7903
  595THF    H1310085  -0.014   4.790   2.700 -0.0802  2.8914  0.5887
  596THF     O110086   2.921   5.075   1.867 -0.7829 -0.1983  0.3138
  596THF     C210087   2.800   5.117   1.796  0.2125 -0.2618 -0.0716
  596THF     C310088   2.902   4.952   1.920  0.3019 -0.1862 -0.3009
  596THF     H410089   2.790   5.065   1.701 -3.5802  0.6326 -0.3153
  596THF     H510090   2.806   5.225   1.785  0.3595 -0.4567 -2.2843
  596THF     H610091   2.893   4.875   1.844 -1.4745 -0.7708  0.4672
  596THF     H710092   2.976   4.929   1.997 -0.2374 -1.0970 -0.0470
  596THF     C810093   2.766   4.978   1.986 -0.0316  0.2833  0.2561
  596THF     C910094   2.696   5.077   1.896 -0.4293  0.5581 -1.0731
  596THF    H1010095   2.766   5.018   2.088 -0.5644 -1.6373  1.0395
  596THF    H1110096   2.714   4.883   1.987  2.5905 -1.2558 -0.2263
  596THF    H1210097   2.601   5.045   1.855 -0.6082 -0.3660 -0.0146
  596THF    H1310098   2.688   5.171   1.951  0.7722  0.7202 -1.1500
  597THF     O110099   2.348   3.909   4.486  0.0431  0.0633  0.2578
  597THF     C210100   2.432   3.966   4.392 -0.2981  0.6013  0.7629
  597THF     C310101   2.210   3.923   4.436 -0.2602 -0.1779  0.2375
  597THF     H410102   2.486   3.884   4.345 -1.3540  1.1217 -1.4885
  597THF     H510103   2.500   4.041   4.433  0.9427  1.5166 -2.5970
  597THF     H610104   2.143   3.839   4.456 -1.8766  0.7882 -0.8457
  597THF     H710105   2.167   4.006   4.492 -1.1009  0.6839 -1.6067
  597THF     C810106   2.223   3.965   4.298  0.5902 -0.3522 -0.2052
  597THF     C910107   2.352   4.037   4.283 -0.3120  0.5941 -0.1040
  597THF    H1010108   2.137   4.029   4.279 -0.1824 -1.2709  0.1149
  597THF    H1110109   2.222   3.875   4.235  2.6679  0.1752 -1.0854
  597THF    H1210110   2.405   4.025   4.189  1.4489 -0.2995  0.9378
  597THF    H1310111   2.329   4.142   4.300 -0.8338  0.5122 -0.2945
  598THF     O110112   5.073   3.760   0.872  0.5250 -0.2130  0.5392
  598THF     C210113   4.954   3.713   0.804 -0.1486  0.0344  0.1777
  598THF     C310114   5.041   3.880   0.941  0.5634  0.2037 -0.4517
  598THF     H410115   4.892   3.656   0.873 -1.4816 -0.4441 -1.3368
  598THF     H510116   4.989   3.641   0.730  0.3552  2.5074 -2.1718
  598THF     H610117   5.018   3.852   1.044 -1.5230 -0.8680 -1.1608
  598THF     H710118   5.113   3.962   0.934  0.0839  0.5534 -1.4756
  598THF     C810119   4.909   3.928   0.870  0.2636 -0.9012  0.0004
  598THF     C910120   4.889   3.841   0.749 -0.1905  0.2728  0.1242
  598THF    H1010121   4.923   4.031   0.837  0.2644 -1.6199 -2.4241
  598THF    H1110122   4.826   3.923   0.941  0.6398  0.2330  0.5421
  598THF    H1210123   4.783   3.844   0.724 -0.7525 -0.6263  2.1909
  598THF    H1310124   4.956   3.881   0.673  2.1727  1.4197  2.6604
  599THF     O110125   5.088   3.294   4.864  1.2064  0.1609 -0.3672
  599THF     C210126   5.154   3.247   4.979  0.0289 -0.8808  0.2358
  599THF     C310127   5.148   3.412   4.820  0.2873  0.1089 -0.2419
  599THF     H410128   5.249   3.206   4.946  0.7384 -0.1293  1.2994
  599THF     H510129   5.111   3.164   5.035 -1.2635  0.4139  1.2313
  599THF     H610130   5.216   3.384   4.739  0.8127  2.0273 -0.5133
  599THF     H710131   5.076   3.487   4.786 -1.8591 -1.5681  0.3794
  599THF     C810132   5.216   3.472   4.943  0.4015  0.6410 -0.2683
  599THF     C910133   5.178   3.372   5.060  0.4767 -0.2205  0.5148
  599THF    H1010134   5.160   3.565   4.950 -1.5855 -0.0979 -3.8352
  599THF    H1110135   5.321   3.492   4.919  0.7797 -2.1423 -1.3088
  599THF    H1210136   5.258   3.365   5.134 -0.1022  1.6472  1.3721
  599THF    H1310137   5.089   3.409   5.112  0.2482  0.5662 -0.4198
  600THF     O110138   1.015   0.905   2.222  0.2876 -0.1441  0.9153
  600THF     C210139   1.126   0.817   2.219 -1.0421 -0.4278  0.7025
  600THF     C310140   0.952   0.888   2.092 -0.5069 -0.0901 -0.6514
  600THF     H410141   1.100   0.719   2.259  1.3460 -1.6126 -0.4148
  600THF     H510142   1.214   0.847   2.275 -0.6342 -0.1156 -0.0784
  600THF     H610143   0.907   0.789   2.090 -2.2310  0.6537 -0.7274
  600THF     H710144   0.887   0.971   2.064 -0.0462  1.0686  1.5014
  600THF     C810145   1.071   0.896   2.003  0.2908  0.1138 -0.0668
  600THF     C910146   1.170   0.802   2.068 -0.3271  0.3956 -0.3286
  600THF    H1010147   1.117   0.995   1.998 -0.4985  0.4832 -0.1912
  600THF    H1110148   1.047   0.863   1.902  0.3149 -2.1579  0.6124
  600THF    H1210149   1.148   0.697   2.048  1.3325 -0.1179  0.3489
  600THF    H1310150   1.273   0.825   2.040  0.0248 -0.4800  0.2182
  601THF     O110151   0.855   1.346   2.234  0.7474 -0.2679 -0.0139
  601THF     C210152   0.899   1.406   2.111  0.1621 -0.2997 -0.4518
  601THF     C310153   0.893   1.212   2.234  0.4730  0.7687 -0.0821
  601THF     H410154   0.904   1.514   2.118 -0.7605 -0.0400 -2.8075
  601THF     H510155   0.845   1.378   2.020  2.3313  0.9709 -2.2535
  601THF     H610156   0.875   1.175   2.335 -0.6045  0.0066 -0.5401
  601THF     H710157   0.826   1.166   2.162 -1.5502  1.7584  1.0732
  601THF     C810158   1.038   1.233   2.193 -0.6049 -0.4065 -0.1734
  601THF     C910159   1.035   1.343   2.089 -0.4112  0.8437 -0.6908
  601THF    H1010160   1.089   1.139   2.168 -0.4660 -0.4936  0.4219
  601THF    H1110161   1.108   1.257   2.274 -1.1587  0.5736  0.0257
  601THF    H1210162   1.123   1.404   2.108 -0.0763 -0.0075  0.5819
  601THF    H1310163   1.053   1.298   1.991  2.4318  1.7509 -0.6614
  602THF     O110164   5.136   5.448   2.034 -1.1601 -0.5821 -0.8732
  602THF     C210165   5.240   5.496   1.945  0.3056  0.0909 -0.2194
  602THF     C310166   5.211   5.395   2.149 -0.4170  0.2966 -0.1361
  602THF     H410167   5.271   5.595   1.979  0.3535 -0.7077  2.3101
  602THF     H510168   5.197   5.495   1.845  0.6440 -1.7257 -0.3810
  602THF     H610169   5.249   5.475   2.213 -0.2630 -1.4181  2.0196
  602THF     H710170   5.153   5.329   2.212  1.2226 -0.8984  0.2005
  602THF     C810171   5.324   5.324   2.087 -0.1086  0.1316 -0.3265
  602THF     C910172   5.356   5.401   1.963 -0.5604 -0.2007  0.0189
  602THF    H1010173   5.301   5.223   2.053 -0.6286  0.1838 -0.1428
  602THF    H1110174   5.410   5.314   2.153 -1.4486 -1.8239  1.2553
  602THF    H1210175   5.454   5.449   1.970 -0.7285 -0.0550  1.6755
  602THF    H1310176   5.363   5.330   1.880 -0.4481  0.3190 -0.4295
  603THF     O110177   2.572   5.326   4.246 -0.0052  0.5188 -1.0799
  603THF     C210178   2.659   5.324   4.354  0.1968 -0.1019  1.1954
  603THF     C310179   2.482   5.216   4.273 -0.5605  0.1062  0.3618
  603THF     H410180   2.723   5.413   4.357 -0.9673  0.7862  0.6272
  603THF     H510181   2.724   5.237   4.349  0.4339  0.1037  0.6127
  603THF     H610182   2.397   5.229   4.206  1.5332  1.3036 -2.2792
  603THF     H710183   2.525   5.120   4.242 -1.4641 -0.0328 -0.5293
  603THF     C810184   2.444   5.236   4.421  0.1497 -0.1991 -0.0162
  603THF     C910185   2.570   5.310   4.472 -0.7012 -0.3005 -0.0732
  603THF    H1010186   2.430   5.139   4.468 -1.4700  0.0556  0.1009
  603THF    H1110187   2.361   5.306   4.428  0.0178 -0.2809 -0.6685
  603THF    H1210188   2.551   5.404   4.525 -0.5414 -1.2467  1.7274
  603THF    H1310189   2.627   5.253   4.546  0.5072  0.2639 -0.5348
  604THF     O110190   4.241   1.255   1.119 -0.0128 -0.1945  0.2722
  604THF     C210191   4.229   1.368   1.195 -0.4904  0.3028 -0.4286
  604THF     C310192   4.287   1.281   0.990 -0.2055 -0.4747  0.4431
  604THF     H410193   4.234   1.359   1.304  0.4030 -0.9684 -0.5614
  604THF     H510194   4.130   1.405   1.169 -0.5627  0.7394  0.4070
  604THF     H610195   4.338   1.205   0.931  0.2601 -0.8078  1.2565
  604THF     H710196   4.203   1.315   0.930 -0.1430  0.5701  0.9299
  604THF     C810197   4.391   1.391   1.025  1.1196  0.0385 -0.9719
  604THF     C910198   4.334   1.468   1.143 -0.2040  0.4804  0.2165
  604THF    H1010199   4.425   1.458   0.946  0.2656  0.9111 -0.6102
  604THF    H1110200   4.471   1.338   1.077 -1.0729 -0.8998  1.6399
  604THF    H1210201   4.415   1.509   1.203 -0.4855  3.9563 -1.5096
  604THF    H1310202   4.272   1.555   1.119 -0.7253  0.1446  0.3305
  605THF     O110203   1.098   4.055   0.078  0.3783 -0.1778 -0.0985
  605THF     C210204   1.127   3.955   0.176  0.0146 -0.2638  0.1497
  605THF     C310205   0.974   4.108   0.126  0.4641 -0.6852 -0.3062
  605THF     H410206   1.173   3.998   0.266 -0.0948 -0.3274  0.2365
  605THF     H510207   1.192   3.870   0.155 -0.0976 -0.5987  1.1165
  605THF     H610208   0.982   4.165   0.219  0.1187 -0.8872 -0.1524
  605THF     H710209   0.921   4.161   0.047  0.1827 -1.5713 -0.7180
  605THF     C810210   0.897   3.989   0.158 -0.4646  0.1867  0.7344
  605THF     C910211   0.999   3.896   0.215  0.1442 -0.5615  0.3757
  605THF    H1010212   0.850   3.954   0.066 -0.0008  1.0104  0.1752
  605THF    H1110213   0.813   3.997   0.227 -0.7174 -0.8974  0.5710
  605THF    H1210214   1.010   3.876   0.321  0.7845 -0.7186  0.2873
  605THF    H1310215   0.991   3.806   0.154  1.3750  1.3173 -2.8418
  606THF     O110216   1.917   4.408   4.468 -0.1317  0.4157 -0.6779
  606THF     C210217   1.886   4.542   4.432 -0.4501 -0.4155  0.0737
  606THF     C310218   2.051   4.402   4.529  0.5757  0.1412 -0.3821
  606THF     H410219   1.780   4.564   4.420 -0.0729  2.1229  0.8739
  606THF     H510220   1.928   4.572   4.336 -1.0872 -2.0604 -0.7566
  606THF     H610221   2.068   4.310   4.585  1.3646  0.9610  0.7799
  606THF     H710222   2.128   4.421   4.455 -0.2491  1.0850 -1.0168
  606THF     C810223   2.042   4.520   4.625  0.5812  0.6816  0.0262
  606THF     C910224   1.930   4.607   4.561 -0.4521 -0.3741  0.5660
  606THF    H1010225   2.137   4.571   4.641  0.0334  1.2771  1.5283
  606THF    H1110226   2.014   4.494   4.727  2.5630 -0.5291  0.3262
  606THF    H1210227   1.845   4.606   4.629  0.1703 -1.7687  1.3714
  606THF    H1310228   1.974   4.704   4.537 -1.5168 -0.2372 -0.9991
  607THF     O110229   3.864   3.620   2.409 -0.0343 -0.2544 -0.0797
  607THF     C210230   3.751   3.616   2.325  0.1322  0.1516  0.0457
  607THF     C310231   3.850   3.539   2.515  0.1439  0.0665 -0.2061
  607THF     H410232   3.774   3.640   2.221 -0.1466  0.1111 -0.0265
  607THF     H510233   3.664   3.675   2.353 -0.8542 -1.7502  1.1504
  607THF     H610234   3.927   3.464   2.532 -0.9102 -0.8760  0.6063
  607THF     H710235   3.836   3.601   2.604 -0.4266 -0.3195 -0.0239
  607THF     C810236   3.722   3.457   2.482 -0.3166 -0.5865 -0.1361
  607THF     C910237   3.722   3.469   2.331  0.1648  0.2814 -0.0688
  607THF    H1010238   3.634   3.497   2.533  0.3458 -0.6048  1.0616
  607THF    H1110239   3.722   3.354   2.517  1.9667 -0.0128  1.8254
  607THF    H1210240   3.800   3.401   2.297  0.7368 -0.2480  2.1106
  607THF    H1310241   3.628   3.444   2.280  0.1012 -1.7276  0.9275
  608THF     O110242   4.017   2.046   3.827 -0.1007 -0.3168  0.3966
  608THF     C210243   4.132   2.135   3.845 -0.1183  0.6896  0.3578
  608THF     C310244   3.937   2.059   3.945 -0.8139  0.1038  0.3651
  608THF     H410245   4.092   2.235   3.833  0.1879  0.9290  1.2747
  608THF     H510246   4.207   2.119   3.768 -0.1648 -0.6000  0.5514
  608THF     H610247   3.891   2.157   3.954 -0.0438  0.9385 -3.1038
  608THF     H710248   3.867   1.975   3.938 -1.9801  1.1669 -2.9340
  608THF     C810249   4.050   2.046   4.052 -0.3313 -0.2825  0.0998
  608THF     C910250   4.178   2.115   3.989  0.1902 -0.1853  0.7066
  608THF    H1010251   4.083   1.942   4.057 -0.1763 -0.2346  0.0974
  608THF    H1110252   4.027   2.088   4.150 -0.8893  0.9181 -0.5404
  608THF    H1210253   4.196   2.209   4.040  0.2971  1.0064 -1.3964
  608THF    H1310254   4.259   2.043   3.988 -0.3834 -0.8466  0.3828
  609THF     O110255   1.119   4.564   0.033 -0.0901  0.9183  0.6720
  609THF     C210256   1.174   4.431   0.045 -0.0368  0.1466 -0.6034
  609THF     C310257   1.130   4.617   0.162  0.1668 -0.5133 -0.6291
  609THF     H410258   1.230   4.393  -0.040  1.6390 -1.4534  1.1201
  609THF     H510259   1.113   4.353   0.092  1.3027 -1.6514 -1.7178
  609THF     H610260   1.108   4.724   0.160 -0.6621 -0.6532  0.0803
  609THF     H710261   1.063   4.567   0.233  1.6763  1.7319  2.6013
  609THF     C810262   1.274   4.591   0.198  0.0937 -0.6812  0.5265
  609THF     C910263   1.288   4.449   0.146 -0.5378  0.8297  0.0291
  609THF    H1010264   1.308   4.607   0.300  0.3519 -2.5374  0.7727
  609THF    H1110265   1.337   4.659   0.141  2.4676 -0.6419  2.9788
  609THF    H1210266   1.384   4.430   0.097 -1.4099 -2.6076 -0.6113
  609THF    H1310267   1.273   4.383   0.232 -3.0649  2.2310  0.7513
  610THF     O110268   1.294   1.649   2.329  0.3166  0.1429 -0.0353
  610THF     C210269   1.362   1.532   2.291  0.8794  0.1097  0.2042
  610THF     C310270   1.234   1.697   2.208  0.4114  0.2111  0.2494
  610THF     H410271   1.292   1.450   2.274  1.2515 -0.4760  1.3883
  610THF     H510272   1.437   1.487   2.356 -0.2137 -2.8642 -0.3858
  610THF     H610273   1.152   1.635   2.173 -1.6402  3.0826 -0.4276
  610THF     H710274   1.180   1.791   2.222  0.6209  0.6150 -1.4713
  610THF     C810275   1.344   1.684   2.109 -0.5785  0.4129 -0.6503
  610THF     C910276   1.429   1.567   2.159  0.5495 -0.4005  1.0838
  610THF    H1010277   1.405   1.774   2.103  0.6695 -0.2856  0.8722
  610THF    H1110278   1.312   1.664   2.007 -0.2797  1.1736 -0.9038
  610THF    H1210279   1.428   1.484   2.088  4.2017 -1.4007  1.9680
  610THF    H1310280   1.534   1.590   2.175  1.3481 -1.9362 -1.2970
  611THF     O110281   5.362   4.556   3.148 -0.0253  0.1975 -0.1667
  611THF     C210282   5.252   4.619   3.210  0.7427  0.2552 -0.8534
  611THF     C310283   5.343   4.416   3.164 -0.1666 -0.1161  0.5447
  611THF     H410284   5.183   4.659   3.135 -0.6269 -0.7834 -0.1937
  611THF     H510285   5.298   4.703   3.262  0.7048  0.9048 -1.8467
  611THF     H610286   5.290   4.373   3.079  1.6503 -0.3303 -0.5494
  611THF     H710287   5.438   4.366   3.142 -1.2077 -1.4354 -1.1742
  611THF     C810288   5.274   4.402   3.302  0.1883 -0.5892 -0.1318
  611THF     C910289   5.183   4.521   3.310 -0.0125 -0.1413 -0.1415
  611THF    H1010290   5.343   4.416   3.385 -0.1041 -0.0962  0.0313
  611THF    H1110291   5.221   4.307   3.309 -0.4384 -0.2163  0.1901
  611THF    H1210292   5.082   4.499   3.276 -1.0397  3.4952  0.1696
  611THF    H1310293   5.167   4.563   3.409  1.6324 -2.8405  1.3856
  612THF     O110294   3.353   1.959   0.656  0.7764  0.1170  0.0417
  612THF     C210295   3.378   2.045   0.772  0.1897  0.4496  0.2303
  612THF     C310296   3.224   1.907   0.662  0.2948  0.1928  0.0121
  612THF     H410297   3.334   2.145   0.766 -0.0960  0.3189  0.1416
  612THF     H510298   3.484   2.056   0.796  0.3521 -3.6320  2.1494
  612THF     H610299   3.147   1.967   0.614 -2.5596 -1.8211  1.7529
  612THF     H710300   3.213   1.809   0.616 -0.2594  0.5966 -0.7374
  612THF     C810301   3.192   1.898   0.813 -0.6132 -0.7345  0.0079
  612THF     C910302   3.297   1.982   0.882 -0.3925 -0.1777 -0.0100
  612THF    H1010303   3.204   1.793   0.840  2.3412 -1.2543 -2.7286
  612THF    H1110304   3.098   1.949   0.835  0.5234  1.4498  0.0032
  612THF    H1210305   3.250   2.069   0.928 -0.9575  0.6389 -1.9889
  612THF    H1310306   3.361   1.923   0.948  0.0134  0.8482  0.5482
  613THF     O110307   0.065   3.770   1.050 -0.0657 -0.1352 -0.8333
  613THF     C210308   0.116   3.730   1.178  0.0173 -0.4715 -0.1555
  613THF     C310309  -0.038   3.686   1.013  1.0845 -0.4295 -0.0540
  613THF     H410310   0.052   3.769   1.258  1.8956  0.6856  0.8487
  613THF     H510311   0.214   3.771   1.203  0.0572 -0.5156 -0.2414
  613THF     H610312  -0.133   3.700   1.064  0.0729 -0.1350 -1.9176
  613THF     H710313  -0.066   3.684   0.907 -0.3973 -0.1557  0.3227
  613THF     C810314   0.018   3.546   1.058 -0.1787 -0.0232  0.0216
  613THF     C910315   0.110   3.580   1.173  0.2890  0.5921  0.1749
  613THF    H1010316   0.056   3.494   0.970  2.0143  0.7457  0.4414
  613THF    H1110317  -0.060   3.478   1.091  0.1805 -0.7463 -0.5771
  613THF    H1210318   0.062   3.554   1.267 -2.0823 -1.0252 -1.4042
  613THF    H1310319   0.200   3.525   1.145 -0.1823 -0.0071 -0.1544
  614THF     O110320   5.089   0.700   1.513  0.1878  0.0462 -0.2003
  614THF     C210321   5.015   0.804   1.574  0.6374  0.4388 -0.7542
  614THF     C310322   5.152   0.749   1.394 -0.3916  0.5397 -0.1819
  614THF     H410323   5.060   0.816   1.673 -0.3625 -3.2560  0.3170
  614THF     H510324   4.914   0.770   1.595  0.5921 -0.0594 -1.6988
  614THF     H610325   5.247   0.701   1.373 -0.8291 -0.2746 -0.3204
  614THF     H710326   5.103   0.717   1.302  1.8762 -0.7090 -1.0217
  614THF     C810327   5.155   0.902   1.418  0.3917  0.2625 -0.3460
  614THF     C910328   5.018   0.929   1.487  0.0825  0.3322 -0.2057
  614THF    H1010329   5.157   0.968   1.331 -2.4130  3.4931  1.7860
  614THF    H1110330   5.235   0.919   1.490 -0.5967 -0.8776  1.0914
  614THF    H1210331   5.006   1.020   1.547 -1.2257 -0.3297  0.5855
  614THF    H1310332   4.938   0.923   1.414 -1.4229 -2.1682  1.4945
  615THF     O110333   2.643   2.233   3.884  0.4673 -0.1287  0.3157
  615THF     C210334   2.553   2.203   3.778 -0.2469  0.6697  0.7567
  615THF     C310335   2.757   2.152   3.875 -0.3348 -0.7667 -0.5032
  615THF     H410336   2.495   2.288   3.744 -1.9308 -0.1370  1.4729
  615THF     H510337   2.480   2.129   3.812 -0.7528  1.6079  1.7800
  615THF     H610338   2.839   2.195   3.933 -1.5146  2.3018 -0.8912
  615THF     H710339   2.723   2.057   3.916  0.8402 -0.0256  2.4389
  615THF     C810340   2.784   2.142   3.725 -0.6198  0.0641  0.1048
  615THF     C910341   2.646   2.146   3.665  0.6324  0.0862  0.0982
  615THF    H1010342   2.854   2.063   3.697 -0.2068  0.5391 -0.2207
  615THF    H1110343   2.823   2.241   3.701 -2.0718  1.3623  2.6987
  615THF    H1210344   2.644   2.205   3.574 -0.8839  1.0554  0.7239
  615THF    H1310345   2.610   2.044   3.648 -2.4456  0.8242  1.4976
  616THF     O110346   4.822   4.420   4.301 -0.0637  0.0433 -0.3577
  616THF     C210347   4.903   4.527   4.343 -0.0555 -0.2095 -0.4124
  616THF     C310348   4.860   4.304   4.373 -0.1278 -0.3850  0.2686
  616THF     H410349   4.876   4.556   4.445  0.1738 -1.3010 -0.0263
  616THF     H510350   4.906   4.606   4.268  1.9069 -0.2337 -0.4027
  616THF     H610351   4.805   4.314   4.466 -1.8851 -0.1944 -0.7419
  616THF     H710352   4.827   4.215   4.320  1.7359  0.5289 -2.7095
  616THF     C810353   5.010   4.309   4.361 -0.0008 -0.4959  0.4385
  616THF     C910354   5.041   4.460   4.343 -1.1723 -0.7985 -0.0544
  616THF    H1010355   5.048   4.254   4.275  1.1474  0.4295  0.3304
  616THF    H1110356   5.041   4.271   4.458  1.9215 -0.8517 -0.2772
  616THF    H1210357   5.106   4.507   4.416 -1.7925  0.1670 -0.1056
  616THF    H1310358   5.086   4.481   4.246  1.5791  0.9308  1.4606
  617THF     O110359   3.798   1.410   2.584  0.5825 -0.0969  0.5988
  617THF     C210360   3.937   1.382   2.555  0.7213 -0.0371 -0.3777
  617THF     C310361   3.744   1.289   2.626 -0.0395  0.0571  0.0575
  617THF     H410362   4.008   1.463   2.542  1.2423 -0.7361 -2.0931
  617THF     H510363   3.930   1.334   2.457 -1.2040  2.7677 -1.7317
  617THF     H610364   3.639   1.284   2.657 -0.3382 -3.6212 -0.9837
  617THF     H710365   3.742   1.217   2.544 -0.9319  0.9189 -0.7039
  617THF     C810366   3.846   1.240   2.731  1.1429  0.0466  0.1214
  617THF     C910367   3.975   1.284   2.666 -0.2770  0.4511 -0.0321
  617THF    H1010368   3.837   1.135   2.758 -1.4796  0.0810 -0.2736
  617THF    H1110369   3.843   1.296   2.825  0.7220 -0.2938  0.3143
  617THF    H1210370   4.029   1.348   2.736 -0.1262  1.0572 -0.6929
  617THF    H1310371   4.043   1.213   2.620  2.2291  1.4806  1.8315
  618THF     O110372   5.029   2.946   0.376 -0.1888 -0.6248 -0.1884
  618THF     C210373   5.011   2.839   0.289  0.7657 -0.4558 -1.5785
  618THF     C310374   4.933   3.043   0.351 -0.2085 -0.3207 -0.2527
  618THF     H410375   4.946   2.765   0.336 -1.3513  1.4055 -1.3892
  618THF     H510376   5.110   2.803   0.261  0.5921 -1.3114 -1.1300
  618THF     H610377   4.830   3.026   0.381 -0.5317  0.6746 -0.7554
  618THF     H710378   4.966   3.133   0.402 -1.3400 -0.8205  1.4382
  618THF     C810379   4.933   3.051   0.202 -0.4819  0.0381  0.3173
  618THF     C910380   4.928   2.895   0.171 -0.0384 -0.0242 -0.9777
  618THF    H1010381   5.027   3.094   0.169  1.4404 -1.6371  3.1996
  618THF    H1110382   4.840   3.097   0.168 -0.1647  1.6517  1.5149
  618THF    H1210383   4.825   2.859   0.169 -0.4736  0.8021  1.5914
  618THF    H1310384   4.977   2.888   0.074  0.4814 -1.5685 -0.6300
  619THF     O110385   1.929   1.467   2.763 -0.6831  0.7911 -0.3512
  619THF     C210386   1.979   1.562   2.853  0.9005  0.4446  0.6968
  619THF     C310387   2.046   1.397   2.711 -0.0913 -0.0806 -0.1158
  619THF     H410388   1.915   1.566   2.941 -0.9780 -1.6554 -0.4416
  619THF     H510389   1.990   1.661   2.810 -2.5606 -0.4018 -2.7729
  619THF     H610390   2.012   1.305   2.663 -1.3366  1.1500 -1.6948
  619THF     H710391   2.086   1.463   2.635  0.3258  1.2014  1.1550
  619THF     C810392   2.128   1.368   2.840  0.2082  0.0547  1.0409
  619THF     C910393   2.114   1.511   2.899 -0.3268  0.2007  0.3086
  619THF    H1010394   2.232   1.339   2.828  0.3318  0.7750  0.2704
  619THF    H1110395   2.074   1.293   2.897  0.0551 -0.7802 -0.1696
  619THF    H1210396   2.123   1.504   3.008 -0.4855  0.4074  0.3347
  619THF    H1310397   2.202   1.567   2.867  0.0459 -0.1648  0.6705
  620THF     O110398   1.946   2.379   4.444  0.2146  0.1828 -0.0281
  620THF     C210399   1.949   2.512   4.393  0.5213  0.1269 -0.3843
  620THF     C310400   1.813   2.338   4.435 -0.0354 -0.0306  0.1770
  620THF     H410401   1.968   2.520   4.286 -0.0184 -0.1935 -0.5065
  620THF     H510402   2.029   2.573   4.436  0.6269 -0.1132 -0.2353
  620THF     H610403   1.789   2.313   4.332 -3.6594  1.7041  0.4457
  620THF     H710404   1.796   2.255   4.503  2.3923 -0.9921 -0.2766
  620THF     C810405   1.734   2.457   4.483 -0.5688 -0.4304  0.0067
  620THF     C910406   1.811   2.572   4.412  0.0810 -0.2184 -0.0306
  620THF    H1010407   1.728   2.486   4.588 -1.2872  0.6990 -0.3271
  620THF    H1110408   1.633   2.441   4.447 -0.1760 -1.3226 -0.7423
  620THF    H1210409   1.764   2.591   4.316  0.8685 -1.4803 -0.6979
  620THF    H1310410   1.806   2.666   4.467  0.6759  0.0056 -0.3581
  621THF     O110411   2.322   4.451   4.969 -0.3143 -0.1049  0.5624
  621THF     C210412   2.212   4.535   4.933  0.5219  0.1779 -0.2486
  621THF     C310413   2.302   4.410   5.110  0.4945  0.4082  0.7146
  621THF     H410414   2.128   4.471   4.909 -1.7606  3.7405 -2.8006
  621THF     H510415   2.219   4.586   4.837  1.2479 -3.3711 -2.2370
  621THF     H610416   2.235   4.324   5.104  0.0930  0.7805 -0.5650
  621THF     H710417   2.397   4.386   5.158 -0.2417  0.3388  2.2031
  621THF     C810418   2.226   4.525   5.179 -0.2981  0.3589 -0.1761
  621THF     C910419   2.186   4.615   5.061 -0.6343  0.3712 -1.1051
  621THF    H1010420   2.303   4.578   5.236 -1.1989  2.0629 -0.4757
  621THF    H1110421   2.146   4.471   5.230  0.3426 -0.3315  0.1281
  621THF    H1210422   2.083   4.647   5.078 -0.6339 -1.0525  2.3008
  621THF    H1310423   2.245   4.706   5.064  2.1415 -1.3179  2.3644
  622THF     O110424   0.582   4.719   1.717 -0.5819  0.7074 -0.0500
  622THF     C210425   0.655   4.819   1.786 -0.2547  0.2505 -0.3825
  622THF     C310426   0.672   4.609   1.678  0.0454 -0.3299 -0.6068
  622THF     H410427   0.658   4.800   1.893  1.2071  0.0410 -0.4439
  622THF     H510428   0.600   4.912   1.795  0.0683  0.3167  1.0369
  622THF     H610429   0.668   4.521   1.741  1.6616  1.0946  1.6287
  622THF     H710430   0.655   4.577   1.575  0.7294  0.4830 -0.9889
  622THF     C810431   0.814   4.680   1.673  0.6728 -0.3258 -0.7478
  622THF     C910432   0.787   4.824   1.720 -0.2345  0.2033  0.4581
  622THF    H1010433   0.866   4.675   1.577 -0.0432 -2.1105 -1.0907
  622THF    H1110434   0.871   4.618   1.742 -2.5627 -1.0389  1.4855
  622THF    H1210435   0.865   4.860   1.788  0.1480  3.4004 -1.4448
  622THF    H1310436   0.792   4.896   1.639  1.6016 -1.1955 -0.7522
  623THF     O110437   0.382   4.256   1.314 -0.3735 -0.0860 -0.2197
  623THF     C210438   0.245   4.255   1.342  0.0011 -0.3104  0.1086
  623THF     C310439   0.412   4.166   1.216 -0.5042  0.6616 -0.1857
  623THF     H410440   0.219   4.351   1.388 -2.3677 -0.9944  0.2814
  623THF     H510441   0.216   4.174   1.408  1.6531  1.0638  2.7421
  623THF     H610442   0.502   4.199   1.165 -0.9314  3.9026  0.9311
  623THF     H710443   0.441   4.071   1.261  1.9230  0.5171 -1.9071
  623THF     C810444   0.279   4.140   1.141  0.6694 -0.0495  0.4407
  623THF     C910445   0.184   4.243   1.202  0.4449 -1.1275 -0.1659
  623THF    H1010446   0.241   4.041   1.168 -0.1439  0.5118  1.4078
  623THF    H1110447   0.287   4.157   1.034  2.3945  0.2845  0.5988
  623THF    H1210448   0.194   4.340   1.154  0.5254 -1.5873 -1.1153
  623THF    H1310449   0.078   4.215   1.200  0.9346 -3.1003 -0.2263
  624THF     O110450   1.964   1.188   5.314 -0.3175  0.2106 -0.0036
  624THF     C210451   1.892   1.252   5.410  0.1454  0.2781  0.6048
  624THF     C310452   2.086   1.256   5.308 -0.1762  0.6709  0.7021
  624THF     H410453   1.808   1.193   5.447  0.2488 -0.3777 -0.1808
  624THF     H510454   1.851   1.349   5.381 -0.8728  0.4796  2.5094
  624THF     H610455   2.163   1.183   5.281 -0.3182  0.1817  1.5561
  624THF     H710456   2.074   1.336   5.235  1.1473  1.1669  1.0011
  624THF     C810457   2.109   1.318   5.442 -0.5376 -0.0502  0.6514
  624THF     C910458   1.994   1.264   5.521  0.5049 -0.5029 -0.1530
  624THF    H1010459   2.099   1.427   5.447  0.1439  0.0123  0.7883
  624THF    H1110460   2.203   1.287   5.489  0.4135 -0.6665 -1.5277
  624THF    H1210461   2.021   1.166   5.560 -1.9094 -1.1125  0.1411
  624THF    H1310462   1.955   1.333   5.596  3.1909 -0.0126  0.9070
  625THF     O110463   2.457   0.281   0.984  0.4766  0.0138  0.0093
  625THF     C210464   2.547   0.300   1.093 -0.5961  0.7355  0.0989
  625THF     C310465   2.369   0.176   1.007 -0.4830 -1.5841 -0.1378
  625THF     H410466   2.576   0.404   1.089  1.2244  0.2476 -0.2737
  625THF     H510467   2.636   0.243   1.066 -1.1120  0.2153 -0.5585
  625THF     H610468   2.286   0.187   0.938  1.5723 -0.9267 -2.6509
  625THF     H710469   2.425   0.086   0.983 -0.7391 -1.6055 -0.6584
  625THF     C810470   2.334   0.197   1.156 -0.2145  0.2089  0.5527
  625THF     C910471   2.457   0.263   1.213 -0.4266 -0.7874 -0.3643
  625THF    H1010472   2.294   0.110   1.209  0.7410  2.2235  5.0086
  625THF    H1110473   2.243   0.256   1.168 -3.1486 -3.7276 -0.3136
  625THF    H1210474   2.431   0.354   1.267 -0.7185  0.9450 -3.2178
  625THF    H1310475   2.507   0.192   1.279 -0.9015 -0.0335  0.8425
  626THF     O110476   0.149   2.949   4.432 -0.4901  0.3243 -0.3768
  626THF     C210477   0.044   2.857   4.467  0.2159 -0.0939 -0.1085
  626THF     C310478   0.271   2.884   4.425  0.1476 -0.0023  0.7759
  626THF     H410479  -0.002   2.822   4.374  0.0190 -1.0169  0.3310
  626THF     H510480  -0.035   2.903   4.526 -0.7073 -0.1761 -1.2379
  626THF     H610481   0.281   2.862   4.319  1.5013 -2.2089  1.3111
  626THF     H710482   0.353   2.953   4.445 -1.1213  1.8769 -0.1207
  626THF     C810483   0.264   2.765   4.526  0.4060 -0.0108  1.0873
  626THF     C910484   0.113   2.742   4.540  0.2512  0.8403  0.3056
  626THF    H1010485   0.310   2.801   4.617  0.4887  0.8688  0.7067
  626THF    H1110486   0.314   2.674   4.491  0.4684 -0.6034  2.6275
  626THF    H1210487   0.087   2.648   4.492  1.2537  0.1179  1.1312
  626THF    H1310488   0.077   2.735   4.642  0.1165  1.6234  0.3228
  627THF     O110489   2.955   1.803   1.249  0.5738 -0.3583  0.8077
  627THF     C210490   2.953   1.662   1.273  0.4820 -0.0222  0.6763
  627THF     C310491   2.990   1.824   1.111 -0.2031 -0.2568  0.1772
  627THF     H410492   2.849   1.629   1.282  1.1896 -2.1359  1.6139
  627THF     H510493   2.995   1.642   1.372  0.0662 -1.4832  0.5826
  627THF     H610494   2.907   1.883   1.074 -1.1759 -3.2979 -3.0594
  627THF     H710495   3.090   1.867   1.110  0.4896 -1.7684  0.6159
  627THF     C810496   2.998   1.684   1.047 -0.4279  0.0700  0.2988
  627THF     C910497   3.018   1.587   1.160  0.5740 -0.9306 -0.2113
  627THF    H1010498   3.075   1.673   0.970  0.1440  2.5018  0.4486
  627THF    H1110499   2.900   1.667   1.003  0.0301 -0.0930 -0.7046
  627THF    H1210500   2.955   1.499   1.149 -1.5341  0.6843 -1.8724
  627THF    H1310501   3.120   1.564   1.189  0.2844 -2.0478 -0.0568
  628THF     O110502   2.516   4.850   1.463 -0.3645  0.4361 -0.2569
  628THF     C210503   2.517   4.888   1.328 -0.0255 -0.2778  1.0486
  628THF     C310504   2.605   4.932   1.540 -0.2797  0.0989 -0.9133
  628THF     H410505   2.435   4.855   1.265 -0.8124  1.2351  1.2512
  628THF     H510506   2.596   4.846   1.266 -2.1654  0.4400 -2.4188
  628THF     H610507   2.585   4.930   1.647  0.9511  0.7997 -0.6440
  628THF     H710508   2.707   4.895   1.531 -0.7179 -1.0319 -1.3031
  628THF     C810509   2.579   5.069   1.481  0.3597  0.1487 -0.0159
  628THF     C910510   2.540   5.038   1.338 -0.3235 -0.0424  0.2811
  628THF    H1010511   2.673   5.124   1.486 -0.3853  1.5240 -0.6805
  628THF    H1110512   2.496   5.119   1.530  0.4323  1.5152 -1.1994
  628THF    H1210513   2.452   5.095   1.306  2.3358  3.2743 -1.9673
  628THF    H1310514   2.622   5.060   1.268 -0.1758  0.1339  0.5083
  629THF     O110515   3.307   1.798   1.954  0.1312  0.2861 -0.1869
  629THF     C210516   3.201   1.885   1.951  0.2698  0.1604 -0.3012
  629THF     C310517   3.427   1.863   1.978 -1.0242  0.6087  0.0437
  629THF     H410518   3.130   1.842   2.021 -1.9857  1.5249 -1.6214
  629THF     H510519   3.145   1.901   1.859  0.1009  1.5160  0.0155
  629THF     H610520   3.505   1.799   2.020 -1.5060 -1.8347 -2.5036
  629THF     H710521   3.458   1.902   1.881 -0.0768  0.3894  0.2459
  629THF     C810522   3.392   1.983   2.061 -1.1813  0.5387  0.8277
  629THF     C910523   3.256   2.020   2.008 -0.4887 -0.3745 -0.0727
  629THF    H1010524   3.462   2.065   2.039 -1.8215  0.7993 -0.3042
  629THF    H1110525   3.398   1.966   2.169  3.5850 -0.3008  0.6699
  629THF    H1210526   3.187   2.063   2.081  0.7625 -1.1002  1.5949
  629THF    H1310527   3.264   2.094   1.929  0.3013  0.9497  1.2021
  630THF     O110528   0.443   5.226   1.091  0.2857  0.6942  0.9243
  630THF     C210529   0.550   5.271   1.177 -0.1616 -1.2484  0.0894
  630THF     C310530   0.452   5.300   0.965 -0.4057  0.8713 -0.0658
  630THF     H410531   0.641   5.212   1.191  0.5840 -0.1987 -0.2781
  630THF     H510532   0.503   5.278   1.276  1.5676 -0.1672  0.8856
  630THF     H610533   0.524   5.235   0.914 -1.0906 -0.8670  1.0710
  630THF     H710534   0.360   5.309   0.908 -0.6216 -2.3809 -0.4467
  630THF     C810535   0.498   5.437   1.007 -0.8091 -0.6866  0.3060
  630THF     C910536   0.603   5.405   1.119 -0.1599 -0.2620  0.0734
  630THF    H1010537   0.424   5.504   1.050  0.5810  1.3253 -0.3317
  630THF    H1110538   0.543   5.500   0.931  0.0638 -1.4541  0.1688
  630THF    H1210539   0.699   5.394   1.068  0.5292 -3.0343  1.7311
  630THF    H1310540   0.610   5.489   1.187  0.6319  1.9612 -2.5711
  631THF     O110541   5.041   3.907   2.229  0.2274 -0.9072  0.0729
  631THF     C210542   5.095   3.798   2.291  0.1267 -0.9042 -0.0462
  631THF     C310543   4.899   3.914   2.249 -0.0462 -0.6666  0.4666
  631THF     H410544   5.094   3.811   2.399 -0.9656 -3.7882  0.3818
  631THF     H510545   5.196   3.779   2.256  0.0056  0.5469 -1.2671
  631THF     H610546   4.888   3.966   2.344  0.8315  0.4981 -0.0451
  631THF     H710547   4.848   3.967   2.169  1.5539 -2.1715 -1.7231
  631THF     C810548   4.858   3.771   2.259 -0.3810 -0.0750 -0.0910
  631THF     C910549   4.995   3.701   2.249  0.0237  0.4023 -0.4305
  631THF    H1010550   4.807   3.728   2.173 -0.2877  0.0604 -0.2155
  631THF    H1110551   4.800   3.750   2.349  0.4749  1.5127  0.8768
  631THF    H1210552   5.016   3.617   2.315  0.2461  1.4065  0.8064
  631THF    H1310553   5.018   3.673   2.146  0.7672  1.8471 -0.6919
  632THF     O110554   1.779   5.229   2.814 -0.4277  0.0748  0.2521
  632THF     C210555   1.670   5.210   2.717 -0.7011 -0.0749 -0.1580
  632THF     C310556   1.822   5.359   2.818  0.1853 -0.3824  0.4609
  632THF     H410557   1.577   5.263   2.734 -0.7483  0.2922 -1.5178
  632THF     H510558   1.661   5.104   2.692  2.8493 -0.1452 -1.8187
  632THF     H610559   1.748   5.414   2.875  0.9468 -0.8736  1.9676
  632THF     H710560   1.919   5.365   2.869  1.8768 -0.5630 -2.5030
  632THF     C810561   1.821   5.396   2.668 -0.1078  0.0947 -0.0432
  632THF     C910562   1.740   5.288   2.598  0.0002 -0.0947  0.1395
  632THF    H1010563   1.924   5.384   2.634  0.0394 -1.8214  0.9448
  632THF    H1110564   1.785   5.495   2.640  1.1620  0.7914  0.6678
  632THF    H1210565   1.666   5.333   2.533 -2.2811 -1.2450  1.7986
  632THF    H1310566   1.811   5.231   2.538 -0.1647  1.1032 -1.2723
  633THF     O110567   2.689   2.320   4.796  0.1848  0.3805 -0.1595
  633THF     C210568   2.827   2.313   4.826 -0.4307 -0.2865  0.1960
  633THF     C310569   2.631   2.344   4.923  0.2195  0.0062  0.7468
  633THF     H410570   2.898   2.335   4.746 -0.2180  0.2517  0.5283
  633THF     H510571   2.861   2.226   4.883 -0.1754  1.1426  2.3245
  633THF     H610572   2.537   2.396   4.909 -0.4838 -1.5674 -0.7919
  633THF     H710573   2.618   2.248   4.974  1.1981 -0.9604 -0.7455
  633THF     C810574   2.719   2.439   5.000 -0.4216  1.2868  0.0075
  633THF     C910575   2.845   2.431   4.915  0.2185 -0.1582 -0.2106
  633THF    H1010576   2.739   2.390   5.096  0.5656 -0.2848 -0.9637
  633THF    H1110577   2.675   2.538   5.006 -0.7984  1.0969  0.4220
  633THF    H1210578   2.849   2.527   4.863 -2.1392  0.6184  0.9017
  633THF    H1310579   2.934   2.414   4.976 -0.1382 -1.2015  0.0409
  634THF     O110580   1.322   4.407   0.669  0.1608 -0.1686  0.3761
  634THF     C210581   1.188   4.387   0.645  0.0846  0.6828 -0.1037
  634THF     C310582   1.340   4.541   0.712 -0.5677  0.7594  0.4703
  634THF     H410583   1.164   4.283   0.625 -2.1698  1.0455  0.4846
  634THF     H510584   1.159   4.431   0.549  2.2948  2.0590 -0.2086
  634THF     H610585   1.434   4.549   0.766 -0.4431 -0.3240  0.4186
  634THF     H710586   1.346   4.599   0.620  0.0071 -2.0335 -1.3636
  634THF     C810587   1.218   4.562   0.802 -0.3424 -0.4673  0.6067
  634THF     C910588   1.130   4.449   0.770  0.4581  0.9392  0.0606
  634THF    H1010589   1.172   4.660   0.787  0.1571 -0.2165  0.7063
  634THF    H1110590   1.255   4.550   0.903 -0.8975 -0.9020  0.7645
  634THF    H1210591   1.137   4.383   0.857  2.7717  1.9408  0.6924
  634THF    H1310592   1.025   4.473   0.751  0.5422  1.0918 -0.2037
  635THF     O110593   1.517   4.506   2.113 -0.2453 -0.1146 -0.1779
  635THF     C210594   1.506   4.374   2.169  0.4822 -1.2174 -0.0043
  635THF     C310595   1.482   4.497   1.975 -0.3813  0.8425  0.7016
  635THF     H410596   1.421   4.390   2.236  0.8924  0.2283  0.2213
  635THF     H510597   1.601   4.371   2.223  0.4096 -0.6650  0.1604
  635THF     H610598   1.378   4.528   1.976 -1.2287 -1.7029  2.7453
  635THF     H710599   1.526   4.571   1.909  1.1460 -0.2551  0.4352
  635THF     C810600   1.500   4.354   1.932 -0.4366  0.4249  0.5352
  635THF     C910601   1.480   4.268   2.060 -0.0960 -0.5732 -0.3799
  635THF    H1010602   1.603   4.337   1.902 -0.2347  1.4081  0.6379
  635THF    H1110603   1.427   4.335   1.853  1.4312 -0.5520 -1.0103
  635THF    H1210604   1.373   4.249   2.051 -0.8098  3.0246 -0.9091
  635THF    H1310605   1.548   4.185   2.080  1.2628  0.0403 -2.1932
  636THF     O110606   4.408   3.493   2.984  0.6419  0.5463 -0.2108
  636THF     C210607   4.335   3.602   2.924 -0.3904  0.4335 -0.1785
  636THF     C310608   4.382   3.490   3.124  0.2607  0.3328 -0.4526
  636THF     H410609   4.296   3.589   2.823 -0.5131  1.1988 -0.2291
  636THF     H510610   4.398   3.689   2.909 -0.6807  0.7885  0.6424
  636THF     H610611   4.349   3.393   3.161  0.8051 -0.1510 -1.2293
  636THF     H710612   4.479   3.503   3.172 -0.5978 -0.2878  1.5606
  636THF     C810613   4.295   3.606   3.168 -0.2697  0.1756 -0.1461
  636THF     C910614   4.224   3.626   3.033  0.0764 -0.3213  0.4922
  636THF    H1010615   4.372   3.680   3.188 -1.4904  1.1325  1.2168
  636THF    H1110616   4.227   3.592   3.252 -0.9298  2.8177 -0.1504
  636THF    H1210617   4.148   3.549   3.033  1.3152 -1.5993  1.6383
  636THF    H1310618   4.170   3.721   3.032  0.0083 -0.3545  0.8381
  637THF     O110619   0.938   1.050   4.629 -0.0015  0.2747 -0.2245
  637THF     C210620   0.812   1.069   4.686  0.2556 -0.2499  0.7964
  637THF     C310621   0.929   0.966   4.511  0.2284  0.5307  0.1682
  637THF     H410622   0.810   1.160   4.745  0.6679  1.1324 -1.2022
  637THF     H510623   0.783   0.981   4.743 -2.4620  1.2150  1.9042
  637THF     H610624   0.993   1.008   4.433 -1.1036 -1.4009 -2.1050
  637THF     H710625   0.963   0.864   4.526 -3.2049 -0.9588 -1.2598
  637THF     C810626   0.779   0.965   4.469  0.5815  0.0390  0.7261
  637THF     C910627   0.723   1.074   4.565  0.5145  0.0864  0.8134
  637THF    H1010628   0.738   0.866   4.487  2.0414 -0.8359 -0.5826
  637THF    H1110629   0.760   0.990   4.364 -0.0074 -0.8481  0.6133
  637THF    H1210630   0.739   1.167   4.509 -2.0434 -0.1530 -0.4531
  637THF    H1310631   0.616   1.069   4.585  0.4680  0.0274  0.5584
  638THF     O110632   1.712   3.516   4.489 -0.3417 -0.2328  0.0704
  638THF     C210633   1.581   3.550   4.468  0.0841 -0.2456 -0.3850
  638THF     C310634   1.779   3.510   4.360 -0.1624  0.0682  0.3306
  638THF     H410635   1.533   3.582   4.560 -1.6171 -1.1560 -0.9062
  638THF     H510636   1.520   3.464   4.441 -1.6405  0.8540 -0.1237
  638THF     H610637   1.887   3.510   4.370  0.0511 -0.7627 -1.6215
  638THF     H710638   1.759   3.413   4.315 -0.4137  0.1843  0.1880
  638THF     C810639   1.708   3.621   4.284 -0.6841 -0.7177  0.7028
  638THF     C910640   1.588   3.666   4.371 -0.2835 -0.1839  0.5544
  638THF    H1010641   1.685   3.580   4.185  1.2509 -1.9453  0.7144
  638THF    H1110642   1.770   3.710   4.278  0.3223 -1.5004 -1.5284
  638THF    H1210643   1.600   3.754   4.434  0.8511  0.0931 -0.0215
  638THF    H1310644   1.497   3.687   4.316  1.1816  0.4396 -1.7623
  639THF     O110645   3.911   2.138   0.515  0.1095  0.2745 -0.0710
  639THF     C210646   3.828   2.174   0.628 -0.3379 -0.2753 -0.6347
  639THF     C310647   3.922   2.255   0.430  0.5551 -0.6736 -0.3384
  639THF     H410648   3.889   2.242   0.687  0.1712 -1.1431 -0.1418
  639THF     H510649   3.795   2.089   0.689  2.1410 -0.8860 -0.0158
  639THF     H610650   3.987   2.337   0.463  0.2517 -0.5530 -0.0276
  639THF     H710651   3.961   2.221   0.335 -0.8166 -2.8815 -0.1776
  639THF     C810652   3.772   2.295   0.425  0.2644 -0.8334 -0.3079
  639THF     C910653   3.714   2.252   0.558  0.2146  0.6715 -0.1662
  639THF    H1010654   3.721   2.239   0.347  1.4989  0.7442 -2.3376
  639THF    H1110655   3.767   2.403   0.412  1.2544 -0.5193  1.4804
  639THF    H1210656   3.675   2.322   0.633 -0.1951 -1.0521  1.2903
  639THF    H1310657   3.636   2.180   0.539  1.7268 -1.4878  1.3111
  640THF     O110658   2.431   0.204   4.229 -0.7068 -0.0601  0.3201
  640THF     C210659   2.409   0.102   4.126 -0.1791 -0.7988 -0.4774
  640THF     C310660   2.308   0.234   4.294  0.1917  0.3943 -0.2540
  640THF     H410661   2.485   0.024   4.129 -1.5194 -2.2002 -1.3153
  640THF     H510662   2.439   0.150   4.033  1.3493 -1.4957 -0.3804
  640THF     H610663   2.308   0.168   4.381  1.8189  0.7835  0.0607
  640THF     H710664   2.298   0.339   4.320  0.0434  0.3121  0.0319
  640THF     C810665   2.198   0.187   4.194 -0.8578 -0.2866 -0.2719
  640THF     C910666   2.262   0.068   4.134  0.5728 -0.1525 -0.1596
  640THF    H1010667   2.190   0.264   4.118  2.5771  2.0316  1.4664
  640THF    H1110668   2.101   0.160   4.237 -0.2069 -1.6665  0.3904
  640THF    H1210669   2.235  -0.027   4.179  0.2936  0.5857  1.2918
  640THF    H1310670   2.223   0.048   4.034  0.2029  1.8244 -0.4621
  641THF     O110671   0.600   4.359   2.067  0.4058  0.0074 -0.0231
  641THF     C210672   0.686   4.472   2.069  0.0899 -0.0803  0.0865
  641THF     C310673   0.508   4.356   2.183  0.2047 -0.7723 -0.1962
  641THF     H410674   0.690   4.532   1.978  0.3271  0.1586  0.2506
  641THF     H510675   0.781   4.426   2.096  1.3364  2.9110  1.2850
  641THF     H610676   0.412   4.312   2.155 -0.9982 -0.0062  2.4706
  641THF     H710677   0.544   4.298   2.267  0.0484 -0.8476 -0.1809
  641THF     C810678   0.500   4.507   2.213 -0.2364  1.0166  0.3293
  641THF     C910679   0.640   4.563   2.186  0.5699  0.6143  0.4356
  641THF    H1010680   0.455   4.528   2.310  1.1553  0.3762  1.1567
  641THF    H1110681   0.427   4.546   2.143  0.8404  0.5623 -1.1221
  641THF    H1210682   0.634   4.669   2.162 -0.8206  0.1814 -1.3557
  641THF    H1310683   0.717   4.541   2.260  0.9366  0.4712  0.0145
  642THF     O110684   2.369   0.075   2.909  0.4781 -0.5458 -0.1712
  642THF     C210685   2.310   0.194   2.945  0.1981  0.2335 -0.1495
  642THF     C310686   2.328   0.046   2.777  0.6049 -0.3312  0.3791
  642THF     H410687   2.366   0.284   2.919 -0.5314  1.1489  1.3226
  642THF     H510688   2.312   0.201   3.054 -0.6527 -0.6926 -0.0630
  642THF     H610689   2.383   0.104   2.704 -2.2610  1.3275 -0.6388
  642THF     H710690   2.347  -0.059   2.752  1.9250  0.1978 -0.9844
  642THF     C810691   2.184   0.090   2.769 -0.2812 -0.3754  0.0966
  642THF     C910692   2.167   0.184   2.888 -0.6169 -0.3452 -0.0011
  642THF    H1010693   2.114   0.007   2.773 -1.8450  0.8676 -0.5101
  642THF    H1110694   2.168   0.151   2.680 -0.1186 -0.8569 -0.2650
  642THF    H1210695   2.118   0.281   2.879  1.4259  0.6086 -1.9333
  642THF    H1310696   2.112   0.137   2.969  1.1532  0.0801  1.5315
  643THF     O110697   0.311   2.965   5.335  0.5968  0.1161 -0.2284
  643THF     C210698   0.421   2.964   5.250  0.0989 -0.3626  0.3089
  643THF     C310699   0.292   3.101   5.367 -0.0888 -0.7912  0.3322
  643THF     H410700   0.414   2.988   5.144  0.7803 -1.6601 -0.0508
  643THF     H510701   0.459   2.864   5.229  0.4663 -0.0345 -0.6528
  643THF     H610702   0.227   3.155   5.298  1.4025  0.1890 -0.3588
  643THF     H710703   0.249   3.106   5.467 -0.3877  0.2573  0.1645
  643THF     C810704   0.423   3.175   5.361 -0.5910  0.0823  0.0834
  643THF     C910705   0.519   3.061   5.324 -0.3502 -0.7284  0.0554
  643THF    H1010706   0.452   3.228   5.452 -1.9656  0.7079  0.1741
  643THF    H1110707   0.433   3.248   5.281  1.1098 -0.2839 -0.0844
  643THF    H1210708   0.602   3.113   5.276 -0.0298 -0.2728  1.0591
  643THF    H1310709   0.563   3.009   5.410  2.0464  0.3639 -0.4317
  644THF     O110710   1.521   1.515   0.381 -0.5419 -0.1459  0.2576
  644THF     C210711   1.503   1.613   0.278 -0.3979  0.3317 -0.1147
  644THF     C310712   1.661   1.483   0.373  0.1298  0.2947  0.0243
  644THF     H410713   1.411   1.668   0.299  0.3581  1.2577  0.8653
  644THF     H510714   1.485   1.559   0.185  0.5611  1.7631 -1.1844
  644THF     H610715   1.699   1.521   0.468  0.3818 -0.3663  0.1910
  644THF     H710716   1.675   1.375   0.363  0.1574  0.2010  1.0310
  644THF     C810717   1.729   1.564   0.265 -0.7488 -0.0875 -0.0664
  644THF     C910718   1.637   1.685   0.266  0.2846  1.1339 -0.6182
  644THF    H1010719   1.736   1.505   0.174  1.2471 -0.7018  0.4423
  644THF    H1110720   1.826   1.599   0.299 -1.2007  0.0129  1.1831
  644THF    H1210721   1.642   1.741   0.359 -1.6638 -0.3391  0.4413
  644THF    H1310722   1.651   1.751   0.179  3.0428  0.0021 -1.1409
  645THF     O110723   5.477   4.013   2.089  0.8530 -0.0333  0.4856
  645THF     C210724   5.452   3.882   2.029  0.0705 -0.1038  0.1049
  645THF     C310725   5.429   4.115   1.998 -0.1852 -0.0500  0.5646
  645THF     H410726   5.347   3.854   2.042 -0.3221  1.9171  1.7586
  645THF     H510727   5.517   3.804   2.068 -0.5048 -0.1029  1.0960
  645THF     H610728   5.332   4.154   2.029  0.2590  1.8202 -0.2355
  645THF     H710729   5.502   4.196   1.992  0.7374 -0.9377 -0.8024
  645THF     C810730   5.403   4.046   1.865  0.4873  0.5691  0.9017
  645THF     C910731   5.484   3.914   1.881  0.2594 -0.7694 -0.6556
  645THF    H1010732   5.446   4.096   1.778 -1.6357  1.0947  0.1043
  645THF    H1110733   5.299   4.020   1.846  1.3730 -2.6281 -0.0649
  645THF    H1210734   5.461   3.830   1.816  1.2987 -1.2401 -0.4301
  645THF    H1310735   5.591   3.932   1.879  0.0563  0.9286  0.8921
  646THF     O110736   4.903   1.994   5.220  0.1177  0.3545  0.1068
  646THF     C210737   4.793   1.956   5.149 -1.0126  0.3434  0.3475
  646THF     C310738   4.868   2.076   5.332 -0.0138 -0.0627  0.6655
  646THF     H410739   4.802   1.859   5.100 -1.9925  1.1202 -1.4554
  646THF     H510740   4.776   2.022   5.064 -0.7887  0.7603  0.6233
  646THF     H610741   4.891   2.035   5.430 -1.7649  2.9324  2.4914
  646THF     H710742   4.909   2.177   5.324 -0.7067  0.2633  1.1369
  646THF     C810743   4.721   2.090   5.327 -0.4371  0.2799 -0.8907
  646THF     C910744   4.676   1.968   5.241  0.3335 -0.1927 -0.2345
  646THF    H1010745   4.699   2.187   5.284 -1.1388  0.9723  0.9359
  646THF    H1110746   4.663   2.097   5.419 -2.1254 -1.8554 -1.7168
  646THF    H1210747   4.674   1.878   5.303  3.3024 -1.5548 -1.8862
  646THF    H1310748   4.575   1.968   5.199  0.5834 -4.2164 -1.2815
  647THF     O110749   3.051   3.275   1.045  0.8082 -0.4156 -0.2634
  647THF     C210750   3.096   3.174   1.138  0.1521  0.0152 -0.1930
  647THF     C310751   2.940   3.347   1.101 -0.3716 -1.0036  0.0920
  647THF     H410752   3.139   3.225   1.225 -0.4197  2.3800 -1.2239
  647THF     H510753   3.167   3.103   1.096 -0.2844 -1.4038  1.3301
  647THF     H610754   2.964   3.411   1.186 -1.8431  0.4595 -0.5444
  647THF     H710755   2.891   3.410   1.027 -1.3865 -2.4944 -0.5547
  647THF     C810756   2.858   3.230   1.154 -0.5059 -0.2647  0.5139
  647THF     C910757   2.961   3.122   1.188  0.1821 -0.0723  0.7653
  647THF    H1010758   2.794   3.199   1.072  0.8840 -0.1699 -0.6564
  647THF    H1110759   2.803   3.273   1.238 -0.5765  2.1117 -0.6507
  647THF    H1210760   2.960   3.123   1.297 -0.3790  1.6803  0.7749
  647THF    H1310761   2.925   3.029   1.144 -0.6706  0.4883  0.2317
  648THF     O110762   1.040   2.004   0.879 -0.2607 -0.5213  0.0272
  648THF     C210763   1.058   2.132   0.808 -0.2378  0.8447  0.3263
  648THF     C310764   0.960   2.026   0.990  0.0447  0.4237  0.4330
  648THF     H410765   0.967   2.145   0.750  0.4389  1.6282 -0.5849
  648THF     H510766   1.147   2.127   0.746 -1.4838 -0.5314 -1.4451
  648THF     H610767   0.861   1.996   0.956  0.6874 -0.8601 -0.4258
  648THF     H710768   0.988   1.968   1.078  1.2124 -1.4794 -1.1066
  648THF     C810769   0.958   2.175   1.029  0.7861 -0.3651  0.4954
  648THF     C910770   1.064   2.231   0.924 -0.0823 -0.3909 -0.4413
  648THF    H1010771   0.991   2.193   1.131 -0.9927  0.6924  0.9422
  648THF    H1110772   0.858   2.217   1.012  1.0471 -0.1818 -0.7059
  648THF    H1210773   1.038   2.334   0.896 -2.9283 -0.2956  2.0606
  648THF    H1310774   1.164   2.230   0.968 -1.0501 -0.7156  1.8714
  649THF     O110775   2.530   4.332   2.150 -0.6076 -0.4540 -0.2689
  649THF     C210776   2.555   4.295   2.014 -0.2938  0.1387  0.1581
  649THF     C310777   2.571   4.468   2.172  0.3330  0.3057 -0.1851
  649THF     H410778   2.488   4.333   1.937 -0.8292 -1.4977 -0.2264
  649THF     H510779   2.575   4.189   1.999  0.0466  0.2193  0.0312
  649THF     H610780   2.499   4.538   2.131 -0.4604  0.5842  1.6004
  649THF     H710781   2.576   4.491   2.279 -0.5546  0.5258 -0.1823
  649THF     C810782   2.701   4.475   2.090 -0.0654 -0.7241  0.8309
  649THF     C910783   2.693   4.366   1.991 -0.3640  0.0328 -0.0780
  649THF    H1010784   2.784   4.459   2.159  1.3560  0.7901 -0.4589
  649THF    H1110785   2.707   4.574   2.045 -0.8888 -0.9825  0.1218
  649THF    H1210786   2.695   4.414   1.893 -2.9010 -0.2692 -0.3502
  649THF    H1310787   2.778   4.300   1.997 -0.5284 -0.2596 -0.8693
  650THF     O110788   3.358   0.036   3.262  0.2419 -0.0019  0.7703
  650THF     C210789   3.230   0.035   3.324  0.1045 -0.1302 -0.1569
  650THF     C310790   3.334   0.096   3.136 -0.5618  0.3155 -0.5547
  650THF     H410791   3.228   0.128   3.380  2.7131  0.7692 -1.3857
  650THF     H510792   3.224  -0.038   3.405 -2.7191  2.5003  2.2831
  650THF     H610793   3.329   0.205   3.142  1.7392  0.4154  0.7118
  650THF     H710794   3.419   0.070   3.073 -1.0745  0.2897 -1.2428
  650THF     C810795   3.195   0.045   3.089 -0.0823  0.5524  0.7038
  650THF     C910796   3.123   0.026   3.220 -0.1772  0.5565  0.2671
  650THF    H1010797   3.207  -0.054   3.047  2.0530  0.9378  0.2524
  650THF    H1110798   3.148   0.108   3.014 -0.4603 -0.8354 -0.2587
  650THF    H1210799   3.055   0.111   3.235  0.9510  1.8291 -1.3681
  650THF    H1310800   3.062  -0.064   3.226  0.9291 -0.3330 -1.0786
  651THF     O110801   0.357   3.712   2.297 -0.4212  0.0762  0.0924
  651THF     C210802   0.332   3.813   2.201  0.3330  0.5989 -0.0286
  651THF     C310803   0.415   3.779   2.416 -0.5208  0.3582 -0.2465
  651THF     H410804   0.239   3.798   2.145 -0.2561  0.4061  0.9641
  651THF     H510805   0.397   3.784   2.119 -0.6094 -0.5368 -0.3956
  651THF     H610806   0.345   3.778   2.499  0.9430  0.1310  1.0311
  651THF     H710807   0.499   3.723   2.456  0.7904  0.9695 -2.0143
  651THF     C810808   0.461   3.912   2.364  0.1910 -0.0282  0.3897
  651THF     C910809   0.367   3.947   2.254  0.0152 -0.8363  0.5683
  651THF    H1010810   0.560   3.911   2.319  0.1392 -0.3393  0.2816
  651THF    H1110811   0.466   3.985   2.445  1.4989  0.2013  0.1248
  651THF    H1210812   0.279   4.003   2.286 -0.1507 -1.2341  0.8169
  651THF    H1310813   0.406   4.015   2.177  0.2096  1.5500  2.6518
  652THF     O110814   3.090   2.336   0.282 -0.2419 -0.5053 -0.1960
  652THF     C210815   2.995   2.313   0.386 -0.4560 -0.1195  0.1547
  652THF     C310816   3.201   2.248   0.306  0.1334 -0.3033  0.0305
  652THF     H410817   2.942   2.218   0.382 -1.4056  0.1988  2.9901
  652THF     H510818   2.917   2.389   0.390 -1.4006 -1.0314 -0.2974
  652THF     H610819   3.173   2.153   0.262 -0.9456 -1.2059  2.4515
  652THF     H710820   3.286   2.289   0.253  0.2352  1.2745  1.3204
  652THF     C810821   3.221   2.253   0.456  0.0382  0.3157  0.0813
  652THF     C910822   3.097   2.325   0.504  0.0621  0.1743  0.0078
  652THF    H1010823   3.310   2.313   0.471 -0.6397  1.1736  0.7616
  652THF    H1110824   3.223   2.152   0.498 -2.8522 -0.5535 -1.5369
  652THF    H1210825   3.060   2.300   0.603  0.9119 -2.5873 -0.3122
  652THF    H1310826   3.121   2.432   0.503 -0.1524  0.2259 -0.8344
  653THF     O110827   5.227   0.059   5.074  0.2067 -0.2425 -0.8410
  653THF     C210828   5.350   0.034   5.025 -0.2921  0.0171 -0.1074
  653THF     C310829   5.246   0.118   5.195  0.6741 -0.2210 -0.5622
  653THF     H410830   5.398   0.128   5.000 -1.3836  0.1369 -1.8835
  653THF     H510831   5.326  -0.026   4.937 -0.8966  0.4045 -0.2135
  653THF     H610832   5.258   0.226   5.192  2.6788 -0.2952  1.6172
  653THF     H710833   5.161   0.104   5.262 -1.3336  2.0077 -2.4840
  653THF     C810834   5.367   0.039   5.253 -0.0526 -0.0257 -0.0369
  653THF     C910835   5.420  -0.040   5.134  0.4411 -1.0017  0.1190
  653THF    H1010836   5.348  -0.030   5.336 -0.9245 -0.5606 -0.6599
  653THF    H1110837   5.441   0.107   5.294  2.2378 -1.5549 -1.3709
  653THF    H1210838   5.529  -0.038   5.134  0.4280  0.2471  0.8043
  653THF    H1310839   5.387  -0.144   5.133  3.2943 -2.0522  1.3934
  654THF     O110840   1.128   4.052   3.005  0.3468  0.3180 -0.4576
  654THF     C210841   1.114   4.185   3.042  0.2016  0.6286  0.4336
  654THF     C310842   1.094   3.975   3.120 -0.1549  0.3836 -0.4377
  654THF     H410843   1.016   4.230   3.034  0.9015  2.0530 -0.6152
  654THF     H510844   1.180   4.238   2.973 -0.1590 -1.2704 -1.4937
  654THF     H610845   0.990   3.996   3.146  0.5124  1.1571  1.7970
  654THF     H710846   1.117   3.869   3.106 -0.7242  0.3008 -0.8048
  654THF     C810847   1.189   4.029   3.222  0.3992 -0.2913  0.2129
  654THF     C910848   1.162   4.175   3.191 -0.0477 -0.6752  0.5512
  654THF    H1010849   1.287   3.993   3.192  1.3167  1.2151  1.2531
  654THF    H1110850   1.161   3.992   3.321 -0.3848 -2.0874 -0.6367
  654THF    H1210851   1.099   4.234   3.257  1.7254  0.6253  1.1413
  654THF    H1310852   1.258   4.225   3.199  0.7708 -2.0131 -0.2964
  655THF     O110853   1.429   4.447   2.691  0.3299 -0.3144 -0.5726
  655THF     C210854   1.365   4.567   2.728 -0.3346 -0.0988  0.1465
  655THF     C310855   1.503   4.455   2.572  0.1502  0.3303 -0.1355
  655THF     H410856   1.430   4.607   2.807  0.8066  0.4702 -1.0425
  655THF     H510857   1.269   4.558   2.778  0.1564 -1.2596  0.9207
  655THF     H610858   1.605   4.421   2.591  0.1701  1.9707  3.7291
  655THF     H710859   1.460   4.395   2.492 -0.0403  1.6248 -1.0381
  655THF     C810860   1.487   4.602   2.537  0.1378  0.0608 -0.3899
  655THF     C910861   1.363   4.658   2.605  0.2566  0.4906  0.2245
  655THF    H1010862   1.478   4.628   2.431 -0.2566 -1.6267 -0.8008
  655THF    H1110863   1.569   4.664   2.573  1.0146 -0.5935 -1.1890
  655THF    H1210864   1.376   4.764   2.628  0.8642  0.1251  1.7395
  655THF    H1310865   1.272   4.642   2.548  0.5549  0.2224 -0.1837
  656THF     O110866   3.032   4.308   0.879 -0.3484  0.2796 -0.2010
  656THF     C210867   2.991   4.326   0.748  0.3407 -0.2474 -0.1658
  656THF     C310868   3.012   4.175   0.925 -0.6558  0.4960 -0.2096
  656THF     H410869   3.073   4.372   0.692 -0.1229  2.2952  1.1014
  656THF     H510870   2.901   4.388   0.747  0.1674 -0.4838  0.5338
  656THF     H610871   3.093   4.141   0.989 -0.8263  0.0554 -0.2206
  656THF     H710872   2.915   4.153   0.969 -0.5321 -0.6939 -0.4912
  656THF     C810873   3.013   4.083   0.805  0.4774  0.0128  0.6270
  656THF     C910874   2.953   4.184   0.703  0.4396  0.7574  0.7818
  656THF    H1010875   2.949   3.998   0.824 -1.2112  0.8074 -1.1559
  656THF    H1110876   3.116   4.064   0.774  1.4449  0.3200  3.4205
  656THF    H1210877   2.979   4.153   0.602  1.9149 -1.7016  1.8389
  656THF    H1310878   2.845   4.175   0.714  0.4183 -1.2473 -0.5743
  657THF     O110879   0.927   5.209   3.884 -0.0878  0.6368  0.4797
  657THF     C210880   0.910   5.162   3.748  0.6338  0.2383 -0.1844
  657THF     C310881   0.979   5.103   3.960  0.7884  0.8572  0.2738
  657THF     H410882   0.912   5.245   3.676  0.0707  1.4020  1.0916
  657THF     H510883   0.810   5.122   3.738  1.1710 -1.1249 -0.2407
  657THF     H610884   1.019   5.133   4.057  0.3973  1.1081  0.3586
  657THF     H710885   0.901   5.030   3.980  0.9527  0.0781 -1.6607
  657THF     C810886   1.078   5.046   3.863  0.2999  0.2688  0.5295
  657THF     C910887   1.018   5.057   3.725  0.6651  0.8395 -0.3127
  657THF    H1010888   1.113   4.945   3.880  1.1173 -0.3093 -3.4565
  657THF    H1110889   1.161   5.115   3.879 -0.7750  1.4240  1.2828
  657THF    H1210890   1.088   5.103   3.654 -0.6274  1.1153 -1.4437
  657THF    H1310891   0.984   4.973   3.665 -0.5127 -1.0648  2.8123
  658THF     O110892   2.663   4.702   1.033  0.0694 -0.1857  0.3511
  658THF     C210893   2.770   4.641   1.093  0.0407 -0.5252 -0.3780
  658THF     C310894   2.633   4.640   0.907 -0.4164 -0.0676 -0.6082
  658THF     H410895   2.760   4.640   1.201 -1.4249  1.4672 -0.4411
  658THF     H510896   2.860   4.702   1.082  0.3407 -1.0727 -1.0509
  658THF     H610897   2.525   4.643   0.890 -0.9681 -1.6377  1.9774
  658THF     H710898   2.690   4.697   0.834 -0.4505  0.1992 -0.4272
  658THF     C810899   2.681   4.497   0.917  0.4147 -0.8901  0.4437
  658THF     C910900   2.786   4.502   1.023  0.1889 -0.2465  0.4908
  658THF    H1010901   2.710   4.456   0.820 -2.1080 -0.9399 -0.3616
  658THF    H1110902   2.600   4.431   0.948  1.1770 -2.1459 -0.1358
  658THF    H1210903   2.788   4.421   1.095 -1.4271  0.9360  1.9554
  658THF    H1310904   2.882   4.492   0.971 -0.0906 -1.6429  0.1998
  659THF     O110905   1.015   2.044   4.926  0.1055  0.5900  0.4988
  659THF     C210906   1.054   1.934   4.842 -0.2298 -0.0635  0.1046
  659THF     C310907   1.093   2.048   5.044 -0.2055  0.1013  0.1429
  659THF     H410908   1.138   1.970   4.784  0.1292 -0.0541  0.6212
  659THF     H510909   0.981   1.888   4.776 -0.5403 -1.2774  1.2480
  659THF     H610910   1.164   2.131   5.040 -0.2153  0.0841 -0.5359
  659THF     H710911   1.030   2.055   5.132 -0.1714  0.7217  0.1231
  659THF     C810912   1.167   1.908   5.041  0.1971 -0.2070 -0.4700
  659THF     C910913   1.106   1.827   4.935  0.3521 -0.7565  0.3225
  659THF    H1010914   1.161   1.875   5.144 -2.1354  0.8621 -0.2020
  659THF    H1110915   1.270   1.907   5.004  0.0888  0.9269 -0.8411
  659THF    H1210916   1.166   1.749   4.889 -0.6708 -1.4050  0.0370
  659THF    H1310917   1.028   1.767   4.983 -0.9601  1.5483  1.2066
  660THF     O110918   4.351   0.093   2.085  0.0878 -0.0031 -0.0554
  660THF     C210919   4.425   0.208   2.048  0.4138 -0.3613 -0.2399
  660THF     C310920   4.291   0.129   2.210 -0.3731 -0.3462  0.3533
  660THF     H410921   4.373   0.288   1.994  0.5582 -0.9017 -1.2039
  660THF     H510922   4.507   0.193   1.977  0.7821 -0.1214  0.1273
  660THF     H610923   4.210   0.202   2.205 -1.8379 -2.0004 -1.5445
  660THF     H710924   4.252   0.044   2.266  0.0200  0.3226  1.7050
  660THF     C810925   4.416   0.195   2.285  0.5328  0.6326  0.3562
  660THF     C910926   4.477   0.268   2.172 -0.2646 -0.8465 -0.6429
  660THF    H1010927   4.481   0.113   2.315 -1.2375 -0.2336  2.0242
  660THF    H1110928   4.378   0.256   2.366 -2.5603 -0.6487  0.0231
  660THF    H1210929   4.447   0.372   2.183  2.1687 -0.1860  0.4970
  660THF    H1310930   4.584   0.277   2.191 -0.5442 -1.4443  1.4425
  661THF     O110931   4.454   4.658   1.391 -0.6849  0.2906 -0.2457
  661THF     C210932   4.338   4.595   1.445 -0.2554  0.1080  0.3499
  661THF     C310933   4.561   4.617   1.478 -0.4616  0.2249  0.7452
  661THF     H410934   4.259   4.605   1.371  0.3088  1.4312 -0.0991
  661THF     H510935   4.322   4.646   1.540  3.3736 -1.1011  1.7568
  661THF     H610936   4.659   4.628   1.431 -0.6597 -2.3083 -0.4818
  661THF     H710937   4.549   4.680   1.566  0.2789  1.0421  0.2730
  661THF     C810938   4.530   4.476   1.531 -0.3685 -0.0258 -0.0440
  661THF     C910939   4.389   4.453   1.479  0.0633  0.1226 -0.1422
  661THF    H1010940   4.527   4.482   1.640 -1.2196  0.0278 -0.0591
  661THF    H1110941   4.599   4.396   1.505 -0.9187 -0.0485 -1.5316
  661THF    H1210942   4.388   4.390   1.390 -0.4554 -2.7005  1.7320
  661THF    H1310943   4.340   4.410   1.567 -0.2256  0.9592  0.1268
  662THF     O110944   1.386   1.154   0.068 -0.0248  0.3064  0.0353
  662THF     C210945   1.447   1.106  -0.055  0.1068  0.5048 -0.3684
  662THF     C310946   1.442   1.279   0.091  0.6396 -0.7579  0.0755
  662THF     H410947   1.388   1.021  -0.090  3.4267 -1.7836 -0.9766
  662THF     H510948   1.548   1.070  -0.035  0.5878  1.7280 -0.5452
  662THF     H610949   1.364   1.335   0.143 -0.0726  0.2845 -1.9744
  662THF     H710950   1.523   1.256   0.160 -0.8430 -0.1470  2.1024
  662THF     C810951   1.471   1.344  -0.052  0.1189  0.4858  0.2882
  662THF     C910952   1.444   1.230  -0.148 -0.2496 -0.0253 -0.1003
  662THF    H1010953   1.575   1.377  -0.063  0.6117 -0.9791  0.3464
  662THF    H1110954   1.399   1.421  -0.080 -0.1049 -0.0740 -0.7069
  662THF    H1210955   1.344   1.243  -0.191 -0.0649  0.6344 -0.3411
  662THF    H1310956   1.509   1.222  -0.235  0.1876 -1.7209  0.3523
  663THF     O110957   1.403   3.840   4.882  0.1561  0.1260 -0.2724
  663THF     C210958   1.280   3.774   4.842  0.0928  0.3364 -1.1765
  663THF     C310959   1.380   3.906   5.003  0.2179  0.0525 -0.0212
  663THF     H410960   1.291   3.683   4.784  0.4111 -1.9700  2.1866
  663THF     H510961   1.225   3.850   4.786  1.4720  2.1712 -0.1791
  663THF     H610962   1.479   3.918   5.048  1.1137 -2.9097 -0.9888
  663THF     H710963   1.342   4.005   4.975  0.9287 -0.1757 -1.9582
  663THF     C810964   1.289   3.811   5.081  0.2933  0.2005  0.2006
  663THF     C910965   1.211   3.737   4.972  0.0672  0.0400  0.2246
  663THF    H1010966   1.227   3.860   5.157 -0.6425 -0.2957 -0.2319
  663THF    H1110967   1.350   3.748   5.146  0.7427  0.3200 -0.0955
  663THF    H1210968   1.226   3.633   5.000  0.0562 -0.7151 -2.3302
  663THF    H1310969   1.105   3.765   4.974 -0.9082 -3.0798 -1.1751
  664THF     O110970   3.303   3.711   0.471  0.1801 -0.5871  0.4931
  664THF     C210971   3.217   3.817   0.508 -0.3983  0.1189  0.3304
  664THF     C310972   3.265   3.589   0.534  0.0926  0.6738 -0.3226
  664THF     H410973   3.183   3.867   0.418  0.4683 -0.0560 -0.1070
  664THF     H510974   3.265   3.896   0.565  2.9491 -2.0381  0.7957
  664THF     H610975   3.222   3.533   0.451  0.7124  2.4824 -1.9459
  664THF     H710976   3.345   3.525   0.571 -1.0636 -0.1513  0.8365
  664THF     C810977   3.177   3.648   0.650  0.0086  0.6568  0.0861
  664THF     C910978   3.107   3.761   0.595 -0.0406 -0.5589 -0.4042
  664THF    H1010979   3.235   3.682   0.736 -2.1009  1.5507  1.2177
  664THF    H1110980   3.120   3.567   0.693  2.1997 -1.1730 -0.2773
  664THF    H1210981   3.027   3.724   0.531  0.9032 -2.2367 -0.6583
  664THF    H1310982   3.062   3.826   0.670  1.7635 -1.3039  1.4241
  665THF     O110983   2.381   2.099   5.094 -0.3684 -0.2048 -0.4132
  665THF     C210984   2.343   1.974   5.158 -0.9485  0.1645  0.1633
  665THF     C310985   2.389   2.189   5.205  0.5357 -0.0467  0.9695
  665THF     H410986   2.363   1.884   5.099  0.3536  0.4028  0.2035
  665THF     H510987   2.235   1.975   5.175 -0.8272 -1.2750  1.2220
  665THF     H610988   2.427   2.289   5.184 -0.4492  0.1236 -0.1595
  665THF     H710989   2.290   2.213   5.245 -0.1182 -0.1656 -0.4856
  665THF     C810990   2.472   2.114   5.305 -0.4430  1.3151 -0.9543
  665THF     C910991   2.432   1.967   5.288 -0.0747 -0.4125  0.6058
  665THF    H1010992   2.449   2.151   5.405  0.7392  4.0472 -1.5945
  665THF    H1110993   2.580   2.117   5.293 -0.3080  2.6466  0.3594
  665THF    H1210994   2.518   1.906   5.262 -0.7417 -1.4975  0.8898
  665THF    H1310995   2.381   1.920   5.372 -0.1065  0.1714  0.9202
  666THF     O110996   5.224   2.343   0.958  0.7665 -0.4739  0.0315
  666THF     C210997   5.105   2.400   0.900 -0.1424 -0.1063 -0.1511
  666THF     C310998   5.267   2.443   1.045  0.1428 -0.2224 -0.3066
  666THF     H410999   5.030   2.398   0.979 -0.7116  0.0224 -0.6775
  666THF     H511000   5.057   2.339   0.824  1.1995  1.0827 -2.0486
  666THF     H611001   5.219   2.412   1.139 -0.0219 -1.0146 -0.6400
  666THF     H711002   5.375   2.433   1.057  0.1571  1.0553  0.9091
  666THF     C811003   5.234   2.577   0.986  0.4045  0.0781 -0.2056
  666THF     C911004   5.152   2.547   0.861  0.4537 -0.3635 -0.3527
  666THF    H1011005   5.326   2.623   0.950  0.7911 -0.4132  0.1250
  666THF    H1111006   5.182   2.638   1.060  0.7273 -0.4829  0.5032
  666THF    H1211007   5.072   2.620   0.852  1.9408  1.5731  1.3697
  666THF    H1311008   5.222   2.559   0.778  1.5781 -1.3656  0.4004
  667THF     O111009   3.333   0.394   5.068  0.3984  0.1028 -0.0053
  667THF     C211010   3.376   0.268   5.028 -0.2633  0.4536 -0.3339
  667THF     C311011   3.388   0.500   4.989  0.2454  0.8129  0.0263
  667THF     H411012   3.296   0.194   5.035 -3.1116  3.0458 -2.5749
  667THF     H511013   3.464   0.237   5.084  0.6752 -0.1058 -2.0647
  667THF     H611014   3.312   0.560   4.939  0.7918  1.3031 -0.2281
  667THF     H711015   3.453   0.571   5.039  0.5073 -0.1450  1.0720
  667THF     C811016   3.463   0.426   4.885 -0.6341 -0.2061 -0.3866
  667THF     C911017   3.405   0.287   4.880  0.5573 -0.2414 -0.4429
  667THF    H1011018   3.568   0.428   4.915 -0.2215  0.0923 -1.7602
  667THF    H1111019   3.456   0.477   4.788 -0.9022  1.1257  0.3058
  667THF    H1211020   3.316   0.293   4.818  0.9136  1.0851 -0.8528
  667THF    H1311021   3.473   0.216   4.834  1.7487  0.2822  0.4601
  668THF     O111022   4.119   4.022   3.915 -0.1351  0.2157 -0.1644
  668THF     C211023   4.171   4.024   3.775 -0.1826 -0.0875 -0.1389
  668THF     C311024   4.191   4.134   3.977  0.1392  0.5869  0.0759
  668THF     H411025   4.094   3.999   3.703  0.4956  1.5261 -1.4906
  668THF     H511026   4.247   3.947   3.768  1.3442  1.2197  1.1588
  668THF     H611027   4.115   4.160   4.051  0.5406  0.5203  0.5190
  668THF     H711028   4.282   4.094   4.022  0.6404 -1.3180 -2.3909
  668THF     C811029   4.203   4.239   3.872 -0.4263 -0.2070 -0.2837
  668THF     C911030   4.248   4.153   3.745  0.0688  0.3340 -0.4056
  668THF    H1011031   4.274   4.319   3.892 -1.2265  0.5560 -0.4059
  668THF    H1111032   4.106   4.280   3.843 -0.6237 -0.7960 -0.4803
  668THF    H1211033   4.217   4.191   3.648 -1.8483 -0.7486 -0.2735
  668THF    H1311034   4.356   4.141   3.745  0.2655  1.8888 -1.4768
  669THF     O111035   2.361   2.433   4.160 -0.0882  0.0684  0.2415
  669THF     C211036   2.275   2.359   4.074  0.4399 -0.2570  0.5653
  669THF     C311037   2.451   2.511   4.076 -0.1473 -0.7268 -0.8940
  669THF     H411038   2.178   2.345   4.121 -0.0415  2.1406  0.4284
  669THF     H511039   2.319   2.260   4.062  1.8899  0.6005 -1.9673
  669THF     H611040   2.493   2.599   4.126 -0.0115 -0.9558 -0.6056
  669THF     H711041   2.534   2.447   4.048  0.8287  0.5170 -0.9743
  669THF     C811042   2.359   2.550   3.960 -0.4104 -0.4785 -0.0012
  669THF     C911043   2.280   2.427   3.936  0.3324  0.4347  0.6019
  669THF    H1011044   2.420   2.578   3.875 -0.8718 -1.9815 -0.8625
  669THF    H1111045   2.293   2.634   3.984 -0.1143 -0.7141  1.7954
  669THF    H1211046   2.185   2.446   3.887  0.8374 -0.3120 -0.7414
  669THF    H1311047   2.338   2.357   3.876  0.6186  1.7420 -0.7288
  670THF     O111048   2.789   2.834   3.022 -0.1158  0.2569  0.0015
  670THF     C211049   2.834   2.896   2.900  0.2274 -0.0364 -0.3783
  670THF     C311050   2.913   2.789   3.077 -0.1805  0.8993 -0.0860
  670THF     H411051   2.875   2.993   2.926 -0.0684  0.3527 -1.3103
  670THF     H511052   2.756   2.917   2.826  1.4316 -0.7621 -1.9113
  670THF     H611053   2.969   2.873   3.117 -2.4534  2.1315  0.6757
  670THF     H711054   2.884   2.731   3.165 -0.7515  0.5165 -0.5198
  670THF     C811055   2.981   2.707   2.965 -0.6369 -0.5217  0.1354
  670THF     C911056   2.934   2.787   2.845  0.7523  1.0177  0.0470
  670THF    H1011057   2.936   2.609   2.977  2.2539 -2.2208 -1.5169
  670THF    H1111058   3.090   2.697   2.971 -0.5551  0.3828  0.2803
  670THF    H1211059   3.016   2.845   2.801  2.3366 -0.5299  0.8505
  670THF    H1311060   2.890   2.739   2.758  1.5937  0.5168 -0.1184
  671THF     O111061   2.081   3.452   2.556  0.2978 -0.3113  0.5956
  671THF     C211062   2.066   3.589   2.581  0.3369  0.1970  0.2031
  671THF     C311063   1.954   3.392   2.562 -0.5111 -0.4290 -0.4324
  671THF     H411064   2.149   3.643   2.536  0.4669  0.1905  0.4335
  671THF     H511065   2.076   3.611   2.687  0.8292  1.3125 -0.0517
  671THF     H611066   1.946   3.317   2.483  1.8850 -0.0183 -1.1354
  671THF     H711067   1.946   3.352   2.663  1.2965 -0.4277 -0.2669
  671THF     C811068   1.858   3.509   2.530  0.3513 -0.1793 -0.7559
  671THF     C911069   1.936   3.640   2.523  0.2267  0.5147  0.2687
  671THF    H1011070   1.778   3.526   2.602  1.0656  0.6412 -0.1358
  671THF    H1111071   1.796   3.485   2.444 -1.8245 -1.7230  1.1061
  671THF    H1211072   1.945   3.661   2.417 -0.1802 -0.3882  0.0462
  671THF    H1311073   1.883   3.714   2.582 -3.1606 -1.4231 -0.0896
  672THF     O111074   4.329   1.031   5.309  0.3679  0.2296  0.2587
  672THF     C211075   4.304   0.939   5.203 -0.1365 -0.9545  0.4660
  672THF     C311076   4.315   1.165   5.264 -0.1349 -0.0188 -0.0333
  672THF     H411077   4.198   0.915   5.209 -0.4553  0.6005  1.8448
  672THF     H511078   4.363   0.848   5.215 -0.3004 -0.8510  2.2263
  672THF     H611079   4.208   1.183   5.274  0.1562  0.9200  1.7898
  672THF     H711080   4.367   1.241   5.322 -0.0770  2.1764 -2.7387
  672THF     C811081   4.369   1.155   5.119 -1.0586 -0.8744 -0.1652
  672THF     C911082   4.339   1.017   5.074  0.0929 -1.1404  0.1959
  672THF    H1011083   4.474   1.183   5.118 -0.8483 -1.6442 -0.3354
  672THF    H1111084   4.314   1.227   5.057  1.2938  1.3926  0.1799
  672THF    H1211085   4.255   1.020   5.004 -0.4066  1.0186  0.8173
  672THF    H1311086   4.420   0.967   5.021  1.0330 -2.7222  2.9279
  673THF     O111087   0.052   2.326   1.446 -0.0207 -0.1184  0.7259
  673THF     C211088  -0.034   2.262   1.539 -0.2231  0.6179  0.2502
  673THF     C311089   0.065   2.456   1.503 -0.2429  0.3294 -0.3888
  673THF     H411090  -0.038   2.157   1.513 -0.5845  0.4445  0.9925
  673THF     H511091  -0.137   2.298   1.540 -0.0200  1.6317 -3.0714
  673THF     H611092   0.142   2.515   1.454 -0.9937  0.9530 -0.8350
  673THF     H711093  -0.024   2.518   1.504 -0.2234  0.3598  0.7279
  673THF     C811094   0.091   2.420   1.646 -0.5109 -0.2965  0.1162
  673THF     C911095   0.025   2.285   1.675  0.2421  0.1898  0.0471
  673THF    H1011096   0.069   2.502   1.715 -0.9826 -0.4389  0.1358
  673THF    H1111097   0.200   2.410   1.656 -0.3921 -1.6535 -1.8686
  673THF    H1211098   0.103   2.216   1.705  1.5234  1.1193 -1.0125
  673THF    H1311099  -0.054   2.287   1.751 -0.6372  4.2824 -0.7311
  674THF     O111100   3.561   3.851   2.594  1.1356  0.7363  1.0952
  674THF     C211101   3.523   3.925   2.710  0.4221 -0.1409 -0.1170
  674THF     C311102   3.483   3.729   2.582  0.0949 -0.6057 -0.4495
  674THF     H411103   3.559   4.026   2.687 -0.2525 -0.2764 -1.9743
  674THF     H511104   3.583   3.883   2.791  1.0488 -0.4199 -0.7033
  674THF     H611105   3.493   3.677   2.487 -0.1310 -0.1174 -0.7416
  674THF     H711106   3.510   3.667   2.668  1.4195 -0.0459 -0.4550
  674THF     C811107   3.347   3.791   2.607  0.5544 -0.1454 -0.4454
  674THF     C911108   3.372   3.908   2.709 -0.1558 -1.1616  0.2384
  674THF    H1011109   3.271   3.725   2.648 -0.5436  1.5285  0.3158
  674THF    H1111110   3.305   3.820   2.510 -0.2781  2.6937  0.6567
  674THF    H1211111   3.324   3.999   2.675 -0.0853 -1.0885  0.3338
  674THF    H1311112   3.340   3.871   2.807  1.1131 -0.3176  1.0052
  675THF     O111113   4.800   5.118   0.602 -0.6089 -0.5075  0.2613
  675THF     C211114   4.673   5.126   0.533  0.0631 -0.4966 -0.4871
  675THF     C311115   4.781   5.061   0.730 -0.2180 -0.1018 -0.6762
  675THF     H411116   4.683   5.154   0.429  1.3055  3.0311  0.4448
  675THF     H511117   4.619   5.212   0.573  0.0689 -0.0427 -1.4400
  675THF     H611118   4.870   4.999   0.740  1.5332  2.5692  3.8591
  675THF     H711119   4.790   5.149   0.794 -0.0537  0.7845 -1.8775
  675THF     C811120   4.642   4.978   0.712 -0.3440  0.0480 -0.2585
  675THF     C911121   4.611   4.989   0.560  0.4157  0.7456 -0.3090
  675THF    H1011122   4.561   5.037   0.756  0.8580  1.5960 -0.0459
  675THF    H1111123   4.642   4.877   0.753 -1.3882 -1.2409 -3.1690
  675THF    H1211124   4.676   4.920   0.507  1.2978 -1.3490  3.1533
  675THF    H1311125   4.507   4.971   0.536 -0.0354 -1.4238  2.7156
  676THF     O111126   3.580   0.907   3.378 -0.1216 -0.0582  0.0666
  676THF     C211127   3.500   0.858   3.482  0.1738 -0.0171 -0.1512
  676THF     C311128   3.560   0.825   3.261 -0.1483 -0.4532  0.0894
  676THF     H411129   3.474   0.936   3.554 -0.7709 -1.1880  0.8183
  676THF     H511130   3.549   0.781   3.540  1.3178 -1.2708 -2.6492
  676THF     H611131   3.565   0.900   3.182  0.2089  1.6192  1.9833
  676THF     H711132   3.642   0.755   3.246 -0.2000 -0.0847 -2.1705
  676THF     C811133   3.417   0.766   3.277 -0.1706 -0.3142 -0.1136
  676THF     C911134   3.373   0.809   3.412 -0.7213 -0.2503 -0.0090
  676THF    H1011135   3.425   0.657   3.265  0.2791 -0.4591  1.3674
  676THF    H1111136   3.362   0.816   3.198  1.6059 -1.3083 -2.1163
  676THF    H1211137   3.315   0.901   3.414  0.5926  0.5851  0.7324
  676THF    H1311138   3.313   0.732   3.460  0.5316  0.1848  2.3802
  677THF     O111139   2.079   2.583   2.591  0.1980 -0.7108 -0.3113
  677THF     C211140   2.092   2.469   2.669 -0.3495 -0.3052 -0.5060
  677THF     C311141   2.107   2.699   2.677 -0.0673 -0.0703 -0.0421
  677THF     H411142   2.085   2.386   2.600 -1.1475 -1.0548  0.4381
  677THF     H511143   2.016   2.471   2.748 -0.0378  0.1675 -0.2100
  677THF     H611144   2.155   2.771   2.610  0.0296  0.5724  0.7029
  677THF     H711145   2.017   2.746   2.719 -0.8132 -0.1744 -1.4545
  677THF     C811146   2.202   2.636   2.771 -0.0792 -0.0099 -0.1750
  677THF     C911147   2.233   2.494   2.716 -0.1638 -0.1607 -0.0985
  677THF    H1011148   2.144   2.622   2.863 -1.2804  0.8573 -0.7724
  677THF    H1111149   2.295   2.692   2.776 -1.0862  1.6460  0.9644
  677THF    H1211150   2.304   2.494   2.632 -0.4972 -2.1827 -0.4313
  677THF    H1311151   2.262   2.418   2.788 -1.2215  0.2471  0.7747
  678THF     O111152   5.427   2.738   2.648 -0.3455 -0.1962  0.0212
  678THF     C211153   5.295   2.795   2.658 -0.3419 -0.3836 -0.3538
  678THF     C311154   5.494   2.808   2.750  0.8056  0.5680  0.9452
  678THF     H411155   5.221   2.731   2.610 -2.0647  0.2668  1.2562
  678THF     H511156   5.276   2.899   2.630  1.4128 -0.2722 -1.2488
  678THF     H611157   5.599   2.780   2.757  1.1029  1.0345 -1.2046
  678THF     H711158   5.495   2.914   2.725 -2.1088  0.2624 -1.0093
  678THF     C811159   5.416   2.785   2.875 -0.5636  0.2321 -0.1924
  678THF     C911160   5.277   2.797   2.813 -0.2330  0.1142  0.5252
  678THF    H1011161   5.430   2.865   2.947  1.4256 -1.4653  1.4426
  678THF    H1111162   5.436   2.688   2.921  0.1552  0.9094  0.9909
  678THF    H1211163   5.209   2.716   2.839 -1.3140  1.1692  1.0124
  678THF    H1311164   5.230   2.890   2.843  0.4216  0.9816 -1.0297
  679THF     O111165   0.909   3.785   2.307  0.0033 -0.3853 -0.1764
  679THF     C211166   0.828   3.892   2.256 -0.1305  0.0195 -0.4401
  679THF     C311167   0.986   3.739   2.200  0.4780  0.0540  0.4946
  679THF     H411168   0.876   3.987   2.235 -1.4528  0.5023 -1.4368
  679THF     H511169   0.753   3.914   2.332  0.9570 -0.2002  0.7323
  679THF     H611170   1.071   3.808   2.199  0.2137  0.4300 -2.1226
  679THF     H711171   1.010   3.634   2.217  1.6653  0.1374 -0.4904
  679THF     C811172   0.891   3.752   2.078 -0.1817  0.9952  0.0171
  679THF     C911173   0.769   3.825   2.135 -0.7565  0.6158  0.5371
  679THF    H1011174   0.868   3.652   2.039  1.4876 -0.1622  1.8318
  679THF    H1111175   0.949   3.807   2.005 -2.1129  1.7325 -1.0263
  679THF    H1211176   0.718   3.893   2.066  1.2251  0.3234 -1.3151
  679THF    H1311177   0.690   3.753   2.155  0.0856 -0.0813  1.4666
  680THF     O111178   2.419   2.610   1.620 -0.0753  0.3899  0.0363
  680THF     C211179   2.284   2.630   1.581  0.3264 -0.0596  0.3611
  680THF     C311180   2.498   2.609   1.500  0.2814  0.7199 -0.5090
  680THF     H411181   2.261   2.734   1.558 -0.1427  0.7877  3.9298
  680THF     H511182   2.212   2.597   1.656  0.1433 -2.0466 -0.6154
  680THF     H611183   2.494   2.707   1.452 -0.8187  1.1717  0.4729
  680THF     H711184   2.598   2.567   1.505  0.2960  0.8869  1.5477
  680THF     C811185   2.416   2.506   1.424 -0.9735 -0.4614  0.1426
  680THF     C911186   2.274   2.539   1.455  0.2169 -0.0121 -0.0498
  680THF    H1011187   2.450   2.414   1.471 -0.7250  0.1981  1.2919
  680THF    H1111188   2.425   2.516   1.316  0.4778  3.6881  0.4409
  680THF    H1211189   2.229   2.592   1.371 -1.1563  0.4599  0.9587
  680THF    H1311190   2.219   2.450   1.484  1.3906  0.0893  2.8158
  681THF     O111191   1.774   5.355   3.656  0.1737  0.2235 -0.5421
  681THF     C211192   1.815   5.218   3.634  0.0286  0.5172  0.4279
  681THF     C311193   1.877   5.435   3.621 -0.0738 -0.5774  0.1960
  681THF     H411194   1.800   5.183   3.532  1.6418 -0.5904  0.5302
  681THF     H511195   1.769   5.153   3.709  0.1575  0.2957  0.3157
  681THF     H611196   1.872   5.450   3.513 -0.3170  2.9213  0.5834
  681THF     H711197   1.861   5.529   3.674 -0.4837 -0.2942 -0.4133
  681THF     C811198   2.000   5.354   3.668 -1.2148 -0.0191 -0.2122
  681THF     C911199   1.965   5.216   3.656 -0.1479  0.2350 -0.1493
  681THF    H1011200   2.027   5.380   3.770 -1.0039  1.9989 -0.7415
  681THF    H1111201   2.086   5.377   3.606 -0.8660  0.6867  0.5208
  681THF    H1211202   2.023   5.173   3.575 -0.7851 -1.5498  0.3074
  681THF    H1311203   1.992   5.152   3.740  2.0960  0.7391 -0.4174
  682THF     O111204   3.111   4.976   0.904  0.2204  0.2828 -0.3583
  682THF     C211205   3.046   4.859   0.861  0.1603  0.4591  0.7918
  682THF     C311206   3.043   5.089   0.849  0.2145  0.4129  0.3121
  682THF     H411207   2.967   4.831   0.930  0.5752 -2.8483  0.0990
  682THF     H511208   3.106   4.769   0.847 -1.3032 -0.2483 -1.5734
  682THF     H611209   2.953   5.121   0.901 -0.7121  1.5861 -1.8692
  682THF     H711210   3.104   5.179   0.843 -0.0426  0.5877  0.2905
  682THF     C811211   3.013   5.041   0.704 -0.7975 -0.0389  0.3135
  682THF     C911212   2.989   4.889   0.716  0.2642 -0.5045  0.5125
  682THF    H1011213   3.104   5.059   0.648 -0.5657  0.1604  0.7531
  682THF    H1111214   2.930   5.087   0.650 -0.4702 -0.0834 -0.2364
  682THF    H1211215   2.883   4.866   0.717  0.4340 -1.2917  0.9490
  682THF    H1311216   3.041   4.833   0.638  3.1048  3.2012 -0.5841
  683THF     O111217   3.612   3.208   3.936  0.4211  0.4004 -0.5532
  683THF     C211218   3.715   3.221   4.032  0.4637  0.0504  0.8108
  683THF     C311219   3.635   3.315   3.837 -0.2129  0.3680 -0.3546
  683THF     H411220   3.748   3.126   4.075  2.0777  0.5881  0.8052
  683THF     H511221   3.684   3.288   4.112 -0.3346 -0.7595  1.1995
  683THF     H611222   3.590   3.301   3.739  0.5312 -0.6676 -0.5707
  683THF     H711223   3.578   3.395   3.883  1.9030  0.4890  2.2657
  683THF     C811224   3.790   3.356   3.843 -0.0161 -0.5777 -0.5149
  683THF     C911225   3.836   3.273   3.957 -0.4282  0.3213 -0.1246
  683THF    H1011226   3.776   3.464   3.843 -2.6619 -0.8655 -0.0480
  683THF    H1111227   3.840   3.324   3.751  0.9697  1.0537 -0.5733
  683THF    H1211228   3.891   3.185   3.924 -1.3934  0.0780 -1.1652
  683THF    H1311229   3.896   3.339   4.019  1.6231 -0.9834 -0.6337
  684THF     O111230   1.577   0.992   0.647  0.1527 -0.3689 -0.2381
  684THF     C211231   1.693   0.936   0.586 -0.3074  1.2588  0.6533
  684THF     C311232   1.563   1.117   0.588  0.9444 -0.0857  0.1592
  684THF     H411233   1.693   0.830   0.612 -2.2878  1.2479  0.7129
  684THF     H511234   1.783   0.962   0.642  1.6202 -1.7118 -0.7970
  684THF     H611235   1.463   1.155   0.608  0.4859 -1.6958  1.1322
  684THF     H711236   1.635   1.186   0.631  3.1252 -1.9016 -0.3516
  684THF     C811237   1.588   1.090   0.439 -0.5373  0.6189  0.1138
  684THF     C911238   1.697   0.978   0.440 -0.3132  0.4573  0.2411
  684THF    H1011239   1.631   1.181   0.397 -0.4279  1.2086  1.4584
  684THF    H1111240   1.493   1.068   0.390 -0.8776  0.9258  0.6289
  684THF    H1211241   1.679   0.894   0.372  2.0810  0.6068 -0.6704
  684THF    H1311242   1.797   1.016   0.419  0.0691 -0.7569 -0.2228
  685THF     O111243   2.108   1.303   0.527  0.2642  0.9898 -0.0320
  685THF     C211244   2.076   1.353   0.403 -0.0370 -0.3442  0.3693
  685THF     C311245   2.257   1.295   0.531  0.6951  0.2612  0.1220
  685THF     H411246   1.975   1.395   0.413  0.1826  0.6893 -1.4357
  685THF     H511247   2.083   1.275   0.327 -1.7659 -0.4986  0.3106
  685THF     H611248   2.292   1.287   0.634  1.2339 -0.1754 -0.0930
  685THF     H711249   2.292   1.213   0.468 -0.0728  1.6021 -2.1902
  685THF     C811250   2.297   1.424   0.472 -0.1080  0.4058 -0.2857
  685THF     C911251   2.183   1.457   0.374  0.9689  0.0346  0.0849
  685THF    H1011252   2.395   1.409   0.427 -0.1942  1.1170 -0.7297
  685THF    H1111253   2.309   1.501   0.549  1.8387 -1.3061  1.2471
  685THF    H1211254   2.161   1.563   0.372  0.4148 -0.0737 -1.8979
  685THF    H1311255   2.229   1.431   0.278 -0.5710  1.0337 -0.9792
  686THF     O111256   1.689   3.058   4.663 -0.1800 -0.4775 -0.2217
  686THF     C211257   1.589   2.986   4.605  0.0328  0.2838 -0.1612
  686THF     C311258   1.813   3.025   4.600 -0.8682  0.5065  0.7005
  686THF     H411259   1.497   3.042   4.622 -1.3009 -2.0913  0.8399
  686THF     H511260   1.584   2.890   4.655  1.9981  0.0240 -0.3667
  686THF     H611261   1.875   3.114   4.610 -0.8955  0.4967  0.9415
  686THF     H711262   1.861   2.937   4.641  1.6250  1.2438 -0.4757
  686THF     C811263   1.780   3.005   4.452  0.5698  0.2889  0.4096
  686THF     C911264   1.633   2.991   4.457 -0.1909  0.1919 -0.4738
  686THF    H1011265   1.839   2.925   4.407 -1.8988 -1.9922  0.9883
  686THF    H1111266   1.805   3.097   4.399 -2.0808  0.0571 -1.4385
  686THF    H1211267   1.586   3.072   4.401  1.2481  1.7174  0.4268
  686THF    H1311268   1.614   2.898   4.403  0.4647  0.3215 -0.9419
  687THF     O111269   0.708   0.879   5.024 -0.0360 -0.3274 -0.8163
  687THF     C211270   0.789   1.001   5.015 -0.4983  0.1857  0.7761
  687THF     C311271   0.700   0.817   5.154  0.1183  0.1041 -0.5105
  687THF     H411272   0.716   1.081   4.997  0.2376  0.7042  0.0576
  687THF     H511273   0.874   1.007   4.948 -0.4268  0.2000  0.8673
  687THF     H611274   0.603   0.776   5.182 -0.0302  0.3167 -0.7174
  687THF     H711275   0.773   0.736   5.163  1.1919  1.2332  1.6612
  687THF     C811276   0.742   0.938   5.249  0.0224 -0.3006  0.9252
  687THF     C911277   0.837   1.013   5.154  0.5755 -1.0408 -0.1677
  687THF    H1011278   0.790   0.911   5.343 -0.4192 -1.0666  0.9403
  687THF    H1111279   0.652   0.993   5.280 -0.1944 -0.5614  0.7629
  687THF    H1211280   0.843   1.116   5.188  2.6458 -1.6637  1.5736
  687THF    H1311281   0.940   0.979   5.160  0.9979  0.2785  0.3279
  688THF     O111282   4.718   3.951   1.309  0.0951 -0.3958 -0.0723
  688THF     C211283   4.637   4.003   1.410 -0.2545  0.9805 -0.2266
  688THF     C311284   4.779   4.063   1.256  0.1562  0.5945  0.0804
  688THF     H411285   4.691   4.037   1.498  0.6412 -2.9033  0.9105
  688THF     H511286   4.572   3.928   1.455  2.0310 -0.8711  0.1435
  688THF     H611287   4.861   4.111   1.310  0.0736  0.3276  0.4491
  688THF     H711288   4.831   4.036   1.164 -2.9579  0.2289 -1.7186
  688THF     C811289   4.670   4.168   1.249  0.4390 -1.0166  0.0219
  688THF     C911290   4.567   4.118   1.347 -0.2135  0.3487 -0.5212
  688THF    H1011291   4.629   4.171   1.148  1.3129 -1.7931 -0.3705
  688THF    H1111292   4.713   4.268   1.262 -0.1095 -0.8141  0.3086
  688THF    H1211293   4.542   4.196   1.419 -0.8128  1.6097 -2.0298
  688THF    H1311294   4.483   4.067   1.299  0.7031  0.0573 -1.8879
  689THF     O111295   5.330   3.265   5.390 -0.0901  0.6930 -0.3641
  689THF     C211296   5.233   3.266   5.496 -0.4611  0.4231 -0.1871
  689THF     C311297   5.453   3.304   5.451 -0.3035 -0.0114  0.0177
  689THF     H411298   5.153   3.194   5.481  0.7430 -0.8481 -0.7573
  689THF     H511299   5.198   3.363   5.532  0.5955 -0.5736  4.2321
  689THF     H611300   5.539   3.291   5.384  0.4376  1.7711  0.5788
  689THF     H711301   5.439   3.406   5.485 -1.2519  0.8758 -2.7923
  689THF     C811302   5.455   3.201   5.562  0.0388 -0.0015  0.1117
  689THF     C911303   5.313   3.203   5.614  0.7087  0.2044 -0.6848
  689THF    H1011304   5.529   3.233   5.636  0.2361 -0.7751  0.2538
  689THF    H1111305   5.496   3.107   5.524 -0.1120  0.3900 -1.0514
  689THF    H1211306   5.281   3.103   5.646  1.3309  0.2443  0.0903
  689THF    H1311307   5.312   3.280   5.691  0.6722 -0.3036 -0.1677
  690THF     O111308   5.305   4.491   1.900 -0.6108 -0.5122 -0.1303
  690THF     C211309   5.182   4.446   1.857  0.6993 -0.1378 -0.0087
  690THF     C311310   5.323   4.625   1.859 -0.5888 -0.1907 -0.5746
  690THF     H411311   5.153   4.348   1.895  0.3904 -0.6159 -1.4184
  690THF     H511312   5.170   4.441   1.748 -3.1570 -1.2824  0.3231
  690THF     H611313   5.403   4.680   1.908 -1.1836 -0.7247  1.0755
  690THF     H711314   5.328   4.639   1.751 -1.8447 -1.3260 -0.8154
  690THF     C811315   5.188   4.675   1.910  1.0504 -0.0676  0.4524
  690THF     C911316   5.090   4.557   1.909  0.2846 -0.3633  0.6594
  690THF    H1011317   5.153   4.764   1.858 -0.0369 -0.1546  1.0063
  690THF    H1111318   5.197   4.722   2.008 -2.9919  3.1156 -0.4572
  690THF    H1211319   5.036   4.538   2.002 -2.4372 -0.8266 -0.8859
  690THF    H1311320   5.007   4.578   1.841  0.1783 -2.0026  0.2233
  691THF     O111321   2.469   1.623   0.008 -0.2831  0.0815  0.0559
  691THF     C211322   2.509   1.586   0.135  0.3624  0.0056 -0.8722
  691THF     C311323   2.587   1.610  -0.075 -0.0784  0.1753  0.3363
  691THF     H411324   2.534   1.480   0.134  3.7252  0.6828 -1.2603
  691THF     H511325   2.431   1.610   0.207 -1.3858 -0.7553 -2.4328
  691THF     H611326   2.614   1.505  -0.084  0.6589  0.4943 -1.8156
  691THF     H711327   2.577   1.654  -0.174  4.3399  0.1281 -0.3272
  691THF     C811328   2.702   1.674   0.013 -0.0655 -0.2846 -0.0570
  691THF     C911329   2.637   1.665   0.155  0.3512  0.4807  0.0994
  691THF    H1011330   2.723   1.778  -0.011 -0.0794 -0.1407  0.5423
  691THF    H1111331   2.794   1.616   0.016  0.8546  1.1515  0.4263
  691THF    H1211332   2.702   1.616   0.228  0.4215  0.7673  0.2290
  691THF    H1311333   2.616   1.768   0.185  0.8859  1.1214 -1.5954
  692THF     O111334   1.764   5.001   1.779  0.1216 -0.8044 -0.3409
  692THF     C211335   1.689   5.112   1.835  0.0762 -0.4075 -0.1895
  692THF     C311336   1.686   4.888   1.798  0.2987 -0.9268 -0.2560
  692THF     H411337   1.630   5.159   1.756 -0.1619 -0.3589  0.0127
  692THF     H511338   1.751   5.191   1.878  1.3654 -2.0110  1.0185
  692THF     H611339   1.605   4.879   1.726 -1.5005 -1.2704  1.7213
  692THF     H711340   1.745   4.796   1.794  0.6518 -0.6676 -1.6449
  692THF     C811341   1.626   4.891   1.936 -0.4895  0.4843 -0.5359
  692THF     C911342   1.611   5.043   1.953 -0.2090 -0.3685  0.0859
  692THF    H1011343   1.695   4.847   2.008 -1.6155 -0.3251  0.0767
  692THF    H1111344   1.533   4.838   1.956  0.9911 -1.6133  1.3495
  692THF    H1211345   1.506   5.071   1.941 -0.1840  0.0924  0.8640
  692THF    H1311346   1.637   5.075   2.054  0.0047 -1.1300  0.2804
  693THF     O111347   1.775   3.177   0.971 -0.1333 -0.1360  0.0672
  693THF     C211348   1.724   3.189   1.103  0.6943 -0.0204 -0.0284
  693THF     C311349   1.777   3.311   0.909  0.1186  0.3739 -0.3335
  693THF     H411350   1.787   3.130   1.169  1.9499  0.3446 -0.8624
  693THF     H511351   1.619   3.158   1.109  0.8715 -0.5143  0.6262
  693THF     H611352   1.878   3.343   0.885  0.6123  0.1421  1.3404
  693THF     H711353   1.731   3.307   0.810 -1.5974 -0.2178  0.4290
  693THF     C811354   1.702   3.405   1.009 -0.6512 -0.3875 -0.3208
  693THF     C911355   1.743   3.339   1.136 -0.2523  0.6759 -0.7734
  693THF    H1011356   1.595   3.404   0.989 -0.5974 -0.4602 -0.6081
  693THF    H1111357   1.733   3.509   1.006 -2.8474  0.5017  2.7868
  693THF    H1211358   1.845   3.368   1.160  0.3448 -2.4204  1.0436
  693THF    H1311359   1.688   3.379   1.220  1.0246  2.1016 -0.5783
  694THF     O111360   3.185   1.426   4.874 -0.1299  0.5945 -0.1987
  694THF     C211361   3.280   1.517   4.824  0.6439 -0.7866 -0.2846
  694THF     C311362   3.070   1.435   4.795 -0.1539 -0.0519 -0.0339
  694THF     H411363   3.386   1.509   4.850  0.7835 -1.1159 -0.9448
  694THF     H511364   3.260   1.620   4.856  2.5710 -0.3920 -0.2442
  694THF     H611365   2.998   1.355   4.812  1.3051 -1.0813  1.6036
  694THF     H711366   3.006   1.521   4.818  1.4030  1.2498 -0.3440
  694THF     C811367   3.128   1.444   4.653 -0.0419 -0.0803 -0.1205
  694THF     C911368   3.273   1.485   4.674 -0.5335 -0.2767  0.1161
  694THF    H1011369   3.074   1.519   4.595 -2.0811 -1.0700  0.3762
  694THF    H1111370   3.132   1.342   4.615 -0.2560  0.4127 -1.5250
  694THF    H1211371   3.334   1.400   4.643 -0.3099  0.2174 -0.8492
  694THF    H1311372   3.300   1.563   4.603 -0.2910 -0.6304 -0.1850
  695THF     O111373   2.176   3.562   3.981 -0.1864 -0.0570  0.1065
  695THF     C211374   2.081   3.593   3.881  0.2952  0.0880  0.3569
  695THF     C311375   2.168   3.674   4.066 -0.3424 -0.2512 -0.3881
  695THF     H411376   2.047   3.505   3.826 -1.8310  2.4836 -2.4895
  695THF     H511377   2.123   3.671   3.818 -0.0763  0.1138  0.1373
  695THF     H611378   2.215   3.664   4.163  1.3900 -0.3341 -1.1974
  695THF     H711379   2.221   3.748   4.006  3.3427 -2.8114 -0.6171
  695THF     C811380   2.019   3.719   4.079  0.1573 -0.3116  0.4030
  695THF     C911381   1.965   3.658   3.953 -0.1229  0.2400 -0.5627
  695THF    H1011382   2.007   3.827   4.072  0.3580 -0.3372 -0.4034
  695THF    H1111383   1.960   3.692   4.167 -0.9919  1.1149  0.1157
  695THF    H1211384   1.896   3.577   3.975 -0.7525  0.4291 -1.7473
  695THF    H1311385   1.909   3.723   3.885 -0.7457  1.8893  1.4183
  696THF     O111386   0.742   1.759   0.246 -0.3159 -0.6684 -0.5578
  696THF     C211387   0.627   1.816   0.304  0.4036  0.2590 -0.1446
  696THF     C311388   0.718   1.622   0.231  0.3920  0.9436 -0.2506
  696THF     H411389   0.624   1.925   0.299 -0.0458  0.2463 -0.2084
  696THF     H511390   0.632   1.782   0.408  1.0256  2.4149  0.5951
  696THF     H611391   0.776   1.580   0.149  2.6083  1.2792  1.0263
  696THF     H711392   0.740   1.558   0.317  1.0902  0.8381 -0.5007
  696THF     C811393   0.563   1.615   0.199  0.4215  0.5051 -1.1002
  696THF     C911394   0.521   1.758   0.215 -0.4060  0.3941  0.9107
  696THF    H1011395   0.511   1.552   0.272  0.5274  1.3700 -0.2539
  696THF    H1111396   0.546   1.576   0.099  0.5220 -0.7777 -0.6365
  696THF    H1211397   0.514   1.798   0.114  1.6308 -2.0648 -0.3187
  696THF    H1311398   0.421   1.761   0.257 -1.3337 -0.4254 -1.0864
  697THF     O111399   2.793   3.378   3.354  0.3620  0.2869  0.0396
  697THF     C211400   2.788   3.355   3.214 -0.1398 -0.1406 -0.0015
  697THF     C311401   2.836   3.259   3.417 -0.5204 -0.1898 -0.7854
  697THF     H411402   2.887   3.386   3.179 -0.7560  1.5692 -0.2935
  697THF     H511403   2.706   3.410   3.169  0.0361 -0.6867 -1.0447
  697THF     H611404   2.944   3.244   3.409 -0.6036 -0.7370 -0.9053
  697THF     H711405   2.808   3.275   3.521  0.1522  0.1645 -0.6544
  697THF     C811406   2.758   3.159   3.341 -1.1548  0.7999 -0.6899
  697THF     C911407   2.753   3.211   3.197 -0.2107 -0.1371 -0.4061
  697THF    H1011408   2.661   3.144   3.388 -0.6896 -1.8231 -0.3579
  697THF    H1111409   2.798   3.057   3.345 -0.3068  1.0783 -1.6659
  697THF    H1211410   2.843   3.176   3.146  1.7833  2.9049  0.7735
  697THF    H1311411   2.659   3.189   3.146  0.4247 -0.8710 -1.2895
  698THF     O111412   2.630   0.454   2.914  0.0505  0.5633 -0.1131
  698THF     C211413   2.767   0.476   2.900  0.5770 -0.4027 -0.0560
  698THF     C311414   2.552   0.531   2.820 -0.1784  0.3051  0.3765
  698THF     H411415   2.803   0.384   2.854 -0.6441 -1.2775  0.6915
  698THF     H511416   2.828   0.497   2.988  1.5051 -4.0043  0.2807
  698THF     H611417   2.470   0.484   2.768  0.5684  0.7980 -1.3093
  698THF     H711418   2.515   0.616   2.877  2.2179  0.2765  2.1568
  698THF     C811419   2.655   0.590   2.722 -0.5991 -0.2565  0.2329
  698THF     C911420   2.782   0.602   2.801 -0.3854  0.3510 -0.5450
  698THF    H1011421   2.627   0.684   2.676  0.9909 -0.6677 -1.7154
  698THF    H1111422   2.658   0.512   2.646 -0.1759  1.6133 -1.7324
  698THF    H1211423   2.870   0.600   2.736 -1.3544  1.7720 -1.9666
  698THF    H1311424   2.782   0.694   2.858 -1.4678  0.8609 -1.3350
  699THF     O111425   2.190   5.253   3.218 -0.6044 -0.1247  0.1491
  699THF     C211426   2.243   5.214   3.089 -0.6121 -0.2659 -1.0477
  699THF     C311427   2.243   5.374   3.254 -0.2525 -0.1371 -0.3709
  699THF     H411428   2.187   5.264   3.010  0.2693  1.2878 -0.7323
  699THF     H511429   2.245   5.105   3.087 -0.8277 -0.2693 -1.1398
  699THF     H611430   2.205   5.465   3.206  1.8273  1.0016 -0.0232
  699THF     H711431   2.217   5.381   3.359  0.3913 -1.7915 -0.0716
  699THF     C811432   2.393   5.348   3.229 -0.7910 -0.0452  0.1160
  699THF     C911433   2.385   5.278   3.096 -0.1547 -0.0921 -0.0437
  699THF    H1011434   2.416   5.280   3.311  0.3113 -0.9155 -0.8859
  699THF    H1111435   2.461   5.432   3.242 -2.5666  1.7416 -1.4528
  699THF    H1211436   2.414   5.355   3.025 -1.5191  2.6968  2.1941
  699THF    H1311437   2.460   5.199   3.094  0.2309  0.2696 -0.0963
  700THF     O111438   2.262   4.847   2.996 -0.1597 -0.0768  0.3070
  700THF     C211439   2.394   4.874   3.037  0.0598  0.2836  0.2718
  700THF     C311440   2.238   4.713   3.039 -0.4801  0.0995 -1.0679
  700THF     H411441   2.412   4.981   3.028 -0.4900  0.3437 -0.1389
  700THF     H511442   2.462   4.821   2.970  1.9532  1.1315  1.4436
  700THF     H611443   2.134   4.686   3.054  0.3584 -1.8374  2.3573
  700THF     H711444   2.274   4.649   2.959  0.4431 -0.3358 -0.3317
  700THF     C811445   2.320   4.688   3.167  0.0732  0.4173  0.0557
  700THF     C911446   2.403   4.813   3.177  0.2991 -0.0852 -0.4972
  700THF    H1011447   2.375   4.594   3.159  0.0209  0.2935  1.0137
  700THF    H1111448   2.251   4.689   3.251  1.3929  0.3695  1.1928
  700THF    H1211449   2.371   4.879   3.258  0.8002 -0.4329 -0.0139
  700THF    H1311450   2.508   4.802   3.204  0.5475  2.5862 -0.0960
  701THF     O111451   4.837   2.813   4.054 -0.2608 -0.5591  0.1153
  701THF     C211452   4.698   2.775   4.053  0.1712  0.4271  0.4699
  701THF     C311453   4.834   2.943   4.002  0.7761  0.0611 -0.4126
  701THF     H411454   4.680   2.683   4.108  1.5885 -1.3456 -1.8324
  701THF     H511455   4.676   2.749   3.949  1.4219 -0.2494  0.3527
  701THF     H611456   4.931   2.994   4.004 -0.6665  3.0152  0.4021
  701THF     H711457   4.806   2.934   3.897  1.0987  1.2863 -0.6192
  701THF     C811458   4.718   3.008   4.083  0.1762 -0.2270  0.1668
  701THF     C911459   4.618   2.897   4.105  0.3935  0.1373 -0.0469
  701THF    H1011460   4.673   3.078   4.012  0.9084 -0.2422 -0.3242
  701THF    H1111461   4.745   3.068   4.170 -1.0566  0.7168 -0.0717
  701THF    H1211462   4.599   2.882   4.212 -0.8941  0.7345 -0.1725
  701THF    H1311463   4.527   2.913   4.047  1.3698 -0.6617 -1.8631
  702THF     O111464   1.231   2.714   2.565  0.3529 -0.4349 -0.1065
  702THF     C211465   1.279   2.661   2.686 -0.0172  0.1677 -0.0444
  702THF     C311466   1.229   2.858   2.583 -0.7656  0.2413  0.3497
  702THF     H411467   1.387   2.675   2.680 -0.0638  1.4705  1.4511
  702THF     H511468   1.257   2.554   2.694  2.6598 -0.3876  1.1512
  702THF     H611469   1.329   2.897   2.563 -0.4414 -1.1244 -0.8532
  702THF     H711470   1.168   2.908   2.508  2.4008  0.5332 -2.2258
  702THF     C811471   1.176   2.873   2.723 -0.0784 -0.0282 -0.1401
  702THF     C911472   1.209   2.738   2.790  1.1142 -0.3406 -0.0276
  702THF    H1011473   1.070   2.895   2.711  0.4982  2.4796 -1.2921
  702THF    H1111474   1.219   2.956   2.779  1.3981 -0.5042 -0.5218
  702THF    H1211475   1.266   2.758   2.881  0.3162 -3.5256  1.3322
  702THF    H1311476   1.117   2.687   2.821 -0.3028  2.4358  0.6772
  703THF     O111477   0.692   0.307   1.453  0.2862  0.6748  0.1772
  703THF     C211478   0.606   0.194   1.426  0.0626  0.2997 -0.4493
  703THF     C311479   0.706   0.328   1.595 -0.4535  0.6528 -0.2321
  703THF     H411480   0.659   0.100   1.440 -0.4777  0.3465  2.4054
  703THF     H511481   0.580   0.195   1.320  0.7249 -0.6320 -0.6294
  703THF     H611482   0.804   0.287   1.620 -0.4193  1.6296  1.3579
  703THF     H711483   0.712   0.433   1.624  0.7762  0.2414  1.0909
  703THF     C811484   0.590   0.256   1.660  0.3188 -0.1998  0.3486
  703THF     C911485   0.509   0.221   1.541  0.1246 -0.0460  0.4865
  703THF    H1011486   0.534   0.323   1.724  0.7537 -1.6166  2.3022
  703THF    H1111487   0.623   0.171   1.721  0.6991 -0.7098 -0.5351
  703THF    H1211488   0.436   0.141   1.551  0.1872 -0.6953 -2.9531
  703THF    H1311489   0.461   0.312   1.505 -1.2405 -1.4153 -1.3575
  704THF     O111490   3.750   4.316   0.957  0.3064  0.1374 -0.3739
  704THF     C211491   3.763   4.237   1.074 -0.6123 -0.4811  0.0024
  704THF     C311492   3.862   4.409   0.945  0.6098 -0.3615 -0.4949
  704THF     H411493   3.841   4.161   1.074 -0.0984  0.0290 -1.0796
  704THF     H511494   3.661   4.204   1.094 -1.2288  0.6346 -1.1471
  704THF     H611495   3.942   4.367   0.883 -0.6211 -2.4806 -0.7521
  704THF     H711496   3.835   4.500   0.892  1.8769  0.7815  0.7405
  704THF     C811497   3.899   4.440   1.089 -0.3371 -0.4285  0.1208
  704THF     C911498   3.801   4.350   1.172 -0.3414 -0.4338  0.5379
  704THF    H1011499   3.895   4.545   1.118 -1.4244 -0.5815  0.5799
  704THF    H1111500   4.002   4.417   1.113 -0.8364 -2.3555  0.6400
  704THF    H1211501   3.857   4.313   1.258  0.8656 -0.6110 -0.2991
  704THF    H1311502   3.705   4.396   1.195 -0.0546 -0.6200  2.2808
  705THF     O111503   2.452   1.897   2.883 -0.2108  0.7023  0.0127
  705THF     C211504   2.317   1.918   2.836 -0.3293  0.3537 -0.1985
  705THF     C311505   2.539   1.999   2.834 -0.5396  0.3557 -0.0702
  705THF     H411506   2.246   1.853   2.887  1.9113 -0.8973  1.5028
  705THF     H511507   2.318   1.910   2.728  0.6310  2.5204 -0.4104
  705THF     H611508   2.633   1.994   2.888 -0.5484 -2.4325 -0.1922
  705THF     H711509   2.559   1.997   2.727 -0.9273 -0.7296 -0.1380
  705THF     C811510   2.454   2.120   2.867 -0.1268  0.0550 -0.3806
  705THF     C911511   2.315   2.060   2.878 -0.2177 -0.0995 -0.4371
  705THF    H1011512   2.466   2.196   2.790  0.1734 -0.2487 -0.6377
  705THF    H1111513   2.487   2.150   2.967  1.5813 -1.5538 -0.4134
  705THF    H1211514   2.287   2.054   2.983  0.0058  0.2867 -0.3556
  705THF    H1311515   2.231   2.117   2.840  0.0805 -0.5343 -1.7958
  706THF     O111516   3.070   3.059   4.715 -0.0512  0.0312 -0.2232
  706THF     C211517   3.023   2.979   4.604  0.8531 -0.5668 -0.4495
  706THF     C311518   3.092   2.974   4.829 -0.1212 -0.2806 -0.4097
  706THF     H411519   3.051   3.024   4.509 -2.9970  1.6622 -0.7485
  706THF     H511520   2.914   2.970   4.599  0.9854 -2.4779 -0.5765
  706THF     H611521   3.159   3.021   4.901  0.0472 -1.3464  0.1339
  706THF     H711522   3.000   2.952   4.882  0.5069  0.1086  0.8969
  706THF     C811523   3.161   2.856   4.762  0.1940 -0.2261  0.4636
  706THF     C911524   3.087   2.846   4.628 -0.1288  0.1634 -0.3284
  706THF    H1011525   3.150   2.761   4.814  1.9792 -1.2346 -0.9022
  706THF    H1111526   3.267   2.867   4.739  0.2181 -1.7419 -0.2845
  706THF    H1211527   3.160   2.840   4.547  2.2687  2.7129  1.4635
  706THF    H1311528   3.015   2.766   4.607 -0.7067  1.0874 -2.1170
  707THF     O111529   3.945   4.238   3.579  0.4663  0.4794  0.4518
  707THF     C211530   3.813   4.238   3.635  0.2953 -0.1224  0.1000
  707THF     C311531   3.965   4.370   3.527  0.1598  0.3830  0.1456
  707THF     H411532   3.810   4.288   3.732  0.6929 -1.8723  1.0698
  707THF     H511533   3.771   4.139   3.653 -3.3227  1.3948  0.8075
  707THF     H611534   3.986   4.446   3.603 -0.1061 -0.8472  1.4993
  707THF     H711535   4.048   4.362   3.457 -0.7056 -0.3682 -0.8329
  707THF     C811536   3.834   4.393   3.456 -0.3065  0.4312  0.2251
  707THF     C911537   3.735   4.312   3.530 -0.3892  0.0831  0.3477
  707THF    H1011538   3.846   4.362   3.352 -0.9204  0.3159  0.1861
  707THF    H1111539   3.803   4.497   3.461 -0.2461  0.3954  1.6646
  707THF    H1211540   3.652   4.368   3.573  0.7821 -0.3532  3.5047
  707THF    H1311541   3.680   4.241   3.468  0.7262 -0.4266 -0.0706
  708THF     O111542   1.379   3.992   2.552  0.3389  0.3509  0.3014
  708THF     C211543   1.416   4.047   2.432 -0.0198  0.6002 -0.0693
  708THF     C311544   1.304   4.097   2.618  0.1166  1.1021 -0.2670
  708THF     H411545   1.442   3.967   2.362 -0.2896  0.5334 -0.0968
  708THF     H511546   1.506   4.109   2.431 -0.1829  0.8358 -0.4537
  708THF     H611547   1.237   4.056   2.693 -1.3759  2.6238 -0.6928
  708THF     H711548   1.372   4.163   2.672  0.1923 -0.1638  1.2347
  708THF     C811549   1.233   4.178   2.505 -0.2171  0.5611  0.3843
  708THF     C911550   1.292   4.119   2.381  0.8337  0.3354 -0.0917
  708THF    H1011551   1.267   4.282   2.507  1.8040  0.0580 -2.2379
  708THF    H1111552   1.125   4.195   2.510 -0.4458 -0.2850 -1.0969
  708THF    H1211553   1.223   4.047   2.337 -0.6274  1.9695 -0.6110
  708THF    H1311554   1.309   4.191   2.300 -2.3529 -0.7057 -1.8824
  709THF     O111555   0.088   0.917   1.080 -0.1304  0.3255 -0.3994
  709THF     C211556   0.031   0.808   1.148  0.6018  0.1084  0.2881
  709THF     C311557   0.084   0.899   0.940  1.0679 -0.2554  0.1240
  709THF     H411558  -0.078   0.821   1.152  0.4188 -1.1286 -0.2538
  709THF     H511559   0.069   0.811   1.250  2.3584 -1.1918 -0.2887
  709THF     H611560  -0.012   0.936   0.903 -0.1053 -1.4899  1.7396
  709THF     H711561   0.162   0.952   0.886  1.5382  0.1320  1.1607
  709THF     C811562   0.107   0.746   0.921 -0.2445  0.0605  0.1843
  709THF     C911563   0.059   0.688   1.062 -0.2085 -0.0609  0.0991
  709THF    H1011564   0.214   0.730   0.906 -0.4224  0.2631 -1.4185
  709THF    H1111565   0.048   0.701   0.841 -1.0822 -0.5779  1.1355
  709THF    H1211566  -0.017   0.611   1.057  1.4116 -1.6601 -0.9485
  709THF    H1311567   0.149   0.653   1.112  0.9701 -1.5570 -2.8632
  710THF     O111568   4.286   0.543   3.601 -0.3990  0.4236  0.1782
  710THF     C211569   4.393   0.470   3.544  0.0068 -0.3090 -0.6383
  710THF     C311570   4.210   0.576   3.493 -0.1092 -0.9875 -0.4817
  710THF     H411571   4.437   0.401   3.616  0.3489  1.4538  0.9234
  710THF     H511572   4.473   0.537   3.511 -0.4168  0.7758  0.4622
  710THF     H611573   4.116   0.605   3.540  1.3215  0.7000  1.5069
  710THF     H711574   4.254   0.663   3.444  1.6101 -2.1633 -1.1355
  710THF     C811575   4.200   0.448   3.414  1.0029  0.1203 -0.3914
  710THF     C911576   4.336   0.394   3.422  0.9620  0.0550 -0.0824
  710THF    H1011577   4.173   0.459   3.309  3.2678 -0.8324 -1.1210
  710THF    H1111578   4.134   0.378   3.466  0.1072  0.4866 -1.0138
  710THF    H1211579   4.342   0.286   3.434 -0.3505 -0.5737 -3.8849
  710THF    H1311580   4.384   0.409   3.326 -1.0983 -1.5044 -1.4553
  711THF     O111581   4.795   2.297   0.841  0.2134  0.1060  0.2676
  711THF     C211582   4.696   2.233   0.762 -0.1167  0.7469  0.4291
  711THF     C311583   4.767   2.435   0.817 -0.7724 -0.2932 -0.6856
  711THF     H411584   4.601   2.242   0.814 -1.1288  0.5470 -1.2949
  711THF     H511585   4.715   2.126   0.753 -1.0256  0.6773 -1.0174
  711THF     H611586   4.688   2.464   0.887 -2.2719  1.8198 -3.0821
  711THF     H711587   4.855   2.494   0.844 -0.7925 -0.6462  0.1981
  711THF     C811588   4.734   2.450   0.669  1.1838  0.0771  0.7853
  711THF     C911589   4.691   2.312   0.633  0.6758 -0.6033  0.2741
  711THF    H1011590   4.823   2.473   0.611  1.9441 -4.1938 -0.0928
  711THF    H1111591   4.664   2.526   0.634  0.1415 -1.6702 -1.1879
  711THF    H1211592   4.589   2.308   0.595  0.7230 -0.6354  0.1507
  711THF    H1311593   4.770   2.286   0.563  0.2176 -0.1398 -0.4313
  712THF     O111594   2.900   0.005   2.895  0.2655 -0.0960  0.0293
  712THF     C211595   2.866  -0.132   2.927 -0.2624  0.2531  0.4267
  712THF     C311596   2.827   0.085   2.984  0.0149  0.2616 -0.5536
  712THF     H411597   2.922  -0.169   3.013 -0.2855 -1.9674 -0.4494
  712THF     H511598   2.893  -0.197   2.843 -2.8355  0.3165 -0.5386
  712THF     H611599   2.869   0.075   3.084  0.8551  0.4737 -0.8760
  712THF     H711600   2.837   0.191   2.961  1.7733  0.5049  1.0432
  712THF     C811601   2.687   0.019   2.985 -0.0098 -0.2033 -0.2009
  712THF     C911602   2.716  -0.128   2.954 -0.2074  0.0181 -0.1327
  712THF    H1011603   2.611   0.059   2.918 -0.9763 -0.7332  0.5489
  712THF    H1111604   2.637   0.031   3.082 -0.8582 -0.0125 -0.6497
  712THF    H1211605   2.700  -0.187   3.044 -0.4014 -2.0763 -1.4815
  712THF    H1311606   2.653  -0.157   2.870 -1.8651 -0.7202  1.2965
  713THF     O111607   0.717   5.454   5.494 -0.2103 -0.4548 -0.2218
  713THF     C211608   0.823   5.480   5.584 -0.5618 -0.3093  0.5456
  713THF     C311609   0.757   5.373   5.387 -0.0984  0.1358  0.5345
  713THF     H411610   0.839   5.402   5.658 -0.4799 -2.0347 -1.2072
  713THF     H511611   0.805   5.574   5.637 -1.9514 -1.4911  2.2929
  713THF     H611612   0.737   5.266   5.396 -0.6832 -0.5336 -5.0101
  713THF     H711613   0.713   5.396   5.290 -0.1586  3.3584  1.2380
  713THF     C811614   0.910   5.390   5.384  0.8362  0.1772  0.5484
  713THF     C911615   0.943   5.489   5.494  0.0698 -0.3861 -0.1214
  713THF    H1011616   0.942   5.428   5.287  2.5108  1.1915  1.4562
  713THF    H1111617   0.970   5.300   5.396 -0.8945 -0.8905  1.5495
  713THF    H1211618   1.024   5.469   5.564 -0.2938  1.1030  0.7805
  713THF    H1311619   0.967   5.588   5.454  1.2961 -1.1958 -1.4969
  714THF     O111620   0.871   2.109   2.746 -0.1438  0.6659 -0.0675
  714THF     C211621   0.878   1.999   2.838  0.0738 -0.2633 -0.2023
  714THF     C311622   0.754   2.091   2.669 -0.1641  0.5422  0.3425
  714THF     H411623   0.806   1.993   2.920 -1.3854 -0.1097 -1.4391
  714THF     H511624   0.978   1.993   2.882  1.3751 -0.5415 -2.9543
  714THF     H611625   0.668   2.142   2.714  0.1991  2.2939 -0.8496
  714THF     H711626   0.770   2.139   2.572  0.5348 -0.2456  0.0599
  714THF     C811627   0.733   1.945   2.659 -0.6850  0.1653 -0.2058
  714THF     C911628   0.851   1.881   2.740 -0.1284  0.1676  0.1174
  714THF    H1011629   0.726   1.917   2.553 -0.4497 -1.6405  0.2190
  714THF    H1111630   0.640   1.917   2.710 -0.0333 -1.2446  0.2545
  714THF    H1211631   0.830   1.787   2.791  1.1602  0.5417  1.4049
  714THF    H1311632   0.936   1.868   2.673  0.2776  2.0291  0.2165
  715THF     O111633   5.261   1.183   4.800  0.0533 -0.3017  0.2616
  715THF     C211634   5.261   1.303   4.881 -0.0355  0.1652 -0.3329
  715THF     C311635   5.344   1.218   4.689 -0.2628  0.0057 -0.1632
  715THF     H411636   5.349   1.296   4.946 -0.5728 -0.2435  0.3670
  715THF     H511637   5.180   1.305   4.954 -1.1087  1.2827 -1.5174
  715THF     H611638   5.450   1.215   4.713 -0.1671  0.3226 -0.5297
  715THF     H711639   5.333   1.152   4.602  0.8130  0.3738 -0.5953
  715THF     C811640   5.286   1.361   4.656 -0.5458 -0.0119  0.0015
  715THF     C911641   5.251   1.420   4.785 -0.2621 -0.0828 -0.3650
  715THF    H1011642   5.196   1.344   4.597 -0.6020 -0.6759  0.2642
  715THF    H1111643   5.355   1.417   4.593  0.1635 -1.0065 -0.1345
  715THF    H1211644   5.317   1.502   4.815  0.9971 -0.9271 -0.7236
  715THF    H1311645   5.149   1.456   4.772  0.1253  1.1400 -0.1856
  716THF     O111646   4.406   0.068   4.955  0.1348  0.1978  0.2105
  716THF     C211647   4.268   0.073   4.957 -0.4552 -0.1915 -0.2308
  716THF     C311648   4.442  -0.068   4.971  0.0875 -0.8267  0.4073
  716THF     H411649   4.244   0.172   4.920  0.6029 -0.1404 -0.8164
  716THF     H511650   4.240   0.062   5.062 -1.3802  0.8791 -0.3431
  716THF     H611651   4.541  -0.073   4.926  0.7874  0.1023  1.7797
  716THF     H711652   4.434  -0.102   5.074 -1.1335  0.0621  0.6272
  716THF     C811653   4.348  -0.143   4.883  0.5046 -0.4044 -0.0672
  716THF     C911654   4.233  -0.039   4.862 -0.6930 -0.1724 -0.3548
  716THF    H1011655   4.298  -0.232   4.921 -3.6694  2.0540  0.7904
  716THF    H1111656   4.400  -0.158   4.789 -2.4518 -0.3077 -1.8298
  716THF    H1211657   4.242  -0.013   4.757  1.3788  0.1471 -0.1378
  716THF    H1311658   4.136  -0.085   4.878 -1.6366  1.4347 -1.1962
  717THF     O111659   2.320   0.470   0.353 -0.3863  0.0095 -0.6479
  717THF     C211660   2.195   0.436   0.310  0.6387 -0.8980  0.5060
  717THF     C311661   2.383   0.546   0.245 -0.2859 -0.4842 -0.1957
  717THF     H411662   2.138   0.529   0.309  1.6988 -0.2358 -0.0331
  717THF     H511663   2.149   0.360   0.374  0.5294 -2.5112 -1.3932
  717THF     H611664   2.367   0.654   0.251 -1.1925 -0.6380  0.3990
  717THF     H711665   2.490   0.527   0.249 -0.4927 -1.7442 -0.3053
  717THF     C811666   2.337   0.477   0.114  0.1169 -0.2716  0.7183
  717THF     C911667   2.220   0.395   0.165  0.2384 -0.7247 -0.5800
  717THF    H1011668   2.412   0.405   0.082  1.0348  1.2259 -0.6564
  717THF    H1111669   2.304   0.534   0.027  0.1307 -1.3212  0.0101
  717THF    H1211670   2.133   0.398   0.099 -0.9302  0.4362  0.9607
  717THF    H1311671   2.246   0.289   0.160  1.5805 -0.4065 -0.7866
  718THF     O111672   3.751   3.454   2.848  0.4637 -0.7395 -0.5069
  718THF     C211673   3.636   3.479   2.936 -0.1203  0.0361 -0.4011
  718THF     C311674   3.864   3.443   2.938  0.6300 -0.6863  0.7813
  718THF     H411675   3.599   3.393   2.991  0.2991 -1.1666 -1.9188
  718THF     H511676   3.548   3.512   2.881  2.0246 -0.1171 -4.2975
  718THF     H611677   3.860   3.345   2.986  0.0911 -0.1866  1.7930
  718THF     H711678   3.951   3.442   2.873 -0.0811 -1.8994 -0.1905
  718THF     C811679   3.842   3.561   3.024  0.5155  0.0139  0.3109
  718THF     C911680   3.689   3.586   3.037  0.1872 -0.2028  0.6792
  718THF    H1011681   3.890   3.639   2.965 -0.2141  0.4368  0.2592
  718THF    H1111682   3.885   3.551   3.124  0.4972  1.3715  0.4789
  718THF    H1211683   3.650   3.572   3.137  1.0633  0.5364  1.1331
  718THF    H1311684   3.678   3.693   3.018 -0.7660 -0.3960  0.0576
  719THF     O111685   0.948   4.413   4.349  0.4674  0.6811  0.2106
  719THF     C211686   0.918   4.270   4.357  0.4160  0.0788  0.6239
  719THF     C311687   0.919   4.477   4.467 -0.3323 -0.3139 -0.7543
  719THF     H411688   0.989   4.219   4.292 -0.4778 -0.3188 -0.0623
  719THF     H511689   0.818   4.243   4.325 -0.0647  0.1497  1.9961
  719THF     H611690   0.967   4.573   4.485  1.9589 -1.1580 -2.0155
  719THF     H711691   0.813   4.505   4.462 -0.2864 -0.0232 -0.1951
  719THF     C811692   0.961   4.373   4.570  0.5987 -0.1924 -0.0745
  719THF     C911693   0.951   4.245   4.500  0.7932 -0.0529 -0.0919
  719THF    H1011694   0.906   4.379   4.664 -0.6854 -0.1326 -0.8035
  719THF    H1111695   1.062   4.392   4.606 -0.2398 -0.8228  2.8115
  719THF    H1211696   1.046   4.194   4.517  0.2740 -0.2560  2.6300
  719THF    H1311697   0.875   4.177   4.538  1.3094 -0.2880  0.5377
  720THF     O111698   2.228   3.997   4.898  0.4356 -0.4432 -0.7711
  720THF     C211699   2.283   4.086   4.991 -0.2362  0.3617  0.3159
  720THF     C311700   2.301   3.878   4.888  0.2217 -0.9234 -0.6408
  720THF     H411701   2.205   4.111   5.063 -0.8457  0.2516 -0.2884
  720THF     H511702   2.324   4.173   4.941 -0.8011 -0.0300 -0.8637
  720THF     H611703   2.244   3.799   4.937 -0.2212 -0.0280  0.3308
  720THF     H711704   2.309   3.840   4.786 -1.2251 -3.4581  0.1026
  720THF     C811705   2.434   3.915   4.951  0.2867  0.3341  0.2880
  720THF     C911706   2.404   4.012   5.059 -0.7011 -0.6065 -0.1983
  720THF    H1011707   2.484   3.973   4.873  1.0646  2.1431  2.0328
  720THF    H1111708   2.485   3.823   4.980  1.0645  0.4080 -0.7946
  720THF    H1211709   2.363   3.964   5.148  2.2943  0.9356  2.2214
  720THF    H1311710   2.491   4.070   5.092 -0.3158  0.3150 -2.6222
  721THF     O111711   1.554   0.312   3.821  0.0315  0.6879 -0.3543
  721THF     C211712   1.594   0.178   3.841 -0.0678 -0.3511  0.2586
  721THF     C311713   1.558   0.317   3.678  1.1256  0.8747 -0.0973
  721THF     H411714   1.568   0.151   3.944  0.6894 -0.2324  0.4881
  721THF     H511715   1.703   0.173   3.838 -0.0261  0.1539  0.6762
  721THF     H611716   1.506   0.405   3.640 -1.2794 -0.2165  0.4664
  721THF     H711717   1.659   0.313   3.636  1.4277 -0.3695  0.6902
  721THF     C811718   1.482   0.192   3.636 -0.0897  0.2917 -0.0316
  721THF     C911719   1.527   0.093   3.740 -0.0737 -0.1216  0.0043
  721THF    H1011720   1.528   0.179   3.538  2.1431  0.8476  0.8852
  721THF    H1111721   1.373   0.199   3.638  0.0256  3.0471  0.8542
  721THF    H1211722   1.439   0.047   3.785  0.5511  0.3884  1.8286
  721THF    H1311723   1.593   0.013   3.705 -0.0746 -0.8141  1.4966
  722THF     O111724   2.764   3.801   4.803  0.0324 -0.5281  0.1530
  722THF     C211725   2.693   3.789   4.679  0.4680 -0.8900  0.0530
  722THF     C311726   2.797   3.932   4.840 -0.0663  0.3158  0.4309
  722THF     H411727   2.591   3.823   4.697  1.5762  3.0782 -0.1585
  722THF     H511728   2.702   3.693   4.629 -0.9827  0.3480 -2.7866
  722THF     H611729   2.710   3.995   4.860  0.1797  0.4037  1.2466
  722THF     H711730   2.873   3.928   4.918 -1.4373  1.7452  1.9044
  722THF     C811731   2.859   3.968   4.701 -0.4279  0.1580 -0.1423
  722THF     C911732   2.759   3.905   4.601 -0.5550 -1.3378  0.7725
  722THF    H1011733   2.954   3.915   4.693  0.5044  1.8334 -0.5391
  722THF    H1111734   2.884   4.071   4.677 -0.0779  0.1172  0.0452
  722THF    H1211735   2.680   3.976   4.576 -0.4011 -1.7152 -0.8886
  722THF    H1311736   2.815   3.875   4.512 -0.0648  0.2543  0.5110
  723THF     O111737   4.848   2.697   1.356 -0.5753 -0.1350 -0.9685
  723THF     C211738   4.979   2.748   1.326 -0.0663  0.3995 -0.1016
  723THF     C311739   4.788   2.665   1.228  0.3098 -0.2603 -0.4035
  723THF     H411740   5.054   2.675   1.294 -0.2410 -0.0509  0.5052
  723THF     H511741   5.009   2.794   1.420 -0.5170  1.1945 -0.3374
  723THF     H611742   4.820   2.569   1.189  1.3087 -0.7529  1.5401
  723THF     H711743   4.679   2.669   1.228  0.3356  2.6281  0.5987
  723THF     C811744   4.842   2.765   1.128  0.6638 -0.2794 -1.0399
  723THF     C911745   4.952   2.838   1.208 -0.2103  0.2659  0.4122
  723THF    H1011746   4.767   2.822   1.073 -1.6741 -1.5483  0.6566
  723THF    H1111747   4.891   2.706   1.051 -0.4818 -0.2422 -1.8324
  723THF    H1211748   5.039   2.841   1.142  1.0606  2.9317  2.0497
  723THF    H1311749   4.931   2.939   1.243  1.4683  0.3425  1.2607
  724THF     O111750   3.097   1.152   5.292  0.1873 -0.1766  0.5572
  724THF     C211751   3.062   1.290   5.305  0.4639  0.2284  0.4908
  724THF     C311752   3.130   1.101   5.413 -0.6541 -0.3011 -0.1614
  724THF     H411753   3.006   1.329   5.220 -1.1210  0.7931  1.7431
  724THF     H511754   3.150   1.353   5.321  0.2655  1.3260 -2.1499
  724THF     H611755   3.121   0.993   5.400 -2.3571 -0.7419  3.4036
  724THF     H711756   3.227   1.136   5.451 -0.2376  2.3097 -3.2336
  724THF     C811757   3.012   1.158   5.491 -0.5273  0.1379  0.1253
  724THF     C911758   2.981   1.294   5.431  0.4569  0.5891 -0.0668
  724THF    H1011759   3.037   1.173   5.596  1.6496 -1.1424 -0.1528
  724THF    H1111760   2.921   1.098   5.484  0.1120 -0.7163 -1.1879
  724THF    H1211761   2.878   1.308   5.398  0.6427  0.3810 -0.7585
  724THF    H1311762   3.016   1.375   5.494 -1.2778  1.4857 -0.2003
  725THF     O111763   4.228   2.455   4.014  0.2700 -0.3115  0.1383
  725THF     C211764   4.319   2.467   3.913 -0.5987 -0.3449 -0.1120
  725THF     C311765   4.255   2.522   4.136 -0.3742  0.0057 -0.2226
  725THF     H411766   4.275   2.460   3.813 -1.6070 -1.6575  0.3910
  725THF     H511767   4.394   2.391   3.933 -0.2702 -0.2461 -0.9439
  725THF     H611768   4.179   2.584   4.181  1.0053  0.7915  1.1171
  725THF     H711769   4.277   2.457   4.221 -0.7821  1.1717  0.8059
  725THF     C811770   4.370   2.613   4.091  0.3140 -0.3431  0.7312
  725THF     C911771   4.385   2.606   3.943  0.4331 -0.4987  0.0759
  725THF    H1011772   4.463   2.581   4.138  1.0353 -0.9230 -1.0036
  725THF    H1111773   4.361   2.714   4.132  1.8550 -0.7871  2.2863
  725THF    H1211774   4.324   2.685   3.898  2.6041  1.1067 -0.2379
  725THF    H1311775   4.489   2.611   3.910  0.1236  0.3919 -0.8062
  726THF     O111776   0.038   1.081   0.410 -0.1697  0.0069 -0.0090
  726THF     C211777  -0.048   1.155   0.505  0.5235  0.7268 -0.0748
  726THF     C311778  -0.049   0.982   0.355 -0.3422 -0.1354 -1.0273
  726THF     H411779  -0.105   1.219   0.437  0.2070  1.0803  0.5193
  726THF     H511780   0.018   1.215   0.568  3.3392 -2.4410  0.2462
  726THF     H611781  -0.105   1.038   0.279 -3.5718  1.5155  2.2647
  726THF     H711782   0.018   0.908   0.312 -0.0603  0.3480 -1.4447
  726THF     C811783  -0.140   0.945   0.478 -0.4406  0.0217  0.6734
  726THF     C911784  -0.140   1.053   0.582 -0.2597 -0.1866  0.2992
  726THF    H1011785  -0.114   0.847   0.518 -0.8531 -0.2318  0.3350
  726THF    H1111786  -0.242   0.940   0.438  0.2717  1.4991 -1.4653
  726THF    H1211787  -0.239   1.098   0.588  0.5088  1.4584  1.4429
  726THF    H1311788  -0.095   1.035   0.680  1.7068 -3.6107 -1.0440
  727THF     O111789   5.032   0.477   2.434  0.3820 -0.1294  0.0304
  727THF     C211790   5.026   0.599   2.353  0.1861  0.3528 -0.0464
  727THF     C311791   4.905   0.467   2.492  0.0829 -0.4714 -0.2035
  727THF     H411792   4.964   0.579   2.266  1.1649 -1.3230 -0.3931
  727THF     H511793   5.123   0.638   2.323 -0.4281  2.1172  0.0841
  727THF     H611794   4.828   0.447   2.417 -0.9415  0.6828  0.5034
  727THF     H711795   4.906   0.393   2.572  2.1076  1.5983  1.8693
  727THF     C811796   4.889   0.611   2.550  0.3835  0.2096 -0.3089
  727THF     C911797   4.957   0.695   2.454 -0.0289  0.5042  0.2677
  727THF    H1011798   4.924   0.615   2.653  0.0506  0.1664 -0.1935
  727THF    H1111799   4.783   0.633   2.558  0.4085  0.2711 -0.1320
  727THF    H1211800   4.908   0.773   2.397 -3.0984 -0.8298  0.9177
  727THF    H1311801   5.041   0.744   2.504  0.4371 -0.3902  0.3785
  728THF     O111802   2.722   3.348   4.942  0.7673 -0.1420 -0.7143
  728THF     C211803   2.846   3.287   4.920 -0.9946 -0.3043  0.0950
  728THF     C311804   2.703   3.436   4.826 -0.1790  0.0089 -0.4728
  728THF     H411805   2.821   3.200   4.859  0.8498 -1.0168  0.2965
  728THF     H511806   2.896   3.250   5.010  0.7605 -1.5494 -1.3306
  728THF     H611807   2.614   3.410   4.768 -1.3248  0.9181  0.8167
  728THF     H711808   2.682   3.532   4.874  0.8366 -0.0979  0.2246
  728THF     C811809   2.829   3.431   4.742  0.4590 -0.7037  0.0194
  728THF     C911810   2.925   3.398   4.850 -0.9820 -0.3651 -0.8979
  728THF    H1011811   2.850   3.520   4.683  0.2277 -0.4138  0.3666
  728THF    H1111812   2.822   3.348   4.672  2.1492 -1.1804  0.3675
  728THF    H1211813   3.025   3.380   4.811 -0.9865  1.3498 -1.8018
  728THF    H1311814   2.943   3.484   4.915  1.3912 -0.2355 -1.6542
  729THF     O111815   5.490   4.095   4.491 -0.1897  0.1530  0.5371
  729THF     C211816   5.361   4.083   4.430  0.5404 -0.4345  0.1579
  729THF     C311817   5.586   4.072   4.385  0.3476  0.0972  0.1615
  729THF     H411818   5.282   4.137   4.483  0.2661 -0.0032 -0.6821
  729THF     H511819   5.344   3.976   4.418 -3.0115 -0.0396  0.5538
  729THF     H611820   5.682   4.117   4.411  0.2916 -0.5154  1.5228
  729THF     H711821   5.594   3.964   4.376  0.5770  0.2238 -1.4624
  729THF     C811822   5.523   4.126   4.255  0.4386  0.3802  0.4683
  729THF     C911823   5.381   4.148   4.293  0.6717  0.0387  0.5286
  729THF    H1011824   5.538   4.045   4.184 -1.0916 -0.6368  1.2379
  729THF    H1111825   5.574   4.216   4.224  0.8177  0.1303  0.3585
  729THF    H1211826   5.365   4.255   4.303 -0.3256 -0.1272  0.8796
  729THF    H1311827   5.320   4.108   4.212  0.4159 -0.8809  1.1501
  730THF     O111828   1.656   1.888   4.634  0.0420  0.0110 -0.1114
  730THF     C211829   1.690   1.807   4.748 -0.5128 -0.8000  0.3986
  730THF     C311830   1.732   1.851   4.519  0.1219 -0.0327  0.3940
  730THF     H411831   1.622   1.722   4.736 -0.9341 -0.1457 -2.4108
  730THF     H511832   1.670   1.874   4.831 -3.9868  1.1206 -1.7682
  730THF     H611833   1.676   1.794   4.444  0.8405 -0.6064  0.2906
  730THF     H711834   1.787   1.934   4.473  1.3085 -1.6423 -1.2411
  730THF     C811835   1.834   1.747   4.562 -0.0916 -0.0334 -0.2168
  730THF     C911836   1.840   1.770   4.714  0.4493  0.2524  0.0489
  730THF    H1011837   1.932   1.774   4.522 -0.6844  3.1358  0.2095
  730THF    H1111838   1.807   1.643   4.546 -1.7230  0.5841 -1.6944
  730THF    H1211839   1.873   1.677   4.761 -0.9931  0.2554  1.1469
  730THF    H1311840   1.907   1.851   4.741 -0.0053  0.7193 -0.2081
  731THF     O111841   5.158   3.536   0.536  0.5156 -0.2926  0.3867
  731THF     C211842   5.276   3.448   0.560  0.9255  0.2193 -0.4271
  731THF     C311843   5.202   3.669   0.573 -0.5319  0.9000 -0.8280
  731THF     H411844   5.266   3.348   0.518  2.7237 -0.5720  0.8817
  731THF     H511845   5.280   3.435   0.668 -2.4554  3.4567  0.2941
  731THF     H611846   5.135   3.751   0.544 -1.3824  0.8845  0.9765
  731THF     H711847   5.203   3.678   0.681  1.3839 -0.5875 -0.6894
  731THF     C811848   5.341   3.688   0.515 -0.2608 -0.1867 -0.6662
  731THF     C911849   5.383   3.536   0.499 -0.4860 -0.6560 -0.0264
  731THF    H1011850   5.404   3.728   0.594 -0.4990 -1.2984  0.1112
  731THF    H1111851   5.334   3.744   0.421 -0.6287  1.1026  0.1087
  731THF    H1211852   5.400   3.507   0.395  2.8355 -1.4760  0.6128
  731THF    H1311853   5.482   3.525   0.543 -0.4483  0.4687  0.2104
  732THF     O111854   5.330   4.562   4.280  0.3915 -0.2115  0.3998
  732THF     C211855   5.343   4.679   4.354 -0.1848 -0.4279  0.1107
  732THF     C311856   5.458   4.533   4.233 -0.3725 -0.2107  0.0123
  732THF     H411857   5.301   4.663   4.453  0.0003  2.7023  0.7972
  732THF     H511858   5.275   4.750   4.306 -0.3212  0.7586  1.9979
  732THF     H611859   5.505   4.473   4.311 -1.1840 -2.5771 -1.2234
  732THF     H711860   5.457   4.472   4.143  0.5365  0.5337 -0.5172
  732THF     C811861   5.537   4.664   4.235 -0.1776 -0.0606  0.0815
  732THF     C911862   5.486   4.722   4.357 -0.2020  0.2871 -0.5459
  732THF    H1011863   5.506   4.721   4.147  0.2832 -0.3812 -0.2956
  732THF    H1111864   5.646   4.662   4.237  0.0478  3.5699  2.6608
  732THF    H1211865   5.529   4.688   4.451 -0.6105  3.1043  0.7779
  732THF    H1311866   5.491   4.831   4.360  3.2015  0.2542 -0.6453
  733THF     O111867   1.617   0.865   3.297 -0.6340 -0.3951 -0.0515
  733THF     C211868   1.684   0.985   3.324 -0.8836 -0.2066 -0.7138
  733THF     C311869   1.698   0.750   3.348  0.7071  0.4739  0.3902
  733THF     H411870   1.633   1.031   3.409  1.4968  1.2857 -0.0039
  733THF     H511871   1.685   1.066   3.251  0.2975  0.4987  0.0559
  733THF     H611872   1.645   0.719   3.438  0.4591 -3.3517 -0.8639
  733THF     H711873   1.699   0.663   3.281  2.1738  0.2745  0.6323
  733THF     C811874   1.836   0.793   3.371  0.3417 -0.4303 -0.1712
  733THF     C911875   1.832   0.945   3.355 -0.2819 -0.3489 -0.4874
  733THF    H1011876   1.905   0.752   3.298 -1.0773  0.3618 -2.0277
  733THF    H1111877   1.872   0.774   3.473 -2.4967  0.1548  1.0350
  733THF    H1211878   1.881   1.000   3.435 -3.2928  1.4163  0.2831
  733THF    H1311879   1.890   0.956   3.263  1.7674 -3.8065  0.2202
  734THF     O111880   2.840   3.715   0.744 -0.4871 -0.0342  0.0711
  734THF     C211881   2.728   3.673   0.679 -0.2745 -0.9693  0.0930
  734THF     C311882   2.800   3.715   0.883 -1.2038  0.7114  0.4439
  734THF     H411883   2.763   3.646   0.579 -0.7814  0.8978 -0.6270
  734THF     H511884   2.671   3.765   0.667  1.0671 -0.2113 -0.6913
  734THF     H611885   2.892   3.708   0.941 -0.6550  0.5331 -0.4255
  734THF     H711886   2.764   3.811   0.918 -0.1266  0.3357  2.7763
  734THF     C811887   2.697   3.615   0.910  0.3036 -0.3246  0.0149
  734THF     C911888   2.669   3.560   0.770  0.2484 -0.3910  0.5199
  734THF    H1011889   2.603   3.668   0.931 -0.3614 -1.7814  0.8868
  734THF    H1111890   2.715   3.542   0.989 -0.1282  0.8774  1.2593
  734THF    H1211891   2.731   3.474   0.745  0.1374  0.4138 -2.9983
  734THF    H1311892   2.565   3.546   0.739  0.0266  4.1164 -1.5840
  735THF     O111893   4.614   4.260   4.004  0.3262  0.1749 -0.3581
  735THF     C211894   4.541   4.353   3.917  0.3061 -0.3302 -0.5547
  735THF     C311895   4.755   4.277   3.984 -0.1580  0.0015 -0.3372
  735THF     H411896   4.474   4.421   3.971  1.3317  0.4574 -0.2553
  735THF     H511897   4.477   4.308   3.840  1.5924 -0.8378 -1.3523
  735THF     H611898   4.819   4.261   4.071  3.3976 -0.0141 -2.7056
  735THF     H711899   4.793   4.201   3.916 -1.4422 -4.0084  2.9937
  735THF     C811900   4.776   4.419   3.942  0.2834 -0.3490  0.4505
  735THF     C911901   4.652   4.438   3.849  0.0434 -0.4279  0.2281
  735THF    H1011902   4.871   4.452   3.900  0.0419  1.7456  1.4422
  735THF    H1111903   4.747   4.485   4.024 -0.0656  0.0328  0.0231
  735THF    H1211904   4.622   4.541   3.830  0.2496 -0.0419  1.8430
  735THF    H1311905   4.671   4.396   3.750  0.3852 -0.1159  0.1602
  736THF     O111906   1.337   4.799   2.965 -0.6775  0.1510 -0.4315
  736THF     C211907   1.300   4.939   2.950  0.5558  0.1313  0.4292
  736THF     C311908   1.410   4.794   3.091 -0.4248  0.5790  0.1918
  736THF     H411909   1.217   4.971   3.014  0.3619 -1.6457  1.1278
  736THF     H511910   1.267   4.962   2.849 -0.4920  0.2240  0.7788
  736THF     H611911   1.334   4.799   3.169 -0.3710 -0.2933  0.3030
  736THF     H711912   1.472   4.712   3.125  0.6249  1.5203  0.6283
  736THF     C811913   1.492   4.923   3.094 -0.3661  0.2515 -0.4492
  736THF     C911914   1.422   5.017   2.992  0.1677  0.9003 -0.6828
  736THF    H1011915   1.594   4.890   3.073 -0.8502 -1.3207 -0.5245
  736THF    H1111916   1.494   4.973   3.190 -3.5467  0.8914 -0.6108
  736THF    H1211917   1.395   5.117   3.026 -2.1741  0.0246  0.2361
  736THF    H1311918   1.486   5.033   2.906  0.5880  1.0868 -0.3439
  737THF     O111919   0.660   0.573   4.272  0.2552 -0.1190  0.1895
  737THF     C211920   0.555   0.664   4.288  0.2878 -0.6661 -0.8892
  737THF     C311921   0.742   0.611   4.164 -0.2192  0.0399  0.5776
  737THF     H411922   0.580   0.740   4.362  1.0376  1.0090 -2.7552
  737THF     H511923   0.476   0.599   4.323  0.3763  0.1984  1.0245
  737THF     H611924   0.848   0.620   4.188 -0.3576  3.7368  0.4255
  737THF     H711925   0.715   0.544   4.082  0.7500 -0.0896  0.3488
  737THF     C811926   0.687   0.740   4.109  0.3915 -0.2486 -0.9391
  737THF     C911927   0.543   0.723   4.147  0.1294 -0.0220  0.9439
  737THF    H1011928   0.709   0.738   4.002  0.8380 -3.0143 -0.8738
  737THF    H1111929   0.728   0.817   4.174 -1.0681 -1.6621  1.8170
  737THF    H1211930   0.501   0.823   4.159  1.6998  0.8251 -0.2001
  737THF    H1311931   0.482   0.658   4.085 -0.7573  2.0934 -0.5325
  738THF     O111932   1.675   0.970   1.961 -0.3694 -0.0441  0.2545
  738THF     C211933   1.590   0.964   2.077  0.0178  0.7314  0.4884
  738THF     C311934   1.726   1.102   1.954 -0.2035 -0.9664 -0.2194
  738THF     H411935   1.648   0.959   2.170 -0.9691  2.7459  1.2909
  738THF     H511936   1.520   0.881   2.087  0.7692  0.3184  3.1768
  738THF     H611937   1.822   1.084   2.003  0.8896 -1.0860 -2.2698
  738THF     H711938   1.745   1.135   1.852 -0.2398  3.2985  0.9562
  738THF     C811939   1.624   1.192   2.025  0.2712 -0.4903 -0.3476
  738THF     C911940   1.518   1.094   2.081  0.2853 -0.1373  0.3310
  738THF    H1011941   1.570   1.273   1.976 -1.0038 -1.2079 -0.1666
  738THF    H1111942   1.675   1.231   2.114  1.1048 -2.6890  0.1928
  738THF    H1211943   1.491   1.112   2.185  0.6667 -2.2982  0.8635
  738THF    H1311944   1.427   1.084   2.021  0.4024 -0.2316  0.1685
  739THF     O111945   4.889   0.554   3.085  0.0393 -0.2666 -0.2027
  739THF     C211946   4.841   0.625   3.197  0.1971 -0.3458  0.1528
  739THF     C311947   4.780   0.493   3.009  0.0752 -0.3108 -0.1220
  739THF     H411948   4.884   0.725   3.196 -0.5067 -0.0390 -0.9740
  739THF     H511949   4.859   0.570   3.289  2.2226 -1.7654 -1.0083
  739THF     H611950   4.801   0.514   2.904 -0.8026 -0.4710 -0.3381
  739THF     H711951   4.756   0.390   3.033  1.8529 -0.4307  1.3540
  739THF     C811952   4.662   0.582   3.035 -0.4348  0.1934  0.2888
  739THF     C911953   4.689   0.637   3.171  0.4376 -0.1905  0.1469
  739THF    H1011954   4.574   0.519   3.030  0.2679 -0.7487 -1.7444
  739THF    H1111955   4.647   0.664   2.964 -0.7985 -0.5128 -0.4563
  739THF    H1211956   4.646   0.733   3.199  1.0413  0.5232 -1.2576
  739THF    H1311957   4.638   0.574   3.244  1.9272  0.3068  1.6799
  740THF     O111958   2.057   2.963   1.274  0.2882 -0.6255  0.7217
  740THF     C211959   2.056   3.049   1.155 -0.5910  0.2561 -0.1142
  740THF     C311960   2.182   2.908   1.302  0.3424 -0.1951 -0.3896
  740THF     H411961   1.995   3.139   1.166 -2.2117 -0.8574  0.5322
  740THF     H511962   2.028   2.985   1.071  0.1181 -2.7061  1.7606
  740THF     H611963   2.200   2.926   1.408 -0.7306 -0.3630 -0.1675
  740THF     H711964   2.206   2.802   1.293 -0.8632 -0.4848 -0.3516
  740THF     C811965   2.276   2.979   1.215 -0.2991 -0.5777  0.3726
  740THF     C911966   2.200   3.097   1.154 -0.4108  0.1508  0.4993
  740THF    H1011967   2.308   2.921   1.128  2.5611  0.6884  0.4840
  740THF    H1111968   2.358   3.009   1.279 -1.7008  2.0724  1.0756
  740THF    H1211969   2.220   3.192   1.205 -0.9210  0.2933  0.4448
  740THF    H1311970   2.221   3.114   1.048  1.4557 -0.3053  0.7565
  741THF     O111971   2.067   1.278   4.723 -0.2026 -0.3357  0.0270
  741THF     C211972   1.968   1.367   4.665 -0.2402 -0.0321  0.1885
  741THF     C311973   1.998   1.160   4.770 -0.3222 -0.5650  0.2058
  741THF     H411974   1.956   1.343   4.560 -0.3851  1.5608 -0.1952
  741THF     H511975   2.003   1.471   4.660 -3.0651  0.9564 -0.9737
  741THF     H611976   1.992   1.085   4.692 -0.4925  0.7469 -1.0816
  741THF     H711977   2.052   1.110   4.851  1.0151  0.8128  0.2177
  741THF     C811978   1.860   1.212   4.828  0.3304 -0.3916  0.5982
  741THF     C911979   1.845   1.350   4.757  0.4230  0.0721  0.8482
  741THF    H1011980   1.869   1.230   4.935  2.0951  1.2843  0.2080
  741THF    H1111981   1.775   1.143   4.821 -1.4826  1.4403  2.9044
  741THF    H1211982   1.763   1.364   4.687  0.0353 -0.6341  1.1529
  741THF    H1311983   1.821   1.432   4.824  0.0939  0.8638 -0.1956
  742THF     O111984   4.882   3.363   2.348  0.3316  0.2301 -0.5548
  742THF     C211985   4.742   3.341   2.361  0.0488  0.0865 -0.6705
  742THF     C311986   4.938   3.272   2.250  0.1464 -1.2830  0.1627
  742THF     H411987   4.702   3.431   2.313  0.0828  0.8110  0.5971
  742THF     H511988   4.714   3.344   2.466  0.4303 -1.8766 -0.4940
  742THF     H611989   4.986   3.331   2.172 -1.2816 -2.5143 -1.7386
  742THF     H711990   4.999   3.198   2.302 -0.2959 -0.8142  1.3758
  742THF     C811991   4.823   3.196   2.185  0.4197  0.6864 -0.0759
  742THF     C911992   4.715   3.212   2.290  0.6406  0.1143 -0.2937
  742THF    H1011993   4.853   3.096   2.153  0.8302  1.0234 -0.7679
  742THF    H1111994   4.781   3.234   2.092 -0.9569 -1.6024 -0.4979
  742THF    H1211995   4.623   3.207   2.232  2.0555 -1.1355 -2.5511
  742THF    H1311996   4.712   3.131   2.362  0.1356  0.4602  0.0837
  743THF     O111997   4.311   1.013   2.680  0.0368  0.1159 -0.5734
  743THF     C211998   4.391   1.065   2.789  0.4915  0.2943  0.4932
  743THF     C311999   4.351   0.876   2.665 -0.2545  0.0611 -0.2203
  743THF     H412000   4.363   1.155   2.843 -0.2188  0.3385  0.0552
  743THF     H512001   4.498   1.073   2.771  0.8538 -2.8615  0.6764
  743THF     H612002   4.271   0.822   2.614 -0.6332  2.7670 -2.7826
  743THF     H712003   4.438   0.876   2.599  1.2397  0.5517  1.6635
  743THF     C812004   4.389   0.823   2.801 -0.1035  0.1245  0.4239
  743THF     C912005   4.378   0.946   2.888  0.6528 -0.2265 -1.1397
  743THF    H1012006   4.490   0.782   2.798 -0.2472 -0.1936 -1.6619
  743THF    H1112007   4.326   0.746   2.845  1.9331 -0.3971  2.6568
  743THF    H1212008   4.291   0.950   2.953  0.8643  0.5705 -0.8941
  743THF    H1312009   4.464   0.945   2.955 -0.5668  0.2582  0.4934
  744THF     O112010   3.786   2.060   0.955  0.0595 -0.1830 -0.5932
  744THF     C212011   3.738   2.091   1.076  0.3734  0.2927 -0.3553
  744THF     C312012   3.736   1.932   0.916  0.3093 -0.4106 -0.1874
  744THF     H412013   3.638   2.133   1.071 -1.4022 -3.4486  0.2879
  744THF     H512014   3.806   2.163   1.120  3.3452 -2.4443 -0.0629
  744THF     H612015   3.629   1.945   0.902 -0.0721 -2.2489  0.6378
  744THF     H712016   3.785   1.889   0.828  1.2391  0.4304 -0.0940
  744THF     C812017   3.761   1.850   1.046  0.3213 -0.4148  0.0387
  744THF     C912018   3.724   1.956   1.150 -0.1183  0.7363 -0.1853
  744THF    H1012019   3.867   1.828   1.063  1.1026  2.5740 -0.3365
  744THF    H1112020   3.704   1.759   1.066 -1.3453  0.9607  1.8741
  744THF    H1212021   3.620   1.946   1.182 -0.1444 -0.4970 -0.6364
  744THF    H1312022   3.792   1.954   1.235 -0.0322  2.7696 -0.1433
  745THF     O112023   5.179   1.784   0.093 -0.1971 -0.7033 -0.3147
  745THF     C212024   5.137   1.761  -0.047  0.0081 -0.0631  0.0899
  745THF     C312025   5.152   1.924   0.125  0.1702  0.0452  0.3347
  745THF     H412026   5.029   1.764  -0.059  0.1286  1.5692 -0.8493
  745THF     H512027   5.165   1.661  -0.080  1.5721  0.2426  0.4175
  745THF     H612028   5.044   1.930   0.139  0.1520 -0.1833  0.2959
  745THF     H712029   5.207   1.942   0.217  1.7092 -1.4418 -0.2294
  745THF     C812030   5.205   1.995  -0.000 -0.2106  0.4460  0.4176
  745THF     C912031   5.204   1.886  -0.109 -0.1309 -0.5527  0.2107
  745THF    H1012032   5.308   2.028   0.007 -0.0482  0.1868 -0.5731
  745THF    H1112033   5.157   2.087  -0.034  0.3616  0.5201 -0.2180
  745THF    H1212034   5.157   1.918  -0.202  2.6467  1.7589 -0.5495
  745THF    H1312035   5.305   1.857  -0.136 -0.0999 -0.2513 -0.0090
  746THF     O112036   0.723   3.995   1.119 -0.7616 -0.4304 -0.0995
  746THF     C212037   0.785   4.053   1.001  0.8006 -0.2768 -0.5643
  746THF     C312038   0.773   3.863   1.130 -0.6633  0.1478  0.0317
  746THF     H412039   0.778   4.160   0.986  1.4730 -0.4825 -2.6496
  746THF     H512040   0.741   4.001   0.915 -0.9185  0.0409  0.0864
  746THF     H612041   0.750   3.820   1.228 -0.1970 -0.8146 -0.2708
  746THF     H712042   0.726   3.808   1.048  0.3196  0.1530 -0.5467
  746THF     C812043   0.927   3.883   1.106  0.6773 -0.0498 -0.5494
  746THF     C912044   0.928   4.001   0.999 -0.0105 -0.1582 -0.1137
  746THF    H1012045   0.973   3.787   1.081  0.3306 -0.8485  1.6038
  746THF    H1112046   0.966   3.917   1.202 -0.6052 -1.4084  0.5091
  746THF    H1212047   0.978   4.085   1.047 -0.7579  0.0262  0.3739
  746THF    H1312048   0.970   3.974   0.902 -0.9744  2.1809 -1.2652
  747THF     O112049   3.752   0.177   1.174  0.0692  0.0688 -0.3446
  747THF     C212050   3.744   0.274   1.076 -0.0945 -0.1003  1.3759
  747THF     C312051   3.877   0.210   1.245  0.8327  0.4280  0.1384
  747THF     H412052   3.734   0.377   1.111 -0.8301  0.7186 -0.9770
  747THF     H512053   3.665   0.252   1.003 -0.6121 -3.3964  2.7661
  747THF     H612054   3.853   0.286   1.320 -0.3735 -0.5026  0.7388
  747THF     H712055   3.922   0.122   1.290  1.0040  0.5842  0.2741
  747THF     C812056   3.972   0.263   1.134  0.2927 -0.0083  0.4586
  747THF     C912057   3.885   0.276   1.017  0.6668 -1.2657  0.3589
  747THF    H1012058   4.059   0.198   1.119 -0.4469 -1.5392  2.3548
  747THF    H1112059   4.014   0.360   1.161  2.3701 -1.2942  2.2026
  747THF    H1212060   3.906   0.370   0.965 -1.4354 -0.7174  0.4046
  747THF    H1312061   3.904   0.195   0.946  0.3028 -0.4863 -0.6569
  748THF     O112062   1.605   4.333   1.437 -0.4838 -0.2156  0.0517
  748THF     C212063   1.634   4.265   1.558 -0.0705  1.0321 -0.2314
  748THF     C312064   1.499   4.273   1.365 -0.2793 -0.6301  0.0472
  748THF     H412065   1.559   4.282   1.635  1.7140 -1.2554  2.2313
  748THF     H512066   1.732   4.284   1.602 -0.4036  0.5838  0.7278
  748THF     H612067   1.416   4.287   1.434  1.1123 -1.8188  2.0768
  748THF     H712068   1.482   4.305   1.262 -0.8441 -2.9334 -0.6254
  748THF     C812069   1.536   4.125   1.384  0.1141 -0.2916 -0.2176
  748THF     C912070   1.639   4.125   1.500 -0.0518  0.1812 -0.4091
  748THF    H1012071   1.592   4.091   1.296 -0.1443  0.2116 -0.5816
  748THF    H1112072   1.451   4.058   1.395 -0.7139  0.9242  1.0040
  748THF    H1212073   1.605   4.046   1.568  2.0779  0.2601  0.8577
  748THF    H1312074   1.740   4.111   1.462  0.3013  0.3008  0.4569
  749THF     O112075   4.613   3.883   3.809  0.1082  0.2790 -0.0313
  749THF     C212076   4.652   3.893   3.948 -0.0691 -0.1696  0.4570
  749THF     C312077   4.708   3.963   3.737 -0.4452  1.1052  0.0408
  749THF     H412078   4.600   3.811   3.999  2.1269 -0.9262  1.6352
  749THF     H512079   4.612   3.987   3.988 -0.9938  0.4233 -1.7410
  749THF     H612080   4.703   3.952   3.629 -1.9502 -0.7235  0.2337
  749THF     H712081   4.698   4.068   3.762 -1.3836  0.1829  4.3220
  749THF     C812082   4.842   3.928   3.806  0.9402  0.6323  0.5504
  749THF     C912083   4.801   3.892   3.951  0.3967  0.4527  0.2890
  749THF    H1012084   4.917   4.005   3.791  2.2677 -0.6783  0.1186
  749THF    H1112085   4.886   3.841   3.757 -0.4409 -1.8027  3.3039
  749THF    H1212086   4.836   3.794   3.984 -1.7520 -1.1507 -1.8756
  749THF    H1312087   4.827   3.969   4.025  1.2392  1.6837 -1.2326
  750THF     O112088   4.264   3.528   1.078  0.4504 -0.2940 -0.2092
  750THF     C212089   4.172   3.619   1.131  0.4119 -0.6213 -0.0183
  750THF     C312090   4.190   3.428   1.018 -0.0163  0.4038 -0.1994
  750THF     H412091   4.138   3.694   1.059  0.1101 -0.2481  0.5037
  750THF     H512092   4.217   3.681   1.209  1.3056  0.9840 -1.7470
  750THF     H612093   4.141   3.457   0.924  0.4592 -0.2096 -0.6451
  750THF     H712094   4.248   3.344   0.981  1.2613  1.1087  0.1302
  750THF     C812095   4.083   3.400   1.118 -0.9266  0.0009  0.4497
  750THF     C912096   4.054   3.530   1.173 -0.2993 -0.0614  0.7297
  750THF    H1012097   4.128   3.340   1.198  1.9851  1.6338  0.1885
  750THF    H1112098   3.998   3.348   1.074 -0.6133 -2.0042  2.0150
  750THF    H1212099   3.962   3.575   1.136  1.3634  1.1662 -2.2623
  750THF    H1312100   4.049   3.519   1.281  1.0832 -1.9269  0.6581
  751THF     O112101   4.620   4.499   0.101 -0.5118  0.4458  0.5979
  751THF     C212102   4.696   4.563  -0.002  0.2109 -0.3312 -0.1585
  751THF     C312103   4.716   4.441   0.183  0.5828 -0.4338 -0.5430
  751THF     H412104   4.743   4.651   0.043 -1.6398  0.6313  0.0025
  751THF     H512105   4.640   4.597  -0.089  0.6666 -1.5534 -0.9567
  751THF     H612106   4.774   4.516   0.235  1.8515 -0.8370 -1.3403
  751THF     H712107   4.671   4.374   0.257  1.0251 -0.5547 -0.3839
  751THF     C812108   4.807   4.366   0.085 -0.6773  0.5862  0.4423
  751THF     C912109   4.804   4.466  -0.036  0.6749  0.2406 -0.1057
  751THF    H1012110   4.770   4.267   0.057  1.2438 -0.6200  1.9128
  751THF    H1112111   4.899   4.352   0.141 -2.5683  1.2491  4.0376
  751THF    H1212112   4.899   4.520  -0.042  0.0806  2.0148  3.5145
  751THF    H1312113   4.784   4.419  -0.132  0.7038 -0.1904  0.1002
  752THF     O112114   0.421   0.894   5.436 -0.0617 -0.3324  0.4711
  752THF     C212115   0.343   0.976   5.343 -0.3135  0.4487 -0.6258
  752THF     C312116   0.332   0.799   5.481  0.5390  0.3748 -0.0103
  752THF     H412117   0.346   0.938   5.241  0.2900  0.2299 -0.5291
  752THF     H512118   0.373   1.081   5.337  2.0146 -0.1537 -0.4702
  752THF     H612119   0.323   0.720   5.406  0.4930  1.0628 -0.7366
  752THF     H712120   0.365   0.752   5.573 -0.8619  2.9172  1.9238
  752THF     C812121   0.203   0.872   5.499  0.5358  0.3887  0.5346
  752THF     C912122   0.204   0.990   5.407 -0.2527  0.5588  1.0367
  752THF    H1012123   0.206   0.915   5.599  0.7277  0.1881  0.6153
  752THF    H1112124   0.116   0.806   5.489 -0.4406  1.8008 -0.6937
  752THF    H1212125   0.133   0.979   5.325 -0.1436  1.3962  0.8204
  752THF    H1312126   0.197   1.091   5.446  1.1054  1.5714 -1.1352
  753THF     O112127   2.191   2.532   5.238  0.8469 -0.2678  0.2519
  753THF     C212128   2.206   2.621   5.128  0.2728  0.3207 -0.4311
  753THF     C312129   2.281   2.579   5.341  0.8078 -0.0728  0.0953
  753THF     H412130   2.127   2.696   5.138 -0.5385 -0.4098 -1.1529
  753THF     H512131   2.186   2.571   5.033 -2.8844  1.4781 -0.5107
  753THF     H612132   2.244   2.658   5.405 -2.3548  0.4459 -2.1604
  753THF     H712133   2.296   2.493   5.407 -1.3752 -0.2585  0.4158
  753THF     C812134   2.408   2.602   5.268 -0.2542 -0.0051 -0.1334
  753THF     C912135   2.352   2.667   5.141 -0.5645 -0.7344  0.4081
  753THF    H1012136   2.459   2.506   5.260 -0.5946 -0.1385 -0.7408
  753THF    H1112137   2.470   2.666   5.331  0.1705 -0.6068  0.0601
  753THF    H1212138   2.366   2.774   5.153  0.7527 -0.8498  0.0246
  753THF    H1312139   2.404   2.631   5.052 -2.6826 -1.8470 -0.4486
  754THF     O112140   3.973   1.019   2.360  0.1374 -0.0926 -0.7335
  754THF     C212141   3.904   1.075   2.250  0.2086  0.2530 -0.0627
  754THF     C312142   4.114   1.055   2.363  0.3088  0.0752  0.4571
  754THF     H412143   3.870   1.174   2.281  0.4346 -0.5250  2.9274
  754THF     H512144   3.824   1.022   2.197 -0.1633  0.9372 -0.1988
  754THF     H612145   4.130   1.148   2.417  0.8132 -0.6373  1.5877
  754THF     H712146   4.166   0.981   2.425 -0.5743 -0.8565  0.1129
  754THF     C812147   4.149   1.055   2.216  0.1762 -0.5941 -0.2408
  754THF     C912148   4.019   1.087   2.144  0.5523 -0.4529  0.0615
  754THF    H1012149   4.186   0.958   2.183  2.1884  0.2706 -0.6800
  754THF    H1112150   4.219   1.137   2.205 -1.2657  0.5819 -1.1331
  754THF    H1212151   4.017   1.181   2.089  1.9863 -0.5865 -0.2498
  754THF    H1312152   4.004   1.016   2.063  0.7393 -0.6552  0.2033
  755THF     O112153   0.618   3.270   2.319 -0.0757  0.2902 -0.6877
  755THF     C212154   0.711   3.360   2.372  0.1796  0.4999  0.2224
  755THF     C312155   0.523   3.352   2.255  0.4673  0.3135 -0.2551
  755THF     H412156   0.799   3.308   2.412  0.4382  0.8112  0.0663
  755THF     H512157   0.662   3.409   2.456 -1.5373 -0.0073 -0.4569
  755THF     H612158   0.490   3.284   2.176  0.7955  0.3222 -0.4034
  755THF     H712159   0.447   3.378   2.328  0.0268 -0.2224 -0.5141
  755THF     C812160   0.607   3.467   2.197 -0.0348 -0.5023  0.1606
  755THF     C912161   0.742   3.462   2.266  0.4946  0.0020  0.3943
  755THF    H1012162   0.556   3.563   2.202  3.0883  1.3732 -1.3135
  755THF    H1112163   0.623   3.462   2.089  0.0937  1.3047  0.0653
  755THF    H1212164   0.814   3.426   2.192  1.0663  0.1154  0.8902
  755THF    H1312165   0.776   3.560   2.300  1.5676  0.3054 -1.4387
  756THF     O112166   3.913   5.321   3.018  0.1937 -0.5583 -0.0603
  756THF     C212167   3.792   5.291   2.953 -0.5986  0.3900 -0.1855
  756THF     C312168   3.880   5.424   3.108  0.0519  0.2181  1.0462
  756THF     H412169   3.811   5.195   2.904 -0.7685  0.7530 -0.9729
  756THF     H512170   3.775   5.367   2.878 -0.5438  0.4652 -0.1219
  756THF     H612171   3.958   5.432   3.184 -0.2259 -0.6799  1.4384
  756THF     H712172   3.890   5.514   3.048  1.1044 -0.9689 -0.6681
  756THF     C812173   3.739   5.376   3.161 -0.3502  0.1769 -0.1300
  756THF     C912174   3.682   5.279   3.052 -0.4148  0.1707  0.4482
  756THF    H1012175   3.673   5.462   3.173 -1.0868 -0.3505 -0.3476
  756THF    H1112176   3.750   5.324   3.256  5.0888 -0.3345 -0.7196
  756THF    H1212177   3.692   5.175   3.083  1.0243  0.3705  0.7181
  756THF    H1312178   3.580   5.304   3.022 -1.2255  0.5079  3.2619
  757THF     O112179   1.919   4.857   3.328  0.2894  0.5149 -0.1725
  757THF     C212180   1.970   4.978   3.376 -0.4074 -0.7811 -0.8035
  757THF     C312181   1.911   4.865   3.182  0.5510 -0.0809 -0.4491
  757THF     H412182   2.079   4.987   3.372 -0.5397  0.9564 -1.2666
  757THF     H512183   1.936   5.001   3.477  0.3527 -0.3194 -0.6459
  757THF     H612184   2.010   4.844   3.140 -0.2244 -2.2181 -1.3986
  757THF     H712185   1.834   4.796   3.147  0.7953 -0.7038  0.2101
  757THF     C812186   1.884   5.013   3.155  0.5673  0.4973 -0.4859
  757THF     C912187   1.908   5.084   3.288  0.4172 -0.0750  0.1920
  757THF    H1012188   1.781   5.018   3.120 -0.2956 -2.3107  1.2952
  757THF    H1112189   1.965   5.031   3.084  1.5418 -2.1773 -0.1650
  757THF    H1212190   1.963   5.177   3.275 -0.5725  0.4537 -0.3484
  757THF    H1312191   1.812   5.111   3.333  0.1919  1.3574 -1.0931
  758THF     O112192   1.674   2.775   1.509 -0.1128 -0.2147 -0.2055
  758THF     C212193   1.781   2.860   1.527 -0.6692  0.6837 -0.7777
  758THF     C312194   1.554   2.855   1.493  0.0506  0.1853 -0.5268
  758THF     H412195   1.879   2.812   1.525 -0.8653  0.2890 -0.9951
  758THF     H512196   1.768   2.914   1.621  0.8476 -0.2005 -0.0294
  758THF     H612197   1.481   2.798   1.436 -0.2001  1.5791 -1.6678
  758THF     H712198   1.500   2.879   1.585  1.7164 -0.9047  0.7939
  758THF     C812199   1.607   2.982   1.420  0.2600  0.2102  0.4954
  758THF     C912200   1.758   2.953   1.411 -0.0095 -0.6090  0.3554
  758THF    H1012201   1.595   3.070   1.483  0.4337 -0.4424  1.4513
  758THF    H1112202   1.547   3.001   1.331 -1.7079 -0.7173  1.5725
  758THF    H1212203   1.782   2.898   1.321 -1.5557  0.2633 -0.6458
  758THF    H1312204   1.820   3.042   1.419 -2.1967  0.9904  0.5095
  759THF     O112205   1.023   1.319   5.057 -0.4665 -0.5035 -0.6282
  759THF     C212206   0.959   1.419   4.978 -0.2167 -0.2854 -0.2950
  759THF     C312207   1.053   1.373   5.191  0.1085  0.1197  0.3720
  759THF     H412208   0.899   1.377   4.897 -1.2473  2.2884 -0.9353
  759THF     H512209   1.022   1.505   4.958  0.1460  0.2005  2.5580
  759THF     H612210   1.030   1.295   5.263 -1.6732 -0.5531 -0.8465
  759THF     H712211   1.154   1.412   5.192 -0.7853  2.6019  0.7087
  759THF     C812212   0.957   1.487   5.203 -0.3744 -0.8080  0.1941
  759THF     C912213   0.863   1.471   5.080 -0.7328 -0.0815 -0.7347
  759THF    H1012214   1.015   1.579   5.191 -0.5118 -0.4521  2.0052
  759THF    H1112215   0.916   1.482   5.304  1.2546 -2.8213  0.8362
  759THF    H1212216   0.789   1.394   5.102  0.2554 -0.2202  2.6066
  759THF    H1312217   0.831   1.570   5.049  1.3182  1.2743  1.2096
  760THF     O112218   2.908   1.365   2.736  0.3071 -0.3101 -0.0277
  760THF     C212219   2.792   1.346   2.656 -0.5676 -0.0796  0.6877
  760THF     C312220   2.997   1.267   2.711 -0.2004  0.9172 -0.3302
  760THF     H412221   2.762   1.435   2.600 -1.3682  0.4471  1.9327
  760THF     H512222   2.706   1.322   2.717 -0.1285  0.0850  1.3821
  760THF     H612223   3.080   1.305   2.652  0.6700 -0.7837 -0.2593
  760THF     H712224   3.040   1.220   2.800  2.4499  0.6201 -1.6727
  760THF     C812225   2.926   1.150   2.638 -0.8607 -0.0008  0.7273
  760THF     C912226   2.833   1.233   2.557  0.1620  0.0578  0.0176
  760THF    H1012227   2.871   1.092   2.712 -1.0278 -2.2099 -1.0025
  760THF    H1112228   2.988   1.080   2.582 -0.1860  1.4638 -0.4133
  760THF    H1212229   2.885   1.275   2.470  2.3103  0.2763  1.3291
  760THF    H1312230   2.746   1.172   2.532 -1.7173  2.0683  1.3457
  761THF     O112231   0.435   1.397   5.108  0.2048  0.2974  0.1855
  761THF     C212232   0.476   1.523   5.172  0.0349 -0.0752  0.0252
  761THF     C312233   0.512   1.298   5.183  0.0808  0.2076 -0.1871
  761THF     H412234   0.401   1.595   5.140  2.2136  2.1060 -0.4893
  761THF     H512235   0.570   1.567   5.140 -0.5233 -0.0804 -1.7321
  761THF     H612236   0.481   1.197   5.159 -0.3493  0.3189 -0.1061
  761THF     H712237   0.616   1.305   5.152 -0.0263  4.6157 -0.1901
  761THF     C812238   0.484   1.339   5.329  0.5991  0.1237  1.0019
  761THF     C912239   0.484   1.500   5.326  0.3720 -0.1173  0.1797
  761THF    H1012240   0.562   1.289   5.387  0.3153 -2.4888 -0.6815
  761THF    H1112241   0.383   1.307   5.353  0.5100 -0.0157  0.4425
  761THF    H1212242   0.400   1.549   5.375 -0.3917 -0.6458 -0.5695
  761THF    H1312243   0.574   1.534   5.377  0.2136  0.3834  0.1269
  762THF     O112244   2.223   0.457   2.679  0.2291  0.2551 -0.6896
  762THF     C212245   2.161   0.481   2.553 -0.2716  0.3474 -0.3986
  762THF     C312246   2.188   0.565   2.773 -0.5976  0.1379  0.2568
  762THF     H412247   2.142   0.396   2.487 -1.6274  0.8693 -0.7183
  762THF     H512248   2.226   0.547   2.495 -0.9898  0.7177 -0.8044
  762THF     H612249   2.135   0.529   2.862  0.2137 -2.5134 -0.2475
  762THF     H712250   2.272   0.624   2.810 -0.3079  0.8257 -1.4348
  762THF     C812251   2.078   0.645   2.701 -0.6194 -0.3216 -0.0129
  762THF     C912252   2.027   0.542   2.605  0.5821 -0.1292 -0.0074
  762THF    H1012253   2.131   0.727   2.652 -2.3900  0.4456 -0.7341
  762THF    H1112254   1.989   0.687   2.748  0.3115  2.4014 -0.4488
  762THF    H1212255   1.966   0.464   2.651  1.5067 -2.2196 -2.1040
  762THF    H1312256   1.964   0.583   2.526  0.8429 -0.4496 -0.3901
  763THF     O112257   1.691   1.125   2.975  0.3808  0.2710  0.0807
  763THF     C212258   1.631   1.231   2.905  0.1860 -0.4169 -0.0449
  763THF     C312259   1.602   1.015   2.975 -0.2996  0.1169 -0.3135
  763THF     H412260   1.633   1.209   2.798  1.7991 -2.9383  0.4053
  763THF     H512261   1.673   1.329   2.928 -0.4895  0.0304 -0.6784
  763THF     H612262   1.608   0.975   2.874 -0.9776  0.0339 -0.3272
  763THF     H712263   1.618   0.933   3.045 -2.7983 -0.6092 -0.4982
  763THF     C812264   1.470   1.079   3.016 -0.7796 -0.0520  0.0682
  763THF     C912265   1.487   1.216   2.957  0.1462 -1.0530 -0.0878
  763THF    H1012266   1.451   1.084   3.123 -2.1198 -0.3313 -0.1387
  763THF    H1112267   1.394   1.010   2.980 -1.0777 -0.8941  2.2164
  763THF    H1212268   1.422   1.220   2.870  0.1420 -1.4775 -0.1067
  763THF    H1312269   1.464   1.295   3.027 -1.3291 -0.5860 -1.0623
  764THF     O112270   2.227   3.220   4.280  0.3273 -0.5975 -0.0007
  764THF     C212271   2.136   3.228   4.389  0.5710 -0.2382 -0.4024
  764THF     C312272   2.250   3.349   4.226  0.7303 -0.1649 -0.7318
  764THF     H412273   2.136   3.137   4.449  0.3777  0.1484  0.2035
  764THF     H512274   2.034   3.248   4.356  0.3994 -0.2827  0.0837
  764THF     H612275   2.342   3.362   4.170  0.4479  0.7704 -0.9987
  764THF     H712276   2.166   3.386   4.166  0.2298  0.3561  0.2706
  764THF     C812277   2.255   3.431   4.354 -0.5145  0.1491  0.4352
  764THF     C912278   2.198   3.347   4.465  0.7715  0.2141  0.2571
  764THF    H1012279   2.203   3.526   4.347 -1.7240 -0.5391 -0.2358
  764THF    H1112280   2.353   3.462   4.389  0.1945 -2.4134  0.9320
  764THF    H1212281   2.269   3.324   4.545 -0.2321  0.4685  1.2482
  764THF    H1312282   2.117   3.398   4.517  0.6565  0.8046 -0.4967
  765THF     O112283   3.043   0.001   2.442 -0.2375  0.5877  0.6325
  765THF     C212284   3.086  -0.006   2.573  0.0259 -0.4316 -0.1142
  765THF     C312285   3.165  -0.019   2.359  0.0031 -0.7741 -0.8174
  765THF     H412286   3.118  -0.108   2.595  0.6350 -0.2474 -0.1455
  765THF     H512287   3.009   0.034   2.640  0.2045 -0.4369  0.0966
  765THF     H612288   3.197  -0.124   2.362 -0.1092 -0.7864  1.1154
  765THF     H712289   3.163   0.022   2.258 -2.1680  0.4367 -0.3313
  765THF     C812290   3.271   0.055   2.437 -0.2141 -0.2571 -0.0275
  765THF     C912291   3.211   0.081   2.573  0.6925 -0.4149 -0.5420
  765THF    H1012292   3.289   0.151   2.390 -1.5763  1.2776  2.3975
  765THF    H1112293   3.354  -0.015   2.444 -1.9960 -2.3728  1.1208
  765THF    H1212294   3.288   0.039   2.637 -1.5905 -0.2692  2.5239
  765THF    H1312295   3.205   0.189   2.586  0.1084 -0.6207  1.0044
  766THF     O112296   4.052   4.077   2.718  0.9003  0.7471  0.4396
  766THF     C212297   4.053   3.948   2.670 -0.4673 -0.1634  0.1330
  766THF     C312298   4.012   4.076   2.855  0.7344  0.5253 -0.0053
  766THF     H412299   4.142   3.897   2.708  0.0704  2.5434  2.9146
  766THF     H512300   4.048   3.942   2.561 -3.6682 -1.5742  0.2477
  766THF     H612301   4.098   4.096   2.919  1.6074  1.6576 -1.4435
  766THF     H712302   3.926   4.142   2.869 -0.4419 -0.6380 -1.3821
  766THF     C812303   3.967   3.935   2.895  0.3510 -0.0893  0.5401
  766THF     C912304   3.939   3.886   2.751  0.0822  0.0377 -0.9949
  766THF    H1012305   3.878   3.922   2.956  1.1698 -1.8670  1.4317
  766THF    H1112306   4.052   3.882   2.940  0.7428  0.5471  0.5608
  766THF    H1212307   3.947   3.778   2.743  0.0432  0.1143 -2.4897
  766THF    H1312308   3.838   3.925   2.736  0.1811  0.1828 -1.2965
  767THF     O112309   2.808   0.390   4.349 -0.1271  0.1552  0.7341
  767THF     C212310   2.668   0.421   4.355  0.4392 -0.5900  0.0318
  767THF     C312311   2.880   0.502   4.401 -0.0600  0.3257  0.2008
  767THF     H412312   2.610   0.329   4.353 -0.8917  0.0908  2.7334
  767THF     H512313   2.642   0.496   4.280  0.3507  2.6567  3.0583
  767THF     H612314   2.987   0.492   4.419  0.3441 -0.5740 -2.3214
  767THF     H712315   2.877   0.590   4.337  0.0935 -0.4485 -0.8922
  767THF     C812316   2.793   0.539   4.520 -1.0808  0.7372 -0.3672
  767THF     C912317   2.660   0.474   4.496  0.5637  0.5541  0.3947
  767THF    H1012318   2.796   0.648   4.520 -2.2066  0.7828 -0.9250
  767THF    H1112319   2.849   0.501   4.605 -1.1363  1.0392 -0.1945
  767THF    H1212320   2.640   0.400   4.573 -0.6264 -0.5777 -0.9438
  767THF    H1312321   2.592   0.559   4.499 -0.0205  0.0944  0.3324
  768THF     O112322   2.533   2.706   4.405 -0.0918  0.1887  0.5454
  768THF     C212323   2.476   2.579   4.435 -0.4909  0.4645 -0.2492
  768THF     C312324   2.670   2.703   4.441  0.5344  0.6035 -0.0516
  768THF     H412325   2.498   2.497   4.367 -0.2202 -0.4871  0.9489
  768THF     H512326   2.367   2.587   4.432 -0.4934  0.2437 -0.9783
  768THF     H612327   2.725   2.636   4.374  0.9955  1.3566 -0.4512
  768THF     H712328   2.713   2.803   4.446  0.4930  0.6365 -0.3001
  768THF     C812329   2.663   2.637   4.579 -0.2381 -0.3886  0.4733
  768THF     C912330   2.540   2.545   4.571 -0.2038 -0.1869 -0.5448
  768THF    H1012331   2.642   2.716   4.652 -0.7911  0.2916 -0.4012
  768THF    H1112332   2.752   2.589   4.619 -0.2315  0.4654  1.5211
  768THF    H1212333   2.561   2.438   4.576 -0.3410 -0.1792  0.2267
  768THF    H1312334   2.474   2.572   4.653  0.3612  0.3384 -0.2594
  769THF     O112335   0.472   4.801   3.832  0.4265 -0.9296  0.7517
  769THF     C212336   0.380   4.913   3.844  0.1410  0.8470 -0.3732
  769THF     C312337   0.385   4.680   3.847  0.5351 -0.2888 -0.3814
  769THF     H412338   0.336   4.931   3.746  0.0196  0.8950 -0.3106
  769THF     H512339   0.433   4.999   3.884  0.7392 -0.1878  1.0959
  769THF     H612340   0.328   4.660   3.756 -2.6753  1.7499  0.9894
  769THF     H712341   0.447   4.594   3.873  1.5762  0.2784 -0.9222
  769THF     C812342   0.302   4.721   3.963 -0.0700  0.5010  0.0407
  769THF     C912343   0.279   4.870   3.944  0.1164  0.1662  0.0209
  769THF    H1012344   0.357   4.709   4.056  1.5790  1.0091 -0.8370
  769THF    H1112345   0.211   4.661   3.955  0.3922 -0.1559 -0.3377
  769THF    H1212346   0.179   4.893   3.907  1.3659  2.3181 -2.3424
  769THF    H1312347   0.305   4.930   4.031  1.0938 -2.1848  1.4591
  770THF     O112348   1.362   5.058   0.245 -0.0698  0.4563  0.3595
  770THF     C212349   1.390   5.035   0.107 -0.0308  0.0487 -0.4614
  770THF     C312350   1.243   5.127   0.258 -0.0263 -0.0473  0.6462
  770THF     H412351   1.448   4.944   0.098  0.9887  0.7994 -2.0417
  770THF     H512352   1.453   5.113   0.064  0.8533 -0.0372  0.6333
  770THF     H612353   1.214   5.115   0.362  1.0807 -1.2134  0.8460
  770THF     H712354   1.256   5.231   0.229 -0.6032 -0.1556 -0.0411
  770THF     C812355   1.164   5.046   0.156 -0.5035  0.5468  1.0696
  770THF     C912356   1.257   5.026   0.037 -0.2204  0.3127 -0.2215
  770THF    H1012357   1.063   5.077   0.131 -0.9466 -0.5811  1.3961
  770THF    H1112358   1.133   4.947   0.188 -0.6158 -0.4205 -1.8035
  770THF    H1212359   1.242   4.930  -0.011  1.7665  0.3692 -1.0482
  770THF    H1312360   1.254   5.112  -0.030  1.6024 -0.1305 -0.9148
  771THF     O112361   4.916   2.804   0.820  0.5311  0.4694  0.0109
  771THF     C212362   4.997   2.874   0.723 -0.0000 -0.0041 -0.3646
  771THF     C312363   4.781   2.819   0.774  0.6010  0.2816  0.6758
  771THF     H412364   5.000   2.831   0.622  1.8631 -0.6095 -0.0954
  771THF     H512365   5.096   2.891   0.764 -0.5834  2.3305  0.1841
  771THF     H612366   4.758   2.746   0.696 -1.4418  1.8546 -0.2940
  771THF     H712367   4.709   2.810   0.855 -0.0923  0.1515  0.0680
  771THF     C812368   4.769   2.957   0.722  0.0482 -0.8548  0.3401
  771THF     C912369   4.912   3.007   0.717 -0.0398 -0.0932  0.5230
  771THF    H1012370   4.700   3.018   0.781  2.4765  0.6768  1.7833
  771THF    H1112371   4.721   2.946   0.625  0.6215  0.3799 -0.1038
  771THF    H1212372   4.929   3.054   0.620 -1.2399 -1.5777 -0.4642
  771THF    H1312373   4.930   3.077   0.799 -0.8880  1.1347 -0.2989
  772THF     O112374   2.392   1.558   2.508 -0.3057  0.3807  0.2617
  772THF     C212375   2.435   1.676   2.435  0.0163  0.5277  0.5944
  772THF     C312376   2.487   1.522   2.609  0.6761  0.2560 -0.1734
  772THF     H412377   2.360   1.754   2.442  0.3316  0.8188  0.7480
  772THF     H512378   2.453   1.663   2.328 -1.6052  4.4675 -0.3461
  772THF     H612379   2.433   1.474   2.690 -0.2070 -0.1202 -0.9586
  772THF     H712380   2.545   1.445   2.557 -1.2375 -0.4473 -1.3775
  772THF     C812381   2.562   1.651   2.637 -0.0131  0.4613 -0.3457
  772THF     C912382   2.561   1.714   2.500 -0.0938 -0.6955 -0.1737
  772THF    H1012383   2.653   1.670   2.694 -0.5836  1.3591  0.3001
  772THF    H1112384   2.483   1.695   2.698  0.4166  1.8098 -0.7337
  772THF    H1212385   2.547   1.822   2.510 -2.3737 -1.0771  1.7412
  772THF    H1312386   2.650   1.686   2.443  0.3168 -1.4065  0.7916
  773THF     O112387   0.795   5.425   1.615  0.3410 -0.1859 -0.0139
  773THF     C212388   0.897   5.374   1.684  0.4263 -1.0117 -0.8648
  773THF     C312389   0.678   5.343   1.629 -0.3548  0.0613  0.2411
  773THF     H412390   0.894   5.414   1.786  1.9826 -1.5964 -0.5546
  773THF     H512391   0.993   5.408   1.645  0.8177 -0.7448  0.2622
  773THF     H612392   0.611   5.387   1.703  1.6481  2.8534  0.5476
  773THF     H712393   0.614   5.325   1.543 -0.7446  2.2035  0.0285
  773THF     C812394   0.733   5.206   1.674  0.5968  0.0074 -0.2648
  773THF     C912395   0.884   5.222   1.683 -0.2367  0.6517 -0.2195
  773THF    H1012396   0.708   5.132   1.598 -2.8576  0.5446  0.1938
  773THF    H1112397   0.689   5.167   1.765  1.1027  1.5526  0.6866
  773THF    H1212398   0.917   5.169   1.773 -4.2706 -2.9404 -0.5220
  773THF    H1312399   0.933   5.188   1.592  0.2133  1.8901 -0.4573
  774THF     O112400   2.611   4.501   2.771  0.3063  0.0241  0.3574
  774THF     C212401   2.512   4.443   2.858 -0.5975 -0.0008 -0.2589
  774THF     C312402   2.701   4.574   2.853 -0.2706 -0.4583  0.7055
  774THF     H412403   2.478   4.349   2.815 -0.8242  1.1008 -2.6574
  774THF     H512404   2.429   4.512   2.875 -1.1370  0.0317 -2.7131
  774THF     H612405   2.792   4.607   2.803 -0.5558 -0.8009 -0.0553
  774THF     H712406   2.667   4.667   2.898  0.8150 -0.2752  1.1684
  774THF     C812407   2.735   4.476   2.961  0.0324  0.4293  0.8861
  774THF     C912408   2.601   4.413   2.978 -0.4439 -0.1020 -0.3534
  774THF    H1012409   2.776   4.529   3.046  0.0144 -1.3982  2.1035
  774THF    H1112410   2.804   4.395   2.936  1.0752  0.9966  1.8413
  774THF    H1212411   2.607   4.304   2.988  0.3924 -0.1721 -1.4818
  774THF    H1312412   2.555   4.451   3.070  1.3022  0.3838  0.3577
  775THF     O112413   4.387   4.142   2.934  0.1606 -0.2762 -0.6254
  775THF     C212414   4.367   4.217   2.815 -0.2930 -0.0112  0.3809
  775THF     C312415   4.387   4.006   2.888  0.0486 -0.7393 -0.0487
  775THF     H412416   4.386   4.323   2.831  1.0226 -0.0515 -0.7347
  775THF     H512417   4.263   4.199   2.790 -0.1914 -0.9594  0.5902
  775THF     H612418   4.427   3.945   2.969 -1.1791 -0.6892  0.6186
  775THF     H712419   4.288   3.968   2.868  0.1425 -0.2288 -1.6248
  775THF     C812420   4.485   4.016   2.770 -0.0342 -0.9373  0.5109
  775THF     C912421   4.457   4.160   2.714  0.0333  0.2127 -0.5197
  775THF    H1012422   4.480   3.937   2.696 -0.1105  0.6029 -1.2126
  775THF    H1112423   4.587   4.027   2.807  0.5587 -1.2931 -0.9544
  775THF    H1212424   4.550   4.216   2.725  1.5968 -1.9952 -1.6623
  775THF    H1312425   4.418   4.176   2.613  0.1199 -1.0158 -0.7649
  776THF     O112426   2.645   4.000   3.869  0.3551  0.3557  0.0737
  776THF     C212427   2.598   3.916   3.760 -0.3042 -0.4660 -0.6174
  776THF     C312428   2.768   4.050   3.826  0.7912 -1.2327 -0.5509
  776THF     H412429   2.540   3.986   3.700 -1.9978 -2.6778 -1.7070
  776THF     H512430   2.533   3.832   3.786  1.1096 -1.9377 -1.6514
  776THF     H612431   2.749   4.138   3.765  1.4460 -0.7570 -0.0727
  776THF     H712432   2.838   4.082   3.904  0.3119 -1.9403  0.1862
  776THF     C812433   2.842   3.948   3.736  0.3703  0.4253 -0.2902
  776THF     C912434   2.721   3.863   3.693 -0.0327  0.4601 -0.4640
  776THF    H1012435   2.921   3.899   3.793  1.7903  2.1688 -0.6825
  776THF    H1112436   2.882   4.011   3.657 -0.2211 -1.8031 -2.5032
  776THF    H1212437   2.718   3.879   3.585 -0.2249  3.6937 -0.0636
  776THF    H1312438   2.742   3.759   3.721 -0.1249  1.4188  3.8931
  777THF     O112439   2.039   0.073   1.049 -0.0735 -0.4998 -0.2319
  777THF     C212440   1.950   0.109   0.940  0.1308  0.0289  1.4066
  777THF     C312441   1.968  -0.020   1.128 -0.7300  0.6056  0.5421
  777THF     H412442   2.013   0.109   0.851  2.0811  3.9464  2.5745
  777THF     H512443   1.906   0.209   0.940 -2.9763 -1.2364  0.9057
  777THF     H612444   2.035  -0.088   1.181 -0.4969 -1.1284 -1.8250
  777THF     H712445   1.901   0.026   1.201 -1.7798  0.1233 -0.0921
  777THF     C812446   1.876  -0.103   1.036  0.3022  0.0504 -0.5717
  777THF     C912447   1.834   0.011   0.944  0.0114 -0.5436  0.8441
  777THF    H1012448   1.790  -0.142   1.092  1.7583  1.7416  3.1992
  777THF    H1112449   1.929  -0.175   0.974 -0.1232 -0.3106 -0.5189
  777THF    H1212450   1.809  -0.033   0.847  3.0007  0.4867 -0.5098
  777THF    H1312451   1.745   0.057   0.988 -2.0865 -4.5367  1.2197
  778THF     O112452   1.876   2.929   0.157  0.3287  0.8180  0.2436
  778THF     C212453   1.847   3.035   0.072 -0.4543 -0.3047 -0.3115
  778THF     C312454   1.900   2.813   0.070 -0.1053 -0.0075 -0.5244
  778THF     H412455   1.853   3.126   0.132 -0.9511 -0.3278 -0.2226
  778THF     H512456   1.745   3.037   0.032 -0.5607 -1.0531 -0.0969
  778THF     H612457   1.983   2.763   0.120  0.4219  0.2907 -1.0886
  778THF     H712458   1.829   2.729   0.066  1.2470 -1.2811  0.8483
  778THF     C812459   1.950   2.870  -0.064 -0.5793  0.6015 -0.6577
  778THF     C912460   1.948   3.024  -0.041 -0.6275  0.9010 -0.2140
  778THF    H1012461   1.879   2.849  -0.144 -0.8446  1.7031 -0.7290
  778THF    H1112462   2.045   2.828  -0.096 -0.9530  0.4023 -1.5352
  778THF    H1212463   2.045   3.051   0.000 -0.3960 -0.3352  0.0792
  778THF    H1312464   1.942   3.088  -0.129  2.6476  1.2472 -0.3080
  779THF     O112465   3.384   4.863   1.744 -0.2917  0.0897 -0.9035
  779THF     C212466   3.280   4.893   1.844 -0.2420 -0.3869 -0.3084
  779THF     C312467   3.393   4.961   1.641 -0.6558  0.1722 -0.8565
  779THF     H412468   3.320   4.897   1.946  0.6231  1.2590 -0.6678
  779THF     H512469   3.199   4.822   1.833 -0.6120 -0.0546  0.2141
  779THF     H612470   3.489   4.969   1.589 -0.9156  2.1262 -1.1164
  779THF     H712471   3.331   4.927   1.558  1.6586 -0.4325 -2.4393
  779THF     C812472   3.362   5.078   1.730 -0.5214 -0.4027  0.3157
  779THF     C912473   3.238   5.037   1.810 -0.0233 -0.5227  0.3067
  779THF    H1012474   3.341   5.169   1.674 -0.4776 -0.9657 -0.6329
  779THF    H1112475   3.443   5.101   1.800  1.9155 -2.7945 -1.5167
  779THF    H1212476   3.215   5.098   1.896  0.9393 -0.0035  0.2063
  779THF    H1312477   3.163   5.040   1.731  0.2976  1.7595  0.0265
  780THF     O112478   2.893   2.716   3.983  0.0913 -0.7499  0.2252
  780THF     C212479   2.818   2.619   3.913 -0.3664 -0.5292  0.2051
  780THF     C312480   2.903   2.681   4.121 -0.4569  0.4315  0.5836
  780THF     H412481   2.842   2.603   3.807 -0.7980  1.2240 -0.1940
  780THF     H512482   2.709   2.629   3.914 -0.3794 -0.6463  1.7161
  780THF     H612483   2.988   2.732   4.166  0.2694  0.3679 -0.6556
  780THF     H712484   2.806   2.699   4.167 -2.0247  2.0880 -2.9469
  780THF     C812485   2.929   2.527   4.103 -0.8808  0.0898  0.1314
  780THF     C912486   2.841   2.490   3.991 -0.1406  0.5445  0.9022
  780THF    H1012487   2.905   2.478   4.198  0.9600 -2.0512 -0.3975
  780THF    H1112488   3.031   2.503   4.071  0.1947  1.8184  2.0498
  780THF    H1212489   2.881   2.417   3.920  0.0020  1.9095 -0.4592
  780THF    H1312490   2.750   2.442   4.028  0.6001 -1.8055 -0.0888
  781THF     O112491   4.144   4.825   5.016  0.4436 -0.0340  0.9096
  781THF     C212492   4.229   4.921   5.080  0.3778  0.3417  0.0494
  781THF     C312493   4.183   4.697   5.062 -0.8471 -0.6218 -0.9610
  781THF     H412494   4.201   5.023   5.053  3.2160  0.7210 -1.8606
  781THF     H512495   4.331   4.908   5.046  0.1345  0.0258 -0.5739
  781THF     H612496   4.108   4.620   5.046 -1.7224 -0.3572  1.5019
  781THF     H712497   4.270   4.668   5.003 -0.3204  0.9065 -0.9927
  781THF     C812498   4.234   4.712   5.205 -0.1376  0.0455  0.5094
  781THF     C912499   4.216   4.868   5.221  0.0025 -0.1830  0.1296
  781THF    H1012500   4.339   4.683   5.215 -0.3399 -0.9568 -0.1231
  781THF    H1112501   4.166   4.661   5.273 -3.2146  2.1252 -0.7712
  781THF    H1212502   4.114   4.887   5.253 -0.7575 -1.9333 -1.0605
  781THF    H1312503   4.291   4.914   5.285  0.1481 -2.1872  1.4813
  782THF     O112504   3.339   4.090   2.125  0.3716 -0.3899 -0.0423
  782THF     C212505   3.337   4.011   2.010  0.0623 -0.1859 -0.1588
  782THF     C312506   3.297   4.010   2.238 -0.4220 -0.1179  0.4727
  782THF     H412507   3.405   4.057   1.938 -0.5055  0.3119 -0.3929
  782THF     H512508   3.237   4.002   1.967 -0.2758 -1.9387  0.9350
  782THF     H612509   3.323   4.052   2.335 -0.8439 -0.0928  0.5773
  782THF     H712510   3.188   3.998   2.234 -0.4042 -0.4352  0.8819
  782THF     C812511   3.376   3.884   2.213  0.0594  0.3546 -0.4697
  782THF     C912512   3.379   3.874   2.062 -0.2583 -0.4175 -0.3733
  782THF    H1012513   3.341   3.796   2.268  1.1121  0.3656  0.2571
  782THF    H1112514   3.478   3.900   2.248 -0.1332  0.0480  0.2669
  782THF    H1212515   3.477   3.837   2.030 -0.3161 -0.4304 -0.5399
  782THF    H1312516   3.309   3.797   2.029 -0.3838 -1.2041  1.6208
  783THF     O112517   0.318   4.778   5.328  0.2330 -0.2428 -0.1627
  783THF     C212518   0.300   4.812   5.193  0.0686 -0.2384  0.0953
  783THF     C312519   0.446   4.799   5.369 -0.3244  0.4569  0.7206
  783THF     H412520   0.278   4.918   5.181  0.0934  0.1201  2.6260
  783THF     H512521   0.216   4.763   5.144 -1.1175  1.4894  0.3262
  783THF     H612522   0.467   4.898   5.409  1.4311  0.1995  0.5086
  783THF     H712523   0.483   4.727   5.443  2.4426 -0.3360 -1.2753
  783THF     C812524   0.530   4.765   5.250  0.1096  0.5505 -0.7763
  783THF     C912525   0.436   4.788   5.129 -0.0174 -0.6483 -0.8821
  783THF    H1012526   0.572   4.666   5.269  0.2989  0.9554  1.0987
  783THF    H1112527   0.615   4.833   5.245  1.3105 -0.7660  0.8144
  783THF    H1212528   0.467   4.872   5.067  0.3897  1.3482  1.8237
  783THF    H1312529   0.439   4.698   5.068 -0.1758 -0.1100 -1.7002
  784THF     O112530   4.580   1.333   2.528 -0.2330 -0.1237  0.0307
  784THF     C212531   4.615   1.470   2.536 -0.6806 -0.2010  0.2493
  784THF     C312532   4.434   1.334   2.532  0.8339 -0.1175 -0.3728
  784THF     H412533   4.615   1.514   2.437 -0.5646 -0.9962 -0.1147
  784THF     H512534   4.716   1.484   2.573 -0.0226  1.1959 -1.8968
  784THF     H612535   4.399   1.359   2.432 -0.1597  2.0161  0.4401
  784THF     H712536   4.390   1.238   2.558  1.2615 -0.2067  0.0368
  784THF     C812537   4.402   1.446   2.639 -0.9448  0.6464 -0.3034
  784THF     C912538   4.516   1.534   2.632 -0.1047 -0.2587 -0.5919
  784THF    H1012539   4.397   1.392   2.733  1.5636 -0.7957 -0.9361
  784THF    H1112540   4.303   1.484   2.612 -1.4397 -0.2371  0.2245
  784THF    H1212541   4.485   1.630   2.590  2.9171  0.8625 -0.5437
  784THF    H1312542   4.558   1.554   2.730 -0.2725 -1.4879 -0.2498
  785THF     O112543   0.913   0.893   3.867 -0.2803  0.0661  0.0022
  785THF     C212544   1.026   0.861   3.946  0.1089  0.0112  0.0577
  785THF     C312545   0.869   1.022   3.913  0.0328  0.0197 -0.3451
  785THF     H412546   1.093   0.782   3.912  1.5036  1.4467 -0.7025
  785THF     H512547   0.995   0.830   4.045 -0.3710 -2.0148 -0.6773
  785THF     H612548   0.807   1.073   3.839  0.6809 -0.0081 -0.9176
  785THF     H712549   0.812   1.012   4.006 -0.7119 -1.7372 -0.9507
  785THF     C812550   0.998   1.100   3.944 -0.0241 -0.0364  0.5535
  785THF     C912551   1.103   0.996   3.952  0.1026  1.0821  0.0393
  785THF    H1012552   0.985   1.153   4.038 -1.0151  1.8585 -0.5853
  785THF    H1112553   1.014   1.175   3.866 -0.2179  0.0396  0.5853
  785THF    H1212554   1.166   1.004   3.864  0.6292  1.3864  0.4433
  785THF    H1312555   1.166   1.007   4.040  0.9130  0.8829 -0.5058
  786THF     O112556   1.353   2.465   1.263 -0.1762 -0.1804  0.0339
  786THF     C212557   1.436   2.554   1.340 -0.3061 -0.1324 -0.1266
  786THF     C312558   1.402   2.444   1.134  0.4618  0.1426 -0.3080
  786THF     H412559   1.490   2.499   1.417  0.9605  0.3906 -0.6232
  786THF     H512560   1.369   2.625   1.388  2.6284  1.1031  2.4227
  786THF     H612561   1.380   2.340   1.109  1.2154 -0.0256 -0.2918
  786THF     H712562   1.365   2.525   1.071  0.2018  0.7154  0.5696
  786THF     C812563   1.553   2.484   1.141 -0.1600  0.0526 -0.3160
  786THF     C912564   1.541   2.602   1.233 -0.0512  0.1225 -0.3599
  786THF    H1012565   1.589   2.526   1.048  3.0362  1.4570  1.4179
  786THF    H1112566   1.622   2.405   1.170 -1.2352  0.0981  2.8047
  786THF    H1212567   1.638   2.630   1.274 -0.5313 -0.2927  1.1065
  786THF    H1312568   1.502   2.689   1.181  0.1446  2.0149  2.4534
  787THF     O112569   3.659   1.451   3.337 -0.5706  0.2572 -0.4545
  787THF     C212570   3.661   1.516   3.210  0.4937 -0.0336 -0.2933
  787THF     C312571   3.524   1.413   3.358 -0.3164 -0.4981 -1.1722
  787THF     H412572   3.767   1.523   3.184  0.4737 -2.0654 -1.0873
  787THF     H512573   3.614   1.614   3.207 -2.2514 -1.2846 -2.5382
  787THF     H612574   3.512   1.337   3.435  0.2149  0.9260  0.3943
  787THF     H712575   3.452   1.488   3.390 -1.8197 -1.6907 -1.6224
  787THF     C812576   3.482   1.357   3.219 -0.2920  0.0048  0.0235
  787THF     C912577   3.576   1.426   3.119  0.4164 -0.4263  0.2081
  787THF    H1012578   3.377   1.353   3.189 -0.0091  0.2471 -1.0601
  787THF    H1112579   3.506   1.251   3.216 -0.9851 -0.1666  0.2122
  787THF    H1212580   3.638   1.354   3.067 -1.5464 -1.3981 -0.8787
  787THF    H1312581   3.519   1.487   3.049 -1.3255 -2.7027 -0.4453
  788THF     O112582   0.770   1.575   4.735 -0.1929 -0.7512  0.6064
  788THF     C212583   0.775   1.544   4.592  0.0831  0.2740 -0.3132
  788THF     C312584   0.685   1.695   4.752 -0.2689  0.1744 -0.3498
  788THF     H412585   0.783   1.436   4.578  1.5242  0.2526  0.4047
  788THF     H512586   0.852   1.590   4.530  1.0049 -2.4581 -1.3748
  788THF     H612587   0.635   1.696   4.849  3.1818  0.0342  1.5693
  788THF     H712588   0.762   1.772   4.741  1.8425 -1.6655  0.8929
  788THF     C812589   0.580   1.680   4.650 -0.4230  0.6285 -0.0489
  788THF     C912590   0.642   1.587   4.540  0.2158  0.0490 -0.4062
  788THF    H1012591   0.556   1.776   4.604 -0.0248  0.7860  0.0674
  788THF    H1112592   0.486   1.636   4.686 -0.7523  0.7963 -0.6840
  788THF    H1212593   0.587   1.493   4.540  0.0542  0.1393 -0.9100
  788THF    H1312594   0.634   1.629   4.440 -1.9684 -0.7925 -0.6516
  789THF     O112595   3.635   2.993   2.719  0.1033 -0.7376  0.0244
  789THF     C212596   3.614   3.125   2.780  0.0624 -0.1456 -0.4269
  789THF     C312597   3.506   2.935   2.715  0.2042 -0.3330  0.1825
  789THF     H412598   3.604   3.212   2.716  4.5696 -0.8278 -2.4194
  789THF     H512599   3.707   3.142   2.836  0.0360  0.1014 -0.4566
  789THF     H612600   3.445   2.986   2.640 -0.8434 -1.2486  0.3824
  789THF     H712601   3.509   2.827   2.699  0.1210 -0.6081  1.8285
  789THF     C812602   3.442   2.976   2.841  0.1835  0.1093 -0.4744
  789THF     C912603   3.497   3.115   2.877  0.1556 -0.1895  0.2790
  789THF    H1012604   3.473   2.904   2.917  0.8706  1.1501  0.2519
  789THF    H1112605   3.335   2.969   2.822  0.5347 -0.1374 -2.6647
  789THF    H1212606   3.418   3.185   2.852 -2.8424 -4.2677 -3.0261
  789THF    H1312607   3.534   3.120   2.980 -2.9942 -3.5846  1.8194
  790THF     O112608   3.036   2.368   4.360  0.1675 -0.3798 -0.5012
  790THF     C212609   3.107   2.471   4.423 -0.7585 -0.2871 -0.4065
  790THF     C312610   3.102   2.242   4.380 -0.1601  0.6632 -0.1621
  790THF     H412611   3.059   2.565   4.448  1.9312  0.8823  0.8022
  790THF     H512612   3.205   2.482   4.376 -1.1297 -1.1367 -1.4148
  790THF     H612613   3.037   2.159   4.352  2.3774 -2.1526  1.6695
  790THF     H712614   3.194   2.237   4.321  1.1119 -0.8537  1.8179
  790THF     C812615   3.128   2.255   4.529  1.0072 -0.0814  0.0736
  790THF     C912616   3.137   2.404   4.555  0.1868  0.2313  0.5858
  790THF    H1012617   3.208   2.195   4.572 -0.3822 -2.0878  0.0079
  790THF    H1112618   3.041   2.208   4.574  1.0403 -0.5965 -0.3877
  790THF    H1212619   3.060   2.418   4.631 -0.9465  1.8050 -0.7813
  790THF    H1312620   3.234   2.442   4.589  1.3492 -0.8611 -1.3329
  791THF     O112621   0.981   4.262   1.704  0.1993 -0.0264  0.4371
  791THF     C212622   0.924   4.280   1.834 -0.1532 -0.1682  0.2271
  791THF     C312623   1.079   4.156   1.722  0.0956 -0.5223 -0.1158
  791THF     H412624   0.856   4.196   1.848  1.1123 -0.9100  2.3623
  791THF     H512625   0.872   4.376   1.831  0.5513  0.2502 -2.8329
  791THF     H612626   1.044   4.055   1.699  2.1206 -1.4340  0.5553
  791THF     H712627   1.161   4.176   1.652  0.3623  0.2461  0.4089
  791THF     C812628   1.139   4.174   1.863 -0.2453  1.0945 -0.1212
  791THF     C912629   1.033   4.269   1.931 -0.1938  0.1263  0.4970
  791THF    H1012630   1.237   4.218   1.877  0.6950 -1.1884  0.9487
  791THF    H1112631   1.152   4.077   1.910  0.6620  1.6123  0.7282
  791THF    H1212632   0.990   4.237   2.026 -2.2568 -2.2429 -1.1169
  791THF    H1312633   1.069   4.371   1.942 -1.7977  0.8814 -0.9353
  792THF     O112634   1.586   3.249   1.657  0.0620  0.3969  0.0021
  792THF     C212635   1.556   3.189   1.788 -0.4461 -0.5942  0.0010
  792THF     C312636   1.706   3.315   1.674 -0.6378 -0.0851 -0.0103
  792THF     H412637   1.508   3.095   1.761  0.6981 -1.0821 -0.4018
  792THF     H512638   1.481   3.249   1.840  0.6365  1.7738 -0.9970
  792THF     H612639   1.759   3.332   1.581  1.3202  0.4539  1.1590
  792THF     H712640   1.697   3.412   1.724 -0.4888  0.3046 -0.7314
  792THF     C812641   1.792   3.219   1.763  0.0397 -0.1987 -0.0248
  792THF     C912642   1.688   3.168   1.863 -0.2002 -0.0145  0.2811
  792THF    H1012643   1.884   3.259   1.806  0.7322  0.0269 -1.6276
  792THF    H1112644   1.827   3.128   1.714 -0.4441  0.4193 -1.5973
  792THF    H1212645   1.697   3.060   1.876  3.5975  0.0837 -0.4027
  792THF    H1312646   1.690   3.217   1.961 -0.7118  0.0248  0.2782
  793THF     O112647   2.514   0.964   4.194  0.4206 -0.7910 -0.1155
  793THF     C212648   2.547   0.842   4.133 -0.4244 -0.6593 -0.1053
  793THF     C312649   2.638   1.025   4.241 -0.6143 -0.0035  0.0845
  793THF     H412650   2.608   0.870   4.047 -0.4317 -0.3218 -0.0008
  793THF     H512651   2.469   0.770   4.108 -0.3266 -1.6287  2.1265
  793THF     H612652   2.699   1.055   4.155 -0.5315 -0.9300 -0.1966
  793THF     H712653   2.629   1.106   4.313 -2.2102  1.0112 -1.1807
  793THF     C812654   2.703   0.901   4.309  0.3203 -0.1331 -0.1211
  793THF     C912655   2.641   0.774   4.238 -0.4384 -0.1067 -0.0430
  793THF    H1012656   2.680   0.897   4.416  3.0612 -1.1744  0.5198
  793THF    H1112657   2.811   0.906   4.298  0.4911 -1.0743  0.8834
  793THF    H1212658   2.722   0.719   4.189 -1.8491 -2.1487 -0.1977
  793THF    H1312659   2.575   0.718   4.303 -2.5058  0.7174 -1.3210
  794THF     O112660   2.435   1.644   4.737 -0.2499 -0.6169  0.4104
  794THF     C212661   2.372   1.700   4.855 -0.5971  0.4703 -0.3784
  794THF     C312662   2.337   1.586   4.660 -0.1694 -0.4687 -0.1868
  794THF     H412663   2.414   1.799   4.872  1.0138 -0.1497 -0.5435
  794THF     H512664   2.393   1.637   4.942  0.1316 -0.2552 -1.0600
  794THF     H612665   2.356   1.587   4.552 -2.0253  1.3060 -0.5645
  794THF     H712666   2.325   1.486   4.699 -1.7483  0.2961  1.4224
  794THF     C812667   2.224   1.685   4.683 -0.2178 -0.0040 -0.3597
  794THF     C912668   2.222   1.698   4.833 -0.0179  0.3129  0.1476
  794THF    H1012669   2.130   1.660   4.633 -0.1230 -2.4748  0.5610
  794THF    H1112670   2.250   1.785   4.649 -0.6542 -0.3659 -1.8370
  794THF    H1212671   2.193   1.799   4.860 -1.0001  0.1098 -0.1114
  794THF    H1312672   2.168   1.622   4.890  1.9798 -1.2653  0.0468
  795THF     O112673   3.346   4.140   0.418 -0.0951 -0.1507  0.2372
  795THF     C212674   3.294   4.273   0.394 -0.4268 -1.4529  0.6967
  795THF     C312675   3.313   4.071   0.296 -0.5018  0.6286  0.4380
  795THF     H412676   3.347   4.346   0.456 -0.9741 -1.6656  1.4326
  795THF     H512677   3.189   4.273   0.421 -1.0721  1.2925 -1.3638
  795THF     H612678   3.377   3.983   0.294 -2.3959 -0.8005 -1.6389
  795THF     H712679   3.206   4.052   0.285 -0.4877  0.3257  0.7758
  795THF     C812680   3.345   4.174   0.177 -0.2798 -0.0587 -0.4204
  795THF     C912681   3.315   4.309   0.239  0.2083  0.3085  0.4766
  795THF    H1012682   3.286   4.156   0.087 -2.0632  2.1544  0.2150
  795THF    H1112683   3.449   4.166   0.145  0.0414  0.3437  0.4757
  795THF    H1212684   3.399   4.378   0.221 -1.1179  1.3937 -2.0818
  795THF    H1312685   3.225   4.352   0.196 -0.4748  1.0487  2.5169
  796THF     O112686   1.993   0.774   2.008  0.4430 -0.2824 -0.1282
  796THF     C212687   1.878   0.737   2.082 -0.3933  0.3237 -0.1403
  796THF     C312688   2.105   0.730   2.077 -0.2428 -0.6620  0.6382
  796THF     H412689   1.800   0.731   2.007 -1.1637 -2.1539  0.7484
  796THF     H512690   1.845   0.820   2.145  0.9516  0.1382  0.8678
  796THF     H612691   2.188   0.725   2.006 -0.9947 -0.4046 -0.2771
  796THF     H712692   2.137   0.798   2.156  0.9145 -0.9055  0.3984
  796THF     C812693   2.062   0.595   2.127  0.6333 -0.1050 -0.7386
  796THF     C912694   1.917   0.615   2.155 -0.9224  0.4193 -0.4609
  796THF    H1012695   2.125   0.572   2.213  0.0955  2.4245  0.4284
  796THF    H1112696   2.065   0.508   2.061 -2.0216  0.3775 -1.6057
  796THF    H1212697   1.858   0.526   2.134  0.1123 -0.9327  1.9580
  796THF    H1312698   1.907   0.628   2.263  1.2555  2.2750 -0.4003
  797THF     O112699   0.713   2.933   4.867  0.1300 -0.4684 -0.3925
  797THF     C212700   0.680   2.852   4.979 -0.7036  0.0238  0.0374
  797THF     C312701   0.716   2.861   4.748 -0.5937  0.3297 -0.5471
  797THF     H412702   0.646   2.907   5.066  1.4752 -0.2116  1.1162
  797THF     H512703   0.765   2.794   5.015 -0.6961  0.6819  1.1422
  797THF     H612704   0.662   2.919   4.673  0.0241 -0.9783 -2.0710
  797THF     H712705   0.817   2.833   4.717 -0.2543  1.2260 -0.2672
  797THF     C812706   0.637   2.740   4.784 -0.1563 -0.1471  0.0020
  797THF     C912707   0.581   2.762   4.921  0.3425  0.0777 -0.3474
  797THF    H1012708   0.717   2.665   4.786 -0.4506 -0.4730  1.8028
  797THF    H1112709   0.556   2.703   4.722 -1.0710  0.3757  0.8467
  797THF    H1212710   0.485   2.813   4.918  1.0714  2.1419  3.9737
  797THF    H1312711   0.574   2.666   4.972 -1.8528  0.4466  0.1242
  798THF     O112712   5.164   2.725   1.896  0.0177  0.2818  0.2718
  798THF     C212713   5.293   2.677   1.868  0.0898 -0.8219 -0.5648
  798THF     C312714   5.157   2.863   1.887 -0.3098  0.2954 -0.4727
  798THF     H412715   5.290   2.647   1.763  0.7303  0.6424 -1.0295
  798THF     H512716   5.325   2.585   1.918 -2.1257 -1.7112 -0.6867
  798THF     H612717   5.158   2.899   1.784  1.9657  1.6408 -0.0493
  798THF     H712718   5.076   2.914   1.939  0.4175 -0.8509  1.9242
  798THF     C812719   5.284   2.896   1.950 -0.0525  0.4277 -0.0667
  798THF     C912720   5.384   2.789   1.909  0.6749 -0.1052  0.0753
  798THF    H1012721   5.268   2.890   2.058 -1.2261 -0.6012 -0.2711
  798THF    H1112722   5.328   2.991   1.920 -0.9577  0.3151 -1.8562
  798THF    H1212723   5.444   2.806   1.820  1.7370 -0.2562  0.7535
  798THF    H1312724   5.449   2.772   1.994  1.2930 -1.8676 -0.6909
  799THF     O112725   5.096   0.695   0.300 -0.5641  0.3980  0.5596
  799THF     C212726   4.996   0.788   0.244  0.1152  0.3834  0.0064
  799THF     C312727   5.176   0.649   0.189  0.0206  0.1558 -0.2396
  799THF     H412728   5.022   0.891   0.269 -0.6121  0.1026  2.1297
  799THF     H512729   4.908   0.753   0.298  1.5829 -1.1998  1.5262
  799THF     H612730   5.240   0.734   0.167 -1.5635  1.4370 -0.0891
  799THF     H712731   5.236   0.564   0.221  0.1367  1.2182  2.6870
  799THF     C812732   5.079   0.631   0.069 -0.6296  0.1973 -0.0477
  799THF     C912733   4.983   0.744   0.094  0.3439  0.0280 -0.0094
  799THF    H1012734   5.017   0.542   0.072  1.7689 -1.5438  2.2698
  799THF    H1112735   5.125   0.633  -0.030  0.7536 -0.9110  0.5442
  799THF    H1212736   4.994   0.828   0.027 -1.1634  1.2550  1.2063
  799THF    H1312737   4.880   0.713   0.073  0.1056  0.6494  0.2119
  800THF     O112738   0.211   0.933   3.829  0.2497  0.3552  0.3693
  800THF     C212739   0.231   0.807   3.763 -0.0526  0.2113  0.5712
  800THF     C312740   0.331   1.003   3.824 -0.1094 -0.8815  0.3125
  800THF     H412741   0.168   0.807   3.674  1.1706  0.8487 -0.3163
  800THF     H512742   0.180   0.745   3.838  1.0501  1.3209  2.3173
  800THF     H612743   0.338   1.057   3.730 -0.0936 -1.7882 -0.2196
  800THF     H712744   0.346   1.077   3.903  0.8937 -1.1566  0.3898
  800THF     C812745   0.433   0.898   3.830 -0.8661  0.2569 -0.0061
  800THF     C912746   0.381   0.780   3.751 -0.7472  0.2570 -0.0519
  800THF    H1012747   0.455   0.863   3.931  2.2788 -1.7625 -1.2388
  800THF    H1112748   0.524   0.936   3.784 -1.7583 -0.3048 -2.3863
  800THF    H1212749   0.412   0.792   3.647 -0.1801  1.2148  0.2142
  800THF    H1312750   0.415   0.685   3.791 -0.8201  0.1770 -0.1805
  801THF     O112751   0.037   2.953   3.451  0.1432  0.1469  0.2602
  801THF     C212752  -0.024   3.062   3.526  0.0134 -0.8454  1.0074
  801THF     C312753   0.000   2.837   3.522 -0.3576  0.1941 -0.0480
  801THF     H412754  -0.129   3.068   3.499  0.2742  1.8214  0.3316
  801THF     H512755   0.020   3.159   3.500  0.0208 -1.0100  0.3731
  801THF     H612756  -0.107   2.825   3.505 -0.3006 -2.3840  0.9629
  801THF     H712757   0.054   2.749   3.489 -1.4309  0.3191 -2.2663
  801THF     C812758   0.026   2.872   3.670  0.1479  0.0524 -0.4804
  801THF     C912759  -0.004   3.022   3.669 -0.5681  0.0581 -0.2128
  801THF    H1012760   0.131   2.860   3.695  0.3366  0.9680 -0.7981
  801THF    H1112761  -0.025   2.822   3.752  1.1466  2.0024  1.4357
  801THF    H1212762  -0.097   3.051   3.718  0.1308  3.2643 -0.5691
  801THF    H1312763   0.075   3.070   3.727 -0.2003  0.4902 -1.0549
  802THF     O112764   1.120   1.213   1.580  0.3999 -0.4587  0.6670
  802THF     C212765   1.096   1.184   1.719  0.6682 -0.8296  0.2820
  802THF     C312766   1.000   1.193   1.503 -0.3238  1.0713 -0.4055
  802THF     H412767   1.105   1.280   1.769  1.8974  0.3778 -2.1054
  802THF     H512768   1.171   1.114   1.757  1.0531 -0.0420  1.0288
  802THF     H612769   0.957   1.289   1.472  0.2902  1.5370  0.1662
  802THF     H712770   1.027   1.140   1.411 -2.4860 -1.3143  0.2195
  802THF     C812771   0.895   1.116   1.590  0.1983 -0.5035  0.1749
  802THF     C912772   0.949   1.139   1.728 -0.0020 -0.1560  0.0174
  802THF    H1012773   0.898   1.008   1.575  2.1073 -0.4962  0.2219
  802THF    H1112774   0.793   1.152   1.582  1.2102  2.4634 -0.5417
  802THF    H1212775   0.883   1.204   1.785  0.0288 -0.7845  0.7912
  802THF    H1312776   0.941   1.051   1.792  2.7309  0.1931  0.9580
  803THF     O112777   2.972   4.572   1.543  0.0069  0.6397 -0.2696
  803THF     C212778   2.943   4.433   1.549  0.5102 -0.8475 -0.0367
  803THF     C312779   2.868   4.634   1.601 -0.2967 -0.1611  0.2331
  803THF     H412780   2.960   4.398   1.651 -0.9205  0.4062  0.6750
  803THF     H512781   3.004   4.383   1.473  0.6744  0.1978 -0.6080
  803THF     H612782   2.872   4.622   1.709 -0.0343 -2.2763  0.0247
  803THF     H712783   2.860   4.740   1.575 -2.6830 -0.0725  1.0247
  803THF     C812784   2.743   4.570   1.534 -0.5930  0.2769  0.1932
  803THF     C912785   2.792   4.434   1.512  0.4040 -0.3042  0.2691
  803THF    H1012786   2.734   4.620   1.437  1.1739  0.5464  0.1369
  803THF    H1112787   2.649   4.568   1.588 -0.6666 -1.5768  0.0546
  803THF    H1212788   2.752   4.363   1.584 -0.3806 -0.6135 -0.4559
  803THF    H1312789   2.766   4.399   1.413  0.7523 -1.2154  0.4821
  804THF     O112790   5.292   4.263   3.929  0.3227  1.0048 -0.4030
  804THF     C212791   5.340   4.131   3.924  0.1091 -0.5080 -0.5969
  804THF     C312792   5.173   4.265   4.006  0.2890  0.5702  0.1766
  804THF     H412793   5.411   4.113   4.005 -3.0278  1.6536  2.9190
  804THF     H512794   5.385   4.101   3.829  0.8418  1.0146 -0.7543
  804THF     H612795   5.213   4.278   4.107  0.8938 -0.4833  0.0751
  804THF     H712796   5.106   4.345   3.973 -1.8300 -0.6228  1.3622
  804THF     C812797   5.107   4.134   3.981  0.5258  0.0509 -0.3335
  804THF     C912798   5.221   4.035   3.953  0.2378 -0.1139  0.3371
  804THF    H1012799   5.050   4.149   3.890 -0.1849 -0.8716 -0.0584
  804THF    H1112800   5.038   4.100   4.058  0.4662  1.0450  0.0641
  804THF    H1212801   5.247   3.955   4.022  1.0782 -0.5346 -0.4385
  804THF    H1312802   5.196   3.988   3.857 -1.1241  0.5565  0.3375
  805THF     O112803   3.107   4.554   2.905  0.4841  0.6479  0.2219
  805THF     C212804   3.092   4.562   2.762  0.1905 -0.3897 -0.0006
  805THF     C312805   3.232   4.505   2.943  0.1415  0.2738  0.5362
  805THF     H412806   3.090   4.666   2.729 -1.5456 -1.0879 -2.3253
  805THF     H512807   3.002   4.528   2.711  1.1617 -0.7679 -1.5096
  805THF     H612808   3.280   4.587   2.998  0.7945 -1.7039  3.1045
  805THF     H712809   3.240   4.416   3.006  0.6115  0.6146  0.9718
  805THF     C812810   3.314   4.493   2.816  0.1328 -0.5398  0.3009
  805THF     C912811   3.212   4.484   2.704  0.0028  0.0122  0.0246
  805THF    H1012812   3.378   4.405   2.822 -1.1554 -1.6319 -1.2456
  805THF    H1112813   3.385   4.569   2.783  0.6951 -0.5544  1.4202
  805THF    H1212814   3.249   4.521   2.608  1.1745 -1.8758 -0.3163
  805THF    H1312815   3.193   4.378   2.683  0.3770  0.0393 -0.4842
  806THF     O112816   3.864   1.868   5.489 -0.1649 -0.2898  0.5009
  806THF     C212817   3.939   1.992   5.468  1.1563 -0.5211  0.1570
  806THF     C312818   3.843   1.813   5.361  0.2593  1.2287 -0.4574
  806THF     H412819   4.045   1.969   5.477  1.4761  0.7300 -0.2127
  806THF     H512820   3.921   2.072   5.541  2.1258 -0.8291  0.7532
  806THF     H612821   3.873   1.709   5.343  0.4358  0.9905  1.0517
  806THF     H712822   3.740   1.825   5.327 -0.2578  0.2869  0.6862
  806THF     C812823   3.918   1.898   5.256 -0.4942  0.3408  0.5509
  806THF     C912824   3.913   2.031   5.327  1.0752  0.2039  0.4265
  806THF    H1012825   3.871   1.905   5.158  0.4407 -1.7457 -0.1047
  806THF    H1112826   4.014   1.852   5.235 -1.1533 -1.0051  0.3275
  806THF    H1212827   3.976   2.111   5.290 -0.3183  1.7895  1.3621
  806THF    H1312828   3.810   2.065   5.324  0.8895 -0.3853 -0.2822
  807THF     O112829   3.362   4.119   3.955  0.0532 -0.0332  0.6592
  807THF     C212830   3.428   4.133   3.829 -0.0045 -0.1323 -0.1973
  807THF     C312831   3.227   4.109   3.934  0.1071  0.5054  0.4030
  807THF     H412832   3.485   4.040   3.833 -1.8099 -1.2654  0.3229
  807THF     H512833   3.485   4.225   3.818 -2.7980  1.8108  0.7188
  807THF     H612834   3.176   4.048   4.007 -0.3031  0.1657 -0.1611
  807THF     H712835   3.188   4.211   3.927 -1.8174 -0.2579 -0.5123
  807THF     C812836   3.211   4.043   3.799 -0.0054  0.0486 -0.1660
  807THF     C912837   3.320   4.123   3.727  0.3176  0.1893 -0.4101
  807THF    H1012838   3.115   4.058   3.750 -0.1129 -0.5505 -0.1462
  807THF    H1112839   3.238   3.938   3.792  0.6426  0.2784 -1.4512
  807THF    H1212840   3.357   4.061   3.645 -0.6734  0.4574 -1.0748
  807THF    H1312841   3.287   4.223   3.699 -0.6514 -0.2317 -0.8408
  808THF     O112842   4.081   2.772   1.591 -0.2936 -0.3838  0.2194
  808THF     C212843   4.022   2.744   1.721 -0.3288 -0.2684 -0.4581
  808THF     C312844   4.145   2.899   1.604  0.0093  0.0820  0.3458
  808THF     H412845   3.986   2.642   1.725  0.7572 -0.8601 -3.5222
  808THF     H512846   3.935   2.809   1.731 -1.3476 -1.1835 -2.7189
  808THF     H612847   4.218   2.908   1.524  0.3399  0.9777  0.7399
  808THF     H712848   4.083   2.988   1.592 -0.0873  0.1216  1.0737
  808THF     C812849   4.197   2.902   1.741 -0.4753 -0.6883  0.5679
  808THF     C912850   4.135   2.779   1.811 -0.3804  0.3105 -0.3535
  808THF    H1012851   4.181   3.002   1.782  1.4471  0.0094 -0.2626
  808THF    H1112852   4.305   2.889   1.743 -0.4455 -0.7414 -0.8058
  808THF    H1212853   4.189   2.684   1.815  0.5239  0.8342  0.2587
  808THF    H1312854   4.088   2.796   1.908  1.0242 -0.1746  0.4416
  809THF     O112855   4.775   1.259   1.567 -0.4603 -0.5009  0.0532
  809THF     C212856   4.831   1.301   1.444  0.2218 -0.2736  0.0564
  809THF     C312857   4.871   1.309   1.663  0.4876  0.6069 -0.1632
  809THF     H412858   4.758   1.307   1.363  0.3539 -1.9046 -0.2169
  809THF     H512859   4.896   1.222   1.406 -0.6479 -0.5864 -0.8149
  809THF     H612860   4.832   1.304   1.764  1.8720 -1.9880  0.3458
  809THF     H712861   4.959   1.243   1.663  0.8772  1.1073  0.7701
  809THF     C812862   4.905   1.446   1.622  0.4105  0.2523  0.0465
  809THF     C912863   4.903   1.430   1.476 -1.1106  0.0298  0.1272
  809THF    H1012864   4.992   1.478   1.679 -1.1727 -1.1419  3.4705
  809THF    H1112865   4.819   1.507   1.650  1.2138  0.1910  2.8627
  809THF    H1212866   4.847   1.515   1.436 -0.3551  1.2721  1.6265
  809THF    H1312867   5.006   1.427   1.441 -1.1468  1.6169 -0.1950
  810THF     O112868   3.770   1.324   2.033 -0.0373 -1.4027 -0.0512
  810THF     C212869   3.789   1.423   1.929 -0.5134  0.0183 -0.6152
  810THF     C312870   3.648   1.360   2.103  0.1989 -0.9146 -0.0626
  810THF     H412871   3.739   1.384   1.840 -0.4095 -2.3324  0.2681
  810THF     H512872   3.898   1.424   1.917 -0.1887 -1.4640  1.6261
  810THF     H612873   3.564   1.315   2.051 -0.1970 -0.8840  0.5535
  810THF     H712874   3.653   1.333   2.208 -0.7797 -0.3266  0.1524
  810THF     C812875   3.636   1.508   2.091 -0.6431 -0.2729  0.4300
  810THF     C912876   3.736   1.554   1.980 -0.4116  0.3849  0.4554
  810THF    H1012877   3.668   1.555   2.185  1.3346 -2.6984  1.0860
  810THF    H1112878   3.531   1.528   2.069 -0.4737  0.1186 -0.0550
  810THF    H1212879   3.678   1.605   1.902  1.0118  1.0126 -0.2283
  810THF    H1312880   3.817   1.620   2.010  0.4574 -0.3860 -0.1309
  811THF     O112881   1.503   5.263   3.264 -0.0175 -0.0529  0.1384
  811THF     C212882   1.607   5.315   3.182  0.2145  0.1156 -0.2716
  811THF     C312883   1.445   5.362   3.347  0.4101 -0.1239 -0.2612
  811THF     H412884   1.584   5.292   3.078 -0.3096  0.6966 -0.2879
  811THF     H512885   1.698   5.259   3.206  1.0237  0.2740 -2.7596
  811THF     H612886   1.337   5.351   3.362  0.4473  1.9431  2.2272
  811THF     H712887   1.497   5.360   3.443  1.1020 -1.2650 -0.6447
  811THF     C812888   1.476   5.489   3.266 -0.1875  0.3458 -0.1536
  811THF     C912889   1.628   5.463   3.220  0.6772 -0.4461  0.0741
  811THF    H1012890   1.467   5.585   3.315  0.2473 -0.6514  2.0005
  811THF    H1112891   1.415   5.484   3.176  1.1400  2.0905 -1.2012
  811THF    H1212892   1.651   5.534   3.141  0.5528  0.7605  1.1027
  811THF    H1312893   1.684   5.476   3.312 -0.3650 -3.4750  1.2647
  812THF     O112894   1.463   1.583   2.642 -0.2012  0.5721  0.1674
  812THF     C212895   1.484   1.551   2.776  0.0020  0.7421  0.2508
  812THF     C312896   1.485   1.729   2.637 -0.1001 -0.0076 -0.3763
  812THF     H412897   1.587   1.565   2.811  0.8257 -2.3511 -0.6187
  812THF     H512898   1.469   1.445   2.796  2.3456  0.1856 -0.5731
  812THF     H612899   1.590   1.756   2.640  0.2250 -1.1769 -0.6330
  812THF     H712900   1.435   1.785   2.559  2.6101  2.5110 -0.4449
  812THF     C812901   1.409   1.779   2.758  0.3108  0.0639  0.2269
  812THF     C912902   1.389   1.650   2.841  0.1218 -0.5970  0.2253
  812THF    H1012903   1.320   1.837   2.733  1.2394  1.1043 -0.8198
  812THF    H1112904   1.466   1.850   2.819 -1.5499  0.8466  1.1404
  812THF    H1212905   1.413   1.644   2.948 -1.2008 -1.0331  0.5237
  812THF    H1312906   1.285   1.620   2.823  0.8763 -1.8259 -2.5412
  813THF     O112907   0.638   3.369   0.615  0.2939  0.2696  0.1775
  813THF     C212908   0.713   3.406   0.506 -0.8823 -0.1812  0.5025
  813THF     C312909   0.610   3.478   0.696  0.0779  0.7750 -0.4324
  813THF     H412910   0.695   3.333   0.428  1.2338  0.0834 -0.3098
  813THF     H512911   0.816   3.409   0.543 -0.0878 -1.0679 -1.5240
  813THF     H612912   0.524   3.461   0.760 -0.3561  0.3085 -1.1232
  813THF     H712913   0.691   3.503   0.765  0.0502 -0.9948  0.2774
  813THF     C812914   0.586   3.590   0.595 -0.3038  0.3181 -0.4515
  813THF     C912915   0.670   3.553   0.475 -0.0561  1.1377  0.2952
  813THF    H1012916   0.608   3.683   0.647  1.0846 -1.2421  1.9435
  813THF    H1112917   0.483   3.586   0.559  0.5517 -1.2956 -3.0344
  813THF    H1212918   0.619   3.554   0.379 -0.8725 -2.2543  0.5401
  813THF    H1312919   0.759   3.612   0.456  0.7044 -0.0898 -0.0816
  814THF     O112920   4.877   2.744   4.623  0.8560  0.6849 -0.3483
  814THF     C212921   4.786   2.833   4.562  0.0673 -1.2354  0.4747
  814THF     C312922   4.846   2.612   4.585  0.3147  0.9646 -0.7202
  814THF     H412923   4.825   2.932   4.539  1.6265 -1.4785  1.8431
  814THF     H512924   4.708   2.849   4.636  2.6622 -0.4822  3.2649
  814THF     H612925   4.934   2.548   4.599 -0.6169 -0.0063  1.0531
  814THF     H712926   4.764   2.570   4.644  0.4487  1.8410  0.1152
  814THF     C812927   4.814   2.628   4.439  0.1485 -0.1026  0.3328
  814THF     C912928   4.745   2.765   4.433 -0.3692 -0.5002 -0.0655
  814THF    H1012929   4.758   2.555   4.380 -1.0576 -0.2691  1.6310
  814THF    H1112930   4.902   2.628   4.375  0.3030 -1.0988  0.5249
  814THF    H1212931   4.780   2.832   4.355  0.7662  0.1485  0.9611
  814THF    H1312932   4.638   2.755   4.418 -0.3115 -2.7623  0.5674
  815THF     O112933   3.786   0.236   3.247  0.4949 -0.0862  0.4773
  815THF     C212934   3.891   0.312   3.298  0.3189  0.0990  0.4684
  815THF     C312935   3.697   0.305   3.158 -0.4988 -0.1799 -0.2515
  815THF     H412936   3.981   0.301   3.238 -0.2576 -0.2819 -0.3392
  815THF     H512937   3.907   0.278   3.401  0.4605 -0.4112  0.2831
  815THF     H612938   3.738   0.310   3.057  1.8901 -2.4503  0.4776
  815THF     H712939   3.596   0.265   3.154 -1.6898  2.7387 -2.8293
  815THF     C812940   3.698   0.441   3.229 -0.9067 -0.6211 -0.2943
  815THF     C912941   3.839   0.456   3.283 -0.6072  1.0852  0.1017
  815THF    H1012942   3.627   0.459   3.310  1.0324  3.1325  0.8460
  815THF    H1112943   3.675   0.526   3.164  3.6569  0.3569 -0.9863
  815THF    H1212944   3.899   0.520   3.220 -0.7904  0.8453 -0.3179
  815THF    H1312945   3.846   0.500   3.383  1.0192  2.0932 -0.4232
  816THF     O112946   3.745   1.722   5.050 -0.0922 -0.2963 -0.6082
  816THF     C212947   3.758   1.723   4.901  0.0839  0.4402 -0.7318
  816THF     C312948   3.692   1.597   5.097  0.5313 -0.2781  0.6282
  816THF     H412949   3.856   1.688   4.868  0.7258  1.8715 -0.4458
  816THF     H512950   3.736   1.822   4.860 -1.2812 -0.4218 -2.2161
  816THF     H612951   3.755   1.543   5.168  0.6857  1.5801  1.9764
  816THF     H712952   3.604   1.625   5.155 -0.9586 -0.6165 -1.3561
  816THF     C812953   3.646   1.524   4.976  0.1235  1.3284  0.5954
  816THF     C912954   3.644   1.620   4.866  0.0166 -0.1716  0.1672
  816THF    H1012955   3.551   1.472   4.991  1.1005 -0.4031  0.9629
  816THF    H1112956   3.712   1.445   4.942  0.0437  1.6774 -0.3876
  816THF    H1212957   3.649   1.574   4.767 -0.4350  1.9075 -0.8874
  816THF    H1312958   3.557   1.686   4.873  0.7842  0.6926  2.3430
  817THF     O112959   4.543   5.305   3.862  0.0037  0.1812 -0.8697
  817THF     C212960   4.455   5.314   3.968 -0.3479  0.5239  0.3653
  817THF     C312961   4.576   5.168   3.823 -0.0404 -0.0567 -0.0553
  817THF     H412962   4.367   5.372   3.940 -2.1908 -1.9250  0.7230
  817THF     H512963   4.491   5.360   4.060  0.8408 -0.9911  0.7052
  817THF     H612964   4.610   5.147   3.721  0.6297 -1.5279  0.4528
  817THF     H712965   4.660   5.148   3.889  0.5312 -0.1570 -0.7987
  817THF     C812966   4.442   5.095   3.859  0.2572 -0.3401 -0.6522
  817THF     C912967   4.405   5.166   3.990  0.0600 -0.1611  0.0926
  817THF    H1012968   4.458   4.989   3.879  0.0409 -0.5292 -1.4642
  817THF    H1112969   4.357   5.108   3.792  1.0850  0.6939 -1.5290
  817THF    H1212970   4.300   5.154   4.017  0.6429 -1.0760  2.1853
  817THF    H1312971   4.471   5.117   4.062 -0.4045  0.5272  1.0108
  818THF     O112972   5.321   4.791   5.388 -0.3215 -0.5351  0.3321
  818THF     C212973   5.379   4.656   5.395 -0.1263 -0.5212  0.8806
  818THF     C312974   5.264   4.815   5.263  0.4006 -0.4052 -0.0704
  818THF     H412975   5.372   4.602   5.490  1.6636 -1.6139  0.4466
  818THF     H512976   5.482   4.659   5.359  0.0929  1.7637  1.5176
  818THF     H612977   5.187   4.892   5.254  0.4390 -0.4416 -0.8224
  818THF     H712978   5.345   4.837   5.193 -0.3990  1.1565 -0.5460
  818THF     C812979   5.205   4.680   5.214  0.5141  0.2236 -0.1383
  818THF     C912980   5.304   4.588   5.281  0.1113 -0.1479  1.0165
  818THF    H1012981   5.204   4.665   5.106 -0.2862 -0.4011 -0.0516
  818THF    H1112982   5.109   4.667   5.263  0.0415  0.3422 -1.0150
  818THF    H1212983   5.273   4.489   5.315  4.1253 -1.4253  1.5010
  818THF    H1312984   5.372   4.562   5.200 -1.3550  1.1975 -0.7253
  819THF     O112985   0.044   0.595   0.385  0.0278 -0.0035 -0.7756
  819THF     C212986   0.095   0.607   0.245  0.5893  0.6573 -0.2972
  819THF     C312987   0.110   0.482   0.448  0.6125  0.2686 -0.4453
  819THF     H412988   0.179   0.677   0.241  0.5379  0.7509  0.2638
  819THF     H512989   0.034   0.645   0.163  1.4928 -0.4866 -1.5535
  819THF     H612990   0.167   0.500   0.539  1.3170 -0.2196 -0.7875
  819THF     H712991   0.032   0.411   0.477  0.5899  1.3730  2.5681
  819THF     C812992   0.209   0.433   0.344 -0.4372 -0.0312 -1.6919
  819THF     C912993   0.147   0.464   0.212 -0.3826  0.5431 -0.3934
  819THF    H1012994   0.226   0.326   0.347  0.1644  0.0788  1.0324
  819THF    H1112995   0.305   0.483   0.358 -1.0390  0.7632 -0.0714
  819THF    H1212996   0.213   0.476   0.126 -1.4006  0.9599 -1.1247
  819THF    H1312997   0.067   0.396   0.185  0.1164 -0.1722 -0.1243
  820THF     O112998   0.561   3.220   4.389 -0.0459 -0.5982 -0.4090
  820THF     C212999   0.545   3.358   4.408  0.2680  0.5833 -0.6221
  820THF     C313000   0.633   3.165   4.493 -0.2186 -0.6433 -0.0111
  820THF     H413001   0.458   3.391   4.464 -0.3812 -0.8363 -0.7678
  820THF     H513002   0.540   3.406   4.310  0.9261  2.3434  0.1525
  820THF     H613003   0.569   3.150   4.581  0.3846  1.2077  0.7823
  820THF     H713004   0.677   3.077   4.446 -0.9753 -0.7931 -0.4584
  820THF     C813005   0.739   3.276   4.514 -0.5445  0.7390  0.2212
  820THF     C913006   0.665   3.404   4.494  0.2616 -0.5014  0.7470
  820THF    H1013007   0.814   3.263   4.436  3.2567  0.7621  3.5146
  820THF    H1113008   0.792   3.268   4.610 -3.5904  0.6958  2.0256
  820THF    H1213009   0.641   3.463   4.582  0.4363  1.3003 -0.3697
  820THF    H1313010   0.735   3.462   4.433 -0.2045 -0.9443 -0.2263
  821THF     O113011   4.302   2.549   4.453  0.1757  0.0107  0.0523
  821THF     C213012   4.354   2.521   4.581  0.0510 -0.1005 -0.2176
  821THF     C313013   4.315   2.686   4.432 -0.6630 -0.5286  0.3469
  821THF     H413014   4.462   2.510   4.573  0.1065  0.8007 -0.9194
  821THF     H513015   4.312   2.434   4.632 -0.2152  0.5787  0.7729
  821THF     H613016   4.394   2.715   4.364 -1.8291  3.2830  0.3910
  821THF     H713017   4.227   2.741   4.399 -1.1082 -1.5071 -0.1417
  821THF     C813018   4.352   2.758   4.562 -0.6304  0.1327 -0.0186
  821THF     C913019   4.319   2.649   4.657 -0.9733 -0.2539  0.8532
  821THF    H1013020   4.302   2.854   4.566  1.3854  1.3437 -1.9352
  821THF    H1113021   4.459   2.779   4.563 -0.5622 -0.1654 -0.5838
  821THF    H1213022   4.385   2.660   4.743  1.4347 -0.3734 -0.8875
  821THF    H1313023   4.212   2.646   4.677 -1.4607  0.1661 -1.4714
  822THF     O113024   0.767   4.010   5.150  0.3479 -0.0500  0.0116
  822THF     C213025   0.735   4.145   5.140  0.5896 -0.0208 -0.2335
  822THF     C313026   0.909   4.000   5.164 -0.1740 -0.8722  0.0664
  822THF     H413027   0.749   4.192   5.237  2.9815 -1.8896  0.4533
  822THF     H513028   0.632   4.152   5.106  0.3818 -1.8387 -0.0959
  822THF     H613029   0.928   4.018   5.270 -0.2991  0.1016 -0.0655
  822THF     H713030   0.937   3.903   5.122 -0.4105 -0.7359 -0.4049
  822THF     C813031   0.966   4.115   5.079 -0.1265 -0.7666 -0.3939
  822THF     C913032   0.839   4.193   5.046  0.4046 -0.7565  0.0994
  822THF    H1013033   1.012   4.084   4.985  1.4785  0.0582  0.0781
  822THF    H1113034   1.036   4.177   5.136  0.8101  0.4557 -2.7485
  822THF    H1213035   0.852   4.298   5.070 -0.4591 -0.3319 -1.1693
  822THF    H1313036   0.813   4.181   4.941  1.3146  2.6879 -0.6138
  823THF     O113037   4.538   1.686   3.602 -0.4431 -0.0631 -0.2816
  823THF     C213038   4.588   1.590   3.512 -0.3269  0.3799  0.7647
  823THF     C313039   4.553   1.807   3.531 -0.0997  0.3266 -0.0218
  823THF     H413040   4.566   1.485   3.531  2.4269 -0.2998  0.6915
  823THF     H513041   4.697   1.586   3.506 -0.3408 -1.4348  1.1200
  823THF     H613042   4.495   1.880   3.587  0.3963 -0.1892  1.1993
  823THF     H713043   4.656   1.842   3.527 -0.6802  2.1457  0.0915
  823THF     C813044   4.495   1.780   3.396  0.1900 -0.0033 -0.1293
  823THF     C913045   4.528   1.633   3.381 -0.0308 -0.0776  0.2289
  823THF    H1013046   4.529   1.849   3.318 -0.4612  0.4491 -0.0215
  823THF    H1113047   4.386   1.784   3.401  0.2375  0.2633  0.7900
  823THF    H1213048   4.435   1.581   3.359  0.0838 -0.2141  0.0688
  823THF    H1313049   4.586   1.614   3.291  0.3040  3.1828 -0.3624
  824THF     O113050   3.724   3.863   4.158  0.3711 -0.4297  0.2286
  824THF     C213051   3.746   3.938   4.035  0.0252  0.1941  0.2673
  824THF     C313052   3.591   3.886   4.197  0.1896 -0.1386 -0.4705
  824THF     H413053   3.713   3.883   3.947  0.5863 -0.0751  0.2219
  824THF     H513054   3.850   3.961   4.012  0.4796 -2.6280 -0.7916
  824THF     H613055   3.522   3.839   4.128 -0.0607  0.2903 -0.5192
  824THF     H713056   3.573   3.848   4.297  0.8460 -0.7947 -0.5961
  824THF     C813057   3.570   4.032   4.182 -0.0625  0.1014 -0.2359
  824THF     C913058   3.679   4.070   4.081  0.4308 -0.1327  0.7106
  824THF    H1013059   3.579   4.072   4.283 -3.6054 -1.5134  0.8794
  824THF    H1113060   3.468   4.064   4.161 -0.5304 -0.4776  1.0612
  824THF    H1213061   3.631   4.121   3.997 -1.5574 -0.4325  1.5976
  824THF    H1313062   3.755   4.129   4.133  0.5346  0.2417  0.1453
  825THF     O113063   4.976   3.059   5.209 -0.6242  0.5697 -0.1086
  825THF     C213064   4.844   3.040   5.260  0.4876  0.4397  0.0473
  825THF     C313065   5.061   2.944   5.243 -0.4925 -0.1225  0.3764
  825THF     H413066   4.770   3.079   5.190  0.6139  1.6117  0.5423
  825THF     H513067   4.826   3.093   5.354  0.1343 -0.7665  0.6826
  825THF     H613068   5.151   2.920   5.186  1.5860 -0.7229  3.7014
  825THF     H713069   5.108   2.955   5.340  1.2952 -0.1532 -0.4453
  825THF     C813070   4.958   2.834   5.234  0.0429  0.3435  0.0329
  825THF     C913071   4.830   2.891   5.287  0.0506 -0.1110  0.4982
  825THF    H1013072   4.989   2.743   5.286 -0.7813  0.6100  1.0237
  825THF    H1113073   4.920   2.805   5.137 -2.1351  3.5342 -0.1968
  825THF    H1213074   4.736   2.851   5.250  0.1618 -1.6746  1.7536
  825THF    H1313075   4.818   2.882   5.395 -0.6604  1.6904  0.5892
  826THF     O113076   0.056   5.431   1.309 -0.6195  0.0697  0.2046
  826THF     C213077  -0.077   5.378   1.310 -0.3801 -0.0117 -0.2239
  826THF     C313078   0.148   5.325   1.295 -0.5223 -0.0686  0.5462
  826THF     H413079  -0.159   5.441   1.274 -0.2056 -0.3070 -1.1759
  826THF     H513080  -0.090   5.344   1.413 -0.5234 -0.0685 -0.2599
  826THF     H613081   0.230   5.338   1.224  1.8252 -1.2560  2.8646
  826THF     H713082   0.216   5.316   1.380 -0.2386 -0.4016  0.2858
  826THF     C813083   0.063   5.202   1.265  0.3589  0.2552  0.7359
  826THF     C913084  -0.070   5.260   1.223 -0.5614 -0.0923  1.0497
  826THF    H1013085   0.055   5.132   1.348  2.9980  0.1518  1.0007
  826THF    H1113086   0.105   5.150   1.180  0.0823 -0.1149  0.8229
  826THF    H1213087  -0.071   5.286   1.117 -2.8212  0.1240  1.0696
  826THF    H1313088  -0.145   5.183   1.241 -1.7253  0.3939 -1.2863
  827THF     O113089   4.934   1.906   3.040 -0.2298  0.1970  0.4078
  827THF     C213090   4.938   1.790   2.966 -0.4513  0.0367  0.5642
  827THF     C313091   4.826   1.892   3.130 -0.6483  0.3371  0.0575
  827THF     H413092   4.992   1.711   3.018 -0.0934 -0.8391 -1.0541
  827THF     H513093   4.983   1.795   2.866 -0.2918  2.3662  0.7083
  827THF     H613094   4.864   1.850   3.223 -0.5605  0.5208  0.1048
  827THF     H713095   4.782   1.990   3.146 -0.3363  0.4183  0.4284
  827THF     C813096   4.720   1.800   3.067 -0.1588  0.6125 -0.1646
  827THF     C913097   4.790   1.748   2.945 -0.5543 -0.2296  0.1455
  827THF    H1013098   4.626   1.848   3.042 -1.8372 -1.1276  2.3139
  827THF    H1113099   4.696   1.712   3.127 -1.0900  1.0007  0.0512
  827THF    H1213100   4.790   1.643   2.918  0.7295 -0.4650  0.9969
  827THF    H1313101   4.748   1.805   2.862 -1.5124 -0.9601  0.1023
  828THF     O113102   0.654   1.875   0.643 -0.0818  0.2509 -0.6521
  828THF     C213103   0.699   2.007   0.623  0.2915  0.1000 -0.2869
  828THF     C313104   0.654   1.850   0.791 -0.2769  0.5861  0.3050
  828THF     H413105   0.652   2.052   0.536 -0.9210 -0.7789 -0.1021
  828THF     H513106   0.806   2.022   0.609  0.1349 -0.0067 -1.6525
  828THF     H613107   0.608   1.756   0.819  0.1523 -0.9486 -3.5137
  828THF     H713108   0.759   1.845   0.821 -0.4815 -1.4302  0.8307
  828THF     C813109   0.573   1.971   0.840 -0.2957 -0.1735  1.2918
  828THF     C913110   0.632   2.080   0.745 -0.1875  0.1816 -0.3004
  828THF    H1013111   0.595   1.988   0.946  1.7648 -0.5308  0.9578
  828THF    H1113112   0.466   1.954   0.825 -0.1111 -1.5024  1.4395
  828THF    H1213113   0.537   2.129   0.727 -1.1479 -0.6379  2.1635
  828THF    H1313114   0.704   2.151   0.786 -0.0859  1.4791 -2.5551
  829THF     O113115   1.462   1.430   3.308  0.3971 -0.0651 -0.9593
  829THF     C213116   1.574   1.484   3.239 -0.4011 -0.0298 -0.8347
  829THF     C313117   1.379   1.538   3.342  0.7617 -0.7595 -0.1703
  829THF     H413118   1.547   1.489   3.134 -0.8002  1.0560 -0.6981
  829THF     H513119   1.661   1.418   3.239 -1.2582 -1.3350  2.3742
  829THF     H613120   1.291   1.540   3.278 -0.7165 -0.8760  1.7378
  829THF     H713121   1.336   1.513   3.439  0.0743 -0.1433 -0.3078
  829THF     C813122   1.457   1.672   3.340 -0.8332  0.5555  0.4197
  829THF     C913123   1.597   1.622   3.309  0.2739  0.1989 -0.6021
  829THF    H1013124   1.444   1.718   3.438  0.4744  1.3286  0.2431
  829THF    H1113125   1.430   1.750   3.269  0.9955  1.1339  0.3102
  829THF    H1213126   1.659   1.690   3.250  0.7247  1.9949  1.7723
  829THF    H1313127   1.658   1.611   3.399 -0.5517 -2.4272 -0.2789
  830THF     O113128   4.962   4.428   1.206 -0.2020 -0.0223 -0.0926
  830THF     C213129   5.018   4.360   1.098 -0.3242  0.3289  0.3287
  830THF     C313130   4.935   4.564   1.170 -0.1539  0.0929 -0.2201
  830THF     H413131   4.991   4.254   1.100  2.6913 -0.5660 -0.5167
  830THF     H513132   5.126   4.349   1.107 -0.3320  0.0287  0.0875
  830THF     H613133   4.847   4.601   1.223  0.3775 -0.5497  1.1554
  830THF     H713134   5.017   4.629   1.201  0.4478 -0.2162 -1.1400
  830THF     C813135   4.896   4.563   1.023 -0.4937  0.2290  0.4010
  830THF     C913136   4.968   4.433   0.976 -0.0861  0.0572  0.5355
  830THF    H1013137   4.950   4.645   0.975  0.1760  0.3172  1.2886
  830THF    H1113138   4.790   4.570   0.999 -0.5741 -1.1499  0.2848
  830THF    H1213139   4.889   4.370   0.934  1.5436 -1.9764  0.3185
  830THF    H1313140   5.044   4.456   0.900 -0.6212  2.3595  0.6255
  831THF     O113141   4.234   5.237   3.467  0.0648 -0.0977  0.1861
  831THF     C213142   4.231   5.298   3.344  0.0207 -0.6710 -0.2589
  831THF     C313143   4.286   5.105   3.458  0.4781  0.8276 -0.0914
  831THF     H413144   4.249   5.406   3.347 -0.6545 -0.5451 -0.6254
  831THF     H513145   4.130   5.284   3.306 -1.1614 -2.5043  3.1163
  831THF     H613146   4.366   5.090   3.531  1.3247  2.9849 -0.5206
  831THF     H713147   4.201   5.036   3.470  0.1636  1.4254  1.4099
  831THF     C813148   4.334   5.085   3.312  0.1711 -0.2294 -0.0542
  831THF     C913149   4.330   5.225   3.252  0.0508  0.1804 -0.0705
  831THF    H1013150   4.255   5.032   3.258 -0.5270  0.2257  0.4973
  831THF    H1113151   4.417   5.017   3.294  0.5617  0.6166 -1.6058
  831THF    H1213152   4.425   5.275   3.271  0.3560 -0.1471 -0.6903
  831THF    H1313153   4.313   5.220   3.144 -1.7878  1.0628  0.1316
  832THF     O113154   1.463   5.473   2.742  0.1793 -0.3558  0.1040
  832THF     C213155   1.340   5.496   2.670  0.8240  0.1689  0.4865
  832THF     C313156   1.426   5.486   2.879 -0.5309  0.2292 -0.2393
  832THF     H413157   1.345   5.482   2.562  3.1464  2.2351  0.2274
  832THF     H513158   1.319   5.602   2.690  1.8330  0.0455  2.4640
  832THF     H613159   1.505   5.449   2.944  2.5557  1.2728 -3.0834
  832THF     H713160   1.416   5.588   2.916 -0.7531  1.3393 -3.0636
  832THF     C813161   1.300   5.408   2.889 -0.3324  0.1021 -0.4309
  832THF     C913162   1.243   5.412   2.749 -0.3241 -0.1779 -0.6253
  832THF    H1013163   1.243   5.445   2.974 -1.1933 -2.2999  0.1146
  832THF    H1113164   1.298   5.303   2.916 -0.1414  0.7529  2.4183
  832THF    H1213165   1.247   5.314   2.701  3.0641 -0.4401 -0.0170
  832THF    H1313166   1.139   5.447   2.748  0.2358  1.9415  2.0466
  833THF     O113167   3.042   2.230   1.813 -0.5079 -0.0800  0.1026
  833THF     C213168   3.062   2.199   1.678 -0.8294  0.4823  0.3748
  833THF     C313169   2.915   2.178   1.837  0.3146 -0.2315  0.2743
  833THF     H413170   3.104   2.098   1.680 -2.2225 -0.1072  2.1035
  833THF     H513171   3.148   2.256   1.642 -0.0452  0.6277  2.3497
  833THF     H613172   2.923   2.070   1.848 -2.5536 -0.5287  0.2375
  833THF     H713173   2.871   2.214   1.930 -1.7874 -2.0861  0.0751
  833THF     C813174   2.832   2.223   1.718  0.3161 -0.7669  0.6104
  833THF     C913175   2.933   2.217   1.606  0.5816 -0.6886 -0.2081
  833THF    H1013176   2.806   2.328   1.729 -1.1729 -1.0008 -0.4185
  833THF    H1113177   2.738   2.168   1.706 -1.1436  2.0605 -2.1858
  833THF    H1213178   2.906   2.127   1.552 -2.4757 -0.9617  1.5639
  833THF    H1313179   2.929   2.309   1.547 -1.8663 -0.1914  0.5967
  834THF     O113180   4.660   3.276   5.111  0.2234 -0.0549 -0.2284
  834THF     C213181   4.743   3.294   4.995  1.2542 -0.6708 -0.6460
  834THF     C313182   4.528   3.268   5.059 -0.0133 -0.6968 -0.3724
  834THF     H413183   4.720   3.214   4.925 -0.7730  0.3441 -1.2217
  834THF     H513184   4.850   3.306   5.011  0.8804 -0.3276  2.0945
  834THF     H613185   4.506   3.173   5.010  0.5679 -0.5573 -0.9129
  834THF     H713186   4.457   3.283   5.140 -1.6925  0.0980 -1.9323
  834THF     C813187   4.516   3.394   4.963  0.4683  0.2081  0.1983
  834THF     C913188   4.659   3.416   4.932 -0.6937 -0.2706 -0.3832
  834THF    H1013189   4.471   3.480   5.014 -1.7227 -0.4229 -0.5552
  834THF    H1113190   4.456   3.376   4.874  0.3132  0.8251  0.1703
  834THF    H1213191   4.671   3.417   4.824 -0.3062 -0.1295 -0.3410
  834THF    H1313192   4.683   3.512   4.977  0.2166  1.0754 -3.4699
  835THF     O113193   1.968   0.775   0.203 -0.3083  0.1257 -0.4632
  835THF     C213194   1.920   0.680   0.113  0.4186 -0.0525  0.0688
  835THF     C313195   2.093   0.823   0.139 -0.0132 -0.2398 -0.8521
  835THF     H413196   1.812   0.664   0.118  0.4321 -1.4530 -2.5175
  835THF     H513197   1.970   0.585   0.129  3.0488  1.3921  0.9444
  835THF     H613198   2.128   0.915   0.187  1.2589 -1.4638  0.6885
  835THF     H713199   2.166   0.743   0.153  0.1199  0.2350  1.7721
  835THF     C813200   2.056   0.829  -0.013  0.6011 -0.4816  0.5534
  835THF     C913201   1.941   0.735  -0.030 -0.1081  0.3347  0.0918
  835THF    H1013202   2.142   0.800  -0.074  1.5898 -0.1946  1.7489
  835THF    H1113203   2.033   0.932  -0.037  3.2289  0.2252  0.7783
  835THF    H1213204   1.851   0.785  -0.065 -0.0475  1.0062  0.8615
  835THF    H1313205   1.975   0.654  -0.095  0.6364 -0.2891  1.2094
  836THF     O113206   0.833   5.287   0.652 -0.4495 -0.3462  0.3211
  836THF     C213207   0.749   5.217   0.564 -0.3685  0.6348  0.3269
  836THF     C313208   0.945   5.359   0.591 -0.1642  0.7361  0.0619
  836THF     H413209   0.649   5.260   0.563  0.5574  2.9706  0.4176
  836THF     H513210   0.747   5.113   0.595  1.7421  0.4943  0.1692
  836THF     H613211   0.908   5.458   0.567 -1.9004 -0.2697 -1.6727
  836THF     H713212   1.039   5.362   0.646  0.0170  1.0391 -0.2666
  836THF     C813213   0.967   5.279   0.465  0.5158  0.1856 -0.1487
  836THF     C913214   0.821   5.239   0.432 -0.4879 -0.4275 -0.2138
  836THF    H1013215   1.015   5.183   0.483 -3.7724 -2.3271 -0.6908
  836THF    H1113216   1.002   5.329   0.375 -3.4323  1.1018 -1.3709
  836THF    H1213217   0.785   5.325   0.376  1.7571  2.3212  2.2333
  836THF    H1313218   0.807   5.151   0.369 -1.0949  0.9666 -2.1166
  837THF     O113219   2.102   4.924   1.774 -0.2848  0.4604  0.4733
  837THF     C213220   2.238   4.879   1.766 -0.4076 -0.2574  0.0667
  837THF     C313221   2.090   5.038   1.854  0.1257 -0.4278  0.0890
  837THF     H413222   2.262   4.814   1.682 -0.3806 -2.0976  1.4382
  837THF     H513223   2.276   4.833   1.857 -1.3420 -0.4848  0.3533
  837THF     H613224   1.996   5.089   1.835 -0.1341  0.0821  2.4125
  837THF     H713225   2.076   5.009   1.958  0.8921 -2.2079 -0.2690
  837THF     C813226   2.217   5.118   1.821  0.2487  0.8104  0.1451
  837THF     C913227   2.303   5.018   1.749 -0.2656 -0.7808  0.8304
  837THF    H1013228   2.263   5.168   1.907 -0.3521  1.0372  0.3365
  837THF    H1113229   2.187   5.192   1.746 -0.6507  0.0538 -0.2548
  837THF    H1213230   2.302   5.036   1.641  2.7811  0.7665  0.9448
  837THF    H1313231   2.406   5.025   1.783  0.0463  0.0192 -0.1947
  838THF     O113232   0.822   5.022   5.478  0.1705  0.5963  0.1616
  838THF     C213233   0.826   4.882   5.477  0.0520 -0.5921 -0.1300
  838THF     C313234   0.736   5.052   5.594  0.2970 -0.1356  0.4720
  838THF     H413235   0.929   4.845   5.473 -0.5929 -2.8417  1.5612
  838THF     H513236   0.767   4.848   5.391  0.8951 -0.3098 -0.8290
  838THF     H613237   0.758   5.153   5.630  2.1105  0.6310 -2.4831
  838THF     H713238   0.633   5.043   5.560  1.3584 -0.6733 -2.9107
  838THF     C813239   0.752   4.940   5.694 -0.2310  0.4174  0.8092
  838THF     C913240   0.756   4.821   5.601  0.5103 -0.5140 -0.4858
  838THF    H1013241   0.663   4.927   5.756  0.3308 -0.2437  1.4934
  838THF    H1113242   0.842   4.960   5.751  1.7874 -1.2174 -1.5980
  838THF    H1213243   0.809   4.737   5.645 -2.1088 -2.1748 -0.2564
  838THF    H1313244   0.654   4.796   5.572  0.0117 -0.2771  0.9431
  839THF     O113245   2.509   0.951   2.591  0.5998 -0.4228 -0.2817
  839THF     C213246   2.396   0.947   2.677 -0.1465  0.1663 -0.0212
  839THF     C313247   2.472   1.032   2.480  0.0339  0.3443  0.2433
  839THF     H413248   2.407   0.898   2.774 -0.7896  1.0782  0.5304
  839THF     H513249   2.310   0.907   2.625  0.3654  0.4479 -1.1235
  839THF     H613250   2.548   1.067   2.409 -2.5372  2.3913 -1.6955
  839THF     H713251   2.399   0.984   2.414 -0.0133  1.3973 -0.4922
  839THF     C813252   2.409   1.151   2.548 -0.2012 -0.3004 -0.5583
  839THF     C913253   2.356   1.096   2.680 -0.5173  0.1120  0.1823
  839THF    H1013254   2.332   1.202   2.490  1.1246  0.8664 -1.3567
  839THF    H1113255   2.473   1.235   2.576  0.2793 -0.5848 -0.7917
  839THF    H1213256   2.423   1.127   2.760 -0.1237 -3.7580  1.5557
  839THF    H1313257   2.255   1.118   2.715 -0.7552  1.2278 -1.0889
  840THF     O113258   0.864   5.224   3.031  0.1119  0.1905 -0.0348
  840THF     C213259   0.951   5.306   2.953  0.4290 -0.3908 -0.0079
  840THF     C313260   0.777   5.305   3.107  0.4357 -0.7209  0.2755
  840THF     H413261   0.984   5.258   2.861  0.8122  0.4432 -0.3138
  840THF     H513262   1.045   5.316   3.008  0.3794  0.2864 -0.0360
  840THF     H613263   0.683   5.265   3.143 -1.3775  0.7667 -2.4679
  840THF     H713264   0.830   5.358   3.186 -2.0936 -0.7693  2.1241
  840THF     C813265   0.742   5.398   2.992  0.2931 -0.5337 -0.3237
  840THF     C913266   0.873   5.431   2.920  0.3560 -0.4022 -0.4899
  840THF    H1013267   0.685   5.484   3.027 -0.0884 -0.5305 -0.9461
  840THF    H1113268   0.679   5.336   2.929  0.0557 -1.6821  0.9870
  840THF    H1213269   0.860   5.456   2.815  2.1640  2.1759 -0.2034
  840THF    H1313270   0.925   5.521   2.955  2.1857 -0.9565 -1.6387
  841THF     O113271   1.657   2.586   5.046  0.3872 -0.1925  0.3496
  841THF     C213272   1.583   2.580   4.924 -0.6179 -0.1564  0.3552
  841THF     C313273   1.782   2.653   5.021  0.3021  0.2079  0.1011
  841THF     H413274   1.476   2.567   4.939 -0.7987  1.0949  0.1978
  841THF     H513275   1.625   2.491   4.876  0.6681 -0.0660  1.2623
  841THF     H613276   1.828   2.701   5.107 -0.6552 -1.6762  1.7282
  841THF     H713277   1.854   2.599   4.960  0.3159  0.9595 -0.5703
  841THF     C813278   1.727   2.765   4.930  0.4251 -0.7633 -0.5691
  841THF     C913279   1.619   2.704   4.843 -0.2430 -0.1171  0.0285
  841THF    H1013280   1.810   2.802   4.869  0.2915  1.2526  0.3754
  841THF    H1113281   1.690   2.840   5.000 -1.0166 -2.0659  0.1032
  841THF    H1213282   1.526   2.760   4.838  0.6779  2.0025  3.2104
  841THF    H1313283   1.646   2.681   4.740 -1.8287 -0.9984 -0.2156
  842THF     O113284   1.874   1.862   5.080 -0.0584 -0.8121  0.0653
  842THF     C213285   1.875   1.716   5.087  0.1915  0.3065 -0.5442
  842THF     C313286   1.780   1.901   5.180  0.1200 -0.6000 -0.0300
  842THF     H413287   1.958   1.671   5.032  1.4919  1.3939  0.4583
  842THF     H513288   1.781   1.679   5.048  0.1626 -1.2288  0.9013
  842THF     H613289   1.817   1.997   5.216 -0.8680 -0.4322  0.5853
  842THF     H713290   1.689   1.910   5.121  0.3213  2.7374 -0.0341
  842THF     C813291   1.779   1.795   5.295  0.0984  0.3687  0.8641
  842THF     C913292   1.876   1.694   5.231 -0.4837 -0.0064 -0.2518
  842THF    H1013293   1.679   1.753   5.307  0.0394  0.1094 -0.4000
  842THF    H1113294   1.815   1.832   5.391  1.8054 -1.2300  0.8997
  842THF    H1213295   1.979   1.709   5.265 -0.8200 -2.3768  2.1039
  842THF    H1313296   1.844   1.592   5.255 -0.5717  0.2398  0.7082
  843THF     O113297   1.122   0.361   4.685 -0.0253  0.2327 -0.1043
  843THF     C213298   1.025   0.356   4.585 -0.0824  0.4735  0.3652
  843THF     C313299   1.054   0.377   4.811  0.2578 -0.1768  0.3554
  843THF     H413300   1.040   0.255   4.547  1.5291  0.0559  1.9982
  843THF     H513301   1.059   0.431   4.514  2.1793 -0.4125  0.4403
  843THF     H613302   1.027   0.288   4.867 -2.6428  0.0566 -0.5181
  843THF     H713303   1.121   0.439   4.870 -0.4926  1.0197 -0.0014
  843THF     C813304   0.927   0.455   4.765  0.0471  0.3889 -0.0828
  843THF     C913305   0.889   0.375   4.644 -0.0494 -0.4428 -0.4242
  843THF    H1013306   0.958   0.558   4.751  0.2313  0.0485 -2.8522
  843THF    H1113307   0.842   0.464   4.832  0.2205 -0.2607  0.2305
  843THF    H1213308   0.843   0.282   4.677  2.8029 -1.5890  0.6635
  843THF    H1313309   0.822   0.433   4.580  1.1205  2.2865  0.6420
  844THF     O113310   3.882   4.250   1.476  0.1884  0.2719 -0.5013
  844THF     C213311   3.967   4.233   1.583  0.1935  1.2526  1.1138
  844THF     C313312   3.751   4.299   1.530 -0.0889  0.0694 -0.0589
  844THF     H413313   4.024   4.325   1.594  1.8859  0.3257  0.3708
  844THF     H513314   4.041   4.156   1.563 -1.6603 -0.9667  2.2622
  844THF     H613315   3.737   4.401   1.495  1.8396 -0.6482 -3.3839
  844THF     H713316   3.669   4.230   1.509  0.0703 -0.2015  0.1981
  844THF     C813317   3.767   4.285   1.684 -0.5530 -0.9801 -0.4855
  844THF     C913318   3.883   4.192   1.700  0.1688 -0.6824  0.2961
  844THF    H1013319   3.672   4.257   1.730 -0.6438  3.6759  2.8536
  844THF    H1113320   3.795   4.377   1.735 -1.5836 -1.1758  0.4878
  844THF    H1213321   3.943   4.207   1.790 -0.3628 -2.4504  0.9867
  844THF    H1313322   3.854   4.087   1.693 -0.1345 -0.4924 -2.6652
  845THF     O113323   1.825   2.642   2.911  0.1464  0.3531  0.0159
  845THF     C213324   1.762   2.755   2.841  0.1712 -0.9911  0.4132
  845THF     C313325   1.742   2.521   2.891 -0.5666 -0.2903 -0.0875
  845THF     H413326   1.828   2.839   2.822 -1.7895  0.5080 -0.2024
  845THF     H513327   1.670   2.794   2.885  0.3826  0.8312 -0.6416
  845THF     H613328   1.808   2.435   2.883  0.3642  0.3531  0.4909
  845THF     H713329   1.671   2.520   2.974  0.4403  3.0823  0.9569
  845THF     C813330   1.674   2.556   2.756  0.6185  0.0557  0.3978
  845THF     C913331   1.714   2.698   2.713 -0.1442  0.1023  0.4444
  845THF    H1013332   1.566   2.549   2.769  0.3889 -2.9530 -1.9143
  845THF    H1113333   1.695   2.482   2.679 -0.9963  0.2932 -0.3246
  845THF    H1213334   1.799   2.684   2.646  0.2086  1.3421  0.6138
  845THF    H1313335   1.636   2.752   2.658  2.6245 -0.9051 -5.2699
  846THF     O113336   3.682   0.875   1.077 -0.4525 -0.3059 -0.1232
  846THF     C213337   3.712   1.015   1.105  0.2164  0.2378 -0.6342
  846THF     C313338   3.806   0.820   1.049  0.7377 -0.2609  0.8257
  846THF     H413339   3.633   1.069   1.157 -1.2335 -1.3377 -1.1313
  846THF     H513340   3.730   1.069   1.012  0.1222 -1.7150 -1.8408
  846THF     H613341   3.791   0.712   1.058  0.5899 -0.5689 -2.0995
  846THF     H713342   3.828   0.854   0.948  0.2674  0.7913  1.0660
  846THF     C813343   3.902   0.869   1.159 -0.1189 -0.2589  0.9214
  846THF     C913344   3.842   1.003   1.193  0.2405 -0.2875  0.5183
  846THF    H1013345   4.001   0.883   1.116 -0.9106  1.9071 -0.3600
  846THF    H1113346   3.901   0.796   1.240  1.2378  0.5229  1.6667
  846THF    H1213347   3.805   1.010   1.295  1.2850 -1.5004  1.0024
  846THF    H1313348   3.912   1.087   1.184 -0.5711  0.4625  1.0099
  847THF     O113349   2.436   3.982   2.949  0.5889 -0.6235 -0.0754
  847THF     C213350   2.348   4.022   2.843 -0.2186  0.1123 -0.3845
  847THF     C313351   2.415   3.844   2.977  0.7801 -0.5572 -0.4503
  847THF     H413352   2.416   4.013   2.758 -2.6736 -0.4321 -2.4361
  847THF     H513353   2.309   4.123   2.832  0.3711  0.4691  0.7324
  847THF     H613354   2.503   3.782   2.962  0.3037 -1.3611 -0.0362
  847THF     H713355   2.383   3.827   3.080 -2.2670  1.3938 -0.9481
  847THF     C813356   2.315   3.785   2.881 -0.5694 -0.1320  0.1097
  847THF     C913357   2.241   3.911   2.835 -0.0788  0.2997  0.6330
  847THF    H1013358   2.247   3.719   2.934  2.1508 -2.2514  1.1567
  847THF    H1113359   2.361   3.742   2.792 -2.2139 -0.6598 -0.5338
  847THF    H1213360   2.194   3.900   2.737  0.4087  0.1779  0.4136
  847THF    H1313361   2.166   3.936   2.910 -0.3987  0.3355  0.3052
  848THF     O113362   4.755   1.325   4.396 -0.0267 -0.0632 -0.2324
  848THF     C213363   4.904   1.312   4.408  0.8160 -0.5134 -0.4869
  848THF     C313364   4.709   1.350   4.529  0.3610 -0.3122 -0.7073
  848THF     H413365   4.946   1.410   4.384 -0.6142  0.7786  1.9495
  848THF     H513366   4.944   1.241   4.335 -0.2495  0.0633 -1.6690
  848THF     H613367   4.733   1.454   4.553 -2.8311  0.4571 -0.3866
  848THF     H713368   4.602   1.332   4.522 -0.0135  0.6894  1.4614
  848THF     C813369   4.797   1.249   4.606 -0.6206 -0.4747  0.3021
  848THF     C913370   4.934   1.277   4.544  0.3015 -0.2393  0.3249
  848THF    H1013371   4.764   1.147   4.587 -0.5724 -0.2785 -0.9517
  848THF    H1113372   4.796   1.252   4.715  0.9458 -0.9398  0.3504
  848THF    H1213373   4.969   1.364   4.599 -1.7632  1.7536 -1.3169
  848THF    H1313374   5.010   1.199   4.559 -0.7106 -1.3718 -0.2518
  849THF     O113375   2.639   5.024   3.556  0.0517  0.2097 -0.2908
  849THF     C213376   2.694   4.969   3.444  0.2615 -0.3066  0.2138
  849THF     C313377   2.686   4.943   3.664  0.2974 -0.6562 -0.2557
  849THF     H413378   2.799   4.993   3.432  0.1631 -0.2339 -0.5151
  849THF     H513379   2.638   4.999   3.356 -2.4720  0.1665  1.9897
  849THF     H613380   2.779   4.994   3.689 -0.6560  2.5905 -2.7602
  849THF     H713381   2.612   4.947   3.745  1.8692 -2.4838  1.3934
  849THF     C813382   2.705   4.803   3.611  0.0916 -0.2377  0.7992
  849THF     C913383   2.673   4.819   3.462  0.5119 -0.7064 -0.0964
  849THF    H1013384   2.655   4.734   3.679  1.1804  0.0147  1.8711
  849THF    H1113385   2.811   4.779   3.614  0.0854 -0.2952  0.5440
  849THF    H1213386   2.739   4.758   3.400 -0.2604 -1.6215 -0.0492
  849THF    H1313387   2.570   4.794   3.438  0.3598  0.9948 -1.3611
  850THF     O113388   1.993   0.776   3.026 -0.2621  0.3273  0.0075
  850THF     C213389   2.125   0.805   3.062  0.6853 -0.1459  0.2262
  850THF     C313390   1.920   0.887   2.968 -0.5097 -0.4462 -0.5858
  850THF     H413391   2.189   0.769   2.981  0.6488  2.1566 -0.8989
  850THF     H513392   2.151   0.785   3.166 -1.2681  0.3610  0.8443
  850THF     H613393   1.852   0.871   2.884 -0.0339 -1.2676 -0.8297
  850THF     H713394   1.857   0.928   3.047 -0.7189  0.6972 -1.3241
  850THF     C813395   2.029   1.000   2.950  0.1420 -0.2574 -0.3130
  850THF     C913396   2.140   0.962   3.055  0.3714  0.0103  1.2259
  850THF    H1013397   1.994   1.102   2.965 -1.1083 -0.7643  0.4185
  850THF    H1113398   2.072   0.985   2.851  2.2775 -3.1744  0.9103
  850THF    H1213399   2.236   0.995   3.015  0.2863 -1.5348 -0.4073
  850THF    H1313400   2.112   1.011   3.148 -0.2489  1.2948  0.3925
  851THF     O113401   3.581   2.243   1.744 -0.1404 -0.3050  0.1693
  851THF     C213402   3.622   2.114   1.756 -0.3405  0.2961  0.4537
  851THF     C313403   3.609   2.276   1.610  0.3354 -0.4281  0.0585
  851THF     H413404   3.537   2.046   1.740 -0.1685  0.3521 -0.7706
  851THF     H513405   3.654   2.093   1.858  0.6038  0.1566  0.1409
  851THF     H613406   3.513   2.258   1.563  0.0140  0.6566  0.2647
  851THF     H713407   3.643   2.380   1.608 -3.1635  0.8377 -0.8587
  851THF     C813408   3.706   2.179   1.554 -1.0044  0.4423  0.6576
  851THF     C913409   3.746   2.091   1.671  0.1309 -0.4638  0.3925
  851THF    H1013410   3.778   2.232   1.491 -0.8223 -0.5645 -0.0043
  851THF    H1113411   3.661   2.103   1.491 -1.3361  0.7640  0.5008
  851THF    H1213412   3.748   1.986   1.639 -0.8501 -0.2233 -0.5000
  851THF    H1313413   3.840   2.134   1.704 -0.7413  1.0116  1.0491
  852THF     O113414   1.148   4.876   0.462 -0.7205 -0.5411 -0.3553
  852THF     C213415   1.042   4.774   0.460 -0.1197 -0.0031  0.0164
  852THF     C313416   1.174   4.919   0.595 -0.5097  0.8127  0.8249
  852THF     H413417   1.082   4.673   0.462  0.1566  0.0847 -0.8760
  852THF     H513418   0.997   4.793   0.363 -0.0121 -1.2861 -0.3024
  852THF     H613419   1.252   4.861   0.644 -1.3299 -1.3816 -0.3120
  852THF     H713420   1.209   5.021   0.605 -2.7325  1.6426  0.6111
  852THF     C813421   1.042   4.898   0.666 -0.2957 -0.1117 -0.3225
  852THF     C913422   0.953   4.818   0.579 -0.0048  0.1445  0.4105
  852THF    H1013423   1.010   5.000   0.688 -0.0015 -0.3226  1.2024
  852THF    H1113424   1.059   4.846   0.761  1.5485 -0.2232 -0.6653
  852THF    H1213425   0.904   4.741   0.638  0.6949  0.5846  1.6143
  852THF    H1313426   0.882   4.884   0.531  0.8842  1.2954  0.6175
  853THF     O113427   1.961   1.615   4.279 -0.2781 -0.5124  0.0337
  853THF     C213428   1.908   1.699   4.175  0.4922 -0.5137 -0.8964
  853THF     C313429   1.964   1.477   4.240  0.5362  0.2537  0.4498
  853THF     H413430   1.949   1.800   4.187 -0.2779 -0.3999  1.2002
  853THF     H513431   1.800   1.693   4.179  0.3691  1.0423 -1.1576
  853THF     H613432   2.061   1.441   4.272 -0.0667 -0.5384  1.4349
  853THF     H713433   1.887   1.424   4.296  0.7001  0.0432  0.4772
  853THF     C813434   1.943   1.475   4.087  0.4051  0.9998  0.2182
  853THF     C913435   1.959   1.628   4.049  0.1377  0.2330  0.0091
  853THF    H1013436   1.838   1.454   4.069  0.2131  1.8288  0.3569
  853THF    H1113437   2.011   1.404   4.038 -1.7908  0.4046 -2.1719
  853THF    H1213438   2.068   1.632   4.045  0.2778 -2.2260 -0.1595
  853THF    H1313439   1.906   1.654   3.957  1.1952  2.1694 -0.1132
  854THF     O113440   3.300   3.280   5.295 -0.2678 -0.3197  0.4145
  854THF     C213441   3.286   3.410   5.243 -0.2153  0.4340 -0.3860
  854THF     C313442   3.176   3.224   5.330 -0.0630  0.4450  0.1464
  854THF     H413443   3.292   3.397   5.135 -0.7993 -3.2993 -0.0885
  854THF     H513444   3.366   3.474   5.280 -1.0838  1.4049 -0.1350
  854THF     H613445   3.161   3.126   5.285  0.4124  1.1628 -1.6362
  854THF     H713446   3.178   3.207   5.438 -1.7688 -0.2499  0.0905
  854THF     C813447   3.068   3.331   5.295 -0.6627 -0.1881  0.9637
  854THF     C913448   3.153   3.452   5.297 -0.3290  0.2278  0.4545
  854THF    H1013449   2.979   3.334   5.356 -0.9014 -0.5011  0.6356
  854THF    H1113450   3.037   3.309   5.193 -0.2902 -0.7105  0.9590
  854THF    H1213451   3.115   3.548   5.262  1.3061  0.7361 -0.0077
  854THF    H1313452   3.162   3.475   5.403 -2.5544  1.7822  0.3966
  855THF     O113453   1.608   0.560   2.818  0.1409  0.2854 -0.0848
  855THF     C213454   1.698   0.480   2.742 -0.2459  0.2979 -0.6109
  855THF     C313455   1.664   0.586   2.953 -0.1786 -0.1712  0.1303
  855THF     H413456   1.762   0.552   2.692  0.6278 -0.7004 -0.9709
  855THF     H513457   1.635   0.415   2.680 -0.3254  0.2788 -0.5104
  855THF     H613458   1.680   0.693   2.966 -3.3318  0.5111 -0.8033
  855THF     H713459   1.584   0.569   3.025  0.9354 -0.7619  1.2837
  855THF     C813460   1.794   0.499   2.964  0.1662  0.4377 -0.1450
  855THF     C913461   1.770   0.397   2.846 -0.2887 -0.3139  0.0458
  855THF    H1013462   1.808   0.450   3.060  0.9496  0.4544 -0.2404
  855THF    H1113463   1.882   0.561   2.946  0.9486 -0.1000  1.5865
  855THF    H1213464   1.859   0.353   2.800 -0.4071  1.5461 -2.1273
  855THF    H1313465   1.706   0.314   2.874 -1.6534  0.3130 -1.1250
  856THF     O113466   1.525   1.238   1.526 -0.0190  0.6686 -0.3728
  856THF     C213467   1.553   1.122   1.604  0.0014  0.0857  0.1032
  856THF     C313468   1.648   1.314   1.518  0.5206  0.4762 -0.5116
  856THF     H413469   1.475   1.046   1.603  0.7282 -0.6602 -0.3851
  856THF     H513470   1.569   1.137   1.711  0.2726  1.0541 -0.0588
  856THF     H613471   1.644   1.384   1.434 -3.3036 -0.6001 -1.4716
  856THF     H713472   1.647   1.359   1.616 -2.2641  0.0914 -0.2879
  856THF     C813473   1.757   1.203   1.506  0.4274 -0.0898 -0.5920
  856THF     C913474   1.686   1.077   1.549 -0.2933 -1.0182  0.1254
  856THF    H1013475   1.840   1.228   1.573  0.6916  1.6513 -1.5133
  856THF    H1113476   1.804   1.207   1.408  0.2643 -0.3487 -0.6802
  856THF    H1213477   1.674   1.006   1.468 -1.1881  1.1542 -1.7795
  856THF    H1313478   1.744   1.023   1.623 -0.7438  0.8809  1.9801
  857THF     O113479   2.910   0.520   3.286 -0.2586  0.1641 -0.0981
  857THF     C213480   2.864   0.424   3.384 -0.3562  0.6174  0.1402
  857THF     C313481   2.962   0.635   3.352  0.4830  1.2470 -0.2701
  857THF     H413482   2.878   0.325   3.342  0.2522  0.1410  1.4036
  857THF     H513483   2.760   0.435   3.413 -0.6851 -0.4917 -0.5875
  857THF     H613484   3.014   0.713   3.297  0.8252  1.9148  0.9764
  857THF     H713485   2.874   0.689   3.387  0.5642  1.0914  0.1818
  857THF     C813486   3.041   0.573   3.468  0.0285  0.4594 -0.0436
  857THF     C913487   2.952   0.451   3.502 -0.1606  0.2583 -0.0850
  857THF    H1013488   3.046   0.634   3.559  0.9751  0.9686 -0.4121
  857THF    H1113489   3.142   0.540   3.445  0.2344  0.4921  0.7857
  857THF    H1213490   3.016   0.364   3.522 -0.5448  0.7195  3.8198
  857THF    H1313491   2.888   0.456   3.589  1.1183  0.8498  0.8487
  858THF     O113492   3.077   2.726   1.613  0.2019  0.4902 -0.2246
  858THF     C213493   2.977   2.638   1.552  0.2211  0.7713  0.6260
  858THF     C313494   3.107   2.825   1.516  0.3673 -0.2558  0.6312
  858THF     H413495   2.915   2.581   1.621 -0.5653  1.2152  0.3030
  858THF     H513496   3.034   2.571   1.487 -2.1703  1.4264 -2.4053
  858THF     H613497   3.159   2.910   1.559 -1.2228  0.6541  0.8377
  858THF     H713498   3.171   2.773   1.445  1.4969  1.5291  0.2836
  858THF     C813499   2.972   2.853   1.454  0.2307 -0.4377 -0.0827
  858THF     C913500   2.892   2.724   1.459 -0.1437  0.3686 -0.4030
  858THF    H1013501   2.974   2.897   1.354 -2.1218  0.0881  0.0429
  858THF    H1113502   2.922   2.922   1.522 -0.4573 -0.2334 -0.7770
  858THF    H1213503   2.788   2.727   1.490 -0.2160 -0.4106 -0.5526
  858THF    H1313504   2.894   2.684   1.358  1.9491  2.4963 -1.2960
  859THF     O113505   4.435   3.679   4.411 -0.1003  0.0762  0.0157
  859THF     C213506   4.370   3.778   4.496  0.5519  0.0187 -0.2156
  859THF     C313507   4.472   3.574   4.496 -0.5006  0.1489 -0.0470
  859THF     H413508   4.270   3.743   4.521  0.4903  0.5197  0.2594
  859THF     H513509   4.369   3.868   4.435  0.8214 -0.1484 -0.4708
  859THF     H613510   4.375   3.529   4.519 -1.5419  1.4001 -1.7473
  859THF     H713511   4.519   3.490   4.446 -3.2691 -1.1515 -0.6654
  859THF     C813512   4.539   3.639   4.614 -0.7642 -0.9806  0.1210
  859THF     C913513   4.468   3.774   4.617  0.3077  0.6345  0.4758
  859THF    H1013514   4.647   3.650   4.608 -0.8979  1.6201  1.3924
  859THF    H1113515   4.520   3.583   4.706 -2.3663 -0.1246  0.3499
  859THF    H1213516   4.419   3.801   4.711  1.0005  0.7023  0.8257
  859THF    H1313517   4.540   3.854   4.598 -0.2841  1.1564  0.4216
  860THF     O113518   2.818   5.458   3.327 -0.4359 -0.5975  0.8966
  860THF     C213519   2.737   5.562   3.369 -0.0745 -0.3172 -0.7392
  860THF     C313520   2.803   5.359   3.430  0.2320  0.7175  0.1092
  860THF     H413521   2.632   5.556   3.340 -0.4453 -0.4556  0.5635
  860THF     H513522   2.766   5.655   3.320 -0.8598  0.1101 -0.4204
  860THF     H613523   2.704   5.313   3.437 -0.0232  1.2446  0.0188
  860THF     H713524   2.888   5.292   3.429 -0.2900  0.0525 -1.3112
  860THF     C813525   2.820   5.443   3.562 -0.1195  0.0646 -0.1098
  860THF     C913526   2.766   5.579   3.518  0.0946 -0.7172 -0.3531
  860THF    H1013527   2.926   5.450   3.588  0.6637 -2.1237 -2.2778
  860THF    H1113528   2.776   5.407   3.655  0.1590 -1.0024 -0.3785
  860THF    H1213529   2.679   5.612   3.574  1.6029  0.0500  1.6257
  860THF    H1313530   2.840   5.652   3.549 -0.2039  0.3075 -1.9316
  861THF     O113531   1.878   3.488   1.948  0.0750 -0.0158 -0.0094
  861THF     C213532   1.779   3.465   2.046  0.1944  0.1734  0.1871
  861THF     C313533   1.998   3.478   2.026 -0.5542  0.1930  0.3502
  861THF     H413534   1.677   3.448   2.012 -0.1821  1.0416  0.8580
  861THF     H513535   1.781   3.558   2.103  1.9326  0.0683  0.3644
  861THF     H613536   2.085   3.482   1.961 -1.3710 -1.3600 -0.9238
  861THF     H713537   2.014   3.564   2.092  0.3004  0.3316 -0.0302
  861THF     C813538   1.983   3.361   2.123  0.1998  0.3779  0.3891
  861THF     C913539   1.829   3.357   2.140  0.3299  0.1288 -0.4499
  861THF    H1013540   2.034   3.372   2.219 -0.9096  0.2592  1.0041
  861THF    H1113541   2.009   3.272   2.066 -2.3862  0.7254 -1.5171
  861THF    H1213542   1.784   3.258   2.128 -1.0998  0.7385 -0.2876
  861THF    H1313543   1.799   3.381   2.242  2.1091 -1.2761  0.4651
  862THF     O113544   4.599   4.661   2.586 -0.4685 -0.1975  0.0241
  862THF     C213545   4.469   4.649   2.637 -0.3763  0.1714 -0.0716
  862THF     C313546   4.588   4.621   2.445  0.3914  0.7214  0.1034
  862THF     H413547   4.466   4.694   2.736  1.5952  0.6949 -0.2111
  862THF     H513548   4.447   4.545   2.660 -0.5673  0.6833  2.2736
  862THF     H613549   4.674   4.664   2.394  0.9120 -0.2205  0.1751
  862THF     H713550   4.583   4.513   2.427 -0.7867  1.0597 -1.9074
  862THF     C813551   4.453   4.688   2.399  1.3446  0.4048 -0.2290
  862THF     C913552   4.383   4.720   2.530  0.2491 -0.2376  0.2539
  862THF    H1013553   4.388   4.614   2.354 -0.0460 -0.2108  2.6051
  862THF    H1113554   4.467   4.775   2.335  0.9934  0.9153  0.3793
  862THF    H1213555   4.370   4.828   2.532 -1.5190 -0.2401 -3.3257
  862THF    H1313556   4.282   4.682   2.539 -0.8135  2.2802 -0.1785
  863THF     O113557   1.465   1.608   4.903  0.5566  0.4762 -0.1514
  863THF     C213558   1.465   1.632   5.040  0.6287 -0.6555 -0.1322
  863THF     C313559   1.473   1.469   4.894 -0.6198  0.0596  0.1481
  863THF     H413560   1.443   1.734   5.070  1.1058 -0.9165  1.2252
  863THF     H513561   1.567   1.610   5.074  0.5440  1.6080  1.8585
  863THF     H613562   1.436   1.438   4.796 -1.6975  0.9613  0.2524
  863THF     H713563   1.575   1.434   4.905  0.4657  2.5001 -1.4831
  863THF     C813564   1.386   1.418   5.001  0.7612 -0.3821 -0.2236
  863THF     C913565   1.370   1.530   5.098  0.1153  0.4889 -0.3862
  863THF    H1013566   1.425   1.326   5.043  1.4226  0.2709  0.6234
  863THF    H1113567   1.288   1.403   4.955  1.0901 -0.7827 -0.8092
  863THF    H1213568   1.270   1.569   5.078  0.6908  2.1283 -0.1658
  863THF    H1313569   1.381   1.504   5.203  0.6498  0.5073 -0.4330
  864THF     O113570   4.241   3.567   3.956  0.3549  0.8123  0.3065
  864THF     C213571   4.112   3.545   4.013  0.3119  0.6985  0.5648
  864THF     C313572   4.317   3.650   4.041 -0.6479  0.2265 -0.3102
  864THF     H413573   4.121   3.456   4.075  1.7595 -0.8793 -1.7474
  864THF     H513574   4.037   3.537   3.935  0.4359 -0.0842  0.5209
  864THF     H613575   4.359   3.579   4.113 -1.7102  0.3551  0.4491
  864THF     H713576   4.406   3.693   3.995 -0.8364  2.6369  1.3995
  864THF     C813577   4.223   3.741   4.116 -0.3907  0.0147 -0.6292
  864THF     C913578   4.087   3.679   4.090  0.4386  0.0516 -0.0797
  864THF    H1013579   4.224   3.843   4.079 -3.5707 -0.1005 -1.3022
  864THF    H1113580   4.251   3.746   4.221  2.5709  0.1125 -1.3383
  864THF    H1213581   4.032   3.667   4.183 -0.9193  2.4435 -0.4773
  864THF    H1313582   4.027   3.750   4.032 -1.8295  0.3964  2.4771
  865THF     O113583   5.425   1.047   4.104  0.5194  0.9607  0.4250
  865THF     C213584   5.315   1.136   4.080  0.2402 -0.0288 -0.0386
  865THF     C313585   5.484   1.093   4.227  0.3067  0.0879 -0.9561
  865THF     H413586   5.218   1.086   4.073  0.0527  0.5600 -2.7711
  865THF     H513587   5.322   1.183   3.982  0.3270 -2.1479 -1.1096
  865THF     H613588   5.500   1.010   4.296 -3.2375  0.8631  1.0397
  865THF     H713589   5.576   1.144   4.200  0.7509  0.6018  1.3308
  865THF     C813590   5.388   1.193   4.294 -0.0400  0.3375 -0.0621
  865THF     C913591   5.304   1.242   4.180 -0.3141 -0.7376 -0.1180
  865THF    H1013592   5.431   1.274   4.352  0.8081 -0.1426 -0.0073
  865THF    H1113593   5.317   1.145   4.362  1.5849 -3.0893 -0.6138
  865THF    H1213594   5.197   1.259   4.196 -0.5257 -1.3425 -0.8576
  865THF    H1313595   5.361   1.329   4.148  0.8098 -0.8123  1.5381
  866THF     O113596   0.032   0.882   2.749 -0.4647  0.3680 -0.1600
  866THF     C213597   0.148   0.917   2.811 -0.5297  0.1887 -0.1685
  866THF     C313598   0.008   0.749   2.801 -0.3321 -0.6625  0.1600
  866THF     H413599   0.145   0.916   2.920  1.8142 -0.4586 -0.0450
  866THF     H513600   0.186   1.013   2.777  1.0546 -0.2021  0.4061
  866THF     H613601  -0.019   0.744   2.906 -1.7095  0.8955 -0.0778
  866THF     H713602  -0.069   0.688   2.753 -0.3450 -0.7914  0.3433
  866THF     C813603   0.149   0.691   2.793  0.1748 -0.0982 -0.3139
  866THF     C913604   0.242   0.806   2.772 -0.5320  0.0165 -0.2427
  866THF    H1013605   0.147   0.626   2.705 -2.4596  0.9129 -1.1229
  866THF    H1113606   0.167   0.642   2.888 -1.1737  1.9055  1.0593
  866THF    H1213607   0.329   0.812   2.837  0.3918  3.2295 -1.5391
  866THF    H1313608   0.276   0.809   2.669  2.8067  0.8580  0.7631
  867THF     O113609   1.080   2.586   3.844  0.1790  0.2892  0.3477
  867THF     C213610   1.207   2.582   3.775 -0.1944 -0.0040 -0.5217
  867THF     C313611   1.109   2.612   3.979 -0.0444 -0.6347 -0.1078
  867THF     H413612   1.195   2.603   3.669  0.9669 -0.5771 -0.7812
  867THF     H513613   1.262   2.489   3.791 -0.7599 -0.1522  0.6593
  867THF     H613614   1.022   2.657   4.028 -0.8377 -2.0327 -0.1801
  867THF     H713615   1.107   2.522   4.041 -2.1952 -1.6459 -1.5450
  867THF     C813616   1.229   2.702   3.981  0.1937 -0.3007  0.4776
  867THF     C913617   1.276   2.704   3.840 -0.1681  0.2096  0.1450
  867THF    H1013618   1.311   2.666   4.043  3.0083  1.9100 -1.7096
  867THF    H1113619   1.193   2.801   4.009 -3.5062 -1.6589  1.0242
  867THF    H1213620   1.242   2.792   3.787  0.8850  1.2753  1.1773
  867THF    H1313621   1.384   2.689   3.844  0.1005  1.7394 -0.8076
  868THF     O113622   1.525   3.609   2.270  0.6095  0.4893  0.3712
  868THF     C213623   1.517   3.661   2.398  0.4506 -0.3331 -0.3602
  868THF     C313624   1.442   3.491   2.257  0.3419  0.1430 -0.2906
  868THF     H413625   1.424   3.717   2.409  0.5452 -0.4553  1.2572
  868THF     H513626   1.597   3.724   2.436 -0.3053  2.3806 -2.8823
  868THF     H613627   1.336   3.514   2.247 -0.0154 -0.7978  1.0570
  868THF     H713628   1.479   3.432   2.173 -0.1976 -1.3238  0.4582
  868THF     C813629   1.474   3.420   2.385 -1.1021 -0.6761  0.5887
  868THF     C913630   1.497   3.535   2.479  0.1539  0.6386 -0.8011
  868THF    H1013631   1.569   3.366   2.382 -0.1396  0.9003  1.8290
  868THF    H1113632   1.395   3.351   2.416 -0.7932 -1.1321  0.3772
  868THF    H1213633   1.410   3.541   2.545 -0.4117  1.8282 -1.6285
  868THF    H1313634   1.579   3.505   2.545 -3.2916 -1.9433  2.8089
  869THF     O113635   0.942   3.917   4.663 -0.0941 -0.3512 -0.0385
  869THF     C213636   0.899   3.835   4.768  0.7264 -0.5361  0.1210
  869THF     C313637   0.888   3.857   4.540 -0.4720  0.4538  0.1855
  869THF     H413638   0.906   3.887   4.864  0.2140  0.9755 -0.6233
  869THF     H513639   0.960   3.745   4.770 -1.0315 -1.8002 -0.6880
  869THF     H613640   0.865   3.942   4.476  0.1681  1.0841  0.7791
  869THF     H713641   0.949   3.791   4.478 -0.7936  0.6081 -0.3032
  869THF     C813642   0.755   3.783   4.584 -0.1080  0.5468  0.4788
  869THF     C913643   0.751   3.803   4.731  0.2497 -0.1001  0.4155
  869THF    H1013644   0.771   3.676   4.574  1.5099  0.6862  1.2216
  869THF    H1113645   0.671   3.815   4.522  0.4020 -1.4751 -1.3766
  869THF    H1213646   0.694   3.892   4.756  1.4858  0.9686 -0.4579
  869THF    H1313647   0.705   3.715   4.775  1.1169 -0.8283 -0.0870
  870THF     O113648   3.096   3.999   2.757  0.2855  0.0594  0.2638
  870THF     C213649   3.008   3.886   2.774 -0.3848  0.6269 -0.5023
  870THF     C313650   3.041   4.097   2.841 -0.3254 -0.0272 -0.1321
  870THF     H413651   3.052   3.831   2.857 -1.8483 -0.7211 -0.5688
  870THF     H513652   3.010   3.805   2.701 -1.8662 -0.4476  0.5736
  870THF     H613653   3.057   4.060   2.942  0.4189 -2.3744 -1.0543
  870THF     H713654   3.085   4.196   2.824 -0.7738  0.0399 -0.9460
  870THF     C813655   2.896   4.088   2.809 -0.2044 -0.2662  0.5351
  870THF     C913656   2.872   3.943   2.802  0.5310  0.6276  0.7807
  870THF    H1013657   2.867   4.141   2.718 -0.3663 -0.6191  0.3778
  870THF    H1113658   2.842   4.134   2.892  0.6147  0.5148  0.6499
  870THF    H1213659   2.831   3.897   2.893 -0.0999 -2.5217 -0.9452
  870THF    H1313660   2.808   3.932   2.714  0.3571  0.1950  0.9551
  871THF     O113661   3.713   0.654   4.308 -0.0102  0.4470  0.5544
  871THF     C213662   3.573   0.617   4.306 -0.2588  0.4182  0.5310
  871THF     C313663   3.775   0.565   4.394  0.0489 -0.3451  0.6320
  871THF     H413664   3.570   0.528   4.242  0.0899  0.0385  1.0406
  871THF     H513665   3.518   0.705   4.272  0.6583  1.9273  2.7569
  871THF     H613666   3.810   0.477   4.339  0.8372 -1.0520  2.1844
  871THF     H713667   3.867   0.606   4.435 -0.4940  1.5376  0.0683
  871THF     C813668   3.671   0.524   4.504 -0.1176 -0.3060  0.5934
  871THF     C913669   3.539   0.577   4.447 -1.1186 -0.1598 -0.1666
  871THF    H1013670   3.690   0.562   4.605  1.6915  0.1365  0.1265
  871THF    H1113671   3.661   0.416   4.509 -0.4607 -0.3644 -0.9095
  871THF    H1213672   3.461   0.501   4.456 -2.1542  0.8138 -0.7356
  871THF    H1313673   3.499   0.666   4.495 -0.3583  0.5624 -0.8431
  872THF     O113674   2.348   3.990   3.435 -0.1078  0.3784 -0.0222
  872THF     C213675   2.403   3.864   3.440 -0.2506 -0.1148  0.5887
  872THF     C313676   2.277   4.017   3.557  0.3562  0.0417 -0.2976
  872THF     H413677   2.494   3.848   3.498  2.0886  0.5394 -2.6140
  872THF     H513678   2.435   3.836   3.340 -0.6580 -1.1029  0.7128
  872THF     H613679   2.353   4.042   3.631 -0.3909  0.8334  0.2202
  872THF     H713680   2.206   4.096   3.535 -1.6476 -1.5743  0.0243
  872THF     C813681   2.210   3.876   3.574  0.0698  0.3788 -0.1051
  872THF     C913682   2.291   3.781   3.485 -0.2231 -0.6815 -0.4999
  872THF    H1013683   2.105   3.868   3.544  0.4541 -0.7533 -1.2210
  872THF    H1113684   2.198   3.840   3.676 -1.7021 -0.0447 -0.4300
  872THF    H1213685   2.316   3.689   3.536  0.9600 -0.8373 -1.3272
  872THF    H1313686   2.229   3.748   3.402 -1.8167 -1.3068  0.8793
  873THF     O113687   1.287   0.441   3.344 -0.1976  0.0346 -0.5034
  873THF     C213688   1.419   0.396   3.295  0.1437  0.6246 -0.1401
  873THF     C313689   1.180   0.370   3.276 -0.0869  0.3693 -0.6890
  873THF     H413690   1.459   0.327   3.369  2.2737  0.4205 -1.4179
  873THF     H513691   1.489   0.477   3.277  2.1202 -1.3135 -1.7155
  873THF     H613692   1.109   0.321   3.342 -0.1472  0.4497 -0.6947
  873THF     H713693   1.118   0.440   3.221 -1.8730 -1.6910 -1.4282
  873THF     C813694   1.252   0.264   3.182 -0.5906 -0.6118  0.7902
  873THF     C913695   1.385   0.334   3.156  0.3740  0.1526 -0.6694
  873THF    H1013696   1.201   0.239   3.088  0.3968 -0.6914  0.2656
  873THF    H1113697   1.259   0.175   3.244 -0.0393  0.8540  2.9552
  873THF    H1213698   1.457   0.263   3.115  1.0079  0.4895 -0.1769
  873THF    H1313699   1.365   0.414   3.085 -0.0084 -1.4005 -2.3837
  874THF     O113700   3.239   0.258   1.832  0.5317 -0.5662  0.0242
  874THF     C213701   3.241   0.219   1.967  1.0372  0.7136  0.5094
  874THF     C313702   3.370   0.277   1.789  0.2116  0.2217 -1.3107
  874THF     H413703   3.280   0.117   1.960  2.0398  1.1553 -0.6989
  874THF     H513704   3.142   0.225   2.011 -0.4037 -2.9334 -1.8109
  874THF     H613705   3.385   0.173   1.762 -2.9530 -0.7183  0.0909
  874THF     H713706   3.379   0.348   1.707 -1.3619  0.4979 -1.2862
  874THF     C813707   3.443   0.319   1.919  0.7904  0.5188  0.1977
  874THF     C913708   3.344   0.308   2.038  0.2710  0.3141  0.2603
  874THF    H1013709   3.471   0.424   1.914 -3.1351  1.7138 -0.2897
  874THF    H1113710   3.530   0.254   1.913  0.8664  0.7378 -1.4587
  874THF    H1213711   3.377   0.265   2.133 -0.4315 -1.7534 -0.3821
  874THF    H1313712   3.286   0.396   2.067 -0.8085  1.1693 -3.9069
  875THF     O113713   3.247   4.543   4.728 -0.1744 -0.5824  0.5871
  875THF     C213714   3.152   4.468   4.664 -0.2519  0.5703 -0.7429
  875THF     C313715   3.223   4.535   4.867  0.3724 -0.2204  0.6815
  875THF     H413716   3.187   4.457   4.561  1.4253  3.2706 -0.5683
  875THF     H513717   3.056   4.519   4.660 -0.2969  0.4441 -1.4548
  875THF     H613718   3.298   4.576   4.934 -0.4545  0.5931  1.1355
  875THF     H713719   3.133   4.589   4.897 -0.4641 -0.5856 -1.0339
  875THF     C813720   3.205   4.388   4.884 -0.8130  0.1566  0.1625
  875THF     C913721   3.149   4.343   4.750  0.7422  0.5020  0.6779
  875THF    H1013722   3.149   4.368   4.975  0.7997  2.1755  1.7042
  875THF    H1113723   3.307   4.350   4.885 -0.8926 -0.0597  0.0795
  875THF    H1213724   3.213   4.269   4.701 -1.0269  0.0508 -1.0613
  875THF    H1313725   3.065   4.277   4.773  3.2840 -3.0734  0.7359
  876THF     O113726   4.240   1.513   2.889  0.5378  0.1178 -0.1948
  876THF     C213727   4.256   1.655   2.895  0.0160  0.0486 -0.1392
  876THF     C313728   4.208   1.471   3.019  0.5044 -0.1834  0.7148
  876THF     H413729   4.164   1.712   2.880  0.8215  1.1552 -0.9683
  876THF     H513730   4.314   1.686   2.808 -1.1954 -0.8051 -1.2966
  876THF     H613731   4.102   1.479   3.045 -0.0577  0.2282 -1.5394
  876THF     H713732   4.239   1.368   3.039  1.3365  0.4389  2.9770
  876THF     C813733   4.295   1.555   3.111  0.2330  0.0436  0.9066
  876THF     C913734   4.323   1.675   3.033 -0.0654 -0.2446  0.3736
  876THF    H1013735   4.385   1.507   3.150  1.1308  0.0043 -1.1178
  876THF    H1113736   4.231   1.583   3.195  0.7808 -0.4148  1.4947
  876THF    H1213737   4.295   1.761   3.092  0.7195 -0.3224  0.8737
  876THF    H1313738   4.430   1.677   3.012 -0.0514  0.7497  0.5086
  877THF     O113739   4.457   3.081   1.895 -0.3520 -0.3163 -0.0461
  877THF     C213740   4.379   3.117   2.013  0.4469 -0.4927 -0.4279
  877THF     C313741   4.557   2.999   1.945  0.3910 -0.2049  0.2419
  877THF     H413742   4.279   3.133   1.973  0.3376  1.8543  0.5704
  877THF     H513743   4.418   3.213   2.049 -1.1731  0.4091 -0.9471
  877THF     H613744   4.618   2.938   1.878 -1.2309 -2.0919  0.3877
  877THF     H713745   4.628   3.063   1.997  0.6450 -0.7126  0.5262
  877THF     C813746   4.498   2.911   2.050  0.0679 -0.0857 -0.2528
  877THF     C913747   4.390   3.006   2.111  0.3288  1.1056 -0.3579
  877THF    H1013748   4.568   2.873   2.124 -4.1033 -0.3735  4.0140
  877THF    H1113749   4.446   2.824   2.009  1.4790 -1.0099 -0.1224
  877THF    H1213750   4.295   2.952   2.121  1.4717 -0.6295  2.5466
  877THF    H1313751   4.414   3.048   2.208  1.5603  1.0931 -0.6457
  878THF     O113752   0.047   4.262   0.826  0.6179  0.1186  0.2309
  878THF     C213753  -0.058   4.246   0.914 -0.1894 -0.2324 -0.5867
  878THF     C313754   0.053   4.132   0.756 -0.6661 -0.8720 -0.8351
  878THF     H413755  -0.078   4.344   0.958 -1.1165 -1.4112  1.8437
  878THF     H513756  -0.043   4.186   1.004  0.1058  1.6638  0.6823
  878THF     H613757   0.113   4.121   0.666  1.0730  2.7042 -0.3006
  878THF     H713758   0.089   4.050   0.817 -0.8570  0.4781  1.1714
  878THF     C813759  -0.094   4.108   0.724 -1.4591 -0.2105  0.6865
  878THF     C913760  -0.175   4.195   0.820  0.0124 -0.7071 -0.3637
  878THF    H1013761  -0.131   4.006   0.718 -0.0659 -0.7037  0.0013
  878THF    H1113762  -0.120   4.148   0.626  0.2741  0.3792  0.4220
  878THF    H1213763  -0.221   4.281   0.771 -2.7652 -0.7285  1.9562
  878THF    H1313764  -0.249   4.153   0.889  0.5049 -0.9494  0.0257
  879THF     O113765   4.817   3.437   4.212  0.0016  0.0854 -0.1322
  879THF     C213766   4.950   3.441   4.161 -0.7575  0.2466  0.2674
  879THF     C313767   4.814   3.554   4.298  0.2519  0.5824 -0.0708
  879THF     H413768   4.959   3.508   4.076  1.8208 -1.8010 -1.2113
  879THF     H513769   4.974   3.346   4.114 -0.4150  0.2038  0.5313
  879THF     H613770   4.828   3.649   4.246  1.8428 -0.2605 -1.2770
  879THF     H713771   4.717   3.555   4.347 -0.5084 -2.4368 -1.2644
  879THF     C813772   4.933   3.526   4.382  0.1493 -0.1360  0.2514
  879THF     C913773   5.032   3.480   4.285  0.3612  0.0235  0.4285
  879THF    H1013774   4.907   3.438   4.441  0.2328 -0.0372  0.4366
  879THF    H1113775   4.961   3.614   4.441  1.4122  0.3067 -0.9267
  879THF    H1213776   5.092   3.563   4.250 -1.8659  1.3489 -0.4826
  879THF    H1313777   5.099   3.404   4.326 -0.5058  0.5703  3.0528
  880THF     O113778   5.120   3.345   1.106  0.1126 -0.1928  0.2168
  880THF     C213779   5.180   3.355   0.980  0.5874 -0.2603 -0.4453
  880THF     C313780   5.151   3.211   1.153  0.1912 -0.3866 -0.2648
  880THF     H413781   5.248   3.440   0.979  2.2556 -1.5069  0.6065
  880THF     H513782   5.089   3.378   0.925  1.8863  1.9628 -1.8001
  880THF     H613783   5.248   3.223   1.202 -1.0024  0.9334  1.9280
  880THF     H713784   5.084   3.172   1.230 -1.3243  0.9788 -0.8318
  880THF     C813785   5.171   3.118   1.035 -0.1757 -0.0824  0.1331
  880THF     C913786   5.229   3.220   0.939  0.3231 -0.0006  0.3030
  880THF    H1013787   5.073   3.074   1.012  0.5095 -1.2467 -0.6552
  880THF    H1113788   5.221   3.023   1.055 -0.6249 -0.4322 -0.3489
  880THF    H1213789   5.336   3.227   0.961  0.7857 -3.5668 -0.2265
  880THF    H1313790   5.212   3.189   0.836  0.2157 -1.3674  0.7021
  881THF     O113791   0.629   3.556   1.469 -0.0603  0.4162 -0.2691
  881THF     C213792   0.573   3.685   1.474 -0.0045 -0.2407 -0.7336
  881THF     C313793   0.517   3.471   1.440 -0.4341 -0.1850 -0.6586
  881THF     H413794   0.636   3.774   1.464  0.7536 -0.2973  2.4255
  881THF     H513795   0.515   3.700   1.566 -1.9939 -3.1223 -1.3753
  881THF     H613796   0.555   3.377   1.400  1.9120  0.9127 -1.2263
  881THF     H713797   0.473   3.429   1.530  0.5080 -3.6421 -1.6522
  881THF     C813798   0.424   3.544   1.352 -0.3807 -0.1872 -0.1231
  881THF     C913799   0.472   3.684   1.366 -0.0773 -0.3718  0.4406
  881THF    H1013800   0.327   3.539   1.401 -0.4051 -1.6350 -0.2791
  881THF    H1113801   0.422   3.505   1.250 -0.1061 -0.5728  0.0172
  881THF    H1213802   0.523   3.711   1.273 -0.4834 -3.6527 -0.8594
  881THF    H1313803   0.405   3.770   1.376  0.0244 -0.4922  2.6393
  882THF     O113804   0.267   3.252   4.109 -0.0708 -0.5587 -0.0001
  882THF     C213805   0.157   3.289   4.026  0.0657 -0.4756  0.0012
  882THF     C313806   0.211   3.203   4.228  0.4108  0.1559 -0.0147
  882THF     H413807   0.197   3.300   3.926  1.4046 -0.2478  0.5349
  882THF     H513808   0.122   3.387   4.059 -0.2853 -0.3985 -0.5947
  882THF     H613809   0.284   3.149   4.289  1.2661  1.2581 -0.0302
  882THF     H713810   0.177   3.285   4.290 -0.5111 -1.1379  1.2616
  882THF     C813811   0.092   3.110   4.182 -0.3051  0.4530 -0.0726
  882THF     C913812   0.047   3.180   4.050 -0.2088 -0.2700 -0.3537
  882THF    H1013813   0.010   3.110   4.253 -0.1808 -1.2719  0.1310
  882THF    H1113814   0.129   3.008   4.167  1.5109  1.0075  0.4490
  882THF    H1213815   0.031   3.110   3.969 -0.1481 -0.6441 -0.0455
  882THF    H1313816  -0.050   3.230   4.058 -0.4335 -0.7905  0.3141
  883THF     O113817   3.773   4.542   1.913 -0.0804 -1.0521 -0.3029
  883THF     C213818   3.647   4.478   1.946  0.2355  0.2233  0.2050
  883THF     C313819   3.859   4.546   2.022  0.3199 -0.3154  0.2020
  883THF     H413820   3.665   4.370   1.948 -1.5515 -0.1441 -1.1503
  883THF     H513821   3.567   4.487   1.873 -1.2617 -1.6568  1.4916
  883THF     H613822   3.912   4.451   2.031  2.4173  0.4802 -2.3662
  883THF     H713823   3.933   4.625   2.019 -0.0207 -0.0240 -1.6174
  883THF     C813824   3.763   4.553   2.145 -0.3828 -0.6165  0.0021
  883THF     C913825   3.622   4.539   2.087 -0.0533 -0.2968  0.1423
  883THF    H1013826   3.766   4.645   2.205 -1.1134 -0.8726  0.4443
  883THF    H1113827   3.785   4.468   2.210  1.1611 -0.6656 -0.5465
  883THF    H1213828   3.556   4.476   2.146  0.8173  1.2499  2.9641
  883THF    H1313829   3.574   4.636   2.082  0.0074 -0.2807 -0.2204
  884THF     O113830   2.512   2.859   0.198  0.3805  0.2531 -0.1041
  884THF     C213831   2.614   2.827   0.287  0.9403  0.7632  0.3369
  884THF     C313832   2.574   2.866   0.071 -0.1589  0.5940 -0.1875
  884THF     H413833   2.576   2.771   0.372 -0.2173 -1.5326 -1.5688
  884THF     H513834   2.674   2.916   0.309  0.1712  1.7759 -1.3895
  884THF     H613835   2.506   2.873  -0.014  0.6491  2.6836 -0.7105
  884THF     H713836   2.645   2.949   0.068  1.9010 -1.0908 -0.7833
  884THF     C813837   2.650   2.737   0.072  0.1591  0.2678  0.0786
  884THF     C913838   2.698   2.723   0.217  0.2373 -0.1018  0.2136
  884THF    H1013839   2.726   2.749  -0.005  0.4534 -0.6821  0.2196
  884THF    H1113840   2.591   2.653   0.035  1.6914 -0.7968 -0.0236
  884THF    H1213841   2.684   2.626   0.264  0.6202  1.1748  3.2233
  884THF    H1313842   2.802   2.750   0.231  0.4724 -0.9771  0.2050
  885THF     O113843   3.271   4.043   4.298  0.1784 -0.3219 -0.7718
  885THF     C213844   3.297   4.056   4.438 -0.9946 -0.7005  0.3425
  885THF     C313845   3.189   3.924   4.289  0.4409  0.2819  0.3050
  885THF     H413846   3.249   4.143   4.483  2.9103  1.0759  1.4843
  885THF     H513847   3.400   4.085   4.457 -1.5141  1.4987  0.1437
  885THF     H613848   3.088   3.945   4.325  0.7757  0.2080  1.3104
  885THF     H713849   3.180   3.871   4.194  0.8995  1.3483 -0.3506
  885THF     C813850   3.253   3.840   4.392  0.2580  0.5450  0.2498
  885THF     C913851   3.252   3.928   4.509 -0.1565  0.0214 -0.2582
  885THF    H1013852   3.359   3.821   4.372  0.4147  3.1563 -2.0500
  885THF    H1113853   3.208   3.743   4.412  3.2298 -0.6678  1.7650
  885THF    H1213854   3.150   3.944   4.546  0.5443  0.3355  1.6408
  885THF    H1313855   3.311   3.885   4.590 -1.5881  0.1319  0.8916
  886THF     O113856   3.344   3.541   4.216 -0.0891  0.5512 -0.4861
  886THF     C213857   3.336   3.491   4.349  0.1011  0.3986  0.8835
  886THF     C313858   3.471   3.500   4.166 -0.1894 -0.3897 -0.1571
  886THF     H413859   3.311   3.385   4.352 -2.2074  0.9096  1.1886
  886THF     H513860   3.252   3.538   4.400  0.3266  1.3283  0.4283
  886THF     H613861   3.452   3.416   4.099  0.2142 -0.2569 -0.4403
  886THF     H713862   3.516   3.578   4.106  1.6769  0.4062  2.1119
  886THF     C813863   3.558   3.468   4.287  0.3886 -0.9904  0.2226
  886THF     C913864   3.477   3.512   4.409 -0.3155  0.0331 -0.0297
  886THF    H1013865   3.658   3.510   4.278 -0.6859  2.0994  1.4943
  886THF    H1113866   3.585   3.362   4.293  1.1088 -0.8913 -0.9448
  886THF    H1213867   3.500   3.452   4.497  2.4449 -0.2329 -0.8611
  886THF    H1313868   3.474   3.620   4.426  1.2364  0.0807  0.0498
  887THF     O113869   1.390   0.002   1.474 -0.4007  0.5503  0.7315
  887THF     C213870   1.459   0.115   1.528 -0.1138 -0.4325 -0.3668
  887THF     C313871   1.482  -0.106   1.500 -0.1392  0.2153  0.2106
  887THF     H413872   1.459   0.097   1.635  0.0369 -2.8595 -0.7232
  887THF     H513873   1.415   0.212   1.506  0.5242 -0.2808 -1.0153
  887THF     H613874   1.455  -0.146   1.598 -2.6717 -0.7678 -0.8068
  887THF     H713875   1.462  -0.192   1.436 -0.7842 -0.9757  1.9201
  887THF     C813876   1.623  -0.050   1.492  0.4351 -0.6833 -0.1191
  887THF     C913877   1.604   0.104   1.487 -0.2987 -0.1063 -0.0862
  887THF    H1013878   1.672  -0.082   1.400  0.8353  0.9348 -0.4954
  887THF    H1113879   1.685  -0.086   1.574  2.0104  0.7343 -0.6365
  887THF    H1213880   1.673   0.166   1.544  0.9554  1.6154 -3.2652
  887THF    H1313881   1.626   0.128   1.383  0.6192  0.0917  0.1458
  888THF     O113882   1.505   3.800   1.790 -0.3047  0.6031 -0.8113
  888THF     C213883   1.402   3.876   1.849  0.2032  0.6421 -0.2312
  888THF     C313884   1.447   3.676   1.757 -0.7859  0.2038 -0.3368
  888THF     H413885   1.342   3.910   1.764  1.8321 -0.8084 -2.0845
  888THF     H513886   1.455   3.960   1.892  1.0766 -0.2238  0.4409
  888THF     H613887   1.370   3.684   1.681 -1.4005 -2.1149 -0.0491
  888THF     H713888   1.516   3.597   1.726  0.1148  0.8692 -0.0881
  888THF     C813889   1.387   3.631   1.883 -0.1839 -0.2974  0.1952
  888THF     C913890   1.342   3.769   1.944 -0.3680  0.6778  0.5327
  888THF    H1013891   1.461   3.579   1.944 -0.9063 -0.1447  1.2171
  888THF    H1113892   1.310   3.556   1.863  1.2382 -2.2785  1.6903
  888THF    H1213893   1.234   3.779   1.948 -0.4259 -0.0973  1.0060
  888THF    H1313894   1.385   3.775   2.044  0.0140 -2.7016  0.6776
  889THF     O113895   2.183   3.357   1.464 -0.0620  0.6272 -0.1861
  889THF     C213896   2.201   3.495   1.463 -0.6286  0.1047 -0.0191
  889THF     C313897   2.080   3.317   1.553 -0.2273 -1.1322 -0.2818
  889THF     H413898   2.125   3.551   1.408 -1.5588 -0.7961  0.3181
  889THF     H513899   2.301   3.518   1.426  0.2205  0.1513  2.1565
  889THF     H613900   1.990   3.309   1.492  0.3685 -0.0802 -1.3298
  889THF     H713901   2.099   3.222   1.603 -0.6676 -0.3820  1.3835
  889THF     C813902   2.085   3.428   1.660  0.1016 -0.2662 -0.7112
  889THF     C913903   2.192   3.527   1.608 -0.0803  0.0985 -0.9637
  889THF    H1013904   2.109   3.379   1.754 -2.7264 -1.5585 -0.5698
  889THF    H1113905   1.996   3.487   1.682 -0.4754 -1.1290 -0.6960
  889THF    H1213906   2.159   3.630   1.620  1.2699  0.3597  0.9539
  889THF    H1313907   2.285   3.493   1.654  0.6400  1.2629 -1.4956
  890THF     O113908   4.105   0.560   5.179  0.1812  0.3521 -0.4699
  890THF     C213909   4.198   0.539   5.283  0.3126 -0.3720  0.1859
  890THF     C313910   4.042   0.436   5.144 -0.8694 -0.3977  0.1719
  890THF     H413911   4.144   0.528   5.377  0.8411 -1.3654  0.3880
  890THF     H513912   4.257   0.630   5.294 -0.9898  0.7694 -1.7013
  890THF     H613913   3.959   0.436   5.215  0.8513  1.2780  2.3221
  890THF     H713914   3.998   0.424   5.044  2.9757 -1.0012 -1.6113
  890THF     C813915   4.154   0.331   5.174 -0.4249  0.1998 -0.4943
  890THF     C913916   4.264   0.406   5.252  0.8640 -0.3753 -0.2156
  890THF    H1013917   4.192   0.306   5.075  0.2378  3.8397 -1.2870
  890THF    H1113918   4.124   0.237   5.221 -1.5983  0.8615  0.1188
  890THF    H1213919   4.294   0.349   5.340 -1.8254 -0.2869  0.8416
  890THF    H1313920   4.343   0.429   5.180 -0.2567 -2.7688 -2.4043
  891THF     O113921   4.569   3.206   0.384 -0.1725  0.8182  0.0182
  891THF     C213922   4.468   3.204   0.484 -0.1509  0.3768  0.4877
  891THF     C313923   4.515   3.147   0.261 -0.5773  0.4285  0.5010
  891THF     H413924   4.473   3.271   0.569 -0.6064 -0.9847  1.6236
  891THF     H513925   4.477   3.105   0.528  2.3521  0.6549  0.7040
  891THF     H613926   4.591   3.184   0.192 -0.2418  0.1354  0.7113
  891THF     H713927   4.500   3.040   0.275 -0.9711  0.2277 -1.1484
  891THF     C813928   4.377   3.214   0.252 -0.1762  0.0512 -0.6801
  891THF     C913929   4.334   3.216   0.407 -0.5614 -0.4235  0.0519
  891THF    H1013930   4.302   3.148   0.207 -0.0591 -2.4222  2.3669
  891THF    H1113931   4.385   3.315   0.212  2.6021  0.2090  0.0276
  891THF    H1213932   4.275   3.302   0.438 -0.4080 -0.8657  1.6978
  891THF    H1313933   4.281   3.128   0.442  0.3845 -0.9789  0.1190
  892THF     O113934   3.664   3.468   5.060  0.5385  0.3860 -0.1549
  892THF     C213935   3.686   3.544   5.179  0.0011 -0.2222  0.2328
  892THF     C313936   3.789   3.401   5.032  0.4232 -0.0908 -0.1481
  892THF     H413937   3.702   3.472   5.259 -0.4123 -0.1286  0.4023
  892THF     H513938   3.607   3.615   5.205 -0.2086  0.3064 -1.7018
  892THF     H613939   3.789   3.312   5.095  1.9356 -0.8291 -1.1100
  892THF     H713940   3.800   3.381   4.925 -0.3331  1.8414 -0.6257
  892THF     C813941   3.898   3.506   5.067  0.1908 -0.0918 -0.3640
  892THF     C913942   3.817   3.612   5.148  0.1082  0.1537 -0.2556
  892THF    H1013943   3.948   3.538   4.976 -0.3540 -0.2802 -0.7362
  892THF    H1113944   3.979   3.459   5.123  0.1632 -0.2537 -0.4609
  892THF    H1213945   3.878   3.638   5.234 -0.1711  0.3421 -0.1133
  892THF    H1313946   3.784   3.704   5.100  0.3721 -0.1237 -0.9793
  893THF     O113947   0.783   4.926   4.304 -0.0446  0.7215 -0.0339
  893THF     C213948   0.918   4.878   4.267 -0.5920  0.0153 -0.2962
  893THF     C313949   0.689   4.830   4.263  0.5006  0.8870  0.0845
  893THF     H413950   0.983   4.835   4.344 -1.6547 -1.4000 -0.1664
  893THF     H513951   0.983   4.953   4.222 -0.8363 -0.4727 -1.4932
  893THF     H613952   0.683   4.748   4.335  2.1403 -0.1899 -0.9561
  893THF     H713953   0.584   4.860   4.274  0.1639  0.1604 -1.0346
  893THF     C813954   0.748   4.783   4.137 -1.0321  0.2017  0.9026
  893THF     C913955   0.903   4.765   4.162  0.2994 -0.8835  0.0118
  893THF    H1013956   0.734   4.862   4.063 -1.6074  0.5831  1.4025
  893THF    H1113957   0.693   4.696   4.101  2.5366 -1.0580 -2.2047
  893THF    H1213958   0.916   4.662   4.195 -0.4489 -0.9032  0.2645
  893THF    H1313959   0.953   4.775   4.066 -0.6726 -1.7658 -0.6033
  894THF     O113960   4.812   3.615   2.610 -0.0839  0.4375 -0.2367
  894THF     C213961   4.682   3.672   2.613 -0.2951 -0.3409  0.1888
  894THF     C313962   4.811   3.503   2.695 -0.0918 -0.0940  0.3515
  894THF     H413963   4.646   3.659   2.511  0.9967  0.1547 -0.3442
  894THF     H513964   4.679   3.779   2.634 -1.6194 -0.4690  0.7951
  894THF     H613965   4.861   3.421   2.643  0.1504  0.3594 -0.1462
  894THF     H713966   4.868   3.525   2.785  1.2547 -4.5217  0.7893
  894THF     C813967   4.673   3.464   2.725  0.5401 -1.2751  0.0331
  894THF     C913968   4.596   3.599   2.712  0.2498 -0.4828 -0.4781
  894THF    H1013969   4.657   3.418   2.823  0.0447 -1.8343 -0.2986
  894THF    H1113970   4.633   3.395   2.650  0.1797 -0.5849 -0.4124
  894THF    H1213971   4.495   3.584   2.674  1.2016 -0.7428 -3.0773
  894THF    H1313972   4.590   3.645   2.811  0.8498 -0.9857 -0.1980
  895THF     O113973   3.964   0.657   0.045 -0.1882  0.2984 -0.8792
  895THF     C213974   4.013   0.774  -0.029 -0.2934 -0.2770 -1.5072
  895THF     C313975   4.037   0.652   0.166 -0.2770 -0.6848  0.4705
  895THF     H413976   3.947   0.806  -0.109  1.4743 -0.1390 -2.9600
  895THF     H513977   4.109   0.760  -0.079  0.4368 -0.4654 -0.1207
  895THF     H613978   3.967   0.617   0.241 -1.8040 -2.7489 -1.7422
  895THF     H713979   4.114   0.575   0.171  0.5200  0.1140  0.8651
  895THF     C813980   4.102   0.784   0.191 -0.1896  0.0797 -0.4690
  895THF     C913981   4.042   0.876   0.086 -0.3953  0.3026 -0.0178
  895THF    H1013982   4.210   0.775   0.178  0.1949  1.8635  1.1434
  895THF    H1113983   4.099   0.825   0.291  0.3910 -1.4115  0.2006
  895THF    H1213984   3.953   0.926   0.122 -1.6413 -1.7960 -0.0015
  895THF    H1313985   4.114   0.950   0.050 -0.2999 -0.0438 -0.5496
  896THF     O113986   2.197   5.353   0.721  0.1331  0.1839 -0.0008
  896THF     C213987   2.124   5.454   0.653  0.2536 -0.2586  0.2429
  896THF     C313988   2.289   5.285   0.639 -0.5676  0.1131  0.3229
  896THF     H413989   2.173   5.551   0.663 -0.8243  0.2033  1.2729
  896THF     H513990   2.025   5.459   0.698 -0.2180 -1.1073 -0.6589
  896THF     H613991   2.393   5.304   0.667 -0.5622  2.8421 -1.1051
  896THF     H713992   2.260   5.180   0.633 -2.0344  0.5653 -2.0567
  896THF     C813993   2.260   5.344   0.497  0.0981 -0.4112 -0.0404
  896THF     C913994   2.123   5.412   0.509 -0.8975  0.3092 -0.1489
  896THF    H1013995   2.276   5.271   0.418 -0.2037  0.7019 -1.1661
  896THF    H1113996   2.330   5.422   0.467 -1.9170  0.5199 -2.8480
  896THF    H1213997   2.097   5.482   0.430  2.3646 -0.8506 -2.4623
  896THF    H1313998   2.050   5.333   0.489 -1.3715  0.5533  0.5651
  897THF     O113999   2.463   3.203   0.753 -0.2313  0.3541 -0.2577
  897THF     C214000   2.572   3.219   0.837  0.7014  0.4999  1.0787
  897THF     C314001   2.451   3.067   0.716 -0.3184 -0.1113  0.3508
  897THF     H414002   2.564   3.316   0.886 -1.5178 -0.0361  1.9091
  897THF     H514003   2.674   3.219   0.798  0.6605 -1.2047  0.9090
  897THF     H614004   2.355   3.027   0.683 -0.8520 -1.7542  3.4438
  897THF     H714005   2.521   3.035   0.639 -2.5300 -1.1495 -1.3218
  897THF     C814006   2.501   2.996   0.845 -0.5386 -0.1372  0.1729
  897THF     C914007   2.549   3.106   0.935  0.1350  0.0687 -0.5174
  897THF    H1014008   2.574   2.921   0.816 -1.3041  0.0072 -2.3407
  897THF    H1114009   2.428   2.934   0.898  1.5279 -1.7065  1.3681
  897THF    H1214010   2.481   3.134   1.015  0.4090 -1.7827  0.4124
  897THF    H1314011   2.647   3.077   0.973 -1.0000 -1.6546  1.2233
  898THF     O114012   1.290   2.175   2.432 -0.0593  1.2596 -0.6832
  898THF     C214013   1.293   2.140   2.570  0.4787 -0.9453 -0.1864
  898THF     C314014   1.235   2.060   2.362  0.6038 -0.0797 -0.4958
  898THF     H414015   1.306   2.217   2.645 -1.6653 -1.4130  0.7433
  898THF     H514016   1.377   2.070   2.575  1.0871 -0.2384 -0.2851
  898THF     H614017   1.203   2.097   2.265 -1.6522 -1.6259 -0.4258
  898THF     H714018   1.313   1.984   2.350 -0.2620 -0.9450 -0.8071
  898THF     C814019   1.125   2.011   2.456  0.3186 -0.2130 -0.0338
  898THF     C914020   1.156   2.073   2.593 -0.5460  0.2589 -0.1670
  898THF    H1014021   1.108   1.903   2.453 -1.8221  0.0910 -0.4360
  898THF    H1114022   1.040   2.060   2.408  0.6872 -0.0362 -0.5088
  898THF    H1214023   1.086   2.148   2.630  0.1308  1.5879 -1.4936
  898THF    H1314024   1.153   1.988   2.661 -1.1852  0.2251 -0.2328
  899THF     O114025   3.595   2.880   2.287 -0.1956  0.3341 -0.9505
  899THF     C214026   3.538   3.009   2.306 -0.1087 -0.4055 -0.8136
  899THF     C314027   3.493   2.794   2.344  0.4545  0.4290 -0.0750
  899THF     H414028   3.596   3.078   2.245 -0.4037 -0.0856 -0.7312
  899THF     H514029   3.561   3.035   2.409 -0.8843  0.7257 -0.9139
  899THF     H614030   3.495   2.697   2.293 -2.6468 -1.0822  2.3451
  899THF     H714031   3.510   2.770   2.449 -0.2028  1.5578  0.2986
  899THF     C814032   3.358   2.846   2.321  0.1794  0.0232  0.1029
  899THF     C914033   3.393   2.988   2.278 -0.4236 -0.0131 -0.3503
  899THF    H1014034   3.296   2.847   2.411  2.2783 -1.1793  1.6439
  899THF    H1114035   3.307   2.778   2.253  1.4268 -0.3907 -0.4349
  899THF    H1214036   3.392   2.998   2.170  5.3135  0.4253 -0.7056
  899THF    H1314037   3.331   3.064   2.326  0.3859  0.6298 -0.2774
  900THF     O114038   0.575   0.612   1.196  0.1110 -0.1325  0.2149
  900THF     C214039   0.431   0.637   1.185 -0.9830 -0.7093  0.4395
  900THF     C314040   0.612   0.662   1.330  0.4136 -0.5075 -0.2870
  900THF     H414041   0.370   0.559   1.230  0.1081 -0.8612  1.7166
  900THF     H514042   0.409   0.643   1.078 -0.3206  0.3452  0.3521
  900THF     H614043   0.588   0.586   1.403 -0.6510  0.3183  0.2539
  900THF     H714044   0.720   0.680   1.334  0.2007  0.6035  1.0323
  900THF     C814045   0.520   0.784   1.358  0.3718  0.4977  0.2390
  900THF     C914046   0.405   0.773   1.253  0.2752  0.0312 -0.4509
  900THF    H1014047   0.585   0.870   1.344  1.6997 -0.5950 -0.5862
  900THF    H1114048   0.478   0.778   1.459 -1.6919 -3.5301 -0.6657
  900THF    H1214049   0.309   0.779   1.305  0.3067 -0.8005 -0.2863
  900THF    H1314050   0.428   0.858   1.189 -0.1433  0.6939  0.2651
  901THF     O114051   0.286   2.227   0.289 -0.6898  0.1304 -0.4178
  901THF     C214052   0.220   2.107   0.266  0.8250 -0.6017  0.0044
  901THF     C314053   0.402   2.193   0.364  0.0485  0.7641  0.0803
  901THF     H414054   0.283   2.058   0.191  0.8863  0.0970 -0.4089
  901THF     H514055   0.119   2.124   0.231  1.3001  1.7081 -0.3894
  901THF     H614056   0.475   2.164   0.288 -2.2507 -1.2816 -1.4745
  901THF     H714057   0.453   2.276   0.414 -0.6411  1.4439 -0.3153
  901THF     C814058   0.356   2.074   0.458 -0.9596 -0.6370  0.1041
  901THF     C914059   0.222   2.030   0.400 -0.3554 -0.1978 -0.5107
  901THF    H1014060   0.346   2.110   0.560  0.4707  0.6645 -0.1844
  901THF    H1114061   0.439   2.003   0.461 -1.7069 -1.4855  1.9014
  901THF    H1214062   0.223   1.924   0.374  2.1774 -0.8269  1.6472
  901THF    H1314063   0.148   2.057   0.475  0.6771  4.6431 -0.8705
  902THF     O114064   3.455   3.972   1.709  0.5453  0.3591  1.0498
  902THF     C214065   3.324   3.952   1.643 -0.2178 -0.4016  0.0373
  902THF     C314066   3.527   3.847   1.710  0.1139 -0.0334 -0.5504
  902THF     H414067   3.308   4.013   1.554 -0.3932 -1.1927 -0.4776
  902THF     H514068   3.234   3.970   1.702 -0.2624 -1.1730  0.2128
  902THF     H614069   3.584   3.846   1.617  1.2923 -1.5324  0.1448
  902THF     H714070   3.583   3.836   1.803  0.0028  2.5991 -0.0805
  902THF     C814071   3.415   3.749   1.714  0.3660  0.4974 -0.3701
  902THF     C914072   3.314   3.800   1.619  0.5363 -0.3070  0.6718
  902THF    H1014073   3.382   3.746   1.818  2.0157 -1.5762  0.1584
  902THF    H1114074   3.451   3.649   1.692  1.1826  0.4256  1.1063
  902THF    H1214075   3.332   3.784   1.513 -1.4382  0.4937  0.1722
  902THF    H1314076   3.213   3.772   1.647 -0.2672  0.7442 -1.0178
  903THF     O114077   3.948   1.103   3.492  0.6962 -0.3108 -0.3914
  903THF     C214078   3.808   1.128   3.480 -0.8147 -0.2824  0.1458
  903THF     C314079   3.982   1.138   3.629  0.2135  0.0130  0.5390
  903THF     H414080   3.761   1.031   3.494  1.3403 -1.5396 -0.8098
  903THF     H514081   3.783   1.161   3.379 -0.2289 -0.4306 -0.0519
  903THF     H614082   3.940   1.065   3.699  0.3194 -0.9459 -0.3666
  903THF     H714083   4.089   1.144   3.650  0.4670 -0.6742 -0.4723
  903THF     C814084   3.907   1.269   3.641  0.6501 -0.8523  0.7767
  903THF     C914085   3.774   1.242   3.577  0.2515  0.1539 -0.3027
  903THF    H1014086   3.961   1.352   3.594 -1.8906  0.2228 -0.4892
  903THF    H1114087   3.888   1.297   3.744  1.9105 -2.2291  1.4093
  903THF    H1214088   3.699   1.197   3.641 -1.3068  1.9062 -0.7923
  903THF    H1314089   3.721   1.327   3.534  0.4698 -0.9988 -3.0738
  904THF     O114090   1.121   4.185   3.911 -0.2608  0.1809  0.1061
  904THF     C214091   1.029   4.167   3.805  0.1010 -0.1922 -0.3304
  904THF     C314092   1.049   4.258   4.019 -0.4561 -0.2307 -0.2143
  904THF     H414093   0.962   4.087   3.836 -0.4517 -0.6417 -2.5347
  904THF     H514094   1.078   4.135   3.713  0.2123 -0.0933 -0.3074
  904THF     H614095   0.978   4.193   4.069 -1.8200 -0.0943 -1.8902
  904THF     H714096   1.114   4.304   4.094  1.5330 -3.5198  0.2791
  904THF     C814097   0.976   4.362   3.936 -0.0820  0.3134  0.4423
  904THF     C914098   0.952   4.297   3.796  0.1112 -0.2098 -0.3699
  904THF    H1014099   1.045   4.445   3.919  0.4269 -0.5786 -2.5006
  904THF    H1114100   0.887   4.395   3.990  0.3753  1.4952  0.4932
  904THF    H1214101   0.849   4.283   3.763 -0.4370 -0.5005  1.3601
  904THF    H1314102   1.001   4.365   3.727  0.3175 -1.8516 -1.9015
  905THF     O114103   2.959   4.770   5.309  0.1384 -0.8762  0.0159
  905THF     C214104   3.040   4.729   5.202 -0.1194  0.4889 -0.2517
  905THF     C314105   3.027   4.733   5.430  0.2084 -0.4994  0.3279
  905THF     H414106   3.127   4.793   5.186 -0.2173  0.9677  1.0358
  905THF     H514107   2.990   4.721   5.105  0.3136 -1.8984 -0.3291
  905THF     H614108   3.089   4.814   5.469 -1.0341  0.0005  1.3052
  905THF     H714109   2.963   4.718   5.516 -0.9644  0.5316 -0.3264
  905THF     C814110   3.101   4.602   5.394  0.3759  0.0441 -0.7466
  905THF     C914111   3.074   4.592   5.242 -0.5400  0.7418  0.1281
  905THF    H1014112   3.044   4.527   5.449  0.2362  1.5809  1.3534
  905THF    H1114113   3.201   4.608   5.438 -0.8763  1.4879  2.1664
  905THF    H1214114   3.155   4.559   5.177 -0.4015  0.7209  0.3076
  905THF    H1314115   2.995   4.521   5.218  0.6937 -0.7371  0.2913
  906THF     O114116   0.318   5.015   2.006  0.1904 -0.3322 -0.2951
  906THF     C214117   0.297   4.882   2.044  0.2636  0.1525  0.4770
  906THF     C314118   0.233   5.103   2.078 -0.4298  0.1239 -0.6077
  906THF     H414119   0.368   4.848   2.120 -0.5015 -0.2455  1.0247
  906THF     H514120   0.329   4.824   1.958  0.8268  1.8655 -0.5138
  906THF     H614121   0.291   5.126   2.168  1.3632 -1.0295 -1.4015
  906THF     H714122   0.207   5.194   2.024  1.8346  2.3275  1.6993
  906THF     C814123   0.109   5.018   2.112  0.0034  0.2245  0.3881
  906THF     C914124   0.156   4.878   2.098 -0.0381  0.5022  0.0234
  906THF    H1014125   0.021   5.030   2.048 -0.7320 -1.0391  1.1138
  906THF    H1114126   0.073   5.032   2.214 -1.2231 -0.7299  0.1172
  906THF    H1214127   0.156   4.829   2.195 -0.5252  1.8953  0.7519
  906THF    H1314128   0.089   4.833   2.025  1.2380 -1.8600  0.2074
  907THF     O114129   3.819   2.493   0.836  0.1939  0.3443 -0.1359
  907THF     C214130   3.906   2.543   0.939  0.2287 -0.1847 -0.1759
  907THF     C314131   3.878   2.519   0.711 -0.0250 -0.0480  0.6880
  907THF     H414132   3.973   2.461   0.964 -1.1006 -1.2338  0.0404
  907THF     H514133   3.853   2.581   1.025  2.6990  0.0669  1.3411
  907THF     H614134   3.957   2.450   0.680 -0.5994 -0.0236 -0.9069
  907THF     H714135   3.805   2.522   0.631  1.1853  3.1915 -0.4541
  907THF     C814136   3.938   2.661   0.729  0.6381  0.8753  0.1721
  907THF     C914137   3.975   2.666   0.876  0.2238  0.0361 -0.1764
  907THF    H1014138   3.857   2.732   0.713  1.4434  1.9125  0.6132
  907THF    H1114139   4.010   2.691   0.654 -0.3645  2.2789 -0.2785
  907THF    H1214140   4.083   2.652   0.880  0.1172 -0.5138  1.1786
  907THF    H1314141   3.937   2.760   0.915  1.1312  0.6114 -0.6489
  908THF     O114142   5.111   0.394   4.785  0.7525  0.1752 -0.6531
  908THF     C214143   5.038   0.414   4.906  0.0998 -0.7523  0.1207
  908THF     C314144   5.028   0.426   4.681 -0.0514 -0.4031  0.0038
  908THF     H414145   5.117   0.446   4.974  0.5214 -0.4740 -0.4928
  908THF     H514146   4.989   0.321   4.935 -1.5997 -0.7177 -2.3141
  908THF     H614147   5.095   0.491   4.624  1.8076 -0.6517  1.8110
  908THF     H714148   4.990   0.340   4.625  0.8434  0.2084 -1.6210
  908THF     C814149   4.918   0.518   4.734  0.9307  0.5407  0.1774
  908THF     C914150   4.933   0.522   4.878  0.3661 -0.3208  0.1330
  908THF    H1014151   4.822   0.472   4.712  0.2449  1.8563  0.3658
  908THF    H1114152   4.922   0.616   4.687  1.0769  0.5677  0.2458
  908THF    H1214153   4.970   0.622   4.899 -2.1191  1.0507 -1.4868
  908THF    H1314154   4.843   0.507   4.938 -0.5269  2.3078 -0.4048
  909THF     O114155   2.592   2.280   0.202  0.5993 -0.1053 -0.0645
  909THF     C214156   2.675   2.291   0.094  0.0533  0.3352  0.1225
  909THF     C314157   2.573   2.142   0.224 -0.6776 -0.0988  0.0386
  909THF     H414158   2.724   2.385   0.072  0.2606  0.5050  1.2501
  909THF     H514159   2.617   2.284   0.002 -0.8646 -0.8511  0.7542
  909THF     H614160   2.542   2.128   0.327 -1.6623  2.9153  0.2576
  909THF     H714161   2.497   2.099   0.159 -0.8138  0.4344 -0.1640
  909THF     C814162   2.695   2.071   0.186 -0.9446  0.1060 -0.1121
  909THF     C914163   2.774   2.175   0.105 -0.7794 -0.0357 -0.3538
  909THF    H1014164   2.678   1.982   0.126  0.6565  0.0740 -0.5479
  909THF    H1114165   2.763   2.042   0.266  1.0937  1.2772 -1.3453
  909THF    H1214166   2.866   2.209   0.152  0.2656  4.7542 -4.8808
  909THF    H1314167   2.796   2.143   0.003 -1.0060 -1.4396  0.0250
  910THF     O114168   2.029   1.011   0.882 -0.2556  0.2785  0.1022
  910THF     C214169   2.026   1.102   0.767 -0.5360  0.2687 -0.7391
  910THF     C314170   1.994   1.089   0.991  0.1740  0.1207 -0.6090
  910THF     H414171   1.972   1.052   0.687 -1.1521 -0.3038  0.0266
  910THF     H514172   2.131   1.113   0.739 -0.0720 -2.6174 -0.4528
  910THF     H614173   1.956   1.032   1.076 -1.7601  0.5582 -1.1208
  910THF     H714174   2.079   1.147   1.025 -0.6972  0.1794  1.6656
  910THF     C814175   1.879   1.176   0.943  0.7508 -0.5615  0.3068
  910THF     C914176   1.940   1.221   0.813  0.2591  0.1064  1.0269
  910THF    H1014177   1.865   1.259   1.011  0.4202  1.6543 -2.2953
  910THF    H1114178   1.782   1.127   0.937 -0.1477  1.1969 -0.3227
  910THF    H1214179   1.866   1.245   0.737  0.1120 -1.6710  0.5631
  910THF    H1314180   2.009   1.304   0.828  1.5246  0.2383 -3.8784
  911THF     O114181   1.792   4.074   4.281 -0.3734 -0.1838 -0.2579
  911THF     C214182   1.858   4.182   4.211  0.8736  0.1281  0.0862
  911THF     C314183   1.679   4.028   4.201 -0.2258 -0.6828 -0.0338
  911THF     H414184   1.962   4.198   4.241  0.7243  1.2462  0.0642
  911THF     H514185   1.809   4.279   4.222 -2.0258 -1.2763  0.3149
  911THF     H614186   1.635   3.932   4.228 -0.3019 -1.4641 -2.6510
  911THF     H714187   1.603   4.106   4.190  0.7807  0.6384  1.7886
  911THF     C814188   1.749   4.012   4.066  0.0700  0.4539  0.2909
  911THF     C914189   1.856   4.125   4.072  0.0352  0.2292 -0.2919
  911THF    H1014190   1.684   4.010   3.978 -2.0963 -2.6355  1.7625
  911THF    H1114191   1.799   3.915   4.064 -2.4063 -0.9310 -2.3066
  911THF    H1214192   1.951   4.076   4.050 -0.4468  0.1132 -2.4038
  911THF    H1314193   1.833   4.190   3.987  0.2609 -1.1418 -1.4520
  912THF     O114194   4.818   5.471   4.875  0.3376  0.0420  0.2569
  912THF     C214195   4.828   5.376   4.976 -0.7678  0.3002  0.0054
  912THF     C314196   4.917   5.573   4.894  0.1606 -0.1556  0.3461
  912THF     H414197   4.870   5.281   4.943  0.0251  0.1720  1.3012
  912THF     H514198   4.726   5.362   5.011 -1.2633  0.5670 -1.3074
  912THF     H614199   5.017   5.551   4.856  2.0889  2.7344  3.2023
  912THF     H714200   4.867   5.663   4.858 -0.3751 -0.0750  1.2653
  912THF     C814201   4.912   5.589   5.044  0.0281  0.2975 -0.1891
  912THF     C914202   4.907   5.442   5.087 -0.4865  0.3199  0.2171
  912THF    H1014203   4.823   5.642   5.076 -0.7181 -0.9196 -0.2188
  912THF    H1114204   4.997   5.653   5.069 -0.1332  0.3073  0.3370
  912THF    H1214205   5.008   5.401   5.088  0.3385  2.1746 -0.5867
  912THF    H1314206   4.858   5.418   5.181 -3.1216 -1.1956 -1.4341
  913THF     O114207   4.665   3.752   3.212  0.1346 -0.3365  0.6861
  913THF     C214208   4.703   3.690   3.086  0.1566 -0.7139 -0.4658
  913THF     C314209   4.653   3.886   3.189 -0.2234  0.2668 -0.6331
  913THF     H414210   4.626   3.646   3.023  0.3047 -0.1155 -1.0789
  913THF     H514211   4.775   3.613   3.116  1.5735  0.0144 -1.8899
  913THF     H614212   4.554   3.908   3.149 -0.1199  4.3601  0.9403
  913THF     H714213   4.668   3.935   3.285  3.4832 -3.2118  0.8884
  913THF     C814214   4.773   3.920   3.086  0.0071 -0.3291 -0.9879
  913THF     C914215   4.765   3.807   2.999  0.3435  0.3864  0.4234
  913THF    H1014216   4.867   3.922   3.140 -0.5027  1.1847 -0.0894
  913THF    H1114217   4.730   4.010   3.043 -1.5067 -0.8212 -0.5839
  913THF    H1214218   4.703   3.834   2.914  0.1880 -0.1231  0.3725
  913THF    H1314219   4.864   3.775   2.968  0.5477  0.5897  0.8532
  914THF     O114220   0.694   2.312   3.699 -0.2691  0.6277  0.4490
  914THF     C214221   0.765   2.408   3.768 -0.2387 -0.9171 -0.5869
  914THF     C314222   0.586   2.282   3.790  0.2989 -0.5988 -0.3596
  914THF     H414223   0.846   2.452   3.710 -0.0531  0.3246  0.5651
  914THF     H514224   0.810   2.358   3.854 -0.0726 -0.3092 -0.3184
  914THF     H614225   0.498   2.251   3.734 -0.2908  0.4488 -0.0537
  914THF     H714226   0.617   2.198   3.852  0.3944  0.5913  1.2807
  914THF     C814227   0.558   2.413   3.871  0.4646 -0.0040  0.1669
  914THF     C914228   0.656   2.510   3.807 -0.3086 -0.0424  0.3034
  914THF    H1014229   0.582   2.387   3.975 -0.1067 -2.7200 -0.3257
  914THF    H1114230   0.461   2.462   3.863  1.0719  1.4714  1.1668
  914THF    H1214231   0.599   2.540   3.718  0.5145  2.5738  0.5547
  914THF    H1314232   0.674   2.583   3.886 -0.6117  0.4172 -0.0406
  915THF     O114233   1.173   0.520   5.426  0.0223  0.4583  0.1270
  915THF     C214234   1.248   0.636   5.376 -0.1603 -0.3647 -0.2558
  915THF     C314235   1.061   0.480   5.336  0.6631  0.0763  0.1909
  915THF     H414236   1.352   0.618   5.347 -0.3175 -1.0815 -0.3965
  915THF     H514237   1.267   0.707   5.456  0.2845 -0.1213 -0.5739
  915THF     H614238   1.056   0.373   5.315  0.3381  0.1274  0.0151
  915THF     H714239   0.969   0.513   5.382 -0.3419  0.4610 -1.9791
  915THF     C814240   1.078   0.570   5.214  1.0958 -0.4040 -0.2583
  915THF     C914241   1.162   0.686   5.261  0.1145 -0.7034  0.4203
  915THF    H1014242   0.978   0.609   5.192  1.2953  0.9625  1.0305
  915THF    H1114243   1.110   0.518   5.124 -2.4765 -0.9961 -1.3786
  915THF    H1214244   1.224   0.727   5.181 -1.0233  1.1033  0.4180
  915THF    H1314245   1.099   0.770   5.289 -1.1563 -1.1605 -0.9707
  916THF     O114246   1.531   2.039   1.322 -0.3979  0.2059 -0.0312
  916THF     C214247   1.550   2.137   1.423 -0.7221  0.4208 -0.1022
  916THF     C314248   1.632   1.941   1.329  0.0064  0.1121  0.0063
  916THF     H414249   1.458   2.194   1.438 -2.1641 -1.3880 -1.5896
  916THF     H514250   1.641   2.194   1.403 -0.3467  0.5181  1.7131
  916THF     H614251   1.595   1.845   1.292 -1.1038  0.2184  0.7815
  916THF     H714252   1.717   1.970   1.269 -0.1645 -0.5295 -0.5574
  916THF     C814253   1.664   1.933   1.489  0.0324 -0.3169  0.1795
  916THF     C914254   1.578   2.040   1.539  0.0252  0.0024  0.1693
  916THF    H1014255   1.762   1.972   1.517  0.5484 -0.3653 -1.4482
  916THF    H1114256   1.642   1.835   1.531 -1.5439  0.1281  0.4464
  916THF    H1214257   1.486   1.989   1.567 -0.8107 -1.1889 -4.0900
  916THF    H1314258   1.621   2.081   1.630  1.0333 -0.3834 -0.1240
  917THF     O114259   5.114   2.567   4.213 -0.4594 -0.4305 -0.5044
  917THF     C214260   5.236   2.518   4.265  0.4092 -0.9417 -0.2172
  917THF     C314261   5.125   2.706   4.224  0.5501 -0.2501  0.4401
  917THF     H414262   5.330   2.542   4.215 -0.4343 -0.4313 -1.6002
  917THF     H514263   5.231   2.409   4.269  1.4002 -0.9810  0.7448
  917THF     H614264   5.187   2.737   4.140 -0.6907 -1.3197 -0.9143
  917THF     H714265   5.033   2.760   4.200 -0.4803 -1.9626  0.4002
  917THF     C814266   5.185   2.727   4.363 -0.1874 -0.1752  0.3683
  917THF     C914267   5.230   2.589   4.402  0.5610 -0.4146  0.8321
  917THF    H1014268   5.102   2.758   4.426 -1.4655  0.1304 -1.3947
  917THF    H1114269   5.264   2.801   4.375  0.1233 -0.4925  0.3112
  917THF    H1214270   5.324   2.583   4.457 -0.1233 -0.9143  1.9906
  917THF    H1314271   5.164   2.534   4.469 -0.4561  0.8980  0.9569
  918THF     O114272   3.003   0.438   1.257  0.3871  0.0133 -0.1082
  918THF     C214273   3.087   0.488   1.360  0.2186 -0.3240  0.4159
  918THF     C314274   2.947   0.313   1.310 -0.2536  0.1800  0.4982
  918THF     H414275   3.107   0.593   1.340  0.2065 -0.5421 -0.8048
  918THF     H514276   3.182   0.438   1.382  0.5221 -0.2792 -0.7511
  918THF     H614277   2.872   0.270   1.244  1.3795 -0.8518 -0.7525
  918THF     H714278   3.023   0.236   1.323 -1.9800 -1.3781  1.9478
  918THF     C814279   2.899   0.363   1.448 -0.4000  0.1451 -0.6025
  918THF     C914280   3.001   0.476   1.482  0.2253 -0.4629 -0.4475
  918THF    H1014281   2.887   0.292   1.530 -3.0559  0.9412 -0.2046
  918THF    H1114282   2.800   0.405   1.432 -0.8514 -0.0698  1.3918
  918THF    H1214283   2.943   0.567   1.488 -0.7183 -1.0434 -0.4939
  918THF    H1314284   3.048   0.444   1.575 -1.7330 -2.2020  0.0363
  919THF     O114285   2.319   0.738   3.643 -0.0134  0.2833 -0.4213
  919THF     C214286   2.204   0.815   3.659  0.9376 -0.7400 -0.6826
  919THF     C314287   2.430   0.822   3.597 -0.1271 -0.3006  0.3513
  919THF     H414288   2.226   0.883   3.741 -2.0016 -1.5942  0.9548
  919THF     H514289   2.116   0.762   3.694  0.2567  0.7046 -0.1420
  919THF     H614290   2.462   0.883   3.682  0.9172 -0.4327  0.0550
  919THF     H714291   2.520   0.780   3.553 -0.1137  1.7668 -1.7554
  919THF     C814292   2.359   0.901   3.490 -0.0140 -0.0959  0.1338
  919THF     C914293   2.207   0.887   3.527 -0.4390  0.2147  0.0711
  919THF    H1014294   2.375   0.848   3.397  1.4572 -1.3476  1.0478
  919THF    H1114295   2.407   0.998   3.482  1.8156 -1.0417 -1.0507
  919THF    H1214296   2.159   0.985   3.529 -0.1980  0.3519 -0.5394
  919THF    H1314297   2.142   0.837   3.455 -1.1074  0.7405  0.2991
  920THF     O114298   2.719   3.017   3.598  0.7012  0.0857  0.2245
  920THF     C214299   2.798   3.020   3.714  0.3554  0.4257 -0.4159
  920THF     C314300   2.587   2.980   3.620  0.1945 -0.0008  0.4228
  920THF     H414301   2.815   3.126   3.731 -0.6710  0.4404  0.5955
  920THF     H514302   2.901   2.984   3.710  0.5223  0.8009  0.4279
  920THF     H614303   2.522   3.051   3.568  0.8001  0.7902  0.7263
  920THF     H714304   2.569   2.876   3.591 -1.3395 -0.1218  1.7079
  920THF     C814305   2.566   2.986   3.769 -0.1538 -0.1221  0.3082
  920THF     C914306   2.708   2.963   3.825  0.0050 -0.4178 -0.4531
  920THF    H1014307   2.485   2.917   3.791 -0.7343  1.3968  3.4779
  920THF    H1114308   2.527   3.083   3.800  1.1170  0.3505  0.4955
  920THF    H1214309   2.715   3.010   3.923 -1.6877 -1.3581  0.1546
  920THF    H1314310   2.738   2.859   3.840 -0.0235 -0.0500  3.1280
  921THF     O114311   2.652   1.062   3.018  0.7046 -0.3248  0.0492
  921THF     C214312   2.541   1.014   3.103 -0.1298  0.0273  0.0128
  921THF     C314313   2.779   1.009   3.062  0.2119  0.2285 -0.1634
  921THF     H414314   2.444   1.040   3.061  0.8414  1.5651 -1.3816
  921THF     H514315   2.545   1.068   3.197 -0.0651  1.9898 -1.0606
  921THF     H614316   2.850   1.008   2.979 -1.4840  0.4659 -1.6941
  921THF     H714317   2.813   1.079   3.138  2.1611  0.1390 -0.9147
  921THF     C814318   2.742   0.870   3.113 -0.2150 -0.6125 -0.0055
  921THF     C914319   2.588   0.866   3.115 -0.4864 -0.7986 -1.3128
  921THF    H1014320   2.768   0.865   3.218  0.2500  1.5406  0.0239
  921THF    H1114321   2.789   0.777   3.079  0.5906 -0.8225  1.6202
  921THF    H1214322   2.553   0.813   3.027 -0.7781 -0.5098 -1.3728
  921THF    H1314323   2.549   0.833   3.212 -2.9378 -0.3446 -2.0823
  922THF     O114324   0.089   4.065   3.574  0.6425 -0.5098 -0.1327
  922THF     C214325   0.073   3.936   3.506 -0.0361 -0.0543  0.2135
  922THF     C314326  -0.014   4.152   3.538  0.1065  0.5945 -0.5444
  922THF     H414327   0.107   3.849   3.562  0.1776  1.1508  2.0356
  922THF     H514328   0.132   3.946   3.415 -1.5600 -0.5130 -0.8639
  922THF     H614329  -0.040   4.231   3.608  1.0366  0.7240 -0.3356
  922THF     H714330   0.021   4.205   3.449 -0.9601  0.8214 -0.8449
  922THF     C814331  -0.134   4.070   3.511 -0.1890 -0.5779  0.2991
  922THF     C914332  -0.078   3.926   3.480  0.6083  0.6609  0.1794
  922THF    H1014333  -0.192   4.112   3.429 -0.0372 -2.1662 -0.6697
  922THF    H1114334  -0.190   4.055   3.603 -0.0090  2.4784  0.9997
  922THF    H1214335  -0.110   3.843   3.542  0.1856  2.4883  2.5331
  922THF    H1314336  -0.101   3.891   3.379  1.6193  0.2870  0.0668
  923THF     O114337   1.105   5.446   3.614  0.6031 -0.5076  0.9837
  923THF     C214338   1.004   5.511   3.534  0.0399 -0.5581 -0.2770
  923THF     C314339   1.082   5.487   3.751  0.1829 -0.3740  0.2624
  923THF     H414340   0.912   5.456   3.550 -0.3332  0.0688 -0.2505
  923THF     H514341   1.041   5.524   3.432 -1.1026  0.7982 -0.5435
  923THF     H614342   0.990   5.435   3.778  0.3019 -0.7820 -0.1067
  923THF     H714343   1.167   5.466   3.816  1.1043  2.9599  0.3306
  923THF     C814344   1.065   5.639   3.739 -0.6734  0.1676 -0.1804
  923THF     C914345   1.003   5.657   3.603  0.2093  0.2100 -0.2739
  923THF    H1014346   1.162   5.687   3.749 -0.2011 -0.9086  0.6886
  923THF    H1114347   0.998   5.676   3.817 -0.3350 -0.5658  0.4821
  923THF    H1214348   0.901   5.696   3.610  0.3323  0.3109  1.5899
  923THF    H1314349   1.060   5.735   3.553 -1.1097  2.3350  1.3326
  924THF     O114350   5.344   4.580   1.212 -0.2015 -0.2610  0.4829
  924THF     C214351   5.309   4.661   1.317 -0.1036  0.8275 -0.7791
  924THF     C314352   5.401   4.457   1.263  0.1908 -0.4475 -0.7277
  924THF     H414353   5.201   4.670   1.328 -0.3297 -1.6856 -0.4307
  924THF     H514354   5.366   4.753   1.300  2.3490 -0.4191  0.1528
  924THF     H614355   5.325   4.380   1.278 -1.1432  0.8835 -0.3610
  924THF     H714356   5.471   4.411   1.194 -0.0647  0.3955 -1.5509
  924THF     C814357   5.468   4.506   1.391  0.5001  0.4547  0.5081
  924THF     C914358   5.380   4.614   1.450 -0.2819  0.1890  0.8090
  924THF    H1014359   5.562   4.557   1.370  0.1547  2.0476  2.5172
  924THF    H1114360   5.488   4.418   1.451 -0.8741  0.9826  1.7954
  924THF    H1214361   5.301   4.568   1.509 -1.1076 -0.8599 -1.0289
  924THF    H1314362   5.429   4.686   1.515 -0.7768 -1.6597  3.3914
  925THF     O114363   3.636   0.117   4.108  0.1479 -0.7680  0.0544
  925THF     C214364   3.655   0.143   4.250  0.2190 -0.3536  0.1986
  925THF     C314365   3.727   0.015   4.083 -0.0009  0.0012  0.2331
  925THF     H414366   3.576   0.196   4.302  0.0409 -1.0646  0.6717
  925THF     H514367   3.740   0.211   4.249  0.2295 -0.3545 -1.0927
  925THF     H614368   3.715  -0.042   3.990 -1.9548 -0.7061  0.8619
  925THF     H714369   3.833   0.041   4.088  0.7045 -2.3944 -0.7468
  925THF     C814370   3.700  -0.085   4.198 -0.1232 -0.3562 -0.4193
  925THF     C914371   3.683   0.008   4.312  0.4472 -0.7219 -0.4789
  925THF    H1014372   3.780  -0.158   4.208 -0.4286 -0.6467 -0.1088
  925THF    H1114373   3.606  -0.138   4.183 -0.8402  0.3166  1.4648
  925THF    H1214374   3.601  -0.026   4.375  0.3005  0.3898 -0.0542
  925THF    H1314375   3.774   0.003   4.372  0.1637 -1.0281 -0.0659
  926THF     O114376   1.327   1.198   1.155 -0.2742  0.2966  0.4801
  926THF     C214377   1.451   1.142   1.193 -0.2743 -0.2795  0.2276
  926THF     C314378   1.348   1.275   1.038  0.6831  0.7132 -0.1757
  926THF     H414379   1.443   1.079   1.282 -2.4645 -0.7091 -0.2125
  926THF     H514380   1.524   1.219   1.220  0.3752 -1.0470  0.7286
  926THF     H614381   1.256   1.307   0.990 -0.0036 -0.3997  0.3570
  926THF     H714382   1.400   1.367   1.066 -0.4722  1.0131  1.0823
  926THF     C814383   1.431   1.178   0.956  0.0596  0.0995 -0.7481
  926THF     C914384   1.484   1.075   1.057 -0.3973  0.1360 -0.3405
  926THF    H1014385   1.502   1.244   0.907 -1.8637  3.0619  0.2124
  926THF    H1114386   1.360   1.131   0.888  0.8226  0.2504 -1.6735
  926THF    H1214387   1.418   0.988   1.061 -1.9728  1.3177  0.1728
  926THF    H1314388   1.584   1.032   1.049 -0.8983 -0.9099 -1.2862
  927THF     O114389   2.621   0.432   1.600  0.5024  0.2789  0.7857
  927THF     C214390   2.481   0.466   1.602 -0.0823  0.5616 -0.0386
  927THF     C314391   2.671   0.436   1.733 -0.3801  0.6434  0.2640
  927THF     H414392   2.423   0.382   1.563 -0.6920  2.0118 -2.5072
  927THF     H514393   2.459   0.551   1.538 -0.5820 -0.5079 -1.3443
  927THF     H614394   2.683   0.329   1.751 -3.1411  0.4597  1.5227
  927THF     H714395   2.769   0.482   1.724 -0.6893  1.2628 -0.0283
  927THF     C814396   2.566   0.520   1.817  0.2874 -0.1243  0.5132
  927THF     C914397   2.435   0.505   1.738  0.4863  0.1090  0.2631
  927THF    H1014398   2.592   0.626   1.817 -1.8381  0.4655 -1.0599
  927THF    H1114399   2.551   0.496   1.922 -1.0075 -0.2725  0.3043
  927THF    H1214400   2.376   0.419   1.769  1.3153 -0.3685  0.5325
  927THF    H1314401   2.375   0.596   1.738  0.2991  0.1349 -3.3856
  928THF     O114402   1.771   5.465   5.496 -0.1491 -0.2482 -0.0064
  928THF     C214403   1.822   5.547   5.600  0.1778  0.0081 -0.1239
  928THF     C314404   1.822   5.332   5.491 -0.8334  0.8377 -0.1733
  928THF     H414405   1.751   5.590   5.671 -0.3869  0.0877 -0.7216
  928THF     H514406   1.861   5.640   5.558  2.2199  0.5036  2.6401
  928THF     H614407   1.744   5.260   5.466  0.5863 -0.7241 -0.3511
  928THF     H714408   1.903   5.316   5.420  0.4820 -0.3783  1.5067
  928THF     C814409   1.889   5.319   5.629  0.0772  0.2846 -0.5844
  928THF     C914410   1.939   5.460   5.652  0.1034 -0.1113 -0.7445
  928THF    H1014411   1.953   5.230   5.630  0.7036  0.7143 -1.2510
  928THF    H1114412   1.807   5.303   5.699 -0.4346  2.1920 -0.7059
  928THF    H1214413   1.960   5.476   5.757 -3.5660 -1.7751  0.4080
  928THF    H1314414   2.031   5.480   5.598  0.7116  0.9477  0.6340
  929THF     O114415   4.416   1.954   0.354  0.1551 -0.3589  0.1701
  929THF     C214416   4.336   2.024   0.264 -0.2720  0.1216  0.0833
  929THF     C314417   4.553   2.000   0.334  0.2508  0.1272 -0.2246
  929THF     H414418   4.233   2.016   0.297 -0.1785  2.2014  1.0134
  929THF     H514419   4.348   1.989   0.161  1.3016 -1.2285  0.6643
  929THF     H614420   4.615   2.002   0.424  0.9758  0.6623 -0.7318
  929THF     H714421   4.611   1.936   0.268 -1.4707 -2.3314  0.5006
  929THF     C814422   4.534   2.144   0.277 -0.0196  0.9753  0.4480
  929THF     C914423   4.389   2.161   0.288  0.5487 -0.0657  0.1436
  929THF    H1014424   4.561   2.150   0.171 -1.1167  1.2788  0.1759
  929THF    H1114425   4.590   2.212   0.342  0.5281  0.9673 -0.0007
  929THF    H1214426   4.360   2.202   0.385 -0.4456 -0.6286  0.0966
  929THF    H1314427   4.345   2.232   0.218  2.0993  1.4499  0.6021
  930THF     O114428   2.846   5.110   5.030 -0.5008  0.0009  0.8860
  930THF     C214429   2.736   5.194   5.063  0.4826 -0.2962 -0.3747
  930THF     C314430   2.922   5.092   5.151 -0.6811  0.0294  0.0472
  930THF     H414431   2.653   5.194   4.991  0.9377 -1.7208 -0.9328
  930THF     H514432   2.766   5.297   5.079 -0.3026 -0.0354 -0.5271
  930THF     H614433   3.003   5.023   5.126 -0.0115  0.7778  0.1230
  930THF     H714434   2.966   5.190   5.172  2.5580 -1.2202 -0.2122
  930THF     C814435   2.806   5.050   5.248 -0.1124 -0.1076 -0.1534
  930THF     C914436   2.688   5.142   5.205  0.0053  0.5716  0.6169
  930THF    H1014437   2.825   5.059   5.355  1.8655  4.3146 -0.6481
  930THF    H1114438   2.763   4.951   5.236 -0.1753  0.1620 -2.7815
  930THF    H1214439   2.587   5.103   5.196  0.6452 -1.1212  0.5562
  930THF    H1314440   2.682   5.224   5.277  2.2014 -0.2961  1.8802
  931THF     O114441   4.168   1.819   1.984 -0.0231  0.2438  0.3688
  931THF     C214442   4.298   1.849   1.930  0.1402  0.0333  0.5512
  931THF     C314443   4.107   1.735   1.886  0.0784  0.5270 -0.0519
  931THF     H414444   4.366   1.765   1.941  1.4448  0.8569 -0.8104
  931THF     H514445   4.332   1.936   1.986 -0.9989 -0.6980  2.4712
  931THF     H614446   4.153   1.636   1.881  0.1538  0.5799 -0.4423
  931THF     H714447   4.001   1.719   1.905  0.5663 -0.2099  2.4445
  931THF     C814448   4.139   1.794   1.746  0.5943 -0.5814 -0.9344
  931THF     C914449   4.268   1.879   1.784  0.5152 -0.2915 -0.7140
  931THF    H1014450   4.066   1.872   1.723  1.1508  0.2457  0.0312
  931THF    H1114451   4.154   1.712   1.675  0.9467 -1.0150 -0.3664
  931THF    H1214452   4.356   1.856   1.724  0.6314 -0.2964 -0.5412
  931THF    H1314453   4.240   1.981   1.757 -0.9295 -0.7315 -0.9908
  932THF     O114454   4.603   1.307   2.199  0.3525  0.7027 -0.1807
  932THF     C214455   4.606   1.171   2.231 -0.3293  0.3857 -0.2135
  932THF     C314456   4.732   1.360   2.217  0.0999  0.0343 -0.2248
  932THF     H414457   4.519   1.120   2.191  0.6210 -1.2069 -0.3030
  932THF     H514458   4.597   1.156   2.339  1.0887  0.6552 -0.0398
  932THF     H614459   4.748   1.459   2.173 -0.3081  0.6995  1.0674
  932THF     H714460   4.762   1.369   2.322 -1.4921  2.0653  0.1298
  932THF     C814461   4.809   1.256   2.132  0.0777  0.5546 -0.1741
  932THF     C914462   4.731   1.129   2.161  0.3844 -0.8162 -0.6266
  932THF    H1014463   4.915   1.248   2.153  0.1773  3.3974  0.7623
  932THF    H1114464   4.804   1.291   2.029 -0.5403  1.0505  0.0158
  932THF    H1214465   4.697   1.072   2.074 -2.1625  0.5973 -0.6499
  932THF    H1314466   4.780   1.052   2.220  2.6543  0.1837 -1.1064
  933THF     O114467   4.907   4.325   3.433 -0.2504  0.5067 -0.0916
  933THF     C214468   4.913   4.435   3.523  0.3575  0.1579 -0.4222
  933THF     C314469   4.966   4.204   3.490  0.4515 -0.8693 -0.2600
  933THF     H414470   4.813   4.446   3.564  1.0020  1.0141  0.9873
  933THF     H514471   4.938   4.528   3.472 -1.3128 -0.1925 -1.9797
  933THF     H614472   4.907   4.116   3.464 -3.3619  1.1480  0.8027
  933THF     H714473   5.064   4.189   3.444  1.0344 -0.6918  0.9049
  933THF     C814474   4.982   4.232   3.637  0.1900 -0.1676 -0.0127
  933THF     C914475   5.014   4.386   3.631 -0.0530  0.1967  0.2652
  933THF    H1014476   5.062   4.173   3.682 -0.4097 -2.1638 -1.4342
  933THF    H1114477   4.898   4.210   3.703 -0.1102 -0.2661 -0.4233
  933THF    H1214478   4.993   4.440   3.723  0.3748 -0.6466  0.8723
  933THF    H1314479   5.118   4.389   3.599 -0.5828 -1.3557 -1.7931
  934THF     O114480   2.552   4.372   3.348 -0.3428 -0.3559 -0.0504
  934THF     C214481   2.567   4.484   3.444 -0.7859 -0.1901 -0.5719
  934THF     C314482   2.473   4.276   3.409  0.6545  0.3369  0.9924
  934THF     H414483   2.500   4.567   3.424 -0.2466  0.1478 -1.0036
  934THF     H514484   2.673   4.511   3.440 -0.1030 -2.6040 -0.7914
  934THF     H614485   2.372   4.315   3.412  0.1363 -0.8495 -0.1240
  934THF     H714486   2.465   4.184   3.351 -1.2227  1.1091 -0.0465
  934THF     C814487   2.533   4.279   3.548  0.1143  0.1737 -0.2299
  934THF     C914488   2.544   4.428   3.581  0.1938 -0.3119  0.3401
  934THF    H1014489   2.627   4.224   3.544 -0.0302 -0.0490 -0.6577
  934THF    H1114490   2.458   4.233   3.613 -0.5246  1.6366  0.1040
  934THF    H1214491   2.444   4.465   3.601  0.0997 -1.1007  1.4482
  934THF    H1314492   2.619   4.445   3.659 -0.1111  1.1083  0.3469
  935THF     O114493   3.705   1.238   5.333 -0.5000 -0.5573  0.4970
  935THF     C214494   3.771   1.125   5.389 -0.1742 -0.3217 -0.2579
  935THF     C314495   3.569   1.212   5.352  0.0579 -0.3531  0.3969
  935THF     H414496   3.876   1.150   5.407  0.1356 -1.3118 -0.5866
  935THF     H514497   3.780   1.034   5.329  0.8398  0.3755 -1.2101
  935THF     H614498   3.506   1.301   5.343 -1.7316 -1.7839 -3.7376
  935THF     H714499   3.549   1.133   5.279  0.5477  0.8668 -1.1214
  935THF     C814500   3.568   1.154   5.495 -0.7156 -0.0012 -0.0766
  935THF     C914501   3.701   1.097   5.521  0.0960 -0.0432  0.5559
  935THF    H1014502   3.498   1.071   5.503 -2.0131  0.9415 -1.0918
  935THF    H1114503   3.534   1.235   5.560  1.0960 -0.2429  1.2532
  935THF    H1214504   3.746   1.151   5.604 -0.5472 -0.2941  1.0784
  935THF    H1314505   3.703   0.991   5.546 -1.8185 -0.5002 -0.9451
  936THF     O114506   4.635   1.663   1.853  0.2550  0.1850  0.0686
  936THF     C214507   4.666   1.744   1.967 -0.4416  0.2917 -0.0012
  936THF     C314508   4.714   1.715   1.752 -0.4177 -0.0299 -0.1822
  936THF     H414509   4.766   1.715   1.998  0.5494  0.3233 -2.8674
  936THF     H514510   4.605   1.717   2.053 -2.2413  0.8178 -1.0551
  936THF     H614511   4.817   1.687   1.773 -0.7831 -2.1468 -1.0120
  936THF     H714512   4.681   1.692   1.651  0.7844 -1.7200 -0.2399
  936THF     C814513   4.700   1.866   1.768  0.7787  0.6453  0.6944
  936THF     C914514   4.667   1.885   1.916 -0.2160  0.1697  0.7973
  936THF    H1014515   4.619   1.903   1.705  0.3195 -1.2609  0.0991
  936THF    H1114516   4.796   1.910   1.738 -0.2473  1.5534 -1.5056
  936THF    H1214517   4.747   1.949   1.953  0.4982  0.9962 -1.9150
  936THF    H1314518   4.567   1.926   1.927 -0.7296 -0.3771 -1.3213
  937THF     O114519   5.144   1.110   5.487  0.0815  0.4549 -0.0354
  937THF     C214520   5.238   1.015   5.535  0.1552 -0.2836  0.0611
  937THF     C314521   5.108   1.088   5.354  0.3875 -0.2416  0.6496
  937THF     H414522   5.217   0.960   5.627  1.1338 -1.3785 -0.3313
  937THF     H514523   5.334   1.066   5.543  0.5921 -1.2619  1.5201
  937THF     H614524   5.026   1.016   5.358 -0.8012  0.9970 -0.5057
  937THF     H714525   5.094   1.177   5.294 -0.3240  1.1263  2.7182
  937THF     C814526   5.221   1.001   5.292 -0.8102 -0.2226  0.2924
  937THF     C914527   5.267   0.925   5.419  0.4717  0.2186  0.7049
  937THF    H1014528   5.300   1.070   5.262  0.2761 -0.7937  1.6919
  937THF    H1114529   5.184   0.948   5.204 -0.9682 -0.5968  0.5778
  937THF    H1214530   5.187   0.851   5.421  1.0293 -0.3798  1.7365
  937THF    H1314531   5.362   0.875   5.402  0.3348  0.2006 -0.0164
  938THF     O114532   2.591   4.433   4.069  0.1079 -0.3058 -0.1156
  938THF     C214533   2.484   4.510   4.125 -0.7758 -0.0276  0.2609
  938THF     C314534   2.537   4.344   3.973  0.7813 -0.4080  0.2381
  938THF     H414535   2.460   4.600   4.068 -3.6823 -0.1092  1.1795
  938THF     H514536   2.501   4.541   4.229 -2.1689  2.3001 -0.1282
  938THF     H614537   2.549   4.376   3.870 -2.2296 -0.4284 -0.2218
  938THF     H714538   2.588   4.248   3.985  1.8528 -0.2672 -2.6065
  938THF     C814539   2.382   4.322   4.004  0.2359 -0.5626 -0.2319
  938THF     C914540   2.363   4.415   4.117  0.1618 -0.1153 -0.0325
  938THF    H1014541   2.356   4.222   4.039 -0.8591  0.0468  0.7636
  938THF    H1114542   2.310   4.334   3.923 -1.0806 -2.3700  0.6008
  938THF    H1214543   2.267   4.465   4.128 -0.3336 -0.7322 -1.3720
  938THF    H1314544   2.395   4.360   4.206  1.5143 -1.1247 -1.1007
  939THF     O114545   3.202   4.523   2.323 -0.1051  0.3325 -0.0557
  939THF     C214546   3.242   4.619   2.230 -0.3002 -0.2980 -0.2299
  939THF     C314547   3.210   4.397   2.257 -0.0039 -0.0415  0.1285
  939THF     H414548   3.348   4.600   2.217 -0.0582  0.5641  0.3736
  939THF     H514549   3.238   4.725   2.257 -0.8376  0.0655 -1.6445
  939THF     H614550   3.316   4.373   2.243  0.3032  0.3084  1.6065
  939THF     H714551   3.153   4.323   2.312 -0.8394 -1.1224 -2.0902
  939THF     C814552   3.137   4.424   2.126 -0.3605 -0.4210 -0.0750
  939THF     C914553   3.155   4.576   2.103  0.3205  0.4620 -0.3615
  939THF    H1014554   3.029   4.421   2.140 -0.5291  1.3848 -0.7193
  939THF    H1114555   3.187   4.373   2.044 -0.3844  0.8245 -0.9026
  939THF    H1214556   3.217   4.597   2.016 -0.6912  1.3933 -0.8674
  939THF    H1314557   3.066   4.637   2.093 -0.0374  0.4024  1.9652
  940THF     O114558   1.701   4.551   0.934 -0.3815 -0.2907  0.3428
  940THF     C214559   1.660   4.612   1.057 -0.5635  0.6335 -0.0495
  940THF     C314560   1.661   4.412   0.924  0.0526 -0.0287  0.0627
  940THF     H414561   1.560   4.653   1.042 -0.0180  1.2411 -2.5743
  940THF     H514562   1.731   4.688   1.088 -1.2532  1.6589 -0.9195
  940THF     H614563   1.573   4.395   0.862  0.3055  0.9618 -0.5894
  940THF     H714564   1.741   4.362   0.870 -0.2993 -0.7731  0.2135
  940THF     C814565   1.632   4.375   1.066 -0.0196  0.1170  0.0810
  940THF     C914566   1.682   4.495   1.144  0.1436  0.2987 -0.3456
  940THF    H1014567   1.668   4.277   1.097  0.9727  0.8536  1.3609
  940THF    H1114568   1.525   4.358   1.077 -0.4440  3.0995  1.6003
  940THF    H1214569   1.629   4.510   1.239  0.2043 -0.1707 -0.2347
  940THF    H1314570   1.787   4.474   1.163  0.3191  0.0759 -1.5350
  941PF6-    P114571   3.909   4.381   0.119  0.3600  0.1512 -0.0751
  941PF6-    F214572   3.940   4.524   0.192 -0.2182 -0.1447  0.1450
  941PF6-    F314573   3.888   4.243   0.042 -0.3611  0.3958  0.5113
  941PF6-    F414574   3.761   4.423   0.072 -0.0013 -0.0495 -0.6688
  941PF6-    F514575   4.060   4.323   0.165  0.4476 -0.0471  0.3584
  941PF6-    F614576   3.849   4.325   0.255  0.0939 -0.4920  0.2754
  941PF6-    F714577   3.971   4.434  -0.017  0.1527  0.2640  0.0816
  942PF6-    P114578   0.680   4.532   0.416  0.0100 -0.0909 -0.0023
  942PF6-    F214579   0.627   4.386   0.432 -0.2872 -0.2479 -0.2535
  942PF6-    F314580   0.735   4.685   0.399 -0.0423 -0.3584  0.0979
  942PF6-    F414581   0.755   4.487   0.281 -0.2984  0.0790  0.0486
  942PF6-    F514582   0.598   4.574   0.547  0.1047  0.1446 -0.1592
  942PF6-    F614583   0.812   4.500   0.506  0.4136  0.2448  0.3012
  942PF6-    F714584   0.561   4.571   0.323  0.3865 -0.3062  0.0825
  943PF6-    P114585   1.267   5.110   4.353 -0.2168 -0.0430 -0.7394
  943PF6-    F214586   1.325   5.258   4.320 -0.5819  0.0723  0.1209
  943PF6-    F314587   1.219   4.962   4.392  0.2138  0.2431 -0.4011
  943PF6-    F414588   1.409   5.041   4.313  0.1136  0.5895  0.2678
  943PF6-    F514589   1.127   5.169   4.398  0.2639  0.0805 -0.2630
  943PF6-    F614590   1.217   5.093   4.204  0.6575 -0.0867  0.0851
  943PF6-    F714591   1.322   5.123   4.507 -0.5717  0.0429 -0.2381
  944PF6-    P114592   4.121   2.496   5.034 -0.6542  0.0216  0.0887
  944PF6-    F214593   4.158   2.640   4.977 -0.2522  0.2795 -0.2707
  944PF6-    F314594   4.096   2.354   5.099 -0.0119  0.1381 -0.6959
  944PF6-    F414595   4.071   2.565   5.163  0.2827  0.2629  0.3630
  944PF6-    F514596   4.161   2.429   4.900 -0.2976  0.4736  0.0343
  944PF6-    F614597   4.273   2.494   5.092  0.2012  0.6358 -0.0068
  944PF6-    F714598   3.970   2.511   4.965 -0.3123 -0.1987 -0.8355
  945PF6-    P114599   4.206   2.511   2.108 -0.1344  0.2627 -0.1992
  945PF6-    F214600   4.211   2.351   2.077  0.1301  0.1875  0.0518
  945PF6-    F314601   4.197   2.665   2.145 -0.2000  0.1407  0.0315
  945PF6-    F414602   4.114   2.476   2.231  0.0618 -0.1711  0.0348
  945PF6-    F514603   4.302   2.541   1.983 -0.2163 -0.5548  0.2884
  945PF6-    F614604   4.075   2.525   2.020 -0.0847  0.0810 -0.1595
  945PF6-    F714605   4.339   2.494   2.201 -0.2333  0.4260 -0.0456
  946PF6-    P114606   1.656   3.087   2.587  0.0291  0.3217 -0.0620
  946PF6-    F214607   1.680   3.145   2.440  0.3440 -0.0024 -0.2120
  946PF6-    F314608   1.632   3.020   2.738 -0.6735  0.2797 -0.0497
  946PF6-    F414609   1.812   3.067   2.612 -0.2598  0.4160  0.1803
  946PF6-    F514610   1.496   3.110   2.578 -0.6352  0.0878  0.3042
  946PF6-    F614611   1.640   2.951   2.519  0.1699 -0.2088 -0.0562
  946PF6-    F714612   1.666   3.231   2.655 -0.0268  0.3309 -0.0040
  947PF6-    P114613   0.736   0.833   3.104  0.1205  0.2382 -0.2316
  947PF6-    F214614   0.802   0.722   3.016 -0.0817 -0.2124  0.0768
  947PF6-    F314615   0.678   0.950   3.199 -0.2142 -0.3773  0.5083
  947PF6-    F414616   0.590   0.793   3.034 -0.2501  0.0654 -0.1638
  947PF6-    F514617   0.875   0.864   3.176  0.5831 -0.2961  0.0087
  947PF6-    F614618   0.774   0.940   2.999  0.3645 -0.3023 -0.1436
  947PF6-    F714619   0.717   0.725   3.222 -0.1327 -0.2528 -0.3232
  948PF6-    P114620   2.858   0.768   0.203  0.2690  0.1854  0.0367
  948PF6-    F214621   2.975   0.805   0.101  0.7256 -0.1788 -0.0521
  948PF6-    F314622   2.746   0.727   0.306 -0.3123  0.2125  0.2889
  948PF6-    F414623   2.965   0.766   0.322 -0.2361  0.2741  0.5265
  948PF6-    F514624   2.755   0.763   0.087  0.4928  0.5927 -0.2572
  948PF6-    F614625   2.888   0.612   0.192  0.4729 -0.3664 -0.0861
  948PF6-    F714626   2.827   0.927   0.221  0.1779 -0.2134 -0.6524
  949PF6-    P114627   3.792   0.095   5.258 -0.0208 -0.0335 -0.1925
  949PF6-    F214628   3.933   0.112   5.340  1.0253  0.0622  0.2047
  949PF6-    F314629   3.646   0.077   5.184  0.4396 -0.3986  0.1362
  949PF6-    F414630   3.772   0.258   5.252  0.5966  0.3634 -0.1821
  949PF6-    F514631   3.802  -0.060   5.265  0.7112  0.3515  0.0162
  949PF6-    F614632   3.717   0.090   5.399  0.4417 -0.0011 -0.6558
  949PF6-    F714633   3.870   0.099   5.113 -0.7093  0.1530  0.0628
  950PF6-    P114634   3.702   1.953   4.274  0.2938 -0.2674  0.0058
  950PF6-    F214635   3.588   1.853   4.233  0.1746  0.0855  0.3490
  950PF6-    F314636   3.830   2.048   4.309 -0.0458  0.5330  0.2414
  950PF6-    F414637   3.604   2.061   4.342 -0.2017  0.5418  0.1782
  950PF6-    F514638   3.811   1.851   4.208 -0.0383  0.4051 -0.0051
  950PF6-    F614639   3.679   2.034   4.128  0.2421 -0.2428  0.5948
  950PF6-    F714640   3.719   1.878   4.407  0.5871 -0.4924  0.1942
  951PF6-    P114641   2.822   1.993   2.268 -0.2850  0.0925  0.6059
  951PF6-    F214642   2.840   1.959   2.422  0.6830  0.9975  0.4375
  951PF6-    F314643   2.801   2.032   2.118  0.1953  0.6254 -0.3947
  951PF6-    F414644   2.904   2.134   2.286  0.6023  0.4294 -0.3742
  951PF6-    F514645   2.744   1.861   2.247  0.0532 -0.2634  0.4626
  951PF6-    F614646   2.693   2.070   2.300 -0.2539 -0.0010  0.6104
  951PF6-    F714647   2.963   1.926   2.235 -0.3885  0.3356 -0.3574
  952PF6-    P114648   4.774   0.678   3.743 -0.5072  0.1329  0.0322
  952PF6-    F214649   4.634   0.739   3.779 -0.1832  0.5216 -0.1450
  952PF6-    F314650   4.919   0.616   3.715  0.4343 -0.0611  0.1246
  952PF6-    F414651   4.728   0.654   3.591 -0.3179  0.4086  0.7383
  952PF6-    F514652   4.815   0.705   3.895  0.4500  0.3828  0.2162
  952PF6-    F614653   4.722   0.536   3.795 -0.3374  0.5009  0.4177
  952PF6-    F714654   4.836   0.820   3.703  0.1151  0.4979 -0.1093
  953PF6-    P114655   1.891   1.542   1.235 -0.0341  0.2038 -0.2672
  953PF6-    F214656   1.866   1.655   1.128 -0.2241 -0.3036 -0.1925
  953PF6-    F314657   1.913   1.429   1.344 -0.2625 -0.3002  0.0737
  953PF6-    F414658   2.002   1.629   1.311  0.6464 -0.1129 -0.5512
  953PF6-    F514659   1.775   1.450   1.165 -0.8888 -0.4805 -0.6344
  953PF6-    F614660   2.001   1.480   1.138 -0.0139 -0.5357  0.0510
  953PF6-    F714661   1.780   1.607   1.333 -0.0292  0.0580 -0.2854
  954PF6-    P114662   0.340   2.062   2.523  0.3497  0.0131  0.6940
  954PF6-    F214663   0.467   2.000   2.445 -0.2913  0.2278 -0.5198
  954PF6-    F314664   0.213   2.122   2.595 -0.0884 -0.4257 -0.2537
  954PF6-    F414665   0.415   2.206   2.517 -0.4257 -0.1949 -0.0029
  954PF6-    F514666   0.274   1.918   2.527  0.2466  0.3445  0.3048
  954PF6-    F614667   0.416   2.032   2.657  0.2258 -0.2118  0.2921
  954PF6-    F714668   0.269   2.088   2.382 -0.1703 -0.4066 -0.2704
  955PF6-    P114669   1.548   2.361   3.994 -0.5182 -0.0509 -0.3224
  955PF6-    F214670   1.470   2.499   4.017 -0.0272  0.1844  0.7752
  955PF6-    F314671   1.623   2.222   3.971  0.1082  0.8516 -0.2581
  955PF6-    F414672   1.676   2.440   3.944  0.1828 -0.0411  0.0382
  955PF6-    F514673   1.419   2.286   4.051  0.2783  0.3723  0.6007
  955PF6-    F614674   1.494   2.353   3.845 -0.4218  0.0765  0.1475
  955PF6-    F714675   1.600   2.373   4.145  0.2655  0.3850  0.3321
  956PF6-    P114676   0.691   0.248   0.430  0.1381 -0.3389 -0.7202
  956PF6-    F214677   0.658   0.109   0.363 -0.1141  0.2765 -0.2136
  956PF6-    F314678   0.719   0.392   0.496 -1.1231  0.0830 -0.1542
  956PF6-    F414679   0.757   0.301   0.296 -0.1710 -0.1144 -0.2011
  956PF6-    F514680   0.632   0.197   0.570  0.4263 -0.0063 -0.0889
  956PF6-    F614681   0.834   0.192   0.468  0.3364  0.1108 -0.3168
  956PF6-    F714682   0.546   0.298   0.389 -0.0441 -0.0743 -0.1615
  957PF6-    P114683   1.160   3.199   1.978  0.3272  0.4111 -0.0196
  957PF6-    F214684   1.095   3.212   2.128 -0.7436 -0.1701  0.2837
  957PF6-    F314685   1.222   3.192   1.836 -0.1574 -0.4474  0.0475
  957PF6-    F414686   1.145   3.355   1.957 -0.0924  0.2144  0.1623
  957PF6-    F514687   1.172   3.044   1.985 -0.2620  0.2154  0.1069
  957PF6-    F614688   1.009   3.175   1.925 -0.3519 -0.6771 -0.2458
  957PF6-    F714689   1.309   3.214   2.038 -0.0739  0.0339  0.5150
  958PF6-    P114690   4.567   5.150   5.301  0.4142 -0.2432  0.1031
  958PF6-    F214691   4.701   5.170   5.217 -0.2323 -0.0681 -0.3531
  958PF6-    F314692   4.424   5.128   5.377 -0.3702 -0.3597  0.1724
  958PF6-    F414693   4.494   5.164   5.157  0.0905 -0.8038 -0.0548
  958PF6-    F514694   4.649   5.141   5.439  0.1945 -0.1576 -0.3066
  958PF6-    F614695   4.556   5.309   5.316 -0.2327  0.5025 -0.0974
  958PF6-    F714696   4.575   4.991   5.288 -0.3001 -0.1089  0.7881
  959PF6-    P114697   3.695   3.270   3.354 -0.0897 -0.0528  0.1337
  959PF6-    F214698   3.630   3.413   3.326  0.7030 -0.2722  0.1778
  959PF6-    F314699   3.767   3.125   3.378 -0.2062 -0.0925  0.0229
  959PF6-    F414700   3.567   3.228   3.441 -0.3395 -0.0060  0.0542
  959PF6-    F514701   3.822   3.305   3.263 -0.6866  0.3238 -0.6203
  959PF6-    F614702   3.773   3.326   3.484  0.5701  0.6726  0.2309
  959PF6-    F714703   3.631   3.211   3.218 -0.7151  0.5184  0.5021
  960PF6-    P114704   5.026   5.265   1.114 -0.3324  0.0719  0.5503
  960PF6-    F214705   5.109   5.376   1.196  0.2579 -0.4799  0.0982
  960PF6-    F314706   4.944   5.156   1.034  0.1196  0.1704  0.3292
  960PF6-    F414707   4.911   5.271   1.221  0.5956 -0.3158  0.2424
  960PF6-    F514708   5.146   5.254   1.004 -0.1469 -0.0295  0.3218
  960PF6-    F614709   5.088   5.152   1.205 -0.5312  0.6152  0.1775
  960PF6-    F714710   4.957   5.381   1.025 -0.1595 -0.0947  0.1196
  961PF6-    P114711   2.299   1.649   3.767 -0.3228 -0.1657 -0.3500
  961PF6-    F214712   2.368   1.512   3.731 -0.1392 -0.1707  0.2222
  961PF6-    F314713   2.225   1.785   3.807 -0.3271  0.1008 -0.3338
  961PF6-    F414714   2.433   1.733   3.729 -0.8122  0.4002 -0.4437
  961PF6-    F514715   2.165   1.568   3.804 -0.1507  0.4429  0.1032
  961PF6-    F614716   2.355   1.643   3.915 -0.0800  0.3575  0.3720
  961PF6-    F714717   2.256   1.666   3.617  0.2431 -0.3608  0.0393
  962PF6-    P114718   0.040   3.464   3.601  0.0156  0.0488  0.2572
  962PF6-    F214719   0.125   3.401   3.477  0.3174  0.2953 -0.3367
  962PF6-    F314720  -0.041   3.531   3.718 -0.0511  0.2629 -0.4607
  962PF6-    F414721   0.055   3.328   3.689 -0.0177 -0.6079 -0.0004
  962PF6-    F514722   0.017   3.591   3.514  0.8951  0.2358  0.0193
  962PF6-    F614723  -0.092   3.410   3.531  0.2740 -0.4955  0.6534
  962PF6-    F714724   0.173   3.527   3.663 -0.1817 -0.2916 -0.0892
  963PF6-    P114725   0.232   3.531   0.152 -0.3633 -0.1180 -0.0922
  963PF6-    F214726   0.232   3.629   0.284  0.1756 -0.1111 -0.4152
  963PF6-    F314727   0.234   3.430   0.035  0.2292  0.1026  0.0766
  963PF6-    F414728   0.225   3.399   0.251  0.2780  0.1731 -0.1754
  963PF6-    F514729   0.233   3.658   0.052  0.1866  0.2583  0.0589
  963PF6-    F614730   0.388   3.534   0.153 -0.2310  0.0696 -0.3011
  963PF6-    F714731   0.068   3.537   0.150  0.0888  0.0567 -0.7409
  964PF6-    P114732   4.948   3.112   2.787 -0.5166  0.3653 -0.1415
  964PF6-    F214733   4.986   3.023   2.920 -0.1993  0.1721 -0.1012
  964PF6-    F314734   4.904   3.193   2.650  0.1801 -0.2498  0.2331
  964PF6-    F414735   5.021   2.991   2.695  0.4441  0.2529  0.2473
  964PF6-    F514736   4.879   3.225   2.875  0.6276  0.5326 -0.0964
  964PF6-    F614737   5.084   3.195   2.789 -0.1241  0.1325  0.0361
  964PF6-    F714738   4.814   3.030   2.784  0.0985  0.3541 -0.3710
  965PF6-    P114739   3.523   3.211   0.577  0.0867 -0.2249  0.1838
  965PF6-    F214740   3.419   3.231   0.695  0.2263  0.6764 -0.0007
  965PF6-    F314741   3.626   3.197   0.457 -0.1653 -0.5889  0.2418
  965PF6-    F414742   3.430   3.096   0.513 -0.4591 -0.5104  0.2187
  965PF6-    F514743   3.616   3.327   0.634  0.4603  0.0995 -0.3946
  965PF6-    F614744   3.602   3.103   0.659 -0.1263 -0.1251  0.2790
  965PF6-    F714745   3.450   3.327   0.496  0.2097  0.0325  0.0069
  966PF6-    P114746   0.754   0.213   5.104 -0.0004  0.4720 -0.0265
  966PF6-    F214747   0.913   0.217   5.106 -0.2691  0.4283 -0.1414
  966PF6-    F314748   0.595   0.208   5.108 -0.1712  0.1469 -0.1458
  966PF6-    F414749   0.758   0.053   5.083 -0.3582  0.3576 -0.0976
  966PF6-    F514750   0.758   0.372   5.123 -0.1287  0.2736 -0.0890
  966PF6-    F614751   0.757   0.236   4.946 -0.0650  0.3426  0.4493
  966PF6-    F714752   0.751   0.192   5.263 -0.1697 -0.6226 -0.4128
  967PF6-    P114753   0.024   2.889   0.959 -0.0279 -0.1849  0.5219
  967PF6-    F214754   0.127   2.912   1.074 -0.1405 -0.0432 -0.2983
  967PF6-    F314755  -0.085   2.874   0.849  0.0167  0.2328  0.3668
  967PF6-    F414756  -0.077   2.817   1.063 -0.2069  0.0234 -0.1569
  967PF6-    F514757   0.127   2.959   0.855  0.2510  0.6367 -0.2303
  967PF6-    F614758   0.091   2.750   0.921  0.2870  0.0031 -0.8380
  967PF6-    F714759  -0.043   3.030   0.998 -0.6151 -0.1338 -0.4001
  968PF6-    P114760   0.813   3.476   0.061  0.4755 -0.0286  0.2226
  968PF6-    F214761   0.781   3.343   0.153 -0.4383  0.5327  0.4660
  968PF6-    F314762   0.843   3.614  -0.023  0.2396  0.1624  0.3779
  968PF6-    F414763   0.731   3.410  -0.061  0.0969  1.0276  0.5765
  968PF6-    F514764   0.897   3.541   0.181 -0.2334  0.2023 -0.4565
  968PF6-    F614765   0.944   3.408   0.002  0.5789  0.1206  0.5573
  968PF6-    F714766   0.673   3.540   0.118  0.7309 -0.4447 -0.0186
  969PF6-    P114767   0.672   1.320   4.209  0.1241  0.2362  0.1323
  969PF6-    F214768   0.605   1.203   4.124  0.5225 -0.1119 -0.4311
  969PF6-    F314769   0.748   1.437   4.284  0.2249  0.4691 -0.6538
  969PF6-    F414770   0.535   1.410   4.179  0.0749  0.0970  0.2389
  969PF6-    F514771   0.802   1.230   4.231  0.0819  0.1096  0.3442
  969PF6-    F614772   0.741   1.377   4.071  0.4499 -0.0462 -0.7001
  969PF6-    F714773   0.609   1.274   4.340 -0.2419 -0.2921  0.0956
  970PF6-    P114774   4.452   2.206   3.233 -0.0609 -0.0957 -0.4974
  970PF6-    F214775   4.333   2.127   3.153 -0.2816 -0.4778 -0.5011
  970PF6-    F314776   4.564   2.286   3.316  0.0675 -0.2986  0.0579
  970PF6-    F414777   4.560   2.112   3.178 -0.4916 -0.1563  0.0246
  970PF6-    F514778   4.338   2.293   3.291 -0.3155  0.3349  0.6229
  970PF6-    F614779   4.434   2.107   3.364  0.2442 -0.1112  0.4793
  970PF6-    F714780   4.465   2.300   3.108 -0.0553  0.0645 -0.1065
  971PF6-    P114781   0.583   0.114   3.358 -0.1710  0.0012  0.1999
  971PF6-    F214782   0.546   0.035   3.231 -0.1219  0.1675  0.3734
  971PF6-    F314783   0.620   0.198   3.493 -0.1587 -0.1887 -0.4086
  971PF6-    F414784   0.566   0.254   3.277  0.0149  0.0380 -0.1925
  971PF6-    F514785   0.594  -0.025   3.440  0.3294  0.5080 -0.5301
  971PF6-    F614786   0.739   0.113   3.312  0.7712  0.2035 -0.0384
  971PF6-    F714787   0.424   0.107   3.397 -0.4566  0.7943  0.6704
  972PF6-    P114788   5.429   2.366   3.661  0.1885 -0.1031  0.0131
  972PF6-    F214789   5.266   2.349   3.631 -0.2040 -0.4671  0.3397
  972PF6-    F314790   5.590   2.395   3.691 -0.0418  0.4460 -0.6560
  972PF6-    F414791   5.394   2.452   3.787 -0.0991 -0.0763  0.2238
  972PF6-    F514792   5.462   2.279   3.527 -0.6587  0.6415 -0.0136
  972PF6-    F614793   5.424   2.497   3.572  0.0595  0.5402  0.3369
  972PF6-    F714794   5.430   2.230   3.744  0.0282 -0.2228 -0.0475
  973PF6-    P114795   2.237   4.972   5.402 -0.2564 -0.2948  0.4387
  973PF6-    F214796   2.084   4.967   5.357  0.3948  0.0987  0.3303
  973PF6-    F314797   2.392   4.977   5.436 -0.4082  0.3395  0.0703
  973PF6-    F414798   2.262   4.828   5.328  0.3043 -0.2634  0.6616
  973PF6-    F514799   2.222   5.113   5.471  0.6675  0.6716 -0.0633
  973PF6-    F614800   2.202   4.902   5.535 -0.2945 -0.1402  0.4377
  973PF6-    F714801   2.268   5.045   5.263  0.0116  0.8179  0.0399
  974PF6-    P114802   2.186   4.821   4.230  0.0759 -0.2500  0.4149
  974PF6-    F214803   2.048   4.893   4.274  0.0688  0.6503  0.2151
  974PF6-    F314804   2.320   4.755   4.177 -0.4213  0.3831 -0.4249
  974PF6-    F414805   2.218   4.954   4.140 -0.2025  0.0106 -0.9938
  974PF6-    F514806   2.150   4.690   4.313  0.5525 -0.2726  0.1422
  974PF6-    F614807   2.111   4.758   4.100 -0.2775 -0.2376 -0.7987
  974PF6-    F714808   2.266   4.886   4.354 -0.6962 -0.4407  0.2046
  975PF6-    P114809   1.775   3.528   3.600  0.4221 -0.5530 -0.0140
  975PF6-    F214810   1.679   3.499   3.729 -0.4257  0.1377 -0.0062
  975PF6-    F314811   1.878   3.565   3.481  0.0845 -0.0272  0.0042
  975PF6-    F414812   1.735   3.387   3.534 -0.2194  0.3069  0.2315
  975PF6-    F514813   1.813   3.671   3.668  0.3696 -0.0360 -0.2095
  975PF6-    F614814   1.890   3.450   3.673 -0.0384  0.1862  0.3141
  975PF6-    F714815   1.653   3.596   3.522  0.2581  1.1210 -0.0917
  976PF6-    P114816   2.884   1.741   5.112  0.1615 -0.1450 -0.5851
  976PF6-    F214817   2.920   1.603   5.181 -0.2275 -0.1668 -0.2546
  976PF6-    F314818   2.844   1.884   5.042  0.1393 -0.1323 -0.0140
  976PF6-    F414819   2.991   1.721   5.001  0.2730  0.0220  0.5558
  976PF6-    F514820   2.782   1.782   5.229  0.4543  0.0080  0.1258
  976PF6-    F614821   3.000   1.812   5.199  0.5656  0.0244  0.2333
  976PF6-    F714822   2.767   1.664   5.029 -0.4785 -0.0273  0.2432
  977PF6-    P114823   2.923   4.164   5.254 -0.1586 -0.3786 -0.3949
  977PF6-    F214824   2.805   4.267   5.272 -0.2575 -0.3145 -0.0120
  977PF6-    F314825   3.045   4.058   5.242 -0.5652  0.1465  0.1538
  977PF6-    F414826   3.012   4.245   5.360  0.1965  0.4774  0.0278
  977PF6-    F514827   2.840   4.085   5.149  0.2904  0.0961 -0.4195
  977PF6-    F614828   2.985   4.245   5.127  0.0893 -0.4662 -0.4818
  977PF6-    F714829   2.857   4.066   5.367  0.5868 -0.3851 -0.7021
  978PF6-    P114830   1.390   1.730   3.824  0.8021 -0.3279  0.0074
  978PF6-    F214831   1.409   1.655   3.682 -0.2857  0.0146  0.1741
  978PF6-    F314832   1.364   1.805   3.958  0.5677 -0.4810  0.2425
  978PF6-    F414833   1.538   1.780   3.825 -0.5449  0.7219 -0.0257
  978PF6-    F514834   1.238   1.685   3.814 -0.0732 -0.0661 -0.3275
  978PF6-    F614835   1.429   1.601   3.909 -0.0306  0.5572  0.4629
  978PF6-    F714836   1.347   1.870   3.747 -0.4138 -0.0700 -0.1306
  979PF6-    P114837   3.959   0.239   1.767 -0.0784 -0.0068 -0.6072
  979PF6-    F214838   3.813   0.172   1.789 -0.0923 -0.6141 -0.0280
  979PF6-    F314839   4.107   0.309   1.745  0.5937  0.0501  0.0925
  979PF6-    F414840   3.896   0.387   1.778  0.0151 -0.1903 -0.2739
  979PF6-    F514841   4.023   0.088   1.760  0.0112  0.0664  1.0163
  979PF6-    F614842   3.934   0.232   1.609 -0.3385 -0.1473 -0.2380
  979PF6-    F714843   3.982   0.248   1.923 -0.3313 -0.1032 -0.1303
  980PF6-    P114844   0.034   1.265   2.027  0.0185  0.0447 -0.0508
  980PF6-    F214845   0.017   1.429   2.046 -0.0123 -0.0289 -0.1869
  980PF6-    F314846   0.056   1.108   2.014  0.0179  0.0106 -0.1420
  980PF6-    F414847   0.135   1.264   2.153 -0.0451 -0.4408 -0.9867
  980PF6-    F514848  -0.065   1.270   1.908 -0.4085 -0.8174 -0.1637
  980PF6-    F614849   0.151   1.297   1.931  0.0292  0.3539  0.9608
  980PF6-    F714850  -0.094   1.243   2.118  0.3871 -0.0604  0.1984
  981PF6-    P114851   4.461   0.466   2.634 -0.0758  0.3677  0.1783
  981PF6-    F214852   4.566   0.585   2.660 -0.0821  0.1588  0.3903
  981PF6-    F314853   4.369   0.342   2.608  0.2827 -0.2604  0.1505
  981PF6-    F414854   4.595   0.366   2.633 -0.3788 -0.2605  0.0376
  981PF6-    F514855   4.335   0.567   2.643  0.5808  0.2359  0.6642
  981PF6-    F614856   4.476   0.482   2.473 -0.8152 -0.5678  0.0013
  981PF6-    F714857   4.446   0.440   2.794  0.2929 -0.6302  0.1891
  982PF6-    P114858   2.850   1.783   0.537 -0.0052  0.0983  0.4292
  982PF6-    F214859   2.776   1.921   0.537  0.3477 -0.3668 -0.2958
  982PF6-    F314860   2.934   1.643   0.520  0.5011 -0.1469 -0.3706
  982PF6-    F414861   2.797   1.757   0.395  0.1400 -0.1656  0.0646
  982PF6-    F514862   2.903   1.808   0.687 -0.3360  0.2151 -0.0588
  982PF6-    F614863   2.717   1.713   0.587  0.2718 -0.1253 -0.9519
  982PF6-    F714864   2.982   1.846   0.487 -0.4857 -0.6108 -0.0079
  983PF6-    P114865   3.996   0.653   0.677 -0.3260  0.0591 -0.1225
  983PF6-    F214866   3.866   0.589   0.750 -0.1580 -0.4906  0.0962
  983PF6-    F314867   4.123   0.717   0.610 -0.5424  0.3446 -0.1449
  983PF6-    F414868   3.931   0.633   0.533 -0.2170  0.2394 -0.6132
  983PF6-    F514869   4.063   0.669   0.821  0.3436  0.1485  0.1879
  983PF6-    F614870   4.049   0.504   0.657 -0.2432  0.4934  0.1285
  983PF6-    F714871   3.939   0.799   0.690  0.4125 -0.0793  0.3046
  984PF6-    P114872   0.503   2.604   1.659  0.1727 -0.0438  0.0766
  984PF6-    F214873   0.399   2.547   1.773  0.2384 -0.1653  0.4340
  984PF6-    F314874   0.603   2.653   1.541 -0.0725  0.1034 -0.1421
  984PF6-    F414875   0.627   2.534   1.727 -0.0027 -0.6064  0.4693
  984PF6-    F514876   0.383   2.677   1.587  0.6086  0.7642  0.0371
  984PF6-    F614877   0.525   2.738   1.739  0.0665 -0.0634  0.5594
  984PF6-    F714878   0.489   2.471   1.570 -0.4389 -0.1791 -0.2751
  985PF6-    P114879   0.388   2.669   0.593 -0.0621  0.1287  0.3981
  985PF6-    F214880   0.402   2.522   0.659 -0.2899 -0.0808  0.2120
  985PF6-    F314881   0.373   2.817   0.531 -0.7895 -0.0939 -0.1496
  985PF6-    F414882   0.337   2.727   0.735  0.0700  0.3530 -0.2928
  985PF6-    F514883   0.434   2.612   0.449 -0.3130 -0.4910 -0.0999
  985PF6-    F614884   0.240   2.641   0.560  0.4873  1.0020  0.3298
  985PF6-    F714885   0.539   2.705   0.627  0.2147 -0.3979 -0.0265
  986PF6-    P114886   2.725   3.468   2.853  0.2593  0.2065 -0.5989
  986PF6-    F214887   2.774   3.611   2.803 -0.2049 -0.1789  0.1673
  986PF6-    F314888   2.668   3.323   2.897 -0.0460  0.1472 -0.6295
  986PF6-    F414889   2.796   3.408   2.725  0.3998  0.0612 -0.1584
  986PF6-    F514890   2.652   3.535   2.982  0.0798 -0.4445  0.6013
  986PF6-    F614891   2.589   3.493   2.770 -1.1048  0.3307  0.3875
  986PF6-    F714892   2.859   3.443   2.935  0.0004  0.3216 -0.3740
  987PF6-    P114893   2.437   4.013   1.717 -0.3446  0.9092  0.2531
  987PF6-    F214894   2.371   4.086   1.594 -0.0201 -0.2734 -0.0665
  987PF6-    F314895   2.496   3.934   1.841  0.0240 -0.0512  0.5671
  987PF6-    F414896   2.323   3.906   1.708  0.0673 -0.3156 -0.5876
  987PF6-    F514897   2.562   4.121   1.724  0.1485  0.5297  0.1429
  987PF6-    F614898   2.352   4.101   1.817 -0.5871 -0.0187 -0.1995
  987PF6-    F714899   2.522   3.920   1.621  0.0347 -0.1623  0.1679
  988PF6-    P114900   1.967   0.325   3.380 -0.3718 -0.0794 -0.5729
  988PF6-    F214901   1.940   0.307   3.538  0.5860 -0.1885 -0.0438
  988PF6-    F314902   1.999   0.346   3.229 -0.1928 -0.0852 -0.4676
  988PF6-    F414903   1.838   0.237   3.344  0.1485  0.0622  0.9119
  988PF6-    F514904   2.100   0.415   3.413  0.1338 -0.0854 -0.0713
  988PF6-    F614905   2.057   0.195   3.393  0.0766 -0.0472  0.1343
  988PF6-    F714906   1.877   0.458   3.378 -0.0955  0.3174 -0.0458
  989PF6-    P114907   3.299   5.472   0.640  0.3719  0.1764  0.2030
  989PF6-    F214908   3.368   5.359   0.719  0.0681 -0.1266  0.5660
  989PF6-    F314909   3.216   5.573   0.552 -0.5182  0.4187  0.5901
  989PF6-    F414910   3.252   5.357   0.539  0.0387 -0.1214 -0.5393
  989PF6-    F514911   3.341   5.583   0.743 -0.6566 -0.2724  0.2746
  989PF6-    F614912   3.431   5.498   0.557  0.2097  0.8071 -0.2797
  989PF6-    F714913   3.170   5.446   0.725  0.4745 -0.1247  0.4496
  990PF6-    P114914   4.288   4.702   3.660  0.6144  0.3358 -0.1871
  990PF6-    F214915   4.300   4.624   3.798 -0.7927 -0.0606 -0.2322
  990PF6-    F314916   4.272   4.785   3.523 -0.4657 -0.4826  0.1019
  990PF6-    F414917   4.158   4.784   3.714  0.3682  0.2855 -0.0691
  990PF6-    F514918   4.423   4.631   3.599  0.0991 -0.5748 -0.0874
  990PF6-    F614919   4.199   4.581   3.611 -0.4248  0.6381 -0.2979
  990PF6-    F714920   4.379   4.817   3.724  0.5367 -0.0040  0.2903
  991PF6-    P114921   3.874   5.234   2.485  0.0881  0.0280  0.6755
  991PF6-    F214922   3.735   5.304   2.508  0.0743  0.1272  0.0898
  991PF6-    F314923   4.013   5.158   2.457 -0.0859 -0.0377 -0.0070
  991PF6-    F414924   3.797   5.118   2.400  0.3003 -0.1689  0.6405
  991PF6-    F514925   3.944   5.351   2.564  0.1385  0.1651 -0.2271
  991PF6-    F614926   3.861   5.150   2.621 -0.2748  0.3238 -0.3209
  991PF6-    F714927   3.889   5.309   2.343  0.1116  0.1668 -0.1945
  992PF6-    P114928   4.671   4.318   2.190  0.0604 -0.0457  0.1550
  992PF6-    F214929   4.606   4.186   2.129  0.2678  0.4967 -0.0253
  992PF6-    F314930   4.752   4.445   2.254  0.4613  0.3828 -0.2795
  992PF6-    F414931   4.809   4.241   2.177 -0.1096  0.3052 -0.3750
  992PF6-    F514932   4.532   4.391   2.205 -0.1991  0.5421  0.2390
  992PF6-    F614933   4.653   4.258   2.338 -0.2207 -0.1484  0.2963
  992PF6-    F714934   4.684   4.382   2.045 -0.2568 -0.0031  0.6835
  993PF6-    P114935   4.939   1.033   1.022  0.0047  0.3864  0.3286
  993PF6-    F214936   4.845   0.904   1.032  0.2123 -0.2064  0.4474
  993PF6-    F314937   5.037   1.162   1.018 -0.0119  0.3213  0.4636
  993PF6-    F414938   4.813   1.120   0.981 -0.0176  0.3030 -0.7052
  993PF6-    F514939   5.072   0.944   1.059  0.0561  0.1942  0.2810
  993PF6-    F614940   4.963   1.007   0.862  0.3438 -0.9802  0.1247
  993PF6-    F714941   4.915   1.062   1.182  0.2148  0.0332 -0.4209
  994PF6-    P114942   5.040   2.343   0.286  0.0751  0.4321  0.0678
  994PF6-    F214943   5.068   2.289   0.433 -0.4162 -0.3624 -0.6100
  994PF6-    F314944   5.005   2.399   0.134 -0.3984  0.2420  0.2398
  994PF6-    F414945   5.085   2.490   0.329 -0.0144 -0.0722 -0.2463
  994PF6-    F514946   4.980   2.197   0.238  0.0248  0.0513 -0.7698
  994PF6-    F614947   4.889   2.378   0.334 -0.0190 -0.6390  0.2243
  994PF6-    F714948   5.189   2.298   0.239 -0.1192  0.6282 -0.1297
  995PF6-    P114949   0.424   5.407   2.531 -0.3472 -0.3367  0.0199
  995PF6-    F214950   0.382   5.260   2.470  0.5059 -0.0851  0.0443
  995PF6-    F314951   0.468   5.549   2.601 -0.3503  0.2795 -0.2629
  995PF6-    F414952   0.542   5.422   2.425 -0.3293 -0.7063 -0.4700
  995PF6-    F514953   0.306   5.403   2.640  0.4452 -0.0720 -0.3574
  995PF6-    F614954   0.527   5.331   2.628 -0.1350 -0.2558  0.3882
  995PF6-    F714955   0.320   5.480   2.434  0.0061  0.2457 -0.1950
  996PF6-    P114956   3.409   1.016   2.816 -0.2115  0.3923  0.1843
  996PF6-    F214957   3.557   0.959   2.836 -0.2077  0.4661 -0.1827
  996PF6-    F314958   3.262   1.075   2.794 -0.4006 -0.2651 -0.0105
  996PF6-    F414959   3.455   1.155   2.885  0.2746  0.3085 -0.5524
  996PF6-    F514960   3.367   0.881   2.747  0.1730 -0.1893 -0.1188
  996PF6-    F614961   3.375   0.960   2.958  0.0485  0.1115  0.3485
  996PF6-    F714962   3.450   1.072   2.668 -0.3566  0.1157 -0.2512
  997PF6-    P114963   2.917   1.406   1.621  0.5851 -0.2848 -0.2632
  997PF6-    F214964   2.983   1.551   1.594  0.2759 -0.2353  0.2263
  997PF6-    F314965   2.857   1.260   1.653 -0.1143  0.0423 -0.4932
  997PF6-    F414966   2.827   1.466   1.735  0.0265 -0.1384  0.2402
  997PF6-    F514967   3.006   1.348   1.503 -0.6020 -0.4122 -0.5981
  997PF6-    F614968   3.029   1.382   1.731  0.1531  0.2788  0.0580
  997PF6-    F714969   2.806   1.441   1.516  0.1122  0.0319  0.3461
  998PF6-    P114970   1.746   0.315   0.559 -0.5907  0.4308  0.2588
  998PF6-    F214971   1.851   0.403   0.471  0.0664 -0.3069 -0.1318
  998PF6-    F314972   1.643   0.232   0.651 -0.4173 -0.2956  0.1476
  998PF6-    F414973   1.746   0.429   0.672  0.0757  0.2752  0.9176
  998PF6-    F514974   1.740   0.207   0.444  0.3310  0.0617 -0.5269
  998PF6-    F614975   1.873   0.242   0.631 -0.4266  0.1598 -0.2022
  998PF6-    F714976   1.623   0.393   0.492 -0.5561  0.5587 -0.6800
  999PF6-    P114977   1.340   2.516   0.669  0.4143  0.6931 -0.1270
  999PF6-    F214978   1.223   2.406   0.634 -0.1777  0.3481  0.5379
  999PF6-    F314979   1.453   2.618   0.716 -0.0776  0.1835  0.3546
  999PF6-    F414980   1.265   2.634   0.591  0.2459 -0.0185 -0.4252
  999PF6-    F514981   1.417   2.398   0.753  0.5154 -0.2996  0.0998
  999PF6-    F614982   1.424   2.468   0.540 -0.1628  0.3784 -0.3656
  999PF6-    F714983   1.264   2.562   0.802 -0.0849  0.6149  0.0527
 1000PF6-    P114984   0.405   4.389   2.656 -0.3477  0.6314  0.1675
 1000PF6-    F214985   0.520   4.410   2.543 -0.2043 -0.4619  0.2948
 1000PF6-    F314986   0.295   4.363   2.768 -0.2677 -0.1375  0.0297
 1000PF6-    F414987   0.296   4.365   2.539  0.0081  0.1305 -0.8584
 1000PF6-    F514988   0.515   4.415   2.778 -0.2652  0.4978  0.6201
 1000PF6-    F614989   0.373   4.549   2.649  0.2256  0.4933 -0.0647
 1000PF6-    F714990   0.435   4.234   2.651 -0.3986 -0.0110 -0.1692
 1001PF6-    P114991   5.405   0.539   5.287 -0.2760  0.0662 -0.6380
 1001PF6-    F214992   5.460   0.677   5.232 -0.4526  0.6874 -0.4911
 1001PF6-    F314993   5.352   0.399   5.345 -0.4088 -0.2836 -0.6189
 1001PF6-    F414994   5.258   0.579   5.238  0.6963 -0.0471 -0.0065
 1001PF6-    F514995   5.553   0.499   5.332 -0.7672 -0.3267  0.6002
 1001PF6-    F614996   5.380   0.607   5.434 -0.0650  0.1487 -0.0869
 1001PF6-    F714997   5.432   0.472   5.142 -0.2278 -0.0570 -0.3399
 1002PF6-    P114998   4.202   5.466   4.281  0.1159  0.2469  0.0281
 1002PF6-    F214999   4.324   5.475   4.381 -0.5495 -0.1065 -0.2811
 1002PF6-    F315000   4.073   5.462   4.184 -0.2211 -0.2193  0.3342
 1002PF6-    F415001   4.303   5.524   4.165  0.3151  0.0323 -0.1583
 1002PF6-    F515002   4.115   5.404   4.401 -0.2752 -0.2466  0.4515
 1002PF6-    F615003   4.157   5.612   4.315 -0.3087  0.8180 -0.1805
 1002PF6-    F715004   4.243   5.317   4.246 -0.0636  0.4844 -0.0744
 1003PF6-    P115005   5.112   1.860   1.557 -0.0847  0.1261 -0.4636
 1003PF6-    F215006   5.187   1.987   1.500  0.1807  0.7712 -0.2421
 1003PF6-    F315007   5.027   1.731   1.610 -0.4167  0.3241  0.5127
 1003PF6-    F415008   5.186   1.775   1.442  0.4773 -0.2593 -0.1685
 1003PF6-    F515009   5.051   1.953   1.673  0.5348 -0.1779  0.1344
 1003PF6-    F615010   4.996   1.909   1.460 -0.5967  0.5044  0.4023
 1003PF6-    F715011   5.234   1.818   1.655  0.8719 -0.0913  0.2765
 1004PF6-    P115012   2.803   0.844   3.742  0.2682  0.1806 -0.1291
 1004PF6-    F215013   2.758   0.949   3.631  0.0397  0.2761  0.6605
 1004PF6-    F315014   2.847   0.750   3.863  0.0189 -0.1533 -0.2883
 1004PF6-    F415015   2.732   0.726   3.665 -0.2541  0.2971 -0.0186
 1004PF6-    F515016   2.875   0.966   3.818  0.1959  0.7235  0.2344
 1004PF6-    F615017   2.668   0.883   3.814 -0.1894  0.0934 -0.1748
 1004PF6-    F715018   2.944   0.812   3.666  0.2872 -0.5787  0.2123
 1005PF6-    P115019   0.792   2.918   3.096  0.1689 -0.0595 -0.3099
 1005PF6-    F215020   0.700   3.045   3.052 -0.3827  0.2882 -0.0082
 1005PF6-    F315021   0.881   2.795   3.146  0.1229  0.4539 -0.0334
 1005PF6-    F415022   0.741   2.825   2.972 -0.1448 -0.6317  0.4693
 1005PF6-    F515023   0.852   2.998   3.216 -0.2077 -0.3373 -0.3100
 1005PF6-    F615024   0.672   2.859   3.178 -0.3541  0.4600  0.1103
 1005PF6-    F715025   0.916   2.974   3.020 -0.2840 -0.3972  0.3303
 1006PF6-    P115026   4.902   1.781   4.631  0.6094 -0.1277 -0.0990
 1006PF6-    F215027   4.994   1.661   4.593 -0.4058  0.0865 -0.3096
 1006PF6-    F315028   4.809   1.904   4.669  0.4536 -0.3365 -0.7094
 1006PF6-    F415029   4.966   1.769   4.776  0.0692  0.4547  0.0085
 1006PF6-    F515030   4.845   1.781   4.484  0.0838 -0.0873  0.0602
 1006PF6-    F615031   4.788   1.680   4.677  0.5689  0.2637  0.7320
 1006PF6-    F715032   5.016   1.887   4.590 -0.3451 -0.2481  0.0075
 1007PF6-    P115033   2.188   2.744   3.658 -0.4936  0.0527  0.1850
 1007PF6-    F215034   2.089   2.716   3.534 -0.0701  0.3465 -0.3856
 1007PF6-    F315035   2.289   2.770   3.781 -0.1283 -0.1381  0.1614
 1007PF6-    F415036   2.271   2.610   3.630 -0.0813  0.4939 -0.2460
 1007PF6-    F515037   2.110   2.877   3.701 -0.5757 -0.1304 -0.2825
 1007PF6-    F615038   2.091   2.661   3.754 -0.5380 -0.5816 -0.0723
 1007PF6-    F715039   2.297   2.825   3.559  0.3278 -0.2635 -0.3917
 1008PF6-    P115040   4.283   1.370   4.272  0.1270 -0.2641 -0.4969
 1008PF6-    F215041   4.238   1.405   4.122  0.3935  0.3370 -0.5306
 1008PF6-    F315042   4.333   1.340   4.416  0.4876  0.1623  0.2467
 1008PF6-    F415043   4.315   1.220   4.227 -0.0115 -0.2787 -0.2405
 1008PF6-    F515044   4.249   1.520   4.324 -0.3549  0.4942  0.1201
 1008PF6-    F615045   4.135   1.326   4.307  0.1059 -0.1935 -0.1399
 1008PF6-    F715046   4.431   1.415   4.234 -0.3342 -0.0054  0.3826
 1009PF6-    P115047   1.839   2.070   2.728  0.1890  0.1446 -0.5788
 1009PF6-    F215048   1.922   2.130   2.600 -0.1322  0.4698 -0.2043
 1009PF6-    F315049   1.757   2.005   2.850 -0.0746 -0.3028 -0.3555
 1009PF6-    F415050   1.970   2.093   2.828  0.1621 -0.1232  0.2320
 1009PF6-    F515051   1.718   2.049   2.632  0.2364 -0.5829 -0.1030
 1009PF6-    F615052   1.900   1.924   2.689  0.5419 -0.0595 -0.0993
 1009PF6-    F715053   1.785   2.215   2.768 -0.3586 -0.0112 -0.0022
 1010PF6-    P115054   4.076   3.020   4.210 -0.1389  0.0763 -0.2298
 1010PF6-    F215055   4.118   3.168   4.183 -0.3833 -0.1859  0.1233
 1010PF6-    F315056   4.029   2.875   4.243 -0.5557  0.3864 -0.0175
 1010PF6-    F415057   3.993   3.021   4.069  0.5738  0.1274 -1.0139
 1010PF6-    F515058   4.161   3.029   4.352  0.2073  0.4877  0.1619
 1010PF6-    F615059   3.941   3.071   4.281 -0.0777 -0.3590 -0.8444
 1010PF6-    F715060   4.207   2.967   4.135 -0.1050  0.6160 -0.4312
 1011PF6-    P115061   1.288   1.816   5.451  0.0987 -0.1348  0.0255
 1011PF6-    F215062   1.137   1.800   5.399  0.1697 -0.4395  0.1131
 1011PF6-    F315063   1.437   1.832   5.504  0.1861  0.0085  0.0835
 1011PF6-    F415064   1.337   1.748   5.314  0.2265  0.3346  0.0399
 1011PF6-    F515065   1.229   1.889   5.582  0.1784  0.4640  0.3715
 1011PF6-    F615066   1.273   1.672   5.524 -0.3405 -0.1095 -0.3678
 1011PF6-    F715067   1.302   1.953   5.380 -0.1694  0.1440  0.4956
 1012PF6-    P115068   1.526   5.019   5.158 -0.4785  0.0248 -0.2276
 1012PF6-    F215069   1.607   4.895   5.115 -0.0517  0.1804 -0.0363
 1012PF6-    F315070   1.440   5.151   5.183 -0.1442  0.3138 -0.2381
 1012PF6-    F415071   1.569   5.087   5.018  0.3084  0.4032  0.0261
 1012PF6-    F515072   1.484   4.953   5.297  0.5578  0.1147 -0.4475
 1012PF6-    F615073   1.645   5.092   5.236  0.0925  0.3318  0.0473
 1012PF6-    F715074   1.398   4.955   5.086 -0.3151  0.0204 -0.1384
 1013PF6-    P115075   4.873   1.830   2.465 -0.5771  0.0326 -0.2856
 1013PF6-    F215076   5.004   1.859   2.377  0.4563  0.0423  0.5906
 1013PF6-    F315077   4.750   1.803   2.561 -0.2255 -0.2579  0.1620
 1013PF6-    F415078   4.769   1.870   2.348  0.0216  0.3040 -0.0028
 1013PF6-    F515079   4.971   1.791   2.591  0.3492 -0.6336 -0.0748
 1013PF6-    F615080   4.871   1.978   2.518  0.3388  0.1165  0.0637
 1013PF6-    F715081   4.874   1.677   2.416  0.0875  0.0765  0.0406
 1014PF6-    P115082   1.616   5.012   1.328 -0.3102  0.0091  0.0391
 1014PF6-    F215083   1.487   4.978   1.411  0.3573  0.1539 -0.6088
 1014PF6-    F315084   1.751   5.039   1.247  0.3315 -0.4205 -0.1420
 1014PF6-    F415085   1.564   4.912   1.207  0.0756 -0.3093 -0.7553
 1014PF6-    F515086   1.673   5.103   1.452  0.5353  0.2102 -0.2155
 1014PF6-    F615087   1.689   4.885   1.396  0.9211 -0.2901  0.1399
 1014PF6-    F715088   1.548   5.141   1.257  0.3963 -0.1124 -0.6538
 1015PF6-    P115089   0.946   1.931   1.962  0.5114 -0.5580 -0.7152
 1015PF6-    F215090   0.884   1.881   1.826  0.4351  0.2583  0.2082
 1015PF6-    F315091   1.013   1.986   2.100 -0.2674 -0.7076 -0.3386
 1015PF6-    F415092   0.973   1.777   2.010  0.2384  0.1023  0.0854
 1015PF6-    F515093   0.926   2.085   1.920  0.5311  0.1405 -0.4114
 1015PF6-    F615094   0.807   1.919   2.037 -0.0884 -0.3814 -0.4757
 1015PF6-    F715095   1.084   1.929   1.894 -0.8283  0.2367  0.1071
 1016PF6-    P115096   0.079   0.649   4.185 -0.2177 -0.1215  0.1808
 1016PF6-    F215097   0.195   0.583   4.099  0.3385  0.0772  0.3512
 1016PF6-    F315098  -0.038   0.719   4.263 -0.6241  0.2056  0.7201
 1016PF6-    F415099   0.038   0.743   4.061  0.2029  0.2292  0.2663
 1016PF6-    F515100   0.119   0.563   4.315 -0.2334  0.1207  0.3827
 1016PF6-    F615101   0.186   0.763   4.231 -0.1525 -0.4857 -0.1672
 1016PF6-    F715102  -0.026   0.538   4.138 -0.1310 -0.8093  0.0677
 1017PF6-    P115103   3.178   0.943   4.383  0.5085 -0.1761 -0.0496
 1017PF6-    F215104   3.061   1.021   4.461  0.0650 -0.0617 -0.6444
 1017PF6-    F315105   3.285   0.860   4.301 -0.0718  0.0963  0.5649
 1017PF6-    F415106   3.237   1.079   4.320 -0.3566 -0.1417 -0.0668
 1017PF6-    F515107   3.116   0.808   4.441 -1.1726  0.2298  0.2121
 1017PF6-    F615108   3.079   0.920   4.256 -0.1853 -0.2141 -0.6676
 1017PF6-    F715109   3.276   0.949   4.510  0.1756  0.9661 -0.3795
 1018PF6-    P115110   5.474   5.234   3.761 -0.0681  0.0735  0.2797
 1018PF6-    F215111   5.349   5.141   3.821  0.0790  0.1984  0.1126
 1018PF6-    F315112   5.603   5.326   3.711 -0.5560  0.2536  0.5808
 1018PF6-    F415113   5.575   5.140   3.834 -0.5252 -0.1665 -0.1126
 1018PF6-    F515114   5.374   5.330   3.680  0.1659  0.0939  0.4023
 1018PF6-    F615115   5.459   5.329   3.886  0.0206  0.2801 -0.5358
 1018PF6-    F715116   5.489   5.133   3.629 -0.1944 -0.2124 -0.2157
 1019PF6-    P115117   4.529   4.185   0.723  0.3939  0.1520  0.0415
 1019PF6-    F215118   4.415   4.122   0.630 -0.1363  0.4962 -0.0498
 1019PF6-    F315119   4.643   4.261   0.810  0.4726  0.5720  0.1111
 1019PF6-    F415120   4.642   4.119   0.629  0.0779  0.1869  0.5608
 1019PF6-    F515121   4.417   4.246   0.817  0.5465  0.0783 -0.2758
 1019PF6-    F615122   4.533   4.054   0.816  0.4655 -0.3921 -0.1729
 1019PF6-    F715123   4.525   4.313   0.632 -0.1498 -0.8548 -0.1565
 1020PF6-    P115124   2.844   2.862   5.187  0.3470 -0.2132 -0.4827
 1020PF6-    F215125   2.933   2.770   5.096 -0.5098  0.2770  0.1968
 1020PF6-    F315126   2.753   2.967   5.275 -0.2663 -0.4248 -0.3151
 1020PF6-    F415127   2.936   2.829   5.314 -0.2503 -0.1886  0.3396
 1020PF6-    F515128   2.747   2.887   5.063 -0.2344  0.4098 -0.0760
 1020PF6-    F615129   2.751   2.735   5.233  0.1851 -0.5803  0.5314
 1020PF6-    F715130   2.932   2.984   5.138 -0.0003  0.0717 -0.1398
 1021PF6-    P115131   0.183   5.147   4.976 -0.1511  0.0847  0.1195
 1021PF6-    F215132   0.144   5.166   4.820 -0.1239 -0.5419 -0.0635
 1021PF6-    F315133   0.221   5.123   5.120  0.3588 -0.1251 -0.4092
 1021PF6-    F415134   0.037   5.195   5.022  0.6190  0.0922  0.1165
 1021PF6-    F515135   0.330   5.089   4.928  0.0572  0.7115 -0.3705
 1021PF6-    F615136   0.252   5.293   4.983  0.2854 -0.3989 -0.0463
 1021PF6-    F715137   0.130   4.997   4.965  0.7464  0.4890 -0.0613
 1022PF6-    P115138   0.904   1.828   3.187 -0.3186 -0.1604  0.1841
 1022PF6-    F215139   0.835   1.697   3.245 -0.4178  0.0916  0.7274
 1022PF6-    F315140   0.978   1.965   3.128 -0.1326  0.1189  0.1641
 1022PF6-    F415141   1.048   1.787   3.244 -0.2536  0.4753  0.3595
 1022PF6-    F515142   0.764   1.877   3.129  0.0553  0.1744 -0.3609
 1022PF6-    F615143   0.869   1.899   3.324  0.5551 -0.2489 -0.3030
 1022PF6-    F715144   0.938   1.746   3.047  0.4086 -0.2788 -0.1753
 1023PF6-    P115145   1.920   1.029   4.253  0.1244 -0.1210  0.5053
 1023PF6-    F215146   2.029   0.959   4.152  0.0991 -0.4365 -0.3684
 1023PF6-    F315147   1.818   1.097   4.360  0.0964 -0.2432  0.0062
 1023PF6-    F415148   2.017   1.160   4.270 -0.0688  0.1347 -0.0842
 1023PF6-    F515149   1.826   0.902   4.239 -0.0185 -0.1560 -0.1563
 1023PF6-    F615150   1.999   0.953   4.372 -0.0425 -0.3988  0.0434
 1023PF6-    F715151   1.835   1.098   4.128 -0.2930  0.0302 -0.4368
 1024PF6-    P115152   1.738   0.137   1.921  0.2964 -0.1825  0.4230
 1024PF6-    F215153   1.618   0.200   2.001 -0.2262  0.1943 -0.0016
 1024PF6-    F315154   1.868   0.077   1.848 -0.0670  0.1671 -0.0948
 1024PF6-    F415155   1.710   0.230   1.792 -0.2484 -0.1396  0.0689
 1024PF6-    F515156   1.769   0.049   2.048 -0.1004 -0.2597 -0.0732
 1024PF6-    F615157   1.641   0.025   1.861 -0.1158  0.3728  0.3820
 1024PF6-    F715158   1.840   0.246   1.982 -0.1336  0.4088  0.4258
 1025PF6-    P115159   3.041   0.455   2.352 -0.1022 -0.2262  0.0757
 1025PF6-    F215160   2.969   0.499   2.217  0.2165  0.5927 -0.3425
 1025PF6-    F315161   3.116   0.413   2.494 -0.2438 -1.2900  0.1638
 1025PF6-    F415162   3.069   0.310   2.289  1.2616  0.0967 -0.5983
 1025PF6-    F515163   3.018   0.604   2.414  0.2722 -0.5023  0.5597
 1025PF6-    F615164   2.905   0.413   2.419 -0.2030  0.2089 -0.0945
 1025PF6-    F715165   3.182   0.508   2.287  0.5229 -0.4086 -0.0299
 1026PF6-    P115166   3.521   1.967   3.128 -0.2793  0.0483 -0.2805
 1026PF6-    F215167   3.401   2.026   3.052  0.3050  0.8438  0.0020
 1026PF6-    F315168   3.645   1.898   3.204 -0.2659  0.1478  0.6690
 1026PF6-    F415169   3.489   1.825   3.062  0.4037  0.0170  0.2596
 1026PF6-    F515170   3.548   2.109   3.197  0.2727  0.1628 -0.1981
 1026PF6-    F615171   3.426   1.937   3.257 -0.0008  0.4553  0.2132
 1026PF6-    F715172   3.617   2.002   3.000  0.1750  0.5722  0.0871
 1027PF6-    P115173   4.409   2.785   1.005 -0.1234  0.0371  0.0620
 1027PF6-    F215174   4.498   2.853   1.122  0.2793  0.0056 -0.4753
 1027PF6-    F315175   4.327   2.721   0.880 -0.0148 -0.3875 -0.6789
 1027PF6-    F415176   4.339   2.688   1.105  0.0429  0.1729 -0.3701
 1027PF6-    F515177   4.478   2.883   0.897 -0.4102 -0.0875  0.0115
 1027PF6-    F615178   4.522   2.674   0.979  0.5134 -0.0009 -0.2334
 1027PF6-    F715179   4.296   2.894   1.030  0.1965 -0.5585 -0.4864
 1028PF6-    P115180   1.919   3.972   0.096  0.0404  0.1239  0.3092
 1028PF6-    F215181   1.917   4.047  -0.045  0.7922  0.6647  0.3309
 1028PF6-    F315182   1.922   3.887   0.233 -0.1452  0.0013  0.5081
 1028PF6-    F415183   1.939   4.110   0.173  0.0073 -0.0933 -0.0273
 1028PF6-    F515184   1.897   3.835   0.013  0.1417  0.0532 -0.3424
 1028PF6-    F615185   2.080   3.952   0.080  0.0678  0.0743 -0.3428
 1028PF6-    F715186   1.756   3.973   0.111 -0.1940 -0.3014  0.0164
 1029PF6-    P115187   5.072   4.200   5.197 -0.0939 -0.1053  0.0026
 1029PF6-    F215188   5.027   4.346   5.236 -0.0373 -0.1958  0.3539
 1029PF6-    F315189   5.120   4.058   5.153  0.0902 -0.0979  0.2367
 1029PF6-    F415190   5.037   4.147   5.348 -0.4187  0.1384 -0.6440
 1029PF6-    F515191   5.100   4.250   5.051  0.4271 -0.1533 -0.4304
 1029PF6-    F615192   5.223   4.229   5.252  0.2602  0.0499 -0.3315
 1029PF6-    F715193   4.923   4.158   5.147 -0.4887 -0.0716  0.5985
 1030PF6-    P115194   0.473   1.767   1.209  0.2162  0.1172 -0.4535
 1030PF6-    F215195   0.411   1.726   1.066  0.6433 -0.1213 -0.1402
 1030PF6-    F315196   0.536   1.815   1.349 -0.4173  1.2145  0.2158
 1030PF6-    F415197   0.470   1.922   1.174  0.4255 -0.2315 -0.7249
 1030PF6-    F515198   0.490   1.603   1.244 -0.4429 -0.2002  0.4091
 1030PF6-    F615199   0.618   1.756   1.147 -0.1809  0.2665 -0.1676
 1030PF6-    F715200   0.326   1.768   1.271  0.1760 -0.6137  0.7290
 1031PF6-    P115201   4.194   3.461   5.425 -0.3397  0.2590  0.1971
 1031PF6-    F215202   4.248   3.473   5.276 -0.8007  0.4745  0.0053
 1031PF6-    F315203   4.133   3.448   5.571 -0.4056  0.2038 -0.3636
 1031PF6-    F415204   4.314   3.365   5.466  0.1670 -0.2163 -0.0010
 1031PF6-    F515205   4.073   3.571   5.390 -0.4663  0.2410 -0.2766
 1031PF6-    F615206   4.105   3.338   5.380 -0.0697  0.4213  0.0447
 1031PF6-    F715207   4.285   3.583   5.469 -0.3516 -0.3383  0.2086
 1032PF6-    P115208   5.074   1.563   3.630 -0.3133  0.1248 -0.2214
 1032PF6-    F215209   5.204   1.644   3.589 -0.0263 -0.4972  0.0047
 1032PF6-    F315210   4.942   1.482   3.675 -0.3031 -0.3760 -0.2405
 1032PF6-    F415211   5.155   1.450   3.706 -0.0507 -0.4105  0.0350
 1032PF6-    F515212   4.999   1.680   3.553 -0.2609  0.6478 -0.2042
 1032PF6-    F615213   5.084   1.473   3.490 -0.1435  0.2887 -0.4335
 1032PF6-    F715214   5.074   1.647   3.767 -0.6127  0.8758 -0.3911
 1033PF6-    P115215   2.238   0.246   4.690  0.4047  0.0581 -0.4866
 1033PF6-    F215216   2.302   0.106   4.641  0.4780  0.0242 -0.0397
 1033PF6-    F315217   2.171   0.389   4.738  0.2862 -0.1245  0.2036
 1033PF6-    F415218   2.357   0.328   4.614 -0.7215 -0.1225  0.1978
 1033PF6-    F515219   2.120   0.163   4.767  0.0740 -0.1096 -0.2496
 1033PF6-    F615220   2.318   0.245   4.826  0.8432  0.3433 -0.5114
 1033PF6-    F715221   2.149   0.250   4.557  0.2467 -0.2706 -0.1596
 1034PF6-    P115222   4.031   4.847   1.296  0.2982  0.2180  0.4970
 1034PF6-    F215223   4.096   4.970   1.228 -0.0475 -0.1633 -0.8098
 1034PF6-    F315224   3.962   4.719   1.378 -0.2341 -0.1002  0.1128
 1034PF6-    F415225   4.093   4.748   1.185 -0.0530  0.3708  0.0253
 1034PF6-    F515226   3.975   4.946   1.410 -0.2874 -0.7360 -0.2328
 1034PF6-    F615227   3.900   4.864   1.207 -0.1558 -0.5910  0.2498
 1034PF6-    F715228   4.167   4.830   1.381  0.0010 -0.4385 -0.0781
 1035PF6-    P115229   1.986   4.305   2.802  0.2118  0.1012  0.3517
 1035PF6-    F215230   1.941   4.227   2.929 -0.0840  0.1442 -0.2962
 1035PF6-    F315231   2.024   4.377   2.662  0.1774  0.0444 -0.3007
 1035PF6-    F415232   2.137   4.331   2.862  0.1068  0.2624 -0.3066
 1035PF6-    F515233   1.836   4.285   2.746  0.0148  0.5834  0.5636
 1035PF6-    F615234   1.943   4.444   2.870 -0.2832  0.4103  0.2907
 1035PF6-    F715235   2.035   4.162   2.739 -0.2831 -0.3252  0.0046
 1036PF6-    P115236   0.307   2.368   4.669  0.0947  0.4486 -0.3730
 1036PF6-    F215237   0.174   2.458   4.694  0.0145  0.1374 -0.1302
 1036PF6-    F315238   0.439   2.277   4.651 -0.0749 -0.2874 -0.0720
 1036PF6-    F415239   0.309   2.402   4.514  0.2716 -0.0823  0.3333
 1036PF6-    F515240   0.298   2.329   4.821 -0.1397 -0.1842 -0.7714
 1036PF6-    F615241   0.209   2.243   4.636  0.2220 -0.1866  0.1013
 1036PF6-    F715242   0.396   2.496   4.699 -0.2177  0.2000  0.2250
 1037PF6-    P115243   3.456   3.127   1.538 -0.0046  0.1942 -0.2849
 1037PF6-    F215244   3.498   3.284   1.563 -0.3301  0.2764 -0.4794
 1037PF6-    F315245   3.420   2.975   1.518  0.3213  0.2445 -0.3543
 1037PF6-    F415246   3.408   3.119   1.688 -0.0039 -0.5081 -0.2812
 1037PF6-    F515247   3.515   3.137   1.389  0.3910 -0.1040 -0.2623
 1037PF6-    F615248   3.601   3.077   1.601 -0.3383  0.1265 -0.1683
 1037PF6-    F715249   3.311   3.171   1.495  0.3391  0.5197  0.0464
 1038PF6-    P115250   2.402   2.157   1.016 -0.2753 -0.0997  0.7293
 1038PF6-    F215251   2.310   2.047   1.083 -0.1103 -0.2156 -0.0968
 1038PF6-    F315252   2.500   2.259   0.936  0.6324 -0.0187 -0.3042
 1038PF6-    F415253   2.463   2.202   1.152  0.0500 -0.2869 -0.2436
 1038PF6-    F515254   2.333   2.121   0.876  0.0668  0.0703 -0.1133
 1038PF6-    F615255   2.283   2.263   1.036  0.2126  0.0113 -0.1236
 1038PF6-    F715256   2.509   2.043   1.006 -0.0040 -0.0713  0.1102
 1039PF6-    P115257   2.341   4.933   2.233 -0.0874  0.0819 -0.1261
 1039PF6-    F215258   2.416   4.859   2.352 -0.2518  0.0828  0.1598
 1039PF6-    F315259   2.260   5.007   2.116  0.0284  0.2857  0.4687
 1039PF6-    F415260   2.210   4.858   2.279 -0.1489 -0.5451 -0.2898
 1039PF6-    F515261   2.482   5.000   2.195 -0.4169 -0.5884  0.6142
 1039PF6-    F615262   2.366   4.811   2.137  0.3435  0.0283 -0.5525
 1039PF6-    F715263   2.304   5.057   2.332  0.4338  0.0042  0.1766
 1040PF6-    P115264   4.026   0.008   0.657 -0.3677 -0.4181 -0.1195
 1040PF6-    F215265   3.978   0.023   0.501  0.0584 -0.2593 -0.9163
 1040PF6-    F315266   4.080  -0.007   0.811 -0.0476 -0.0783  0.3374
 1040PF6-    F415267   4.021  -0.150   0.648 -0.2286 -0.1859 -0.0615
 1040PF6-    F515268   4.032   0.170   0.667  0.1302  0.5587  0.1106
 1040PF6-    F615269   3.877   0.016   0.708 -0.1613  0.0689  0.1843
 1040PF6-    F715270   4.173   0.009   0.602 -0.1140 -0.4377 -0.4699
 1041Na+     N115271   0.333   1.987   1.826  0.0918  0.3064  0.6188
 1042Na+     N115272   3.926   3.818   0.346 -0.1735  0.0514 -0.1325
 1043Na+     N115273   1.274   1.896   0.840  0.3101  0.5001  0.0625
 1044Na+     N115274   2.440   3.510   5.255 -0.5342  0.4001  0.2406
 1045Na+     N115275   0.670   3.110   3.783  0.4774 -0.0224  0.1548
 1046Na+     N115276   0.167   2.918   0.640 -0.0880 -0.2843  0.1995
 1047Na+     N115277   1.439   4.347   5.126 -0.4166 -0.1618  0.1945
 1048Na+     N115278   0.911   1.075   3.313  0.0179  0.2467 -0.2937
 1049Na+     N115279   1.029   3.484   2.767  0.0371  0.0973  0.3477
 1050Na+     N115280   4.353   3.485   3.741 -0.4672  0.2386 -0.2558
 1051Na+     N115281   2.506   4.594   4.829  0.4754 -0.1769  0.1997
 1052Na+     N115282   2.243   4.185   1.406 -0.0554  0.8091 -0.0246
 1053Na+     N115283   1.923   2.939   3.847 -0.5046 -0.2012  0.0999
 1054Na+     N115284   1.322   3.067   0.425  0.5157  0.1273  0.3643
 1055Na+     N115285   3.777   2.540   4.793  0.0181 -0.1237 -0.2235
 1056Na+     N115286   1.917   4.946   1.605 -0.5466  0.1205 -0.0019
 1057Na+     N115287   1.916   4.758   0.247 -0.4345  0.3239  0.2620
 1058Na+     N115288   4.767   3.711   0.128  0.0720  0.0225 -0.9145
 1059Na+     N115289   4.678   1.339   4.174 -0.2182  0.0100 -0.1490
 1060Na+     N115290   4.019   5.014   2.017  0.2147  0.2703 -0.2490
 1061Na+     N115291   4.126   1.832   2.221  0.0694 -0.5898 -0.1301
 1062Na+     N115292   0.943   5.147   4.839  0.0869 -0.1601  0.3943
 1063Na+     N115293   0.632   0.515   3.249  0.4447 -0.3699 -0.3792
 1064Na+     N115294   0.025   1.795   4.196 -0.2143 -0.4426  0.2978
 1065Na+     N115295   2.204   1.906   0.818 -0.0254 -0.6517 -0.3017
 1066Na+     N115296   3.286   1.003   2.047 -0.2161 -0.0066 -0.0246
 1067Na+     N115297   3.794   0.411   2.571  0.1060  0.1189 -0.0562
 1068Na+     N115298   5.208   4.432   2.491  0.2929  0.0694 -0.2098
 1069Na+     N115299   2.259   0.976   4.251  0.1792  0.1220 -0.0613
 1070Na+     N115300   4.446   0.748   1.453 -0.1006 -0.4755  0.0340
 1071Na+     N115301   5.266   4.962   0.093  0.2659  0.0979 -0.0643
 1072Na+     N115302   4.209   5.092   0.046 -0.1006  0.0803  0.0428
 1073Na+     N115303   0.693   1.405   2.423  0.4502 -0.0725 -0.2520
 1074Na+     N115304   3.149   5.495   4.606  0.0263 -0.3974  0.0299
 1075Na+     N115305   4.295   4.820   4.435 -0.2191  0.1281 -0.5864
 1076Na+     N115306   4.499   3.500   1.115 -0.2472 -0.0994 -0.4316
 1077Na+     N115307   2.127   4.903   2.508 -0.3494  0.0018  0.2284
 1078Na+     N115308   3.283   1.779   2.661  0.1814  0.0038 -0.4705
 1079Na+     N115309   1.266   0.317   0.032 -0.0559  0.4978  0.1663
 1080Na+     N115310   0.336   4.927   3.140  0.3275 -0.8172  0.4359
 1081Na+     N115311   5.055   2.128   3.054 -0.1220 -0.0323  0.3436
 1082Na+     N115312   0.536   0.129   5.485  0.0455 -0.5364 -0.2460
 1083Na+     N115313   2.291   0.475   3.574 -0.6462  0.1450 -0.3115
 1084Na+     N115314   3.561   2.662   3.814  0.5144 -0.0183  0.5815
 1085Na+     N115315   4.249   4.112   4.975 -0.4184  0.4718 -0.3297
 1086Na+     N115316   0.653   2.626   1.270  0.3280  0.1464 -0.6838
 1087Na+     N115317   5.249   3.363   2.864  0.1267 -0.1189 -0.1322
 1088Na+     N115318   2.477   4.070   2.271 -0.7349  0.5777  0.0154
 1089Na+     N115319   0.514   3.697   0.045 -0.1514  0.1870 -0.0390
 1090Na+     N115320   4.709   2.506   1.471  0.4158  0.0893  0.0039
 1091Na+     N115321   1.839   5.191   4.826  0.2624  0.2885  0.2246
 1092Na+     N115322   1.197   2.155   5.491 -0.3350 -0.2291 -0.1596
 1093Na+     N115323   3.930   0.346   0.514  0.0701  0.1222  0.5597
 1094Na+     N115324   0.500   4.718   1.010  0.3956 -0.0660 -0.0195
 1095Na+     N115325   0.793   2.635   2.310  0.3591 -0.1115 -0.0280
 1096Na+     N115326   1.305   1.482   4.408 -0.1732 -0.0619 -0.4074
 1097Na+     N115327   5.415   2.168   0.883  0.1763  0.4756 -0.1101
 1098Na+     N115328   2.710   2.802   2.213  0.0680 -0.1314  0.1022
 1099Na+     N115329   2.180   0.816   0.843  0.2138 -0.1938 -0.6059
 1100Na+     N115330   4.168   0.481   3.825 -0.7009  0.1433 -0.0035
 1101Na+     N115331   3.907   1.864   3.722 -0.3179 -0.1767 -0.2316
 1102Na+     N115332   4.215   2.938   2.579  0.4337  0.0868 -0.5791
 1103Na+     N115333   1.981   2.082   3.442 -0.0543 -0.7770 -0.0360
 1104Na+     N115334   1.796   4.088   3.133 -0.6119  0.5787  0.1162
 1105Na+     N115335   3.901   1.208   4.462  0.5412 -0.5473  0.5197
 1106Na+     N115336   4.336   4.824   1.197 -0.6057 -0.0249 -0.2206
 1107Na+     N115337   2.851   0.239   0.575  0.0110  0.2604 -0.3577
 1108Na+     N115338   1.282   2.304   3.246 -0.4032 -0.1556 -0.4937
 1109Na+     N115339   0.625   0.030   4.149  0.1222 -0.1881 -0.7930
 1110Na+     N115340   2.927   1.439   3.361  0.7107  0.0698  0.2027
 1111Na+     N115341   4.878   5.483   3.456  0.1710  0.0369 -0.1544
 1112Na+     N115342   0.063   1.396   1.226  0.3203 -0.3577 -0.5094
 1113Na+     N115343   1.105   0.470   0.934 -0.2753  0.2623  0.1817
 1114Na+     N115344   4.782   2.144   3.973 -0.1502 -0.3466  0.3331
 1115Na+     N115345   0.181   0.460   2.299  0.2720  0.1646 -0.1716
 1116Na+     N115346   0.068   2.602   5.369  0.0166 -0.4876  0.6339
 1117Na+     N115347   4.465   2.605   5.253  0.1168 -0.2499 -0.3576
 1118Na+     N115348   3.620   4.822   0.540  0.6189  0.0557 -0.0987
 1119Na+     N115349   1.478   2.549   2.051  0.2180  0.0044 -0.4614
 1120Na+     N115350   1.366   2.050   4.042  0.6152  0.3237 -0.3456
 1121Na+     N115351   0.453   2.388   3.141 -0.1009 -0.2203  0.6091
 1122Na+     N115352   3.586   4.881   3.343  0.2885 -0.1424 -0.1397
 1123Na+     N115353   5.309   5.460   4.327  0.1567  0.3050 -0.4066
 1124Na+     N115354   2.520   1.915   4.448  0.2214  0.0960  0.0019
 1125Na+     N115355   0.187   0.712   4.839 -0.2197 -0.1910 -0.1842
 1126Na+     N115356   3.192   3.046   0.396  0.2993  0.1162 -0.6056
 1127Na+     N115357   2.832   0.665   4.973  0.5467  0.3144  0.3835
 1128Na+     N115358   1.500   4.925   3.800 -0.5529 -0.0119 -0.0245
 1129Na+     N115359   3.626   5.460   1.238  0.3087  0.7130  0.9082
 1130Na+     N115360   2.187   3.189   3.108 -0.2302 -0.2789  0.1603
 1131Na+     N115361   5.077   1.104   2.688  0.0535 -0.0304 -0.1034
 1132Na+     N115362   5.110   0.324   0.754  0.1897  0.1211  0.1078
 1133Na+     N115363   2.395   1.837   1.688  0.2376 -0.1929  0.6222
 1134Na+     N115364   5.469   0.910   3.900  0.0561 -0.1763  0.4346
 1135Na+     N115365   3.324   1.114   0.655  0.4339  0.3375 -0.0064
 1136Na+     N115366   3.720   3.018   1.280  0.4124  0.0776  0.6094
 1137Na+     N115367   4.860   1.437   0.453 -0.1225 -0.0855  0.4368
 1138Na+     N115368   2.884   0.128   2.350 -0.3536 -0.5400  0.2621
 1139Na+     N115369   3.333   1.803   0.019 -0.3602 -0.5552 -0.1156
 1140Na+     N115370   5.192   1.946   2.262  0.2814  0.3136  0.2437
   5.49633   5.49633   5.49633
