[ moleculetype ]
; name        nrexcl
DG                 3

[ atoms ]
;   nr    type   resnr  residu    atom    cgnr    charge
     1      C3       1      DG      C1       1     0.004
     2      C3       1      DG      C2       2     0.004
     3      H3       1      DG      H3       3     0.055
     4      H3       1      DG      H4       4     0.055
     5      H3       1      DG      H5       5     0.055
     6      H3       1      DG      H6       6     0.055
     7      H3       1      DG      H7       7     0.055
     8      H3       1      DG      H8       8     0.055
     9      O2       1      DG      O9       9    -0.314
    10      O2       1      DG     O10      10    -0.314
    11      C4       1      DG     C11      11    -0.030
    12      C4       1      DG     C12      12    -0.030
    13      H4       1      DG     H13      13     0.070
    14      H4       1      DG     H14      14     0.070
    15      H4       1      DG     H15      15     0.070
    16      H4       1      DG     H16      16     0.070
    17      C5       1      DG     C17      17     0.173
    18      C5       1      DG     C18      18     0.173
    19      O3       1      DG     O19      19    -0.388
    20      H5       1      DG     H20      20     0.028
    21      H5       1      DG     H21      21     0.028
    22      H5       1      DG     H22      22     0.028
    23      H5       1      DG     H23      23     0.028

[ bonds ]
;   ai    aj funct             b0             kb
     1     3     1   1.090000e-01   2.845120e+05
     1     4     1   1.090000e-01   2.845120e+05
     1     5     1   1.090000e-01   2.845120e+05
     1     9     1   1.410000e-01   2.677760e+05
     2     6     1   1.090000e-01   2.845120e+05
     2     7     1   1.090000e-01   2.845120e+05
     2     8     1   1.090000e-01   2.845120e+05
     2    10     1   1.410000e-01   2.677760e+05
     9    11     1   1.410000e-01   2.677760e+05
    10    12     1   1.410000e-01   2.677760e+05
    11    13     1   1.090000e-01   2.845120e+05
    11    14     1   1.090000e-01   2.845120e+05
    11    17     1   1.529000e-01   2.242624e+05
    12    15     1   1.090000e-01   2.845120e+05
    12    16     1   1.090000e-01   2.845120e+05
    12    18     1   1.529000e-01   2.242624e+05
    17    19     1   1.410000e-01   2.677760e+05
    17    20     1   1.090000e-01   2.845120e+05
    17    21     1   1.090000e-01   2.845120e+05
    18    19     1   1.410000e-01   2.677760e+05
    18    22     1   1.090000e-01   2.845120e+05
    18    23     1   1.090000e-01   2.845120e+05

[ angles ]
;   ai    aj    ak funct            th0            cth
     3     1     4     1   1.078000e+02   2.761440e+02
     3     1     5     1   1.078000e+02   2.761440e+02
     3     1     9     1   1.095000e+02   2.928800e+02
     4     1     5     1   1.078000e+02   2.761440e+02
     4     1     9     1   1.095000e+02   2.928800e+02
     5     1     9     1   1.095000e+02   2.928800e+02
     6     2     7     1   1.078000e+02   2.761440e+02
     6     2     8     1   1.078000e+02   2.761440e+02
     6     2    10     1   1.095000e+02   2.928800e+02
     7     2     8     1   1.078000e+02   2.761440e+02
     7     2    10     1   1.095000e+02   2.928800e+02
     8     2    10     1   1.095000e+02   2.928800e+02
    11     9     1     1   1.095000e+02   5.020800e+02
    12    10     2     1   1.095000e+02   5.020800e+02
    13    11    14     1   1.078000e+02   2.761440e+02
    13    11    17     1   1.107000e+02   3.138000e+02
    13    11     9     1   1.095000e+02   2.928800e+02
    14    11    17     1   1.107000e+02   3.138000e+02
    14    11     9     1   1.095000e+02   2.928800e+02
    17    11     9     1   1.095000e+02   4.184000e+02
    15    12    16     1   1.078000e+02   2.761440e+02
    15    12    18     1   1.107000e+02   3.138000e+02
    15    12    10     1   1.095000e+02   2.928800e+02
    16    12    18     1   1.107000e+02   3.138000e+02
    16    12    10     1   1.095000e+02   2.928800e+02
    18    12    10     1   1.095000e+02   4.184000e+02
    19    17    20     1   1.095000e+02   2.928800e+02
    19    17    21     1   1.095000e+02   2.928800e+02
    19    17    11     1   1.095000e+02   4.184000e+02
    20    17    21     1   1.078000e+02   2.761440e+02
    20    17    11     1   1.107000e+02   3.138000e+02
    21    17    11     1   1.107000e+02   3.138000e+02
    19    18    22     1   1.095000e+02   2.928800e+02
    19    18    23     1   1.095000e+02   2.928800e+02
    19    18    12     1   1.095000e+02   4.184000e+02
    22    18    23     1   1.078000e+02   2.761440e+02
    22    18    12     1   1.107000e+02   3.138000e+02
    23    18    12     1   1.107000e+02   3.138000e+02
    17    19    18     1   1.095000e+02   5.020800e+02

[ dihedrals ]
;   ai    aj    ak    al funct         phi0         kphi         mult
     3     1     9    11     3 1.589920e+00 4.769760e+00 -0.000000e+00 -6.359680e+00 0.000000e+00 0.000000e+00
     4     1     9    11     3 1.589920e+00 4.769760e+00 -0.000000e+00 -6.359680e+00 0.000000e+00 0.000000e+00
     5     1     9    11     3 1.589920e+00 4.769760e+00 -0.000000e+00 -6.359680e+00 0.000000e+00 0.000000e+00
     6     2    10    12     3 1.589920e+00 4.769760e+00 -0.000000e+00 -6.359680e+00 0.000000e+00 0.000000e+00
     7     2    10    12     3 1.589920e+00 4.769760e+00 -0.000000e+00 -6.359680e+00 0.000000e+00 0.000000e+00
     8     2    10    12     3 1.589920e+00 4.769760e+00 -0.000000e+00 -6.359680e+00 0.000000e+00 0.000000e+00
    13    11     9     1     3 1.589920e+00 4.769760e+00 -0.000000e+00 -6.359680e+00 0.000000e+00 0.000000e+00
    14    11     9     1     3 1.589920e+00 4.769760e+00 -0.000000e+00 -6.359680e+00 0.000000e+00 0.000000e+00
    17    11     9     1     3 1.715440e+00 2.845120e+00 1.046000e+00 -5.606560e+00 0.000000e+00 0.000000e+00
    15    12    10     2     3 1.589920e+00 4.769760e+00 -0.000000e+00 -6.359680e+00 0.000000e+00 0.000000e+00
    16    12    10     2     3 1.589920e+00 4.769760e+00 -0.000000e+00 -6.359680e+00 0.000000e+00 0.000000e+00
    18    12    10     2     3 1.715440e+00 2.845120e+00 1.046000e+00 -5.606560e+00 0.000000e+00 0.000000e+00
    13    11    17    19     3 9.790560e-01 2.937168e+00 -0.000000e+00 -3.916224e+00 0.000000e+00 0.000000e+00
    13    11    17    20     3 6.276000e-01 1.882800e+00 -0.000000e+00 -2.510400e+00 0.000000e+00 0.000000e+00
    13    11    17    21     3 6.276000e-01 1.882800e+00 -0.000000e+00 -2.510400e+00 0.000000e+00 0.000000e+00
    14    11    17    19     3 9.790560e-01 2.937168e+00 -0.000000e+00 -3.916224e+00 0.000000e+00 0.000000e+00
    14    11    17    20     3 6.276000e-01 1.882800e+00 -0.000000e+00 -2.510400e+00 0.000000e+00 0.000000e+00
    14    11    17    21     3 6.276000e-01 1.882800e+00 -0.000000e+00 -2.510400e+00 0.000000e+00 0.000000e+00
    19    17    11     9     3 -1.150600e+00 1.150600e+00 -0.000000e+00 -0.000000e+00 0.000000e+00 0.000000e+00
    20    17    11     9     3 9.790560e-01 2.937168e+00 -0.000000e+00 -3.916224e+00 0.000000e+00 0.000000e+00
    21    17    11     9     3 9.790560e-01 2.937168e+00 -0.000000e+00 -3.916224e+00 0.000000e+00 0.000000e+00
    15    12    18    19     3 9.790560e-01 2.937168e+00 -0.000000e+00 -3.916224e+00 0.000000e+00 0.000000e+00
    15    12    18    22     3 6.276000e-01 1.882800e+00 -0.000000e+00 -2.510400e+00 0.000000e+00 0.000000e+00
    15    12    18    23     3 6.276000e-01 1.882800e+00 -0.000000e+00 -2.510400e+00 0.000000e+00 0.000000e+00
    16    12    18    19     3 9.790560e-01 2.937168e+00 -0.000000e+00 -3.916224e+00 0.000000e+00 0.000000e+00
    16    12    18    22     3 6.276000e-01 1.882800e+00 -0.000000e+00 -2.510400e+00 0.000000e+00 0.000000e+00
    16    12    18    23     3 6.276000e-01 1.882800e+00 -0.000000e+00 -2.510400e+00 0.000000e+00 0.000000e+00
    19    18    12    10     3 -1.150600e+00 1.150600e+00 -0.000000e+00 -0.000000e+00 0.000000e+00 0.000000e+00
    22    18    12    10     3 9.790560e-01 2.937168e+00 -0.000000e+00 -3.916224e+00 0.000000e+00 0.000000e+00
    23    18    12    10     3 9.790560e-01 2.937168e+00 -0.000000e+00 -3.916224e+00 0.000000e+00 0.000000e+00
    18    19    17    20     3 1.589920e+00 4.769760e+00 -0.000000e+00 -6.359680e+00 0.000000e+00 0.000000e+00
    18    19    17    21     3 1.589920e+00 4.769760e+00 -0.000000e+00 -6.359680e+00 0.000000e+00 0.000000e+00
    18    19    17    11     3 1.715440e+00 2.845120e+00 1.046000e+00 -5.606560e+00 0.000000e+00 0.000000e+00
    17    19    18    22     3 1.589920e+00 4.769760e+00 -0.000000e+00 -6.359680e+00 0.000000e+00 0.000000e+00
    17    19    18    23     3 1.589920e+00 4.769760e+00 -0.000000e+00 -6.359680e+00 0.000000e+00 0.000000e+00
    17    19    18    12     3 1.715440e+00 2.845120e+00 1.046000e+00 -5.606560e+00 0.000000e+00 0.000000e+00

[ pairs ]
;   ai    aj funct     V(sigma)   W(epsinal)
     3    11
     4    11
     5    11
     6    12
     7    12
     8    12
    13     1
    14     1
    17     1
    15     2
    16     2
    18     2
    13    19
    13    20
    13    21
    14    19
    14    20
    14    21
    19     9
    20     9
    21     9
    15    19
    15    22
    15    23
    16    19
    16    22
    16    23
    19    10
    22    10
    23    10
    18    20
    18    21
    18    11
    17    22
    17    23
    17    12

[ position_restraints ]
;   ai   funct      fc