[ moleculetype ]
; name        nrexcl
PF6-               3

[ atoms ]
;   nr    type   resnr  residu    atom    cgnr    charge
     1       P       1    PF6-      P1       1     1.537
     2      F1       1    PF6-      F2       2    -0.386
     3      F1       1    PF6-      F3       3    -0.386
     4      F2       1    PF6-      F4       4    -0.386
     5      F2       1    PF6-      F5       5    -0.386
     6      F3       1    PF6-      F6       6    -0.386
     7      F3       1    PF6-      F7       7    -0.386

[ bonds ]
;   ai    aj funct             b0             kb
     1     2     1   1.606000e-01   3.100001e+05
     1     3     1   1.606000e-01   3.100001e+05
     1     4     1   1.606000e-01   3.100001e+05
     1     5     1   1.606000e-01   3.100001e+05
     1     6     1   1.606000e-01   3.100001e+05
     1     7     1   1.606000e-01   3.100001e+05

[ angles ]
;   ai    aj    ak funct            th0            cth
     2     1     3     1   1.800000e+02   2.909972e+02
     2     1     4     1   9.000000e+01   1.164993e+03
     2     1     5     1   9.000000e+01   1.164993e+03
     2     1     6     1   9.000000e+01   1.164993e+03
     2     1     7     1   9.000000e+01   1.164993e+03
     3     1     4     1   9.000000e+01   1.164993e+03
     3     1     5     1   9.000000e+01   1.164993e+03
     3     1     6     1   9.000000e+01   1.164993e+03
     3     1     7     1   9.000000e+01   1.164993e+03
     4     1     5     1   1.800000e+02   2.909972e+02
     4     1     6     1   9.000000e+01   1.164993e+03
     4     1     7     1   9.000000e+01   1.164993e+03
     5     1     6     1   9.000000e+01   1.164993e+03
     5     1     7     1   9.000000e+01   1.164993e+03
     6     1     7     1   1.800000e+02   2.909972e+02

[ dihedrals ]
;   ai    aj    ak    al funct         phi0         kphi         mult

[ pairs ]
;   ai    aj funct     V(sigma)   W(epsinal)

[ position_restraints ]
;   ai   funct      fc