[ moleculetype ]
; name        nrexcl
THF                3

[ atoms ]
;   nr    type   resnr  residu    atom    cgnr    charge
     1      O4       1     THF      O1       1    -0.414
     2      C6       1     THF      C2       2     0.141
     3      C6       1     THF      C3       3     0.141
     4      H6       1     THF      H4       4     0.030
     5      H6       1     THF      H5       5     0.030
     6      H6       1     THF      H6       6     0.030
     7      H6       1     THF      H7       7     0.030
     8      C7       1     THF      C8       8    -0.054
     9      C7       1     THF      C9       9    -0.054
    10      H7       1     THF     H10      10     0.030
    11      H7       1     THF     H11      11     0.030
    12      H7       1     THF     H12      12     0.030
    13      H7       1     THF     H13      13     0.030

[ bonds ]
;   ai    aj funct             b0             kb
     1     2     1   1.410000e-01   2.677760e+05
     1     3     1   1.410000e-01   2.677760e+05
     2     4     1   1.090000e-01   2.845120e+05
     2     5     1   1.090000e-01   2.845120e+05
     2     9     1   1.529000e-01   2.242624e+05
     3     6     1   1.090000e-01   2.845120e+05
     3     7     1   1.090000e-01   2.845120e+05
     3     8     1   1.529000e-01   2.242624e+05
     8     9     1   1.529000e-01   2.242624e+05
     8    10     1   1.090000e-01   2.845120e+05
     8    11     1   1.090000e-01   2.845120e+05
     9    12     1   1.090000e-01   2.845120e+05
     9    13     1   1.090000e-01   2.845120e+05

[ angles ]
;   ai    aj    ak funct            th0            cth
     2     1     3     1   1.095000e+02   5.020800e+02
     4     2     5     1   1.078000e+02   2.761440e+02
     4     2     9     1   1.107000e+02   3.138000e+02
     4     2     1     1   1.095000e+02   2.928800e+02
     5     2     9     1   1.107000e+02   3.138000e+02
     5     2     1     1   1.095000e+02   2.928800e+02
     9     2     1     1   1.095000e+02   4.184000e+02
     6     3     7     1   1.078000e+02   2.761440e+02
     6     3     8     1   1.107000e+02   3.138000e+02
     6     3     1     1   1.095000e+02   2.928800e+02
     7     3     8     1   1.107000e+02   3.138000e+02
     7     3     1     1   1.095000e+02   2.928800e+02
     8     3     1     1   1.095000e+02   4.184000e+02
     9     8    10     1   1.107000e+02   3.138000e+02
     9     8    11     1   1.107000e+02   3.138000e+02
     9     8     3     1   1.127000e+02   4.882728e+02
    10     8    11     1   1.078000e+02   2.761440e+02
    10     8     3     1   1.107000e+02   3.138000e+02
    11     8     3     1   1.107000e+02   3.138000e+02
    12     9    13     1   1.078000e+02   2.761440e+02
    12     9     2     1   1.107000e+02   3.138000e+02
    12     9     8     1   1.107000e+02   3.138000e+02
    13     9     2     1   1.107000e+02   3.138000e+02
    13     9     8     1   1.107000e+02   3.138000e+02
     2     9     8     1   1.127000e+02   4.882728e+02

[ dihedrals ]
;   ai    aj    ak    al funct         phi0         kphi         mult
     4     2     1     3     3 1.589920e+00 4.769760e+00 -0.000000e+00 -6.359680e+00 0.000000e+00 0.000000e+00
     5     2     1     3     3 1.589920e+00 4.769760e+00 -0.000000e+00 -6.359680e+00 0.000000e+00 0.000000e+00
     9     2     1     3     3 1.715440e+00 2.845120e+00 1.046000e+00 -5.606560e+00 0.000000e+00 0.000000e+00
     2     1     3     6     3 1.589920e+00 4.769760e+00 -0.000000e+00 -6.359680e+00 0.000000e+00 0.000000e+00
     2     1     3     7     3 1.589920e+00 4.769760e+00 -0.000000e+00 -6.359680e+00 0.000000e+00 0.000000e+00
     2     1     3     8     3 1.715440e+00 2.845120e+00 1.046000e+00 -5.606560e+00 0.000000e+00 0.000000e+00
     4     2     9    12     3 6.276000e-01 1.882800e+00 -0.000000e+00 -2.510400e+00 0.000000e+00 0.000000e+00
     4     2     9    13     3 6.276000e-01 1.882800e+00 -0.000000e+00 -2.510400e+00 0.000000e+00 0.000000e+00
     4     2     9     8     3 6.276000e-01 1.882800e+00 -0.000000e+00 -2.510400e+00 0.000000e+00 0.000000e+00
     5     2     9    12     3 6.276000e-01 1.882800e+00 -0.000000e+00 -2.510400e+00 0.000000e+00 0.000000e+00
     5     2     9    13     3 6.276000e-01 1.882800e+00 -0.000000e+00 -2.510400e+00 0.000000e+00 0.000000e+00
     5     2     9     8     3 6.276000e-01 1.882800e+00 -0.000000e+00 -2.510400e+00 0.000000e+00 0.000000e+00
    12     9     2     1     3 9.790560e-01 2.937168e+00 -0.000000e+00 -3.916224e+00 0.000000e+00 0.000000e+00
    13     9     2     1     3 9.790560e-01 2.937168e+00 -0.000000e+00 -3.916224e+00 0.000000e+00 0.000000e+00
     8     9     2     1     3 2.872316e+00 5.836680e-01 2.092000e+00 -5.547984e+00 0.000000e+00 0.000000e+00
     6     3     8     9     3 6.276000e-01 1.882800e+00 -0.000000e+00 -2.510400e+00 0.000000e+00 0.000000e+00
     6     3     8    10     3 6.276000e-01 1.882800e+00 -0.000000e+00 -2.510400e+00 0.000000e+00 0.000000e+00
     6     3     8    11     3 6.276000e-01 1.882800e+00 -0.000000e+00 -2.510400e+00 0.000000e+00 0.000000e+00
     7     3     8     9     3 6.276000e-01 1.882800e+00 -0.000000e+00 -2.510400e+00 0.000000e+00 0.000000e+00
     7     3     8    10     3 6.276000e-01 1.882800e+00 -0.000000e+00 -2.510400e+00 0.000000e+00 0.000000e+00
     7     3     8    11     3 6.276000e-01 1.882800e+00 -0.000000e+00 -2.510400e+00 0.000000e+00 0.000000e+00
     9     8     3     1     3 2.872316e+00 5.836680e-01 2.092000e+00 -5.547984e+00 0.000000e+00 0.000000e+00
    10     8     3     1     3 9.790560e-01 2.937168e+00 -0.000000e+00 -3.916224e+00 0.000000e+00 0.000000e+00
    11     8     3     1     3 9.790560e-01 2.937168e+00 -0.000000e+00 -3.916224e+00 0.000000e+00 0.000000e+00
    12     9     8    10     3 6.276000e-01 1.882800e+00 -0.000000e+00 -2.510400e+00 0.000000e+00 0.000000e+00
    13     9     8    10     3 6.276000e-01 1.882800e+00 -0.000000e+00 -2.510400e+00 0.000000e+00 0.000000e+00
     2     9     8    10     3 6.276000e-01 1.882800e+00 -0.000000e+00 -2.510400e+00 0.000000e+00 0.000000e+00
    12     9     8    11     3 6.276000e-01 1.882800e+00 -0.000000e+00 -2.510400e+00 0.000000e+00 0.000000e+00
    13     9     8    11     3 6.276000e-01 1.882800e+00 -0.000000e+00 -2.510400e+00 0.000000e+00 0.000000e+00
     2     9     8    11     3 6.276000e-01 1.882800e+00 -0.000000e+00 -2.510400e+00 0.000000e+00 0.000000e+00
    12     9     8     3     3 6.276000e-01 1.882800e+00 -0.000000e+00 -2.510400e+00 0.000000e+00 0.000000e+00
    13     9     8     3     3 6.276000e-01 1.882800e+00 -0.000000e+00 -2.510400e+00 0.000000e+00 0.000000e+00
     2     9     8     3     3 2.301200e+00 -1.464400e+00 8.368000e-01 -1.673600e+00 0.000000e+00 0.000000e+00

[ pairs ]
;   ai    aj funct     V(sigma)   W(epsinal)
     4     3
     5     3
     2     6
     2     7
     4    12
     4    13
     4     8
     5    12
     5    13
     5     8
    12     1
    13     1
     6     9
     6    10
     6    11
     7     9
     7    10
     7    11
    10     1
    11     1
    12    10
    13    10
     2    10
    12    11
    13    11
     2    11
    12     3
    13     3

[ position_restraints ]
;   ai   funct      fc