DG-THF-PF6-Na    Amber RESP
15344
    1DG      C1    1   0.655   5.031   4.285  0.4126  0.2318 -0.0502
    1DG      C2    2   0.975   5.141   3.767  0.2786 -0.4178  0.6923
    1DG      H3    3   0.587   4.957   4.327  2.8107 -1.3215  1.3133
    1DG      H4    4   0.593   5.117   4.261 -1.4800 -0.6319  1.4803
    1DG      H5    5   0.721   5.063   4.366 -1.0900  1.0481  0.8939
    1DG      H6    6   1.076   5.138   3.808  0.3156 -1.5473  0.5668
    1DG      H7    7   0.975   5.135   3.658  2.3341 -0.9253  0.6770
    1DG      H8    8   0.931   5.238   3.788  0.6450  0.1636 -1.1275
    1DG      O9    9   0.735   4.986   4.184  0.2587 -0.5436  0.7748
    1DG     O10   10   0.888   5.043   3.822  0.0694 -0.2485  0.0468
    1DG     C11   11   0.794   4.862   4.213 -0.5019  0.1756 -0.0911
    1DG     C12   12   0.955   4.910   3.829 -0.3191 -0.7472 -0.2378
    1DG     H13   13   0.717   4.785   4.210  0.5436 -0.9808  1.3138
    1DG     H14   14   0.858   4.854   4.301  0.0302  0.5246 -0.4412
    1DG     H15   15   1.042   4.930   3.891 -0.2228  1.1555 -0.9148
    1DG     H16   16   1.007   4.881   3.738  2.6151  0.5268  0.9282
    1DG     C17   17   0.881   4.819   4.096 -0.2568 -0.3640  0.0545
    1DG     C18   18   0.863   4.793   3.870 -0.2760  0.0434  0.9559
    1DG     O19   19   0.797   4.820   3.988 -0.0977  0.0965 -0.2041
    1DG     H20   20   0.937   4.728   4.118 -2.0240 -1.2904  0.9503
    1DG     H21   21   0.949   4.903   4.092 -0.6248 -0.0700 -0.1374
    1DG     H22   22   0.790   4.772   3.792  3.4774  0.9773 -3.3025
    1DG     H23   23   0.919   4.700   3.879  0.8825  0.8440  2.6795
    2DG      C1   24   3.121   3.286   0.571  0.2861 -0.2911 -0.2862
    2DG      C2   25   2.918   3.592   1.084 -0.2127 -0.8519  0.1073
    2DG      H3   26   3.057   3.199   0.585 -0.0239 -0.0246 -0.0185
    2DG      H4   27   3.172   3.316   0.663  0.8569  1.6155 -1.1782
    2DG      H5   28   3.188   3.256   0.491 -1.0340  1.2358 -2.0484
    2DG      H6   29   2.820   3.640   1.077  0.1313 -0.1191  0.1992
    2DG      H7   30   2.885   3.493   1.054 -1.4457 -0.3904 -0.1284
    2DG      H8   31   2.955   3.586   1.187  0.4663  0.2213 -0.0604
    2DG      O9   32   3.031   3.389   0.531 -0.4059  0.3944  0.6347
    2DG     O10   33   2.998   3.650   0.981  0.0409 -0.1731 -0.0466
    2DG     C11   34   3.097   3.508   0.493  0.3577 -0.5529 -0.5946
    2DG     C12   35   3.132   3.606   0.976 -0.2979 -0.4661 -0.6884
    2DG     H13   36   3.013   3.574   0.470  2.3163  3.4225  2.4242
    2DG     H14   37   3.149   3.502   0.398 -0.1383 -2.9859 -0.7740
    2DG     H15   38   3.130   3.499   0.994 -2.3082 -0.4476 -0.5691
    2DG     H16   39   3.200   3.654   1.046  2.3386 -0.5972 -2.9574
    2DG     C17   40   3.173   3.587   0.604  0.1039  0.4202  0.1753
    2DG     C18   41   3.185   3.632   0.837 -0.1116  0.1786 -0.0511
    2DG     O19   42   3.114   3.569   0.728  0.7777 -0.4642  0.1895
    2DG     H20   43   3.191   3.690   0.572 -2.7448 -0.2719 -4.7237
    2DG     H21   44   3.268   3.533   0.601 -0.8435 -1.5421  2.5432
    2DG     H22   45   3.183   3.740   0.826  1.5306 -0.0196 -3.7933
    2DG     H23   46   3.288   3.596   0.840 -0.7240 -1.6568  0.2836
    3DG      C1   47   3.298   2.803   2.301  0.5910  0.1684 -0.2474
    3DG      C2   48   3.725   3.018   2.729 -0.5562 -0.0856  0.3267
    3DG      H3   49   3.360   2.719   2.332  0.4233  0.2379  0.2876
    3DG      H4   50   3.366   2.855   2.234 -0.7554  0.8252 -1.1714
    3DG      H5   51   3.217   2.770   2.235  0.3524  1.5742 -0.6843
    3DG      H6   52   3.678   3.041   2.825 -1.0303  0.1484  0.0374
    3DG      H7   53   3.817   2.961   2.741 -1.2611 -1.2561  0.3390
    3DG      H8   54   3.763   3.115   2.699  3.6290 -2.3419 -2.7244
    3DG      O9   55   3.251   2.885   2.405 -0.8926  0.0686  0.2957
    3DG     O10   56   3.639   2.941   2.652  0.5089 -0.6922 -0.6624
    3DG     C11   57   3.210   2.820   2.524 -0.0971  0.6286 -0.7355
    3DG     C12   58   3.634   2.812   2.714  0.1857 -0.1874  0.2687
    3DG     H13   59   3.128   2.750   2.506 -0.4530  0.4442  1.3686
    3DG     H14   60   3.165   2.888   2.596 -0.7415  1.1905 -1.6440
    3DG     H15   61   3.591   2.814   2.814 -2.3268  1.2425 -0.7466
    3DG     H16   62   3.733   2.768   2.726 -0.1940 -1.1258  0.1018
    3DG     C17   63   3.319   2.750   2.602 -0.1492  0.0115  0.6396
    3DG     C18   64   3.545   2.719   2.640 -0.3907  0.5254  0.0525
    3DG     O19   65   3.447   2.800   2.577 -1.2048 -0.1172  0.8582
    3DG     H20   66   3.324   2.655   2.548 -1.8554  0.2225  0.0568
    3DG     H21   67   3.288   2.742   2.706  0.1556 -0.6919  0.6881
    3DG     H22   68   3.610   2.665   2.572 -3.3388 -0.1294 -2.4371
    3DG     H23   69   3.500   2.640   2.699  0.8309 -1.2823 -1.3378
    4DG      C1   70   1.081   1.672   3.826 -0.1122  0.2506 -0.4021
    4DG      C2   71   0.972   1.415   3.252  0.1074 -0.3831  0.5791
    4DG      H3   72   1.095   1.658   3.933 -0.1093  0.6107 -0.3551
    4DG      H4   73   0.973   1.656   3.821 -0.0429 -0.2326 -0.4736
    4DG      H5   74   1.088   1.778   3.804  0.1322 -0.3468 -3.7447
    4DG      H6   75   0.870   1.445   3.275  0.2771  0.4368  0.2912
    4DG      H7   76   1.009   1.499   3.192 -0.7328 -0.1569  0.3570
    4DG      H8   77   0.979   1.330   3.183 -3.0854 -0.8324  0.6558
    4DG      O9   78   1.169   1.597   3.740  0.6034 -0.3803  0.1385
    4DG     O10   79   1.043   1.416   3.376  0.0300 -0.3824  0.3712
    4DG     C11   80   1.214   1.474   3.793 -0.0907 -0.2237 -0.0448
    4DG     C12   81   1.089   1.295   3.414 -0.3586  0.4455  0.6941
    4DG     H13   82   1.125   1.412   3.807 -0.8287  0.3195 -1.9333
    4DG     H14   83   1.263   1.488   3.889  3.1227 -0.4903 -1.5314
    4DG     H15   84   1.165   1.262   3.344 -1.7440 -1.2561 -0.0780
    4DG     H16   85   1.009   1.221   3.411 -0.5092  0.5522  1.6523
    4DG     C17   86   1.307   1.389   3.695 -0.3224 -1.0763 -0.7223
    4DG     C18   87   1.132   1.299   3.558 -0.0025  0.5226 -0.6493
    4DG     O19   88   1.258   1.369   3.565 -0.1086  0.3453 -0.2160
    4DG     H20   89   1.315   1.292   3.745  0.0880 -0.6021  0.1599
    4DG     H21   90   1.412   1.418   3.690 -0.6347  0.4044  0.5939
    4DG     H22   91   1.056   1.354   3.613  0.7410  2.9400 -1.9328
    4DG     H23   92   1.143   1.197   3.596  1.0046  0.1710 -1.8363
    5DG      C1   93   2.333   3.033   3.291  0.2896 -0.1504 -0.2059
    5DG      C2   94   2.272   2.366   3.193 -0.0119  0.0360  0.0616
    5DG      H3   95   2.299   3.106   3.365  2.3185  1.1027 -0.4544
    5DG      H4   96   2.270   3.015   3.204 -0.8501 -1.3166  0.8074
    5DG      H5   97   2.431   3.069   3.260  2.0550 -5.1985 -1.4571
    5DG      H6   98   2.281   2.269   3.242 -0.6855 -0.1391 -0.1536
    5DG      H7   99   2.175   2.369   3.143  0.3361 -2.8364 -1.0113
    5DG      H8  100   2.351   2.377   3.119  1.1002 -1.1641  1.0180
    5DG      O9  101   2.342   2.904   3.351 -0.0366  0.3113  0.5068
    5DG     O10  102   2.288   2.457   3.299 -0.4571 -0.5637  0.2887
    5DG     C11  103   2.475   2.878   3.405 -0.8570 -0.3821  0.2258
    5DG     C12  104   2.387   2.417   3.401 -0.2960  0.1739  0.0087
    5DG     H13  105   2.509   2.972   3.450 -1.5110 -0.2598  0.4715
    5DG     H14  106   2.528   2.860   3.312 -0.2845  0.2754  0.4153
    5DG     H15  107   2.486   2.385   3.367 -0.3146 -0.4583  0.5576
    5DG     H16  108   2.349   2.332   3.457  0.8497 -0.7039 -0.4995
    5DG     C17  109   2.470   2.759   3.499  0.0995 -0.1646  0.3147
    5DG     C18  110   2.406   2.535   3.494  0.4851 -0.4822  0.2524
    5DG     O19  111   2.412   2.659   3.423  0.1998 -0.0129 -0.3476
    5DG     H20  112   2.407   2.775   3.588  2.3353 -1.4107  2.2346
    5DG     H21  113   2.570   2.738   3.536 -0.3780 -1.6662  0.8244
    5DG     H22  114   2.324   2.536   3.566  0.8499  1.5150  0.6912
    5DG     H23  115   2.491   2.512   3.558 -0.9196 -1.1736  1.9629
    6DG      C1  116   4.352   2.548   1.012 -0.1597  0.2971  0.4360
    6DG      C2  117   4.944   2.412   0.917  0.2068 -0.1374  1.0579
    6DG      H3  118   4.296   2.608   0.940 -0.3314 -1.5057 -0.9793
    6DG      H4  119   4.402   2.611   1.086  1.5824 -0.6625  0.1228
    6DG      H5  120   4.280   2.483   1.062  1.7794 -1.2720  1.3367
    6DG      H6  121   4.952   2.431   1.024 -2.0919 -0.1258  1.2639
    6DG      H7  122   5.034   2.358   0.887  0.8747  0.4354  1.9585
    6DG      H8  123   4.933   2.511   0.873 -0.5779  0.3979  2.3989
    6DG      O9  124   4.447   2.471   0.940  0.2792 -0.1271 -0.5021
    6DG     O10  125   4.829   2.326   0.906  0.3852  0.3792  0.7030
    6DG     C11  126   4.389   2.376   0.852  1.3325  0.6284 -0.1403
    6DG     C12  127   4.821   2.259   0.779 -0.5616  0.0306  0.2252
    6DG     H13  128   4.314   2.431   0.796 -2.0047 -1.6283  1.7331
    6DG     H14  129   4.329   2.308   0.912  2.4662 -0.5145 -0.2420
    6DG     H15  130   4.902   2.189   0.757 -1.0575 -0.5201  0.1349
    6DG     H16  131   4.813   2.328   0.695 -1.7384  2.3997  2.1829
    6DG     C17  132   4.486   2.302   0.764  1.2637  0.4151  0.3026
    6DG     C18  133   4.692   2.177   0.772  0.1366  0.4273  0.2626
    6DG     O19  134   4.589   2.232   0.848 -0.2545  0.4298  0.5370
    6DG     H20  135   4.519   2.366   0.682 -2.0931  2.4910  0.3871
    6DG     H21  136   4.425   2.228   0.712  0.7433  1.0646 -0.0308
    6DG     H22  137   4.675   2.172   0.665  1.1335  2.7569 -0.0646
    6DG     H23  138   4.711   2.074   0.803  0.6294  0.2268 -0.6814
    7DG      C1  139   4.621   0.449   2.064 -0.6116  0.7626  0.7704
    7DG      C2  140   5.105   0.020   1.877 -0.1874  0.3825 -0.0890
    7DG      H3  141   4.585   0.384   1.984  1.2842  0.9452 -0.2850
    7DG      H4  142   4.644   0.547   2.023 -0.8166  1.0836  1.4163
    7DG      H5  143   4.546   0.459   2.142 -1.1944  2.3209  0.0416
    7DG      H6  144   5.116   0.076   1.784  0.0334  0.3643 -0.0751
    7DG      H7  145   5.199  -0.027   1.905 -0.9915 -0.6282  1.0140
    7DG      H8  146   5.040  -0.059   1.839  1.1788 -0.9287  0.2208
    7DG      O9  147   4.725   0.382   2.131  0.1325  0.4662  0.7699
    7DG     O10  148   5.055   0.109   1.975  0.0053  0.2406 -0.2804
    7DG     C11  149   4.799   0.450   2.223 -0.7373 -0.6766  0.1932
    7DG     C12  150   5.155   0.209   2.002  0.3205 -0.2526  0.1136
    7DG     H13  151   4.740   0.458   2.314 -1.7339  2.3664 -0.6109
    7DG     H14  152   4.803   0.551   2.183 -3.0851 -1.9185 -3.7447
    7DG     H15  153   5.184   0.274   1.919 -1.2561 -0.7392 -0.8550
    7DG     H16  154   5.243   0.158   2.041  0.7029  0.6706  0.5011
    7DG     C17  155   4.942   0.401   2.233  0.0298 -0.1917  0.0666
    7DG     C18  156   5.118   0.288   2.130  0.3069  0.7801 -0.7749
    7DG     O19  157   4.990   0.336   2.118  0.0378 -0.0159 -0.1818
    7DG     H20  158   4.949   0.332   2.318  0.9145  2.0107  1.8930
    7DG     H21  159   5.012   0.479   2.263  1.7037 -1.6594  0.1764
    7DG     H22  160   5.125   0.225   2.218 -1.3007  1.7322  0.0767
    7DG     H23  161   5.198   0.361   2.146  0.9105  0.0508 -0.3918
    8DG      C1  162   4.210   0.741   4.600 -0.7025 -0.8243  0.0647
    8DG      C2  163   4.651   1.041   4.935 -0.4379  0.2617  0.1592
    8DG      H3  164   4.182   0.821   4.669 -3.0368  0.8388 -2.6062
    8DG      H4  165   4.236   0.661   4.670 -0.8199  0.9779  2.2920
    8DG      H5  166   4.124   0.708   4.541 -0.7199 -1.8048  0.6015
    8DG      H6  167   4.730   1.115   4.942  0.5010 -0.4775 -1.9009
    8DG      H7  168   4.558   1.070   4.983 -0.9439 -1.0947  0.0519
    8DG      H8  169   4.686   0.953   4.989 -3.6545 -1.9035 -0.9553
    8DG      O9  170   4.321   0.796   4.518  0.0758 -0.3600 -0.3374
    8DG     O10  171   4.632   1.012   4.800 -0.1266  0.2814 -0.9234
    8DG     C11  172   4.292   0.918   4.451 -0.6632 -0.0271  0.3368
    8DG     C12  173   4.625   1.128   4.723  0.2644  0.3686 -0.5346
    8DG     H13  174   4.217   0.967   4.512 -0.9464  0.2389 -0.2230
    8DG     H14  175   4.247   0.900   4.354  0.8884  1.3370 -0.6867
    8DG     H15  176   4.720   1.180   4.714  0.3814  0.3083  0.2208
    8DG     H16  177   4.546   1.194   4.760  0.4129  0.6646 -0.7463
    8DG     C17  178   4.432   0.992   4.446  0.6018 -0.2436 -0.0057
    8DG     C18  179   4.577   1.088   4.586 -0.2183 -0.6692  0.3594
    8DG     O19  180   4.457   1.027   4.577 -0.3042  0.1589 -0.4835
    8DG     H20  181   4.428   1.067   4.367 -0.6527 -2.1095 -1.8217
    8DG     H21  182   4.512   0.925   4.413 -0.9703 -1.8198 -0.7916
    8DG     H22  183   4.565   1.179   4.528 -0.8939 -0.6878  0.4601
    8DG     H23  184   4.649   1.020   4.541 -0.3805  1.4828 -3.5456
    9DG      C1  185   2.929   3.509   3.386 -0.1254 -0.1951  0.2680
    9DG      C2  186   2.824   2.913   3.415 -0.0991 -0.3086  0.1700
    9DG      H3  187   3.011   3.443   3.414  0.4533  0.9453  1.3925
    9DG      H4  188   2.861   3.507   3.471 -1.5580  2.0309 -0.7563
    9DG      H5  189   2.971   3.609   3.380  3.3864 -1.5649 -0.6132
    9DG      H6  190   2.739   2.899   3.349  0.0962 -0.9522  0.0469
    9DG      H7  191   2.880   2.819   3.417  1.5715  0.6633  1.9699
    9DG      H8  192   2.790   2.950   3.511  1.8231  1.6330  0.1862
    9DG      O9  193   2.852   3.472   3.269 -0.5919  0.3995  1.0942
    9DG     O10  194   2.906   3.021   3.372  0.3147  0.1030  0.3174
    9DG     C11  195   2.923   3.461   3.147 -0.1820  0.1078  0.2669
    9DG     C12  196   2.985   2.997   3.260 -0.1510  0.0747  1.0415
    9DG     H13  197   2.968   3.557   3.123 -2.6078  0.7656 -2.0629
    9DG     H14  198   2.849   3.457   3.067  0.7473  0.9239 -0.6563
    9DG     H15  199   2.925   2.955   3.179 -1.2640 -0.7608  2.2750
    9DG     H16  200   3.069   2.931   3.281  1.4465  1.4629 -0.5417
    9DG     C17  201   3.017   3.343   3.144  0.1994 -0.4917  0.3818
    9DG     C18  202   3.037   3.125   3.205 -0.4791  0.1285 -0.2408
    9DG     O19  203   2.942   3.233   3.194 -0.0319  0.1468 -0.2238
    9DG     H20  204   3.099   3.356   3.215  0.3883 -0.2043  0.1141
    9DG     H21  205   3.058   3.324   3.045 -0.1806 -1.1531  0.3485
    9DG     H22  206   3.130   3.149   3.257  1.0770 -1.2790 -2.2172
    9DG     H23  207   3.068   3.097   3.105  0.2100  1.3918 -0.4058
   10DG      C1  208   1.989   2.648   1.394  0.3932 -0.3262 -0.1320
   10DG      C2  209   1.623   2.847   0.918 -0.1420 -0.2694 -0.0220
   10DG      H3  210   2.018   2.753   1.406 -0.4461 -0.2138  1.1467
   10DG      H4  211   2.085   2.597   1.401  0.9851  0.5321 -1.4666
   10DG      H5  212   1.929   2.635   1.484  2.0556  1.0449  1.2747
   10DG      H6  213   1.663   2.765   0.860  1.1438 -0.1097  0.5936
   10DG      H7  214   1.530   2.875   0.869 -1.2632 -3.3792  0.1042
   10DG      H8  215   1.689   2.933   0.903  4.0813 -3.1213  0.5883
   10DG      O9  216   1.916   2.621   1.279  0.1933 -0.1244 -0.1048
   10DG     O10  217   1.593   2.810   1.056 -0.7479  0.7582  0.5074
   10DG     C11  218   1.888   2.484   1.266  1.0784  0.2369 -0.0460
   10DG     C12  219   1.510   2.693   1.078  0.3465 -0.0813 -0.1274
   10DG     H13  220   1.853   2.437   1.358 -1.7929 -1.8639 -2.0140
   10DG     H14  221   1.985   2.439   1.248  0.1484 -2.2041  0.6094
   10DG     H15  222   1.432   2.699   1.002 -0.1116 -0.5622  0.2979
   10DG     H16  223   1.468   2.716   1.175  0.9475  1.3182 -0.1806
   10DG     C17  224   1.782   2.458   1.154 -0.0941 -0.6654 -0.1696
   10DG     C18  225   1.581   2.556   1.076  0.1176 -0.2850 -0.3537
   10DG     O19  226   1.687   2.564   1.168  0.1368  0.9478 -0.2270
   10DG     H20  227   1.736   2.359   1.162  0.2799 -0.7452  1.1461
   10DG     H21  228   1.826   2.455   1.054  0.9590 -2.5002  0.2942
   10DG     H22  229   1.503   2.483   1.098  0.9035 -0.8565  0.5933
   10DG     H23  230   1.623   2.530   0.979  0.6232 -0.7415 -0.0130
   11DG      C1  231   3.947   1.150   0.304 -0.1365 -0.6901  0.1604
   11DG      C2  232   3.429   0.918   0.695  0.5261 -0.5539 -0.3748
   11DG      H3  233   3.972   1.163   0.409 -1.4635  2.0334  0.2122
   11DG      H4  234   3.949   1.250   0.262 -1.3026 -0.6977  0.0419
   11DG      H5  235   4.022   1.092   0.252  0.0139  0.2037 -0.6418
   11DG      H6  236   3.485   0.835   0.737 -3.3708 -2.6027  1.2552
   11DG      H7  237   3.433   0.998   0.769 -3.3157 -1.0511  0.5781
   11DG      H8  238   3.323   0.892   0.698 -0.2156  2.2099  1.0057
   11DG      O9  239   3.813   1.097   0.301 -0.4397  0.2120 -0.2015
   11DG     O10  240   3.484   0.953   0.566 -0.1298  0.0143 -0.0370
   11DG     C11  241   3.768   1.055   0.174  0.1945 -0.2868  0.0692
   11DG     C12  242   3.432   0.863   0.467 -0.7189  0.0755 -0.2741
   11DG     H13  243   3.820   0.960   0.161 -0.8029 -0.7690 -0.5070
   11DG     H14  244   3.782   1.126   0.093  1.8157 -0.9342 -0.2545
   11DG     H15  245   3.325   0.840   0.474 -0.6514 -0.1051  0.2723
   11DG     H16  246   3.482   0.768   0.487  0.1943  0.8516  1.3558
   11DG     C17  247   3.624   1.039   0.193 -0.1413  0.3301 -0.5773
   11DG     C18  248   3.466   0.922   0.332 -0.3339 -0.2214 -0.5741
   11DG     O19  249   3.605   0.955   0.306 -0.0068  0.5529 -0.1927
   11DG     H20  250   3.578   0.989   0.108 -1.6940 -1.0011  0.9402
   11DG     H21  251   3.588   1.141   0.206 -0.7491  0.2410 -1.4591
   11DG     H22  252   3.433   0.865   0.245 -1.2877  2.7582 -2.3330
   11DG     H23  253   3.411   1.016   0.326 -2.1326 -1.2918 -1.8734
   12DG      C1  254   2.850   2.572   4.093 -0.4884 -0.3071 -0.6918
   12DG      C2  255   2.688   1.999   4.099  0.3873  0.0867  0.0266
   12DG      H3  256   2.746   2.580   4.061 -0.0772 -1.7133 -2.5886
   12DG      H4  257   2.906   2.538   4.006 -0.5783 -2.6646  0.0902
   12DG      H5  258   2.890   2.668   4.126 -0.4514  0.1755 -2.0749
   12DG      H6  259   2.718   1.895   4.110 -1.4854 -0.6662 -1.4520
   12DG      H7  260   2.597   2.029   4.150 -0.2784 -1.2350 -0.3279
   12DG      H8  261   2.676   1.999   3.991  1.8148 -1.0394 -0.1655
   12DG      O9  262   2.858   2.467   4.192 -0.6559  0.4253 -0.2601
   12DG     O10  263   2.790   2.086   4.139  0.2493  0.8633 -0.1979
   12DG     C11  264   2.987   2.422   4.222 -0.6531 -0.4683 -0.3711
   12DG     C12  265   2.862   2.021   4.244  0.3498  1.2303  0.6597
   12DG     H13  266   3.046   2.511   4.241 -0.2586 -0.0243 -3.1980
   12DG     H14  267   3.037   2.381   4.134 -0.7543 -0.1846 -0.5623
   12DG     H15  268   2.898   1.924   4.211  0.4542  1.6666 -0.5439
   12DG     H16  269   2.795   2.010   4.330 -1.4276 -0.2350 -0.8210
   12DG     C17  270   2.985   2.341   4.347 -0.5280 -0.4729  0.2590
   12DG     C18  271   2.971   2.115   4.277  0.1293  0.5165  0.4596
   12DG     O19  272   2.901   2.228   4.333 -0.8451  0.2082  0.0786
   12DG     H20  273   2.955   2.410   4.426 -0.6902 -0.5925  0.3030
   12DG     H21  274   3.086   2.310   4.373 -0.5619  0.2699  1.3401
   12DG     H22  275   3.050   2.079   4.344  0.5192  1.8428  0.7485
   12DG     H23  276   3.010   2.143   4.179 -1.0504  0.1229 -0.1288
   13DG      C1  277   3.261   4.411   4.833  0.4327 -0.2137  0.0734
   13DG      C2  278   3.915   4.552   4.906  0.3283 -0.1331  0.2302
   13DG      H3  279   3.264   4.354   4.927  0.6547 -0.4396 -0.0698
   13DG      H4  280   3.334   4.354   4.775  0.0568  0.3352 -0.9512
   13DG      H5  281   3.162   4.407   4.789  1.2304 -0.2809 -1.7789
   13DG      H6  282   3.982   4.616   4.962 -0.3183 -1.3921  2.5611
   13DG      H7  283   3.908   4.462   4.966  2.1154  0.3623  1.2309
   13DG      H8  284   3.959   4.522   4.811  1.6249 -1.1010  1.1043
   13DG      O9  285   3.301   4.548   4.856  0.2390  0.0886  1.3168
   13DG     O10  286   3.792   4.621   4.895  0.2629 -0.1723  0.1275
   13DG     C11  287   3.325   4.620   4.732  0.2155 -0.4426 -0.6841
   13DG     C12  288   3.782   4.725   4.797 -0.8670  0.5468 -0.2467
   13DG     H13  289   3.225   4.648   4.699  0.2298  0.0698 -0.2974
   13DG     H14  290   3.368   4.558   4.653  2.4615 -0.7522  0.7154
   13DG     H15  291   3.803   4.676   4.702 -0.6832  0.1328  0.0014
   13DG     H16  292   3.862   4.798   4.805 -0.1699  0.1487 -2.7318
   13DG     C17  293   3.408   4.741   4.770 -0.8515  0.0205 -0.7523
   13DG     C18  294   3.641   4.796   4.798 -0.3534  1.3217  0.1269
   13DG     O19  295   3.534   4.693   4.805  0.0811  0.6499  0.1187
   13DG     H20  296   3.362   4.798   4.851  0.0869 -1.7597  1.1494
   13DG     H21  297   3.424   4.811   4.688  2.6403  0.7130  0.3342
   13DG     H22  298   3.625   4.869   4.878  3.1653 -0.2656  2.5109
   13DG     H23  299   3.640   4.855   4.706  1.3606  0.6532 -0.3504
   14DG      C1  300   4.940   4.410   5.112 -0.0204 -0.6539 -0.0426
   14DG      C2  301   5.379   4.800   5.443  0.5870  0.1036  0.1484
   14DG      H3  302   4.901   4.318   5.069  2.2252 -1.5498 -0.2934
   14DG      H4  303   4.953   4.486   5.035 -1.6266 -1.6213 -1.3372
   14DG      H5  304   4.869   4.442   5.189  1.1128 -0.9849  1.1858
   14DG      H6  305   5.453   4.789   5.523 -0.5609  0.3267  1.2870
   14DG      H7  306   5.419   4.876   5.376  1.4000 -2.1898 -2.0927
   14DG      H8  307   5.295   4.852   5.492  0.2374 -0.7844  0.5110
   14DG      O9  308   5.059   4.385   5.171 -0.3459  0.1607 -0.1097
   14DG     O10  309   5.337   4.679   5.376  0.2127 -0.0609  0.2139
   14DG     C11  310   5.157   4.347   5.074 -0.2473 -0.8258  0.6752
   14DG     C12  311   5.446   4.631   5.297 -0.1885  0.2616  0.1217
   14DG     H13  312   5.160   4.432   5.006  1.7970  2.2147  4.2046
   14DG     H14  313   5.131   4.255   5.021 -1.6877  0.8592 -1.7167
   14DG     H15  314   5.540   4.651   5.348 -0.0848 -0.3494  0.1801
   14DG     H16  315   5.453   4.679   5.200 -0.2687 -0.0604 -0.0470
   14DG     C17  316   5.294   4.341   5.139  0.2105  0.4083  1.0867
   14DG     C18  317   5.433   4.482   5.280 -0.0222 -0.2960  0.6139
   14DG     O19  318   5.319   4.465   5.206 -0.0094  0.4743  0.0530
   14DG     H20  319   5.375   4.335   5.067  1.0904 -2.1386  2.1822
   14DG     H21  320   5.303   4.253   5.204  2.3134 -0.3865 -0.2003
   14DG     H22  321   5.516   4.439   5.224 -2.5692 -1.2606 -2.7024
   14DG     H23  322   5.434   4.429   5.375  0.3147 -0.1124  0.7138
   15DG      C1  323   4.512   0.524   4.681  0.1860 -0.5017  0.5735
   15DG      C2  324   4.231   1.104   4.786 -0.0389 -0.3137  0.0078
   15DG      H3  325   4.485   0.570   4.586 -0.4461 -0.7834  0.6192
   15DG      H4  326   4.494   0.417   4.687  0.9874 -0.7293 -0.6554
   15DG      H5  327   4.613   0.552   4.713 -0.3945  0.7513  1.3940
   15DG      H6  328   4.130   1.143   4.803 -0.0846 -0.9584  1.2795
   15DG      H7  329   4.302   1.165   4.841  0.1369 -1.0264  0.5769
   15DG      H8  330   4.251   1.105   4.679 -1.4840  1.8955 -0.3158
   15DG      O9  331   4.437   0.589   4.782 -0.3228  0.6329  0.2425
   15DG     O10  332   4.251   0.977   4.840  0.3095 -0.2124  0.1377
   15DG     C11  333   4.456   0.552   4.911 -0.3811 -0.0402  0.2999
   15DG     C12  334   4.246   0.972   4.984  0.1234  0.3515 -0.1176
   15DG     H13  335   4.555   0.594   4.927 -0.6143  1.2469 -1.2846
   15DG     H14  336   4.469   0.445   4.931  0.8427  0.4395  2.3514
   15DG     H15  337   4.164   1.025   5.034  2.7667  2.3162  2.5390
   15DG     H16  338   4.340   1.014   5.021  0.7215  0.1668 -1.3956
   15DG     C17  339   4.370   0.625   5.012  0.8151  0.6288 -0.5825
   15DG     C18  340   4.243   0.823   5.028 -0.4525 -0.0037 -0.2805
   15DG     O19  341   4.341   0.754   4.959  0.0957 -0.4877  0.2821
   15DG     H20  342   4.420   0.645   5.107 -0.3435 -1.9826  0.6812
   15DG     H21  343   4.284   0.561   5.029 -0.2388  2.0468 -0.3792
   15DG     H22  344   4.255   0.810   5.136 -1.8900  0.5176 -0.0392
   15DG     H23  345   4.149   0.780   4.995  0.3233 -1.6605 -0.4816
   16DG      C1  346   2.659   1.551   0.861 -0.0733  0.0956 -0.2774
   16DG      C2  347   2.863   1.650   0.235 -0.5050  0.3025  0.8434
   16DG      H3  348   2.569   1.594   0.816  0.2829  0.7199 -0.4046
   16DG      H4  349   2.711   1.631   0.913  1.2768 -1.2533  0.5176
   16DG      H5  350   2.639   1.482   0.943  0.3923  2.0386  1.5542
   16DG      H6  351   2.761   1.614   0.221  0.0219 -1.5748  1.6178
   16DG      H7  352   2.869   1.757   0.257  1.0588  0.5455 -0.5661
   16DG      H8  353   2.926   1.621   0.151 -0.6635  1.6269  0.2374
   16DG      O9  354   2.739   1.484   0.762  0.1783  0.0204 -0.1309
   16DG     O10  355   2.900   1.567   0.349  0.1410  0.1514 -0.1673
   16DG     C11  356   2.869   1.442   0.817 -0.2330 -0.0101  0.5597
   16DG     C12  357   3.039   1.544   0.373  0.5091 -0.1025  0.4038
   16DG     H13  358   2.867   1.375   0.903  1.8416  0.1652  0.8104
   16DG     H14  359   2.916   1.533   0.856 -0.7655  0.6704 -0.3328
   16DG     H15  360   3.096   1.633   0.401 -2.0768  0.5821  4.2564
   16DG     H16  361   3.075   1.487   0.287 -0.3113 -1.7714  1.1374
   16DG     C17  362   2.953   1.382   0.700 -0.0443  0.8248  0.1365
   16DG     C18  363   3.039   1.446   0.491 -0.3183 -0.1829 -0.6253
   16DG     O19  364   2.942   1.468   0.591  0.1479 -0.6319  0.1910
   16DG     H20  365   2.918   1.281   0.677 -1.7917  0.9697  1.8526
   16DG     H21  366   3.054   1.380   0.740 -0.4587  1.5266  1.2523
   16DG     H22  367   3.019   1.346   0.452  0.9691 -0.9597  0.5940
   16DG     H23  368   3.135   1.432   0.541  0.2915 -0.0228 -1.7288
   17DG      C1  369   4.041   5.291   3.650  0.3548 -0.6193  0.9456
   17DG      C2  370   4.578   5.252   4.064  0.3063  0.5394 -0.1810
   17DG      H3  371   4.008   5.201   3.703 -0.4853 -0.0615  1.3860
   17DG      H4  372   3.992   5.271   3.555 -1.0143  1.5836  1.1344
   17DG      H5  373   3.999   5.381   3.694  1.4583  0.4084 -0.0542
   17DG      H6  374   4.581   5.148   4.097 -0.2180  0.5382 -0.1208
   17DG      H7  375   4.678   5.285   4.091  0.0175  1.0523  0.2812
   17DG      H8  376   4.507   5.311   4.122 -1.0255 -0.9956 -0.1532
   17DG      O9  377   4.185   5.297   3.638  0.1202  0.4615  0.4433
   17DG     O10  378   4.561   5.279   3.927  0.5507 -0.0059  0.4980
   17DG     C11  379   4.225   5.422   3.572 -0.1034 -0.4252  0.1656
   17DG     C12  380   4.549   5.418   3.907  0.2535 -0.6008 -0.0628
   17DG     H13  381   4.181   5.511   3.619 -0.8425 -1.5745  1.7579
   17DG     H14  382   4.191   5.427   3.469  1.8153  1.2703 -0.4650
   17DG     H15  383   4.638   5.475   3.932  0.3163  0.2330 -2.0406
   17DG     H16  384   4.462   5.459   3.960  1.7770  1.0750  1.2601
   17DG     C17  385   4.380   5.434   3.579  0.4122 -0.1885 -0.2088
   17DG     C18  386   4.532   5.447   3.758 -0.4565  0.0637  0.5609
   17DG     O19  387   4.402   5.401   3.712 -0.2806 -0.1511  0.7160
   17DG     H20  388   4.407   5.537   3.560  1.3229 -0.3443  0.1942
   17DG     H21  389   4.431   5.366   3.510 -0.4488 -1.9338  0.8119
   17DG     H22  390   4.542   5.553   3.734  0.1262 -0.8102 -3.9308
   17DG     H23  391   4.613   5.398   3.705 -1.2815  0.4060 -1.0564
   18DG      C1  392   5.264   3.947   1.782  0.2647 -0.0025  0.2774
   18DG      C2  393   4.819   4.096   2.305 -0.0800  0.9456 -0.0785
   18DG      H3  394   5.301   3.877   1.857 -0.6950  1.5417  2.3013
   18DG      H4  395   5.304   4.046   1.807 -2.7084  0.9701  1.6340
   18DG      H5  396   5.289   3.916   1.681  1.1385 -0.7319  0.6991
   18DG      H6  397   4.758   4.183   2.332  2.4615  3.6164 -2.2719
   18DG      H7  398   4.764   4.003   2.322  0.5818  0.7998  1.4889
   18DG      H8  399   4.905   4.093   2.372  0.7169 -0.4516 -1.1177
   18DG      O9  400   5.127   3.953   1.808 -0.4938  0.3144  0.3681
   18DG     O10  401   4.860   4.092   2.160  0.1513  0.3204 -0.1984
   18DG     C11  402   5.055   4.039   1.724  0.3558 -0.3879 -0.4538
   18DG     C12  403   4.755   4.138   2.080 -0.7628 -0.1907 -0.0662
   18DG     H13  404   5.065   4.024   1.616  1.8572 -0.1189 -0.3797
   18DG     H14  405   5.089   4.142   1.728  0.8368 -0.3674 -3.1925
   18DG     H15  406   4.744   4.247   2.085 -0.9016 -0.1142 -1.4829
   18DG     H16  407   4.663   4.108   2.128  0.2324  0.0581  2.1006
   18DG     C17  408   4.909   4.046   1.754 -0.5863 -0.2502  0.2633
   18DG     C18  409   4.760   4.106   1.930 -0.5642  0.6555 -0.1976
   18DG     O19  410   4.890   4.096   1.885  0.2574  0.1026  0.0933
   18DG     H20  411   4.858   3.951   1.741 -1.4780  0.1988  0.3462
   18DG     H21  412   4.860   4.118   1.688  0.9416 -0.8091 -1.5844
   18DG     H22  413   4.723   4.005   1.911  1.5229  0.1232 -1.7651
   18DG     H23  414   4.702   4.174   1.867  0.9501  1.9374 -0.2554
   19DG      C1  415   0.437   1.791   2.111  0.0831 -0.1244  0.2057
   19DG      C2  416   0.459   1.762   1.461 -0.0081 -0.7488  0.1254
   19DG      H3  417   0.395   1.713   2.175  0.3420 -0.4625 -0.0352
   19DG      H4  418   0.362   1.870   2.102  0.7893  0.4556 -0.7620
   19DG      H5  419   0.517   1.825   2.177  1.3016 -0.4519 -1.0578
   19DG      H6  420   0.432   1.657   1.466  1.2490 -1.0594  0.5929
   19DG      H7  421   0.366   1.818   1.471 -0.9088 -2.4541  1.9959
   19DG      H8  422   0.512   1.768   1.366 -0.3663  1.2726 -0.0096
   19DG      O9  423   0.484   1.734   1.991  0.5334  0.3645  0.0828
   19DG     O10  424   0.545   1.790   1.571 -0.2151  0.0613 -0.2847
   19DG     C11  425   0.562   1.620   2.010  0.1934  0.6849  0.4314
   19DG     C12  426   0.653   1.695   1.570 -0.1947  0.1282 -0.4551
   19DG     H13  427   0.497   1.533   2.018 -1.0776  1.2736 -2.4104
   19DG     H14  428   0.636   1.624   2.091  0.7844  1.5794 -0.1336
   19DG     H15  429   0.697   1.691   1.471  0.5814  2.1584 -0.2423
   19DG     H16  430   0.598   1.602   1.585 -1.4241  1.0466  1.0537
   19DG     C17  431   0.631   1.607   1.873  0.4389 -0.4251  0.2685
   19DG     C18  432   0.744   1.712   1.688  1.1072  0.1322 -0.5423
   19DG     O19  433   0.666   1.730   1.812 -0.1661 -0.4174 -0.9085
   19DG     H20  434   0.567   1.552   1.804  0.1006 -0.2126  0.4099
   19DG     H21  435   0.725   1.552   1.876  1.8036  1.8411  0.7143
   19DG     H22  436   0.812   1.627   1.698  1.1233  0.1503 -0.4973
   19DG     H23  437   0.805   1.798   1.662  0.5845 -0.0440 -2.5039
   20DG      C1  438   0.811   2.929   3.855  0.3033 -0.8692  0.0798
   20DG      C2  439   0.405   3.286   4.120 -0.2871  0.4284  0.3312
   20DG      H3  440   0.740   2.848   3.841 -1.3443  0.2307  1.6623
   20DG      H4  441   0.912   2.891   3.837  0.6322 -0.6381  1.3478
   20DG      H5  442   0.776   3.002   3.781 -1.2612  0.9210  2.4344
   20DG      H6  443   0.365   3.225   4.039  0.8953  1.6443 -1.2425
   20DG      H7  444   0.320   3.295   4.188 -1.8601 -1.5418 -1.2400
   20DG      H8  445   0.417   3.386   4.079 -0.0913 -0.3404 -1.5909
   20DG      O9  446   0.777   2.983   3.987 -0.3083 -0.0572 -0.1308
   20DG     O10  447   0.522   3.232   4.184  0.2560  0.5810  0.0394
   20DG     C11  448   0.812   2.892   4.086  0.2190 -0.4387 -0.1868
   20DG     C12  449   0.489   3.121   4.276 -0.1523 -0.2552  0.4676
   20DG     H13  450   0.916   2.901   4.118 -0.2962 -0.0686  1.5235
   20DG     H14  451   0.805   2.788   4.054 -0.9489 -0.4429  0.0575
   20DG     H15  452   0.432   3.046   4.221  1.7676 -1.3322 -0.1580
   20DG     H16  453   0.438   3.156   4.365  0.9594  1.3938  0.4957
   20DG     C17  454   0.728   2.915   4.214 -0.3387 -0.2018  0.0643
   20DG     C18  455   0.620   3.071   4.343 -0.0408  0.1808 -0.2974
   20DG     O19  456   0.716   3.054   4.240  0.3284 -0.0552  0.0238
   20DG     H20  457   0.780   2.869   4.298  0.8410 -2.1731 -1.6364
   20DG     H21  458   0.627   2.878   4.203 -0.3659 -0.2995  0.5962
   20DG     H22  459   0.666   3.157   4.393 -0.0646  1.1310 -1.8596
   20DG     H23  460   0.608   2.991   4.416 -2.3798  1.5554  0.9806
   21DG      C1  461   1.224   1.118   3.013  0.0383  0.3560  0.3451
   21DG      C2  462   0.555   1.133   2.787  0.0466  0.0327  0.0962
   21DG      H3  463   1.283   1.110   3.105 -1.2741 -0.9984  1.1145
   21DG      H4  464   1.246   1.213   2.964 -0.5123 -0.8974 -2.5140
   21DG      H5  465   1.262   1.035   2.953 -1.8438  0.9778 -1.8529
   21DG      H6  466   0.598   1.130   2.687 -0.8133 -1.6763 -0.2662
   21DG      H7  467   0.466   1.070   2.787 -0.1572  0.3139  0.0860
   21DG      H8  468   0.524   1.237   2.805 -0.3540  0.2402 -1.6252
   21DG      O9  469   1.083   1.100   3.029 -0.1967  0.0677 -0.4453
   21DG     O10  470   0.657   1.074   2.867 -0.0329 -0.4939 -0.2480
   21DG     C11  471   1.070   0.983   3.112 -0.5816 -0.1258  0.2540
   21DG     C12  472   0.600   1.050   2.991 -0.3871  0.0713 -0.7011
   21DG     H13  473   1.125   0.989   3.206  0.9392 -2.2335 -0.4211
   21DG     H14  474   1.100   0.890   3.062  0.0896 -0.0787  0.5655
   21DG     H15  475   0.516   0.981   2.985 -0.6844  0.0299  2.5315
   21DG     H16  476   0.569   1.141   3.042  0.6826 -0.1314  0.3474
   21DG     C17  477   0.926   0.968   3.159  0.8261 -0.5255 -0.9665
   21DG     C18  478   0.704   0.976   3.079  0.5367  0.2117 -0.0279
   21DG     O19  479   0.839   1.011   3.053 -0.2087  0.0449 -0.1415
   21DG     H20  480   0.907   1.026   3.249  2.3255 -1.2090 -0.1683
   21DG     H21  481   0.907   0.864   3.182 -1.8983  0.0752 -0.0896
   21DG     H22  482   0.674   0.984   3.184 -0.9801 -1.8869 -0.2430
   21DG     H23  483   0.691   0.870   3.059  0.9687  0.2839 -0.7140
   22DG      C1  484   3.334   2.573   4.658  0.3293  0.1426 -1.0760
   22DG      C2  485   4.131   2.176   4.484 -0.0504 -0.9277 -0.8406
   22DG      H3  486   3.313   2.636   4.571 -0.2347  1.1365 -0.2434
   22DG      H4  487   3.322   2.622   4.755  0.3699 -1.1277 -0.4133
   22DG      H5  488   3.261   2.493   4.664  0.2854  0.2946  1.0542
   22DG      H6  489   4.160   2.126   4.391  0.0691 -0.9688 -0.7810
   22DG      H7  490   4.159   2.281   4.481 -0.5467 -0.7980 -1.2088
   22DG      H8  491   4.197   2.125   4.553  0.1762 -0.6875 -0.8795
   22DG      O9  492   3.463   2.524   4.652 -0.6259  0.1620  0.5257
   22DG     O10  493   3.993   2.151   4.505 -0.6737  0.2711 -0.2901
   22DG     C11  494   3.501   2.451   4.531  0.0268 -0.5834 -0.0930
   22DG     C12  495   3.901   2.244   4.437  0.2563 -0.4934  0.0141
   22DG     H13  496   3.505   2.519   4.445  2.4320 -0.1353  0.2775
   22DG     H14  497   3.420   2.381   4.511 -0.8780  0.2286  0.6436
   22DG     H15  498   3.929   2.248   4.331 -2.8790  0.4934 -0.9007
   22DG     H16  499   3.920   2.344   4.476  0.9087 -0.8774  0.7011
   22DG     C17  500   3.634   2.374   4.546 -0.2890  0.0074 -0.3385
   22DG     C18  501   3.757   2.190   4.451 -0.0206 -0.2081  0.1420
   22DG     O19  502   3.652   2.290   4.429  0.6038  0.5116 -0.2074
   22DG     H20  503   3.651   2.317   4.637  2.5609 -0.7797 -1.2776
   22DG     H21  504   3.708   2.454   4.550  0.2141 -0.5080  0.9341
   22DG     H22  505   3.747   2.114   4.373 -0.8467 -1.7864  1.7197
   22DG     H23  506   3.741   2.136   4.544 -1.8141 -2.5990 -1.4247
   23DG      C1  507   1.704   1.363   2.303 -0.1087 -0.0089 -0.3226
   23DG      C2  508   1.408   1.537   2.739 -0.5089 -0.0833  0.1510
   23DG      H3  509   1.731   1.265   2.341 -0.8293 -0.0879  0.0040
   23DG      H4  510   1.713   1.432   2.387 -0.5760  1.1356 -1.1909
   23DG      H5  511   1.786   1.386   2.235 -1.1049  1.3616 -1.1156
   23DG      H6  512   1.431   1.603   2.822  0.0750 -0.9282  0.6836
   23DG      H7  513   1.299   1.529   2.730 -0.6175  0.9846  0.3537
   23DG      H8  514   1.445   1.437   2.763 -0.7223 -0.2485 -0.2031
   23DG      O9  515   1.583   1.360   2.222 -0.1269  0.0161 -0.1215
   23DG     O10  516   1.473   1.564   2.614  0.5415 -0.1144 -0.2853
   23DG     C11  517   1.563   1.473   2.145  0.2327  0.3947  0.9089
   23DG     C12  518   1.410   1.677   2.556  0.4137 -0.1730  0.0304
   23DG     H13  519   1.469   1.456   2.094 -0.5376  0.8772  2.1215
   23DG     H14  520   1.636   1.490   2.066 -0.1692  0.4391  0.5458
   23DG     H15  521   1.437   1.763   2.618 -0.9699 -0.9678  1.8162
   23DG     H16  522   1.302   1.662   2.562  0.6867 -2.2923  0.3644
   23DG     C17  523   1.555   1.598   2.231 -0.3407  0.2970 -0.3510
   23DG     C18  524   1.456   1.704   2.410 -0.4307 -0.1606  0.7588
   23DG     O19  525   1.495   1.577   2.357  0.3851 -0.3618  0.0129
   23DG     H20  526   1.486   1.665   2.180 -0.0135 -0.6453 -2.1267
   23DG     H21  527   1.658   1.634   2.238  0.3408 -1.6712  0.6546
   23DG     H22  528   1.376   1.750   2.353 -0.7820  1.1598  2.2340
   23DG     H23  529   1.535   1.779   2.403  0.2784 -1.0178 -0.9531
   24DG      C1  530   0.409   3.860   0.327  1.0339  0.0192  0.3084
   24DG      C2  531   0.605   4.467   0.535 -0.4211 -0.3877 -0.5710
   24DG      H3  532   0.487   3.887   0.256 -0.1955 -2.8950 -2.3887
   24DG      H4  533   0.320   3.919   0.303  1.8136  1.5006  0.9486
   24DG      H5  534   0.393   3.754   0.309  0.5697  0.4318 -2.0773
   24DG      H6  535   0.672   4.475   0.449  1.7412 -0.3044  1.0337
   24DG      H7  536   0.520   4.532   0.515 -0.9711 -0.4814  1.2687
   24DG      H8  537   0.654   4.508   0.624 -0.1592 -1.4002 -0.2245
   24DG      O9  538   0.464   3.890   0.454  0.0601 -0.4547  0.0009
   24DG     O10  539   0.554   4.336   0.557  0.1627  0.0267  0.3130
   24DG     C11  540   0.365   3.881   0.550  0.2285 -0.5759  0.2730
   24DG     C12  541   0.491   4.329   0.688 -0.4906 -0.3704  0.1141
   24DG     H13  542   0.340   3.778   0.576 -0.5453 -0.2392  0.9187
   24DG     H14  543   0.270   3.918   0.511 -0.2421 -1.0713  0.9402
   24DG     H15  544   0.393   4.375   0.690 -0.8099 -1.0441  0.4528
   24DG     H16  545   0.548   4.372   0.771  0.6842  1.4546 -1.5465
   24DG     C17  546   0.409   3.970   0.670 -0.5541 -0.3926 -0.2645
   24DG     C18  547   0.493   4.187   0.732  0.4509  0.4440 -0.5302
   24DG     O19  548   0.430   4.106   0.630  0.5167  0.5518 -0.1081
   24DG     H20  549   0.496   3.922   0.714  0.8934  0.4842 -2.0459
   24DG     H21  550   0.337   3.968   0.752  0.3858 -2.1330  0.5677
   24DG     H22  551   0.585   4.139   0.767  0.4251 -0.3282 -1.4618
   24DG     H23  552   0.436   4.179   0.825  1.1019  0.3772 -0.1300
   25DG      C1  553   4.041   4.278   3.442  0.7899 -0.7595  0.9980
   25DG      C2  554   3.675   4.565   3.973  0.3847 -0.2040  0.3234
   25DG      H3  555   4.066   4.213   3.525 -0.2626  0.5091  2.3716
   25DG      H4  556   4.113   4.292   3.361 -0.1581 -0.2690  0.2101
   25DG      H5  557   3.952   4.241   3.391  0.9115  0.4235 -0.1163
   25DG      H6  558   3.730   4.514   4.052 -0.1474 -0.0112  0.8269
   25DG      H7  559   3.630   4.644   4.033 -2.8407 -2.0480  0.5971
   25DG      H8  560   3.601   4.494   3.935  0.6680 -1.1933  1.5417
   25DG      O9  561   4.005   4.413   3.485  0.2496 -0.3984  0.0334
   25DG     O10  562   3.751   4.604   3.862 -0.5553  0.3632 -0.0217
   25DG     C11  563   4.119   4.470   3.540  0.0767 -0.8559  0.9054
   25DG     C12  564   3.874   4.660   3.907  0.4652  0.1508  0.2463
   25DG     H13  565   4.192   4.498   3.463  0.8816  3.4418  2.9032
   25DG     H14  566   4.179   4.407   3.605  1.8871 -1.6531 -1.3759
   25DG     H15  567   3.930   4.587   3.965 -0.7220 -1.0464 -0.0563
   25DG     H16  568   3.851   4.745   3.971 -2.0923 -0.0961 -0.2535
   25DG     C17  569   4.071   4.599   3.604  0.6386 -0.2415  0.5065
   25DG     C18  570   3.959   4.692   3.783 -0.1895 -1.1283  0.1603
   25DG     O19  571   3.985   4.568   3.711  0.4964 -0.4295  0.0503
   25DG     H20  572   4.026   4.674   3.540  0.1109  1.2201  2.4859
   25DG     H21  573   4.156   4.639   3.660 -1.3171 -0.0641  3.5877
   25DG     H22  574   3.917   4.776   3.727 -0.1947 -0.3989  1.2175
   25DG     H23  575   4.048   4.734   3.829  0.6016  1.9299 -3.6119
   26DG      C1  576   0.646   4.511   4.504  0.2743  0.1732  1.0501
   26DG      C2  577   0.740   4.383   3.815 -0.3513 -0.4641 -0.1050
   26DG      H3  578   0.709   4.460   4.577  1.2294 -2.5718 -1.5076
   26DG      H4  579   0.581   4.582   4.556 -1.6067  0.9710 -2.1268
   26DG      H5  580   0.702   4.579   4.439  0.9906 -1.8650 -0.5702
   26DG      H6  581   0.671   4.353   3.736 -1.6428  0.6174  0.5517
   26DG      H7  582   0.769   4.483   3.782 -0.6430 -0.3141  0.0841
   26DG      H8  583   0.823   4.314   3.832  0.1309  0.2389  0.4574
   26DG      O9  584   0.567   4.416   4.425  0.7729  0.6869 -0.1224
   26DG     O10  585   0.656   4.396   3.935 -0.7208 -0.2513 -0.0441
   26DG     C11  586   0.468   4.470   4.353  0.5887 -0.4169 -0.2742
   26DG     C12  587   0.613   4.258   3.973  0.3992  0.2265  0.2043
   26DG     H13  588   0.514   4.557   4.307  3.2108 -2.6359 -2.1628
   26DG     H14  589   0.380   4.505   4.407  0.6882 -0.8013  0.1424
   26DG     H15  590   0.686   4.186   4.009  0.1863 -0.3214 -0.4270
   26DG     H16  591   0.572   4.219   3.880 -1.5052  1.7509  0.3315
   26DG     C17  592   0.422   4.369   4.249  0.1383  0.7828  0.2322
   26DG     C18  593   0.490   4.256   4.054  0.5708 -0.0685 -0.6345
   26DG     O19  594   0.534   4.333   4.171  0.0293  0.0128 -0.2533
   26DG     H20  595   0.341   4.415   4.191 -0.5459  1.4539  1.6606
   26DG     H21  596   0.383   4.284   4.306  2.1950  0.7936  1.7503
   26DG     H22  597   0.401   4.301   4.010 -0.0441  0.4424  1.0331
   26DG     H23  598   0.450   4.159   4.084  0.2213 -0.0848 -1.1435
   27DG      C1  599   0.212   5.286   3.323  0.2733 -0.7945 -0.0671
   27DG      C2  600  -0.081   5.645   2.869 -0.6067  0.0168  0.3048
   27DG      H3  601   0.190   5.361   3.399  0.4383  1.5310 -2.1723
   27DG      H4  602   0.304   5.295   3.265 -0.1768 -1.4398 -0.8966
   27DG      H5  603   0.222   5.192   3.377 -0.5958  0.0527  1.6406
   27DG      H6  604  -0.009   5.711   2.917 -0.4435 -0.1598  0.3036
   27DG      H7  605  -0.074   5.665   2.762  1.0897 -0.4674  0.2958
   27DG      H8  606  -0.180   5.685   2.891 -0.9047 -0.9131  0.7205
   27DG      O9  607   0.101   5.276   3.237  0.2510 -0.0511 -0.3827
   27DG     O10  608  -0.066   5.506   2.900 -0.2385  0.2572 -0.4013
   27DG     C11  609   0.120   5.162   3.152 -0.0943  0.4098  0.0882
   27DG     C12  610   0.054   5.445   2.860 -0.9386 -0.4602 -0.4649
   27DG     H13  611   0.125   5.075   3.217  0.0788  0.6249  0.3642
   27DG     H14  612   0.214   5.185   3.101 -1.4129  1.6587 -1.8944
   27DG     H15  613   0.131   5.494   2.921  0.4269 -0.8861 -1.7871
   27DG     H16  614   0.081   5.467   2.757  3.3816 -0.3845  0.4784
   27DG     C17  615  -0.003   5.144   3.071  0.0355 -0.2133 -0.0760
   27DG     C18  616   0.052   5.296   2.883 -0.0042  0.5668  0.2011
   27DG     O19  617  -0.021   5.274   3.001 -0.5445  0.2400 -0.0557
   27DG     H20  618  -0.092   5.140   3.134 -1.6262 -0.4326 -2.3409
   27DG     H21  619  -0.010   5.070   2.992  0.8494 -1.3338  0.8527
   27DG     H22  620  -0.004   5.248   2.802  1.2357 -0.9605  0.1813
   27DG     H23  621   0.156   5.264   2.890 -0.2676 -0.1859  0.8763
   28DG      C1  622   2.645   2.837   2.104 -0.3663 -0.3294  0.3479
   28DG      C2  623   2.719   2.199   2.351 -0.1724 -0.2041 -0.2810
   28DG      H3  624   2.621   2.765   2.026  0.3226 -0.5436  0.3286
   28DG      H4  625   2.702   2.923   2.070  0.2805 -1.3987 -1.4200
   28DG      H5  626   2.550   2.882   2.133 -0.3187  1.3134 -1.8330
   28DG      H6  627   2.789   2.153   2.281 -0.0091 -0.7451  0.2284
   28DG      H7  628   2.699   2.142   2.442  0.0230  1.0047  0.5511
   28DG      H8  629   2.626   2.199   2.294  0.5105  0.0487 -1.4229
   28DG      O9  630   2.716   2.761   2.202  0.0744  0.3068  0.0865
   28DG     O10  631   2.747   2.337   2.364 -0.6428  0.6892 -0.6970
   28DG     C11  632   2.754   2.818   2.326  0.6427 -0.5322  0.0554
   28DG     C12  633   2.870   2.372   2.436 -0.2633  0.0554 -0.3220
   28DG     H13  634   2.677   2.865   2.387 -0.9099 -2.5320 -0.2723
   28DG     H14  635   2.813   2.906   2.302 -0.7207 -0.1283 -2.1280
   28DG     H15  636   2.943   2.372   2.354 -0.1674 -1.7450 -0.2806
   28DG     H16  637   2.900   2.298   2.510  1.4649  0.2501 -0.7884
   28DG     C17  638   2.833   2.723   2.408  0.3781 -0.1763  0.1312
   28DG     C18  639   2.853   2.506   2.493 -0.1188 -0.2472 -0.4996
   28DG     O19  640   2.802   2.586   2.390 -0.1733 -0.1247  0.2578
   28DG     H20  641   2.840   2.748   2.514  0.1008 -1.9293  0.5875
   28DG     H21  642   2.937   2.739   2.380  0.7735 -1.1240  1.0377
   28DG     H22  643   2.793   2.519   2.582  3.7155  0.1028  2.2987
   28DG     H23  644   2.951   2.542   2.527  0.3590 -0.8647 -1.1796
   29DG      C1  645   1.234   2.803   3.846 -0.1239  0.2798 -0.3189
   29DG      C2  646   1.566   2.834   3.266 -0.1973  0.1665  0.4181
   29DG      H3  647   1.142   2.810   3.788  0.6808 -0.6308 -1.7763
   29DG      H4  648   1.219   2.825   3.952  2.3275 -1.7096  0.5215
   29DG      H5  649   1.244   2.696   3.861 -2.7800  0.1549  1.1376
   29DG      H6  650   1.624   2.744   3.282 -2.3631 -1.2095  0.8932
   29DG      H7  651   1.465   2.804   3.240 -0.2633 -0.0571  0.9259
   29DG      H8  652   1.609   2.895   3.187  1.3152  0.5867  1.5131
   29DG      O9  653   1.340   2.879   3.777  0.1456  0.0429 -0.6677
   29DG     O10  654   1.566   2.903   3.392 -0.0398  0.2116 -0.1761
   29DG     C11  655   1.469   2.871   3.841 -0.0749 -0.9578  0.3443
   29DG     C12  656   1.687   2.948   3.431  0.2819  0.3253  0.1299
   29DG     H13  657   1.506   2.769   3.852 -1.3346 -1.3985  0.6436
   29DG     H14  658   1.459   2.904   3.944 -0.1690 -0.4371  0.1746
   29DG     H15  659   1.729   3.031   3.373  1.1183 -0.5859 -0.6004
   29DG     H16  660   1.748   2.860   3.413  1.6032  1.1264  0.5090
   29DG     C17  661   1.560   2.971   3.773  1.1375 -0.0367  0.2556
   29DG     C18  662   1.676   2.997   3.576  0.3131 -0.1379 -0.0086
   29DG     O19  663   1.578   2.923   3.642 -1.0427 -0.1722 -0.1955
   29DG     H20  664   1.656   2.971   3.825  1.4965 -0.9345 -0.3878
   29DG     H21  665   1.528   3.075   3.785 -0.0400 -0.5314  1.7581
   29DG     H22  666   1.772   2.999   3.628 -0.4487  4.2833  1.6881
   29DG     H23  667   1.654   3.104   3.569  4.1582  0.7932 -0.0259
   30DG      C1  668   4.309   0.987   3.469 -0.1873 -0.5952 -0.5886
   30DG      C2  669   5.011   1.025   3.333  0.0425 -0.2517 -0.1979
   30DG      H3  670   4.289   0.919   3.551  1.3678  0.0388  0.3503
   30DG      H4  671   4.331   0.928   3.380 -0.4659  0.3742 -1.3190
   30DG      H5  672   4.221   1.047   3.441  1.5298  1.5731 -1.6439
   30DG      H6  673   5.047   0.959   3.412 -2.7891  2.1244  3.4098
   30DG      H7  674   4.983   0.972   3.242 -1.5497 -1.1154  0.7423
   30DG      H8  675   5.102   1.083   3.320  1.5696 -2.0282  1.8866
   30DG      O9  676   4.430   1.064   3.484 -0.6922  0.4230 -0.2117
   30DG     O10  677   4.897   1.093   3.384 -0.9391  0.0145 -0.0525
   30DG     C11  678   4.424   1.160   3.592 -0.3138 -0.1097 -0.4022
   30DG     C12  679   4.903   1.128   3.517  0.2212  0.3670 -0.7834
   30DG     H13  680   4.420   1.115   3.691 -0.3952 -1.0155 -0.8068
   30DG     H14  681   4.338   1.224   3.570  0.0069 -0.6596 -3.7646
   30DG     H15  682   4.991   1.193   3.518  1.1468 -0.8480  0.7392
   30DG     H16  683   4.926   1.051   3.591  3.0042  0.9292 -0.9524
   30DG     C17  684   4.556   1.240   3.588 -0.4447  0.2070 -0.3143
   30DG     C18  685   4.794   1.226   3.560  0.0051 -0.1500 -0.4952
   30DG     O19  686   4.669   1.159   3.553 -0.3044  0.1486 -0.5657
   30DG     H20  687   4.570   1.286   3.686 -1.6943 -3.7374  1.9516
   30DG     H21  688   4.557   1.310   3.505  1.4478  1.7901  0.9566
   30DG     H22  689   4.823   1.269   3.656  0.9785 -0.8710 -0.4479
   30DG     H23  690   4.797   1.312   3.494  2.6471 -1.2792 -2.0113
   31DG      C1  691   2.756   2.620   1.149  0.0654  0.0664  0.4653
   31DG      C2  692   3.356   2.968   1.005 -0.3893 -0.1290 -0.2344
   31DG      H3  693   2.722   2.537   1.088 -3.0230  0.5800  1.3470
   31DG      H4  694   2.664   2.660   1.190 -0.5724 -0.5797 -0.3168
   31DG      H5  695   2.806   2.583   1.239  0.0359 -1.1039  0.0128
   31DG      H6  696   3.400   3.048   0.945 -1.7549 -0.1770 -1.3528
   31DG      H7  697   3.430   2.906   1.055 -0.6786  0.8606  1.5350
   31DG      H8  698   3.315   2.892   0.939 -2.4706 -0.2623  1.1358
   31DG      O9  699   2.837   2.712   1.088 -0.5015  0.2193  0.1706
   31DG     O10  700   3.252   3.019   1.091  0.3783  0.0147 -0.5053
   31DG     C11  701   2.761   2.809   1.015 -0.2315 -0.6548  0.2060
   31DG     C12  702   3.160   3.109   1.030  0.1914 -0.0743  0.8776
   31DG     H13  703   2.695   2.854   1.088  0.2800 -0.6527  0.6763
   31DG     H14  704   2.693   2.758   0.946  0.3927 -0.1841 -0.7900
   31DG     H15  705   3.204   3.193   0.975  0.1181 -1.2658 -1.0878
   31DG     H16  706   3.108   3.162   1.110 -1.0350 -0.2273  0.2070
   31DG     C17  707   2.851   2.910   0.944 -0.1358 -0.2822  0.5556
   31DG     C18  708   3.055   3.031   0.950  0.2093  0.2991  0.1879
   31DG     O19  709   2.964   2.942   1.025  0.1065  0.2967  0.3577
   31DG     H20  710   2.794   3.002   0.929 -0.3513 -0.5369 -0.2090
   31DG     H21  711   2.889   2.872   0.849  0.5151 -0.3436  0.8326
   31DG     H22  712   2.991   3.108   0.907 -0.8820 -0.3384  0.6308
   31DG     H23  713   3.093   2.970   0.869 -0.4929 -1.0713  0.8503
   32DG      C1  714   2.509   2.711   2.540 -0.7660 -0.0847 -0.2703
   32DG      C2  715   2.637   2.320   1.988 -0.6439  0.3931  1.2959
   32DG      H3  716   2.595   2.664   2.587 -1.5082 -0.7153  0.4812
   32DG      H4  717   2.435   2.706   2.620  0.6819  1.0534  1.1933
   32DG      H5  718   2.528   2.818   2.539  1.3186 -0.3841  0.9314
   32DG      H6  719   2.716   2.274   2.047  0.1779 -0.2083 -0.2253
   32DG      H7  720   2.577   2.231   1.973  2.6308 -1.5905 -1.2831
   32DG      H8  721   2.677   2.354   1.892 -1.8558  1.1998  1.0527
   32DG      O9  722   2.471   2.641   2.421  0.4456  0.8185  0.2790
   32DG     O10  723   2.571   2.431   2.062 -0.4818  0.1909 -0.1539
   32DG     C11  724   2.357   2.703   2.364  0.4264  0.6356  0.6657
   32DG     C12  725   2.492   2.501   1.969  0.2793 -0.1185  0.5235
   32DG     H13  726   2.373   2.804   2.327  2.0954  0.0626 -0.2951
   32DG     H14  727   2.274   2.699   2.435  1.1028 -0.8224  1.4285
   32DG     H15  728   2.459   2.436   1.888  1.4272 -1.5338  1.1287
   32DG     H16  729   2.558   2.577   1.928 -1.1940  0.7200 -0.3867
   32DG     C17  730   2.304   2.622   2.249 -0.0663  0.2539 -0.1420
   32DG     C18  731   2.370   2.557   2.036  0.4845 -0.5237  0.1045
   32DG     O19  732   2.417   2.601   2.165  0.0597  0.3972 -0.2779
   32DG     H20  733   2.218   2.674   2.205  1.9302  1.4424 -2.9629
   32DG     H21  734   2.270   2.521   2.271  0.4677 -0.5049 -2.4439
   32DG     H22  735   2.328   2.642   1.983 -2.3631 -1.9447 -0.1378
   32DG     H23  736   2.296   2.478   2.047  0.0595  0.0840  1.9283
   33DG      C1  737   0.904   0.112   3.704 -0.5810  0.8034 -0.0309
   33DG      C2  738   1.461   0.213   3.289 -0.4396  0.0077  0.5391
   33DG      H3  739   0.807   0.146   3.738 -0.1595  0.2153  1.8291
   33DG      H4  740   0.973   0.076   3.780 -1.0239  0.8147  0.3792
   33DG      H5  741   0.890   0.026   3.638  0.9099  0.4264  0.1110
   33DG      H6  742   1.519   0.288   3.235 -3.1982  1.5327 -0.5329
   33DG      H7  743   1.507   0.172   3.379  1.4082  2.3853  0.7905
   33DG      H8  744   1.454   0.138   3.211 -3.4302 -1.3326  1.9201
   33DG      O9  745   0.967   0.202   3.610 -0.2157 -0.3118  0.4970
   33DG     O10  746   1.338   0.269   3.323 -0.0443  0.2489  0.0374
   33DG     C11  747   0.967   0.341   3.657  0.1695 -0.2365  0.4142
   33DG     C12  748   1.355   0.399   3.389 -0.7222 -0.0934  1.2436
   33DG     H13  749   1.023   0.352   3.750  0.0764 -0.6345  0.5189
   33DG     H14  750   0.862   0.358   3.680  0.0788  0.7164 -0.6286
   33DG     H15  751   1.400   0.471   3.320 -0.4927 -0.1686  1.3135
   33DG     H16  752   1.430   0.376   3.465  0.3454 -0.3924  0.1284
   33DG     C17  753   1.031   0.439   3.551 -0.0392  0.4788 -0.3490
   33DG     C18  754   1.229   0.478   3.429 -0.0259 -0.4117  0.1305
   33DG     O19  755   1.163   0.397   3.527 -0.7636 -0.3515 -0.4648
   33DG     H20  756   1.031   0.541   3.590 -0.3096  0.4989 -0.3955
   33DG     H21  757   0.970   0.429   3.461 -2.4138  1.3972  1.0569
   33DG     H22  758   1.245   0.576   3.474 -2.2689  0.1053 -0.0494
   33DG     H23  759   1.161   0.500   3.346 -1.1186 -0.9636  0.8530
   34DG      C1  760   2.419   0.789   4.720 -0.4690 -0.1495  0.1203
   34DG      C2  761   2.665   0.359   4.233 -0.1052  0.4500  0.1568
   34DG      H3  762   2.356   0.716   4.769  1.5257 -0.8199  1.8274
   34DG      H4  763   2.375   0.832   4.630  2.3867  0.5200 -1.0880
   34DG      H5  764   2.424   0.872   4.791 -0.0475 -1.7631  2.0567
   34DG      H6  765   2.644   0.379   4.128 -0.8356 -1.4920 -0.1039
   34DG      H7  766   2.756   0.301   4.246 -0.2186  0.3703  0.6389
   34DG      H8  767   2.582   0.304   4.278 -0.8794  2.2530  1.0449
   34DG      O9  768   2.540   0.723   4.679 -0.0367 -0.3220 -0.1282
   34DG     O10  769   2.672   0.475   4.317  0.4938 -0.4720  0.0295
   34DG     C11  770   2.643   0.814   4.682 -0.3094  0.0801 -0.1572
   34DG     C12  771   2.766   0.580   4.268  0.1807 -0.2944 -0.8900
   34DG     H13  772   2.660   0.831   4.789 -0.4823 -0.2953 -0.0677
   34DG     H14  773   2.627   0.918   4.654 -1.9927 -0.2747 -0.5937
   34DG     H15  774   2.704   0.651   4.213 -4.6717 -1.7682  2.0224
   34DG     H16  775   2.851   0.561   4.203  0.1179  0.4961 -1.2096
   34DG     C17  776   2.765   0.765   4.598 -0.0476  0.1640  0.0823
   34DG     C18  777   2.824   0.656   4.388 -0.7353 -0.5578 -0.2670
   34DG     O19  778   2.720   0.702   4.473  0.3354 -0.5949  0.0674
   34DG     H20  779   2.829   0.694   4.652  2.2688  2.5473  0.7159
   34DG     H21  780   2.830   0.851   4.579 -0.3869  0.4892  0.3755
   34DG     H22  781   2.884   0.585   4.445 -1.5479  1.1712  2.9544
   34DG     H23  782   2.881   0.745   4.364  1.1159 -1.6578 -0.1228
   35DG      C1  783   3.136   5.470   5.047  0.1062 -0.6291  0.5882
   35DG      C2  784   3.085   4.783   5.053  0.5405  0.3188  0.2992
   35DG      H3  785   3.236   5.461   5.004 -1.2502 -0.3665 -2.9771
   35DG      H4  786   3.149   5.516   5.145 -2.1666  1.3262  0.0656
   35DG      H5  787   3.082   5.536   4.979  2.3306  0.6653 -0.0340
   35DG      H6  788   3.035   4.697   5.010 -1.5148  1.5488  0.0846
   35DG      H7  789   3.172   4.799   4.989  1.4755 -0.8385  1.2335
   35DG      H8  790   3.113   4.771   5.158 -0.4559  2.2595  0.8448
   35DG      O9  791   3.062   5.349   5.057 -0.0261  0.4329 -0.0780
   35DG     O10  792   2.999   4.898   5.057  0.1511 -0.2866 -0.2423
   35DG     C11  793   2.950   5.359   5.143  0.5652 -0.5787 -0.0073
   35DG     C12  794   2.886   4.881   5.143 -0.5153 -0.7481 -0.1003
   35DG     H13  795   2.893   5.450   5.126  1.3179  0.6009  3.0311
   35DG     H14  796   2.985   5.375   5.245 -1.2428  0.0224  0.5599
   35DG     H15  797   2.906   4.839   5.242  0.3170  0.1765  0.1429
   35DG     H16  798   2.814   4.817   5.094 -0.5540 -1.3861  0.7547
   35DG     C17  799   2.851   5.246   5.126  0.2159 -0.9675 -0.6517
   35DG     C18  800   2.817   5.013   5.149 -0.6988 -0.0586  0.1683
   35DG     O19  801   2.914   5.120   5.156  0.2031  0.0909  0.4565
   35DG     H20  802   2.814   5.235   5.024 -0.6722 -3.1007 -0.1538
   35DG     H21  803   2.756   5.267   5.176  0.4766 -0.0832 -0.5136
   35DG     H22  804   2.760   5.013   5.056 -0.6364 -0.7636  0.1176
   35DG     H23  805   2.753   5.021   5.237 -0.7193  1.1240  0.0593
   36DG      C1  806   0.783   1.308   0.682  0.0877 -0.1123  0.2347
   36DG      C2  807   0.843   0.869   1.106 -0.1130  0.2695  0.1619
   36DG      H3  808   0.867   1.343   0.742 -0.7611  1.4477  0.5498
   36DG      H4  809   0.760   1.386   0.610 -2.3748 -0.6589  0.3429
   36DG      H5  810   0.805   1.213   0.632 -0.5289  0.0905 -0.4256
   36DG      H6  811   0.945   0.906   1.104  0.3467 -0.9756  0.1007
   36DG      H7  812   0.844   0.816   1.201 -1.1731 -2.1817 -1.0928
   36DG      H8  813   0.832   0.802   1.021 -0.4583  0.7142 -0.1481
   36DG      O9  814   0.674   1.291   0.771  0.0072 -0.0952  0.5996
   36DG     O10  815   0.747   0.973   1.084 -0.4724  0.1294 -0.4642
   36DG     C11  816   0.645   1.391   0.870  0.5472  0.2717  0.4639
   36DG     C12  817   0.732   1.062   1.194 -0.1569  0.1451  0.7037
   36DG     H13  818   0.573   1.462   0.830 -1.5790 -2.3096 -0.5470
   36DG     H14  819   0.732   1.443   0.909  0.7864  1.8251 -1.9562
   36DG     H15  820   0.821   1.118   1.225 -0.3361  0.8742 -0.0802
   36DG     H16  821   0.696   1.011   1.283  0.4835  0.4093  1.1260
   36DG     C17  822   0.574   1.315   0.988 -0.0812 -0.2264  0.2054
   36DG     C18  823   0.633   1.157   1.151  0.4158 -0.7950  0.1866
   36DG     O19  824   0.673   1.230   1.037 -0.1395 -0.0482 -0.0384
   36DG     H20  825   0.491   1.253   0.954 -0.3776  0.4109 -0.2571
   36DG     H21  826   0.552   1.388   1.066  0.2785  0.3547 -0.2243
   36DG     H22  827   0.542   1.100   1.136  1.0445 -1.5421 -0.9301
   36DG     H23  828   0.613   1.226   1.233  0.8693 -1.5403  0.9459
   37DG      C1  829   4.090   3.341   0.352  0.3651 -0.5523  0.4093
   37DG      C2  830   4.149   2.688   0.524 -0.1855  0.3728 -0.5020
   37DG      H3  831   4.053   3.443   0.348 -2.0092 -1.2672  1.9874
   37DG      H4  832   4.029   3.284   0.282  0.8073  1.3886 -1.6611
   37DG      H5  833   4.187   3.333   0.302  0.9032  1.1332  1.1003
   37DG      H6  834   4.166   2.624   0.611 -0.5695  0.7842 -0.1160
   37DG      H7  835   4.073   2.635   0.467  0.4418 -2.2153  0.9119
   37DG      H8  836   4.239   2.706   0.466 -0.8625 -1.5492 -2.2845
   37DG      O9  837   4.090   3.286   0.482 -0.2161  0.1716  0.1926
   37DG     O10  838   4.110   2.824   0.572 -0.3318 -0.2461  0.1223
   37DG     C11  839   3.959   3.282   0.527  0.9067 -0.4239  0.1269
   37DG     C12  840   4.000   2.833   0.661 -0.4122 -0.1467  0.2981
   37DG     H13  841   3.888   3.227   0.465 -1.4660 -0.1313  2.4084
   37DG     H14  842   3.920   3.381   0.551  0.4632 -1.3025  3.6996
   37DG     H15  843   4.011   2.756   0.737 -0.4724  0.2648  0.7316
   37DG     H16  844   3.911   2.805   0.605  1.8259 -2.2397 -2.5025
   37DG     C17  845   3.953   3.188   0.646  0.0323 -0.5827 -0.7059
   37DG     C18  846   4.000   2.969   0.723 -0.5528 -0.3619  0.0702
   37DG     O19  847   4.018   3.071   0.622  0.1169  0.2213 -0.4524
   37DG     H20  848   3.845   3.171   0.647  0.0652 -0.7800 -0.4807
   37DG     H21  849   3.971   3.226   0.747 -1.0765 -1.0476 -0.3136
   37DG     H22  850   3.912   2.996   0.781  2.0946 -1.3847  5.1516
   37DG     H23  851   4.082   2.980   0.794 -0.3791  1.4040 -0.3752
   38DG      C1  852   5.094   4.788   5.120  0.2280 -0.0041  0.1589
   38DG      C2  853   4.894   4.284   5.450 -0.3125 -0.3764  0.3056
   38DG      H3  854   5.171   4.863   5.136  0.5519  0.3219 -2.4647
   38DG      H4  855   5.020   4.823   5.047 -1.2884 -0.9387  1.1812
   38DG      H5  856   5.145   4.708   5.067  1.0390  0.3238  0.4363
   38DG      H6  857   4.958   4.236   5.376  0.9590  1.7697 -0.0847
   38DG      H7  858   4.912   4.227   5.541  1.4849 -1.0351 -0.4198
   38DG      H8  859   4.794   4.290   5.405 -0.1983 -0.2572  0.0635
   38DG      O9  860   5.046   4.730   5.238  0.0277 -0.6351 -0.6145
   38DG     O10  861   4.944   4.417   5.469  0.3370 -0.0814 -0.0766
   38DG     C11  862   4.947   4.812   5.289  0.3181 -0.4092 -0.2240
   38DG     C12  863   4.876   4.484   5.576  0.1024  0.9353 -0.2009
   38DG     H13  864   4.867   4.837   5.219 -0.4594 -0.2240  0.7131
   38DG     H14  865   4.994   4.904   5.321  1.8378 -1.0486 -0.5198
   38DG     H15  866   4.873   4.419   5.664 -0.2767 -0.2482 -1.0530
   38DG     H16  867   4.769   4.488   5.556  0.4757  1.6357 -2.4120
   38DG     C17  868   4.886   4.731   5.400 -0.0702  1.0603 -0.3502
   38DG     C18  869   4.945   4.611   5.600  0.3845 -0.5162 -0.1647
   38DG     O19  870   4.990   4.684   5.485 -0.1140 -0.4062 -0.1409
   38DG     H20  871   4.833   4.645   5.357  0.9699  2.2242 -4.4236
   38DG     H21  872   4.810   4.784   5.456 -0.2875 -0.0761  0.4686
   38DG     H22  873   4.889   4.686   5.656  1.1484 -0.1475  0.1301
   38DG     H23  874   5.029   4.599   5.669  0.0156 -0.5880  0.2813
   39DG      C1  875   4.782   4.497   1.458  0.5380 -0.1421  0.3394
   39DG      C2  876   4.831   4.728   0.785 -0.0323 -0.2417  0.0134
   39DG      H3  877   4.815   4.598   1.482  0.4880  0.6861 -2.6719
   39DG      H4  878   4.838   4.429   1.522 -0.0445  0.8536  1.9741
   39DG      H5  879   4.677   4.482   1.486  0.9204 -2.9370  0.5850
   39DG      H6  880   4.843   4.720   0.676 -2.3181  1.3780 -0.4305
   39DG      H7  881   4.739   4.787   0.785 -0.2974 -0.6580  0.2104
   39DG      H8  882   4.902   4.800   0.827 -2.9489  3.2599 -0.5499
   39DG      O9  883   4.812   4.478   1.320 -0.0462 -0.4389 -0.1053
   39DG     O10  884   4.824   4.605   0.862  0.3605 -0.5097  0.7590
   39DG     C11  885   4.758   4.354   1.286  0.2482  1.1643  1.0525
   39DG     C12  886   4.708   4.529   0.827 -1.0894  0.0654  0.5545
   39DG     H13  887   4.653   4.343   1.314  0.5542  0.0037  1.8328
   39DG     H14  888   4.819   4.275   1.330  1.3505  1.7571  0.6201
   39DG     H15  889   4.715   4.509   0.720 -2.4250  2.0913  0.0365
   39DG     H16  890   4.618   4.590   0.837  0.7079  2.8529  0.7070
   39DG     C17  891   4.765   4.323   1.128 -0.4469 -0.4048 -0.5550
   39DG     C18  892   4.711   4.400   0.904 -0.1607  0.9179 -0.0204
   39DG     O19  893   4.693   4.418   1.041  0.0440 -0.3149  0.3303
   39DG     H20  894   4.738   4.220   1.108 -3.2457  0.0308  0.4696
   39DG     H21  895   4.872   4.336   1.110 -0.5649 -0.0530 -1.0357
   39DG     H22  896   4.643   4.328   0.859  1.7672 -0.9910 -0.0403
   39DG     H23  897   4.810   4.358   0.885  0.0452  0.9707  0.9078
   40DG      C1  898   0.875   2.254   2.792 -0.5632  0.4130 -0.2333
   40DG      C2  899   0.285   2.637   2.705 -0.4437  0.0157  0.1118
   40DG      H3  900   0.931   2.252   2.886 -2.2133  1.2343  0.7965
   40DG      H4  901   0.923   2.326   2.725  2.0427 -0.9788 -0.0137
   40DG      H5  902   0.884   2.159   2.738  2.6706  0.2351  0.3655
   40DG      H6  903   0.354   2.692   2.641  1.5734 -2.3743  0.0552
   40DG      H7  904   0.227   2.581   2.631 -0.4979 -0.5621  0.5787
   40DG      H8  905   0.226   2.713   2.755  0.8845  1.1470  0.0080
   40DG      O9  906   0.745   2.288   2.832  0.1097  0.2867 -0.3305
   40DG     O10  907   0.351   2.549   2.795  0.0347  0.2152 -0.5650
   40DG     C11  908   0.673   2.179   2.882  0.6973  0.1751  0.6396
   40DG     C12  909   0.269   2.446   2.840  1.0086  0.7618 -0.4456
   40DG     H13  910   0.729   2.110   2.946 -0.5346 -1.8358 -0.3442
   40DG     H14  911   0.646   2.110   2.802 -0.1058 -0.1583  1.1919
   40DG     H15  912   0.229   2.389   2.756  1.8679 -1.1878  0.4066
   40DG     H16  913   0.177   2.469   2.894  0.0133 -1.4705 -1.0734
   40DG     C17  914   0.544   2.214   2.956  0.1982 -0.0875 -0.3555
   40DG     C18  915   0.352   2.363   2.941 -0.1007  0.1373  0.6602
   40DG     O19  916   0.473   2.314   2.880 -0.2859 -0.0091 -0.0389
   40DG     H20  917   0.575   2.274   3.041  0.1880  0.7998 -0.9588
   40DG     H21  918   0.490   2.128   2.995  1.7372 -1.1677 -0.5581
   40DG     H22  919   0.378   2.427   3.026  1.2177 -0.3919  0.6862
   40DG     H23  920   0.285   2.286   2.978 -1.1621  0.2261 -0.9642
   41DG      C1  921   0.137   2.668   1.818 -0.4581  0.1997  0.5283
   41DG      C2  922  -0.142   2.666   2.348 -0.1630 -0.4243 -0.0468
   41DG      H3  923   0.192   2.733   1.750 -2.2025  2.4088  1.1178
   41DG      H4  924   0.079   2.592   1.765  1.0962 -1.3292  0.9350
   41DG      H5  925   0.211   2.617   1.880 -0.6182  1.9140  2.2172
   41DG      H6  926  -0.209   2.581   2.365 -1.1126  0.5447  1.2797
   41DG      H7  927  -0.039   2.637   2.370  0.9157  2.6676 -0.6535
   41DG      H8  928  -0.162   2.751   2.413 -1.5497 -0.4343 -0.4324
   41DG      O9  929   0.054   2.751   1.894 -0.1046 -0.1027 -0.1992
   41DG     O10  930  -0.157   2.706   2.217  0.0678  0.0516  0.8145
   41DG     C11  931  -0.057   2.800   1.823  0.2820  1.1325  0.1250
   41DG     C12  932  -0.287   2.753   2.185 -0.2230  0.3739 -0.1618
   41DG     H13  933  -0.132   2.731   1.785  0.0797  2.6251 -2.4232
   41DG     H14  934  -0.025   2.850   1.732 -0.6640  1.8419  0.1670
   41DG     H15  935  -0.321   2.832   2.251  2.3774  0.8584  0.6929
   41DG     H16  936  -0.361   2.674   2.201 -0.1336  0.1025 -1.0162
   41DG     C17  937  -0.121   2.912   1.893  0.6833  0.6086  0.0752
   41DG     C18  938  -0.277   2.799   2.041 -0.0919  0.5551  0.8064
   41DG     O19  939  -0.144   2.870   2.031 -0.6130 -0.0300  0.2840
   41DG     H20  940  -0.209   2.940   1.835  0.8624 -1.2309 -1.1727
   41DG     H21  941  -0.046   2.989   1.905  0.6202  0.6971 -0.1002
   41DG     H22  942  -0.282   2.718   1.968  0.6663 -0.4967  1.8864
   41DG     H23  943  -0.359   2.867   2.014 -2.8717 -2.7296  0.3543
   42DG      C1  944   3.599   3.764   5.448 -0.4062 -0.3167 -1.0369
   42DG      C2  945   3.404   3.191   5.504  0.4145 -0.7546  0.1184
   42DG      H3  946   3.661   3.836   5.394  0.1695 -0.3065 -0.3739
   42DG      H4  947   3.668   3.700   5.502  1.6766  3.5929  1.3663
   42DG      H5  948   3.555   3.824   5.528 -2.8983 -0.3857 -2.2310
   42DG      H6  949   3.346   3.098   5.508  0.7655 -1.0017 -0.4483
   42DG      H7  950   3.508   3.168   5.484  0.6647 -2.4144  2.7569
   42DG      H8  951   3.403   3.237   5.603 -0.7891  1.5667 -0.8959
   42DG      O9  952   3.508   3.679   5.378  0.8181  0.2846 -0.4237
   42DG     O10  953   3.355   3.278   5.399 -0.0194 -0.1104 -0.2065
   42DG     C11  954   3.397   3.751   5.330 -0.0131 -0.3084  0.9933
   42DG     C12  955   3.233   3.335   5.436  0.2517 -0.4071 -0.4226
   42DG     H13  956   3.423   3.801   5.236  1.2719  0.8339  1.9164
   42DG     H14  957   3.366   3.827   5.402  0.0211  0.9091 -0.2200
   42DG     H15  958   3.237   3.397   5.525 -1.1177 -2.4408  1.1504
   42DG     H16  959   3.152   3.264   5.450 -0.1665  0.2779  0.7862
   42DG     C17  960   3.291   3.660   5.276  0.3442  0.3926 -0.0372
   42DG     C18  961   3.203   3.446   5.334  1.0923  0.5424  0.0887
   42DG     O19  962   3.282   3.555   5.371  0.4605  0.2505 -0.1618
   42DG     H20  963   3.308   3.623   5.175  1.6892  0.3479  0.1918
   42DG     H21  964   3.198   3.715   5.257 -0.8535 -2.4346 -3.5402
   42DG     H22  965   3.223   3.405   5.235  2.1065 -1.0487  0.9115
   42DG     H23  966   3.099   3.475   5.320  0.5908 -1.0135  0.3537
   43DG      C1  967   2.506   3.317   1.626 -0.0006 -0.2123 -0.5680
   43DG      C2  968   2.872   4.010   1.743 -0.0330  0.3967 -0.1693
   43DG      H3  969   2.406   3.316   1.584 -0.4046  0.8270  0.3357
   43DG      H4  970   2.516   3.228   1.687 -0.9923 -0.1372 -0.2800
   43DG      H5  971   2.574   3.308   1.540  0.2437 -0.9312 -0.3074
   43DG      H6  972   2.970   4.032   1.700  0.5463 -0.9187  0.4251
   43DG      H7  973   2.810   4.094   1.775 -1.5971 -1.6489  2.6002
   43DG      H8  974   2.895   3.950   1.831 -3.3247  0.4376  0.8688
   43DG      O9  975   2.539   3.440   1.697  0.7867 -0.2089 -0.3936
   43DG     O10  976   2.796   3.922   1.658  0.3256  0.0336 -0.2589
   43DG     C11  977   2.660   3.428   1.775 -0.7921 -0.8271  0.0339
   43DG     C12  978   2.865   3.808   1.619  0.2383 -0.2345  0.5130
   43DG     H13  979   2.743   3.395   1.713 -2.3200 -2.1020 -1.4077
   43DG     H14  980   2.659   3.341   1.841  0.0449 -1.0601 -0.2539
   43DG     H15  981   2.970   3.826   1.595  0.4733  1.4648  2.5428
   43DG     H16  982   2.820   3.776   1.525  1.8263 -2.0568  0.3098
   43DG     C17  983   2.681   3.562   1.850  0.1686 -0.3442  0.3828
   43DG     C18  984   2.848   3.693   1.726 -0.4219  0.5242 -0.1120
   43DG     O19  985   2.708   3.665   1.756 -0.3964  0.3043  0.6924
   43DG     H20  986   2.755   3.555   1.931  0.0569  0.2417  0.5354
   43DG     H21  987   2.590   3.596   1.899  0.1748  4.1678 -2.2577
   43DG     H22  988   2.910   3.605   1.709 -0.5981  0.0576  1.5196
   43DG     H23  989   2.896   3.718   1.821  1.5376  1.9760 -1.4043
   44DG      C1  990   2.354   3.789   0.319  0.7296  0.0369 -0.4278
   44DG      C2  991   2.254   4.427   0.081 -0.1685  0.6288 -0.0816
   44DG      H3  992   2.308   3.734   0.402 -0.4144 -0.9080 -1.6440
   44DG      H4  993   2.450   3.829   0.352 -0.1449  1.7909  0.1189
   44DG      H5  994   2.361   3.720   0.235  2.2135 -0.0799 -0.2477
   44DG      H6  995   2.242   4.409  -0.026  0.0999 -1.2400  0.1693
   44DG      H7  996   2.219   4.519   0.126  0.6858  0.7371  0.3819
   44DG      H8  997   2.361   4.424   0.104 -0.7416 -0.3081  2.9941
   44DG      O9  998   2.263   3.901   0.297  0.5213 -0.0116  0.4569
   44DG     O10  999   2.184   4.314   0.142 -0.4475  0.2619 -0.1665
   44DG     C11 1000   2.130   3.867   0.260 -0.1807 -0.2004 -1.2718
   44DG     C12 1001   2.046   4.325   0.140 -0.4854 -0.2822  0.4757
   44DG     H13 1002   2.096   3.788   0.328  2.0799 -0.5176 -0.4388
   44DG     H14 1003   2.133   3.820   0.162  0.3443 -1.4563 -0.6789
   44DG     H15 1004   2.012   4.306   0.038  1.7597 -1.6249 -0.0745
   44DG     H16 1005   2.014   4.423   0.176 -0.5242 -0.0207 -0.2448
   44DG     C17 1006   2.029   3.979   0.265  0.0922 -0.1576 -0.5645
   44DG     C18 1007   1.989   4.206   0.222  0.5072 -0.9192 -0.6270
   44DG     O19 1008   2.079   4.104   0.214  0.2526 -0.2517  0.1153
   44DG     H20 1009   1.977   3.995   0.359  2.7465  0.6140  0.8945
   44DG     H21 1010   1.958   3.955   0.187 -0.7018  1.1946 -0.2929
   44DG     H22 1011   1.966   4.224   0.327 -0.4642 -1.3156 -0.7628
   44DG     H23 1012   1.893   4.184   0.175  0.7722 -1.3175 -0.9859
   45DG      C1 1013   5.183   3.107   1.120  0.0187  0.5032  0.5453
   45DG      C2 1014   5.114   3.411   0.436  0.0653  0.6344  0.4206
   45DG      H3 1015   5.185   3.140   1.223 -1.3978 -2.1522  1.5467
   45DG      H4 1016   5.223   3.005   1.115  1.1892  0.9866 -0.4229
   45DG      H5 1017   5.080   3.101   1.084 -0.2422  3.8405  0.4952
   45DG      H6 1018   5.006   3.408   0.420 -0.2819  0.5498  2.5376
   45DG      H7 1019   5.148   3.501   0.383 -0.9748  0.7539 -0.0689
   45DG      H8 1020   5.162   3.327   0.386 -0.7740 -1.3083  2.7397
   45DG      O9 1021   5.278   3.188   1.048 -0.3363 -0.3817 -0.1023
   45DG     O10 1022   5.147   3.424   0.575 -0.4170  0.2317  0.0013
   45DG     C11 1023   5.261   3.334   1.060  0.5487  0.2263 -0.0272
   45DG     C12 1024   5.287   3.429   0.584 -0.0328 -0.1992 -0.3381
   45DG     H13 1025   5.309   3.369   1.151  1.7514  1.9888 -1.2588
   45DG     H14 1026   5.153   3.344   1.065  0.6545  0.7767  2.0500
   45DG     H15 1027   5.356   3.469   0.510  2.3084 -2.4343  0.4484
   45DG     H16 1028   5.323   3.327   0.599  1.8364  0.6396  1.3687
   45DG     C17 1029   5.323   3.420   0.954  0.4862  0.5711 -0.7420
   45DG     C18 1030   5.331   3.482   0.723 -0.0004  0.1065  0.1322
   45DG     O19 1031   5.269   3.400   0.825  0.1018 -0.4868 -0.4788
   45DG     H20 1032   5.424   3.383   0.939 -0.5910 -2.4864 -1.2579
   45DG     H21 1033   5.318   3.525   0.983 -0.7514  1.0729 -2.6023
   45DG     H22 1034   5.438   3.478   0.739 -0.3210 -0.5164  2.5076
   45DG     H23 1035   5.305   3.586   0.744  0.0484  0.4572 -1.4508
   46DG      C1 1036   0.724   2.416   3.920 -0.4893  0.2073 -0.3863
   46DG      C2 1037   1.200   1.926   4.076  0.6298 -0.1992  0.6171
   46DG      H3 1038   0.779   2.498   3.966  1.2539 -0.5745 -0.9946
   46DG      H4 1039   0.657   2.386   4.001  0.4101 -0.3237  0.1738
   46DG      H5 1040   0.662   2.465   3.845  1.2476  0.6212 -1.5999
   46DG      H6 1041   1.280   1.981   4.127  1.0821 -1.0914  0.8847
   46DG      H7 1042   1.128   1.886   4.146  1.0427 -1.0498  0.5626
   46DG      H8 1043   1.246   1.836   4.036  2.7289  1.5390 -1.2282
   46DG      O9 1044   0.793   2.306   3.862 -0.0213  0.0914 -0.4341
   46DG     O10 1045   1.144   1.986   3.965 -0.7601  0.0725  0.4236
   46DG     C11 1046   0.889   2.340   3.757  0.2078  0.0988 -0.8975
   46DG     C12 1047   1.233   2.012   3.862 -0.4051 -0.3383  1.1745
   46DG     H13 1048   0.955   2.421   3.788  1.6369 -1.0494 -0.8181
   46DG     H14 1049   0.835   2.374   3.669 -2.7688 -1.2712  0.2501
   46DG     H15 1050   1.277   1.920   3.826 -0.3681 -0.2764  1.0614
   46DG     H16 1051   1.309   2.083   3.897  0.1948  0.4938 -1.5580
   46DG     C17 1052   0.970   2.223   3.702  0.5122  0.4277 -0.2468
   46DG     C18 1053   1.149   2.075   3.752  0.1505  0.0784  0.1502
   46DG     O19 1054   1.056   2.163   3.804 -0.2295 -0.5345 -0.0493
   46DG     H20 1055   1.035   2.255   3.620  0.5932  0.7744 -0.0457
   46DG     H21 1056   0.899   2.152   3.659 -0.5181  1.0454  0.4183
   46DG     H22 1057   1.223   2.130   3.692  2.7754 -1.3213  1.9036
   46DG     H23 1058   1.106   2.001   3.685 -0.1694  0.1335  0.2938
   47DG      C1 1059   1.111   3.923   5.471  0.0989  0.0982 -0.3447
   47DG      C2 1060   0.990   4.314   5.005  0.0459 -0.1935  0.1703
   47DG      H3 1061   1.164   3.897   5.563 -0.7924 -0.0208  0.1483
   47DG      H4 1062   1.175   3.885   5.392 -1.6888 -0.3154 -1.6594
   47DG      H5 1063   1.018   3.866   5.464 -0.0343  0.0616  1.3115
   47DG      H6 1064   0.957   4.384   4.928 -0.9091 -2.7168 -1.8423
   47DG      H7 1065   1.093   4.331   5.035  0.6518 -2.1474 -0.7279
   47DG      H8 1066   0.983   4.213   4.967  0.7063 -0.5954  1.0785
   47DG      O9 1067   1.084   4.065   5.458  0.6537 -0.0418  0.4268
   47DG     O10 1068   0.903   4.327   5.122 -0.5116 -0.3971  0.4779
   47DG     C11 1069   1.193   4.149   5.430 -0.2258  0.1493 -0.6655
   47DG     C12 1070   0.908   4.444   5.204 -0.3455 -0.0914 -0.0092
   47DG     H13 1071   1.237   4.121   5.335  0.5582  1.7073 -0.8066
   47DG     H14 1072   1.261   4.127   5.513  0.4153 -0.0379 -1.2330
   47DG     H15 1073   0.832   4.452   5.281  1.1150  0.1386  1.4758
   47DG     H16 1074   0.900   4.531   5.138  0.4617 -0.1729 -0.2268
   47DG     C17 1075   1.159   4.297   5.420 -0.2048  0.7537  0.1220
   47DG     C18 1076   1.043   4.444   5.289  0.2395 -0.1791  1.2891
   47DG     O19 1077   1.044   4.313   5.339  0.5941 -0.5909 -0.1812
   47DG     H20 1078   1.245   4.356   5.390  0.4077  1.3649  2.8277
   47DG     H21 1079   1.127   4.336   5.516 -3.4470 -0.5419 -0.3011
   47DG     H22 1080   1.128   4.465   5.224  0.4024  1.0648  1.8727
   47DG     H23 1081   1.041   4.516   5.370  0.2416  2.4158 -0.8623
   48DG      C1 1082   1.531   4.743   5.433 -0.1342 -0.1156  0.8052
   48DG      C2 1083   1.348   5.045   4.952 -0.2042 -0.0125 -0.4903
   48DG      H3 1084   1.608   4.694   5.493  0.5273  1.0188  0.9208
   48DG      H4 1085   1.453   4.669   5.418  0.1844 -0.3914  0.4579
   48DG      H5 1086   1.487   4.829   5.483 -1.7423 -0.3216 -0.2033
   48DG      H6 1087   1.363   5.152   4.969  1.7321 -0.4473  0.7764
   48DG      H7 1088   1.321   5.033   4.847 -1.3693 -1.2874 -0.0737
   48DG      H8 1089   1.258   5.016   5.006  0.6785 -0.2866  0.8943
   48DG      O9 1090   1.576   4.782   5.303 -0.4089  0.1420  0.2792
   48DG     O10 1091   1.458   4.956   4.978 -0.0147  0.8295 -0.0115
   48DG     C11 1092   1.682   4.699   5.249  0.5218  0.2263 -0.2711
   48DG     C12 1093   1.568   4.979   4.894 -0.3045  0.2319  0.3344
   48DG     H13 1094   1.627   4.608   5.223 -0.4696  0.3545  1.2632
   48DG     H14 1095   1.757   4.681   5.326 -0.7840  0.6247  1.1347
   48DG     H15 1096   1.569   5.085   4.869 -4.2719  0.5228  0.6959
   48DG     H16 1097   1.538   4.927   4.802 -0.8827  1.9357 -0.4798
   48DG     C17 1098   1.750   4.766   5.129 -0.8325  0.7271 -0.6877
   48DG     C18 1099   1.694   4.918   4.961  0.1049 -0.5593  0.3743
   48DG     O19 1100   1.653   4.805   5.037  0.0775  0.3145  0.1958
   48DG     H20 1101   1.821   4.697   5.085 -0.6790  1.5346 -1.7643
   48DG     H21 1102   1.805   4.855   5.160  0.2733 -0.3505  0.5414
   48DG     H22 1103   1.768   4.904   4.883  0.6572  1.6194  0.4231
   48DG     H23 1104   1.743   4.992   5.025 -0.0550  0.1419 -0.2976
   49DG      C1 1105   3.530   0.997   4.062 -0.3131  0.0408 -0.2644
   49DG      C2 1106   4.131   1.391   3.964  0.2128 -0.1087 -0.0235
   49DG      H3 1107   3.592   0.916   4.023 -0.5976  0.5858 -1.9436
   49DG      H4 1108   3.457   1.011   3.982 -1.3538  0.4456  0.7267
   49DG      H5 1109   3.474   0.959   4.147 -0.6278 -3.4895 -1.8928
   49DG      H6 1110   4.210   1.320   3.987  1.8212  2.0922  1.7429
   49DG      H7 1111   4.135   1.402   3.856  4.0269 -1.6021 -0.1936
   49DG      H8 1112   4.170   1.486   4.002 -1.7001  1.1902 -1.1348
   49DG      O9 1113   3.606   1.114   4.087  0.3601  0.3687  0.0472
   49DG     O10 1114   4.003   1.371   4.022  0.1196 -0.1943  0.3513
   49DG     C11 1115   3.529   1.230   4.126 -0.8578 -0.1233 -0.1275
   49DG     C12 1116   3.920   1.482   3.978  0.1498 -0.0090 -0.2377
   49DG     H13 1117   3.475   1.211   4.219  1.0534  3.5744  1.9480
   49DG     H14 1118   3.459   1.251   4.045  0.4758 -0.8954 -1.5430
   49DG     H15 1119   3.891   1.465   3.875 -0.2965  1.0357 -0.2929
   49DG     H16 1120   3.963   1.582   3.979  2.9477 -1.1208 -0.2581
   49DG     C17 1121   3.620   1.356   4.138  0.7529 -0.0157  0.5520
   49DG     C18 1122   3.791   1.494   4.053 -0.2276 -0.7477  0.2565
   49DG     O19 1123   3.717   1.364   4.041  0.0614 -0.4970  0.1954
   49DG     H20 1124   3.665   1.360   4.237 -0.4618  1.4414  1.0638
   49DG     H21 1125   3.555   1.441   4.123 -0.3544 -0.8614  0.4234
   49DG     H22 1126   3.811   1.527   4.154 -0.2362  2.7780 -0.7852
   49DG     H23 1127   3.737   1.575   4.005 -0.2989 -0.0333  1.5225
   50DG      C1 1128   2.399   3.393   4.057  0.1988  0.0942 -0.0122
   50DG      C2 1129   2.881   2.919   4.005 -0.1679  0.1117 -0.4834
   50DG      H3 1130   2.432   3.379   3.954  0.7623 -0.1524  0.1991
   50DG      H4 1131   2.365   3.493   4.083  0.4178 -0.2084  1.5334
   50DG      H5 1132   2.310   3.330   4.053 -0.7862  1.4675 -0.3767
   50DG      H6 1133   2.804   2.843   4.021  0.8157 -0.5459  1.4865
   50DG      H7 1134   2.884   2.953   3.902 -0.6414  0.0989 -0.5024
   50DG      H8 1135   2.976   2.875   4.037  0.5853 -1.3939 -4.2136
   50DG      O9 1136   2.490   3.333   4.148 -0.5422  0.3318  0.3435
   50DG     O10 1137   2.847   3.033   4.084  0.5634 -0.0233 -0.2499
   50DG     C11 1138   2.586   3.433   4.187  0.4834 -0.3078 -0.6036
   50DG     C12 1139   2.944   3.137   4.074 -0.3158 -0.1186 -0.7028
   50DG     H13 1140   2.545   3.483   4.274  3.2666 -1.9515  1.8677
   50DG     H14 1141   2.605   3.518   4.121  0.5745  1.0583  1.1403
   50DG     H15 1142   2.959   3.173   3.972 -1.1593  0.6472 -0.5701
   50DG     H16 1143   3.046   3.109   4.099  0.2249  0.8065 -1.7559
   50DG     C17 1144   2.719   3.375   4.226 -0.0001  0.2385 -0.0034
   50DG     C18 1145   2.908   3.258   4.156  0.1810 -0.0812 -0.1467
   50DG     O19 1146   2.777   3.297   4.123  0.6884  0.3350  0.3551
   50DG     H20 1147   2.716   3.312   4.315  2.7635  0.0259  0.0407
   50DG     H21 1148   2.792   3.454   4.246  0.8489 -0.9077  1.7181
   50DG     H22 1149   2.906   3.228   4.261 -0.6125  0.9665  0.1499
   50DG     H23 1150   2.969   3.345   4.132  1.1116 -0.8961 -0.8039
   51DG      C1 1151   2.594   2.392   3.913 -0.1552  0.0337 -0.5316
   51DG      C2 1152   2.584   2.195   4.600 -0.4566  0.4198 -0.4495
   51DG      H3 1153   2.569   2.338   3.822  1.3613 -1.7693  0.0641
   51DG      H4 1154   2.702   2.403   3.925  0.0491 -1.0970 -1.2276
   51DG      H5 1155   2.564   2.495   3.893  2.6715  0.9151 -0.7228
   51DG      H6 1156   2.602   2.299   4.628 -1.5365  0.3884  0.4276
   51DG      H7 1157   2.530   2.145   4.681 -0.8491  0.1585 -0.8706
   51DG      H8 1158   2.678   2.140   4.594  1.3614  3.1412  0.8017
   51DG      O9 1159   2.533   2.337   4.028  0.2368 -0.1771 -0.0409
   51DG     O10 1160   2.505   2.179   4.477 -0.4765 -0.0152 -1.1838
   51DG     C11 1161   2.395   2.359   4.018  0.1851  0.2563 -0.7585
   51DG     C12 1162   2.374   2.226   4.488 -0.2886 -0.1605  0.1654
   51DG     H13 1163   2.356   2.315   3.926 -4.5018  2.1204  0.0504
   51DG     H14 1164   2.366   2.464   4.024 -0.4757 -0.0175  1.8358
   51DG     H15 1165   2.366   2.332   4.515  1.3010  0.0976 -0.2768
   51DG     H16 1166   2.314   2.179   4.566 -1.2495  1.3974  0.4184
   51DG     C17 1167   2.323   2.269   4.124  0.8624  0.4719  0.0682
   51DG     C18 1168   2.306   2.219   4.354  0.2186 -0.0271 -0.3499
   51DG     O19 1169   2.391   2.266   4.249 -0.0677  0.3387  0.2279
   51DG     H20 1170   2.341   2.167   4.091  0.1107 -0.2806  1.8624
   51DG     H21 1171   2.214   2.280   4.127  0.7088  0.2129 -2.3748
   51DG     H22 1172   2.274   2.117   4.329  1.6939 -0.2202 -1.5668
   51DG     H23 1173   2.208   2.268   4.351  0.9104  1.3478 -1.5863
   52DG      C1 1174   5.178   1.705   0.921 -0.1932  0.4460  0.5563
   52DG      C2 1175   5.401   2.081   1.370 -0.1722  0.4835  0.0546
   52DG      H3 1176   5.118   1.698   1.012 -1.6865  2.5931 -0.1851
   52DG      H4 1177   5.268   1.648   0.946 -1.3689 -2.6323 -1.6633
   52DG      H5 1178   5.117   1.663   0.841  1.4540 -1.0310  0.0174
   52DG      H6 1179   5.392   2.150   1.454  0.6866 -1.5711  1.9357
   52DG      H7 1180   5.384   1.984   1.417 -0.7089 -0.7051 -2.4259
   52DG      H8 1181   5.504   2.081   1.333 -0.2774  1.5989 -0.2751
   52DG      O9 1182   5.217   1.839   0.925  0.3109  0.6410 -0.1816
   52DG     O10 1183   5.305   2.094   1.267  0.6680 -0.2945 -0.1135
   52DG     C11 1184   5.124   1.931   0.868 -0.3124  0.3469 -0.5977
   52DG     C12 1185   5.301   2.223   1.206 -0.2661 -0.1464  0.3143
   52DG     H13 1186   5.026   1.908   0.910 -0.6595  0.0610 -1.5446
   52DG     H14 1187   5.101   1.905   0.765  2.2621  0.1173 -1.1649
   52DG     H15 1188   5.402   2.260   1.220  0.8474 -2.8591  0.0078
   52DG     H16 1189   5.243   2.295   1.264  0.5245  0.2175  0.6631
   52DG     C17 1190   5.163   2.076   0.891  0.0715  0.4231 -0.2138
   52DG     C18 1191   5.250   2.220   1.060 -0.1518 -0.3580  0.1539
   52DG     O19 1192   5.185   2.094   1.032 -0.3562 -0.3435  0.2281
   52DG     H20 1193   5.076   2.134   0.860 -1.5739 -1.0331  1.4047
   52DG     H21 1194   5.248   2.104   0.829  1.1277 -1.4697  0.2876
   52DG     H22 1195   5.195   2.313   1.044  1.8738  1.1798  1.4896
   52DG     H23 1196   5.339   2.233   0.999 -0.5220  3.8025  0.2133
   53DG      C1 1197   3.423   1.774   4.160 -0.4499 -0.3527 -0.2495
   53DG      C2 1198   3.296   2.287   3.806  0.5439  0.9914  0.4699
   53DG      H3 1199   3.373   1.724   4.243 -1.0056 -0.4073 -0.6065
   53DG      H4 1200   3.526   1.743   4.176 -0.2536  0.2784 -0.2766
   53DG      H5 1201   3.397   1.729   4.064 -0.9702 -0.3885 -0.0985
   53DG      H6 1202   3.189   2.280   3.825  0.4760  2.1287  0.5605
   53DG      H7 1203   3.305   2.389   3.767 -2.0197  0.2786 -2.3055
   53DG      H8 1204   3.317   2.222   3.721  1.5337  0.1222  1.3493
   53DG      O9 1205   3.395   1.917   4.162  0.1416  0.2737  0.1210
   53DG     O10 1206   3.374   2.257   3.913  0.1078  0.2876  0.3846
   53DG     C11 1207   3.366   1.977   4.289  0.9233  0.2253  0.2834
   53DG     C12 1208   3.361   2.342   4.024  0.6964 -0.8322  0.3753
   53DG     H13 1209   3.398   1.910   4.368  1.3232  0.3558  0.2315
   53DG     H14 1210   3.257   1.986   4.285  0.8170  0.7089  2.8929
   53DG     H15 1211   3.257   2.351   4.053  0.5931  1.1426 -0.4337
   53DG     H16 1212   3.387   2.441   3.986  1.2943 -1.1208  0.0200
   53DG     C17 1213   3.414   2.117   4.299  0.0045  0.0506 -0.0852
   53DG     C18 1214   3.440   2.304   4.145  0.0290 -0.3594  0.0315
   53DG     O19 1215   3.382   2.174   4.171 -0.4898 -0.3072 -0.2473
   53DG     H20 1216   3.522   2.121   4.316 -0.0876  2.6438  0.2319
   53DG     H21 1217   3.359   2.172   4.376  1.3347  0.2714  0.7420
   53DG     H22 1218   3.547   2.298   4.125 -0.3523 -0.3101 -2.4458
   53DG     H23 1219   3.418   2.368   4.230 -0.4971 -0.2706 -0.1684
   54DG      C1 1220   5.054   1.352   3.201  0.0135  0.3648 -0.2418
   54DG      C2 1221   5.124   0.958   2.922  0.1698  0.6070 -0.0024
   54DG      H3 1222   5.137   1.422   3.200  0.7037 -0.4334  0.1210
   54DG      H4 1223   5.091   1.265   3.147  1.5038  1.9075 -1.8474
   54DG      H5 1224   5.044   1.321   3.305  1.0419  0.1059 -0.2145
   54DG      H6 1225   5.165   0.932   3.019  1.7976 -0.3832 -0.9120
   54DG      H7 1226   5.030   0.910   2.895 -0.3563  1.0047  1.0523
   54DG      H8 1227   5.198   0.934   2.846  0.3995  0.0428  0.3927
   54DG      O9 1228   4.931   1.409   3.178  0.1852 -0.9250  0.4571
   54DG     O10 1229   5.118   1.099   2.929 -0.2193  0.2368  0.0503
   54DG     C11 1230   4.933   1.494   3.065 -0.1890  0.1125  0.4734
   54DG     C12 1231   5.100   1.157   2.804  0.3856 -0.0782 -0.0121
   54DG     H13 1232   5.005   1.575   3.078 -1.1701  1.0559  0.2048
   54DG     H14 1233   4.837   1.544   3.055  0.3287  1.3151  1.2805
   54DG     H15 1234   4.995   1.142   2.782  0.0231 -0.0293  1.5719
   54DG     H16 1235   5.145   1.101   2.721 -0.4240 -1.3905  0.4101
   54DG     C17 1236   4.957   1.415   2.933  0.1828  0.2759 -0.3326
   54DG     C18 1237   5.133   1.315   2.807 -0.1579  1.0294  0.5186
   54DG     O19 1238   5.098   1.384   2.921  0.2959 -0.5027  0.1086
   54DG     H20 1239   4.917   1.474   2.850  0.3978  0.5225 -0.2648
   54DG     H21 1240   4.894   1.327   2.938  1.9895 -1.0248  1.9206
   54DG     H22 1241   5.242   1.317   2.806 -0.1069 -0.5188 -0.1151
   54DG     H23 1242   5.085   1.365   2.724 -1.1577 -0.2152  0.3161
   55DG      C1 1243   2.663   3.582   1.394 -1.0474  0.4746  0.0371
   55DG      C2 1244   2.492   4.045   1.806 -0.2008  0.0981  0.1995
   55DG      H3 1245   2.684   3.525   1.484 -0.4992 -3.4115 -2.3216
   55DG      H4 1246   2.766   3.613   1.379 -0.3590 -2.0905 -1.1122
   55DG      H5 1247   2.629   3.525   1.307  0.7849 -0.3132 -0.2118
   55DG      H6 1248   2.385   4.053   1.825 -0.1931  3.1311 -0.5528
   55DG      H7 1249   2.525   3.977   1.884  1.0302 -0.4170 -0.7350
   55DG      H8 1250   2.523   4.148   1.821 -0.9686  0.2516  0.8172
   55DG      O9 1251   2.562   3.671   1.425 -0.8130 -0.1630 -0.2791
   55DG     O10 1252   2.497   3.995   1.670  0.3070  0.2003 -0.5392
   55DG     C11 1253   2.545   3.761   1.321  0.0031 -0.5186 -0.4587
   55DG     C12 1254   2.460   4.097   1.579  0.3219 -0.1076  0.5378
   55DG     H13 1255   2.545   3.704   1.228 -0.6306 -1.1948 -0.0567
   55DG     H14 1256   2.627   3.832   1.313  0.9251 -1.6820 -1.8067
   55DG     H15 1257   2.534   4.176   1.593  2.5108 -2.0928  0.8231
   55DG     H16 1258   2.358   4.125   1.605  0.0951  0.3076 -0.7333
   55DG     C17 1259   2.403   3.824   1.330  0.4027  0.0465 -0.7873
   55DG     C18 1260   2.452   4.038   1.442 -0.4083  0.1512  0.1505
   55DG     O19 1261   2.385   3.910   1.441 -0.4364  0.0012 -0.3325
   55DG     H20 1262   2.327   3.749   1.351  0.7630 -0.2090 -0.3834
   55DG     H21 1263   2.378   3.880   1.240  0.0574 -0.5193 -1.0457
   55DG     H22 1264   2.408   4.111   1.373  0.6193  0.4051 -0.2635
   55DG     H23 1265   2.554   4.014   1.414  0.1655 -1.1259  3.0528
   56DG      C1 1266   3.371   4.920   0.554  0.0557 -0.0362  0.3150
   56DG      C2 1267   3.707   5.430   0.360 -0.4763 -0.3458 -0.1338
   56DG      H3 1268   3.408   4.975   0.640  0.0654  1.6882 -0.7543
   56DG      H4 1269   3.365   4.811   0.563  3.4403 -0.4289 -0.6631
   56DG      H5 1270   3.270   4.958   0.542 -0.3369 -1.2067 -0.2857
   56DG      H6 1271   3.760   5.501   0.297 -1.0070 -0.7108 -1.0047
   56DG      H7 1272   3.620   5.480   0.402  0.3286 -0.7639  2.2267
   56DG      H8 1273   3.776   5.421   0.444 -0.3373  1.5801  0.0001
   56DG      O9 1274   3.445   4.957   0.436  0.4021 -0.1757  0.0624
   56DG     O10 1275   3.681   5.303   0.300 -0.1258  0.1452 -0.2260
   56DG     C11 1276   3.384   4.924   0.311  0.6466 -0.4998 -0.1243
   56DG     C12 1277   3.626   5.315   0.169  0.8834  0.4311 -0.2338
   56DG     H13 1278   3.278   4.947   0.312  0.6942  0.1325 -3.0309
   56DG     H14 1279   3.383   4.816   0.295  2.4453 -0.7511  1.0863
   56DG     H15 1280   3.700   5.358   0.102  0.1846  0.9365 -0.6963
   56DG     H16 1281   3.540   5.382   0.171  0.1904 -0.4431 -0.2275
   56DG     C17 1282   3.471   4.982   0.196 -0.3153 -0.4544 -0.0957
   56DG     C18 1283   3.577   5.183   0.113  0.3965  0.4302  0.1619
   56DG     O19 1284   3.490   5.119   0.216 -0.6365  0.2525  0.2981
   56DG     H20 1285   3.428   4.972   0.096  2.5694  0.0081 -1.4742
   56DG     H21 1286   3.566   4.930   0.197 -0.2735 -0.4046 -0.9864
   56DG     H22 1287   3.520   5.196   0.021  0.0336 -1.3512  0.0884
   56DG     H23 1288   3.661   5.124   0.078 -0.1500 -0.5875  0.4906
   57DG      C1 1289   2.170   5.324   0.937 -0.0880 -0.5192  0.6778
   57DG      C2 1290   2.434   5.425   0.343  0.3780  0.2602 -0.3103
   57DG      H3 1291   2.127   5.243   0.877 -1.2692 -1.2811  2.4634
   57DG      H4 1292   2.113   5.415   0.922 -0.1602 -1.0475 -3.8941
   57DG      H5 1293   2.176   5.296   1.042  0.0059  0.5392  0.9612
   57DG      H6 1294   2.455   5.340   0.277  0.3456  0.1484 -0.1782
   57DG      H7 1295   2.330   5.450   0.324 -0.1079 -0.3519  1.3621
   57DG      H8 1296   2.491   5.514   0.316 -0.5903  1.5893  1.7334
   57DG      O9 1297   2.305   5.355   0.893 -0.0492 -0.4933  0.1154
   57DG     O10 1298   2.453   5.401   0.473 -0.2269  0.8688 -0.5566
   57DG     C11 1299   2.415   5.275   0.940  0.6873  0.7127  0.1074
   57DG     C12 1300   2.574   5.332   0.500 -0.8048 -0.0359 -0.0630
   57DG     H13 1301   2.383   5.174   0.914 -1.5486  1.2732  0.5374
   57DG     H14 1302   2.417   5.284   1.049 -2.8704  1.8606  0.1987
   57DG     H15 1303   2.647   5.381   0.436 -1.6942 -1.5129 -2.3754
   57DG     H16 1304   2.565   5.225   0.479  0.1995 -0.3344  0.9631
   57DG     C17 1305   2.551   5.305   0.871  0.2354  0.7562  0.1812
   57DG     C18 1306   2.624   5.340   0.647  0.0249  0.0758 -0.3383
   57DG     O19 1307   2.518   5.303   0.735 -0.2765 -0.1855  0.7327
   57DG     H20 1308   2.620   5.224   0.892 -1.2564 -1.1172 -1.6723
   57DG     H21 1309   2.595   5.400   0.900 -0.4924  0.5786  1.9802
   57DG     H22 1310   2.697   5.260   0.650  1.4407  1.1568 -2.6422
   57DG     H23 1311   2.661   5.437   0.681 -0.6630 -0.2566  1.4726
   58DG      C1 1312   2.288   3.255   0.046  0.0710 -0.0092 -0.3862
   58DG      C2 1313   2.622   2.660   0.166 -0.5148 -0.3456  0.8845
   58DG      H3 1314   2.325   3.324   0.122 -2.0218  2.8614 -1.7796
   58DG      H4 1315   2.221   3.184   0.093 -1.1466  0.8454 -0.7913
   58DG      H5 1316   2.229   3.317  -0.021 -0.9395  0.7321  1.1189
   58DG      H6 1317   2.529   2.617   0.201 -1.3582  0.1599 -0.6583
   58DG      H7 1318   2.688   2.582   0.128 -1.8468 -2.3229  2.4414
   58DG      H8 1319   2.660   2.730   0.241  1.2675  1.6118 -1.6654
   58DG      O9 1320   2.390   3.192  -0.028 -0.2996 -0.3590 -0.0666
   58DG     O10 1321   2.583   2.735   0.047  0.8229  0.6562 -0.0340
   58DG     C11 1322   2.515   3.182   0.039  0.0145  0.9386 -0.0513
   58DG     C12 1323   2.691   2.794  -0.025  0.1453  0.0997  0.1769
   58DG     H13 1324   2.488   3.134   0.133  0.8595  0.3829 -0.0827
   58DG     H14 1325   2.545   3.286   0.052  0.1916  1.4780 -3.8414
   58DG     H15 1326   2.757   2.716  -0.065  1.8528  1.3774  0.4248
   58DG     H16 1327   2.752   2.848   0.047  0.0843  0.0504  0.2658
   58DG     C17 1328   2.613   3.096  -0.040  0.2313  0.5327  0.0818
   58DG     C18 1329   2.633   2.876  -0.136 -0.4231  0.6215 -0.1332
   58DG     O19 1330   2.551   2.968  -0.077  0.3943 -0.7321 -0.5738
   58DG     H20 1331   2.705   3.072   0.014  0.3135  0.3588 -0.1324
   58DG     H21 1332   2.650   3.143  -0.131  2.0983 -1.6786 -0.4025
   58DG     H22 1333   2.713   2.919  -0.196  1.7233 -2.5661  0.1766
   58DG     H23 1334   2.580   2.806  -0.201  1.1592  1.0090 -1.9499
   59DG      C1 1335   0.671   2.310   2.514  0.0280  0.0216 -0.0801
   59DG      C2 1336   0.587   2.808   3.082 -0.2792  0.2435 -1.0462
   59DG      H3 1337   0.723   2.307   2.418  0.6857 -2.3630  0.2773
   59DG      H4 1338   0.566   2.285   2.503 -0.8635  3.7808 -1.6148
   59DG      H5 1339   0.724   2.239   2.578  0.8786  0.8565  0.1667
   59DG      H6 1340   0.648   2.894   3.110  1.7876 -1.2855 -0.6066
   59DG      H7 1341   0.481   2.833   3.089  0.1920  1.9740  1.3772
   59DG      H8 1342   0.606   2.719   3.141 -1.1322 -0.0088 -1.1449
   59DG      O9 1343   0.682   2.439   2.574 -0.5470  0.1187 -0.1250
   59DG     O10 1344   0.626   2.793   2.952 -0.0968 -0.2604  0.4686
   59DG     C11 1345   0.604   2.537   2.505 -0.0405  0.9454  0.0587
   59DG     C12 1346   0.557   2.870   2.853 -0.3915  0.6138 -1.1027
   59DG     H13 1347   0.498   2.515   2.513  0.2252  0.2546  2.5070
   59DG     H14 1348   0.627   2.518   2.400  0.2624  0.2830  0.2366
   59DG     H15 1349   0.582   2.975   2.866 -0.7546  0.5762 -0.0625
   59DG     H16 1350   0.448   2.870   2.855 -0.4049  0.9511 -1.5853
   59DG     C17 1351   0.631   2.687   2.530 -0.2224  0.5731  0.5141
   59DG     C18 1352   0.610   2.842   2.710 -0.1479  0.8531 -0.3525
   59DG     O19 1353   0.590   2.705   2.664 -0.6634  0.5747 -0.3112
   59DG     H20 1354   0.554   2.731   2.467  0.3295  2.2093  0.9472
   59DG     H21 1355   0.735   2.712   2.512 -0.7722  2.7557  0.1411
   59DG     H22 1356   0.555   2.900   2.636  1.4864  1.6832 -0.9467
   59DG     H23 1357   0.712   2.878   2.705 -0.6261  2.4289  0.7007
   60DG      C1 1358   0.112   4.721   0.271 -0.5928  0.1722 -1.0470
   60DG      C2 1359   0.156   4.133  -0.340 -0.5778 -0.5458 -0.0685
   60DG      H3 1360   0.006   4.738   0.253 -0.2383  2.0693 -1.5480
   60DG      H4 1361   0.155   4.818   0.293 -0.8703  0.4323 -1.6363
   60DG      H5 1362   0.129   4.656   0.357  0.8436  1.9402  0.0825
   60DG      H6 1363   0.160   4.049  -0.270  2.2484 -0.0838  0.4283
   60DG      H7 1364   0.061   4.187  -0.336 -0.3863 -0.2009 -0.2248
   60DG      H8 1365   0.186   4.085  -0.433 -0.2103 -2.4495  0.9591
   60DG      O9 1366   0.171   4.673   0.156  0.1612  0.7817 -0.1222
   60DG     O10 1367   0.265   4.222  -0.300 -0.5874  0.3799  0.1800
   60DG     C11 1368   0.299   4.608   0.182 -0.1057  0.6674  0.1770
   60DG     C12 1369   0.244   4.274  -0.175 -0.2276 -0.9523 -0.0940
   60DG     H13 1370   0.288   4.522   0.248  0.6597 -0.5863 -1.2858
   60DG     H14 1371   0.367   4.664   0.247 -2.4875  2.2524  1.4915
   60DG     H15 1372   0.267   4.198  -0.100  0.1052 -3.1766 -2.3394
   60DG     H16 1373   0.138   4.298  -0.160 -0.4241 -1.8901  0.0440
   60DG     C17 1374   0.360   4.563   0.051  0.3075  0.5856  0.3872
   60DG     C18 1375   0.330   4.399  -0.138 -0.6547  0.4228 -0.0450
   60DG     O19 1376   0.272   4.471  -0.022 -0.2320 -0.2496 -0.5940
   60DG     H20 1377   0.455   4.510   0.059 -1.3273 -2.5606  0.6867
   60DG     H21 1378   0.362   4.651  -0.013 -2.0637  1.1282  0.9431
   60DG     H22 1379   0.435   4.368  -0.132 -0.5530  0.9112  1.1880
   60DG     H23 1380   0.328   4.468  -0.222  0.7538  1.0874  0.4146
   61DG      C1 1381   2.928   3.359   3.725 -0.1549 -0.6199 -0.7240
   61DG      C2 1382   2.489   3.361   3.163  0.0186  0.0887 -0.3461
   61DG      H3 1383   2.891   3.457   3.758 -2.4660 -1.9352  0.8527
   61DG      H4 1384   3.015   3.375   3.662  1.8208  0.1438  1.9892
   61DG      H5 1385   2.970   3.310   3.813 -1.5958 -2.3846 -0.9682
   61DG      H6 1386   2.495   3.279   3.091  3.0411 -1.5007  1.4898
   61DG      H7 1387   2.403   3.422   3.137 -0.3866  0.7191  2.2384
   61DG      H8 1388   2.583   3.411   3.138  0.1385 -1.3167 -3.0992
   61DG      O9 1389   2.827   3.278   3.665  0.0888 -0.5081 -0.4394
   61DG     O10 1390   2.478   3.307   3.294  0.5626  0.0643 -0.6640
   61DG     C11 1391   2.708   3.262   3.740  0.1792 -0.3935 -0.0860
   61DG     C12 1392   2.490   3.402   3.393  0.3700 -0.4493  0.5224
   61DG     H13 1393   2.670   3.363   3.759 -0.5644 -0.8915  1.2150
   61DG     H14 1394   2.723   3.219   3.839  2.7097 -1.2407 -0.7636
   61DG     H15 1395   2.413   3.479   3.390  0.8608  0.0232 -1.1578
   61DG     H16 1396   2.580   3.462   3.386  0.5362 -0.8462 -1.4934
   61DG     C17 1397   2.608   3.184   3.663  0.0526  0.2655 -0.1418
   61DG     C18 1398   2.482   3.324   3.522  0.2455 -0.3221 -0.5952
   61DG     O19 1399   2.605   3.245   3.535  0.3881 -0.2236  0.2509
   61DG     H20 1400   2.505   3.184   3.700 -0.0066  3.0871 -0.0872
   61DG     H21 1401   2.636   3.079   3.651 -2.1045 -0.4958  0.9783
   61DG     H22 1402   2.472   3.391   3.607 -0.6455 -2.3712  0.9939
   61DG     H23 1403   2.396   3.260   3.508 -0.5043  0.7972 -1.2311
   62DG      C1 1404   4.597   1.156   2.511 -0.9030 -0.2820  1.2796
   62DG      C2 1405   4.368   1.393   1.940  0.8759 -0.2186  0.0145
   62DG      H3 1406   4.670   1.088   2.466 -1.1477  0.3875 -0.1809
   62DG      H4 1407   4.603   1.133   2.617 -0.1139 -1.0289  1.0823
   62DG      H5 1408   4.636   1.257   2.496  2.7037 -1.5300  1.1595
   62DG      H6 1409   4.307   1.378   1.851  0.0589 -2.0528  0.8394
   62DG      H7 1410   4.367   1.502   1.950  0.2604 -0.3512  1.7758
   62DG      H8 1411   4.472   1.361   1.929 -0.0688 -4.1388  0.9017
   62DG      O9 1412   4.479   1.154   2.433  0.7903  0.2635 -0.0687
   62DG     O10 1413   4.323   1.316   2.052  0.1939 -0.5911  0.7438
   62DG     C11 1414   4.374   1.195   2.519 -0.4444  0.4744  0.5702
   62DG     C12 1415   4.200   1.370   2.097 -0.2919  0.3344 -0.0947
   62DG     H13 1416   4.391   1.290   2.569  0.5164  0.4643  0.2710
   62DG     H14 1417   4.364   1.123   2.600  0.5175 -0.1156  0.1827
   62DG     H15 1418   4.127   1.358   2.016  1.3821  0.2839 -1.6537
   62DG     H16 1419   4.208   1.475   2.122  1.0304  0.2682 -0.1602
   62DG     C17 1420   4.248   1.200   2.430  0.3502  0.5098 -0.0420
   62DG     C18 1421   4.159   1.292   2.224  0.6163 -0.8534  0.0187
   62DG     O19 1422   4.270   1.251   2.299  0.1975  0.0545  0.3681
   62DG     H20 1423   4.163   1.255   2.470 -1.1879 -2.0951  0.4890
   62DG     H21 1424   4.221   1.095   2.416  0.9106  0.2265  0.9231
   62DG     H22 1425   4.080   1.343   2.280 -0.3763 -2.1395 -0.1566
   62DG     H23 1426   4.108   1.205   2.183  1.0099 -0.3220 -1.6935
   63DG      C1 1427   4.280   0.758   0.244  0.1672  0.0620  0.5104
   63DG      C2 1428   4.855   1.009   0.267 -0.0478 -0.1250 -0.6933
   63DG      H3 1429   4.210   0.835   0.211  2.4308  1.3818 -1.5635
   63DG      H4 1430   4.231   0.667   0.278  3.1765 -1.6922  0.3990
   63DG      H5 1431   4.337   0.723   0.158 -1.1323 -0.1220 -0.3140
   63DG      H6 1432   4.899   0.916   0.304 -0.9188 -2.1932 -4.3135
   63DG      H7 1433   4.824   0.966   0.172  0.1453  0.7610 -1.1689
   63DG      H8 1434   4.922   1.092   0.243 -1.7387  0.6895 -2.9201
   63DG      O9 1435   4.367   0.825   0.327  0.0442  0.1345  0.1655
   63DG     O10 1436   4.739   1.062   0.324  0.4961 -0.5209 -0.0170
   63DG     C11 1437   4.324   0.872   0.459 -0.4819  0.6519 -0.2778
   63DG     C12 1438   4.750   1.095   0.462 -1.0775 -1.0986 -0.1303
   63DG     H13 1439   4.275   0.780   0.491 -1.7435  1.2868 -0.3420
   63DG     H14 1440   4.252   0.953   0.460 -2.8285 -1.3095  0.3994
   63DG     H15 1441   4.727   1.200   0.476  0.5818 -0.6054 -0.8782
   63DG     H16 1442   4.850   1.075   0.500 -0.3760  2.5967  0.2747
   63DG     C17 1443   4.449   0.896   0.545  0.0165  0.3522 -0.0058
   63DG     C18 1444   4.661   1.009   0.543 -0.1209  0.0216 -0.5574
   63DG     O19 1445   4.550   0.967   0.469  0.2022 -0.2892  0.2430
   63DG     H20 1446   4.490   0.800   0.576 -1.6419 -0.0198  1.1241
   63DG     H21 1447   4.423   0.963   0.627  1.1199  0.2756  0.4254
   63DG     H22 1448   4.724   0.923   0.564  0.6611  1.1778  2.2485
   63DG     H23 1449   4.639   1.053   0.640  0.8736 -0.7113  0.0134
   64DG      C1 1450   4.026   3.351   1.433  0.4866 -0.6848  0.3461
   64DG      C2 1451   3.485   3.459   1.106  0.0104 -0.1713 -0.2409
   64DG      H3 1452   4.087   3.436   1.403 -2.7965  0.7851 -2.8887
   64DG      H4 1453   4.016   3.282   1.350 -2.0513 -1.1448  0.9440
   64DG      H5 1454   4.056   3.299   1.525 -1.8047 -1.4683  0.7080
   64DG      H6 1455   3.476   3.350   1.112  1.5517 -0.2521  1.3067
   64DG      H7 1456   3.395   3.510   1.071 -0.0794 -0.0234  0.2058
   64DG      H8 1457   3.554   3.488   1.027 -0.0307 -0.0316 -0.2248
   64DG      O9 1458   3.895   3.409   1.454  0.3676 -0.2730 -0.3196
   64DG     O10 1459   3.506   3.497   1.233 -0.0448 -0.8486 -0.7833
   64DG     C11 1460   3.890   3.502   1.558  0.4806 -0.5368  0.5630
   64DG     C12 1461   3.548   3.639   1.243  0.1731  0.3669  0.0903
   64DG     H13 1462   3.968   3.576   1.541 -1.0487  0.8646 -0.7690
   64DG     H14 1463   3.888   3.447   1.652 -1.0813  0.0082  0.8847
   64DG     H15 1464   3.474   3.713   1.215  1.5817  2.2248  1.0305
   64DG     H16 1465   3.622   3.668   1.169 -1.7602  0.5707 -1.8541
   64DG     C17 1466   3.745   3.568   1.544 -0.2130 -0.5278 -0.8194
   64DG     C18 1467   3.601   3.668   1.386 -0.0191  0.0379 -0.5192
   64DG     O19 1468   3.704   3.573   1.408  0.0419  0.2741 -0.0683
   64DG     H20 1469   3.735   3.666   1.591 -1.1604  0.0952 -2.2367
   64DG     H21 1470   3.670   3.512   1.600 -0.9748  2.1406  1.0426
   64DG     H22 1471   3.628   3.773   1.396 -0.3897  0.1670 -0.8676
   64DG     H23 1472   3.518   3.656   1.454  0.4736  1.1011  0.3035
   65DG      C1 1473   3.158   3.792   1.331 -0.6173  0.7763  0.4755
   65DG      C2 1474   2.997   4.563   0.914 -0.0055  0.0012  0.2040
   65DG      H3 1475   3.238   3.831   1.394 -0.2351  2.9443 -1.2499
   65DG      H4 1476   3.200   3.724   1.257 -1.1354 -0.7099  1.4959
   65DG      H5 1477   3.090   3.738   1.397  0.4628 -1.5570 -0.1886
   65DG      H6 1478   3.071   4.583   0.836  0.5139  0.0194  0.6909
   65DG      H7 1479   2.902   4.602   0.877 -1.0251 -1.1462  1.5114
   65DG      H8 1480   3.026   4.605   1.011  0.5803  1.2187 -0.4679
   65DG      O9 1481   3.088   3.889   1.267 -0.2559 -0.2395 -0.0053
   65DG     O10 1482   2.987   4.425   0.910  0.6917 -0.3945 -0.5370
   65DG     C11 1483   3.172   3.970   1.181 -0.1634 -0.2803  0.5197
   65DG     C12 1484   3.078   4.340   0.982 -0.7482 -0.7276 -0.1183
   65DG     H13 1485   3.223   3.914   1.103 -0.3613  1.4575 -0.9194
   65DG     H14 1486   3.243   4.025   1.244  0.8598  0.1144 -0.9299
   65DG     H15 1487   3.050   4.340   1.088  2.8183 -0.1517  0.9661
   65DG     H16 1488   3.173   4.393   0.983 -1.7535  1.3160  2.7753
   65DG     C17 1489   3.077   4.067   1.114  0.2289  0.4201 -0.0517
   65DG     C18 1490   3.069   4.202   0.922 -0.6061  0.0239  0.2251
   65DG     O19 1491   3.144   4.113   1.004 -0.2113  0.0504  0.1784
   65DG     H20 1492   3.045   4.146   1.181  2.8414  1.8496 -0.3525
   65DG     H21 1493   2.979   4.028   1.086 -0.3350  1.3154  0.6183
   65DG     H22 1494   2.968   4.167   0.901 -0.2504 -1.5875  1.0763
   65DG     H23 1495   3.126   4.210   0.829 -2.0188  0.4703 -0.6279
   66DG      C1 1496   3.516   3.178   2.173 -0.0480  0.4194  0.0119
   66DG      C2 1497   3.069   3.061   2.750  0.1002 -0.1474 -0.6730
   66DG      H3 1498   3.442   3.106   2.139  0.7939 -0.8401  0.7686
   66DG      H4 1499   3.613   3.128   2.170 -0.0970  0.2329  1.1475
   66DG      H5 1500   3.523   3.264   2.106 -2.9887  0.8653  0.1355
   66DG      H6 1501   3.100   2.970   2.801  0.1897  0.9341  1.3128
   66DG      H7 1502   3.036   3.127   2.831 -1.9068 -2.1931  0.2695
   66DG      H8 1503   2.977   3.039   2.696 -0.4823  1.3111 -0.3528
   66DG      O9 1504   3.468   3.217   2.307 -0.7401 -0.1281  0.6313
   66DG     O10 1505   3.171   3.117   2.674  0.0523  0.0531  0.2099
   66DG     C11 1506   3.574   3.289   2.373  0.4629  0.2855 -0.4698
   66DG     C12 1507   3.294   3.130   2.746 -0.6651 -0.2762 -0.2519
   66DG     H13 1508   3.602   3.383   2.325  0.6161 -0.0849 -1.1112
   66DG     H14 1509   3.660   3.222   2.382  0.6924  0.7864  1.5523
   66DG     H15 1510   3.347   3.036   2.738 -1.3121 -0.8108  1.3177
   66DG     H16 1511   3.292   3.151   2.853  1.1610 -0.3965 -0.1643
   66DG     C17 1512   3.522   3.319   2.520 -0.0956 -0.4362  0.2485
   66DG     C18 1513   3.384   3.251   2.693  0.6092  0.3899  0.3826
   66DG     O19 1514   3.452   3.211   2.574  0.5203  0.4401  0.0320
   66DG     H20 1515   3.446   3.396   2.505  1.4237  0.8551 -1.0779
   66DG     H21 1516   3.592   3.371   2.586 -0.4393 -0.1902  0.4279
   66DG     H22 1517   3.325   3.342   2.688  0.5623  0.4919  2.1632
   66DG     H23 1518   3.458   3.286   2.764  0.3708  1.7450 -0.0095
   67DG      C1 1519   3.902   1.548   3.409  1.3392  0.1397 -0.0242
   67DG      C2 1520   3.742   2.058   2.973 -0.3821  0.6151  0.9061
   67DG      H3 1521   3.839   1.467   3.448 -1.7148  3.0407  1.5714
   67DG      H4 1522   3.874   1.622   3.484 -0.2961 -1.2690  0.8337
   67DG      H5 1523   4.002   1.509   3.430  1.5693  0.4884 -0.4734
   67DG      H6 1524   3.644   2.059   3.020 -0.8523 -0.0299 -0.0161
   67DG      H7 1525   3.812   2.125   3.023 -0.3554  1.9517 -0.8187
   67DG      H8 1526   3.735   2.087   2.868  1.4336 -0.3631  0.4736
   67DG      O9 1527   3.884   1.598   3.280  0.3476  0.6907  0.1466
   67DG     O10 1528   3.801   1.931   2.985  0.1242  0.0580  0.5012
   67DG     C11 1529   3.896   1.491   3.191  0.0452  0.0643  0.3882
   67DG     C12 1530   3.746   1.839   2.894 -0.5734 -0.0813  0.0137
   67DG     H13 1531   3.814   1.422   3.208  0.7516 -1.5490 -2.2059
   67DG     H14 1532   3.992   1.444   3.213  0.0972 -0.6279 -1.2510
   67DG     H15 1533   3.754   1.876   2.792 -3.2320 -0.7607 -0.5274
   67DG     H16 1534   3.643   1.807   2.913 -0.3577 -0.5519  0.4370
   67DG     C17 1535   3.908   1.542   3.047 -0.2568 -0.1820 -0.4210
   67DG     C18 1536   3.822   1.703   2.903 -0.1556  0.0784  0.5027
   67DG     O19 1537   3.813   1.653   3.039 -0.0429  0.5763  0.8489
   67DG     H20 1538   3.876   1.469   2.973 -0.6835  0.4924 -0.9259
   67DG     H21 1539   4.006   1.580   3.019 -0.2091 -0.1918 -0.2723
   67DG     H22 1540   3.795   1.629   2.828  1.8431 -0.7121  0.4864
   67DG     H23 1541   3.926   1.728   2.880 -0.6954  1.3725 -0.6987
   68DG      C1 1542   3.821   1.543   0.065 -0.2346 -0.0181 -0.1721
   68DG      C2 1543   3.534   2.126  -0.174  0.2134  0.6730  0.5990
   68DG      H3 1544   3.873   1.625   0.116  0.9442 -0.4193 -0.6936
   68DG      H4 1545   3.905   1.479   0.038  0.9761  2.4124 -2.6071
   68DG      H5 1546   3.746   1.502   0.133 -2.2717  0.3492 -2.0726
   68DG      H6 1547   3.584   2.184  -0.252  0.6884 -3.0226 -2.1409
   68DG      H7 1548   3.426   2.133  -0.185 -0.3671 -3.4956  2.0643
   68DG      H8 1549   3.555   2.170  -0.077 -1.9030  2.7871  0.2186
   68DG      O9 1550   3.762   1.609  -0.049  0.6171  0.6401 -0.1153
   68DG     O10 1551   3.577   1.987  -0.191  0.4467  0.1631 -0.1224
   68DG     C11 1552   3.715   1.529  -0.155 -0.2280 -0.0084  0.6562
   68DG     C12 1553   3.522   1.925  -0.305 -0.1484  0.9549 -0.0867
   68DG     H13 1554   3.618   1.493  -0.121 -2.1227  3.2144 -0.8262
   68DG     H14 1555   3.786   1.449  -0.174 -1.9071 -1.5135  0.4466
   68DG     H15 1556   3.532   1.992  -0.390 -0.7295 -1.2307 -1.9926
   68DG     H16 1557   3.420   1.898  -0.278 -0.8254  1.6286 -1.8460
   68DG     C17 1558   3.692   1.604  -0.279  0.3030  0.3233  0.1872
   68DG     C18 1559   3.606   1.805  -0.347 -0.0036 -0.1818  0.2217
   68DG     O19 1560   3.622   1.717  -0.240 -0.7002 -0.4752  0.1563
   68DG     H20 1561   3.633   1.537  -0.342  1.5098 -1.0001  0.4239
   68DG     H21 1562   3.787   1.619  -0.331  0.1595  0.6648  0.0174
   68DG     H22 1563   3.560   1.758  -0.435  1.6362  3.3748 -2.8354
   68DG     H23 1564   3.704   1.843  -0.374  1.1082 -1.9856  1.5229
   69DG      C1 1565   1.905   0.982   0.467  0.0753 -0.0961 -0.3128
   69DG      C2 1566   1.446   1.239   0.864 -0.7891 -0.1902  0.4384
   69DG      H3 1567   1.957   0.987   0.371 -0.8172 -0.2952 -0.8161
   69DG      H4 1568   1.890   0.877   0.494  1.1724 -0.3883 -0.7594
   69DG      H5 1569   1.967   1.026   0.545  0.7476  0.4402 -1.1275
   69DG      H6 1570   1.397   1.227   0.960  0.4797  1.8184  1.4050
   69DG      H7 1571   1.553   1.244   0.885 -0.8120  0.7326  0.3820
   69DG      H8 1572   1.427   1.336   0.818  0.0453 -0.9900 -1.7603
   69DG      O9 1573   1.775   1.047   0.460  0.0148  0.6000 -0.2916
   69DG     O10 1574   1.423   1.134   0.776 -0.3250  0.5521  0.1946
   69DG     C11 1575   1.685   0.965   0.385  0.4209  0.7383  0.0683
   69DG     C12 1576   1.471   1.009   0.824  0.1944 -0.0776  0.9830
   69DG     H13 1577   1.732   0.896   0.315 -1.4589  1.8412 -2.4219
   69DG     H14 1578   1.620   1.022   0.320  1.5945  2.8075  0.6308
   69DG     H15 1579   1.384   0.981   0.883  0.2075 -1.2855  0.4589
   69DG     H16 1580   1.554   1.005   0.895  1.5513  0.0305 -0.5406
   69DG     C17 1581   1.612   0.877   0.491 -0.2135 -0.0474 -0.2597
   69DG     C18 1582   1.492   0.904   0.708 -0.0862 -0.0487  0.0881
   69DG     O19 1583   1.572   0.968   0.601  0.4276  0.0088 -0.2732
   69DG     H20 1584   1.670   0.794   0.532  1.3281  1.4911  0.7736
   69DG     H21 1585   1.517   0.834   0.460 -0.2177 -0.7694  0.7138
   69DG     H22 1586   1.530   0.808   0.740  0.2509  0.9338  2.9442
   69DG     H23 1587   1.395   0.891   0.660 -0.6347 -0.8064  1.3428
   70DG      C1 1588   5.147   4.310   1.981  0.4843  0.6049 -0.0087
   70DG      C2 1589   4.943   3.785   2.267  0.2663 -0.2833 -0.2491
   70DG      H3 1590   5.048   4.289   1.938 -0.0294 -0.4778  1.6238
   70DG      H4 1591   5.201   4.365   1.904 -1.4858  2.2727 -0.3009
   70DG      H5 1592   5.147   4.363   2.076  1.6327  0.5197  0.0472
   70DG      H6 1593   4.940   3.822   2.369 -2.0015 -2.4481  0.5670
   70DG      H7 1594   4.854   3.821   2.215  0.4407  1.6280  0.6894
   70DG      H8 1595   4.939   3.677   2.278  0.4616 -0.3939 -1.1637
   70DG      O9 1596   5.211   4.187   2.008  0.2547  0.5393 -0.3511
   70DG     O10 1597   5.060   3.838   2.209 -0.7312  0.1594 -0.0780
   70DG     C11 1598   5.331   4.192   2.076  0.7651  0.4878 -0.2164
   70DG     C12 1599   5.179   3.794   2.277  0.1848 -0.3442 -0.0604
   70DG     H13 1600   5.307   4.253   2.163  0.2925  1.0785 -0.7511
   70DG     H14 1601   5.403   4.237   2.006  0.2497  0.9142 -0.4775
   70DG     H15 1602   5.186   3.686   2.289 -0.6518 -0.6051 -1.6960
   70DG     H16 1603   5.181   3.847   2.372 -2.4973  0.6471 -0.4698
   70DG     C17 1604   5.382   4.053   2.110  0.3575  0.5731  0.3584
   70DG     C18 1605   5.296   3.843   2.199 -0.3249 -0.3599 -0.2066
   70DG     O19 1606   5.272   3.978   2.161  0.1324 -0.1725 -0.2811
   70DG     H20 1607   5.464   4.037   2.180  1.0772 -1.8969 -0.9248
   70DG     H21 1608   5.419   4.003   2.020 -1.4875  0.1447 -0.2055
   70DG     H22 1609   5.393   3.821   2.244 -0.2646  0.9553  0.3425
   70DG     H23 1610   5.306   3.781   2.110 -1.6834 -0.8938 -0.0099
   71DG      C1 1611   0.903   3.317   4.466 -0.7037  0.1298 -0.5382
   71DG      C2 1612   0.681   3.365   3.806 -0.6839  0.2702 -0.2293
   71DG      H3 1613   1.006   3.332   4.435 -0.2637 -2.4110 -0.4854
   71DG      H4 1614   0.867   3.215   4.457 -0.5759 -0.0746  0.9642
   71DG      H5 1615   0.879   3.330   4.572  1.4257 -0.2711  0.0442
   71DG      H6 1616   0.765   3.410   3.753  0.3010 -1.9862 -0.7399
   71DG      H7 1617   0.675   3.256   3.801 -1.1990  0.3314 -1.5179
   71DG      H8 1618   0.603   3.390   3.734 -0.6739  0.5624 -0.1387
   71DG      O9 1619   0.820   3.392   4.385  0.6100 -0.0614 -0.1683
   71DG     O10 1620   0.650   3.427   3.931 -0.1072 -0.3061 -0.1579
   71DG     C11 1621   0.853   3.530   4.376  0.0356 -0.5121  0.0918
   71DG     C12 1622   0.647   3.569   3.926 -0.6268  0.6135  0.0327
   71DG     H13 1623   0.949   3.545   4.327 -1.0915 -0.6492 -2.2733
   71DG     H14 1624   0.858   3.586   4.470  2.3035 -0.0241 -0.2591
   71DG     H15 1625   0.567   3.621   3.874 -1.5309  0.3070  1.0861
   71DG     H16 1626   0.744   3.600   3.886  0.8427 -0.9477  2.1435
   71DG     C17 1627   0.747   3.602   4.288  0.4176  0.0847  0.4949
   71DG     C18 1628   0.636   3.615   4.076 -0.3260  0.2680  0.8816
   71DG     O19 1629   0.747   3.552   4.152 -0.0985  0.2216 -0.0016
   71DG     H20 1630   0.767   3.709   4.279  1.5843 -0.0256  1.5265
   71DG     H21 1631   0.651   3.578   4.333  0.3618 -4.4764 -1.5289
   71DG     H22 1632   0.637   3.724   4.078 -2.9063  0.3957 -0.6431
   71DG     H23 1633   0.546   3.574   4.123 -0.5157 -0.6927 -0.2891
   72DG      C1 1634   1.320   3.663   4.938  0.7653  0.0650  0.0101
   72DG      C2 1635   1.534   4.174   4.661 -0.5510 -0.3451  0.2686
   72DG      H3 1636   1.254   3.674   4.852  1.9049 -2.8757 -1.3933
   72DG      H4 1637   1.255   3.613   5.009 -1.6364  1.7136 -0.8989
   72DG      H5 1638   1.411   3.610   4.909  1.6942  3.1794 -3.7324
   72DG      H6 1639   1.535   4.228   4.756 -1.6603 -1.6447  1.0386
   72DG      H7 1640   1.624   4.112   4.656 -1.2583 -1.3308 -0.5610
   72DG      H8 1641   1.535   4.255   4.587  1.3035 -1.2081 -0.7369
   72DG      O9 1642   1.356   3.792   4.987  0.5582  0.2575  0.6808
   72DG     O10 1643   1.420   4.086   4.657  0.0541  0.1653 -0.7269
   72DG     C11 1644   1.245   3.867   5.035 -0.4415  0.0454  0.1087
   72DG     C12 1645   1.294   4.156   4.661 -0.3115 -0.5085  0.0968
   72DG     H13 1646   1.297   3.939   5.099 -0.0303  1.8391 -2.1021
   72DG     H14 1647   1.191   3.800   5.102  0.9903 -0.4828  0.7528
   72DG     H15 1648   1.257   4.182   4.562 -0.1877  0.6947  0.3484
   72DG     H16 1649   1.300   4.255   4.707  0.3003 -0.3671 -0.2718
   72DG     C17 1650   1.162   3.941   4.930  0.2791  0.3133 -0.0162
   72DG     C18 1651   1.187   4.079   4.735 -0.1401  0.1014  0.2492
   72DG     O19 1652   1.249   4.037   4.862 -0.0077  0.2109  0.1372
   72DG     H20 1653   1.077   3.991   4.977 -0.6514 -0.6397 -0.6284
   72DG     H21 1654   1.126   3.862   4.864 -0.5140 -0.4746  1.3117
   72DG     H22 1655   1.108   4.148   4.763 -0.0795  0.6906 -0.9471
   72DG     H23 1656   1.141   4.004   4.671 -2.1058  1.9911 -0.6756
   73DG      C1 1657   4.859   1.447   2.543 -0.1329  0.5846  0.3975
   73DG      C2 1658   4.449   0.996   2.146  0.0156 -0.1659 -0.3825
   73DG      H3 1659   4.799   1.536   2.561 -1.1429 -0.1436  0.7643
   73DG      H4 1660   4.959   1.486   2.559 -0.6091  1.9973  0.0525
   73DG      H5 1661   4.840   1.363   2.610  1.8552  0.8765  1.4162
   73DG      H6 1662   4.487   0.902   2.185  0.8152  0.1103 -0.4898
   73DG      H7 1663   4.382   1.027   2.227  1.9815 -0.7142  1.5554
   73DG      H8 1664   4.397   0.985   2.050  0.9788  0.6048 -1.0089
   73DG      O9 1665   4.840   1.387   2.418  0.2513 -0.0788  0.2010
   73DG     O10 1666   4.557   1.086   2.141 -0.0710  0.8571 -0.1748
   73DG     C11 1667   4.950   1.303   2.388  0.2803  0.4170  0.7099
   73DG     C12 1668   4.678   1.042   2.075 -0.1174  0.1026  0.4443
   73DG     H13 1669   4.960   1.231   2.469 -1.4847  0.3926  0.9640
   73DG     H14 1670   5.038   1.367   2.384  0.3060  0.4226  1.2910
   73DG     H15 1671   4.663   1.020   1.969 -1.0454  0.9913  0.3744
   73DG     H16 1672   4.729   0.959   2.123  0.3371  1.1477  1.8159
   73DG     C17 1673   4.937   1.240   2.246  0.7300 -0.4939 -0.9956
   73DG     C18 1674   4.776   1.154   2.091 -0.0882 -0.7575 -0.1179
   73DG     O19 1675   4.804   1.181   2.227 -0.0666  0.5502  0.1503
   73DG     H20 1676   5.019   1.169   2.240  1.4453  0.2766 -0.5024
   73DG     H21 1677   4.947   1.320   2.172  2.8519  1.6582  1.4344
   73DG     H22 1678   4.871   1.133   2.044 -1.0957  0.2167 -2.7659
   73DG     H23 1679   4.725   1.242   2.052  1.0504 -1.1142 -2.5688
   74DG      C1 1680   5.015   5.107   0.226  0.1575  0.4705 -0.4114
   74DG      C2 1681   4.988   5.270   0.887  0.1143 -0.2094  0.5844
   74DG      H3 1682   5.068   5.065   0.141  0.8252  0.9517 -0.2331
   74DG      H4 1683   5.031   5.213   0.211 -0.2630  0.5651 -0.2273
   74DG      H5 1684   4.910   5.081   0.210  0.8539 -1.4215 -2.4844
   74DG      H6 1685   4.884   5.298   0.870 -0.4551 -3.2775 -2.0586
   74DG      H7 1686   5.002   5.241   0.992 -0.2217 -0.5441  0.5390
   74DG      H8 1687   5.050   5.356   0.864 -0.1312 -0.2963 -0.4166
   74DG      O9 1688   5.071   5.071   0.351 -0.3705 -0.7662  0.1338
   74DG     O10 1689   5.016   5.163   0.797  0.3641 -0.0413 -0.5072
   74DG     C11 1690   5.087   4.933   0.372  0.2220  0.1025  0.0003
   74DG     C12 1691   5.128   5.094   0.832  0.2737 -0.1515  0.1279
   74DG     H13 1692   5.136   4.890   0.284 -1.1543  3.2966 -2.5658
   74DG     H14 1693   4.991   4.882   0.376 -0.0657  0.3641 -2.2206
   74DG     H15 1694   5.138   5.057   0.934 -1.8711 -1.6482 -0.1452
   74DG     H16 1695   5.206   5.170   0.828 -0.6099  0.7311 -1.2151
   74DG     C17 1696   5.170   4.912   0.502 -0.6909 -0.8686  0.0736
   74DG     C18 1697   5.169   4.986   0.730  0.9118 -0.5210 -0.5527
   74DG     O19 1698   5.119   5.011   0.596 -0.3828  0.2240  0.4774
   74DG     H20 1699   5.274   4.925   0.472 -0.3620 -1.0089  1.1218
   74DG     H21 1700   5.174   4.808   0.536  1.7155 -0.4207  1.4027
   74DG     H22 1701   5.276   4.975   0.747  0.6615 -1.4730  0.5855
   74DG     H23 1702   5.125   4.888   0.752 -1.2560  0.5537  0.2337
   75DG      C1 1703   0.151   0.108   3.172  0.3316  0.1188 -0.3916
   75DG      C2 1704  -0.376  -0.218   2.998 -0.2101  0.4225 -0.0378
   75DG      H3 1705   0.239   0.147   3.223  0.5758 -1.2569  0.2823
   75DG      H4 1706   0.143   0.147   3.070  0.0991 -2.0778 -1.2689
   75DG      H5 1707   0.178   0.002   3.167 -0.2578 -0.0146 -0.9425
   75DG      H6 1708  -0.304  -0.227   2.917  1.1536 -0.0993  1.1834
   75DG      H7 1709  -0.364  -0.306   3.062 -0.1307  0.2031 -0.3552
   75DG      H8 1710  -0.477  -0.219   2.956 -0.8362 -0.7976  1.3672
   75DG      O9 1711   0.024   0.116   3.237 -0.3831  0.4621 -0.4284
   75DG     O10 1712  -0.358  -0.111   3.087 -0.5602 -0.2905 -0.3821
   75DG     C11 1713  -0.028   0.245   3.240 -0.1551 -0.1746 -0.6148
   75DG     C12 1714  -0.402   0.013   3.032 -0.2004  0.1724  0.1744
   75DG     H13 1715   0.002   0.306   3.154 -1.4490 -0.0550 -1.0069
   75DG     H14 1716   0.010   0.296   3.329 -0.0060 -0.1881 -0.6709
   75DG     H15 1717  -0.506   0.014   3.000  0.6264 -0.1723 -2.7895
   75DG     H16 1718  -0.350   0.038   2.939 -1.7957  3.5345  0.0553
   75DG     C17 1719  -0.179   0.242   3.234  0.4279  0.2068 -0.6964
   75DG     C18 1720  -0.377   0.123   3.142  0.1225  0.0091  0.7852
   75DG     O19 1721  -0.233   0.135   3.157  0.2121 -0.7552  0.1075
   75DG     H20 1722  -0.229   0.336   3.208  0.7621  0.9775  1.3140
   75DG     H21 1723  -0.208   0.221   3.337  3.0159  0.5459  0.1578
   75DG     H22 1724  -0.424   0.218   3.116 -0.2347 -0.3838 -0.0617
   75DG     H23 1725  -0.418   0.101   3.241  1.2495 -2.1368  0.8305
   76DG      C1 1726   1.316   5.089   5.296  0.4975 -0.3998 -0.3314
   76DG      C2 1727   1.362   4.650   4.788  0.6245  0.2444 -0.0388
   76DG      H3 1728   1.420   5.114   5.315  0.0976  0.5743  0.6731
   76DG      H4 1729   1.269   5.097   5.394  1.0935  1.2218 -0.1615
   76DG      H5 1730   1.253   5.157   5.239  1.8655  1.7356  0.5735
   76DG      H6 1731   1.469   4.639   4.804  0.8338 -0.4608 -1.6734
   76DG      H7 1732   1.318   4.552   4.769  0.2806  0.4200 -0.1689
   76DG      H8 1733   1.361   4.708   4.695  1.4086  2.3689  1.2052
   76DG      O9 1734   1.296   4.957   5.259  0.3087  0.0393 -0.1272
   76DG     O10 1735   1.294   4.717   4.898  0.0461 -0.8288  0.2471
   76DG     C11 1736   1.165   4.918   5.301  0.4732  0.8711  0.7467
   76DG     C12 1737   1.156   4.681   4.926 -0.3260 -0.6899  0.5122
   76DG     H13 1738   1.082   4.975   5.260 -0.8585 -2.0131 -0.8755
   76DG     H14 1739   1.146   4.940   5.406 -1.3373  0.9419  0.4376
   76DG     H15 1740   1.143   4.575   4.947 -1.9951 -0.1151  2.7897
   76DG     H16 1741   1.087   4.699   4.843 -0.4712 -1.5634  0.4424
   76DG     C17 1742   1.158   4.768   5.284 -0.4935 -0.0182  0.1491
   76DG     C18 1743   1.109   4.759   5.049  0.3013  0.6224  0.1045
   76DG     O19 1744   1.208   4.737   5.152  0.2789 -0.0498  0.2455
   76DG     H20 1745   1.057   4.734   5.310 -1.1769  0.2418 -1.9640
   76DG     H21 1746   1.226   4.727   5.359 -1.2051 -0.8378  0.3741
   76DG     H22 1747   1.085   4.864   5.031 -1.2017  0.3004  0.1104
   76DG     H23 1748   1.016   4.709   5.076  1.0157 -0.6095  0.3779
   77DG      C1 1749   0.873   1.663   3.475 -0.3635 -0.1884  0.1150
   77DG      C2 1750   1.458   1.713   3.636  0.4826  0.5721 -0.3196
   77DG      H3 1751   0.836   1.732   3.550 -1.5736 -0.5654 -0.1166
   77DG      H4 1752   0.887   1.570   3.531  0.0303 -0.4305 -0.3755
   77DG      H5 1753   0.797   1.660   3.397 -0.8821  0.8870  0.5633
   77DG      H6 1754   1.418   1.690   3.735 -2.4311 -1.3845 -1.8161
   77DG      H7 1755   1.425   1.633   3.570 -0.1333 -0.0247  0.6767
   77DG      H8 1756   1.566   1.710   3.639  0.4934  1.5881  1.3756
   77DG      O9 1757   0.999   1.709   3.430  0.0475  0.1711 -0.2184
   77DG     O10 1758   1.398   1.828   3.576 -0.1062 -0.0943 -0.6107
   77DG     C11 1759   0.997   1.813   3.340  0.0240  0.7208  0.8895
   77DG     C12 1760   1.445   1.860   3.448  0.2271  0.4449 -0.1651
   77DG     H13 1761   0.901   1.864   3.331 -0.3763 -0.1826 -0.1488
   77DG     H14 1762   1.010   1.777   3.238 -1.2601 -0.3123  1.0704
   77DG     H15 1763   1.497   1.784   3.389  1.6622  0.5277  0.9469
   77DG     H16 1764   1.532   1.924   3.462  1.5519 -0.5346 -3.0527
   77DG     C17 1765   1.103   1.915   3.358 -0.4439 -0.3320 -0.8360
   77DG     C18 1766   1.344   1.936   3.367  0.0926 -0.4154 -1.0266
   77DG     O19 1767   1.231   1.850   3.368 -0.0913  0.1970 -0.5028
   77DG     H20 1768   1.093   1.985   3.441 -0.3693  0.2462 -1.3089
   77DG     H21 1769   1.107   1.977   3.268  1.9703 -1.8232 -1.8635
   77DG     H22 1770   1.318   2.033   3.410 -3.0336 -0.8374 -1.7775
   77DG     H23 1771   1.384   1.957   3.268 -0.6852 -3.2354 -2.0374
   78DG      C1 1772   3.866   0.181   3.607 -0.0183 -0.8912 -0.0952
   78DG      C2 1773   3.400   0.714   3.414 -0.7477  0.4089  0.7193
   78DG      H3 1774   3.882   0.178   3.714  0.1352 -1.5046 -0.1287
   78DG      H4 1775   3.955   0.142   3.559  0.3378  0.8536 -0.9331
   78DG      H5 1776   3.789   0.110   3.575 -0.9602  0.7671 -1.7159
   78DG      H6 1777   3.342   0.623   3.431  0.7523 -1.0342 -1.3834
   78DG      H7 1778   3.395   0.775   3.504  2.7766  0.4274  1.0531
   78DG      H8 1779   3.350   0.754   3.325  2.4501  2.9321 -0.1275
   78DG      O9 1780   3.821   0.309   3.563 -0.2791  0.0799 -0.2078
   78DG     O10 1781   3.529   0.671   3.385  0.0162  0.0068 -0.1471
   78DG     C11 1782   3.928   0.402   3.574 -0.1195 -0.1951  0.4856
   78DG     C12 1783   3.629   0.754   3.442  0.0083 -0.0223 -0.0317
   78DG     H13 1784   4.032   0.370   3.571 -0.0103  0.2275 -0.8694
   78DG     H14 1785   3.909   0.442   3.674 -0.7048 -1.2309  0.8122
   78DG     H15 1786   3.614   0.760   3.550 -0.9778 -0.8887 -0.1029
   78DG     H16 1787   3.614   0.857   3.408 -0.8888  0.4686  1.7149
   78DG     C17 1788   3.903   0.504   3.465  0.1367 -0.0313 -0.1098
   78DG     C18 1789   3.758   0.688   3.411 -0.8768  0.3857  0.0346
   78DG     O19 1790   3.774   0.567   3.478 -0.3357  0.2364 -0.7209
   78DG     H20 1791   3.895   0.451   3.370 -0.7330 -1.2909  0.6315
   78DG     H21 1792   3.984   0.576   3.458 -0.6087  0.8664  0.2316
   78DG     H22 1793   3.765   0.691   3.302 -1.8107  1.0519 -0.0176
   78DG     H23 1794   3.837   0.754   3.446  0.5635 -1.6267  0.7521
   79DG      C1 1795   3.976   1.491   0.491  0.1258 -0.5982 -0.2163
   79DG      C2 1796   3.698   1.568   1.078  0.0542  0.5502  0.3132
   79DG      H3 1797   4.072   1.509   0.541  0.0072  0.7205 -0.4129
   79DG      H4 1798   3.994   1.520   0.388  3.1777  1.5149  0.7338
   79DG      H5 1799   3.938   1.390   0.506  1.0555 -0.6551  2.4360
   79DG      H6 1800   3.792   1.611   1.112  0.5184 -1.2044  1.4223
   79DG      H7 1801   3.619   1.596   1.148  0.2256 -1.3733  1.3661
   79DG      H8 1802   3.721   1.461   1.085  3.6312  1.0568 -1.6442
   79DG      O9 1803   3.871   1.573   0.548  0.4537 -0.0124  0.2684
   79DG     O10 1804   3.677   1.629   0.949  0.7000 -0.4267 -0.8480
   79DG     C11 1805   3.886   1.714   0.525  0.0381 -0.1667 -0.6353
   79DG     C12 1806   3.695   1.772   0.952 -0.3485 -1.1239 -0.1127
   79DG     H13 1807   3.884   1.730   0.417  1.3396 -1.7178 -0.9288
   79DG     H14 1808   3.976   1.748   0.578  0.0952  1.6721 -1.8187
   79DG     H15 1809   3.790   1.791   1.002  1.4327  3.3169 -4.3342
   79DG     H16 1810   3.621   1.829   1.008  0.3695 -0.0109 -0.2638
   79DG     C17 1811   3.766   1.776   0.589  0.3687 -0.5471 -0.6251
   79DG     C18 1812   3.687   1.834   0.804 -0.1990  0.3223 -0.4862
   79DG     O19 1813   3.757   1.739   0.720 -0.3812 -0.1848 -0.4612
   79DG     H20 1814   3.675   1.748   0.537 -0.7488 -0.4468  1.2014
   79DG     H21 1815   3.782   1.884   0.580 -0.5577 -0.4882 -1.8949
   79DG     H22 1816   3.587   1.854   0.763 -0.7341 -0.1824  0.5270
   79DG     H23 1817   3.743   1.927   0.797  1.4081 -0.7187 -3.2366
   80DG      C1 1818   1.187   1.219   4.183  0.2775  0.1132  0.2322
   80DG      C2 1819   1.315   1.916   4.452  0.0828  0.2611  0.0207
   80DG      H3 1820   1.123   1.261   4.106  1.0237  0.8469  0.0012
   80DG      H4 1821   1.132   1.138   4.231  2.1888 -1.1782  0.3534
   80DG      H5 1822   1.276   1.166   4.148 -0.2592 -0.5208 -0.1890
   80DG      H6 1823   1.408   1.879   4.495 -1.3673 -0.7155  2.4916
   80DG      H7 1824   1.342   1.947   4.351 -0.9055  1.6657  0.1556
   80DG      H8 1825   1.276   2.000   4.510 -1.0778 -1.4750  1.8651
   80DG      O9 1826   1.221   1.305   4.285 -0.2901 -0.6571  0.2179
   80DG     O10 1827   1.210   1.819   4.424  0.2519  0.5396  0.1284
   80DG     C11 1828   1.289   1.420   4.244 -0.3865  0.4488  0.0615
   80DG     C12 1829   1.187   1.748   4.545  0.1421 -0.3668  0.0893
   80DG     H13 1830   1.229   1.483   4.178 -0.8014 -0.3807 -0.3717
   80DG     H14 1831   1.374   1.398   4.180 -0.5483 -0.3061  0.0986
   80DG     H15 1832   1.084   1.716   4.536 -0.0187  0.4552 -1.3711
   80DG     H16 1833   1.192   1.814   4.632  1.4880 -0.2586 -0.0459
   80DG     C17 1834   1.326   1.503   4.366  0.3523 -0.0352  0.2639
   80DG     C18 1835   1.268   1.616   4.554 -0.0592  0.0226  0.3109
   80DG     O19 1836   1.216   1.538   4.449  0.2433  0.1787 -0.4689
   80DG     H20 1837   1.388   1.586   4.334 -0.0837  0.9150  1.7980
   80DG     H21 1838   1.387   1.437   4.427  0.4082 -0.3584 -0.1369
   80DG     H22 1839   1.375   1.637   4.559 -0.3478  2.4997 -1.8918
   80DG     H23 1840   1.245   1.567   4.649  0.8129 -0.5979  0.2160
   81DG      C1 1841   3.741   3.097   1.440 -0.2698  0.0740 -0.5629
   81DG      C2 1842   3.924   3.533   1.138 -0.3397  0.0805  0.1737
   81DG      H3 1843   3.746   3.131   1.543  0.8245  1.3791 -1.0069
   81DG      H4 1844   3.833   3.130   1.392  0.0268 -0.0365 -0.0708
   81DG      H5 1845   3.753   2.989   1.443  0.6760  0.1953  0.1995
   81DG      H6 1846   3.837   3.578   1.091 -1.6284 -2.0659  0.4154
   81DG      H7 1847   3.928   3.567   1.242  0.4199  1.7627 -0.3612
   81DG      H8 1848   4.020   3.566   1.098 -1.3175 -0.3565 -2.7685
   81DG      O9 1849   3.625   3.142   1.371  0.3195  0.0807  0.1933
   81DG     O10 1850   3.900   3.393   1.148 -0.5265  0.5560  0.3267
   81DG     C11 1851   3.577   3.051   1.275  0.3597 -0.5683  0.0692
   81DG     C12 1852   3.851   3.335   1.023 -0.4189 -0.5445 -0.5664
   81DG     H13 1853   3.476   3.078   1.245 -0.7674 -1.4901  2.7382
   81DG     H14 1854   3.557   2.949   1.308  1.4219 -1.1087 -0.8834
   81DG     H15 1855   3.929   3.354   0.949  0.8965 -0.2755  0.8339
   81DG     H16 1856   3.760   3.389   0.996 -0.6165  0.2773  1.5811
   81DG     C17 1857   3.672   3.050   1.163  0.0823  0.1765  0.2643
   81DG     C18 1858   3.808   3.193   1.040 -0.5240  0.5014 -0.2535
   81DG     O19 1859   3.722   3.185   1.151 -0.5294  0.2689  0.3882
   81DG     H20 1860   3.614   3.018   1.077  0.0953  1.4997 -0.2683
   81DG     H21 1861   3.758   2.985   1.179  1.4034  1.6265 -0.6160
   81DG     H22 1862   3.761   3.151   0.951  0.2364 -0.7606 -0.0839
   81DG     H23 1863   3.894   3.130   1.061 -0.5771  0.4177 -0.2862
   82DG      C1 1864   1.722   0.493   4.128  0.2954  0.2040 -0.0555
   82DG      C2 1865   1.225   0.886   4.000 -0.2795  0.3168  0.1011
   82DG      H3 1866   1.632   0.432   4.135 -0.1891  0.8779 -0.2187
   82DG      H4 1867   1.793   0.468   4.207 -0.2121  1.9898  1.0278
   82DG      H5 1868   1.774   0.466   4.036 -0.2042 -1.1090  0.0254
   82DG      H6 1869   1.182   0.796   4.044  0.7484 -0.5824 -0.6833
   82DG      H7 1870   1.163   0.970   4.030  1.8244  1.0714  2.7574
   82DG      H8 1871   1.217   0.870   3.893  0.3822  0.4754  0.0200
   82DG      O9 1872   1.688   0.632   4.134  0.1899  0.0209 -0.3211
   82DG     O10 1873   1.365   0.891   4.020 -0.4364 -0.5312 -0.2805
   82DG     C11 1874   1.796   0.710   4.091  0.7926  0.5396 -0.4547
   82DG     C12 1875   1.439   0.996   3.945 -0.1916 -0.8156  0.2183
   82DG     H13 1876   1.824   0.698   3.986 -0.1501  3.7813 -1.2051
   82DG     H14 1877   1.882   0.687   4.153 -1.6101 -1.6601  2.3226
   82DG     H15 1878   1.386   1.091   3.945  0.8139 -0.2314  1.3025
   82DG     H16 1879   1.437   0.955   3.844 -2.2905 -1.0458  0.3064
   82DG     C17 1880   1.762   0.863   4.114 -0.0377  0.2526  0.7114
   82DG     C18 1881   1.580   1.007   4.010 -0.5624 -0.4417  0.3916
   82DG     O19 1882   1.639   0.877   4.038 -0.0791 -0.2288 -0.3117
   82DG     H20 1883   1.843   0.919   4.068 -0.4169 -0.2786 -0.6432
   82DG     H21 1884   1.742   0.897   4.216 -0.1692  3.5773 -0.3176
   82DG     H22 1885   1.649   1.055   3.942  0.5482 -1.2948  0.8868
   82DG     H23 1886   1.576   1.065   4.102  0.3538  0.2296  0.0164
   83DG      C1 1887   3.705   5.350   3.812 -0.1569 -0.6732 -0.1381
   83DG      C2 1888   3.405   5.043   3.444 -0.5166  0.5800  0.4470
   83DG      H3 1889   3.610   5.384   3.854  0.5974  2.6736 -0.8325
   83DG      H4 1890   3.727   5.421   3.732  0.6788 -0.5253  0.2122
   83DG      H5 1891   3.789   5.359   3.880  0.2889  0.2765 -0.7797
   83DG      H6 1892   3.461   5.075   3.357  1.1967 -2.6406  0.2269
   83DG      H7 1893   3.297   5.060   3.437 -0.5826  1.8620  3.1521
   83DG      H8 1894   3.432   5.107   3.527 -0.8498 -0.7987  1.6658
   83DG      O9 1895   3.702   5.213   3.773  0.0175 -0.5877 -0.0234
   83DG     O10 1896   3.438   4.907   3.481 -0.2468  0.1862 -0.0924
   83DG     C11 1897   3.695   5.130   3.894  0.0393  0.1866  0.2610
   83DG     C12 1898   3.387   4.860   3.605 -0.1210  0.0364 -0.6682
   83DG     H13 1899   3.605   5.164   3.946 -0.1215 -0.0386  0.1268
   83DG     H14 1900   3.777   5.135   3.966  0.0654  2.0845  0.1609
   83DG     H15 1901   3.342   4.761   3.593  0.5335 -0.3585  0.0746
   83DG     H16 1902   3.306   4.925   3.638 -1.6325 -0.6766 -2.7475
   83DG     C17 1903   3.668   4.988   3.836 -1.0116 -0.2581  0.0155
   83DG     C18 1904   3.503   4.851   3.712 -0.4403  0.2667 -0.0405
   83DG     O19 1905   3.565   4.979   3.735 -0.0456 -0.0704 -0.5878
   83DG     H20 1906   3.635   4.936   3.926 -2.2253  1.5027  0.6470
   83DG     H21 1907   3.759   4.943   3.797  0.0351  0.8957  1.0214
   83DG     H22 1908   3.473   4.811   3.808 -1.1550 -0.0355 -0.3875
   83DG     H23 1909   3.577   4.783   3.669 -0.7160 -0.2741  0.3311
   84DG      C1 1910   4.599   3.834   0.940 -0.0415 -0.2413 -0.3331
   84DG      C2 1911   5.103   3.534   1.279 -0.2833 -0.3073 -0.8788
   84DG      H3 1912   4.673   3.911   0.919 -0.6300 -0.1993 -2.4402
   84DG      H4 1913   4.532   3.859   1.022 -1.0713 -2.1463 -0.5284
   84DG      H5 1914   4.535   3.837   0.852 -0.3270 -0.4150 -0.1349
   84DG      H6 1915   5.183   3.584   1.223  0.0525 -0.6269 -0.6884
   84DG      H7 1916   5.069   3.604   1.354  0.8524  0.9891 -1.5270
   84DG      H8 1917   5.161   3.452   1.321  0.8110  0.5810 -0.6139
   84DG      O9 1918   4.661   3.708   0.962 -0.1499  0.4593 -0.2821
   84DG     O10 1919   5.000   3.487   1.196  0.3090 -0.1899  0.0240
   84DG     C11 1920   4.569   3.601   0.969  0.5177  0.0576 -0.3009
   84DG     C12 1921   4.893   3.418   1.256 -0.4025  0.1647 -0.1434
   84DG     H13 1922   4.508   3.586   0.880  1.0382 -4.1147 -0.1515
   84DG     H14 1923   4.502   3.613   1.054  0.7882 -0.8039  0.0423
   84DG     H15 1924   4.841   3.489   1.320  0.3501  0.9284 -0.3630
   84DG     H16 1925   4.934   3.342   1.323 -1.1489  0.7033  0.9448
   84DG     C17 1926   4.644   3.471   0.992  0.3985  0.1807 -0.0722
   84DG     C18 1927   4.785   3.378   1.151 -0.3921  0.2365 -0.4889
   84DG     O19 1928   4.746   3.493   1.084  0.1038  0.5309  0.4731
   84DG     H20 1929   4.684   3.445   0.894  0.1888 -2.5221  0.4651
   84DG     H21 1930   4.581   3.385   1.016 -0.2184  0.0746 -1.9076
   84DG     H22 1931   4.825   3.315   1.072  0.1808  0.5031 -0.4147
   84DG     H23 1932   4.706   3.328   1.208 -0.2208 -1.0459 -1.3175
   85DG      C1 1933   0.351   3.632   2.300 -0.5584 -0.4431 -0.5892
   85DG      C2 1934  -0.193   3.219   2.037 -0.0916 -0.3938  0.3387
   85DG      H3 1935   0.397   3.660   2.395 -1.3192  3.7616 -1.2511
   85DG      H4 1936   0.323   3.723   2.248  3.3176  0.8655 -0.6751
   85DG      H5 1937   0.423   3.585   2.234  1.5961  0.6928  0.8233
   85DG      H6 1938  -0.249   3.131   2.068 -1.7746  0.3572 -0.3876
   85DG      H7 1939  -0.268   3.284   1.991 -0.7954 -0.0434  1.8979
   85DG      H8 1940  -0.120   3.198   1.959  1.4878 -2.4345  2.2298
   85DG      O9 1941   0.247   3.538   2.335 -0.4711  0.2034  0.4579
   85DG     O10 1942  -0.129   3.283   2.140  0.3414 -0.0437  0.3333
   85DG     C11 1943   0.140   3.600   2.402 -0.2541  0.3440 -0.0700
   85DG     C12 1944  -0.217   3.329   2.242  0.0628  0.1380  0.0920
   85DG     H13 1945   0.101   3.684   2.345  3.6705  2.2062 -0.3389
   85DG     H14 1946   0.181   3.644   2.493 -2.3923 -0.4704  1.3645
   85DG     H15 1947  -0.284   3.249   2.273  0.9544  0.2854  2.6805
   85DG     H16 1948  -0.288   3.408   2.218  0.3464  0.8605  1.4694
   85DG     C17 1949   0.032   3.506   2.445  1.0928  0.4816 -0.9149
   85DG     C18 1950  -0.135   3.369   2.361  0.1396  0.1825 -0.0212
   85DG     O19 1951  -0.035   3.461   2.331  0.1846 -0.7238 -0.0461
   85DG     H20 1952  -0.041   3.553   2.510  0.6474  0.4835 -1.4091
   85DG     H21 1953   0.077   3.418   2.491  0.1606  0.6007  0.2688
   85DG     H22 1954  -0.205   3.401   2.437 -0.7475 -1.3174 -0.1651
   85DG     H23 1955  -0.084   3.288   2.414  1.4987  0.7496 -0.4106
   86DG      C1 1956   1.384   2.233   0.398 -0.0160  0.6244  0.1107
   86DG      C2 1957   0.873   1.819   0.370 -0.0817  0.3261 -0.0057
   86DG      H3 1958   1.465   2.162   0.377 -0.7329  0.0753 -0.8571
   86DG      H4 1959   1.374   2.238   0.507  2.7494 -0.8314  0.5312
   86DG      H5 1960   1.437   2.324   0.367  0.1539  0.0130 -1.4908
   86DG      H6 1961   0.967   1.765   0.382  0.2142  0.8317 -0.0527
   86DG      H7 1962   0.829   1.841   0.467 -1.2814 -0.7774 -0.2791
   86DG      H8 1963   0.805   1.752   0.318 -1.4018  0.6093  1.2746
   86DG      O9 1964   1.269   2.228   0.321 -0.2824  0.8196  0.4346
   86DG     O10 1965   0.909   1.936   0.294 -0.8598  0.5583  0.0606
   86DG     C11 1966   1.194   2.344   0.328 -0.4041  0.3165 -0.3417
   86DG     C12 1967   0.835   2.050   0.305  0.0375  0.2343 -0.0144
   86DG     H13 1968   1.248   2.426   0.280  0.0248  0.3494  0.1834
   86DG     H14 1969   1.176   2.374   0.431  0.4491 -0.2963 -0.0050
   86DG     H15 1970   0.836   2.088   0.408  1.3416 -1.4095  0.6164
   86DG     H16 1971   0.735   2.024   0.271  0.7537 -0.4807 -1.6591
   86DG     C17 1972   1.067   2.324   0.246 -0.3170  0.3045  1.1348
   86DG     C18 1973   0.894   2.153   0.211  0.4975  0.3300 -0.0781
   86DG     O19 1974   1.014   2.196   0.272 -0.1179  0.6958  0.1901
   86DG     H20 1975   1.093   2.331   0.141 -0.6408 -0.2545  1.0112
   86DG     H21 1976   0.995   2.401   0.273 -1.2515 -0.3225  0.5255
   86DG     H22 1977   0.907   2.110   0.112 -0.8701 -3.1691  1.0838
   86DG     H23 1978   0.831   2.238   0.186  1.1552  0.8621  0.0655
   87DG      C1 1979   4.156   4.227   4.656 -0.1532 -0.4749 -0.0447
   87DG      C2 1980   4.662   3.871   4.436  0.3704 -0.0379  0.8189
   87DG      H3 1981   4.208   4.293   4.587 -0.9080  1.2633  0.9758
   87DG      H4 1982   4.099   4.294   4.721  0.7433  1.4183 -1.1126
   87DG      H5 1983   4.097   4.151   4.605 -0.5354 -0.4516  0.3581
   87DG      H6 1984   4.574   3.881   4.372  0.5454 -1.3432  0.3490
   87DG      H7 1985   4.744   3.917   4.380 -2.1721  1.3090 -2.1458
   87DG      H8 1986   4.683   3.768   4.461  2.1856  0.2983  0.8365
   87DG      O9 1987   4.265   4.160   4.723  0.2509  0.1207 -0.4545
   87DG     O10 1988   4.626   3.943   4.547  0.3420 -0.2134 -0.1580
   87DG     C11 1989   4.359   4.233   4.796  0.2017 -0.7996 -0.8354
   87DG     C12 1990   4.700   3.915   4.668 -0.3633 -1.1938  0.3723
   87DG     H13 1991   4.298   4.266   4.881 -0.6314 -1.1985 -1.2718
   87DG     H14 1992   4.393   4.322   4.743 -0.4217 -1.3191 -2.1439
   87DG     H15 1993   4.794   3.970   4.667 -1.7994  1.3850 -0.3258
   87DG     H16 1994   4.723   3.809   4.682  1.2604 -1.0403 -0.7673
   87DG     C17 1995   4.470   4.143   4.857  0.0193  0.5678 -0.5545
   87DG     C18 1996   4.614   3.969   4.783 -0.8088  0.7248 -0.6375
   87DG     O19 1997   4.552   4.092   4.750 -0.1587  0.5178  0.3971
   87DG     H20 1998   4.423   4.059   4.909  0.5642  0.0912 -0.8109
   87DG     H21 1999   4.540   4.195   4.922 -0.0485  1.6555 -1.3197
   87DG     H22 2000   4.532   3.900   4.800  0.6070 -0.4255  2.0947
   87DG     H23 2001   4.678   3.964   4.871  2.0569  0.4702 -2.5959
   88DG      C1 2002   3.047   5.066   4.726 -0.3696 -0.2272  0.3997
   88DG      C2 2003   3.252   5.090   5.326 -0.4742 -0.1950 -0.6720
   88DG      H3 2004   3.068   4.984   4.657  1.4948  1.8191 -1.6674
   88DG      H4 2005   3.025   5.153   4.665  0.3040 -1.6474 -2.0278
   88DG      H5 2006   2.964   5.031   4.786 -0.7827 -1.2911 -0.7348
   88DG      H6 2007   3.187   5.003   5.317  0.3467 -0.8194 -0.7081
   88DG      H7 2008   3.329   5.068   5.400 -0.4850  1.3338 -0.1713
   88DG      H8 2009   3.192   5.170   5.368 -0.1182 -0.0758 -0.3880
   88DG      O9 2010   3.170   5.076   4.802  0.0910  0.1768  0.4344
   88DG     O10 2011   3.309   5.118   5.194  0.0758  0.2783  0.0643
   88DG     C11 2012   3.283   5.134   4.731  0.1684  0.0450  0.0771
   88DG     C12 2013   3.379   5.240   5.190 -0.1046 -0.3281 -0.1638
   88DG     H13 2014   3.242   5.220   4.677  1.3328 -0.3452 -1.5067
   88DG     H14 2015   3.323   5.069   4.654  1.0593  0.0955  0.4852
   88DG     H15 2016   3.451   5.265   5.268  1.9280 -2.1355 -1.3399
   88DG     H16 2017   3.309   5.324   5.193  1.8722  1.4038 -0.4980
   88DG     C17 2018   3.397   5.167   4.829  0.0537  0.2560  0.9710
   88DG     C18 2019   3.437   5.261   5.049 -0.3000  0.4900 -0.0478
   88DG     O19 2020   3.343   5.234   4.947  0.2747  0.2943 -0.4831
   88DG     H20 2021   3.478   5.221   4.781  1.5878 -0.1927  2.8881
   88DG     H21 2022   3.438   5.071   4.862 -2.8601 -0.4064  3.0923
   88DG     H22 2023   3.473   5.362   5.031  1.7060 -0.2000 -0.1837
   88DG     H23 2024   3.531   5.205   5.052  0.0423  0.9637 -1.3114
   89DG      C1 2025   5.498   2.474   2.038 -0.0536 -0.0239 -0.5562
   89DG      C2 2026   5.476   3.007   2.402 -0.0104 -0.0107  0.3697
   89DG      H3 2027   5.410   2.527   1.999 -0.3512 -1.7003 -2.3030
   89DG      H4 2028   5.483   2.379   2.088 -0.2543 -0.6882 -1.8281
   89DG      H5 2029   5.553   2.439   1.951  0.4566  1.9780 -1.1091
   89DG      H6 2030   5.439   2.977   2.500 -1.1553 -0.9935 -0.3360
   89DG      H7 2031   5.529   3.101   2.416 -2.4155  1.0487  3.2474
   89DG      H8 2032   5.398   3.021   2.327  0.6122  0.0115 -0.2925
   89DG      O9 2033   5.574   2.547   2.135 -0.2573 -0.4648 -0.0353
   89DG     O10 2034   5.573   2.927   2.345  0.1540  0.1241  0.0730
   89DG     C11 2035   5.702   2.498   2.180  0.4333 -0.4081  0.6966
   89DG     C12 2036   5.681   2.904   2.433  0.4060  0.9403 -0.3096
   89DG     H13 2037   5.764   2.458   2.100 -0.9726  1.4560 -1.4705
   89DG     H14 2038   5.693   2.435   2.268  1.0712 -0.5408  0.6642
   89DG     H15 2039   5.639   2.867   2.527  1.0034  1.7415  0.2924
   89DG     H16 2040   5.734   2.994   2.465  0.7809 -0.2863  2.9543
   89DG     C17 2041   5.783   2.620   2.217 -0.2105  0.5051  0.1294
   89DG     C18 2042   5.787   2.806   2.363  0.0177 -0.3533 -0.1955
   89DG     O19 2043   5.715   2.699   2.310 -0.4186 -0.3088  0.2172
   89DG     H20 2044   5.780   2.679   2.125 -1.3399 -0.3846 -0.4405
   89DG     H21 2045   5.888   2.606   2.242 -0.1204 -0.0177 -0.5032
   89DG     H22 2046   5.847   2.859   2.289  0.2761 -0.3155  0.0404
   89DG     H23 2047   5.854   2.782   2.445  0.1906  1.8040  0.3469
   90DG      C1 2048   0.872   1.471   2.908  0.0554  0.1439  0.1624
   90DG      C2 2049   0.848   1.114   2.482 -0.1395  0.4479 -0.1088
   90DG      H3 2050   0.793   1.513   2.847  1.1170  0.9342 -0.7037
   90DG      H4 2051   0.932   1.540   2.968  1.0934 -0.0237 -0.6667
   90DG      H5 2052   0.807   1.415   2.975 -4.2479  2.7568 -1.4206
   90DG      H6 2053   0.879   1.213   2.448  0.0794 -0.2831 -2.1965
   90DG      H7 2054   0.868   1.040   2.404 -1.3789  1.8517 -1.8441
   90DG      H8 2055   0.745   1.122   2.516 -0.7453  1.4709 -2.0065
   90DG      O9 2056   0.946   1.374   2.842  0.5836 -0.3627 -0.2559
   90DG     O10 2057   0.929   1.075   2.591  0.3763 -0.2014  0.1156
   90DG     C11 2058   0.997   1.405   2.712  0.3110 -0.3075  0.1686
   90DG     C12 2059   1.060   1.042   2.540 -0.0986 -0.7004 -0.7982
   90DG     H13 2060   1.039   1.505   2.710  1.1289 -0.6491 -2.4133
   90DG     H14 2061   0.913   1.406   2.643  0.0579 -1.6187  0.4283
   90DG     H15 2062   1.074   1.111   2.457 -1.5038  1.9081  0.9801
   90DG     H16 2063   1.062   0.939   2.504  0.5730 -1.7385  1.9537
   90DG     C17 2064   1.109   1.309   2.667  0.1608 -0.4562 -0.3107
   90DG     C18 2065   1.169   1.077   2.655  0.2455  0.2011  0.8650
   90DG     O19 2066   1.115   1.185   2.729 -0.2625  0.8107  0.0821
   90DG     H20 2067   1.200   1.368   2.681 -0.1972  0.6469 -2.2032
   90DG     H21 2068   1.109   1.295   2.559  2.9512  0.9989 -0.5874
   90DG     H22 2069   1.208   0.998   2.720  1.2683 -1.9917 -2.1644
   90DG     H23 2070   1.263   1.103   2.605 -0.9071  1.1615 -0.9297
   91DG      C1 2071   3.302   5.326   0.603 -0.0725 -0.5787  0.1919
   91DG      C2 2072   3.820   5.002   0.352  0.3532  0.2417 -1.0664
   91DG      H3 2073   3.289   5.391   0.516 -0.8888  0.3647  1.0022
   91DG      H4 2074   3.266   5.377   0.692  0.2602  0.1922 -0.1103
   91DG      H5 2075   3.222   5.253   0.587 -0.6024 -0.4568  2.0656
   91DG      H6 2076   3.817   5.086   0.281  1.3762  0.5294 -0.7887
   91DG      H7 2077   3.923   4.966   0.358  0.1662 -0.0603  0.6983
   91DG      H8 2078   3.757   4.921   0.318  0.8978 -0.2168 -0.9980
   91DG      O9 2079   3.432   5.272   0.621  0.0674  0.3687 -0.7388
   91DG     O10 2080   3.769   5.045   0.483 -0.1157 -0.5581  0.4624
   91DG     C11 2081   3.458   5.250   0.759  0.2563 -0.8928  0.4826
   91DG     C12 2082   3.785   4.952   0.590  0.2513 -0.4140 -0.3953
   91DG     H13 2083   3.386   5.180   0.801  1.5481 -3.6334 -1.5124
   91DG     H14 2084   3.445   5.345   0.811 -1.8782 -1.6327  1.3983
   91DG     H15 2085   3.882   4.908   0.614 -0.8653 -1.7108  2.0410
   91DG     H16 2086   3.721   4.866   0.575 -1.3638  0.6785  0.0520
   91DG     C17 2087   3.597   5.193   0.788 -1.1398  0.7178  0.0470
   91DG     C18 2088   3.744   5.029   0.714 -0.4918 -0.5130 -0.6213
   91DG     O19 2089   3.626   5.099   0.688 -0.0970  0.2769  0.9180
   91DG     H20 2090   3.593   5.147   0.887  1.9655 -2.4919 -1.1070
   91DG     H21 2091   3.671   5.273   0.792  0.6886 -0.9344  0.1886
   91DG     H22 2092   3.726   4.961   0.797 -1.4011  0.2671 -0.1602
   91DG     H23 2093   3.825   5.092   0.749  0.0490 -0.4481 -1.9444
   92DG      C1 2094   1.655   0.378   0.346  0.0751  0.2277  0.1486
   92DG      C2 2095   2.269   0.314   0.174  0.3116  0.2498  0.3841
   92DG      H3 2096   1.551   0.346   0.334 -0.6695  2.8928 -1.0586
   92DG      H4 2097   1.668   0.471   0.291 -1.3497  1.1817  1.3425
   92DG      H5 2098   1.672   0.397   0.452 -0.2738 -1.2155  0.5005
   92DG      H6 2099   2.351   0.292   0.243 -0.8363 -1.7775  1.1875
   92DG      H7 2100   2.294   0.322   0.068  1.6584  3.1727  0.8154
   92DG      H8 2101   2.241   0.417   0.197  1.6425  0.3136  1.9217
   92DG      O9 2102   1.751   0.283   0.304 -0.0710  0.5275 -0.3552
   92DG     O10 2103   2.164   0.223   0.213 -0.6511 -0.0680  0.5957
   92DG     C11 2104   1.728   0.151   0.332  0.2494  1.1286 -0.2781
   92DG     C12 2105   2.148   0.120   0.122  0.6791  0.5960  0.7607
   92DG     H13 2106   1.629   0.106   0.328  0.3910  0.8774 -1.0175
   92DG     H14 2107   1.776   0.136   0.429 -1.3292  0.3123  0.4110
   92DG     H15 2108   2.241   0.065   0.111 -0.2263 -0.7195 -0.6649
   92DG     H16 2109   2.120   0.167   0.028  0.0464 -1.8047 -0.3493
   92DG     C17 2110   1.816   0.063   0.244 -0.2235  0.9784  0.9269
   92DG     C18 2111   2.030   0.039   0.167  0.4345 -0.5863  0.2595
   92DG     O19 2112   1.942   0.124   0.230  0.2912 -0.0181 -0.5223
   92DG     H20 2113   1.780   0.062   0.141  0.2832 -0.8640  0.7396
   92DG     H21 2114   1.820  -0.038   0.283  0.1889  0.7585  0.3307
   92DG     H22 2115   1.991  -0.007   0.076  1.1518 -0.6389 -0.0307
   92DG     H23 2116   2.066  -0.038   0.235  1.1291 -0.1932  0.3447
   93DG      C1 2117   0.769   3.165   1.231  0.6262  0.2684  0.0087
   93DG      C2 2118   0.518   3.481   1.762  0.0430 -0.0867 -0.5480
   93DG      H3 2119   0.755   3.259   1.177  0.3077  0.8333  1.0464
   93DG      H4 2120   0.780   3.073   1.173  3.0941  0.9097 -0.6385
   93DG      H5 2121   0.874   3.172   1.259 -0.1134 -0.4951  3.2978
   93DG      H6 2122   0.435   3.505   1.828  1.6810  1.4202  1.1067
   93DG      H7 2123   0.588   3.443   1.837 -1.8676  0.7357  1.7832
   93DG      H8 2124   0.555   3.576   1.725  0.0182 -0.5519 -1.7996
   93DG      O9 2125   0.665   3.146   1.329  0.5980  0.5470  0.4578
   93DG     O10 2126   0.488   3.378   1.664 -0.0866  0.1424  0.1048
   93DG     C11 2127   0.662   3.032   1.407  0.0833 -0.1382 -0.2490
   93DG     C12 2128   0.414   3.279   1.725  0.4546  0.6658 -0.1074
   93DG     H13 2129   0.746   3.014   1.473 -0.7612  2.7607  1.8167
   93DG     H14 2130   0.665   2.948   1.338  2.2232  0.1040 -0.5446
   93DG     H15 2131   0.316   3.320   1.750  0.7694  1.2661  0.1578
   93DG     H16 2132   0.457   3.248   1.820 -0.2168 -1.9993 -0.5947
   93DG     C17 2133   0.531   3.026   1.478  0.0103 -0.3706 -0.5279
   93DG     C18 2134   0.399   3.156   1.625 -0.4728  0.1029 -0.3563
   93DG     O19 2135   0.530   3.131   1.576 -0.7945 -0.4663 -0.2484
   93DG     H20 2136   0.503   2.931   1.523  0.8528 -0.0256  0.7869
   93DG     H21 2137   0.460   3.066   1.406  1.3406 -0.8721 -2.1602
   93DG     H22 2138   0.359   3.068   1.676  0.2596  0.5992  1.1546
   93DG     H23 2139   0.340   3.175   1.536  0.6559 -0.0476 -1.1542
   94DG      C1 2140   2.085   4.163   3.589  0.0219  0.2950 -0.6734
   94DG      C2 2141   2.155   4.524   3.168  0.1355 -0.0000  0.1169
   94DG      H3 2142   2.175   4.103   3.603 -0.1838 -0.1462 -1.1951
   94DG      H4 2143   2.004   4.109   3.638  1.4524  0.2551  1.7911
   94DG      H5 2144   2.095   4.254   3.647  0.0618 -0.2915  0.2626
   94DG      H6 2145   2.217   4.516   3.079 -1.3948  0.1383 -1.0099
   94DG      H7 2146   2.177   4.605   3.237  0.7165 -0.1857  0.1514
   94DG      H8 2147   2.196   4.438   3.220  0.4193  0.2821  0.3600
   94DG      O9 2148   2.072   4.191   3.451  0.4689  0.1227  0.0786
   94DG     O10 2149   2.013   4.503   3.140 -0.0831 -0.1604 -0.4974
   94DG     C11 2150   2.055   4.076   3.376  0.5157 -0.0480 -0.6379
   94DG     C12 2151   1.971   4.405   3.042 -0.3211  0.0426 -0.5993
   94DG     H13 2152   1.954   4.040   3.397 -0.6946  2.1858 -2.2024
   94DG     H14 2153   2.115   3.992   3.410  0.5149  0.0529 -0.3868
   94DG     H15 2154   2.017   4.450   2.954  0.4946  1.9975  0.7505
   94DG     H16 2155   1.864   4.399   3.023 -0.3225  0.7504 -0.8193
   94DG     C17 2156   2.055   4.105   3.224 -0.3834  0.2170  0.4298
   94DG     C18 2157   2.028   4.270   3.061  0.1812  0.1720  0.1286
   94DG     O19 2158   1.983   4.227   3.188 -0.2012  0.1944  0.0051
   94DG     H20 2159   2.001   4.036   3.160  0.8267 -0.1397 -0.2452
   94DG     H21 2160   2.156   4.097   3.183 -0.0541  1.6024  0.9018
   94DG     H22 2161   2.004   4.196   2.985 -1.8412 -0.3179  1.1774
   94DG     H23 2162   2.136   4.286   3.066  1.0273 -2.7227 -4.0966
   95DG      C1 2163   3.781   2.295   2.543  0.1096 -0.4267  0.2079
   95DG      C2 2164   4.298   2.310   2.106 -0.2823 -0.8660  0.0391
   95DG      H3 2165   3.827   2.206   2.586 -0.2585 -0.6878  0.0659
   95DG      H4 2166   3.678   2.300   2.577 -0.0946  2.2947 -0.5274
   95DG      H5 2167   3.827   2.386   2.581  0.3316 -1.2272  1.9427
   95DG      H6 2168   4.331   2.272   2.009 -0.4198 -0.0538 -0.3327
   95DG      H7 2169   4.340   2.410   2.117 -0.7468 -0.7248  0.5540
   95DG      H8 2170   4.339   2.250   2.187 -0.4269  0.7042  1.3281
   95DG      O9 2171   3.801   2.290   2.404  0.3965  0.3894 -0.4810
   95DG     O10 2172   4.154   2.298   2.120 -0.7623  0.0460  0.0375
   95DG     C11 2173   3.762   2.412   2.343 -0.0058 -0.2734 -0.0725
   95DG     C12 2174   4.091   2.361   2.010 -0.4981 -0.0918  0.3677
   95DG     H13 2175   3.826   2.499   2.356  0.3933 -0.7881  1.5975
   95DG     H14 2176   3.658   2.441   2.356 -0.0673 -0.2030 -0.6695
   95DG     H15 2177   4.122   2.317   1.915  0.9169  0.2918  0.6282
   95DG     H16 2178   4.123   2.465   2.009  2.4663 -0.9068  1.2351
   95DG     C17 2179   3.773   2.385   2.190  0.5079  0.0228  0.7958
   95DG     C18 2180   3.945   2.339   2.029  0.5542 -0.4886 -0.5313
   95DG     O19 2181   3.912   2.372   2.167  0.4693  0.0657  0.5792
   95DG     H20 2182   3.722   2.464   2.135 -1.5158 -1.4342  0.4522
   95DG     H21 2183   3.716   2.297   2.158 -0.9362  0.4614  2.0595
   95DG     H22 2184   3.896   2.408   1.960 -0.4049 -0.5430  0.0682
   95DG     H23 2185   3.917   2.238   1.999 -1.1113  0.0299 -0.8583
   96DG      C1 2186   1.111   5.221   2.568  0.0467  0.1981 -0.3239
   96DG      C2 2187   1.539   4.575   2.822 -0.8029 -0.0619 -0.7875
   96DG      H3 2188   1.068   5.217   2.667 -0.6338 -0.6270 -0.6419
   96DG      H4 2189   1.066   5.137   2.516 -1.5187  1.3649 -0.9181
   96DG      H5 2190   1.075   5.315   2.526 -1.6116 -0.6038 -0.7784
   96DG      H6 2191   1.542   4.577   2.931  0.0140 -2.3180 -0.7118
   96DG      H7 2192   1.452   4.525   2.781 -2.2311  0.6730  1.1908
   96DG      H8 2193   1.620   4.503   2.810  0.0343  0.4625  1.2643
   96DG      O9 2194   1.252   5.197   2.559  0.0825 -0.0107 -0.4514
   96DG     O10 2195   1.565   4.699   2.776  0.1574  0.2184  0.8451
   96DG     C11 2196   1.302   5.079   2.628  0.4697 -0.2468 -0.7962
   96DG     C12 2197   1.578   4.704   2.633 -0.4462  0.0276  0.3653
   96DG     H13 2198   1.246   4.995   2.588 -0.2011 -1.1729  1.8882
   96DG     H14 2199   1.284   5.081   2.736  0.0251  0.9696 -0.8819
   96DG     H15 2200   1.490   4.666   2.581 -2.5062  1.7928  2.3457
   96DG     H16 2201   1.672   4.656   2.605 -1.2457 -0.5704 -1.3793
   96DG     C17 2202   1.450   5.048   2.603 -0.2731  0.4667  0.1872
   96DG     C18 2203   1.586   4.849   2.581 -0.2035  0.1768 -0.4150
   96DG     O19 2204   1.460   4.905   2.615 -0.4470  0.3620  0.6204
   96DG     H20 2205   1.514   5.090   2.680  0.8422 -2.8661  1.2909
   96DG     H21 2206   1.480   5.081   2.503  0.9491 -0.0689  0.3493
   96DG     H22 2207   1.671   4.904   2.623  0.1310  1.2526 -2.3867
   96DG     H23 2208   1.602   4.845   2.474 -0.5071  0.5689 -0.4753
   97DG      C1 2209   5.108   4.498   1.022 -0.8405  0.3145  0.6141
   97DG      C2 2210   4.580   4.912   1.039  0.3853 -0.8108 -0.4507
   97DG      H3 2211   5.187   4.429   1.054  0.3467  1.6870  0.7676
   97DG      H4 2212   5.151   4.562   0.945 -0.9327  0.1376  0.4148
   97DG      H5 2213   5.028   4.438   0.978 -0.6714 -1.0713  2.0997
   97DG      H6 2214   4.547   4.990   1.108  0.4298 -0.4952 -0.7776
   97DG      H7 2215   4.572   4.963   0.942 -2.7897 -1.6793 -0.7765
   97DG      H8 2216   4.512   4.827   1.038 -0.3141 -0.2859  0.8705
   97DG      O9 2217   5.055   4.569   1.130  0.1930 -0.5087  0.0280
   97DG     O10 2218   4.717   4.877   1.045  0.2258 -0.1511 -0.1105
   97DG     C11 2219   5.133   4.681   1.165 -0.3461 -0.2950 -0.0869
   97DG     C12 2220   4.799   4.977   1.101 -0.5613  0.1036  0.5726
   97DG     H13 2221   5.175   4.744   1.087  0.4824 -1.1168 -0.3198
   97DG     H14 2222   5.220   4.643   1.219 -1.4431 -2.0294  0.5623
   97DG     H15 2223   4.757   5.001   1.199 -3.4407  1.6663 -0.9292
   97DG     H16 2224   4.803   5.067   1.041 -0.2128  0.7768  1.5806
   97DG     C17 2225   5.054   4.759   1.265 -0.0509 -0.1593 -0.4880
   97DG     C18 2226   4.938   4.912   1.126  0.5138  0.1539  0.1802
   97DG     O19 2227   4.927   4.805   1.221  0.1750 -0.3017  0.3955
   97DG     H20 2228   5.116   4.842   1.300 -1.1307  0.7866 -0.7589
   97DG     H21 2229   5.048   4.696   1.354  1.4996 -1.4488 -1.2371
   97DG     H22 2230   4.977   4.881   1.029 -0.9498 -2.3322  0.2977
   97DG     H23 2231   5.003   4.988   1.169  0.3912  1.5261 -1.9235
   98DG      C1 2232   4.156   2.023   1.797 -0.0700  1.2653 -0.0961
   98DG      C2 2233   4.416   1.436   1.561 -1.0924 -0.1127 -0.2223
   98DG      H3 2234   4.241   2.048   1.862 -1.1052  0.5250  1.6163
   98DG      H4 2235   4.082   2.098   1.825  1.0770  2.2952  0.2680
   98DG      H5 2236   4.192   2.035   1.695  1.6487 -3.0602 -0.2266
   98DG      H6 2237   4.505   1.497   1.544 -0.4867 -0.9088  0.0780
   98DG      H7 2238   4.428   1.363   1.640 -2.2371  1.1572  1.1831
   98DG      H8 2239   4.399   1.393   1.462 -2.6961  1.0620 -0.5051
   98DG      O9 2240   4.113   1.886   1.817  0.3257  0.1502  0.3907
   98DG     O10 2241   4.315   1.525   1.609  0.4379  0.1907  0.0458
   98DG     C11 2242   4.003   1.864   1.746 -0.1618  0.1805  0.5222
   98DG     C12 2243   4.191   1.464   1.584 -0.0807  0.0950  0.3478
   98DG     H13 2244   4.010   1.904   1.645  1.6482  0.2088  0.6149
   98DG     H14 2245   3.919   1.925   1.780 -0.2608 -0.5486  1.6068
   98DG     H15 2246   4.200   1.355   1.583 -2.0797 -0.1186  0.8950
   98DG     H16 2247   4.167   1.489   1.481  0.1259  0.9284  0.4934
   98DG     C17 2248   3.977   1.711   1.739  0.0937 -0.5767  0.8234
   98DG     C18 2249   4.074   1.510   1.673 -1.0102 -0.0418  0.2514
   98DG     O19 2250   4.095   1.642   1.700 -0.4355  0.3629  0.3394
   98DG     H20 2251   3.890   1.692   1.675  1.1051  0.1825 -0.8461
   98DG     H21 2252   3.945   1.678   1.837  0.1751 -0.1173  1.0076
   98DG     H22 2253   3.984   1.503   1.612  1.0440  1.2573 -3.2067
   98DG     H23 2254   4.085   1.456   1.767  2.7799 -0.6035 -0.3754
   99DG      C1 2255   1.683   4.522   4.102  0.3951  0.4741 -0.0238
   99DG      C2 2256   1.742   5.235   3.947  0.1264 -0.7591  0.0300
   99DG      H3 2257   1.738   4.429   4.115 -1.4262 -0.5252  0.9368
   99DG      H4 2258   1.618   4.507   4.016 -0.6623  0.8591  0.6875
   99DG      H5 2259   1.616   4.517   4.188 -0.4342  0.3423 -0.6659
   99DG      H6 2260   1.737   5.300   4.034  1.0649  0.2015 -0.6039
   99DG      H7 2261   1.810   5.279   3.873 -0.0789  1.1768  0.9201
   99DG      H8 2262   1.650   5.242   3.890  0.5528 -0.1440 -0.6067
   99DG      O9 2263   1.771   4.637   4.105 -0.0357 -0.7120 -0.0582
   99DG     O10 2264   1.784   5.104   3.988  0.2242 -0.3732  0.0784
   99DG     C11 2265   1.890   4.628   4.021  0.3602 -0.1663  0.0218
   99DG     C12 2266   1.930   5.100   4.002 -0.3770  0.6980 -1.1326
   99DG     H13 2267   1.865   4.597   3.920  1.3603 -0.3826 -0.1716
   99DG     H14 2268   1.936   4.533   4.048  1.7471  0.9400  1.8000
   99DG     H15 2269   1.971   5.188   4.051 -0.7438  0.1440  0.2241
   99DG     H16 2270   1.979   5.090   3.905  0.1944  0.0079 -0.7756
   99DG     C17 2271   1.984   4.741   4.027  0.0120  0.8896  0.5803
   99DG     C18 2272   1.954   4.968   4.076 -0.3990  0.0375 -0.0011
   99DG     O19 2273   1.903   4.858   4.002  0.6118  0.1481 -0.1284
   99DG     H20 2274   2.064   4.746   3.953  1.2994  1.4290  1.9582
   99DG     H21 2275   2.034   4.751   4.123  1.5171  0.3911 -0.1315
   99DG     H22 2276   2.062   4.968   4.094 -0.2993  1.0390 -0.5731
   99DG     H23 2277   1.921   4.971   4.180 -1.0116  0.6541 -0.2096
  100DG      C1 2278   2.047   2.791   3.502  0.2090  0.4358 -0.1335
  100DG      C2 2279   2.388   2.686   2.955 -0.4142 -0.1572 -0.0034
  100DG      H3 2280   2.125   2.866   3.517 -0.9085  1.1224  3.2478
  100DG      H4 2281   2.103   2.703   3.534 -0.7821 -0.6764 -1.3633
  100DG      H5 2282   1.961   2.815   3.565  0.8908  1.8993  0.3052
  100DG      H6 2283   2.417   2.742   2.866  0.1494  1.5663  1.2214
  100DG      H7 2284   2.471   2.690   3.025  0.0460 -0.6051 -0.5119
  100DG      H8 2285   2.373   2.580   2.934 -4.8838  0.1288  0.7925
  100DG      O9 2286   1.998   2.785   3.367  0.6697  0.4520  0.3913
  100DG     O10 2287   2.281   2.752   3.022  0.3202 -0.1335  0.2367
  100DG     C11 2288   1.930   2.661   3.335  0.0315 -0.0555  0.1634
  100DG     C12 2289   2.177   2.788   2.932 -0.0406  0.5358 -0.2020
  100DG     H13 2290   1.830   2.649   3.375 -0.1988  1.5110  0.1230
  100DG     H14 2291   1.978   2.570   3.372 -1.2254 -0.8485 -0.0998
  100DG     H15 2292   2.198   2.741   2.836  1.9567  0.6061  0.1650
  100DG     H16 2293   2.162   2.895   2.915 -0.0717  0.4151 -0.9601
  100DG     C17 2294   1.926   2.671   3.179  0.0965 -0.6716 -0.4968
  100DG     C18 2295   2.044   2.733   2.985 -0.1960  0.4437  0.4941
  100DG     O19 2296   2.043   2.729   3.126  0.6243  0.5534  0.1067
  100DG     H20 2297   1.844   2.734   3.144  2.5082  1.7662 -2.2414
  100DG     H21 2298   1.909   2.574   3.134 -1.0676  0.3006 -2.2452
  100DG     H22 2299   1.964   2.794   2.942 -0.1488  0.7294  0.8078
  100DG     H23 2300   2.016   2.634   2.950 -1.8228  1.9079 -2.7318
  101DG      C1 2301   2.048   2.755   1.804 -0.4850 -0.3292  0.3307
  101DG      C2 2302   1.365   2.795   1.905 -0.2671 -0.0069  0.8843
  101DG      H3 2303   2.097   2.679   1.742 -0.3633  0.1314 -0.1491
  101DG      H4 2304   2.131   2.781   1.870 -0.5455 -2.2316  1.2376
  101DG      H5 2305   2.027   2.839   1.738  3.3200 -0.6226 -1.5596
  101DG      H6 2306   1.272   2.775   1.959  0.2719 -0.7042  1.5622
  101DG      H7 2307   1.381   2.903   1.894  0.5926 -0.3114 -1.5658
  101DG      H8 2308   1.354   2.760   1.802 -0.2643  3.4076 -0.4348
  101DG      O9 2309   1.932   2.707   1.863  0.6553 -0.0632 -0.0355
  101DG     O10 2310   1.475   2.736   1.971 -0.3341 -0.1135  0.5049
  101DG     C11 2311   1.943   2.573   1.916  0.6702  0.1519 -0.1809
  101DG     C12 2312   1.463   2.592   1.985  0.6894 -0.5136  0.1454
  101DG     H13 2313   2.039   2.560   1.966  1.1153  3.7069  0.1283
  101DG     H14 2314   1.933   2.499   1.836 -0.1804 -0.5552  0.5651
  101DG     H15 2315   1.434   2.548   1.889 -0.2957  2.3071 -0.9566
  101DG     H16 2316   1.387   2.567   2.059 -0.6444  0.2059 -0.9401
  101DG     C17 2317   1.826   2.552   2.019 -0.0137  0.7704 -0.1122
  101DG     C18 2318   1.594   2.547   2.037  0.2232  0.4317 -0.0659
  101DG     O19 2319   1.703   2.594   1.959  0.4488  0.3031 -0.4357
  101DG     H20 2320   1.850   2.615   2.104  0.5301  1.3085 -0.6616
  101DG     H21 2321   1.819   2.445   2.042  1.8007  0.2457 -1.7970
  101DG     H22 2322   1.599   2.582   2.139  0.5990 -0.5628  0.2708
  101DG     H23 2323   1.584   2.438   2.043 -0.1724  0.4503 -0.3455
  102DG      C1 2324   0.432   1.113   1.661  0.2230 -0.0758  0.2029
  102DG      C2 2325  -0.246   1.081   1.586 -0.0849  0.6937 -0.5708
  102DG      H3 2326   0.401   1.216   1.680 -0.4233 -0.5368  1.8488
  102DG      H4 2327   0.530   1.101   1.615  0.1064  2.5288 -0.9065
  102DG      H5 2328   0.429   1.065   1.759  0.3980  1.7808  1.1740
  102DG      H6 2329  -0.331   1.062   1.521  0.4655 -0.2591 -1.0377
  102DG      H7 2330  -0.276   1.048   1.686 -1.7841 -0.2167 -1.3392
  102DG      H8 2331  -0.247   1.186   1.614 -1.8886  0.1963  1.4490
  102DG      O9 2332   0.335   1.036   1.587 -0.1126  0.1844  0.6606
  102DG     O10 2333  -0.119   1.027   1.556  0.3870 -0.0187 -0.0045
  102DG     C11 2334   0.346   0.892   1.589 -0.1159  0.1347  0.6316
  102DG     C12 2335  -0.129   0.889   1.541 -0.0602  0.1518 -0.5033
  102DG     H13 2336   0.352   0.846   1.688 -1.0269  0.3892  0.8198
  102DG     H14 2337   0.446   0.873   1.550 -0.7239  0.0330 -0.9659
  102DG     H15 2338  -0.210   0.858   1.474 -1.4421  1.8477  0.2937
  102DG     H16 2339  -0.152   0.840   1.636  2.7777 -0.5240 -0.0823
  102DG     C17 2340   0.239   0.828   1.502  0.0123  0.0676  0.3504
  102DG     C18 2341   0.005   0.847   1.478  0.7904  0.3483  0.3845
  102DG     O19 2342   0.119   0.877   1.558 -0.0957  0.1445 -0.8455
  102DG     H20 2343   0.253   0.722   1.522  1.3851 -0.1947 -1.7221
  102DG     H21 2344   0.254   0.856   1.398  0.9995  2.9079  1.1774
  102DG     H22 2345   0.002   0.738   1.467  0.8051  0.2476  1.2807
  102DG     H23 2346   0.008   0.872   1.372  0.2363 -0.1267  0.2491
  103DG      C1 2347   0.238   1.073   5.248  0.2090 -0.2572 -0.7996
  103DG      C2 2348   0.702   1.300   4.777  0.0044 -0.3054 -0.8539
  103DG      H3 2349   0.258   0.970   5.277  0.5367  0.1428  0.4549
  103DG      H4 2350   0.168   1.070   5.165  1.5186  0.0731 -1.9479
  103DG      H5 2351   0.183   1.129   5.323  1.3511 -0.2846  0.0889
  103DG      H6 2352   0.766   1.212   4.788  0.9018  0.5267  1.0021
  103DG      H7 2353   0.635   1.283   4.692  0.1960 -2.2627 -0.6701
  103DG      H8 2354   0.766   1.384   4.749  0.0214  0.6977  1.9244
  103DG      O9 2355   0.352   1.155   5.216 -0.0641  0.6509 -0.8526
  103DG     O10 2356   0.637   1.335   4.903 -0.2785 -0.0558  0.1703
  103DG     C11 2357   0.433   1.184   5.325 -0.4842 -0.3177 -0.5534
  103DG     C12 2358   0.725   1.389   5.000  0.4904  0.1266  0.2750
  103DG     H13 2359   0.490   1.094   5.348 -0.0601  0.0316 -0.2211
  103DG     H14 2360   0.374   1.191   5.416 -0.4826 -1.1278 -0.4869
  103DG     H15 2361   0.758   1.488   4.966  1.9028 -0.9154 -1.5901
  103DG     H16 2362   0.814   1.329   5.018  0.0091 -0.6139  0.1976
  103DG     C17 2363   0.544   1.292   5.306 -0.0771 -0.3303  0.0334
  103DG     C18 2364   0.664   1.404   5.137 -1.3037  0.4118  0.0471
  103DG     O19 2365   0.593   1.283   5.169 -0.2586 -0.5642  0.1523
  103DG     H20 2366   0.621   1.279   5.383 -1.3840 -0.9917  1.2824
  103DG     H21 2367   0.497   1.388   5.326 -0.4690 -0.9605  2.5880
  103DG     H22 2368   0.743   1.419   5.211 -2.2732 -2.4804  1.8233
  103DG     H23 2369   0.591   1.485   5.139 -1.3319  0.4672 -1.5782
  104DG      C1 2370   2.284   1.412   2.848 -0.2489 -0.1504  1.2201
  104DG      C2 2371   1.784   1.954   2.907  0.0224 -0.4237 -0.2038
  104DG      H3 2372   2.332   1.443   2.941  1.3241  0.4254  0.2515
  104DG      H4 2373   2.333   1.469   2.770 -0.7327 -1.3006  0.0271
  104DG      H5 2374   2.313   1.307   2.838 -0.7766 -0.2081  0.1350
  104DG      H6 2375   1.812   2.003   3.000 -0.8784 -2.0444  0.9636
  104DG      H7 2376   1.863   1.970   2.834  1.7094 -0.1821  1.5913
  104DG      H8 2377   1.691   1.994   2.867  0.1463 -0.2781 -0.3491
  104DG      O9 2378   2.145   1.437   2.841  0.1834 -0.1666  0.3584
  104DG     O10 2379   1.773   1.814   2.931  0.3874  0.0775 -0.1633
  104DG     C11 2380   2.076   1.428   2.960  0.3468  0.0418  0.5586
  104DG     C12 2381   1.755   1.739   2.815  1.2061  0.2100 -0.3977
  104DG     H13 2382   2.103   1.508   3.030  0.4780 -1.1509  1.9096
  104DG     H14 2383   2.097   1.334   3.010 -1.3946 -0.5965  0.1556
  104DG     H15 2384   1.827   1.771   2.740  2.5464 -0.0902  0.7115
  104DG     H16 2385   1.653   1.747   2.778  0.1443  0.0132  2.2427
  104DG     C17 2386   1.930   1.440   2.926  0.3673 -0.5720 -0.5352
  104DG     C18 2387   1.768   1.586   2.837  0.6315  0.4866 -0.4221
  104DG     O19 2388   1.906   1.569   2.864  0.3461 -0.4880 -0.2021
  104DG     H20 2389   1.883   1.423   3.023 -2.2505  0.8725 -1.4453
  104DG     H21 2390   1.892   1.359   2.864  0.9529 -1.7689  0.6176
  104DG     H22 2391   1.696   1.565   2.916 -0.2316  1.6458 -0.8570
  104DG     H23 2392   1.734   1.529   2.751 -0.1779 -0.3490  0.4319
  105DG      C1 2393   4.035   3.240   3.888 -0.9283  0.4361  0.1135
  105DG      C2 2394   3.379   3.485   4.099  0.0306  0.3795 -0.3852
  105DG      H3 2395   4.090   3.311   3.950  0.7010 -0.9278  0.3015
  105DG      H4 2396   4.012   3.270   3.785 -2.7556  1.0742  0.6636
  105DG      H5 2397   4.099   3.152   3.878  1.4807  2.1318 -0.1425
  105DG      H6 2398   3.362   3.489   4.206 -1.3539 -1.9212 -0.4550
  105DG      H7 2399   3.398   3.587   4.066 -0.2380  0.8256  0.8059
  105DG      H8 2400   3.281   3.459   4.058  0.6581 -2.2809 -0.3958
  105DG      O9 2401   3.913   3.220   3.944 -0.1581  0.0664 -0.6715
  105DG     O10 2402   3.482   3.391   4.060  0.1438  1.1613 -0.7244
  105DG     C11 2403   3.912   3.123   4.050 -0.0602 -0.2070  0.2725
  105DG     C12 2404   3.453   3.264   4.131  0.0089 -0.4930 -0.1015
  105DG     H13 2405   3.961   3.169   4.136 -0.5003 -1.5428  1.2614
  105DG     H14 2406   3.969   3.032   4.032  2.2871  0.9370  1.3425
  105DG     H15 2407   3.348   3.236   4.136 -0.0948  0.0739  3.5715
  105DG     H16 2408   3.477   3.275   4.237 -0.4388 -2.5300  0.2538
  105DG     C17 2409   3.771   3.094   4.096 -0.2876  0.7810  0.5374
  105DG     C18 2410   3.547   3.160   4.074  0.4552  0.6869  0.0617
  105DG     O19 2411   3.685   3.202   4.094 -0.1739  0.3304 -0.3131
  105DG     H20 2412   3.757   3.047   4.194 -0.0001 -0.3166  0.0670
  105DG     H21 2413   3.738   3.012   4.032  1.5003 -1.5858  2.4615
  105DG     H22 2414   3.516   3.076   4.136  0.5906  0.6743  0.1121
  105DG     H23 2415   3.531   3.137   3.968  0.6364  0.8463 -0.0001
  106DG      C1 2416   1.991   5.182   3.550  0.2785 -0.1586  0.1326
  106DG      C2 2417   1.558   4.834   3.961  0.2193  0.3958 -0.0727
  106DG      H3 2418   2.028   5.092   3.501 -0.0656  0.8259 -2.0716
  106DG      H4 2419   2.054   5.197   3.638  0.6996 -1.0494 -0.0027
  106DG      H5 2420   2.015   5.270   3.491  2.9327  0.5867  2.1129
  106DG      H6 2421   1.622   4.752   3.930 -1.2342 -0.4002 -1.0874
  106DG      H7 2422   1.608   4.871   4.051 -1.1590  0.3337  0.7491
  106DG      H8 2423   1.461   4.797   3.995  0.1813  0.5315 -0.0332
  106DG      O9 2424   1.854   5.173   3.583 -0.2351  0.5860  0.2314
  106DG     O10 2425   1.557   4.940   3.866 -0.0262 -0.2393 -0.0656
  106DG     C11 2426   1.782   5.109   3.472  0.2189  0.0032 -0.5780
  106DG     C12 2427   1.460   4.921   3.760 -0.0520  0.6811  0.0008
  106DG     H13 2428   1.830   5.015   3.444 -1.2635 -0.7232 -0.7753
  106DG     H14 2429   1.793   5.181   3.390 -2.1267  0.3570 -0.6562
  106DG     H15 2430   1.356   4.928   3.791 -0.8112  0.6468 -2.3256
  106DG     H16 2431   1.465   4.819   3.720  1.7921  1.1355 -1.0416
  106DG     C17 2432   1.630   5.091   3.495  0.1589 -0.3949 -0.1154
  106DG     C18 2433   1.473   5.019   3.650 -0.1168  0.7599  0.3562
  106DG     O19 2434   1.610   5.018   3.616 -0.2523 -0.2731 -0.3444
  106DG     H20 2435   1.588   5.025   3.420  0.5772 -1.0423  0.2143
  106DG     H21 2436   1.574   5.184   3.500 -1.1106 -1.2105  3.2966
  106DG     H22 2437   1.422   4.989   3.558  1.2600 -2.8094  0.6129
  106DG     H23 2438   1.439   5.119   3.678  0.7924  1.5247 -1.1456
  107DG      C1 2439   2.736   3.346   0.728  0.8389  0.0158 -0.2745
  107DG      C2 2440   3.019   3.968   0.655  0.0989 -0.1485  0.0258
  107DG      H3 2441   2.639   3.295   0.733  1.6679 -1.5411  0.7295
  107DG      H4 2442   2.775   3.349   0.830 -0.0616  1.2293  0.0567
  107DG      H5 2443   2.804   3.292   0.662  0.2181 -0.6084 -0.4212
  107DG      H6 2444   2.968   4.058   0.688  1.3513  0.6680 -0.2086
  107DG      H7 2445   3.079   3.923   0.734 -0.9802 -1.0683  0.3433
  107DG      H8 2446   3.085   3.989   0.571  1.1917 -2.5906  0.1846
  107DG      O9 2447   2.708   3.483   0.681  0.1821  0.1466 -0.0163
  107DG     O10 2448   2.925   3.873   0.620 -0.0114 -0.3580  0.3165
  107DG     C11 2449   2.631   3.473   0.561  0.0661  0.6673 -0.0390
  107DG     C12 2450   2.839   3.905   0.507 -0.4719  0.3969  0.5986
  107DG     H13 2451   2.532   3.430   0.576  0.3160  0.4740  1.1446
  107DG     H14 2452   2.683   3.412   0.487 -0.1033 -0.5777  0.8389
  107DG     H15 2453   2.896   3.870   0.421 -2.2544 -1.2647  0.0131
  107DG     H16 2454   2.813   4.011   0.505 -0.7157  0.3278 -0.5134
  107DG     C17 2455   2.614   3.617   0.507  0.0428  0.2598 -0.0180
  107DG     C18 2456   2.709   3.822   0.505  0.0461  0.0747  0.4757
  107DG     O19 2457   2.738   3.684   0.509 -0.0483  0.3555 -0.0683
  107DG     H20 2458   2.533   3.678   0.546  0.1456  1.5429 -1.6770
  107DG     H21 2459   2.601   3.605   0.399  0.5115  2.9642 -0.4464
  107DG     H22 2460   2.663   3.844   0.601 -0.3474 -0.8897  0.5186
  107DG     H23 2461   2.652   3.842   0.414  0.1306  1.9732  0.8042
  108DG      C1 2462   2.176   0.184   0.933 -0.6660 -1.3788 -0.2574
  108DG      C2 2463   2.288  -0.379   0.556  0.2131  0.3027  0.1450
  108DG      H3 2464   2.153   0.290   0.938  1.9240 -0.7887  0.4762
  108DG      H4 2465   2.266   0.175   0.995 -0.9157 -1.6789  0.0647
  108DG      H5 2466   2.105   0.120   0.986 -3.1789  0.8455 -0.7074
  108DG      H6 2467   2.277  -0.390   0.448 -0.6847 -0.1531  0.2719
  108DG      H7 2468   2.395  -0.382   0.577  0.3764 -2.3041 -0.6620
  108DG      H8 2469   2.249  -0.473   0.595  1.4606 -0.4150 -0.2470
  108DG      O9 2470   2.203   0.147   0.799  0.2813  0.0240  0.4139
  108DG     O10 2471   2.217  -0.268   0.590 -0.0469  0.1855 -0.0732
  108DG     C11 2472   2.090   0.180   0.710 -0.1261  0.3218 -0.5301
  108DG     C12 2473   2.097  -0.238   0.522  0.6764 -0.1790 -0.1870
  108DG     H13 2474   2.065   0.286   0.713  1.4354  0.7445  3.0672
  108DG     H14 2475   2.009   0.127   0.759  0.7936 -0.0951  0.5776
  108DG     H15 2476   2.023  -0.316   0.537  1.1192 -0.1459  2.6756
  108DG     H16 2477   2.110  -0.238   0.414  1.1759  1.0430 -0.1398
  108DG     C17 2478   2.097   0.120   0.570  0.5359  0.2664 -0.3373
  108DG     C18 2479   2.039  -0.116   0.579  0.1857 -0.3235 -0.1486
  108DG     O19 2480   2.147  -0.016   0.582  0.3278  0.6345 -0.3883
  108DG     H20 2481   2.171   0.180   0.517  0.4143  0.7831  0.0688
  108DG     H21 2482   2.013   0.142   0.505  2.0353  1.0171 -2.1050
  108DG     H22 2483   1.964  -0.087   0.506 -0.3837  0.1341  0.6007
  108DG     H23 2484   1.987  -0.123   0.675  0.2046 -0.1150 -0.1228
  109DG      C1 2485   1.051   1.165   0.920  0.4601 -0.5570 -0.6392
  109DG      C2 2486   0.483   1.100   0.630 -0.4956  0.4446 -0.3340
  109DG      H3 2487   1.147   1.207   0.890  0.3889  0.8831  1.0287
  109DG      H4 2488   1.046   1.120   1.019 -3.1793  2.4438  0.8075
  109DG      H5 2489   0.984   1.250   0.935 -0.0308 -1.1521  0.6761
  109DG      H6 2490   0.403   1.060   0.567 -0.1896  2.0592 -1.8227
  109DG      H7 2491   0.439   1.133   0.724 -1.5113  1.6442 -1.1893
  109DG      H8 2492   0.525   1.183   0.574  0.1261 -0.8849 -1.9096
  109DG      O9 2493   0.979   1.082   0.827 -0.6280 -0.0474 -0.6220
  109DG     O10 2494   0.575   0.998   0.654  0.1236 -0.2169 -0.2508
  109DG     C11 2495   1.057   0.971   0.791 -0.2000  0.1678  0.6700
  109DG     C12 2496   0.659   0.967   0.536  0.6726  0.3052  0.0013
  109DG     H13 2497   1.076   0.901   0.872  1.9293 -1.5202 -1.1550
  109DG     H14 2498   1.157   0.991   0.754 -0.4947 -0.8285 -0.7563
  109DG     H15 2499   0.691   1.058   0.485  2.4869 -0.1678  0.2541
  109DG     H16 2500   0.597   0.923   0.457 -1.2840  1.1300  0.9987
  109DG     C17 2501   0.986   0.902   0.674 -0.3127 -0.0293 -0.6231
  109DG     C18 2502   0.779   0.881   0.569  0.1853 -0.6847 -0.1892
  109DG     O19 2503   0.855   0.956   0.667 -0.6547  0.3624  0.3630
  109DG     H20 2504   0.969   0.800   0.708 -0.5985 -0.0968 -0.9596
  109DG     H21 2505   1.033   0.919   0.577 -0.0468  0.5513 -0.3926
  109DG     H22 2506   0.741   0.790   0.614  0.7830 -1.1798 -0.6640
  109DG     H23 2507   0.831   0.852   0.478  1.1864 -0.9930  0.4738
  110DG      C1 2508   2.227   0.545   3.109 -0.3295 -0.4951  0.0637
  110DG      C2 2509   2.062   0.433   2.460 -0.0973  0.1174  0.0462
  110DG      H3 2510   2.276   0.498   3.194  2.4036 -0.1828 -1.2420
  110DG      H4 2511   2.121   0.521   3.116 -0.2859 -0.8171 -0.3348
  110DG      H5 2512   2.235   0.653   3.111 -0.6715 -0.3822 -1.9733
  110DG      H6 2513   1.991   0.357   2.491  0.0265  0.4462  1.1864
  110DG      H7 2514   2.015   0.531   2.458  0.6657  0.5425  1.7876
  110DG      H8 2515   2.083   0.409   2.356  1.7320  0.1894  0.3679
  110DG      O9 2516   2.279   0.499   2.984 -0.2006 -0.2102  0.1138
  110DG     O10 2517   2.178   0.430   2.538 -0.0095 -0.1517 -0.6733
  110DG     C11 2518   2.403   0.564   2.957  0.2264  0.0806  0.4323
  110DG     C12 2519   2.274   0.529   2.496 -0.3245  0.3342  0.2140
  110DG     H13 2520   2.479   0.541   3.031 -0.5485 -0.0416  1.1954
  110DG     H14 2521   2.383   0.671   2.964 -1.8682 -0.0233 -2.1799
  110DG     H15 2522   2.237   0.632   2.491  1.9537  1.2116  0.6002
  110DG     H16 2523   2.306   0.514   2.393  0.7508  1.2563  0.3938
  110DG     C17 2524   2.456   0.525   2.820  0.0222  0.0453  0.2769
  110DG     C18 2525   2.393   0.516   2.592  0.1804 -0.0586  0.5886
  110DG     O19 2526   2.354   0.545   2.723  0.5926 -0.3399 -0.1177
  110DG     H20 2527   2.473   0.417   2.813  0.0007  0.0305  0.4501
  110DG     H21 2528   2.542   0.589   2.798 -0.8946  1.3404  0.3549
  110DG     H22 2529   2.418   0.410   2.587  0.3986  0.0422 -1.6717
  110DG     H23 2530   2.471   0.585   2.560 -0.3727  0.3964  0.2101
  111DG      C1 2531   3.191   1.727   2.163 -0.0816  0.0619 -0.0846
  111DG      C2 2532   2.907   1.819   1.572  0.4597 -0.0867  0.7710
  111DG      H3 2533   3.258   1.737   2.249  2.7912 -1.6098 -1.9435
  111DG      H4 2534   3.229   1.628   2.137  0.0139 -0.6018  2.3781
  111DG      H5 2535   3.088   1.724   2.199 -0.2199  1.4461 -0.3092
  111DG      H6 2536   2.891   1.713   1.593 -0.5489  0.2602  1.8674
  111DG      H7 2537   2.812   1.868   1.548 -0.5157 -1.9141  0.6816
  111DG      H8 2538   2.957   1.827   1.476 -1.2633  1.1001 -0.0802
  111DG      O9 2539   3.200   1.829   2.071 -0.4004  0.7522  0.0698
  111DG     O10 2540   2.990   1.873   1.675  0.0656 -0.3540  0.1942
  111DG     C11 2541   3.147   1.957   2.109 -0.6883 -0.1202  0.1104
  111DG     C12 2542   3.006   2.019   1.653 -0.1652  0.3251 -0.1160
  111DG     H13 2543   3.212   1.994   2.188 -1.9081  0.4326  0.8790
  111DG     H14 2544   3.045   1.956   2.149 -0.2029 -3.0474  1.5383
  111DG     H15 2545   2.916   2.079   1.672 -0.6138 -0.5219  0.4953
  111DG     H16 2546   3.039   2.038   1.551 -0.7706 -0.9017 -0.5645
  111DG     C17 2547   3.164   2.054   1.989  0.1723 -1.0412  0.3147
  111DG     C18 2548   3.116   2.075   1.756 -0.1152  0.1736  0.2358
  111DG     O19 2549   3.096   2.008   1.876  0.0413  0.0588 -0.3270
  111DG     H20 2550   3.271   2.074   1.975  0.1393 -0.9086  0.2534
  111DG     H21 2551   3.128   2.154   2.013  0.7416 -0.7906  0.1588
  111DG     H22 2552   3.217   2.055   1.721  0.6505  2.2403  1.0945
  111DG     H23 2553   3.105   2.183   1.765 -0.3417  0.1563  0.1669
  112DG      C1 2554   2.840   1.482   1.737  0.6803 -0.6426 -0.5699
  112DG      C2 2555   3.288   1.730   1.534 -0.7632 -0.9229 -0.0814
  112DG      H3 2556   2.741   1.519   1.709  1.1080  1.5782  0.5828
  112DG      H4 2557   2.844   1.374   1.731  1.5698 -0.6031 -0.9795
  112DG      H5 2558   2.919   1.512   1.667  2.1974 -2.5152  0.2642
  112DG      H6 2559   3.199   1.751   1.475 -0.3815 -2.5112 -1.3045
  112DG      H7 2560   3.368   1.799   1.507 -3.4080  2.2315 -0.4211
  112DG      H8 2561   3.319   1.629   1.509  2.4654 -0.5495  1.8807
  112DG      O9 2562   2.882   1.534   1.865 -0.1267 -0.2398  0.7633
  112DG     O10 2563   3.269   1.744   1.672  0.3089  0.2291  0.0264
  112DG     C11 2564   2.963   1.445   1.933  0.3307  0.0258 -0.6170
  112DG     C12 2565   3.353   1.640   1.733 -0.2896 -0.1015  0.2498
  112DG     H13 2566   2.910   1.354   1.962 -1.8461  1.1842 -0.7494
  112DG     H14 2567   2.994   1.491   2.027  1.6705 -1.6334 -0.1888
  112DG     H15 2568   3.365   1.683   1.833 -0.1258 -0.2475  0.2917
  112DG     H16 2569   3.447   1.620   1.683 -0.5329  1.0730 -0.7277
  112DG     C17 2570   3.094   1.408   1.860 -0.0673  0.4349 -0.1836
  112DG     C18 2571   3.282   1.500   1.746  0.2569 -0.1401 -0.1342
  112DG     O19 2572   3.164   1.522   1.823  0.4887  0.0460  0.4060
  112DG     H20 2573   3.076   1.341   1.776 -1.0603 -0.8451  1.0060
  112DG     H21 2574   3.159   1.349   1.924  0.6074 -0.5558 -1.7225
  112DG     H22 2575   3.253   1.451   1.654 -1.3034  2.4050 -1.1002
  112DG     H23 2576   3.350   1.451   1.816  1.1372 -2.6750 -2.5726
  113DG      C1 2577   0.360   3.313   1.277  0.0192  0.0440  0.1646
  113DG      C2 2578   1.008   3.399   1.435 -0.7956 -0.3036  0.0445
  113DG      H3 2579   0.304   3.273   1.362  0.5560 -2.0392 -0.4182
  113DG      H4 2580   0.394   3.231   1.215 -0.2323  0.3462 -0.3823
  113DG      H5 2581   0.301   3.379   1.213  1.4366  2.6353  1.3659
  113DG      H6 2582   1.097   3.447   1.474  0.2213  0.7658 -3.2032
  113DG      H7 2583   1.044   3.298   1.416  2.5994  1.1102 -1.8427
  113DG      H8 2584   0.994   3.442   1.336 -1.0273 -0.7375 -0.1154
  113DG      O9 2585   0.464   3.398   1.320  0.4847  0.5440  0.3651
  113DG     O10 2586   0.892   3.414   1.516 -0.2656 -0.4132  0.1055
  113DG     C11 2587   0.413   3.516   1.377  0.0524  0.3342 -0.0836
  113DG     C12 2588   0.856   3.551   1.553  0.1340  0.3287  0.8891
  113DG     H13 2589   0.359   3.502   1.471 -0.8550 -1.1201 -0.7888
  113DG     H14 2590   0.343   3.567   1.310 -0.2481 -0.8796 -0.7065
  113DG     H15 2591   0.943   3.616   1.566  0.1204  0.3642  0.8089
  113DG     H16 2592   0.807   3.544   1.650  1.0516  0.2185  1.3546
  113DG     C17 2593   0.531   3.613   1.400  0.2618 -0.5636  0.8174
  113DG     C18 2594   0.753   3.612   1.461  0.5081 -0.3750 -0.3603
  113DG     O19 2595   0.631   3.541   1.461  0.5864 -0.5931  0.5151
  113DG     H20 2596   0.521   3.686   1.480  0.9949 -0.4131  0.7776
  113DG     H21 2597   0.572   3.675   1.321  0.6619 -0.7925  0.8449
  113DG     H22 2598   0.748   3.718   1.485  3.3197 -0.3893  0.5862
  113DG     H23 2599   0.801   3.603   1.363  1.7080  2.6310 -0.1298
  114DG      C1 2600   3.950   1.056   1.810 -0.3496  1.2772  0.2451
  114DG      C2 2601   4.360   0.742   1.323  0.9668 -1.1825  0.1365
  114DG      H3 2602   3.871   1.041   1.884 -0.4367  1.4940  0.1965
  114DG      H4 2603   3.943   1.149   1.753  0.1129  1.3523  0.3096
  114DG      H5 2604   4.044   1.069   1.864 -0.1936  0.1663  0.2648
  114DG      H6 2605   4.438   0.757   1.398  2.0151  0.5011 -1.2101
  114DG      H7 2606   4.397   0.668   1.252 -1.4183 -0.9401 -1.4585
  114DG      H8 2607   4.338   0.836   1.273 -0.5286 -0.7622  1.5165
  114DG      O9 2608   3.973   0.941   1.727 -0.1445 -0.7968  0.2541
  114DG     O10 2609   4.242   0.709   1.394  0.4184 -0.4711 -0.0637
  114DG     C11 2610   3.850   0.904   1.655 -0.1045  0.2071 -0.3828
  114DG     C12 2611   4.126   0.716   1.311 -0.3319 -0.0950 -0.0125
  114DG     H13 2612   3.843   0.987   1.584  3.2898 -2.2185 -4.0122
  114DG     H14 2613   3.761   0.896   1.717 -1.0137  1.2661 -1.5000
  114DG     H15 2614   4.138   0.653   1.223 -1.1487  1.0568 -0.9858
  114DG     H16 2615   4.098   0.819   1.288 -1.1155 -0.0868  0.9105
  114DG     C17 2616   3.880   0.778   1.573 -0.0311 -0.4334 -0.3594
  114DG     C18 2617   4.004   0.679   1.407  0.1963 -0.2334 -0.3709
  114DG     O19 2618   3.997   0.789   1.498 -0.7040  0.2078  0.7010
  114DG     H20 2619   3.806   0.745   1.500  2.3265 -1.0800 -2.5780
  114DG     H21 2620   3.895   0.697   1.644 -1.4393 -1.6405 -1.3863
  114DG     H22 2621   3.915   0.667   1.346 -1.2027  1.2220  1.2679
  114DG     H23 2622   4.027   0.583   1.454  3.4367  1.2158  1.3324
  115DG      C1 2623   4.404   0.393   0.565 -0.2939 -0.3408  0.2047
  115DG      C2 2624   4.195   1.043   0.810 -0.3408 -0.2743  0.6765
  115DG      H3 2625   4.345   0.434   0.483  2.3145 -0.9824 -2.1248
  115DG      H4 2626   4.401   0.284   0.561  1.9555 -0.4266 -0.2951
  115DG      H5 2627   4.505   0.426   0.542 -0.5237 -0.4610 -1.0228
  115DG      H6 2628   4.133   1.092   0.886  0.1243  0.9673  0.2720
  115DG      H7 2629   4.284   1.101   0.785 -1.6957  0.8967 -1.6941
  115DG      H8 2630   4.138   1.041   0.718 -2.3564 -1.1879  1.8700
  115DG      O9 2631   4.360   0.446   0.691 -0.1607 -0.0596  0.0118
  115DG     O10 2632   4.218   0.908   0.825 -0.5030  0.6754 -0.2275
  115DG     C11 2633   4.235   0.397   0.741 -0.0810 -0.0386 -0.1217
  115DG     C12 2634   4.104   0.846   0.895 -0.4413  0.7180  0.1231
  115DG     H13 2635   4.258   0.294   0.769 -1.3342 -0.1845  0.4584
  115DG     H14 2636   4.157   0.386   0.666  0.7306  0.3756 -1.0462
  115DG     H15 2637   4.019   0.857   0.827  0.2874  0.0786 -0.9300
  115DG     H16 2638   4.087   0.913   0.979 -1.0623  0.0057  0.5733
  115DG     C17 2639   4.185   0.483   0.854 -0.7536  0.0081 -0.4670
  115DG     C18 2640   4.123   0.694   0.926 -0.5125  0.8187 -0.1228
  115DG     O19 2641   4.172   0.616   0.821  0.0093 -0.6799  0.1287
  115DG     H20 2642   4.261   0.470   0.931  0.2631 -0.7365 -1.5546
  115DG     H21 2643   4.100   0.431   0.898  0.1820 -0.5895  0.6831
  115DG     H22 2644   4.181   0.684   1.018 -0.1363  4.5590  0.2015
  115DG     H23 2645   4.023   0.661   0.952 -0.7690  3.2378  2.4236
  116DG      C1 2646   2.309   3.099   5.163  0.0269  0.3249 -0.4929
  116DG      C2 2647   2.256   2.891   5.778  0.0588 -0.0562 -0.1817
  116DG      H3 2648   2.361   3.026   5.101 -1.8566 -1.4550 -0.1047
  116DG      H4 2649   2.372   3.123   5.249 -0.6946  1.6763 -0.3093
  116DG      H5 2650   2.277   3.187   5.107  0.4178  1.6729  1.3023
  116DG      H6 2651   2.365   2.891   5.782  0.0879  1.1944 -0.7649
  116DG      H7 2652   2.227   2.986   5.821  0.9689  0.4345 -0.6302
  116DG      H8 2653   2.225   2.808   5.843 -0.1590 -0.7270 -1.1168
  116DG      O9 2654   2.190   3.033   5.212 -0.0037 -0.3674  0.2412
  116DG     O10 2655   2.208   2.885   5.648 -0.3596 -0.2985  0.0198
  116DG     C11 2656   2.088   3.115   5.267  0.0612 -0.4321  0.3882
  116DG     C12 2657   2.068   2.842   5.652  0.2228  0.2101 -0.1829
  116DG     H13 2658   2.031   3.176   5.197  0.6558  0.6428  0.8148
  116DG     H14 2659   2.133   3.191   5.330  2.7192 -1.4934 -0.1284
  116DG     H15 2660   2.014   2.906   5.721  0.6565 -1.4696  1.8165
  116DG     H16 2661   2.059   2.737   5.680 -1.3778  0.6529  1.0880
  116DG     C17 2662   1.997   3.022   5.343 -0.6819  0.2538  0.5537
  116DG     C18 2663   1.999   2.856   5.515 -0.0451 -0.5761  0.4236
  116DG     O19 2664   2.065   2.963   5.456  0.0558  0.0080 -0.3818
  116DG     H20 2665   1.962   2.946   5.273  1.0388  0.9847 -1.1641
  116DG     H21 2666   1.909   3.069   5.387 -0.7762  0.8795 -0.2791
  116DG     H22 2667   2.010   2.770   5.449 -0.2824 -0.8710  0.7587
  116DG     H23 2668   1.890   2.866   5.509  0.1050  0.2440 -3.5169
  117DG      C1 2669   3.694   3.134   5.243  0.3544 -0.2183  0.7466
  117DG      C2 2670   3.394   3.491   5.765  0.2638  0.0541 -0.3089
  117DG      H3 2671   3.705   3.188   5.149  0.6713  0.5127  1.1902
  117DG      H4 2672   3.589   3.106   5.246  0.3507 -1.1022 -3.0140
  117DG      H5 2673   3.759   3.047   5.244  0.9277  0.1713 -0.5571
  117DG      H6 2674   3.347   3.586   5.739 -0.8440 -0.4193 -0.0772
  117DG      H7 2675   3.322   3.412   5.743 -0.8540  1.2407 -1.1009
  117DG      H8 2676   3.416   3.488   5.872  2.5035  1.4622 -0.6668
  117DG      O9 2677   3.712   3.220   5.351  0.8077  0.0490 -0.6163
  117DG     O10 2678   3.504   3.478   5.684 -0.0124  0.1975 -0.5914
  117DG     C11 2679   3.837   3.287   5.364  0.2029 -0.3955  0.3910
  117DG     C12 2680   3.627   3.511   5.747 -0.5445  0.4516 -0.3709
  117DG     H13 2681   3.839   3.381   5.309 -0.4264  1.0585  2.6853
  117DG     H14 2682   3.915   3.224   5.321  1.0736  0.4128  0.7306
  117DG     H15 2683   3.628   3.519   5.856  0.9160  2.4692 -0.4878
  117DG     H16 2684   3.676   3.601   5.712  2.4856 -0.6857  0.5736
  117DG     C17 2685   3.859   3.324   5.513 -0.3752  0.7648 -0.1727
  117DG     C18 2686   3.736   3.403   5.712 -0.0276 -0.2713  0.4913
  117DG     O19 2687   3.735   3.390   5.564 -0.1011  0.0318  0.1994
  117DG     H20 2688   3.948   3.386   5.518 -0.3397  0.7636 -0.6897
  117DG     H21 2689   3.877   3.243   5.583  1.2150  1.5074  0.3242
  117DG     H22 2690   3.829   3.448   5.745  0.4497 -0.1186 -0.9816
  117DG     H23 2691   3.717   3.309   5.765  0.8993  0.1305  1.5715
  118DG      C1 2692   4.457   4.589   3.921  0.3549 -0.4103 -0.4648
  118DG      C2 2693   4.157   4.643   4.526  0.3205 -0.3225  0.6467
  118DG      H3 2694   4.501   4.514   3.856  0.8467  0.9784 -1.8003
  118DG      H4 2695   4.532   4.648   3.974 -0.7818  0.6974 -0.0105
  118DG      H5 2696   4.407   4.657   3.852 -0.1496 -0.6145 -0.3066
  118DG      H6 2697   4.246   4.704   4.512  0.7626 -1.6200 -2.9597
  118DG      H7 2698   4.068   4.707   4.520 -1.0493 -2.1727  0.1696
  118DG      H8 2699   4.159   4.599   4.626 -1.8646  2.6036  2.1577
  118DG      O9 2700   4.364   4.531   4.013  0.1906  0.2308 -0.0267
  118DG     O10 2701   4.167   4.557   4.417 -0.4313 -0.5415 -0.5736
  118DG     C11 2702   4.262   4.450   3.961  0.6568  0.1588 -0.2042
  118DG     C12 2703   4.043   4.496   4.377 -0.3695 -0.7627 -0.4724
  118DG     H13 2704   4.295   4.388   3.878  1.0990 -0.6129  0.5338
  118DG     H14 2705   4.189   4.508   3.905 -0.3763  0.8224  1.7334
  118DG     H15 2706   3.974   4.573   4.345 -0.2331 -0.8975 -1.1147
  118DG     H16 2707   3.994   4.447   4.461 -0.9808 -0.6689 -0.7661
  118DG     C17 2708   4.204   4.369   4.072 -0.2030 -0.0474  0.8929
  118DG     C18 2709   4.078   4.392   4.267  0.6616 -0.0598  0.3566
  118DG     O19 2710   4.166   4.453   4.175  0.1478 -0.1811 -0.3430
  118DG     H20 2711   4.266   4.288   4.111  0.5515 -0.7068 -1.4917
  118DG     H21 2712   4.123   4.305   4.034  0.6587 -0.2875 -0.6445
  118DG     H22 2713   4.134   4.307   4.306  0.5088 -0.2142  0.2388
  118DG     H23 2714   3.987   4.362   4.215  1.7677  0.8813 -2.2424
  119DG      C1 2715   1.283   2.598   0.042 -0.2651  0.4360 -0.1093
  119DG      C2 2716   1.568   3.272   0.467  0.2211 -0.1254 -0.1634
  119DG      H3 2717   1.225   2.639  -0.041 -0.2189 -0.7796 -0.7620
  119DG      H4 2718   1.251   2.497   0.066 -0.8327  0.7191  0.3549
  119DG      H5 2719   1.388   2.611   0.017 -0.2502 -2.6206 -2.2960
  119DG      H6 2720   1.519   3.329   0.546 -0.1712  0.4440 -0.8140
  119DG      H7 2721   1.670   3.254   0.501  0.7478  0.5808 -1.3211
  119DG      H8 2722   1.576   3.328   0.375  0.1712  0.7343  0.3487
  119DG      O9 2723   1.253   2.676   0.154  0.3636  0.4432  0.1292
  119DG     O10 2724   1.495   3.153   0.444  0.2219  0.5065 -0.6348
  119DG     C11 2725   1.262   2.816   0.129  0.2832 -0.5669 -0.0732
  119DG     C12 2726   1.563   3.059   0.369  0.3720  0.7484  0.1140
  119DG     H13 2727   1.193   2.865   0.198 -1.0976  0.2239 -1.9228
  119DG     H14 2728   1.226   2.849   0.031 -0.7062  1.9724  1.0533
  119DG     H15 2729   1.545   2.957   0.402  0.3335  0.3656 -1.0510
  119DG     H16 2730   1.670   3.070   0.387  0.4983  2.7869 -1.5793
  119DG     C17 2731   1.406   2.880   0.157 -0.3766 -0.2666 -0.4585
  119DG     C18 2732   1.537   3.067   0.213 -0.0378  0.0785 -0.0936
  119DG     O19 2733   1.407   3.022   0.181  0.0026  0.2242 -0.1716
  119DG     H20 2734   1.466   2.865   0.067  0.1327  0.7058 -0.2938
  119DG     H21 2735   1.453   2.825   0.239  1.8713  0.4507 -1.1907
  119DG     H22 2736   1.544   3.162   0.161  0.6167 -0.3675 -0.8358
  119DG     H23 2737   1.604   3.001   0.158 -0.2373  0.1252 -0.3915
  120DG      C1 2738   2.183   3.941   4.751 -0.5803 -0.1264 -0.1767
  120DG      C2 2739   2.206   3.498   5.221  0.4966 -0.0083  0.1268
  120DG      H3 2740   2.117   3.880   4.690  0.7619  1.4344 -3.4142
  120DG      H4 2741   2.238   4.009   4.686  0.4436  0.5567  1.3301
  120DG      H5 2742   2.124   4.006   4.816  0.2390  0.4213  0.0297
  120DG      H6 2743   2.199   3.572   5.300  0.3710 -0.0081  0.1160
  120DG      H7 2744   2.114   3.488   5.164  1.3159 -1.2792 -1.0270
  120DG      H8 2745   2.231   3.403   5.268 -1.0418 -1.7532 -2.3157
  120DG      O9 2746   2.274   3.850   4.809 -0.7866  0.2666 -0.0152
  120DG     O10 2747   2.304   3.540   5.125  0.2448 -0.6159 -0.5620
  120DG     C11 2748   2.391   3.909   4.858  0.2299 -0.0693  0.4891
  120DG     C12 2749   2.421   3.564   5.188 -0.8563 -0.0143 -0.5689
  120DG     H13 2750   2.371   3.983   4.935  2.9349  0.7217  0.5343
  120DG     H14 2751   2.443   3.948   4.771  1.4956 -2.3847  0.1001
  120DG     H15 2752   2.455   3.466   5.221 -1.5353  0.1878  0.8332
  120DG     H16 2753   2.413   3.624   5.279  2.1013  0.4336 -0.5327
  120DG     C17 2754   2.477   3.799   4.912 -0.0173 -0.0650  0.0959
  120DG     C18 2755   2.505   3.650   5.091  0.2030  0.2474  0.3699
  120DG     O19 2756   2.422   3.748   5.027  0.3198  0.6704  0.4938
  120DG     H20 2757   2.581   3.830   4.919  0.4968 -1.6132 -0.1320
  120DG     H21 2758   2.491   3.715   4.843  2.1906  0.1006  0.2628
  120DG     H22 2759   2.593   3.695   5.136  3.6486 -2.0477 -3.4489
  120DG     H23 2760   2.534   3.576   5.017  1.2640  0.5390  0.4741
  121DG      C1 2761   4.082   0.432   1.706  0.5985 -0.1553 -0.4753
  121DG      C2 2762   4.402   1.045   1.674 -0.6183 -0.2524 -0.3872
  121DG      H3 2763   4.082   0.441   1.814  0.1370  1.2513 -0.5792
  121DG      H4 2764   4.076   0.328   1.674  0.8992  0.0083 -1.0860
  121DG      H5 2765   3.992   0.467   1.656 -1.7284  0.3381  3.6674
  121DG      H6 2766   4.372   1.113   1.594  0.0495  1.0360  0.4028
  121DG      H7 2767   4.329   1.045   1.755  2.1870  1.2409  2.3711
  121DG      H8 2768   4.492   1.093   1.713 -0.3175  0.4825 -1.9057
  121DG      O9 2769   4.200   0.489   1.656 -0.6914 -0.4551 -0.3220
  121DG     O10 2770   4.440   0.909   1.640  0.5129  0.3663  0.5545
  121DG     C11 2771   4.314   0.421   1.696 -0.0868  0.1342  0.2498
  121DG     C12 2772   4.513   0.850   1.743 -0.2849 -0.3129 -0.1287
  121DG     H13 2773   4.313   0.319   1.658  1.0739  0.2395 -0.1022
  121DG     H14 2774   4.324   0.407   1.804 -1.3143 -1.7335  0.1832
  121DG     H15 2775   4.455   0.837   1.835 -0.9116 -1.4331 -0.6546
  121DG     H16 2776   4.604   0.909   1.754 -1.2918  1.3024 -0.2967
  121DG     C17 2777   4.442   0.499   1.653  0.3146 -0.5015  0.0056
  121DG     C18 2778   4.551   0.708   1.699 -0.2815 -0.9718  0.8177
  121DG     O19 2779   4.431   0.634   1.694  0.5044  0.2005 -0.1835
  121DG     H20 2780   4.451   0.499   1.545  1.6167 -0.8140  0.0974
  121DG     H21 2781   4.532   0.447   1.686  0.9671 -0.9036 -2.2814
  121DG     H22 2782   4.586   0.702   1.596  0.4127 -1.2323  1.0577
  121DG     H23 2783   4.613   0.653   1.770  2.8902 -2.0180 -2.4470
  122DG      C1 2784   0.654   5.309   3.851 -0.3981  0.3282 -0.6603
  122DG      C2 2785   0.503   4.670   3.950 -0.2617 -0.5442 -0.2831
  122DG      H3 2786   0.726   5.302   3.932 -2.5130  1.0938  1.4190
  122DG      H4 2787   0.625   5.414   3.852  2.1967  1.1279  0.6698
  122DG      H5 2788   0.702   5.281   3.757  0.9195  0.1550  0.0435
  122DG      H6 2789   0.539   4.681   3.848 -1.8057  2.1309 -0.6243
  122DG      H7 2790   0.585   4.637   4.013  0.0061  0.0576 -0.3100
  122DG      H8 2791   0.424   4.595   3.942  0.6354 -1.5284 -0.0865
  122DG      O9 2792   0.535   5.227   3.890 -0.3637  0.0335  0.8334
  122DG     O10 2793   0.450   4.799   3.979  0.7390 -0.0296  0.2622
  122DG     C11 2794   0.484   5.274   4.012  0.3584 -0.4771 -0.2220
  122DG     C12 2795   0.405   4.811   4.111 -0.1545  0.4222  0.2147
  122DG     H13 2796   0.438   5.371   3.995 -0.7809 -0.7515  1.0832
  122DG     H14 2797   0.569   5.285   4.080 -1.4574 -1.1887  2.2762
  122DG     H15 2798   0.484   4.805   4.186  0.4329  0.9458 -0.3567
  122DG     H16 2799   0.326   4.738   4.131  0.3764  0.3339  2.2763
  122DG     C17 2800   0.377   5.174   4.051  0.1874  0.2374 -0.5790
  122DG     C18 2801   0.350   4.955   4.129  0.2857 -0.4839  1.0336
  122DG     O19 2802   0.436   5.045   4.061 -0.3085  0.2313 -0.1436
  122DG     H20 2803   0.294   5.166   3.981 -1.9398  0.8409  1.7278
  122DG     H21 2804   0.336   5.207   4.147  0.9102 -1.1502  0.2284
  122DG     H22 2805   0.255   4.961   4.076  1.0859 -0.2945 -0.4468
  122DG     H23 2806   0.340   4.985   4.233  2.4595  0.1547  1.1097
  123DG      C1 2807   1.656   1.190   4.494 -0.6304 -0.5783  0.2042
  123DG      C2 2808   2.296   1.399   4.683  0.2154  0.0166 -0.1133
  123DG      H3 2809   1.604   1.242   4.576 -0.9325 -0.2022 -0.2188
  123DG      H4 2810   1.591   1.111   4.457 -0.7336  0.5432 -2.1727
  123DG      H5 2811   1.656   1.258   4.409 -0.4105 -1.2691 -0.3545
  123DG      H6 2812   2.402   1.374   4.695  0.0270 -1.0439 -0.5127
  123DG      H7 2813   2.294   1.490   4.623 -0.0455 -0.6023 -1.0779
  123DG      H8 2814   2.254   1.425   4.780  0.0570  1.6761 -0.6023
  123DG      O9 2815   1.793   1.156   4.527  0.2099 -0.4201 -0.0319
  123DG     O10 2816   2.228   1.295   4.631 -0.3324  0.5753  0.4022
  123DG     C11 2817   1.802   1.052   4.621 -0.1705  0.3181  0.4973
  123DG     C12 2818   2.273   1.164   4.674  0.3655 -0.3357  0.4172
  123DG     H13 2819   1.736   0.968   4.599  2.1289 -2.0560  2.0081
  123DG     H14 2820   1.777   1.092   4.720 -1.0072 -0.0735  0.4561
  123DG     H15 2821   2.265   1.163   4.783 -0.5498 -0.8383  0.3578
  123DG     H16 2822   2.376   1.136   4.652  0.2729 -0.1381 -0.2769
  123DG     C17 2823   1.943   0.995   4.621 -0.0276 -0.7524  0.7800
  123DG     C18 2824   2.173   1.053   4.632  0.4040 -0.0282  0.4579
  123DG     O19 2825   2.041   1.100   4.655 -0.0816  0.0912  0.1337
  123DG     H20 2826   1.966   0.957   4.521 -1.0650 -0.4562  0.4139
  123DG     H21 2827   1.942   0.916   4.696 -1.0767  0.0372  1.6221
  123DG     H22 2828   2.199   1.025   4.530  0.5185  0.1420  0.4400
  123DG     H23 2829   2.185   0.956   4.680  0.7672 -0.8414 -1.2129
  124DG      C1 2830   4.026   3.477   4.300  1.2663  0.0150 -0.0701
  124DG      C2 2831   3.660   3.374   3.765 -0.4018  0.1638  0.0669
  124DG      H3 2832   4.102   3.545   4.340 -1.5741  2.6566  1.3776
  124DG      H4 2833   4.057   3.374   4.287 -0.4027 -0.4258 -0.8205
  124DG      H5 2834   3.940   3.466   4.367  0.4141  1.6303 -0.8198
  124DG      H6 2835   3.690   3.280   3.810  3.3941  0.1758 -2.0244
  124DG      H7 2836   3.557   3.397   3.789 -0.9936 -1.3922 -0.8390
  124DG      H8 2837   3.683   3.367   3.659  1.3986 -2.1393  0.5376
  124DG      O9 2838   3.986   3.543   4.181  0.2338  0.0312 -0.6680
  124DG     O10 2839   3.751   3.473   3.814 -0.0047 -0.4422 -0.0977
  124DG     C11 2840   3.942   3.676   4.198  0.3976  0.3995  0.6447
  124DG     C12 2841   3.698   3.603   3.795  0.2083 -0.2657 -0.1286
  124DG     H13 2842   4.018   3.748   4.228  0.6552  0.8440 -1.0116
  124DG     H14 2843   3.854   3.675   4.263  0.1792 -0.1966  0.3430
  124DG     H15 2844   3.610   3.601   3.859  1.9049 -0.2749  2.3322
  124DG     H16 2845   3.678   3.616   3.688 -1.0284 -0.6457  0.0347
  124DG     C17 2846   3.895   3.737   4.065 -0.5101  0.5504  0.6004
  124DG     C18 2847   3.785   3.705   3.868 -0.4894  0.3057  0.0908
  124DG     O19 2848   3.812   3.648   3.997  0.0099  0.0060 -0.4231
  124DG     H20 2849   3.985   3.755   4.006 -0.0974  1.6859  1.5332
  124DG     H21 2850   3.845   3.834   4.076  1.9668  1.9391  0.3947
  124DG     H22 2851   3.874   3.712   3.806 -0.6710 -0.3079 -0.2519
  124DG     H23 2852   3.730   3.799   3.870 -0.6531  0.2268 -0.4539
  125DG      C1 2853   4.303   0.623   2.991  0.2723 -0.1436  0.7494
  125DG      C2 2854   3.814   0.500   2.643  0.1725  0.9196 -0.2408
  125DG      H3 2855   4.353   0.588   2.901 -0.9479  1.5551 -0.6541
  125DG      H4 2856   4.331   0.562   3.077  1.8041  0.0095  0.4011
  125DG      H5 2857   4.331   0.727   3.009  4.4867 -0.9838  0.2469
  125DG      H6 2858   3.824   0.598   2.596  1.3694  1.4171  0.9927
  125DG      H7 2859   3.887   0.437   2.592 -1.1807  0.9385 -2.3321
  125DG      H8 2860   3.714   0.465   2.616  0.0538  1.7089 -0.8659
  125DG      O9 2861   4.168   0.607   2.976 -0.0694 -0.1434 -0.1764
  125DG     O10 2862   3.841   0.509   2.786  0.3364 -0.1306  0.7642
  125DG     C11 2863   4.103   0.681   3.081  0.6085 -1.1294 -0.1805
  125DG     C12 2864   3.737   0.572   2.854  1.0895 -0.0695 -0.2479
  125DG     H13 2865   4.152   0.778   3.088 -0.5927 -0.4905 -0.2589
  125DG     H14 2866   4.109   0.634   3.179  1.2287  0.8691  0.7958
  125DG     H15 2867   3.647   0.517   2.827  2.1863 -2.0132 -0.1185
  125DG     H16 2868   3.731   0.670   2.805  0.0459  0.3583  0.6883
  125DG     C17 2869   3.954   0.702   3.031 -0.0274 -0.1804  0.6039
  125DG     C18 2870   3.756   0.574   3.012  0.1101  0.1491  0.0622
  125DG     O19 2871   3.898   0.575   3.044  0.0092 -0.3032 -0.2271
  125DG     H20 2872   3.947   0.729   2.926  1.1220  0.1744  0.6094
  125DG     H21 2873   3.916   0.784   3.092  0.3868  1.8466 -1.7061
  125DG     H22 2874   3.705   0.653   3.068 -0.9330 -1.8546  2.0728
  125DG     H23 2875   3.711   0.480   3.043  0.7969 -1.0338 -2.2508
  126DG      C1 2876   1.483   5.443   1.592 -0.0050  0.4662 -0.0890
  126DG      C2 2877   1.431   5.934   1.833  0.2659 -0.1576 -0.5093
  126DG      H3 2878   1.489   5.335   1.604 -1.7255  0.2453 -0.8271
  126DG      H4 2879   1.568   5.479   1.535 -0.7893  0.0380 -1.5987
  126DG      H5 2880   1.397   5.465   1.528 -0.5634 -1.5111 -0.1056
  126DG      H6 2881   1.442   5.957   1.727 -1.9000 -2.1285 -1.2675
  126DG      H7 2882   1.450   6.023   1.892 -1.6262 -0.8146  1.2146
  126DG      H8 2883   1.518   5.872   1.853  1.7415  1.2080 -2.3805
  126DG      O9 2884   1.479   5.526   1.707  0.2630 -0.0921 -0.1656
  126DG     O10 2885   1.312   5.867   1.851  0.4075  0.1993 -0.4415
  126DG     C11 2886   1.510   5.464   1.834 -1.0828  0.2696 -0.7073
  126DG     C12 2887   1.288   5.849   1.991 -0.7941  0.0685 -0.0982
  126DG     H13 2888   1.598   5.400   1.822  0.1210  2.0822 -1.9850
  126DG     H14 2889   1.425   5.401   1.860 -0.5492 -0.0692  0.2769
  126DG     H15 2890   1.188   5.804   1.991  0.4185 -2.8471 -1.0381
  126DG     H16 2891   1.286   5.936   2.056  0.5941 -0.1918  0.3097
  126DG     C17 2892   1.514   5.573   1.943 -0.3180 -0.7030  0.4475
  126DG     C18 2893   1.376   5.739   2.052  0.6777  0.0797  0.2660
  126DG     O19 2894   1.384   5.642   1.945 -0.1031 -0.2933  0.3684
  126DG     H20 2895   1.597   5.639   1.917 -0.0048 -0.3907  2.0815
  126DG     H21 2896   1.537   5.530   2.041 -1.8899  0.3851  1.3370
  126DG     H22 2897   1.472   5.776   2.086  0.5304  0.0715  0.6993
  126DG     H23 2898   1.323   5.690   2.134 -1.5384 -1.4712 -1.9681
  127DG      C1 2899   1.599   4.088   0.866  0.1943  0.0341 -0.0797
  127DG      C2 2900   1.755   3.414   0.807 -0.2584 -0.2249  0.2209
  127DG      H3 2901   1.568   4.109   0.764  2.1185 -0.4682 -0.8156
  127DG      H4 2902   1.708   4.097   0.862  0.0088  2.3545 -2.0389
  127DG      H5 2903   1.574   4.174   0.929  0.9248  0.5106 -0.4185
  127DG      H6 2904   1.745   3.307   0.820 -4.5896 -0.0988 -0.6945
  127DG      H7 2905   1.744   3.435   0.701  2.0680  1.7953  0.2802
  127DG      H8 2906   1.853   3.442   0.846 -0.7540  0.8996  0.6935
  127DG      O9 2907   1.540   3.966   0.906  0.3541  0.4979 -0.3747
  127DG     O10 2908   1.657   3.483   0.869 -0.4066  0.3073 -0.5683
  127DG     C11 2909   1.554   3.945   1.046  0.1201 -0.5612  0.4073
  127DG     C12 2910   1.642   3.469   1.010 -0.3972  0.5463  0.2350
  127DG     H13 2911   1.499   4.028   1.091 -0.5844  0.6856 -2.5099
  127DG     H14 2912   1.658   3.959   1.076  0.0173 -0.0264  0.5227
  127DG     H15 2913   1.734   3.499   1.059  0.0428 -2.5601  1.5574
  127DG     H16 2914   1.613   3.368   1.040 -0.4922  0.6105  0.3598
  127DG     C17 2915   1.500   3.802   1.087 -0.3636  0.2934  0.2116
  127DG     C18 2916   1.543   3.571   1.071 -0.5439 -0.5019 -0.0382
  127DG     O19 2917   1.570   3.705   1.021  0.6042  0.6398  0.2016
  127DG     H20 2918   1.393   3.789   1.072 -0.3850 -2.0637  1.8534
  127DG     H21 2919   1.513   3.800   1.196  2.1702  3.1492  0.0940
  127DG     H22 2920   1.443   3.545   1.039  0.1798 -1.9122 -1.2653
  127DG     H23 2921   1.539   3.585   1.179  1.5613  1.8518 -0.1744
  128DG      C1 2922   2.163   2.929   4.815 -0.3760 -0.0934 -0.5364
  128DG      C2 2923   1.704   3.505   4.626  0.1924  0.5404  0.3517
  128DG      H3 2924   2.153   2.842   4.880  0.5252  0.4164  0.3034
  128DG      H4 2925   2.164   3.016   4.882 -1.6894  1.0782 -1.9530
  128DG      H5 2926   2.264   2.928   4.775  0.1013 -2.7028  0.5281
  128DG      H6 2927   1.659   3.591   4.675  0.6906  0.8967  0.2000
  128DG      H7 2928   1.810   3.526   4.611  0.4379 -1.2730 -0.8521
  128DG      H8 2929   1.651   3.492   4.532  2.5050 -0.8035 -0.8773
  128DG      O9 2930   2.056   2.942   4.722 -0.3004 -0.5914 -1.3615
  128DG     O10 2931   1.690   3.380   4.687  0.1939  0.9604  0.2298
  128DG     C11 2932   1.931   2.924   4.795 -0.1315  0.0129  0.0393
  128DG     C12 2933   1.753   3.283   4.608 -0.0619 -0.1322  0.1371
  128DG     H13 2934   1.920   3.014   4.855  1.9663  0.3584 -0.0142
  128DG     H14 2935   1.919   2.832   4.853 -1.5002 -1.2445 -2.1013
  128DG     H15 2936   1.859   3.307   4.603  0.1343 -1.0947 -0.5415
  128DG     H16 2937   1.719   3.278   4.504  0.4646  0.6306 -0.0821
  128DG     C17 2938   1.826   2.914   4.689  0.6561 -0.2336 -0.5562
  128DG     C18 2939   1.733   3.142   4.676  0.0096 -0.0584 -0.9584
  128DG     O19 2940   1.814   3.040   4.615  0.1569 -0.3537 -0.1074
  128DG     H20 2941   1.730   2.880   4.728 -0.8443  2.1719 -1.8323
  128DG     H21 2942   1.849   2.833   4.621  2.5685  0.4771 -0.8084
  128DG     H22 2943   1.764   3.138   4.781 -1.0945  1.4989 -0.5434
  128DG     H23 2944   1.631   3.107   4.665  0.6981 -1.9801 -1.7602
  129DG      C1 2945   0.082   3.723   4.870 -0.4124  0.2122  0.2837
  129DG      C2 2946   0.548   3.351   4.682  0.1024  0.1054 -0.3692
  129DG      H3 2947   0.018   3.642   4.838 -0.6025  0.4854 -0.0327
  129DG      H4 2948   0.071   3.792   4.786  3.4520 -1.2408 -1.6902
  129DG      H5 2949   0.028   3.759   4.958 -3.0636  0.7069 -1.4571
  129DG      H6 2950   0.633   3.316   4.623  2.6967  2.1407  1.9063
  129DG      H7 2951   0.574   3.351   4.788  1.7264  2.6146 -0.6831
  129DG      H8 2952   0.459   3.289   4.670 -0.2715  0.8255 -1.3445
  129DG      O9 2953   0.221   3.681   4.877  0.5358  0.2701  0.4370
  129DG     O10 2954   0.514   3.479   4.649 -0.6288 -0.2814  1.0960
  129DG     C11 2955   0.292   3.793   4.894 -0.0385  0.0342 -0.2133
  129DG     C12 2956   0.615   3.577   4.656  0.4917 -0.1403 -0.5191
  129DG     H13 2957   0.260   3.838   4.987 -0.1891 -0.8398  0.1727
  129DG     H14 2958   0.281   3.868   4.816 -1.1635  0.4909  0.3635
  129DG     H15 2959   0.609   3.651   4.577  1.6666  0.1540 -0.3421
  129DG     H16 2960   0.710   3.523   4.650 -0.0395 -1.2496  0.4660
  129DG     C17 2961   0.437   3.757   4.905 -0.2693 -0.7695  0.3810
  129DG     C18 2962   0.619   3.647   4.792 -0.2537  0.1117  0.6341
  129DG     O19 2963   0.485   3.691   4.793  0.1783 -0.4379  0.3159
  129DG     H20 2964   0.466   3.702   4.995 -2.3156 -1.0367  0.9104
  129DG     H21 2965   0.498   3.845   4.929 -0.5177 -0.0789 -1.3411
  129DG     H22 2966   0.642   3.579   4.873 -0.9081 -1.7014 -0.6347
  129DG     H23 2967   0.687   3.732   4.791 -0.3133  0.1765  1.6789
  130DG      C1 2968   3.403   1.465   2.275 -0.9032 -0.5962  0.7394
  130DG      C2 2969   3.922   1.000   2.379 -0.0490  0.2038 -0.1768
  130DG      H3 2970   3.477   1.545   2.284 -0.5358 -0.5218 -1.9544
  130DG      H4 2971   3.324   1.510   2.335 -0.4320 -0.6183  1.3956
  130DG      H5 2972   3.373   1.442   2.173  0.5473  1.8825 -0.3448
  130DG      H6 2973   3.989   1.010   2.464  1.2393  0.3530 -1.1753
  130DG      H7 2974   3.920   0.902   2.332  1.1566 -0.1297  0.4460
  130DG      H8 2975   3.985   1.058   2.312  2.2374 -0.6047  1.1720
  130DG      O9 2976   3.433   1.345   2.336 -0.1746  0.0998 -0.1938
  130DG     O10 2977   3.784   1.045   2.396 -0.5467  0.4365  0.3279
  130DG     C11 2978   3.442   1.342   2.479 -0.4221 -0.9462  0.7165
  130DG     C12 2979   3.718   0.957   2.483 -0.1026 -0.4627 -0.3438
  130DG     H13 2980   3.355   1.389   2.525  0.9519  0.8227  1.6115
  130DG     H14 2981   3.524   1.406   2.513 -0.4624  0.2035 -1.1833
  130DG     H15 2982   3.782   0.960   2.571 -1.2757  3.1810  0.5420
  130DG     H16 2983   3.712   0.855   2.443 -0.7366 -0.8723  0.7641
  130DG     C17 2984   3.448   1.200   2.529  0.0689  0.2576 -0.0830
  130DG     C18 2985   3.576   1.011   2.500  0.2325 -0.0425  0.7625
  130DG     O19 2986   3.571   1.150   2.484 -0.0867 -0.6997 -0.0559
  130DG     H20 2987   3.367   1.139   2.491 -0.1732 -0.8363  2.0372
  130DG     H21 2988   3.424   1.189   2.635 -0.4776 -2.1562 -0.4051
  130DG     H22 2989   3.516   0.962   2.423  1.7462  0.7078 -0.9840
  130DG     H23 2990   3.532   0.988   2.597 -2.1422 -0.4800 -0.3343
  131DG      C1 2991   3.077   4.066   3.356  0.7105 -0.0095 -0.3227
  131DG      C2 2992   2.889   3.944   2.672 -0.2311  0.2977 -0.2276
  131DG      H3 2993   2.998   4.025   3.418  0.5896 -0.4028 -0.7304
  131DG      H4 2994   3.135   4.137   3.414  1.6424 -1.6486  0.8144
  131DG      H5 2995   3.154   3.989   3.353 -0.2952 -1.0522 -0.0144
  131DG      H6 2996   2.820   3.988   2.600  0.9981  2.2307 -0.3038
  131DG      H7 2997   2.992   3.960   2.641  0.3717 -0.5903  1.2304
  131DG      H8 2998   2.886   3.836   2.686  1.9572  0.2777  0.4244
  131DG      O9 2999   3.031   4.120   3.232 -0.1216 -0.2371  0.0402
  131DG     O10 3000   2.865   4.016   2.798 -0.0476 -0.2934  0.5172
  131DG     C11 3001   2.970   4.245   3.239  0.4609  0.0053 -0.2489
  131DG     C12 3002   2.832   4.152   2.785  0.3259 -0.0383 -0.4134
  131DG     H13 3003   3.041   4.327   3.235  0.6202 -0.0589  0.9467
  131DG     H14 3004   2.926   4.258   3.337  1.2055 -0.8662  0.2187
  131DG     H15 3005   2.749   4.168   2.716 -0.6082 -3.3484 -0.2312
  131DG     H16 3006   2.919   4.213   2.762 -1.4303  3.2085  0.8890
  131DG     C17 3007   2.862   4.269   3.131 -0.2293 -1.0417  0.3093
  131DG     C18 3008   2.781   4.210   2.919  1.0321  0.0697  0.4251
  131DG     O19 3009   2.890   4.208   3.001 -0.8053 -0.3335 -0.3072
  131DG     H20 3010   2.846   4.376   3.132 -0.3982 -1.0474  2.0513
  131DG     H21 3011   2.779   4.206   3.162 -0.1647 -0.9548  0.6623
  131DG     H22 3012   2.738   4.310   2.906 -0.1696 -0.4084  0.5937
  131DG     H23 3013   2.693   4.156   2.955  0.3364  0.4983 -0.5658
  132DG      C1 3014   1.108   3.153   3.613 -0.5628 -0.6461  0.5728
  132DG      C2 3015   1.546   2.619   3.551  0.3406 -0.0521 -0.5333
  132DG      H3 3016   1.018   3.162   3.674 -0.9506 -0.3132 -0.0359
  132DG      H4 3017   1.072   3.199   3.521 -1.3835 -2.4856 -0.0666
  132DG      H5 3018   1.194   3.205   3.655  1.0523 -1.8961 -1.0582
  132DG      H6 3019   1.585   2.524   3.515  2.6507  0.6587 -0.0873
  132DG      H7 3020   1.640   2.673   3.537 -0.2018  0.5699 -1.9422
  132DG      H8 3021   1.528   2.601   3.657 -2.4489 -2.0433 -1.2392
  132DG      O9 3022   1.125   3.017   3.586  0.1147  0.1154  0.4230
  132DG     O10 3023   1.431   2.672   3.488  0.4230 -0.0733 -0.2033
  132DG     C11 3024   1.025   2.965   3.501 -0.1309 -0.0147  0.0827
  132DG     C12 3025   1.324   2.580   3.500 -0.0844 -0.4922  0.9020
  132DG     H13 3026   1.033   3.009   3.402 -2.5940  1.3513  0.3883
  132DG     H14 3027   0.929   3.000   3.541 -0.4090  0.1641 -0.7111
  132DG     H15 3028   1.311   2.557   3.606  1.3324  0.5382  1.3378
  132DG     H16 3029   1.355   2.491   3.445 -0.4267 -0.9489  1.4380
  132DG     C17 3030   1.035   2.812   3.499 -0.2230  0.4314 -0.3231
  132DG     C18 3031   1.195   2.646   3.439 -0.1502 -0.7702 -0.4353
  132DG     O19 3032   1.171   2.784   3.475 -0.1882 -0.0093 -0.4515
  132DG     H20 3033   0.971   2.779   3.417  0.3098 -0.7708 -0.2820
  132DG     H21 3034   1.007   2.760   3.591  1.3810 -1.0791 -0.6237
  132DG     H22 3035   1.202   2.642   3.330 -1.7126 -0.0752 -0.5835
  132DG     H23 3036   1.104   2.590   3.463 -1.3000  0.1417 -2.4415
  133DG      C1 3037   5.232   2.838   3.076 -0.2163 -0.1546 -0.1380
  133DG      C2 3038   4.890   2.446   2.816  0.3685 -0.2398 -0.0729
  133DG      H3 3039   5.255   2.937   3.115  1.1544 -0.2002 -0.7552
  133DG      H4 3040   5.295   2.751   3.093 -2.1342 -1.2452  1.8340
  133DG      H5 3041   5.130   2.824   3.109 -1.0080  1.0670 -1.8983
  133DG      H6 3042   4.859   2.366   2.749  1.8747 -0.0606 -1.0277
  133DG      H7 3043   4.961   2.393   2.879 -0.5953 -0.6174  0.7281
  133DG      H8 3044   4.809   2.483   2.880  0.1501  0.2436 -0.6174
  133DG      O9 3045   5.218   2.866   2.934 -0.1845 -0.2137  0.1896
  133DG     O10 3046   4.955   2.539   2.733 -0.3554  0.1725 -0.5410
  133DG     C11 3047   5.334   2.828   2.860  0.4365  0.0092 -0.7887
  133DG     C12 3048   5.055   2.487   2.653 -0.1388 -0.6561  0.2872
  133DG     H13 3049   5.428   2.850   2.912  1.0921  1.2622 -2.4091
  133DG     H14 3050   5.342   2.883   2.766 -0.7849  0.7415 -0.4868
  133DG     H15 3051   5.068   2.556   2.570  2.6728  0.7010  1.7335
  133DG     H16 3052   5.033   2.391   2.606  2.0101 -1.0505 -0.0016
  133DG     C17 3053   5.331   2.673   2.828 -0.2297  0.0957 -0.8477
  133DG     C18 3054   5.186   2.493   2.731 -0.6598 -0.3412  0.3531
  133DG     O19 3055   5.203   2.628   2.775  0.8784 -0.2188  0.2454
  133DG     H20 3056   5.377   2.609   2.904  2.4697  0.3568 -2.1562
  133DG     H21 3057   5.409   2.663   2.753 -0.1720  3.4093 -1.3914
  133DG     H22 3058   5.184   2.432   2.821  1.5142  0.6121  1.0949
  133DG     H23 3059   5.266   2.449   2.671 -0.5653 -0.7079  0.7404
  134DG      C1 3060   0.106   5.427   3.727  0.2661 -1.0327  0.0557
  134DG      C2 3061   0.613   5.691   3.929  0.4234  0.5330 -0.4716
  134DG      H3 3062   0.177   5.390   3.653  2.1842  0.1307  1.2454
  134DG      H4 3063   0.067   5.525   3.700  0.2686 -1.1272 -0.2946
  134DG      H5 3064   0.028   5.351   3.718 -0.3766 -0.2447 -1.3961
  134DG      H6 3065   0.622   5.676   3.821 -3.0101 -1.0733 -0.6966
  134DG      H7 3066   0.659   5.788   3.946  0.8657  0.1182  0.7831
  134DG      H8 3067   0.672   5.609   3.970 -1.0159  0.0062  0.6391
  134DG      O9 3068   0.159   5.417   3.855  0.3372  0.1263 -0.1492
  134DG     O10 3069   0.478   5.681   3.976  0.4868 -0.3751  0.2387
  134DG     C11 3070   0.063   5.456   3.958 -0.2549 -0.0296  0.2783
  134DG     C12 3071   0.454   5.667   4.120  0.3361 -0.7626  0.2545
  134DG     H13 3072  -0.025   5.391   3.965 -2.7125  3.1237  1.4745
  134DG     H14 3073   0.025   5.550   3.919 -0.9247 -0.0819  0.7825
  134DG     H15 3074   0.483   5.753   4.180 -0.1804  0.1030 -0.6917
  134DG     H16 3075   0.519   5.582   4.141  1.3522 -0.5056 -1.5950
  134DG     C17 3076   0.148   5.473   4.085  0.1948 -0.3327 -0.2871
  134DG     C18 3077   0.311   5.633   4.149 -0.0015 -0.0367 -1.0955
  134DG     O19 3078   0.277   5.538   4.057  0.2765 -0.1790  0.3567
  134DG     H20 3079   0.171   5.371   4.117  1.8770 -0.8444 -2.8791
  134DG     H21 3080   0.079   5.520   4.156 -0.9052  1.1548 -2.2363
  134DG     H22 3081   0.300   5.603   4.254  0.4699 -3.1011 -1.8318
  134DG     H23 3082   0.240   5.715   4.137 -0.9745 -0.2306  2.1179
  135DG      C1 3083   1.457   0.801   4.343  0.1681  0.3529 -0.5155
  135DG      C2 3084   1.423   0.595   3.739 -0.3685  0.4634 -0.3177
  135DG      H3 3085   1.422   0.809   4.446 -1.1356  0.4582 -0.9526
  135DG      H4 3086   1.417   0.893   4.300 -0.3189  0.9829  1.1830
  135DG      H5 3087   1.566   0.796   4.339  0.2562  2.0088 -0.9500
  135DG      H6 3088   1.456   0.699   3.750 -0.3536  0.2593  2.1031
  135DG      H7 3089   1.489   0.533   3.679 -0.1981  1.3840 -1.1174
  135DG      H8 3090   1.323   0.600   3.695 -0.0409  0.8643 -1.0430
  135DG      O9 3091   1.393   0.686   4.284  0.0523 -0.5787  0.3190
  135DG     O10 3092   1.405   0.548   3.879  0.4473 -0.4222  0.1644
  135DG     C11 3093   1.433   0.561   4.330 -0.0002 -0.2130 -0.2082
  135DG     C12 3094   1.363   0.413   3.880  0.0217  0.2923 -0.1718
  135DG     H13 3095   1.417   0.548   4.436  2.1311 -0.4692  0.1295
  135DG     H14 3096   1.540   0.540   4.322 -0.0879 -1.6239  1.7971
  135DG     H15 3097   1.441   0.341   3.856 -0.2554  0.3762 -1.3946
  135DG     H16 3098   1.292   0.387   3.801  0.7622 -0.4670 -0.5984
  135DG     C17 3099   1.344   0.459   4.254 -0.1642 -0.5107 -0.0768
  135DG     C18 3100   1.299   0.381   4.023  0.1661 -0.1340 -0.1842
  135DG     O19 3101   1.375   0.464   4.115 -0.2744 -0.2778 -0.6373
  135DG     H20 3102   1.240   0.491   4.269 -0.3114 -0.7266 -0.6122
  135DG     H21 3103   1.343   0.362   4.303  0.1881 -0.4671  0.0137
  135DG     H22 3104   1.196   0.417   4.022 -0.5492 -2.0760 -0.5016
  135DG     H23 3105   1.304   0.275   4.048 -1.3827 -0.3973 -0.8940
  136DG      C1 3106   3.143   2.704   1.229  0.5734 -0.2482 -0.7643
  136DG      C2 3107   3.115   3.341   1.325 -0.1792 -0.2451  0.5292
  136DG      H3 3108   3.177   2.600   1.227  2.4647  0.1634  2.7413
  136DG      H4 3109   3.228   2.766   1.254 -0.1277  0.4788 -0.1587
  136DG      H5 3110   3.096   2.738   1.136  0.7336  2.0323 -0.0601
  136DG      H6 3111   3.065   3.394   1.406  0.1871 -0.0049  0.5964
  136DG      H7 3112   3.219   3.373   1.317 -0.2242 -0.1714  0.2271
  136DG      H8 3113   3.057   3.342   1.232  0.7935 -1.7598 -0.1305
  136DG      O9 3114   3.048   2.728   1.337 -0.7535 -0.2142  0.1170
  136DG     O10 3115   3.124   3.205   1.365 -0.2646  0.2211  0.6982
  136DG     C11 3116   3.094   2.702   1.468 -0.3857  0.2108 -0.2540
  136DG     C12 3117   3.192   3.184   1.491 -0.0453  0.0251 -0.5812
  136DG     H13 3118   3.138   2.603   1.474 -1.1075 -0.0921  0.0053
  136DG     H14 3119   3.017   2.703   1.544 -1.3028 -0.4087 -1.1429
  136DG     H15 3120   3.125   3.219   1.570  0.8293 -0.0602  0.2267
  136DG     H16 3121   3.280   3.249   1.494 -1.6593  2.5790 -3.3317
  136DG     C17 3122   3.191   2.814   1.523  0.2192 -0.5527  0.4098
  136DG     C18 3123   3.247   3.044   1.513  0.4093  0.4348  0.4721
  136DG     O19 3124   3.145   2.950   1.485 -0.2700  0.2497 -0.0270
  136DG     H20 3125   3.288   2.806   1.474 -0.3071 -0.2835 -0.7095
  136DG     H21 3126   3.203   2.814   1.631 -0.0339  2.6498  0.5354
  136DG     H22 3127   3.332   3.027   1.447  0.5986  0.4029  0.7235
  136DG     H23 3128   3.281   3.025   1.615 -0.5711  0.5078  0.8243
  137DG      C1 3129   3.499   0.173   4.787  0.2938 -0.3718  0.4143
  137DG      C2 3130   4.180   0.268   5.254  0.3217 -0.7243  0.0990
  137DG      H3 3131   3.433   0.201   4.704 -0.1544 -2.0850  0.1546
  137DG      H4 3132   3.424   0.142   4.860 -0.0595 -1.8308 -0.5355
  137DG      H5 3133   3.553   0.081   4.767  2.6555  1.3717 -1.9711
  137DG      H6 3134   4.127   0.241   5.346  0.0802  0.6214  0.3740
  137DG      H7 3135   4.231   0.181   5.212 -1.1382 -1.3721 -0.4078
  137DG      H8 3136   4.263   0.331   5.287 -0.5988  0.6297 -0.0683
  137DG      O9 3137   3.578   0.283   4.822  0.2985 -0.1858  0.0855
  137DG     O10 3138   4.099   0.327   5.151  0.1489  0.3888 -0.6207
  137DG     C11 3139   3.662   0.255   4.927 -0.7841  0.0177 -0.9353
  137DG     C12 3140   4.026   0.445   5.190 -0.0003  0.1284 -0.8111
  137DG     H13 3141   3.735   0.175   4.913 -0.6020 -0.0602  0.2969
  137DG     H14 3142   3.609   0.213   5.013 -0.0144  0.8905  0.0069
  137DG     H15 3143   4.103   0.522   5.192  2.2373 -1.8372  3.2768
  137DG     H16 3144   3.981   0.428   5.288  0.8172  0.1860 -0.4139
  137DG     C17 3145   3.732   0.389   4.962  0.8294  0.2086  0.1197
  137DG     C18 3146   3.918   0.487   5.092  0.7884  0.2718  0.4423
  137DG     O19 3147   3.843   0.372   5.049  0.3230 -0.0687 -0.3122
  137DG     H20 3148   3.648   0.440   5.011  1.2430 -0.2966  1.4097
  137DG     H21 3149   3.762   0.446   4.875 -0.8078  0.7521 -0.1300
  137DG     H22 3150   3.852   0.558   5.141  0.7757  0.1239  0.6388
  137DG     H23 3151   3.961   0.536   5.004  0.5627 -0.4375 -0.0757
  138DG      C1 3152   0.625   0.788   5.237 -0.1651  1.0617  0.4986
  138DG      C2 3153   0.335   1.369   4.684  0.2118  0.6697 -0.7173
  138DG      H3 3154   0.560   0.828   5.314  0.4002  2.6202  0.1957
  138DG      H4 3155   0.714   0.850   5.229  1.1017 -0.4909  1.7172
  138DG      H5 3156   0.658   0.686   5.257 -1.1151  0.4656 -0.8149
  138DG      H6 3157   0.422   1.432   4.704  1.5651 -1.3771  0.2563
  138DG      H7 3158   0.293   1.385   4.585 -1.5337  1.0465  0.0574
  138DG      H8 3159   0.260   1.391   4.759  1.9735  4.3855  0.1804
  138DG      O9 3160   0.554   0.785   5.117 -1.0646  0.4225 -0.3111
  138DG     O10 3161   0.388   1.239   4.702 -0.6798 -0.0543  0.7279
  138DG     C11 3162   0.505   0.909   5.075  0.1288 -0.0544 -0.3561
  138DG     C12 3163   0.282   1.141   4.699 -0.1764 -0.9777  0.3852
  138DG     H13 3164   0.589   0.978   5.073 -0.3605  0.6147  1.0084
  138DG     H14 3165   0.432   0.948   5.146 -2.4168 -1.4724 -2.0237
  138DG     H15 3166   0.259   1.126   4.594  3.9322 -0.5286 -0.7424
  138DG     H16 3167   0.189   1.172   4.747  0.1304  2.4701 -0.9859
  138DG     C17 3168   0.446   0.909   4.934 -0.0966  0.0145 -0.5883
  138DG     C18 3169   0.320   1.011   4.761 -0.5809 -0.7785 -0.2388
  138DG     O19 3170   0.391   1.028   4.881 -0.3465 -0.1011 -0.0277
  138DG     H20 3171   0.369   0.832   4.942  0.1288 -0.0453  1.3000
  138DG     H21 3172   0.517   0.875   4.858  0.9354 -0.9485  0.7703
  138DG     H22 3173   0.226   0.957   4.775 -0.6337 -0.4880  0.6323
  138DG     H23 3174   0.380   0.958   4.688  1.7847  1.2505  0.0904
  139DG      C1 3175   0.995   2.933   4.471  0.1691  0.7576 -0.3386
  139DG      C2 3176   0.972   3.463   4.918  0.6766 -0.4302 -0.4193
  139DG      H3 3177   0.897   2.890   4.488 -0.8678  1.8529 -2.8854
  139DG      H4 3178   1.067   2.852   4.477  0.9194  1.3304 -1.1348
  139DG      H5 3179   0.993   2.961   4.365  0.1447  0.1156 -0.5080
  139DG      H6 3180   0.952   3.549   4.853  1.0680  1.7565  2.1648
  139DG      H7 3181   0.869   3.430   4.928 -0.0628  1.9762  0.6841
  139DG      H8 3182   1.003   3.520   5.005  1.4735  1.4528 -1.8394
  139DG      O9 3183   1.016   3.042   4.562 -0.2890  0.3452 -0.2707
  139DG     O10 3184   1.071   3.380   4.864 -0.0589 -0.2530  0.1711
  139DG     C11 3185   1.150   3.094   4.551  0.1872  0.1193  0.0356
  139DG     C12 3186   1.110   3.290   4.958  0.2817  0.2043  0.4481
  139DG     H13 3187   1.183   3.107   4.448  0.2864 -2.0928 -0.2555
  139DG     H14 3188   1.213   3.016   4.594  0.6970  1.1490  1.2680
  139DG     H15 3189   1.016   3.240   4.978  0.3107 -0.9602 -1.9624
  139DG     H16 3190   1.145   3.340   5.048  1.8032  0.6400 -0.3411
  139DG     C17 3191   1.174   3.193   4.674 -0.7622 -0.3963 -0.1046
  139DG     C18 3192   1.208   3.182   4.906 -0.0825 -0.3130 -0.6704
  139DG     O19 3193   1.162   3.118   4.792  0.1999  0.2190 -0.4953
  139DG     H20 3194   1.099   3.271   4.659 -0.6619 -0.7260 -2.8657
  139DG     H21 3195   1.268   3.245   4.657 -0.0591 -1.3310  0.7958
  139DG     H22 3196   1.304   3.228   4.884 -0.6590  2.9085  2.5337
  139DG     H23 3197   1.218   3.101   4.979 -2.3236 -0.3150 -0.3011
  140DG      C1 3198   3.316   1.664   0.047 -0.3060 -0.1592  0.4449
  140DG      C2 3199   3.909   2.057  -0.032  0.5253  0.2736 -0.2019
  140DG      H3 3200   3.344   1.568   0.092  2.1141  0.7703  1.0784
  140DG      H4 3201   3.308   1.660  -0.062 -2.1418  0.6889  0.5106
  140DG      H5 3202   3.218   1.685   0.088 -1.6255  0.5601 -2.7558
  140DG      H6 3203   4.006   2.104  -0.013 -0.6778  4.1373 -2.4106
  140DG      H7 3204   3.939   1.999  -0.120 -0.6791  0.1848 -0.5633
  140DG      H8 3205   3.847   2.137  -0.074  0.6482  1.4310  1.7193
  140DG      O9 3206   3.412   1.760   0.097  0.2988  0.4253 -0.1930
  140DG     O10 3207   3.849   1.973   0.066 -0.9001  0.0584  0.2741
  140DG     C11 3208   3.448   1.739   0.231 -0.3694 -0.0875 -0.3182
  140DG     C12 3209   3.790   2.054   0.168  0.1025 -0.5946  0.3064
  140DG     H13 3210   3.506   1.647   0.232  1.3697  0.8907  2.3590
  140DG     H14 3211   3.364   1.724   0.299 -0.5081  1.1746 -0.1881
  140DG     H15 3212   3.704   2.107   0.126  1.6875  2.3738  0.6129
  140DG     H16 3213   3.847   2.133   0.216  2.1458 -1.5046 -0.5337
  140DG     C17 3214   3.531   1.852   0.285  0.2048 -0.9388 -0.0735
  140DG     C18 3215   3.742   1.964   0.280 -0.0071  0.6752 -0.0770
  140DG     O19 3216   3.655   1.870   0.216  0.1811  0.6109  0.5105
  140DG     H20 3217   3.536   1.833   0.393 -0.7525  0.5465  0.2578
  140DG     H21 3218   3.473   1.944   0.281 -0.4902 -1.3730 -0.1661
  140DG     H22 3219   3.836   1.922   0.314  0.3436  2.8881  1.9897
  140DG     H23 3220   3.699   2.014   0.367 -0.4440  1.1036 -0.5312
  141DG      C1 3221   3.824   0.593   3.877  0.5135  0.1628 -0.4776
  141DG      C2 3222   3.426   0.209   3.460 -0.4273 -0.8175  0.4795
  141DG      H3 3223   3.926   0.560   3.895 -0.4147 -1.8332  1.4384
  141DG      H4 3224   3.799   0.663   3.956 -0.4407  0.0433 -0.6609
  141DG      H5 3225   3.821   0.652   3.785 -1.0720  2.6129  1.0270
  141DG      H6 3226   3.473   0.122   3.416 -1.3203 -0.7722 -0.6169
  141DG      H7 3227   3.317   0.201   3.456 -0.4916  0.1377 -0.1321
  141DG      H8 3228   3.453   0.288   3.390  1.4312  0.0157  2.0144
  141DG      O9 3229   3.739   0.483   3.867 -0.0607 -0.0782  0.3502
  141DG     O10 3230   3.473   0.246   3.595 -0.6357  0.1570 -0.8654
  141DG     C11 3231   3.747   0.395   3.984 -0.4047  0.0784 -0.1836
  141DG     C12 3232   3.453   0.142   3.688  0.5428  0.0464 -0.0897
  141DG     H13 3233   3.769   0.444   4.079  0.3528  0.5306 -0.5812
  141DG     H14 3234   3.823   0.323   3.952  0.2567  0.2999  0.8386
  141DG     H15 3235   3.521   0.058   3.675 -0.7240 -0.6913 -2.5337
  141DG     H16 3236   3.352   0.102   3.684  0.7042 -0.8419  2.5289
  141DG     C17 3237   3.620   0.308   3.984 -0.3401  0.3477  0.2638
  141DG     C18 3238   3.472   0.192   3.833 -0.4937 -0.1788  0.1033
  141DG     O19 3239   3.593   0.266   3.852  0.4328  0.0907 -0.3471
  141DG     H20 3240   3.541   0.375   4.018 -0.9496 -0.1299 -0.1941
  141DG     H21 3241   3.628   0.218   4.043 -2.1146  0.1543  0.2607
  141DG     H22 3242   3.390   0.260   3.857  0.2918  0.1416  2.0574
  141DG     H23 3243   3.458   0.111   3.904 -1.8821 -1.5169 -1.6242
  142DG      C1 3244   1.368   3.670   2.875  0.8584  0.2075 -0.4153
  142DG      C2 3245   1.955   3.496   2.570 -0.0557 -0.4691  0.2224
  142DG      H3 3246   1.395   3.672   2.981  0.3603 -1.0673 -0.2470
  142DG      H4 3247   1.263   3.642   2.865  1.7368 -3.4047 -1.1684
  142DG      H5 3248   1.368   3.775   2.847  0.1291  0.0433 -1.0467
  142DG      H6 3249   1.933   3.586   2.511 -1.4489 -1.1102 -0.2805
  142DG      H7 3250   2.030   3.517   2.646  1.9713 -1.0305 -1.5396
  142DG      H8 3251   1.991   3.439   2.485 -0.1804  1.6061 -1.3171
  142DG      O9 3252   1.448   3.577   2.805 -0.1347  0.5174  0.4630
  142DG     O10 3253   1.831   3.454   2.624 -0.8139  0.1014  1.0840
  142DG     C11 3254   1.400   3.444   2.824 -0.4658 -0.1337 -0.0384
  142DG     C12 3255   1.843   3.332   2.698 -0.8911  0.4103 -0.0927
  142DG     H13 3256   1.301   3.426   2.784 -0.9721 -0.2278  1.2319
  142DG     H14 3257   1.402   3.420   2.930 -0.6920  1.9510  0.4920
  142DG     H15 3258   1.874   3.338   2.803  0.8373 -0.2809 -0.5408
  142DG     H16 3259   1.912   3.261   2.653 -1.1707  0.8489 -1.2449
  142DG     C17 3260   1.484   3.343   2.749 -0.8798  0.4568 -0.1034
  142DG     C18 3261   1.702   3.282   2.683 -0.4330 -0.3435 -0.9083
  142DG     O19 3262   1.621   3.372   2.760 -0.5612  0.2903 -0.0730
  142DG     H20 3263   1.456   3.348   2.644 -0.9672 -0.5355 -0.1344
  142DG     H21 3264   1.462   3.243   2.787  0.2482  0.4028  0.4556
  142DG     H22 3265   1.652   3.286   2.586 -1.8042  2.7482 -0.1975
  142DG     H23 3266   1.693   3.179   2.719 -0.8461 -0.5081 -1.4611
  143DG      C1 3267   0.051   2.403   5.342 -0.3069 -0.7245  0.3181
  143DG      C2 3268  -0.412   2.687   4.944  0.4388  0.6858  0.7805
  143DG      H3 3269   0.147   2.449   5.320 -1.5105  1.4345 -0.7309
  143DG      H4 3270   0.072   2.311   5.396 -0.0505 -1.8602 -1.6395
  143DG      H5 3271  -0.004   2.465   5.414  2.3403  0.6661  1.2805
  143DG      H6 3272  -0.511   2.683   4.990  0.4338 -0.5250  0.6967
  143DG      H7 3273  -0.357   2.759   5.005  0.9384  1.8490 -0.9526
  143DG      H8 3274  -0.424   2.727   4.843 -0.6491  0.2590  0.7254
  143DG      O9 3275  -0.020   2.376   5.218  0.2253  0.3724  0.1064
  143DG     O10 3276  -0.341   2.564   4.939  0.0802  0.1724 -0.7360
  143DG     C11 3277  -0.097   2.249   5.211  0.0307  0.0126 -0.4044
  143DG     C12 3278  -0.425   2.454   4.948  0.0507 -0.7406  0.2252
  143DG     H13 3279  -0.157   2.234   5.301  1.2100  1.6297  0.7019
  143DG     H14 3280  -0.023   2.169   5.212  1.1034  0.9803 -0.4702
  143DG     H15 3281  -0.497   2.461   4.866 -2.2087 -0.8084  2.1200
  143DG     H16 3282  -0.481   2.457   5.041 -1.7099 -0.5439 -0.8067
  143DG     C17 3283  -0.165   2.228   5.074  1.1266 -0.8495 -0.2538
  143DG     C18 3284  -0.345   2.322   4.948 -0.3359 -0.5577 -0.5828
  143DG     O19 3285  -0.264   2.335   5.066 -0.1856  0.5580 -0.4934
  143DG     H20 3286  -0.211   2.131   5.088 -1.3414  0.2494 -0.1903
  143DG     H21 3287  -0.081   2.220   5.005  0.5325 -1.3124 -0.9433
  143DG     H22 3288  -0.404   2.232   4.970  2.0095 -1.6252  1.9500
  143DG     H23 3289  -0.293   2.315   4.852 -3.1984  2.6015 -2.6083
  144DG      C1 3290   1.480   3.528   3.876  0.0222  0.3837  0.5858
  144DG      C2 3291   1.492   3.758   3.236 -0.4328 -0.1039 -0.1292
  144DG      H3 3292   1.438   3.431   3.851  0.7728  0.6887 -2.1610
  144DG      H4 3293   1.468   3.536   3.984 -0.5501  0.2534  0.5392
  144DG      H5 3294   1.587   3.516   3.861 -0.4002 -1.4588 -1.5473
  144DG      H6 3295   1.402   3.719   3.189 -1.0397 -0.3290  1.1751
  144DG      H7 3296   1.531   3.851   3.194  1.1004 -0.3180  0.7138
  144DG      H8 3297   1.575   3.687   3.241 -1.1552 -1.1296 -1.9308
  144DG      O9 3298   1.420   3.625   3.785 -0.2218 -0.0079 -0.0033
  144DG     O10 3299   1.472   3.801   3.370  0.3144 -0.1437 -0.0500
  144DG     C11 3300   1.488   3.748   3.801 -0.1476  0.2124  0.2837
  144DG     C12 3301   1.362   3.893   3.388  0.4161 -0.1134 -0.9837
  144DG     H13 3302   1.582   3.747   3.747 -0.0283  0.4868  0.4834
  144DG     H14 3303   1.514   3.776   3.903  0.9700  1.1374 -0.2303
  144DG     H15 3304   1.271   3.836   3.366 -1.2762  2.7469 -1.9689
  144DG     H16 3305   1.364   3.978   3.321  0.3087 -0.6117 -1.6364
  144DG     C17 3306   1.389   3.850   3.750  0.1319  0.1058  0.4341
  144DG     C18 3307   1.347   3.948   3.536  0.2770  0.4069 -0.3291
  144DG     O19 3308   1.386   3.835   3.613  0.5128  0.0182 -0.1090
  144DG     H20 3309   1.400   3.952   3.785  0.7547 -0.0646  0.7451
  144DG     H21 3310   1.285   3.823   3.772  0.3586 -0.7963  0.4277
  144DG     H22 3311   1.416   4.030   3.554  0.8413  0.1351 -1.1828
  144DG     H23 3312   1.241   3.967   3.551  0.3963 -0.4433  2.1070
  145THF     O1 3313   5.238   1.858   0.085  0.0349 -1.5472  0.4205
  145THF     C2 3314   5.166   1.962   0.018  0.4637  0.7354 -0.3174
  145THF     C3 3315   5.193   1.733   0.035  0.0759 -0.4214  0.6332
  145THF     H4 3316   5.200   1.973  -0.085 -2.4008 -1.3869 -1.6435
  145THF     H5 3317   5.182   2.056   0.072 -0.3466  1.0231 -0.5641
  145THF     H6 3318   5.219   1.719  -0.070  2.8093  1.6602  0.8979
  145THF     H7 3319   5.214   1.648   0.099 -0.3057  0.7774  2.4299
  145THF     C8 3320   5.044   1.765   0.021 -0.0444 -0.2413 -0.4025
  145THF     C9 3321   5.029   1.916   0.021  0.7716  0.3005  0.3164
  145THF    H10 3322   4.993   1.723   0.108  1.6234  0.8194  1.1572
  145THF    H11 3323   4.998   1.736  -0.074 -0.4222  0.1635 -0.3476
  145THF    H12 3324   4.982   1.950  -0.071 -0.4777 -0.6128  0.5916
  145THF    H13 3325   4.961   1.954   0.098 -1.2985  0.3169 -1.4312
  146THF     O1 3326   3.277   2.840   3.157 -0.3000 -0.1473 -0.3894
  146THF     C2 3327   3.384   2.828   3.058  0.5273 -0.6991  0.5686
  146THF     C3 3328   3.321   2.761   3.262 -0.0756  0.8595 -0.3598
  146THF     H4 3329   3.383   2.901   2.978  2.8518  0.4391  1.4747
  146THF     H5 3330   3.362   2.735   3.006 -0.4718  0.1323 -0.5287
  146THF     H6 3331   3.294   2.807   3.357  1.2595  1.1448 -0.0997
  146THF     H7 3332   3.269   2.666   3.269  1.9754 -0.4515 -1.7829
  146THF     C8 3333   3.474   2.761   3.260  0.7258  0.3881  0.4210
  146THF     C9 3334   3.516   2.817   3.130 -0.0053 -0.3214 -0.2518
  146THF    H10 3335   3.502   2.660   3.291 -1.6261 -0.1235  1.0520
  146THF    H11 3336   3.511   2.830   3.337  1.0083  0.2423  0.4168
  146THF    H12 3337   3.559   2.916   3.147  0.9304 -0.8943  0.9123
  146THF    H13 3338   3.581   2.746   3.078 -0.7542 -0.7764 -0.5810
  147THF     O1 3339   3.573   1.024   2.174  0.2314 -0.2988  0.1652
  147THF     C2 3340   3.654   0.925   2.103  0.2404 -0.4205 -0.3956
  147THF     C3 3341   3.444   1.030   2.114  0.2148 -0.2474 -0.6940
  147THF     H4 3342   3.693   0.847   2.169 -0.8179 -0.5086  0.1309
  147THF     H5 3343   3.739   0.972   2.053  0.7917  0.4926  1.3149
  147THF     H6 3344   3.374   0.973   2.176 -1.8535  2.0817 -0.7022
  147THF     H7 3345   3.400   1.130   2.108 -0.7729 -0.5816  0.4168
  147THF     C8 3346   3.460   0.964   1.973 -0.0570  0.4064  0.3059
  147THF     C9 3347   3.562   0.858   1.997  0.2619  0.0588 -0.2727
  147THF    H10 3348   3.500   1.043   1.909  0.2327  0.5980  0.7129
  147THF    H11 3349   3.373   0.926   1.921  0.6476  2.9176 -3.0290
  147THF    H12 3350   3.523   0.767   2.043 -0.7268 -0.7338 -2.5739
  147THF    H13 3351   3.617   0.830   1.907 -0.7911  1.3302 -1.3493
  148THF     O1 3352   3.176   5.185   0.163  0.5190  0.3122  0.2543
  148THF     C2 3353   3.200   5.322   0.140 -0.6411  0.1997  0.9247
  148THF     C3 3354   3.132   5.179   0.301  0.2181 -0.0879  0.7204
  148THF     H4 3355   3.216   5.350   0.036  3.5272 -1.2937  0.9481
  148THF     H5 3356   3.289   5.347   0.197  1.0837 -1.6282 -0.7823
  148THF     H6 3357   3.079   5.089   0.332  0.6094 -0.1381  1.2650
  148THF     H7 3358   3.227   5.186   0.354  1.9509 -0.4117 -2.1338
  148THF     C8 3359   3.036   5.296   0.312  0.3447 -0.4024 -0.6474
  148THF     C9 3360   3.074   5.379   0.191  0.2648  0.1344 -0.2660
  148THF    H10 3361   3.053   5.346   0.407 -0.7319 -0.5424 -0.3701
  148THF    H11 3362   2.930   5.273   0.313  0.5935 -1.6012  0.3739
  148THF    H12 3363   2.995   5.355   0.120  0.1499 -2.1168  0.5471
  148THF    H13 3364   3.076   5.487   0.203  2.6569  0.0076  1.2579
  149THF     O1 3365   5.363   3.890   3.819 -0.2635  0.2016 -0.1585
  149THF     C2 3366   5.328   3.870   3.955 -0.0137  0.1921  0.2109
  149THF     C3 3367   5.269   3.821   3.741  0.2126  0.2989  0.4824
  149THF     H4 3368   5.241   3.936   3.965  1.1263  1.9080 -0.7767
  149THF     H5 3369   5.418   3.898   4.008  2.6877 -2.0121 -2.8356
  149THF     H6 3370   5.174   3.876   3.743  0.6605  1.2699 -1.8057
  149THF     H7 3371   5.299   3.808   3.637  1.2767 -0.3415  0.8599
  149THF     C8 3372   5.261   3.688   3.814  0.2826  0.6342  0.5550
  149THF     C9 3373   5.284   3.723   3.956  0.2615  0.1592  0.0162
  149THF    H10 3374   5.333   3.627   3.760 -0.1422  1.4757 -1.0184
  149THF    H11 3375   5.166   3.638   3.795  0.6787  0.1820 -0.2779
  149THF    H12 3376   5.194   3.702   4.015  0.4364 -1.8255 -0.3530
  149THF    H13 3377   5.370   3.661   3.982 -0.2962 -0.4384  0.4924
  150THF     O1 3378   2.277   0.805   0.927  0.3970 -0.2781 -0.2230
  150THF     C2 3379   2.293   0.852   0.789 -0.0188  0.0262 -0.5047
  150THF     C3 3380   2.373   0.708   0.959  0.5151  0.7960 -0.0708
  150THF     H4 3381   2.284   0.960   0.785  1.4123  0.3349  2.2510
  150THF     H5 3382   2.211   0.814   0.728 -0.0801  1.1832 -1.1663
  150THF     H6 3383   2.389   0.709   1.067 -1.4603  0.8003  0.2737
  150THF     H7 3384   2.345   0.604   0.939  1.4522  0.6214 -0.4979
  150THF     C8 3385   2.493   0.738   0.873  0.1039  0.0498 -0.3608
  150THF     C9 3386   2.425   0.780   0.745 -0.3116  0.2055 -0.1674
  150THF    H10 3387   2.559   0.651   0.868  0.9428  0.3201  3.0793
  150THF    H11 3388   2.544   0.823   0.919 -1.0354  0.9766 -0.7422
  150THF    H12 3389   2.485   0.851   0.688 -0.1608 -1.3834 -2.0547
  150THF    H13 3390   2.405   0.701   0.674 -2.7404  0.5839  0.0026
  151THF     O1 3391   3.059   2.323   1.407  0.2078  0.5686 -0.0694
  151THF     C2 3392   3.201   2.307   1.400  0.0459  0.8385 -0.0269
  151THF     C3 3393   3.005   2.331   1.276  0.1036  0.0264  0.4984
  151THF     H4 3394   3.233   2.259   1.493 -1.9815  0.0058  0.3013
  151THF     H5 3395   3.245   2.407   1.395  0.8986  0.4062 -1.8200
  151THF     H6 3396   2.904   2.293   1.261  0.9389 -2.2543  0.1585
  151THF     H7 3397   3.014   2.436   1.248  1.1964 -0.2563 -0.2990
  151THF     C8 3398   3.109   2.274   1.182  0.1035 -0.7047  0.0139
  151THF     C9 3399   3.219   2.231   1.273  0.0375  0.2390 -0.1426
  151THF    H10 3400   3.137   2.350   1.109 -2.0543  0.2278  0.0809
  151THF    H11 3401   3.067   2.185   1.134 -0.6172 -0.9640  1.0975
  151THF    H12 3402   3.205   2.127   1.304  0.5998 -0.3939 -1.8564
  151THF    H13 3403   3.319   2.239   1.231  1.9643  1.0885  4.0712
  152THF     O1 3404   2.673   0.350   1.663  0.0866 -0.3571  0.8264
  152THF     C2 3405   2.740   0.453   1.588  0.6254  0.2554 -0.4182
  152THF     C3 3406   2.568   0.414   1.726  0.1118  0.3227  0.1394
  152THF     H4 3407   2.672   0.481   1.508  1.2852 -0.1084 -1.1240
  152THF     H5 3408   2.841   0.431   1.554 -0.0936 -3.5678 -0.5957
  152THF     H6 3409   2.489   0.432   1.653 -1.0352 -2.9695  0.4209
  152THF     H7 3410   2.538   0.343   1.803  1.8839 -1.6679 -0.9139
  152THF     C8 3411   2.609   0.548   1.771 -0.1583 -0.3574 -0.2605
  152THF     C9 3412   2.738   0.570   1.691  0.1040  0.4637 -0.0166
  152THF    H10 3413   2.639   0.552   1.875  0.1262  0.6263 -0.3671
  152THF    H11 3414   2.528   0.618   1.747  0.1764  0.5869  1.2689
  152THF    H12 3415   2.732   0.672   1.653 -1.4576  0.4944  0.2481
  152THF    H13 3416   2.820   0.543   1.757  1.0410 -0.7408 -1.5970
  153THF     O1 3417   3.836   0.258   3.057 -0.4941 -0.5900  0.2121
  153THF     C2 3418   3.827   0.197   3.191  0.0569 -0.2070  0.5475
  153THF     C3 3419   3.767   0.181   2.975  0.8299 -0.9214 -0.5489
  153THF     H4 3420   3.865   0.261   3.270  0.7154 -2.0997  1.8224
  153THF     H5 3421   3.890   0.108   3.195 -1.0660 -0.9920  1.1580
  153THF     H6 3422   3.730   0.239   2.891 -1.9233  0.7807  1.6176
  153THF     H7 3423   3.835   0.103   2.943 -1.0168 -2.5095 -0.8310
  153THF     C8 3424   3.651   0.128   3.062  0.8412 -0.0304 -0.0248
  153THF     C9 3425   3.677   0.172   3.207  0.1939 -0.1529  0.2943
  153THF    H10 3426   3.646   0.020   3.048 -3.8372  0.0943 -0.7117
  153THF    H11 3427   3.561   0.175   3.024  1.4796  0.9754 -0.3228
  153THF    H12 3428   3.630   0.263   3.244 -3.1869 -1.4449 -0.4734
  153THF    H13 3429   3.666   0.095   3.284 -1.7538 -0.4784 -0.2581
  154THF     O1 3430   1.234   2.378   4.746 -0.3239 -0.1297  0.0582
  154THF     C2 3431   1.212   2.383   4.608  0.1782 -0.3293 -0.2399
  154THF     C3 3432   1.360   2.443   4.772  0.0232 -0.3896 -0.0594
  154THF     H4 3433   1.109   2.385   4.571  0.6381  1.1862 -1.5497
  154THF     H5 3434   1.265   2.294   4.573  0.9065 -0.0338  0.1006
  154THF     H6 3435   1.378   2.472   4.875 -1.5967 -0.1874  0.1972
  154THF     H7 3436   1.448   2.389   4.738  0.1161 -0.3570  0.1274
  154THF     C8 3437   1.339   2.567   4.693  0.2334 -0.2734  0.1837
  154THF     C9 3438   1.272   2.516   4.566 -1.2330 -0.1057 -0.3903
  154THF    H10 3439   1.438   2.613   4.682 -0.0711  0.4272  0.3646
  154THF    H11 3440   1.282   2.648   4.738  0.4590 -0.1621  0.2770
  154THF    H12 3441   1.201   2.594   4.537  0.1990  2.3852  2.2599
  154THF    H13 3442   1.348   2.501   4.490  0.1160  1.4655  0.5889
  155THF     O1 3443   2.444   1.635   1.542  0.3883  0.3619 -0.9149
  155THF     C2 3444   2.540   1.728   1.584 -0.0952 -0.3824  0.5147
  155THF     C3 3445   2.343   1.700   1.472  1.1192  0.7036  0.1481
  155THF     H4 3446   2.603   1.764   1.503 -3.0344  2.8150 -0.5637
  155THF     H5 3447   2.608   1.690   1.661 -1.2824  0.5013  2.0617
  155THF     H6 3448   2.373   1.706   1.367  2.8446 -2.4990  0.3209
  155THF     H7 3449   2.244   1.657   1.485  1.1775  0.0483 -1.4116
  155THF     C8 3450   2.336   1.841   1.537 -0.3120 -0.2992 -0.1733
  155THF     C9 3451   2.460   1.846   1.629  0.1568 -0.3870  1.0042
  155THF    H10 3452   2.241   1.833   1.590 -0.5251 -2.2831 -0.7869
  155THF    H11 3453   2.324   1.919   1.462  0.8857 -0.9530 -1.0644
  155THF    H12 3454   2.501   1.947   1.624 -1.0194  0.2022  2.5343
  155THF    H13 3455   2.417   1.828   1.727  0.9818  1.4979  1.7614
  156THF     O1 3456   0.071   4.323   4.237 -0.6704 -0.4880  0.2643
  156THF     C2 3457   0.000   4.335   4.113 -0.4796 -0.4665  0.0566
  156THF     C3 3458   0.024   4.423   4.328 -1.0113  0.4193  0.8901
  156THF     H4 3459  -0.009   4.240   4.060 -2.9056 -0.7715  0.8808
  156THF     H5 3460   0.059   4.408   4.057  1.7959 -2.6418 -0.5562
  156THF     H6 3461   0.028   4.389   4.431 -2.2079 -1.2507  0.4225
  156THF     H7 3462   0.085   4.513   4.315 -0.8799  0.1613 -0.4218
  156THF     C8 3463  -0.126   4.438   4.291  0.0215 -1.2905 -0.1046
  156THF     C9 3464  -0.137   4.386   4.145 -0.2376  0.0385 -0.2799
  156THF    H10 3465  -0.165   4.539   4.291  1.3123 -0.7590  1.1197
  156THF    H11 3466  -0.190   4.382   4.359 -1.7774 -0.3445 -0.9779
  156THF    H12 3467  -0.216   4.312   4.137 -1.0683  0.8331  0.3836
  156THF    H13 3468  -0.157   4.465   4.073  0.2265  0.3776 -0.0441
  157THF     O1 3469   3.937   5.253   2.104  0.3098 -0.6039  0.3617
  157THF     C2 3470   3.973   5.353   2.006  0.2961  0.6781 -0.1608
  157THF     C3 3471   4.035   5.156   2.107 -0.3885  0.0903 -0.1500
  157THF     H4 3472   3.934   5.454   2.017 -1.9185  0.0418 -1.6663
  157THF     H5 3473   3.945   5.317   1.908  2.8541 -4.0249  0.5488
  157THF     H6 3474   4.045   5.115   2.207  1.4491  0.5808 -0.0954
  157THF     H7 3475   4.011   5.073   2.041  1.2658 -2.1883  1.9521
  157THF     C8 3476   4.167   5.226   2.072 -0.2024  0.1570  0.6332
  157THF     C9 3477   4.129   5.361   2.005 -0.2250  0.2577 -0.6355
  157THF    H10 3478   4.224   5.161   2.006 -2.3649 -0.8599 -0.3424
  157THF    H11 3479   4.231   5.244   2.159  0.5720  0.3502  0.0273
  157THF    H12 3480   4.157   5.442   2.072  0.1166  1.2231 -1.9187
  157THF    H13 3481   4.171   5.391   1.909 -0.2038  0.2321 -0.6345
  158THF     O1 3482   4.765   2.859   5.114  0.0103 -0.0176  0.0649
  158THF     C2 3483   4.793   2.912   5.240  0.0593 -0.3220  0.5210
  158THF     C3 3484   4.629   2.880   5.097 -0.2330  0.3270  0.2564
  158THF     H4 3485   4.897   2.939   5.261 -0.0360  1.1135 -0.7087
  158THF     H5 3486   4.760   2.847   5.321  1.6186 -0.7441  0.8625
  158THF     H6 3487   4.586   2.867   4.998 -0.6511 -0.1976  0.4981
  158THF     H7 3488   4.577   2.794   5.140  0.9666 -1.4265 -1.6248
  158THF     C8 3489   4.586   3.003   5.181  0.3351  0.4508  0.0549
  158THF     C9 3490   4.718   3.038   5.245 -0.1295 -0.3341 -0.0915
  158THF    H10 3491   4.504   2.981   5.249 -0.6943 -0.5618 -1.4322
  158THF    H11 3492   4.539   3.080   5.120  0.1836 -0.4661 -1.0260
  158THF    H12 3493   4.777   3.103   5.180  2.1007 -1.7859  0.3438
  158THF    H13 3494   4.719   3.076   5.347 -0.0761 -0.4420 -0.0515
  159THF     O1 3495   1.359   0.448   0.941  0.0629  0.4596 -0.1470
  159THF     C2 3496   1.227   0.448   0.884  0.7004  0.0134 -0.3166
  159THF     C3 3497   1.416   0.566   0.900  0.8577  0.2757  0.0314
  159THF     H4 3498   1.157   0.380   0.933  0.3321 -0.5974 -1.6216
  159THF     H5 3499   1.240   0.422   0.779 -1.6013  0.4536 -0.7644
  159THF     H6 3500   1.496   0.596   0.967 -1.2760  0.2398  2.8228
  159THF     H7 3501   1.441   0.545   0.796  1.8599 -0.4972  0.4137
  159THF     C8 3502   1.300   0.663   0.917 -0.1267 -0.5193  0.3628
  159THF     C9 3503   1.174   0.584   0.894 -0.1869  0.5144 -0.5300
  159THF    H10 3504   1.305   0.740   0.839 -3.5497  0.3849  0.8644
  159THF    H11 3505   1.284   0.708   1.015 -0.1413 -1.4552  0.8006
  159THF    H12 3506   1.101   0.600   0.973  2.3444  1.6327  1.7104
  159THF    H13 3507   1.118   0.615   0.805 -1.0106  0.3460 -0.0793
  160THF     O1 3508   0.989   2.520   1.154  0.2606 -0.2073 -0.7336
  160THF     C2 3509   1.127   2.555   1.154  0.2086  0.5091  0.6372
  160THF     C3 3510   0.972   2.395   1.225  0.0516  1.3482 -0.4048
  160THF     H4 3511   1.158   2.587   1.254  0.3101  1.1277  0.4116
  160THF     H5 3512   1.135   2.636   1.082 -1.1577 -0.4063 -0.6092
  160THF     H6 3513   0.962   2.423   1.330  0.0032 -2.7823  0.8672
  160THF     H7 3514   0.886   2.342   1.184  1.1732  1.1816 -2.6679
  160THF     C8 3515   1.101   2.323   1.193 -0.7550 -0.0361  0.2005
  160THF     C9 3516   1.186   2.422   1.114 -0.2669  0.4952 -0.0441
  160THF    H10 3517   1.086   2.226   1.145 -0.3024  1.1437 -2.5281
  160THF    H11 3518   1.152   2.287   1.282  0.9502 -1.5588 -1.2917
  160THF    H12 3519   1.290   2.412   1.146 -0.6524 -2.2788  0.6362
  160THF    H13 3520   1.189   2.406   1.006  2.5298 -1.4311  0.2213
  161THF     O1 3521   3.347   2.495   2.855  0.1390  0.2467  0.4021
  161THF     C2 3522   3.463   2.465   2.935 -0.2106  0.7590  0.1398
  161THF     C3 3523   3.328   2.389   2.763 -0.0439  0.4590 -0.0775
  161THF     H4 3524   3.438   2.414   3.028 -3.0235  0.0491 -0.9132
  161THF     H5 3525   3.517   2.558   2.957 -0.0745  0.2043  2.3586
  161THF     H6 3526   3.232   2.340   2.782 -0.7821  2.3107  1.2524
  161THF     H7 3527   3.312   2.432   2.664 -0.7787 -0.0305 -0.1819
  161THF     C8 3528   3.443   2.286   2.767 -0.1618  0.4423  0.2271
  161THF     C9 3529   3.551   2.365   2.850 -0.2132 -0.2783 -0.2346
  161THF    H10 3530   3.479   2.258   2.668  1.2810  0.0079  0.8429
  161THF    H11 3531   3.413   2.192   2.812 -0.1101  0.1576 -0.3188
  161THF    H12 3532   3.609   2.306   2.921 -0.4054 -0.4690 -0.2335
  161THF    H13 3533   3.620   2.420   2.787  0.7724 -2.1829 -0.9036
  162THF     O1 3534   0.717   4.063   1.615 -0.5549 -0.1120  0.3276
  162THF     C2 3535   0.766   4.194   1.624 -0.1086  0.2992  0.2409
  162THF     C3 3536   0.638   4.048   1.491 -0.3290 -0.9466  0.7285
  162THF     H4 3537   0.848   4.191   1.552 -1.2257 -0.6992 -1.0361
  162THF     H5 3538   0.801   4.214   1.726 -2.7856  1.4353  1.0184
  162THF     H6 3539   0.705   4.020   1.410  1.9428  1.8071  1.5112
  162THF     H7 3540   0.556   3.976   1.491 -0.4815 -0.7772  0.0515
  162THF     C8 3541   0.569   4.186   1.476  0.8178 -0.0093 -0.4116
  162THF     C9 3542   0.639   4.273   1.574 -0.2975 -0.0625  0.3928
  162THF    H10 3543   0.460   4.189   1.474  0.6639 -2.8876 -2.4514
  162THF    H11 3544   0.601   4.227   1.380  0.9374 -0.6438 -0.6497
  162THF    H12 3545   0.658   4.365   1.520 -1.7442  1.2707  2.0167
  162THF    H13 3546   0.575   4.299   1.658 -1.4762  1.1349 -0.8419
  163THF     O1 3547   3.550   5.371   4.240  0.3661 -0.0234 -0.6510
  163THF     C2 3548   3.427   5.320   4.291  0.1751  0.5928 -0.0942
  163THF     C3 3549   3.582   5.489   4.314 -0.5101 -0.0350 -0.2159
  163THF     H4 3550   3.419   5.213   4.276  1.1906  0.6149 -0.9632
  163THF     H5 3551   3.338   5.351   4.238 -0.9579 -2.4625 -0.1477
  163THF     H6 3552   3.688   5.490   4.341 -0.8091 -2.3397  1.3518
  163THF     H7 3553   3.557   5.579   4.258  0.9568  0.7731  0.3715
  163THF     C8 3554   3.500   5.487   4.440 -0.0898  0.3413  0.2553
  163THF     C9 3555   3.437   5.345   4.438 -0.3506 -0.4126  0.5937
  163THF    H10 3556   3.415   5.553   4.420 -1.6074 -1.8072 -0.8481
  163THF    H11 3557   3.550   5.491   4.536 -0.0201 -1.0138  0.2980
  163THF    H12 3558   3.506   5.277   4.487  1.2725 -1.0783 -2.3682
  163THF    H13 3559   3.343   5.337   4.494 -0.7174  1.1385  0.2510
  164THF     O1 3560   0.444   0.491   3.480 -0.4531  0.1598 -0.2964
  164THF     C2 3561   0.460   0.627   3.527 -0.1562  0.0891  0.1275
  164THF     C3 3562   0.532   0.467   3.370 -0.2832  0.4510  0.2375
  164THF     H4 3563   0.444   0.618   3.634  0.0261  0.6372  0.2056
  164THF     H5 3564   0.379   0.688   3.485 -1.0962 -1.6969 -0.7710
  164THF     H6 3565   0.604   0.392   3.405  3.2488  3.6581  0.4958
  164THF     H7 3566   0.481   0.422   3.286  0.1525  0.5524 -0.0852
  164THF     C8 3567   0.607   0.602   3.355 -0.8091  0.3021  0.1436
  164THF     C9 3568   0.600   0.669   3.489 -0.2808 -0.0336  0.4819
  164THF    H10 3569   0.546   0.645   3.276 -0.1066  0.5752 -0.2602
  164THF    H11 3570   0.705   0.573   3.318 -1.2169 -0.8851 -0.0514
  164THF    H12 3571   0.667   0.628   3.564  1.2079  1.3231 -0.0188
  164THF    H13 3572   0.613   0.778   3.486  2.6664 -0.3226 -1.6679
  165THF     O1 3573   5.043   4.261   0.774 -0.4787  0.2206 -0.3334
  165THF     C2 3574   4.988   4.161   0.693 -0.5395 -0.6565 -0.2636
  165THF     C3 3575   5.105   4.361   0.700  0.1054 -0.0828  0.5424
  165THF     H4 3576   4.916   4.095   0.742 -0.7720  0.5285  1.0820
  165THF     H5 3577   5.077   4.104   0.666 -0.1275  0.3550 -1.1129
  165THF     H6 3578   5.087   4.455   0.752 -1.1160 -0.0194  0.0344
  165THF     H7 3579   5.213   4.344   0.703  0.0042 -0.6468  1.1401
  165THF     C8 3580   5.039   4.354   0.559 -0.4127 -0.1949 -0.2118
  165THF     C9 3581   4.937   4.241   0.573 -0.2211 -0.0995 -0.2598
  165THF    H10 3582   5.123   4.342   0.491  0.7317  1.3065  0.8714
  165THF    H11 3583   4.987   4.446   0.534  0.3017  0.6310  1.1929
  165THF    H12 3584   4.838   4.283   0.590 -0.7234 -0.7078 -1.5519
  165THF    H13 3585   4.927   4.182   0.482 -0.0831  0.3076 -0.5426
  166THF     O1 3586   3.072   0.986   5.147  0.1625  0.4526 -0.1992
  166THF     C2 3587   3.101   0.855   5.089 -0.3738 -0.0570 -0.4162
  166THF     C3 3588   2.982   1.064   5.067  0.3561  0.1501 -0.6131
  166THF     H4 3589   3.119   0.792   5.176 -1.8441  1.5799  1.1538
  166THF     H5 3590   3.192   0.863   5.029 -0.9510  0.5543 -1.2396
  166THF     H6 3591   2.894   1.070   5.130  0.2197 -1.9652 -0.5185
  166THF     H7 3592   3.029   1.160   5.046 -0.1406  0.6632  0.5737
  166THF     C8 3593   2.956   0.972   4.944  0.1041 -0.5964 -0.6706
  166THF     C9 3594   2.979   0.834   5.002 -0.3955  0.2420  0.4198
  166THF    H10 3595   3.028   1.007   4.870 -0.8775  1.3306 -0.8024
  166THF    H11 3596   2.855   0.988   4.905 -0.6603 -2.7319  0.2883
  166THF    H12 3597   2.900   0.809   5.072 -0.0139  0.5429  0.9597
  166THF    H13 3598   2.982   0.762   4.920  0.4620 -0.5204  1.0903
  167THF     O1 3599   3.431   1.171   4.554 -0.3514 -0.3803 -0.0113
  167THF     C2 3600   3.392   1.302   4.512 -0.0802  0.0705  0.2340
  167THF     C3 3601   3.500   1.182   4.680  0.0664 -0.0889  0.1484
  167THF     H4 3602   3.322   1.304   4.429 -2.2290  0.9467  1.9588
  167THF     H5 3603   3.485   1.341   4.471  0.1775  0.2010  0.9192
  167THF     H6 3604   3.495   1.087   4.733 -0.2729 -1.8447 -2.7658
  167THF     H7 3605   3.604   1.192   4.650 -0.2709  1.8268 -0.5796
  167THF     C8 3606   3.425   1.299   4.748 -0.3202  0.6131 -0.3249
  167THF     C9 3607   3.348   1.369   4.636  0.0575  0.0621  0.1165
  167THF    H10 3608   3.487   1.367   4.805 -3.4275  3.5086 -0.1080
  167THF    H11 3609   3.350   1.260   4.817  1.2294 -1.8388  0.0991
  167THF    H12 3610   3.239   1.367   4.646  0.0059  1.4062 -0.0437
  167THF    H13 3611   3.383   1.471   4.622  0.2479 -0.3061 -2.6019
  168THF     O1 3612   3.845   2.151   0.548 -0.2340 -0.2642 -0.2683
  168THF     C2 3613   3.802   2.282   0.506  0.1605  0.3729  0.3244
  168THF     C3 3614   3.990   2.134   0.524  0.6527 -0.1379 -0.1381
  168THF     H4 3615   3.708   2.299   0.558  0.0471 -1.0279  0.6294
  168THF     H5 3616   3.788   2.279   0.398 -2.7246 -0.5479  0.6360
  168THF     H6 3617   4.040   2.050   0.573  0.0871 -0.4796 -0.1357
  168THF     H7 3618   3.991   2.104   0.419 -0.0435 -1.9997  0.3553
  168THF     C8 3619   4.039   2.279   0.540 -0.0799  0.5526  0.6168
  168THF     C9 3620   3.918   2.370   0.563 -0.3093 -0.0957  0.4848
  168THF    H10 3621   4.103   2.308   0.457  0.7075  2.7648  1.8892
  168THF    H11 3622   4.116   2.275   0.618  1.3142 -3.3640 -0.7391
  168THF    H12 3623   3.906   2.401   0.666  0.2773 -0.3377  0.6301
  168THF    H13 3624   3.928   2.461   0.504  2.1600  0.4550  1.6346
  169THF     O1 3625   3.652   2.872   2.307  0.3587 -0.1578 -0.0190
  169THF     C2 3626   3.765   2.922   2.366 -0.1905  0.5902 -0.0126
  169THF     C3 3627   3.680   2.785   2.198 -0.9248 -0.5458 -0.0048
  169THF     H4 3628   3.800   2.862   2.449 -0.3359 -0.3731 -0.6269
  169THF     H5 3629   3.748   3.025   2.398 -1.5914  0.2336  0.4392
  169THF     H6 3630   3.658   2.680   2.217 -1.5051 -0.5242 -0.5370
  169THF     H7 3631   3.617   2.812   2.114 -0.5761  0.7826  0.1480
  169THF     C8 3632   3.825   2.799   2.156  0.0260  0.0352 -0.9795
  169THF     C9 3633   3.861   2.922   2.246 -0.2100 -0.1470  0.2099
  169THF    H10 3634   3.855   2.809   2.052  1.8490 -1.0581 -0.6026
  169THF    H11 3635   3.869   2.705   2.191 -0.5275 -0.2711 -1.1085
  169THF    H12 3636   3.970   2.928   2.255 -0.2879  0.9462  0.6189
  169THF    H13 3637   3.841   3.006   2.180  0.8399 -0.4574 -0.5267
  170THF     O1 3638   3.914   3.908   0.444 -0.0135  0.3011 -0.1089
  170THF     C2 3639   3.866   4.004   0.357 -0.1248 -0.3398 -0.4489
  170THF     C3 3640   4.019   3.964   0.519 -0.5643 -0.6650 -0.0071
  170THF     H4 3641   3.767   3.983   0.316 -0.8145 -2.1750  1.9187
  170THF     H5 3642   3.939   4.021   0.278  2.8069  0.2368  2.1662
  170THF     H6 3643   4.036   3.918   0.616  0.8614 -0.2269 -0.0211
  170THF     H7 3644   4.117   3.943   0.474 -0.0885 -1.2304  1.2591
  170THF     C8 3645   3.999   4.108   0.524 -0.3826  0.0530  0.5760
  170THF     C9 3646   3.881   4.134   0.435 -0.7132 -0.3670 -0.7660
  170THF    H10 3647   4.090   4.150   0.481 -0.7858  1.7754  1.2861
  170THF    H11 3648   3.982   4.145   0.626 -0.7646 -0.8730  0.8553
  170THF    H12 3649   3.785   4.161   0.477  0.7243  2.8901  0.8265
  170THF    H13 3650   3.900   4.216   0.365 -0.5895  1.6584  1.4961
  171THF     O1 3651   1.355   2.873   2.626  0.1300  0.3326 -0.3612
  171THF     C2 3652   1.490   2.835   2.597 -0.0419 -0.5665 -0.4798
  171THF     C3 3653   1.273   2.796   2.547  0.3649  0.0317  0.8249
  171THF     H4 3654   1.534   2.763   2.666 -1.8835 -0.1672  1.2169
  171THF     H5 3655   1.550   2.925   2.608  1.9679 -1.9466  0.4093
  171THF     H6 3656   1.224   2.707   2.585  0.8202 -2.5948 -3.9280
  171THF     H7 3657   1.189   2.854   2.509  0.4524  0.0565  0.6684
  171THF     C8 3658   1.353   2.735   2.431  0.4650 -0.7447  0.5529
  171THF     C9 3659   1.491   2.777   2.460 -0.1475  0.0181  0.1157
  171THF    H10 3660   1.319   2.787   2.342 -1.0845  0.8587  1.9864
  171THF    H11 3661   1.341   2.627   2.421  0.9530 -0.7445 -0.0441
  171THF    H12 3662   1.565   2.700   2.442  1.8334  2.2504 -2.1079
  171THF    H13 3663   1.519   2.861   2.396 -0.2448  0.1103  0.1930
  172THF     O1 3664   2.701   5.413   1.364  0.6063  0.0768 -0.0262
  172THF     C2 3665   2.655   5.382   1.237 -1.1944 -0.3867  0.9128
  172THF     C3 3666   2.827   5.343   1.376 -0.2908 -0.0331 -0.1277
  172THF     H4 3667   2.707   5.440   1.160 -0.9882 -3.4923 -1.4836
  172THF     H5 3668   2.550   5.402   1.217 -0.3284  3.8648 -0.5652
  172THF     H6 3669   2.902   5.405   1.326  1.2736 -1.2012  0.6579
  172THF     H7 3670   2.859   5.331   1.479 -0.8855 -0.1159  0.0494
  172THF     C8 3671   2.805   5.204   1.304 -0.2773  0.3470 -0.0519
  172THF     C9 3672   2.679   5.231   1.223  0.4319  0.4913 -0.0265
  172THF    H10 3673   2.779   5.125   1.375 -1.1699  0.0405 -0.6987
  172THF    H11 3674   2.886   5.173   1.237  0.0680 -0.6272  0.7695
  172THF    H12 3675   2.681   5.187   1.123 -1.9931  1.9592 -0.7951
  172THF    H13 3676   2.591   5.180   1.261 -0.8397  2.4308 -0.2430
  173THF     O1 3677   1.846   5.114   5.216 -0.1522  0.0280 -0.2569
  173THF     C2 3678   1.862   5.045   5.337  0.8943  0.5314 -0.3360
  173THF     C3 3679   1.718   5.184   5.220  0.1564  0.7203 -0.6514
  173THF     H4 3680   1.951   4.984   5.351 -0.4735 -1.0793  2.1420
  173THF     H5 3681   1.785   4.968   5.343  2.2254 -0.9244 -1.4162
  173THF     H6 3682   1.712   5.263   5.145  2.6473 -0.0156 -1.7395
  173THF     H7 3683   1.635   5.118   5.194  1.8402 -1.5300 -0.6562
  173THF     C8 3684   1.715   5.232   5.366 -0.1092 -0.6431  0.1983
  173THF     C9 3685   1.830   5.158   5.434  0.0291 -0.1949  0.2445
  173THF    H10 3686   1.614   5.226   5.408 -0.4470  0.6735 -0.3582
  173THF    H11 3687   1.737   5.339   5.365  0.2334 -0.7152 -0.1048
  173THF    H12 3688   1.915   5.223   5.454  0.6996 -1.2147  0.8164
  173THF    H13 3689   1.802   5.124   5.534  0.1457 -0.2071  0.2733
  174THF     O1 3690   4.299   3.998   3.636  0.4088  0.1279  0.1739
  174THF     C2 3691   4.264   3.968   3.767  0.3578 -0.0533 -0.3924
  174THF     C3 3692   4.207   3.949   3.544  0.1089  0.3006  0.2316
  174THF     H4 3693   4.209   4.055   3.803 -2.2486 -0.9086 -2.1096
  174THF     H5 3694   4.349   3.936   3.828 -2.2081 -3.3457  1.7916
  174THF     H6 3695   4.125   4.018   3.523  2.6692  3.3216 -0.5663
  174THF     H7 3696   4.236   3.945   3.439 -0.4155  3.4622 -0.1387
  174THF     C8 3697   4.157   3.824   3.602 -0.5128  0.4051  0.6257
  174THF     C9 3698   4.166   3.854   3.751  0.0626  0.1342 -0.3208
  174THF    H10 3699   4.217   3.736   3.577 -1.0269  0.0884  0.4713
  174THF    H11 3700   4.052   3.818   3.574  0.0260  1.8850 -2.0768
  174THF    H12 3701   4.069   3.874   3.796  1.2296  2.0310  1.5081
  174THF    H13 3702   4.207   3.762   3.794 -0.7390  0.5618  1.4190
  175THF     O1 3703   2.783   3.879   3.078  0.2357 -0.3624 -0.9929
  175THF     C2 3704   2.734   3.782   2.984 -0.1038 -0.5770 -0.4034
  175THF     C3 3705   2.760   3.836   3.215  0.2871  0.3151 -0.0271
  175THF     H4 3706   2.807   3.702   2.975  0.6758 -0.1467  1.4606
  175THF     H5 3707   2.726   3.834   2.889  0.8840 -0.2424 -0.3147
  175THF     H6 3708   2.841   3.772   3.250  1.3562  1.6650  0.0306
  175THF     H7 3709   2.759   3.912   3.292  0.6548  0.8723 -0.5642
  175THF     C8 3710   2.628   3.748   3.206  0.2693  0.2154 -0.0764
  175THF     C9 3711   2.599   3.751   3.054  0.2516 -0.6486  0.1689
  175THF    H10 3712   2.539   3.790   3.254  0.4699  3.2573 -2.0546
  175THF    H11 3713   2.642   3.645   3.237 -0.5677  0.5896  1.6632
  175THF    H12 3714   2.544   3.663   3.020 -0.3493  0.0158 -0.6288
  175THF    H13 3715   2.533   3.834   3.029 -0.5288 -0.7768  1.7173
  176THF     O1 3716   3.802   5.483   2.477  0.4163 -0.2114  0.6888
  176THF     C2 3717   3.841   5.452   2.347  0.3734 -0.3882  0.4690
  176THF     C3 3718   3.689   5.566   2.479  0.4989  0.2665 -0.3351
  176THF     H4 3719   3.869   5.346   2.343  0.0012 -0.4830  0.3751
  176THF     H5 3720   3.937   5.494   2.317  0.0474 -0.8064 -1.2865
  176THF     H6 3721   3.599   5.517   2.517  1.6175 -1.3209  0.3694
  176THF     H7 3722   3.717   5.655   2.537  3.0920 -0.0973 -0.9340
  176THF     C8 3723   3.670   5.609   2.340  0.1468 -0.4317  0.0792
  176THF     C9 3724   3.717   5.486   2.262  0.6643 -0.0830 -0.0506
  176THF    H10 3725   3.731   5.699   2.329  0.7294 -0.4276  2.6560
  176THF    H11 3726   3.562   5.625   2.334  0.0753 -0.7104  0.5235
  176THF    H12 3727   3.644   5.408   2.282  0.1385 -0.2258 -2.2610
  176THF    H13 3728   3.729   5.489   2.154  0.8984 -0.8561 -0.0513
  177THF     O1 3729   5.312   1.704   0.630  0.1116  0.1194 -0.2224
  177THF     C2 3730   5.181   1.668   0.581  0.5045 -0.6329 -0.1173
  177THF     C3 3731   5.400   1.763   0.538 -0.6278 -0.3369 -0.0906
  177THF     H4 3732   5.115   1.750   0.608 -0.4579 -0.7013 -2.0733
  177THF     H5 3733   5.123   1.579   0.605 -1.0778  0.8083  1.6709
  177THF     H6 3734   5.393   1.871   0.534  4.5117  0.2030 -0.9926
  177THF     H7 3735   5.504   1.734   0.551 -0.8803 -1.5911 -0.7061
  177THF     C8 3736   5.347   1.708   0.409 -0.4762 -0.6340 -0.4483
  177THF     C9 3737   5.198   1.671   0.430 -0.4290  0.3197  0.0505
  177THF    H10 3738   5.402   1.616   0.386  0.7363  0.1943 -1.0134
  177THF    H11 3739   5.365   1.784   0.333  0.7532  0.1370  0.5809
  177THF    H12 3740   5.127   1.733   0.375 -0.2328  1.8831  1.4754
  177THF    H13 3741   5.187   1.569   0.393  5.6025 -0.4888 -0.5127
  178THF     O1 3742   4.691   1.565   4.221 -0.3201  0.1887 -0.4377
  178THF     C2 3743   4.560   1.628   4.209 -0.1223 -0.0197 -0.5471
  178THF     C3 3744   4.683   1.427   4.251  0.0871  0.6878 -0.0078
  178THF     H4 3745   4.540   1.680   4.115 -1.8475 -0.5796 -0.5295
  178THF     H5 3746   4.537   1.694   4.292 -1.6088 -1.0776 -0.0718
  178THF     H6 3747   4.764   1.379   4.196  0.5047  0.9421  0.3766
  178THF     H7 3748   4.704   1.409   4.357  0.9758 -0.9666 -0.4234
  178THF     C8 3749   4.545   1.395   4.190 -0.3844  0.6868 -0.0914
  178THF     C9 3750   4.469   1.513   4.229 -0.0371  0.1502 -0.3969
  178THF    H10 3751   4.491   1.305   4.218  1.0332 -0.8270 -1.9933
  178THF    H11 3752   4.555   1.384   4.083  1.9912 -2.0422  0.3045
  178THF    H12 3753   4.378   1.513   4.170 -0.6232 -1.5462  0.4275
  178THF    H13 3754   4.443   1.512   4.335  0.1709  3.0497 -0.2398
  179THF     O1 3755   1.323   4.077   0.366 -0.1547 -0.3132 -0.5918
  179THF     C2 3756   1.192   4.123   0.330 -0.0491 -0.3338 -0.1728
  179THF     C3 3757   1.351   4.140   0.488 -0.0231 -0.2533 -0.1763
  179THF     H4 3758   1.120   4.061   0.383  1.8512 -0.3465  2.6052
  179THF     H5 3759   1.174   4.113   0.223 -0.2191  4.2326 -0.7948
  179THF     H6 3760   1.314   4.066   0.559  0.1970  1.5708  1.9441
  179THF     H7 3761   1.457   4.156   0.504  0.0694  2.5454 -2.6974
  179THF     C8 3762   1.283   4.274   0.488 -0.3471  0.0528  0.3733
  179THF     C9 3763   1.189   4.270   0.372  0.4100  0.3199  0.3260
  179THF    H10 3764   1.359   4.352   0.478  0.1757 -0.5340 -0.3455
  179THF    H11 3765   1.226   4.297   0.578 -0.6988  0.8288 -0.0399
  179THF    H12 3766   1.090   4.312   0.390 -0.4629 -1.2343 -0.6603
  179THF    H13 3767   1.214   4.332   0.287 -2.9000 -1.0295 -1.8531
  180THF     O1 3768   5.456   3.538   3.488 -0.0947 -0.0724  0.2446
  180THF     C2 3769   5.499   3.405   3.462 -0.5418  0.0383 -0.1758
  180THF     C3 3770   5.327   3.557   3.433 -0.8460 -0.1362 -0.0397
  180THF     H4 3771   5.457   3.330   3.528  1.0086  0.8583  1.8642
  180THF     H5 3772   5.607   3.393   3.470 -0.5367 -0.4044 -0.8524
  180THF     H6 3773   5.256   3.511   3.502  1.7134 -1.9279  1.5588
  180THF     H7 3774   5.305   3.660   3.406  0.3143 -0.0587 -0.7324
  180THF     C8 3775   5.343   3.488   3.300  0.2070 -0.6993 -0.3717
  180THF     C9 3776   5.455   3.391   3.323 -0.0197 -0.2408  0.2437
  180THF    H10 3777   5.368   3.557   3.219  1.0847 -0.5252  0.0320
  180THF    H11 3778   5.249   3.446   3.266 -0.5507  0.8241 -0.2527
  180THF    H12 3779   5.425   3.291   3.292 -0.2300 -0.5235  1.3121
  180THF    H13 3780   5.540   3.419   3.261 -0.2910 -0.1414 -0.0893
  181THF     O1 3781   4.344   2.148   5.266 -0.0956 -0.4083  0.2394
  181THF     C2 3782   4.222   2.208   5.318  0.3524 -0.3859  0.3074
  181THF     C3 3783   4.447   2.250   5.259 -0.0605 -0.2352 -0.1850
  181THF     H4 3784   4.239   2.213   5.425  3.1049 -0.1026 -0.0720
  181THF     H5 3785   4.139   2.138   5.305  1.6274 -2.1824  1.3673
  181THF     H6 3786   4.486   2.274   5.358 -0.4205  1.2222 -0.3741
  181THF     H7 3787   4.525   2.221   5.188 -0.1664  1.9181 -1.2851
  181THF     C8 3788   4.362   2.361   5.201 -0.0877  0.3842 -0.4309
  181THF     C9 3789   4.220   2.341   5.242 -0.1363  0.2995 -0.7929
  181THF    H10 3790   4.358   2.357   5.092  1.6754 -0.1407 -0.5010
  181THF    H11 3791   4.402   2.455   5.238  2.3178 -1.5944  2.4563
  181THF    H12 3792   4.179   2.417   5.308  1.4934  0.2450  0.3310
  181THF    H13 3793   4.152   2.327   5.158 -1.5528 -1.8145  0.6098
  182THF     O1 3794   2.826   1.688   1.263  0.1764 -0.8349 -0.5186
  182THF     C2 3795   2.947   1.673   1.182  0.1962  1.1326 -0.0279
  182THF     C3 3796   2.761   1.561   1.271 -0.1793 -0.1038 -0.0099
  182THF     H4 3797   3.006   1.763   1.198  1.1212  0.3561  1.0335
  182THF     H5 3798   2.933   1.645   1.077  1.9397  0.8684 -0.2159
  182THF     H6 3799   2.682   1.547   1.345 -0.4826 -1.0357 -0.4928
  182THF     H7 3800   2.734   1.530   1.170  3.8625  1.4033 -1.7656
  182THF     C8 3801   2.886   1.480   1.311 -0.0316 -0.0475  0.8258
  182THF     C9 3802   3.006   1.546   1.251  0.2601  1.4314 -0.1217
  182THF    H10 3803   2.876   1.374   1.285 -0.2430  0.0872  0.3459
  182THF    H11 3804   2.887   1.493   1.419  0.3199 -0.8350  0.9271
  182THF    H12 3805   3.065   1.569   1.340 -1.3162  1.9579  0.8246
  182THF    H13 3806   3.062   1.479   1.185 -1.2320 -1.6394  1.5602
  183THF     O1 3807   2.900   0.338   0.956 -0.3273  0.3603 -0.4934
  183THF     C2 3808   2.989   0.440   0.974 -0.6218 -0.7307 -0.0435
  183THF     C3 3809   2.897   0.246   1.069  0.0743  0.3038 -0.0610
  183THF     H4 3810   2.923   0.525   0.993  0.7430  0.2472  0.5447
  183THF     H5 3811   3.047   0.456   0.883 -1.6039 -3.0329 -1.1546
  183THF     H6 3812   2.792   0.229   1.092 -0.2603  0.6997 -1.2765
  183THF     H7 3813   2.944   0.152   1.039 -1.0234 -0.4045  0.3609
  183THF     C8 3814   2.982   0.316   1.175  0.3900 -0.2463 -0.0023
  183THF     C9 3815   3.082   0.396   1.093 -0.3601 -0.6326 -0.4365
  183THF    H10 3816   3.022   0.243   1.246 -0.6156 -2.7965 -1.9195
  183THF    H11 3817   2.917   0.379   1.236  0.9806  0.0192  0.3654
  183THF    H12 3818   3.127   0.473   1.156  0.1630 -1.9132  0.7812
  183THF    H13 3819   3.166   0.333   1.065 -0.8071 -1.9159  0.9709
  184THF     O1 3820   2.451   4.607   5.236  0.2785  0.1905  0.4229
  184THF     C2 3821   2.478   4.467   5.246  0.4520  0.2735 -0.4187
  184THF     C3 3822   2.565   4.676   5.285 -0.3152 -0.7234 -0.4043
  184THF     H4 3823   2.540   4.439   5.161 -0.3460 -2.1539 -0.2579
  184THF     H5 3824   2.396   4.397   5.259 -0.0260  0.8447 -0.2806
  184THF     H6 3825   2.636   4.671   5.203 -0.5097 -1.3027 -0.5406
  184THF     H7 3826   2.532   4.779   5.300 -2.1668 -1.1688 -1.1287
  184THF     C8 3827   2.599   4.600   5.417  0.8521 -0.2667 -1.0283
  184THF     C9 3828   2.568   4.457   5.375  0.2571 -0.2044  0.3285
  184THF    H10 3829   2.528   4.634   5.492  1.0580 -1.6713 -0.1556
  184THF    H11 3830   2.703   4.602   5.453  0.8410  2.0559 -0.9825
  184THF    H12 3831   2.661   4.400   5.369 -0.4416 -1.4322  0.6046
  184THF    H13 3832   2.520   4.406   5.458 -0.0278  0.8668  0.8348
  185THF     O1 3833   0.321   2.498   0.778  0.3333 -0.2328  0.4997
  185THF     C2 3834   0.428   2.568   0.850  0.2451 -0.4183  0.4982
  185THF     C3 3835   0.283   2.579   0.670 -0.1974 -0.0652 -0.1692
  185THF     H4 3836   0.490   2.502   0.909 -0.2520 -0.6655  0.7478
  185THF     H5 3837   0.384   2.647   0.912  2.4811  0.1780  1.4101
  185THF     H6 3838   0.263   2.510   0.588 -0.4134  1.4104 -1.3946
  185THF     H7 3839   0.189   2.627   0.697  0.7555  0.8453  1.7440
  185THF     C8 3840   0.398   2.676   0.645 -0.3421 -0.0899  0.0010
  185THF     C9 3841   0.507   2.629   0.735 -0.1957 -0.6164  0.1504
  185THF    H10 3842   0.369   2.777   0.672  2.1145  1.2650 -1.9749
  185THF    H11 3843   0.429   2.678   0.540 -2.5356 -0.1978 -0.6810
  185THF    H12 3844   0.549   2.546   0.678 -1.1000 -1.9368  1.3003
  185THF    H13 3845   0.583   2.704   0.753  0.2631 -0.9289 -0.4481
  186THF     O1 3846   5.012   2.471   4.526  0.4069 -0.4786  0.6790
  186THF     C2 3847   5.133   2.474   4.441 -0.0768 -0.1177  0.1948
  186THF     C3 3848   4.910   2.391   4.472  0.0662  0.3191 -0.0484
  186THF     H4 3849   5.196   2.387   4.460  0.2479 -0.1029 -0.7770
  186THF     H5 3850   5.195   2.563   4.438 -0.9051  0.4744  0.3680
  186THF     H6 3851   4.902   2.294   4.521 -0.2293 -0.0901 -0.8894
  186THF     H7 3852   4.810   2.431   4.490  0.2953  0.5156  0.8293
  186THF     C8 3853   4.937   2.389   4.321 -0.2867 -0.0442  0.3154
  186THF     C9 3854   5.068   2.470   4.305 -0.6047  0.3424  0.9239
  186THF    H10 3855   4.852   2.425   4.263 -0.1508  0.9025  0.6817
  186THF    H11 3856   4.964   2.291   4.282 -0.8771 -0.3593  0.6948
  186THF    H12 3857   5.127   2.430   4.223 -1.8754 -0.0063  0.1511
  186THF    H13 3858   5.052   2.575   4.278  1.2781  0.5531  0.4828
  187THF     O1 3859   1.746   3.858   5.378  0.0224  0.2743 -0.0529
  187THF     C2 3860   1.690   3.784   5.269  0.1729  0.1273 -0.2669
  187THF     C3 3861   1.648   3.882   5.479 -0.5430  0.8877 -0.7139
  187THF     H4 3862   1.680   3.678   5.293  0.1653  0.1450 -0.1921
  187THF     H5 3863   1.740   3.799   5.173  1.6068 -0.2492  0.3899
  187THF     H6 3864   1.630   3.789   5.533  1.7704  1.0087  0.4319
  187THF     H7 3865   1.681   3.965   5.542 -1.5885  2.7271 -2.4921
  187THF     C8 3866   1.531   3.923   5.394  0.2519 -0.1497 -0.2172
  187THF     C9 3867   1.549   3.835   5.270  0.2235 -0.2870 -0.4151
  187THF    H10 3868   1.541   4.029   5.370 -1.8044 -0.4395 -2.9676
  187THF    H11 3869   1.431   3.900   5.432  0.5791 -0.5189  0.4324
  187THF    H12 3870   1.480   3.751   5.263  2.0402 -1.7719 -1.5750
  187THF    H13 3871   1.541   3.900   5.184  0.8794 -0.2957 -0.4889
  188THF     O1 3872   0.349   2.656   3.448 -0.1554 -0.4691  0.7878
  188THF     C2 3873   0.419   2.561   3.368  0.7897  1.1013  0.6407
  188THF     C3 3874   0.443   2.765   3.458 -0.8646 -0.7271 -0.3076
  188THF     H4 3875   0.431   2.591   3.263  2.3570  0.8826  0.7232
  188THF     H5 3876   0.368   2.466   3.357 -0.3013  1.7201  0.2326
  188THF     H6 3877   0.457   2.811   3.360 -3.8748 -1.2182 -1.0750
  188THF     H7 3878   0.405   2.847   3.518  0.0368  0.0258 -0.7497
  188THF     C8 3879   0.573   2.703   3.494 -0.4298  0.0285  0.7909
  188THF     C9 3880   0.555   2.558   3.438 -0.6204  0.1138  0.3621
  188THF    H10 3881   0.590   2.687   3.600  0.2616  2.3546  1.0767
  188THF    H11 3882   0.657   2.764   3.463 -0.5447 -0.2477 -0.0973
  188THF    H12 3883   0.634   2.530   3.367 -0.0538  1.3700  0.4683
  188THF    H13 3884   0.546   2.487   3.520 -0.3059  0.3338  0.5913
  189THF     O1 3885   2.831   3.671   4.096 -0.5297 -0.2387  0.3498
  189THF     C2 3886   2.758   3.773   4.163 -0.3434 -0.6224  0.2348
  189THF     C3 3887   2.965   3.721   4.087  0.1935  0.4465 -0.4354
  189THF     H4 3888   2.668   3.722   4.195 -1.8269  0.0981 -2.4472
  189THF     H5 3889   2.731   3.863   4.107 -0.7121 -0.5238  0.5686
  189THF     H6 3890   3.042   3.653   4.050 -0.7358 -0.2969 -1.0317
  189THF     H7 3891   2.955   3.801   4.013 -3.9409 -0.5360 -1.2076
  189THF     C8 3892   2.983   3.778   4.228  0.2085 -0.2265 -0.9026
  189THF     C9 3893   2.845   3.817   4.278  0.1156 -0.3381 -0.7912
  189THF    H10 3894   3.049   3.865   4.231  0.7302 -0.6341 -0.2061
  189THF    H11 3895   3.011   3.693   4.290 -2.1093 -1.7415 -1.8167
  189THF    H12 3896   2.810   3.773   4.371  0.2087 -1.2009 -1.1633
  189THF    H13 3897   2.853   3.926   4.289 -3.0799 -0.0266 -0.4078
  190THF     O1 3898   1.338   3.058   2.333 -0.4340  0.2808 -0.5238
  190THF     C2 3899   1.290   3.079   2.200 -0.4006  0.2350 -1.1710
  190THF     C3 3900   1.411   3.180   2.380  0.2832  0.6073 -0.2393
  190THF     H4 3901   1.191   3.034   2.198 -0.7392  0.8965  0.0483
  190THF     H5 3902   1.358   3.020   2.137 -1.6497  0.0994 -2.4352
  190THF     H6 3903   1.356   3.231   2.459 -0.9817  1.4219 -1.5789
  190THF     H7 3904   1.507   3.150   2.422  0.1743 -0.0002 -0.4202
  190THF     C8 3905   1.411   3.268   2.260 -0.2562 -0.0373  0.1879
  190THF     C9 3906   1.288   3.225   2.174 -0.4075 -0.1761  0.1791
  190THF    H10 3907   1.503   3.254   2.204  0.8811 -1.0154  2.1869
  190THF    H11 3908   1.417   3.373   2.290 -2.4607  0.5202 -1.1105
  190THF    H12 3909   1.199   3.275   2.212 -2.4890 -2.0994 -1.8849
  190THF    H13 3910   1.305   3.248   2.069  2.8241 -0.1131  0.6154
  191THF     O1 3911   1.267   5.239   4.732 -0.0988  0.0102  0.0812
  191THF     C2 3912   1.135   5.284   4.760 -0.3380  0.8014  0.0680
  191THF     C3 3913   1.345   5.355   4.740 -0.2500 -0.2229 -0.1605
  191THF     H4 3914   1.084   5.190   4.783  0.6162  0.1775 -0.2944
  191THF     H5 3915   1.076   5.335   4.684 -1.5204 -0.8142 -0.1598
  191THF     H6 3916   1.447   5.325   4.763  0.1159  1.4504  0.5370
  191THF     H7 3917   1.340   5.417   4.651  2.3412  1.2860  0.6529
  191THF     C8 3918   1.287   5.444   4.855  0.3691 -0.5364 -0.2675
  191THF     C9 3919   1.153   5.380   4.883  0.1127 -0.5103 -0.0568
  191THF    H10 3920   1.271   5.549   4.828 -0.5999 -0.4560  0.5647
  191THF    H11 3921   1.355   5.437   4.940 -0.6751 -1.0923  0.5371
  191THF    H12 3922   1.168   5.328   4.977  1.4100  0.0568  0.0745
  191THF    H13 3923   1.072   5.451   4.899  0.9131 -0.1091  2.8511
  192THF     O1 3924   3.849   3.915   1.763 -0.0260 -0.0071  0.1932
  192THF     C2 3925   3.941   4.019   1.788  0.2644  0.5356 -0.1357
  192THF     C3 3926   3.755   3.966   1.663 -0.0248 -0.0001  0.6883
  192THF     H4 3927   4.027   3.995   1.725 -0.8494  1.0389 -1.9270
  192THF     H5 3928   3.967   4.010   1.893 -2.5543 -0.4979  0.5559
  192THF     H6 3929   3.798   3.962   1.564  0.2000  1.0418  0.7305
  192THF     H7 3930   3.669   3.899   1.663  0.6974 -0.9612  0.6773
  192THF     C8 3931   3.733   4.106   1.723  0.3497 -0.0489 -0.5575
  192THF     C9 3932   3.878   4.155   1.753  0.0031 -0.1863  0.1463
  192THF    H10 3933   3.670   4.112   1.812  1.2641 -0.2608  0.1193
  192THF    H11 3934   3.678   4.160   1.646 -1.4425 -0.7291  0.1889
  192THF    H12 3935   3.919   4.207   1.666 -0.6000  3.1603  1.7059
  192THF    H13 3936   3.874   4.225   1.836  0.4073 -1.1340  0.9814
  193THF     O1 3937   3.411   0.749   5.440  0.6999  0.6610 -0.0332
  193THF     C2 3938   3.367   0.681   5.318  0.2484 -0.1227 -0.7354
  193THF     C3 3939   3.472   0.641   5.516 -0.1821 -0.6013  0.0597
  193THF     H4 3940   3.358   0.741   5.227  0.8628 -0.4515 -1.0207
  193THF     H5 3941   3.276   0.632   5.353  0.6014  0.6444  1.3894
  193THF     H6 3942   3.524   0.676   5.605 -0.5334 -0.9776  0.4135
  193THF     H7 3943   3.394   0.574   5.551  1.0610 -1.6569  0.9111
  193THF     C8 3944   3.564   0.578   5.411  0.3746 -0.5974  0.1400
  193THF     C9 3945   3.466   0.567   5.299 -0.9884  0.8444 -0.3152
  193THF    H10 3946   3.603   0.479   5.435  0.2151 -1.7634 -3.7295
  193THF    H11 3947   3.646   0.641   5.377  1.2103 -0.3667  2.4249
  193THF    H12 3948   3.513   0.577   5.201 -1.6036  0.6905 -0.6306
  193THF    H13 3949   3.412   0.473   5.286  1.9235 -0.7796 -1.7937
  194THF     O1 3950   4.086   2.385   3.718 -0.6041 -0.4946  0.1778
  194THF     C2 3951   4.081   2.450   3.838 -0.1211  0.0581 -0.0166
  194THF     C3 3952   4.134   2.474   3.610  0.1979  0.0151  0.2616
  194THF     H4 3953   4.108   2.382   3.920 -0.1180  1.9369  1.6251
  194THF     H5 3954   3.987   2.501   3.857 -0.1347  0.0328 -0.0164
  194THF     H6 3955   4.168   2.416   3.524  0.8268 -0.4513  0.8188
  194THF     H7 3956   4.057   2.544   3.576  0.7888  0.7527  0.4180
  194THF     C8 3957   4.249   2.534   3.690 -0.3061 -0.0114 -0.3668
  194THF     C9 3958   4.198   2.548   3.831  0.1928 -0.2109  0.9422
  194THF    H10 3959   4.292   2.626   3.650  1.8174  0.1771  2.0717
  194THF    H11 3960   4.333   2.465   3.688  0.1615  0.4911  0.9478
  194THF    H12 3961   4.287   2.525   3.890  1.8596  1.0388 -1.0006
  194THF    H13 3962   4.169   2.649   3.857 -0.9791 -0.4597  0.6678
  195THF     O1 3963   2.549   5.073   2.623  0.6115  0.7110 -0.5412
  195THF     C2 3964   2.439   4.977   2.607  0.8688 -0.1121 -0.2308
  195THF     C3 3965   2.504   5.166   2.718 -0.1723 -0.2620  0.6991
  195THF     H4 3966   2.445   4.897   2.681 -0.7038  0.6277  0.7524
  195THF     H5 3967   2.434   4.936   2.506  1.2407  0.1140 -0.3446
  195THF     H6 3968   2.521   5.122   2.816 -1.2212 -1.7365  0.2503
  195THF     H7 3969   2.549   5.264   2.700  0.1708 -0.5649 -0.1538
  195THF     C8 3970   2.359   5.184   2.689 -1.0656 -0.2634 -0.8269
  195THF     C9 3971   2.307   5.052   2.628  0.1501 -0.7137 -0.1499
  195THF    H10 3972   2.350   5.258   2.609  1.3295 -1.5609 -2.4249
  195THF    H11 3973   2.302   5.230   2.769  1.1672  1.7918 -0.2767
  195THF    H12 3974   2.247   4.999   2.701 -0.5448  0.1462 -0.0730
  195THF    H13 3975   2.245   5.060   2.538 -0.1818  1.3058  0.2170
  196THF     O1 3976   2.492   2.410   2.743 -0.2544  0.1660  0.2554
  196THF     C2 3977   2.605   2.428   2.820 -0.2731  0.0884  0.3469
  196THF     C3 3978   2.486   2.284   2.671  0.8587 -0.8218  0.1243
  196THF     H4 3979   2.573   2.477   2.912 -2.5334  1.1277 -0.9209
  196THF     H5 3980   2.681   2.479   2.761  0.8132 -2.2445 -0.3958
  196THF     H6 3981   2.384   2.245   2.673  1.2221 -1.7623  1.5606
  196THF     H7 3982   2.505   2.297   2.564 -0.1367 -0.8233 -0.0615
  196THF     C8 3983   2.591   2.200   2.741  0.4719 -0.3858  0.0440
  196THF     C9 3984   2.640   2.280   2.857 -0.4059 -0.2725 -0.8662
  196THF    H10 3985   2.674   2.174   2.675  0.8821  1.2251 -0.1337
  196THF    H11 3986   2.543   2.106   2.767 -2.1225  1.1001  0.9711
  196THF    H12 3987   2.599   2.252   2.954  0.5418 -0.5368 -0.5349
  196THF    H13 3988   2.747   2.268   2.869 -0.2187  0.7853 -1.3843
  197THF     O1 3989   1.599   1.234   0.056 -0.6272  0.6309 -0.3219
  197THF     C2 3990   1.741   1.226   0.046  0.4941  0.3754 -0.1274
  197THF     C3 3991   1.571   1.364   0.093  0.3631 -0.1278 -0.7564
  197THF     H4 3992   1.773   1.286  -0.040  0.3466 -0.9558 -1.1526
  197THF     H5 3993   1.757   1.119   0.036 -0.3109  0.3086 -0.8728
  197THF     H6 3994   1.582   1.420   0.000 -0.1329 -0.6587 -1.1383
  197THF     H7 3995   1.467   1.371   0.122  0.8448 -0.9909  1.3541
  197THF     C8 3996   1.666   1.394   0.199 -0.3987  0.2783  0.0470
  197THF     C9 3997   1.781   1.294   0.174  0.3262 -0.0236 -0.3402
  197THF    H10 3998   1.632   1.381   0.301  3.5340  1.6678  1.7406
  197THF    H11 3999   1.703   1.496   0.195  0.2493  0.0371 -0.4722
  197THF    H12 4000   1.873   1.350   0.159  0.2045 -0.1518 -1.7443
  197THF    H13 4001   1.799   1.220   0.252 -0.4084 -1.4642 -1.4789
  198THF     O1 4002   3.953   0.223   2.149  0.5327 -0.0793 -0.9313
  198THF     C2 4003   4.063   0.229   2.054  0.0794  0.2747 -0.5567
  198THF     C3 4004   3.967   0.343   2.234  0.1272 -0.4290  0.3009
  198THF     H4 4005   4.043   0.305   1.978 -0.5293 -1.4254 -2.1606
  198THF     H5 4006   4.064   0.136   1.998 -0.3009  0.0073 -0.1222
  198THF     H6 4007   3.966   0.437   2.179 -1.8809 -0.4543  0.2395
  198THF     H7 4008   3.905   0.352   2.322 -2.2880  2.4270 -1.5040
  198THF     C8 4009   4.114   0.307   2.278 -0.4869 -0.6809  0.5130
  198THF     C9 4010   4.184   0.262   2.145 -0.4280  0.1220 -0.6401
  198THF    H10 4011   4.116   0.234   2.360 -0.2163  0.3699  1.4687
  198THF    H11 4012   4.160   0.398   2.317 -0.9211 -1.0738  2.0214
  198THF    H12 4013   4.257   0.336   2.111 -0.1313 -0.9057 -2.3610
  198THF    H13 4014   4.239   0.169   2.159 -0.2127  0.6580  2.8670
  199THF     O1 4015   3.443   4.889   2.964 -0.3064 -0.2504  0.0833
  199THF     C2 4016   3.446   4.862   3.101  0.2563  0.0259  0.4699
  199THF     C3 4017   3.500   4.783   2.894  0.7130 -0.3044 -0.3719
  199THF     H4 4018   3.364   4.792   3.116  0.0766  0.3513  0.9920
  199THF     H5 4019   3.426   4.942   3.171 -0.0659 -0.9481  1.5187
  199THF     H6 4020   3.416   4.715   2.877  0.7189  0.0144 -1.8129
  199THF     H7 4021   3.520   4.821   2.794 -3.1253 -0.0435 -1.2151
  199THF     C8 4022   3.613   4.732   2.979 -0.1686  0.2231 -0.2992
  199THF     C9 4023   3.585   4.803   3.112  0.4240  0.2126  0.1108
  199THF    H10 4024   3.715   4.748   2.945 -0.2959  2.3759  0.1755
  199THF    H11 4025   3.604   4.624   2.985  0.8638  0.1994  1.1454
  199THF    H12 4026   3.612   4.746   3.200  0.8296 -2.5734 -1.6868
  199THF    H13 4027   3.672   4.869   3.119  0.5025  0.3096 -1.3732
  200THF     O1 4028   2.272   1.726   0.179 -0.5798  0.0453  0.1326
  200THF     C2 4029   2.179   1.644   0.260 -0.6065 -0.0066  0.4522
  200THF     C3 4030   2.202   1.837   0.128 -0.3766  0.2500 -0.3990
  200THF     H4 4031   2.193   1.697   0.355  0.8131 -1.1793  0.9256
  200THF     H5 4032   2.201   1.538   0.265 -0.2807  0.0816  0.9769
  200THF     H6 4033   2.202   1.910   0.209  2.9487  1.2465 -1.1667
  200THF     H7 4034   2.251   1.883   0.043  0.3352 -0.5199 -0.4159
  200THF     C8 4035   2.064   1.787   0.095 -0.3763 -0.1327  0.3070
  200THF     C9 4036   2.042   1.664   0.187 -0.3118 -0.0097 -0.5346
  200THF    H10 4037   2.062   1.742  -0.004 -0.4847  2.9383 -1.1889
  200THF    H11 4038   1.978   1.853   0.099 -0.3515 -0.1370  1.0117
  200THF    H12 4039   1.964   1.680   0.260 -0.0844 -1.4343  0.0659
  200THF    H13 4040   2.004   1.579   0.129 -0.3073 -2.1594  2.3860
  201THF     O1 4041   2.300   1.598   1.900  0.4331  0.3916  0.3994
  201THF     C2 4042   2.214   1.481   1.897  0.3021 -0.1828 -0.1151
  201THF     C3 4043   2.230   1.705   1.951  0.0305  0.0891 -0.0693
  201THF     H4 4044   2.187   1.445   1.996 -0.8297  2.3098  0.5737
  201THF     H5 4045   2.272   1.410   1.838  0.5341  0.4827 -0.7077
  201THF     H6 4046   2.250   1.712   2.058 -0.0611  0.3139 -0.0675
  201THF     H7 4047   2.271   1.797   1.911  3.3990 -0.6633  1.3253
  201THF     C8 4048   2.083   1.672   1.906  0.4231 -0.1819  0.4986
  201THF     C9 4049   2.090   1.545   1.824 -0.8701  0.1700 -0.5319
  201THF    H10 4050   2.037   1.752   1.848 -0.7893  0.2504  1.9990
  201THF    H11 4051   2.035   1.662   2.003  0.3091  0.5395  0.5238
  201THF    H12 4052   2.002   1.482   1.818 -0.9680  0.1955  0.4514
  201THF    H13 4053   2.112   1.576   1.722  1.1387  1.7960  0.3177
  202THF     O1 4054   0.911   3.818   4.020  0.1146  0.0914 -0.2455
  202THF     C2 4055   0.840   3.887   3.921 -0.2577 -0.3309  0.1518
  202THF     C3 4056   1.046   3.837   4.008 -0.1835  0.1763  0.2906
  202THF     H4 4057   0.734   3.906   3.936  0.0350  1.0260  0.6641
  202THF     H5 4058   0.863   3.832   3.830  0.7401  0.0928  0.1338
  202THF     H6 4059   1.093   3.869   4.102  2.4603 -0.6461 -0.6529
  202THF     H7 4060   1.091   3.749   3.963 -2.8347 -1.9856  1.6125
  202THF     C8 4061   1.061   3.945   3.899  0.4252  0.0097 -0.0616
  202THF     C9 4062   0.923   4.010   3.898 -0.5576 -0.5464  0.3825
  202THF    H10 4063   1.076   3.912   3.796  1.9427 -0.7336  0.3646
  202THF    H11 4064   1.139   4.019   3.917  0.8247 -0.4264  0.0162
  202THF    H12 4065   0.915   4.079   3.982 -3.1375  0.1325 -0.3323
  202THF    H13 4066   0.895   4.069   3.811  0.5594  2.7359  2.0902
  203THF     O1 4067   1.436   4.931   3.129 -0.4423  0.0187  0.9784
  203THF     C2 4068   1.339   4.923   3.025  0.6515 -0.4832 -0.8491
  203THF     C3 4069   1.403   4.832   3.226 -0.5605  0.4461  0.4391
  203THF     H4 4070   1.377   4.945   2.925 -1.5676  1.2304 -1.3977
  203THF     H5 4071   1.251   4.984   3.047 -0.9274 -1.8259 -3.0370
  203THF     H6 4072   1.485   4.763   3.246 -0.4312  0.0614 -1.2698
  203THF     H7 4073   1.361   4.883   3.313 -0.8597  1.0496 -0.0493
  203THF     C8 4074   1.294   4.735   3.169  0.4834  0.0285 -0.5269
  203THF     C9 4075   1.305   4.775   3.024 -0.4184 -0.3181 -0.1439
  203THF    H10 4076   1.197   4.750   3.216 -0.0413 -1.9436 -0.9038
  203THF    H11 4077   1.304   4.629   3.192 -0.6930 -0.1499 -0.7594
  203THF    H12 4078   1.383   4.721   2.971  1.5809  1.8300  0.4784
  203THF    H13 4079   1.206   4.754   2.983  0.2200 -1.6382 -1.0558
  204THF     O1 4080   2.481   4.157   2.771 -0.3366 -0.0152  0.1603
  204THF     C2 4081   2.347   4.183   2.794  0.2592 -0.0888 -0.1780
  204THF     C3 4082   2.481   4.033   2.696 -0.3501 -0.0131  0.6085
  204THF     H4 4083   2.298   4.213   2.702 -0.6120  3.7738  1.3318
  204THF     H5 4084   2.317   4.258   2.868 -0.0048  0.4166 -0.7783
  204THF     H6 4085   2.451   4.064   2.596  1.3776 -0.0571  0.0565
  204THF     H7 4086   2.572   3.973   2.690 -0.4280 -0.2483  1.5853
  204THF     C8 4087   2.376   3.945   2.765 -0.3669  0.0337  0.4926
  204THF     C9 4088   2.297   4.047   2.847  0.5631 -0.3758 -0.1804
  204THF    H10 4089   2.428   3.878   2.833  0.6966  0.7413  0.4109
  204THF    H11 4090   2.328   3.890   2.684  0.6301  0.1615 -0.2128
  204THF    H12 4091   2.190   4.032   2.832  0.2359 -0.3459  1.8230
  204THF    H13 4092   2.318   4.048   2.954 -3.7050  0.4624  0.8274
  205THF     O1 4093   1.549   5.362   0.283  0.4822  1.0017 -0.2100
  205THF     C2 4094   1.466   5.384   0.165  0.3064 -0.1410  0.4065
  205THF     C3 4095   1.484   5.261   0.369 -0.4911 -0.1040  0.5668
  205THF     H4 4096   1.519   5.431   0.083  0.3273 -0.3308  0.3112
  205THF     H5 4097   1.382   5.451   0.185  3.0426  3.1629  1.8255
  205THF     H6 4098   1.560   5.187   0.394  2.7181  1.8272 -2.4740
  205THF     H7 4099   1.451   5.296   0.466 -1.1181 -0.6766  0.5687
  205THF     C8 4100   1.370   5.208   0.284 -0.5152 -0.1126  0.0499
  205THF     C9 4101   1.414   5.241   0.139 -0.2947 -0.5513 -0.2347
  205THF    H10 4102   1.273   5.250   0.310 -1.1732 -1.0433 -0.7917
  205THF    H11 4103   1.363   5.102   0.309 -1.7536 -0.1787 -0.5143
  205THF    H12 4104   1.501   5.193   0.094  0.3983  0.7017 -0.2667
  205THF    H13 4105   1.341   5.245   0.058  1.8310 -1.9714 -2.3651
  206THF     O1 4106   4.937   5.056   2.223  0.4861 -0.3055  0.0766
  206THF     C2 4107   4.975   4.945   2.308  0.3717  0.5588  0.2396
  206THF     C3 4108   5.046   5.074   2.132 -0.2451 -0.3612 -0.0535
  206THF     H4 4109   4.892   4.915   2.371  0.0096  1.7725  0.3645
  206THF     H5 4110   5.046   4.993   2.375 -0.9240 -0.5299  2.4936
  206THF     H6 4111   4.991   5.115   2.047  0.0645  0.8464  0.3143
  206THF     H7 4112   5.123   5.145   2.160 -1.0461  0.7739 -0.6646
  206THF     C8 4113   5.103   4.937   2.113 -0.0528 -0.2409 -0.3173
  206THF     C9 4114   5.048   4.846   2.218  0.0764 -0.5676  0.2444
  206THF    H10 4115   5.209   4.951   2.130 -0.5569  1.4699  1.8489
  206THF    H11 4116   5.087   4.915   2.007 -0.8514 -0.1740 -0.2205
  206THF    H12 4117   4.976   4.782   2.166  0.6012 -0.1696 -1.0171
  206THF    H13 4118   5.132   4.791   2.261  1.4754 -0.5119 -2.1914
  207THF     O1 4119   5.156   0.751   4.102 -0.5645 -0.1195 -0.2681
  207THF     C2 4120   5.226   0.856   4.039  0.2138 -0.7541  0.4556
  207THF     C3 4121   5.164   0.646   4.005  0.6295 -0.0439  0.1421
  207THF     H4 4122   5.247   0.944   4.100 -3.6704  0.0492  0.8998
  207THF     H5 4123   5.180   0.905   3.953 -1.4656  0.6986  2.0905
  207THF     H6 4124   5.138   0.551   4.053  0.4343 -0.3704 -0.6042
  207THF     H7 4125   5.087   0.658   3.929  0.0741 -2.1070  0.3085
  207THF     C8 4126   5.308   0.648   3.947  0.3082 -0.3137 -0.2747
  207THF     C9 4127   5.356   0.786   3.992  0.2339  0.8032  0.2236
  207THF    H10 4128   5.305   0.661   3.839 -0.3693  0.6619 -0.1510
  207THF    H11 4129   5.377   0.566   3.967  0.8104  0.2202  0.2252
  207THF    H12 4130   5.431   0.782   4.070  3.1318 -0.6157 -2.4228
  207THF    H13 4131   5.405   0.840   3.911 -0.9848  2.0114  0.2467
  208THF     O1 4132   5.083   5.256   3.888  0.2133  0.0751 -0.9538
  208THF     C2 4133   4.956   5.282   3.832  0.2386 -0.2329  0.0687
  208THF     C3 4134   5.068   5.146   3.973  0.4461 -0.0038  0.4424
  208THF     H4 4135   4.963   5.345   3.743  0.2161  0.3645  0.4784
  208THF     H5 4136   4.907   5.349   3.903 -0.2219  0.8997 -1.2717
  208THF     H6 4137   5.168   5.105   3.978  0.3307 -0.3672 -0.1615
  208THF     H7 4138   5.038   5.182   4.072 -1.5378  2.2301 -0.8638
  208THF     C8 4139   4.974   5.059   3.905  0.3950 -0.3407  0.1509
  208THF     C9 4140   4.886   5.145   3.812 -0.4256  0.3766  0.9750
  208THF    H10 4141   4.915   5.014   3.984 -0.3294  0.1445 -0.1035
  208THF    H11 4142   5.024   4.980   3.849 -1.7920 -1.0791 -0.8866
  208THF    H12 4143   4.896   5.107   3.710 -0.3854  0.9357  0.7657
  208THF    H13 4144   4.781   5.152   3.841 -0.4332  0.9997  0.8225
  209THF     O1 4145   0.973   5.084   0.775  0.7569  0.0506  0.0843
  209THF     C2 4146   0.990   5.225   0.764  0.1452 -0.7055 -0.1304
  209THF     C3 4147   0.831   5.053   0.761 -0.2148 -0.1073  0.6612
  209THF     H4 4148   0.984   5.264   0.662 -0.3037 -0.8801 -0.1752
  209THF     H5 4149   1.087   5.249   0.808 -0.0052 -3.4420  1.9817
  209THF     H6 4150   0.805   5.048   0.656 -0.3374  0.7828  0.6353
  209THF     H7 4151   0.809   4.962   0.817  1.2457  0.3330  2.0487
  209THF     C8 4152   0.761   5.181   0.827  0.4162  0.1167 -0.3426
  209THF     C9 4153   0.876   5.279   0.849 -0.0609 -0.0255 -0.4327
  209THF    H10 4154   0.738   5.154   0.930  0.7072 -0.1199 -0.3374
  209THF    H11 4155   0.672   5.223   0.779 -0.8452  1.0137  2.6016
  209THF    H12 4156   0.853   5.385   0.839  0.3218  0.2338  1.1246
  209THF    H13 4157   0.907   5.269   0.954 -0.6264 -0.1226 -0.2722
  210THF     O1 4158   0.101   0.451   4.142 -0.1243  0.0806 -0.0656
  210THF     C2 4159   0.088   0.579   4.204  0.2252  0.1006 -0.0568
  210THF     C3 4160   0.029   0.354   4.213  0.5333  0.0757  0.0274
  210THF     H4 4161   0.089   0.656   4.127  1.0526  1.2197  1.0380
  210THF     H5 4162   0.175   0.591   4.269  1.3251 -1.6461 -1.1261
  210THF     H6 4163   0.010   0.262   4.157  2.5907 -0.2095 -0.2765
  210THF     H7 4164   0.084   0.319   4.300 -2.0541 -1.9464  0.9854
  210THF     C8 4165  -0.096   0.437   4.243  0.2422 -0.3609 -0.1809
  210THF     C9 4166  -0.043   0.571   4.280 -0.4247  0.1537 -0.1823
  210THF    H10 4167  -0.162   0.401   4.322 -0.0160 -0.8065 -0.5904
  210THF    H11 4168  -0.163   0.430   4.157 -2.9501 -0.0281  2.0888
  210THF    H12 4169  -0.116   0.648   4.255 -0.7901 -0.2575 -0.3956
  210THF    H13 4170  -0.019   0.577   4.386  0.7234  0.5750 -0.4499
  211THF     O1 4171   3.599   3.973   1.038  0.3255 -0.1266 -0.2533
  211THF     C2 4172   3.716   4.051   1.055  0.1971  0.2035 -0.3391
  211THF     C3 4173   3.515   4.042   0.953  0.4887 -0.7217  0.4033
  211THF     H4 4174   3.792   3.999   1.113  2.8868  0.3608 -3.4269
  211THF     H5 4175   3.694   4.135   1.120 -0.2208 -0.2332  0.0850
  211THF     H6 4176   3.454   3.980   0.886 -1.4183  2.0565 -0.6462
  211THF     H7 4177   3.455   4.118   1.004  0.4949 -0.7666  0.4773
  211THF     C8 4178   3.616   4.112   0.856  0.1143  0.0180 -0.6633
  211THF     C9 4179   3.754   4.079   0.911  0.2732  0.0806 -0.2433
  211THF    H10 4180   3.593   4.218   0.858  1.7013  0.4159 -1.3521
  211THF    H11 4181   3.606   4.069   0.756 -1.2627 -2.4768  0.4664
  211THF    H12 4182   3.791   3.985   0.869 -2.8251 -0.5306 -1.8840
  211THF    H13 4183   3.827   4.159   0.896  0.3528  0.0521 -0.0040
  212THF     O1 4184   1.013   1.252   5.211  0.1536  0.1580  0.5435
  212THF     C2 4185   0.926   1.164   5.278 -0.3978 -0.1820 -0.0604
  212THF     C3 4186   1.073   1.182   5.101  0.1033  0.6473 -0.2807
  212THF     H4 4187   0.834   1.170   5.220 -0.1802  1.5546 -0.2915
  212THF     H5 4188   0.901   1.205   5.376  0.1398  1.2064 -0.4694
  212THF     H6 4189   1.000   1.184   5.020 -1.6356 -0.9764  1.1597
  212THF     H7 4190   1.162   1.231   5.062 -0.5050  1.3682 -0.7989
  212THF     C8 4191   1.089   1.039   5.143  0.2551  0.8650 -0.3524
  212THF     C9 4192   1.007   1.031   5.278  0.7950 -0.0439 -0.3407
  212THF    H10 4193   1.194   1.013   5.157  0.2149 -0.4599 -2.1982
  212THF    H11 4194   1.039   0.975   5.071 -2.6984  1.5353  0.9144
  212THF    H12 4195   0.946   0.941   5.271 -0.5669  0.9641 -2.3676
  212THF    H13 4196   1.080   1.020   5.358  0.6892 -0.9165 -0.3535
  213THF     O1 4197   0.005   3.832   0.579 -0.1921 -0.0174  0.2536
  213THF     C2 4198  -0.112   3.816   0.509  0.7296  0.5058 -0.1627
  213THF     C3 4199  -0.014   3.909   0.699 -0.1463 -0.5454  0.5850
  213THF     H4 4200  -0.119   3.707   0.504  1.7706  0.3558  1.1057
  213THF     H5 4201  -0.117   3.858   0.409  0.9742 -0.4036 -0.5712
  213THF     H6 4202  -0.004   3.856   0.794 -0.1739 -1.2806  0.1815
  213THF     H7 4203   0.056   3.992   0.712 -0.9381  0.2024  0.1461
  213THF     C8 4204  -0.147   3.977   0.678 -0.7018  0.0853 -0.1325
  213THF     C9 4205  -0.218   3.859   0.605  0.0214 -0.3052 -0.0078
  213THF    H10 4206  -0.141   4.067   0.618  0.2318  0.8495  1.0634
  213THF    H11 4207  -0.204   3.994   0.769 -1.2803  1.5516 -0.7453
  213THF    H12 4208  -0.242   3.784   0.681  0.1711  0.0680  0.4122
  213THF    H13 4209  -0.316   3.888   0.566  0.5171  0.0955 -0.9696
  214THF     O1 4210   0.102   0.260   5.359 -0.4382  0.1395 -0.6762
  214THF     C2 4211   0.131   0.147   5.265  0.8676 -0.0617  0.0483
  214THF     C3 4212  -0.040   0.258   5.369  0.7974 -1.0871 -0.2209
  214THF     H4 4213   0.134   0.043   5.300  2.0245 -0.0389  0.0466
  214THF     H5 4214   0.231   0.164   5.225 -0.2563  0.4499 -2.7711
  214THF     H6 4215  -0.089   0.179   5.426  0.9639 -0.5579  0.6821
  214THF     H7 4216  -0.079   0.344   5.422  1.0824 -1.3767  0.4723
  214THF     C8 4217  -0.087   0.257   5.223  0.1679 -0.6111  0.3089
  214THF     C9 4218   0.018   0.164   5.162 -0.2762  0.2026  0.3466
  214THF    H10 4219  -0.094   0.358   5.181  1.4127 -0.5753  0.1396
  214THF    H11 4220  -0.183   0.208   5.213  0.6404 -1.2098 -1.7504
  214THF    H12 4221  -0.028   0.066   5.159 -0.2404  0.1495  1.2063
  214THF    H13 4222   0.052   0.195   5.063 -1.2676  2.0487  0.5399
  215THF     O1 4223   3.537   4.217   4.945  0.3460 -0.3342 -0.2530
  215THF     C2 4224   3.506   4.201   5.084  0.3707  0.6827  0.0981
  215THF     C3 4225   3.582   4.096   4.893 -0.1325 -0.3315  0.2778
  215THF     H4 4226   3.401   4.172   5.079 -0.0508  2.2469 -0.8761
  215THF     H5 4227   3.511   4.285   5.154  0.5793  1.0405 -0.3381
  215THF     H6 4228   3.514   4.051   4.821 -1.2577  1.0736  0.4193
  215THF     H7 4229   3.679   4.113   4.847 -0.2839  0.1086  0.1166
  215THF     C8 4230   3.597   4.002   5.012 -0.1902  0.0638 -0.3210
  215THF     C9 4231   3.599   4.092   5.133  0.3223 -0.6163 -0.0422
  215THF    H10 4232   3.692   3.950   5.018  0.7113  1.7993  2.2125
  215THF    H11 4233   3.526   3.922   5.034  1.0674 -0.6302  1.4061
  215THF    H12 4234   3.560   4.052   5.226 -1.7663  0.1669 -0.5366
  215THF    H13 4235   3.694   4.140   5.159 -1.0676  2.3912 -0.1076
  216THF     O1 4236   1.687   4.537   4.696 -0.2296 -0.4384  0.8228
  216THF     C2 4237   1.780   4.533   4.798 -0.1374 -0.6922  0.4301
  216THF     C3 4238   1.755   4.547   4.571  0.9572  0.2418 -0.1286
  216THF     H4 4239   1.827   4.435   4.791  1.6530  0.2568 -1.9674
  216THF     H5 4240   1.736   4.564   4.893 -0.1555 -0.7853  0.4529
  216THF     H6 4241   1.754   4.451   4.519 -3.5703 -1.1859  2.0032
  216THF     H7 4242   1.712   4.620   4.502 -0.2166  1.1127  1.4518
  216THF     C8 4243   1.895   4.595   4.601  0.1542  0.9662 -0.0087
  216THF     C9 4244   1.891   4.629   4.750 -0.4368 -0.9354  0.0794
  216THF    H10 4245   1.945   4.666   4.535  1.7123  1.1405  1.3057
  216THF    H11 4246   1.954   4.503   4.594 -0.6795  0.4822 -0.9814
  216THF    H12 4247   1.986   4.608   4.799  0.2252  2.0585  0.2927
  216THF    H13 4248   1.865   4.733   4.770 -1.7310 -1.4645  1.3265
  217THF     O1 4249   3.527   3.805   0.663  0.2562  0.3307  0.6315
  217THF     C2 4250   3.546   3.722   0.775 -0.0563  0.4549  0.2861
  217THF     C3 4251   3.617   3.755   0.562  0.3820  0.3414 -0.1610
  217THF     H4 4252   3.488   3.630   0.770  2.5683 -1.3286  0.7049
  217THF     H5 4253   3.509   3.767   0.867 -0.3302  1.1713 -0.1615
  217THF     H6 4254   3.578   3.658   0.530 -0.3913  1.1349 -1.7557
  217THF     H7 4255   3.640   3.814   0.473 -0.4861 -0.4946 -0.9680
  217THF     C8 4256   3.746   3.741   0.641  0.3531  0.2777  0.2643
  217THF     C9 4257   3.694   3.694   0.776  0.3141  0.2390  0.0762
  217THF    H10 4258   3.793   3.837   0.658 -0.1087  0.4652  0.4891
  217THF    H11 4259   3.813   3.669   0.593 -0.7420 -0.3665 -0.3554
  217THF    H12 4260   3.716   3.588   0.791 -0.1953  0.1264  0.0475
  217THF    H13 4261   3.746   3.753   0.851 -0.8401 -0.7083  1.6937
  218THF     O1 4262   3.471   2.380   0.096  0.2868 -0.6047  0.5208
  218THF     C2 4263   3.491   2.496   0.171 -0.3603  0.3730  0.2312
  218THF     C3 4264   3.361   2.312   0.149  0.7689  0.2230  0.5290
  218THF     H4 4265   3.415   2.573   0.155  0.9835  1.4001 -1.5939
  218THF     H5 4266   3.589   2.541   0.153 -0.7858  0.6883 -1.4939
  218THF     H6 4267   3.263   2.358   0.135  1.4190  1.2059 -1.0529
  218THF     H7 4268   3.352   2.207   0.119  0.9398  0.8226 -1.8482
  218THF     C8 4269   3.401   2.305   0.300  0.7255  0.4592  0.1573
  218THF     C9 4270   3.472   2.442   0.311  0.1402 -0.0027  0.1579
  218THF    H10 4271   3.462   2.215   0.314  0.8914  0.7318  1.2798
  218THF    H11 4272   3.311   2.293   0.359  0.6863 -1.2448 -0.1882
  218THF    H12 4273   3.406   2.509   0.368 -0.3150  1.3237 -1.8216
  218THF    H13 4274   3.570   2.436   0.358 -0.3026 -0.4820  1.0600
  219THF     O1 4275   4.196   5.277   3.029 -0.2640  0.1432 -0.1601
  219THF     C2 4276   4.254   5.148   3.017  0.1009 -0.4448  0.1864
  219THF     C3 4277   4.278   5.365   3.108 -0.8695  0.2716  0.0447
  219THF     H4 4278   4.322   5.141   2.932 -0.8543 -2.9231 -0.4391
  219THF     H5 4279   4.183   5.066   3.013 -0.7734  0.2578  1.0477
  219THF     H6 4280   4.335   5.422   3.034 -0.1766 -2.0981 -1.3761
  219THF     H7 4281   4.218   5.414   3.184 -0.2278 -0.7326  1.2176
  219THF     C8 4282   4.378   5.275   3.184 -0.5948 -0.5711 -0.4767
  219THF     C9 4283   4.330   5.135   3.145 -0.6130 -0.1347 -0.8504
  219THF    H10 4284   4.387   5.306   3.288 -0.7387 -0.0066 -0.6292
  219THF    H11 4285   4.479   5.291   3.145 -0.6618  0.2447 -0.3362
  219THF    H12 4286   4.406   5.058   3.135 -0.5310 -0.0343 -1.0190
  219THF    H13 4287   4.265   5.105   3.227  0.9935 -0.2603  0.4161
  220THF     O1 4288   0.206   3.378   0.236 -0.1658 -0.0918 -0.4670
  220THF     C2 4289   0.340   3.421   0.248  0.1454  0.1240 -0.2113
  220THF     C3 4290   0.112   3.439   0.333  0.4828  0.7892  0.0185
  220THF     H4 4291   0.357   3.514   0.194 -0.9750 -0.3353 -1.3986
  220THF     H5 4292   0.400   3.333   0.226 -2.4642 -1.3299 -2.0239
  220THF     H6 4293   0.033   3.493   0.282 -0.8941 -1.7343 -0.6835
  220THF     H7 4294   0.063   3.356   0.385  0.0982  1.0943  0.1474
  220THF     C8 4295   0.203   3.528   0.417  0.0466  0.0772 -0.2075
  220THF     C9 4296   0.343   3.473   0.392  0.5804  0.2587  0.0667
  220THF    H10 4297   0.166   3.520   0.519  0.3980 -1.4458 -0.1766
  220THF    H11 4298   0.210   3.632   0.387  1.7946 -0.4324 -1.7678
  220THF    H12 4299   0.414   3.555   0.397 -1.2668  2.4775 -4.6687
  220THF    H13 4300   0.367   3.396   0.466  2.3983  0.3387 -0.3769
  221THF     O1 4301   0.932   4.702   1.637  0.7541  0.3078  0.0544
  221THF     C2 4302   0.992   4.757   1.520  0.7117 -0.1042  0.2679
  221THF     C3 4303   0.950   4.786   1.753 -0.0987  0.3846 -0.3082
  221THF     H4 4304   0.961   4.710   1.427 -1.3304  1.5230  0.0625
  221THF     H5 4305   1.097   4.730   1.534  0.7250 -0.4537 -0.5022
  221THF     H6 4306   0.859   4.784   1.814 -1.1052 -0.8902 -1.7702
  221THF     H7 4307   1.032   4.754   1.818 -2.8812 -0.6571  2.9877
  221THF     C8 4308   0.969   4.923   1.690  0.2842  0.0812  0.3160
  221THF     C9 4309   0.965   4.908   1.534 -0.6856 -0.6435 -0.3030
  221THF    H10 4310   1.071   4.956   1.708  0.6434 -0.8150 -0.0278
  221THF    H11 4311   0.898   5.000   1.722 -0.4991  0.1780 -1.5000
  221THF    H12 4312   0.868   4.946   1.503 -1.2615 -0.7363  1.2958
  221THF    H13 4313   1.040   4.970   1.485 -0.1113 -0.1222  1.1948
  222THF     O1 4314   1.716   3.155   3.010  0.8114 -0.6476 -0.4461
  222THF     C2 4315   1.766   3.228   3.118  0.0235  0.0072 -0.3844
  222THF     C3 4316   1.797   3.050   2.983  0.4878  0.7194  0.0031
  222THF     H4 4317   1.705   3.203   3.204  1.0005  1.2748  0.7219
  222THF     H5 4318   1.753   3.336   3.107  0.0528  0.0714  0.2101
  222THF     H6 4319   1.779   2.964   3.047  3.5225 -0.2282 -0.2733
  222THF     H7 4320   1.774   3.016   2.882 -0.7914 -0.9494  0.8058
  222THF     C8 4321   1.938   3.107   2.994 -0.2398  0.0042 -0.6047
  222THF     C9 4322   1.921   3.191   3.125  0.7023  0.1758 -1.1265
  222THF    H10 4323   1.939   3.163   2.900  0.6709 -2.2902 -2.0579
  222THF    H11 4324   2.011   3.026   2.993  0.9589  1.0507 -0.4881
  222THF    H12 4325   1.937   3.130   3.214 -1.1970  0.5121 -0.5111
  222THF    H13 4326   1.992   3.274   3.129  0.8039  0.1283 -1.7373
  223THF     O1 4327   5.368   4.680   4.846  0.4809  0.3237 -0.1797
  223THF     C2 4328   5.326   4.615   4.730 -0.2977  0.1331  0.5079
  223THF     C3 4329   5.481   4.608   4.897 -0.1261 -0.3679  0.2109
  223THF     H4 4330   5.273   4.688   4.668  3.3105  1.9220 -0.7493
  223THF     H5 4331   5.265   4.533   4.769 -1.3350 -0.1736 -1.6156
  223THF     H6 4332   5.543   4.656   4.973 -0.9396 -1.1784  1.4410
  223THF     H7 4333   5.456   4.512   4.942 -4.3499 -0.7222 -2.3068
  223THF     C8 4334   5.555   4.576   4.762 -0.0723  0.2496 -0.4617
  223THF     C9 4335   5.454   4.571   4.650  0.2448 -0.0012 -0.2636
  223THF    H10 4336   5.629   4.495   4.762  0.9401  1.1414  0.4582
  223THF    H11 4337   5.611   4.667   4.742  0.2715  0.1487  0.0266
  223THF    H12 4338   5.484   4.633   4.565  0.5130 -1.2480 -1.1079
  223THF    H13 4339   5.462   4.471   4.607 -1.1847 -0.8222  1.2903
  224THF     O1 4340   3.171   4.656   0.111 -0.2725  0.0959 -0.7027
  224THF     C2 4341   3.126   4.785   0.071 -0.2717  0.3384 -0.2116
  224THF     C3 4342   3.057   4.571   0.118  0.1227 -0.1527  0.4049
  224THF     H4 4343   3.117   4.779  -0.037  0.1060 -1.3203 -0.1788
  224THF     H5 4344   3.190   4.868   0.102  1.5784 -1.9833  2.8108
  224THF     H6 4345   3.036   4.531   0.020  1.7051 -0.6563  0.2360
  224THF     H7 4346   3.079   4.482   0.176  1.1308 -0.4269 -0.3753
  224THF     C8 4347   2.944   4.660   0.172 -0.8387  0.2214 -0.2462
  224THF     C9 4348   2.982   4.797   0.127 -0.2294  0.0374  0.2850
  224THF    H10 4349   2.945   4.654   0.281 -0.6274  4.3009  0.1539
  224THF    H11 4350   2.852   4.613   0.138  0.6311 -3.1311  0.0177
  224THF    H12 4351   2.920   4.835   0.046  2.7259 -0.5992 -2.4738
  224THF    H13 4352   2.981   4.869   0.209  1.6994  0.8150 -0.3243
  225THF     O1 4353   2.028   0.238   5.027  0.5394 -0.3047 -0.0902
  225THF     C2 4354   2.035   0.366   4.963 -0.4673  0.2982 -0.6869
  225THF     C3 4355   2.159   0.193   5.031 -0.4596 -0.2990 -0.8344
  225THF     H4 4356   1.950   0.433   4.973  0.6250  1.3359  4.8238
  225THF     H5 4357   2.045   0.355   4.855  0.6576 -2.4436 -0.3977
  225THF     H6 4358   2.171   0.120   5.111  1.8874 -1.2479 -1.9433
  225THF     H7 4359   2.192   0.143   4.940  0.4812 -1.1156 -0.0731
  225THF     C8 4360   2.246   0.315   5.066 -0.1900 -0.4419  0.4142
  225THF     C9 4361   2.168   0.431   5.005  0.9294 -0.4324  0.4479
  225THF    H10 4362   2.341   0.294   5.017 -0.5088  1.7494 -1.2773
  225THF    H11 4363   2.278   0.329   5.169  0.5591  2.9586 -0.1635
  225THF    H12 4364   2.159   0.494   5.093  0.9253 -1.5622  1.2700
  225THF    H13 4365   2.229   0.472   4.924  0.7941 -0.8565  0.1320
  226THF     O1 4366   2.972   2.127   2.875 -0.1742  1.0813  0.1558
  226THF     C2 4367   2.969   1.991   2.915  0.0028  0.0162 -0.2087
  226THF     C3 4368   3.002   2.127   2.729 -0.1090  0.1442  0.2967
  226THF     H4 4369   2.899   1.981   2.998 -0.4700 -0.3261 -0.6408
  226THF     H5 4370   3.065   1.950   2.948 -0.5125  0.3732  1.8200
  226THF     H6 4371   2.947   2.207   2.679  0.4705  1.2933  1.4563
  226THF     H7 4372   3.108   2.153   2.717 -0.4438  0.9626 -1.2139
  226THF     C8 4373   2.970   1.986   2.674  0.0924 -0.1381  0.0340
  226THF     C9 4374   2.909   1.922   2.788 -0.1676  0.8394  0.3361
  226THF    H10 4375   3.058   1.927   2.650 -0.8237 -1.7261  0.4806
  226THF    H11 4376   2.905   1.982   2.586  0.6970  0.7494 -0.4764
  226THF    H12 4377   2.800   1.927   2.786 -0.2388 -0.7070 -1.0879
  226THF    H13 4378   2.929   1.816   2.782 -0.6807  0.7662 -0.1963
  227THF     O1 4379   1.933   5.172   1.616  0.2074 -0.4310  0.4255
  227THF     C2 4380   2.000   5.261   1.706  0.2545  0.4415  0.0923
  227THF     C3 4381   1.833   5.104   1.685  0.2007  0.4207 -0.3647
  227THF     H4 4382   1.942   5.353   1.715 -2.2487 -0.9365 -0.9175
  227THF     H5 4383   2.099   5.274   1.662  0.5910 -1.2881  0.2686
  227THF     H6 4384   1.733   5.142   1.662 -0.7776 -1.1848  0.9929
  227THF     H7 4385   1.818   4.998   1.666 -1.1447  0.6237 -0.5685
  227THF     C8 4386   1.860   5.127   1.842 -1.3244 -0.6524 -0.2475
  227THF     C9 4387   2.000   5.196   1.844 -0.3718  0.0907 -0.2327
  227THF    H10 4388   1.867   5.038   1.905 -2.7801  0.1060  1.0683
  227THF    H11 4389   1.784   5.194   1.883  1.9630  3.5308 -0.3085
  227THF    H12 4390   2.019   5.263   1.927  0.2180  0.2693 -0.5104
  227THF    H13 4391   2.078   5.121   1.852 -0.9150 -0.3609  0.9832
  228THF     O1 4392   2.348   2.463   4.753 -0.3421  0.4078  0.8453
  228THF     C2 4393   2.335   2.570   4.845  0.1304 -0.5589 -0.0485
  228THF     C3 4394   2.337   2.356   4.842 -0.3304  0.7295  0.0088
  228THF     H4 4395   2.233   2.575   4.883 -0.3898 -1.7686 -1.1853
  228THF     H5 4396   2.354   2.669   4.803  1.1380 -0.5240  0.4626
  228THF     H6 4397   2.242   2.327   4.886 -0.3419 -3.3384 -2.1700
  228THF     H7 4398   2.359   2.271   4.777  0.9317  1.0688 -0.0368
  228THF     C8 4399   2.454   2.393   4.935  0.1187  0.0025  0.2742
  228THF     C9 4400   2.449   2.546   4.945 -0.4772 -0.7283 -0.3380
  228THF    H10 4401   2.550   2.369   4.889  0.1348  0.9737 -0.2320
  228THF    H11 4402   2.437   2.339   5.028 -1.0253 -0.7779 -0.3479
  228THF    H12 4403   2.419   2.575   5.046 -1.4616  2.6272 -1.4742
  228THF    H13 4404   2.543   2.595   4.922 -0.3296 -0.7239  0.2570
  229THF     O1 4405   2.306   0.655   4.266 -0.3846 -0.1329  0.6254
  229THF     C2 4406   2.175   0.700   4.231  1.0555 -0.1752  0.0196
  229THF     C3 4407   2.380   0.662   4.146  0.4301  0.4096 -0.2146
  229THF     H4 4408   2.131   0.776   4.295 -1.0898 -1.7947  0.5953
  229THF     H5 4409   2.109   0.613   4.239  0.8234  0.0149  0.1932
  229THF     H6 4410   2.434   0.757   4.139 -1.0471  1.2838 -0.2433
  229THF     H7 4411   2.434   0.568   4.148 -0.8133 -0.3586  2.2752
  229THF     C8 4412   2.276   0.662   4.035  0.0367 -0.4316 -0.4995
  229THF     C9 4413   2.177   0.758   4.093 -0.0714  0.2786 -0.2541
  229THF    H10 4414   2.241   0.559   4.022 -2.3868  0.4211 -1.2672
  229THF    H11 4415   2.310   0.703   3.940 -0.2273  2.2893  0.5162
  229THF    H12 4416   2.214   0.860   4.083 -0.2491  0.4535  0.7823
  229THF    H13 4417   2.073   0.753   4.061  0.2560 -3.3595 -1.1737
  230THF     O1 4418   0.761   1.411   1.446 -0.1281  0.0679  0.1318
  230THF     C2 4419   0.896   1.361   1.429 -0.2945  0.0158 -0.4009
  230THF     C3 4420   0.687   1.333   1.541 -0.2802  0.1908 -0.1807
  230THF     H4 4421   0.963   1.438   1.466  0.4079 -0.4542 -0.6683
  230THF     H5 4422   0.931   1.340   1.328 -0.7717 -0.6579 -0.4347
  230THF     H6 4423   0.614   1.391   1.598 -1.6916  0.4989 -2.1986
  230THF     H7 4424   0.640   1.248   1.491 -3.3874  1.0890  0.9917
  230THF     C8 4425   0.798   1.266   1.629 -0.5554 -0.1979 -0.2008
  230THF     C9 4426   0.896   1.234   1.513  0.2450 -0.1096 -0.8166
  230THF    H10 4427   0.774   1.178   1.687 -2.3263  0.1839 -0.2813
  230THF    H11 4428   0.840   1.338   1.699 -2.2477  0.2750  0.3752
  230THF    H12 4429   0.990   1.219   1.566 -1.0051 -1.7339  1.0699
  230THF    H13 4430   0.851   1.155   1.454  1.3952  0.4930 -2.5624
  231THF     O1 4431   4.903   1.891   2.318  0.7879 -0.6339  0.4249
  231THF     C2 4432   4.907   1.883   2.177 -0.2317  0.1374 -0.5568
  231THF     C3 4433   4.900   1.757   2.374 -0.4351 -0.2762  0.1707
  231THF     H4 4434   4.950   1.974   2.136  0.7986 -0.3419 -0.5744
  231THF     H5 4435   4.809   1.863   2.134 -0.4131 -0.8362  0.2640
  231THF     H6 4436   4.948   1.741   2.470  1.5666  0.1222 -0.7034
  231THF     H7 4437   4.795   1.730   2.368 -0.4585 -0.2049  0.2778
  231THF     C8 4438   4.982   1.679   2.276  0.3685  0.5397 -0.0853
  231THF     C9 4439   5.008   1.769   2.152  0.6663  0.3503  0.1557
  231THF    H10 4440   4.923   1.591   2.249  0.3955  0.0330  1.4250
  231THF    H11 4441   5.073   1.637   2.319  0.3139  0.8170  0.3049
  231THF    H12 4442   5.110   1.806   2.151  0.7580  0.0983 -1.2870
  231THF    H13 4443   4.991   1.710   2.062  0.4151 -0.6597  0.8401
  232THF     O1 4444   1.913   1.574   3.696  0.0779 -0.0027 -0.1267
  232THF     C2 4445   2.024   1.490   3.691 -0.0678  0.0340  0.7482
  232THF     C3 4446   1.802   1.514   3.628  0.9134  0.0379  0.7384
  232THF     H4 4447   2.098   1.502   3.770  1.4770  1.6600 -0.8635
  232THF     H5 4448   2.070   1.515   3.595  0.9991 -0.3541  1.1427
  232THF     H6 4449   1.701   1.538   3.663  1.6097  2.4333  1.3154
  232THF     H7 4450   1.802   1.552   3.526 -0.1602 -2.5292 -0.2967
  232THF     C8 4451   1.830   1.363   3.624 -0.4864  0.2345 -0.6614
  232THF     C9 4452   1.968   1.348   3.693 -0.4451  0.9697  0.2567
  232THF    H10 4453   1.841   1.328   3.521 -0.9112 -0.1469 -0.5796
  232THF    H11 4454   1.753   1.303   3.671 -1.2159  1.0305 -0.8136
  232THF    H12 4455   1.954   1.319   3.797  1.5655 -0.2674  0.2307
  232THF    H13 4456   2.025   1.281   3.629 -2.0512 -0.0893 -0.1023
  233THF     O1 4457   0.133   1.081   1.815 -0.0988  0.5800 -0.0360
  233THF     C2 4458   0.038   0.988   1.866  0.2933  0.2570 -0.2476
  233THF     C3 4459   0.225   1.112   1.919  0.1601  0.0419  0.0406
  233THF     H4 4460   0.071   0.887   1.842 -1.0603 -0.1930 -0.3297
  233THF     H5 4461  -0.061   0.993   1.820 -0.6640  0.5274  1.7537
  233THF     H6 4462   0.303   1.038   1.936 -0.3499 -0.4398  0.3495
  233THF     H7 4463   0.267   1.211   1.904 -3.4174  1.7854  0.3755
  233THF     C8 4464   0.128   1.106   2.043  0.0541 -0.7492  0.7702
  233THF     C9 4465   0.018   1.011   2.015 -0.4387  0.4349  0.4980
  233THF    H10 4466   0.099   1.204   2.079  2.5817 -0.1177  1.2538
  233THF    H11 4467   0.185   1.074   2.130 -0.0667 -1.3582  0.6296
  233THF    H12 4468   0.009   0.922   2.077 -2.5091 -0.0805 -0.4851
  233THF    H13 4469  -0.078   1.060   2.026 -1.5954 -1.7735  0.6973
  234THF     O1 4470   2.062   0.327   1.901 -0.1131  0.2123  0.0076
  234THF     C2 4471   1.952   0.373   1.828  0.3925  0.1106 -0.6017
  234THF     C3 4472   2.152   0.435   1.943  0.1898 -0.1686  0.1293
  234THF     H4 4473   1.864   0.365   1.893 -1.0271  0.4110 -2.4021
  234THF     H5 4474   1.915   0.318   1.741  0.2147 -0.0672 -0.4150
  234THF     H6 4475   2.178   0.429   2.049  2.0056 -0.7292 -0.3076
  234THF     H7 4476   2.250   0.440   1.894 -0.6330  0.2766 -1.5584
  234THF     C8 4477   2.066   0.562   1.907 -0.2072  0.4749 -1.3462
  234THF     C9 4478   1.983   0.516   1.795 -0.7827  0.2866 -0.1455
  234THF    H10 4479   2.130   0.649   1.898  1.9432 -0.9665 -0.6962
  234THF    H11 4480   2.000   0.579   1.992 -0.5499 -0.3066 -1.4376
  234THF    H12 4481   1.897   0.582   1.793 -0.2241  1.0511  0.5135
  234THF    H13 4482   2.023   0.525   1.694  0.0040  0.7139  0.1948
  235THF     O1 4483   0.986   4.647   0.505 -0.1745 -0.4819  0.1890
  235THF     C2 4484   0.970   4.560   0.612 -0.3258  0.2728 -0.0852
  235THF     C3 4485   0.974   4.772   0.567  0.2596 -0.8137 -0.6050
  235THF     H4 4486   1.019   4.466   0.586 -0.9177  0.2768 -1.2743
  235THF     H5 4487   0.865   4.544   0.639 -0.7088  1.0148 -1.0884
  235THF     H6 4488   0.983   4.854   0.495  1.8652  0.1853  0.6550
  235THF     H7 4489   0.867   4.789   0.580  0.5721  2.2076 -1.1466
  235THF     C8 4490   1.062   4.773   0.698  0.7713  1.0411  0.6000
  235THF     C9 4491   1.053   4.621   0.728  0.7819 -0.7588 -0.6183
  235THF    H10 4492   1.011   4.839   0.769 -2.8087  0.1270 -0.8637
  235THF    H11 4493   1.162   4.810   0.677  1.8332 -0.9774  1.8069
  235THF    H12 4494   1.156   4.586   0.735  1.1774 -0.2827 -3.1526
  235THF    H13 4495   0.998   4.614   0.822  0.6500  2.1107 -0.4020
  236THF     O1 4496   4.745   2.465   4.908  0.0719 -0.4280  0.3601
  236THF     C2 4497   4.654   2.511   4.999  0.8437 -0.6342 -0.1815
  236THF     C3 4498   4.747   2.555   4.800 -0.0186 -0.3223  0.0707
  236THF     H4 4499   4.692   2.596   5.056 -0.4635 -0.7496  0.9031
  236THF     H5 4500   4.622   2.431   5.065  0.1099  1.0836  1.6385
  236THF     H6 4501   4.810   2.639   4.829  1.2431 -1.5078  0.8641
  236THF     H7 4502   4.789   2.488   4.725 -1.5966 -3.0657  1.4891
  236THF     C8 4503   4.603   2.587   4.773 -0.0281  0.4900  0.6641
  236THF     C9 4504   4.543   2.560   4.909  0.2995  0.1734 -0.2602
  236THF    H10 4505   4.559   2.516   4.703  1.2666 -0.4080  0.7132
  236THF    H11 4506   4.584   2.686   4.731  1.9897 -0.1468 -2.0644
  236THF    H12 4507   4.484   2.635   4.961 -2.6277 -1.5161 -0.9442
  236THF    H13 4508   4.474   2.478   4.890  1.3441 -1.0976  1.2395
  237THF     O1 4509   3.414   4.549   4.257 -0.1675  0.4055 -0.3711
  237THF     C2 4510   3.326   4.606   4.165 -0.1107 -0.0467 -0.2066
  237THF     C3 4511   3.490   4.647   4.327 -0.1690  0.0683 -0.2765
  237THF     H4 4512   3.245   4.540   4.134 -1.1496  1.0712 -0.0103
  237THF     H5 4513   3.382   4.633   4.076  0.8388  0.0204  0.3963
  237THF     H6 4514   3.530   4.621   4.425  1.6637  1.3414 -0.6295
  237THF     H7 4515   3.557   4.693   4.254 -1.5136  1.7284 -0.5570
  237THF     C8 4516   3.387   4.760   4.346 -0.0150  0.3438 -0.9724
  237THF     C9 4517   3.268   4.729   4.249 -0.3068  0.0628  0.1315
  237THF    H10 4518   3.432   4.852   4.310  0.4550  0.8621  0.8113
  237THF    H11 4519   3.354   4.786   4.447 -0.8279 -1.6234 -0.6829
  237THF    H12 4520   3.184   4.685   4.304 -1.6051 -0.1659 -1.9393
  237THF    H13 4521   3.229   4.808   4.185 -1.8084 -1.0895 -0.4153
  238THF     O1 4522   4.469   5.108   3.666  0.3998 -0.0049  0.1944
  238THF     C2 4523   4.362   5.039   3.594  0.7893 -0.4382  0.2596
  238THF     C3 4524   4.550   5.005   3.713 -0.2897  0.3837 -0.6255
  238THF     H4 4525   4.353   5.071   3.490 -1.7844 -0.5115  0.4025
  238THF     H5 4526   4.274   5.080   3.644  0.1170  0.4939 -1.6059
  238THF     H6 4527   4.654   5.039   3.709  0.1435 -0.6253  1.2721
  238THF     H7 4528   4.537   4.989   3.820  2.1911  2.9822  0.2025
  238THF     C8 4529   4.523   4.877   3.633 -0.9220  0.5240 -0.3534
  238THF     C9 4530   4.379   4.891   3.608 -0.0058  0.5784 -0.3113
  238THF    H10 4531   4.543   4.784   3.686 -2.0695  1.1985  1.3585
  238THF    H11 4532   4.572   4.889   3.537 -0.5096  0.2948 -0.1755
  238THF    H12 4533   4.337   4.841   3.521 -0.3049 -0.7556  0.5649
  238THF    H13 4534   4.318   4.867   3.695  0.6531  1.5894  0.4479
  239THF     O1 4535   3.174   2.097   0.530 -0.5297 -0.5409 -0.7812
  239THF     C2 4536   3.102   2.012   0.455 -0.5753  0.8417 -0.3658
  239THF     C3 4537   3.096   2.149   0.634  0.3897  0.1457 -0.7738
  239THF     H4 4538   3.174   1.941   0.414 -0.6772  0.1753  0.5980
  239THF     H5 4539   3.038   2.052   0.376 -2.2555 -1.6491 -0.3793
  239THF     H6 4540   3.151   2.179   0.724 -1.5033  0.8825  0.2039
  239THF     H7 4541   3.034   2.226   0.588  0.5483 -0.0552 -1.3309
  239THF     C8 4542   3.003   2.033   0.673 -0.2503  0.2985 -0.2923
  239THF     C9 4543   3.013   1.935   0.551 -0.1776  0.2152  0.1047
  239THF    H10 4544   2.900   2.066   0.684 -0.4425 -0.4867  0.3468
  239THF    H11 4545   3.030   1.987   0.768 -1.2943 -0.7904 -0.5040
  239THF    H12 4546   3.070   1.849   0.588  2.1005  2.0030  0.9893
  239THF    H13 4547   2.918   1.899   0.511  0.6056 -0.6974 -1.0007
  240THF     O1 4548   3.010   2.524   4.806 -0.1687  0.2847  0.0470
  240THF     C2 4549   3.038   2.600   4.924  0.5784  0.1279  0.2048
  240THF     C3 4550   2.915   2.436   4.838  0.9376  0.0161 -0.3189
  240THF     H4 4551   3.091   2.695   4.918  0.6692  0.2710  2.4239
  240THF     H5 4552   3.090   2.541   4.999  3.1900  1.8639 -0.1000
  240THF     H6 4553   2.868   2.397   4.748 -1.2720  1.4664  0.1383
  240THF     H7 4554   2.954   2.352   4.897 -1.3997 -0.5014  0.6235
  240THF     C8 4555   2.812   2.522   4.915  0.8685  0.4631  0.2530
  240THF     C9 4556   2.895   2.639   4.969  0.7938  0.2469 -0.0333
  240THF    H10 4557   2.754   2.474   4.993 -0.4632  0.9476 -0.4022
  240THF    H11 4558   2.744   2.567   4.843 -1.8652  0.2131  2.5344
  240THF    H12 4559   2.876   2.728   4.910 -0.6024 -0.2653 -0.4050
  240THF    H13 4560   2.877   2.657   5.075  2.0983  0.0597  0.2374
  241THF     O1 4561   0.215   5.381   5.080  0.0998  0.0432 -0.5181
  241THF     C2 4562   0.265   5.259   5.128  1.1385 -0.9421  0.4233
  241THF     C3 4563   0.301   5.446   4.984  0.7931  0.0348 -0.3082
  241THF     H4 4564   0.195   5.178   5.108 -0.5590  0.6700 -0.5476
  241THF     H5 4565   0.274   5.260   5.237  0.3366  0.9023  0.5187
  241THF     H6 4566   0.259   5.419   4.887  0.1011  0.1565 -0.0477
  241THF     H7 4567   0.293   5.554   5.001 -0.0399  0.2455 -1.8525
  241THF     C8 4568   0.435   5.382   5.023 -0.2826 -0.3227 -0.2464
  241THF     C9 4569   0.398   5.237   5.059 -0.8267 -0.4115 -0.1001
  241THF    H10 4570   0.474   5.427   5.114 -1.7118  0.7167 -0.1142
  241THF    H11 4571   0.515   5.379   4.949  0.4516 -0.8891  0.5549
  241THF    H12 4572   0.378   5.176   4.971  1.1127 -0.1566 -0.7704
  241THF    H13 4573   0.464   5.184   5.128 -0.9921 -0.4638  0.0175
  242THF     O1 4574   0.310   4.225   0.362 -0.4388  0.1524 -0.6384
  242THF     C2 4575   0.245   4.224   0.234 -0.8403  0.2394 -0.1271
  242THF     C3 4576   0.209   4.288   0.449 -0.0079 -0.4304  0.3651
  242THF     H4 4577   0.268   4.143   0.165 -1.1475 -0.3135  0.4082
  242THF     H5 4578   0.273   4.309   0.172 -1.5788  0.6002  0.0195
  242THF     H6 4579   0.214   4.269   0.556 -1.4288 -1.1548  0.3289
  242THF     H7 4580   0.220   4.396   0.439  2.9430 -0.6865  0.0742
  242THF     C8 4581   0.077   4.223   0.399  0.1176  0.5427 -0.3427
  242THF     C9 4582   0.094   4.231   0.251 -0.4346 -0.7641  0.3835
  242THF    H10 4583  -0.010   4.260   0.454 -0.3145 -0.3545 -0.4019
  242THF    H11 4584   0.081   4.116   0.415  0.7121  0.7590  1.0479
  242THF    H12 4585   0.045   4.146   0.204  2.3490 -3.0461  1.2922
  242THF    H13 4586   0.066   4.323   0.199  0.1096 -1.9345 -2.1660
  243THF     O1 4587   0.658   0.081   1.653 -0.0490  0.1505 -0.0921
  243THF     C2 4588   0.554   0.108   1.752 -0.2999 -0.3678  0.7000
  243THF     C3 4589   0.596   0.064   1.526  0.8670  0.1733  0.5521
  243THF     H4 4590   0.593   0.163   1.838 -0.1180 -0.7373  0.8553
  243THF     H5 4591   0.516   0.014   1.791 -1.3064  0.5229  1.9823
  243THF     H6 4592   0.652   0.108   1.444 -0.7244 -1.6069 -1.6136
  243THF     H7 4593   0.589  -0.043   1.507  0.1664 -0.1097  2.1972
  243THF     C8 4594   0.456   0.116   1.540 -0.3007  0.5485  0.1192
  243THF     C9 4595   0.456   0.184   1.670  0.6828 -0.2506  0.0662
  243THF    H10 4596   0.388   0.032   1.527  0.2551  0.4143 -2.3475
  243THF    H11 4597   0.419   0.177   1.457  0.9131  1.2520  0.0685
  243THF    H12 4598   0.499   0.282   1.650  0.0997 -0.0989 -0.4925
  243THF    H13 4599   0.352   0.207   1.691  0.6371  4.4289 -3.5423
  244THF     O1 4600   4.539   1.915   0.655  0.0455  0.4245  0.1959
  244THF     C2 4601   4.501   1.914   0.521  0.1789 -0.3113 -0.2567
  244THF     C3 4602   4.421   1.926   0.739 -0.7560 -0.0921  0.4262
  244THF     H4 4603   4.544   1.832   0.463 -0.3322  0.2613 -1.4737
  244THF     H5 4604   4.533   2.004   0.468  1.6815  0.1896  1.3966
  244THF     H6 4605   4.394   1.834   0.790 -3.1663  1.0136  1.3040
  244THF     H7 4606   4.452   1.984   0.826 -1.3602 -0.6573  1.0385
  244THF     C8 4607   4.302   1.971   0.656  0.6066  0.2812  0.8319
  244THF     C9 4608   4.346   1.910   0.520  0.1459  0.2305 -0.0946
  244THF    H10 4609   4.285   2.078   0.645 -1.3615  0.0065  0.8559
  244THF    H11 4610   4.212   1.917   0.687  0.2812 -1.7656 -3.0116
  244THF    H12 4611   4.313   1.807   0.513 -1.0988  0.6613 -0.9317
  244THF    H13 4612   4.286   1.949   0.437 -0.4557 -2.5466 -1.0638
  245THF     O1 4613   1.812   1.769   3.385  0.0822  0.6285 -0.3238
  245THF     C2 4614   1.799   1.750   3.245  0.3431  0.3535  0.3119
  245THF     C3 4615   1.951   1.780   3.412  0.1710 -0.2361  0.3286
  245THF     H4 4616   1.816   1.846   3.196  0.7010  0.7134  1.1218
  245THF     H5 4617   1.699   1.711   3.227 -0.0142 -0.1256  2.9166
  245THF     H6 4618   1.977   1.886   3.414  2.6478 -0.7928  0.9173
  245THF     H7 4619   1.974   1.734   3.508 -1.5660 -0.3602  0.7193
  245THF     C8 4620   2.019   1.708   3.294 -0.0869 -0.1100  1.0440
  245THF     C9 4621   1.911   1.655   3.210  0.3112  0.0287 -0.3117
  245THF    H10 4622   2.094   1.638   3.334  0.1224  0.4859  1.7170
  245THF    H11 4623   2.072   1.789   3.244 -1.4973  0.7508  0.9025
  245THF    H12 4624   1.947   1.659   3.107  0.0598  0.0369 -0.3993
  245THF    H13 4625   1.889   1.554   3.246  0.2961  0.6681  1.5750
  246THF     O1 4626   4.932   5.176   3.341  0.3610 -0.5164 -1.0297
  246THF     C2 4627   4.836   5.108   3.407 -0.0294  0.4491  0.3565
  246THF     C3 4628   4.866   5.274   3.263 -0.4234 -0.2311  0.0529
  246THF     H4 4629   4.875   5.067   3.499 -0.1826  1.8343  1.0662
  246THF     H5 4630   4.792   5.034   3.340  2.2685  1.2614 -2.2253
  246THF     H6 4631   4.945   5.346   3.243  1.9772 -2.7269 -0.1217
  246THF     H7 4632   4.818   5.236   3.173  0.3554  0.1682 -0.5335
  246THF     C8 4633   4.761   5.323   3.363 -0.4312  0.1575 -0.4596
  246THF     C9 4634   4.741   5.210   3.461 -0.2298  0.6189 -0.5609
  246THF    H10 4635   4.669   5.346   3.309 -0.0815  1.0240 -0.6924
  246THF    H11 4636   4.800   5.412   3.411  2.1170  0.0920 -2.1771
  246THF    H12 4637   4.757   5.251   3.561 -1.5327  0.8980 -0.4551
  246THF    H13 4638   4.643   5.163   3.468  1.1267 -2.2290  1.4983
  247THF     O1 4639   0.910   1.906   1.857  0.0998 -0.1531 -0.4356
  247THF     C2 4640   0.868   1.852   1.984  0.0455 -0.3872 -0.5909
  247THF     C3 4641   0.942   2.043   1.878 -0.6270 -0.6808  0.3339
  247THF     H4 4642   0.865   1.743   1.991  0.5356 -0.3684 -0.0487
  247THF     H5 4643   0.769   1.891   2.008 -0.5388 -3.3971  2.7302
  247THF     H6 4644   1.009   2.080   1.800 -1.4585  1.2116  0.4556
  247THF     H7 4645   0.860   2.115   1.866 -0.5580 -0.4888  0.9580
  247THF     C8 4646   0.999   2.057   2.020 -0.0508 -0.0155  0.3251
  247THF     C9 4647   0.971   1.915   2.077 -0.1168 -0.0718 -0.0873
  247THF    H10 4648   0.947   2.139   2.071  2.2072  1.5131  0.3322
  247THF    H11 4649   1.105   2.082   2.016 -0.3602  1.3219 -2.7920
  247THF    H12 4650   1.063   1.856   2.084  0.5293  1.0048  1.2768
  247THF    H13 4651   0.940   1.912   2.182 -1.1916  0.2641 -0.3859
  248THF     O1 4652   4.686   2.139   2.618 -1.0179 -0.5616 -0.0210
  248THF     C2 4653   4.563   2.067   2.598 -0.9399  0.2595  0.1825
  248THF     C3 4654   4.729   2.185   2.491 -0.4613  0.5809 -0.3085
  248THF     H4 4655   4.506   2.054   2.690 -1.6167  0.9528 -0.1277
  248THF     H5 4656   4.587   1.970   2.555 -0.5934  0.6036 -0.4179
  248THF     H6 4657   4.794   2.272   2.506  0.3936 -0.2587  1.1280
  248THF     H7 4658   4.786   2.095   2.471 -0.3964  0.2508  1.2386
  248THF     C8 4659   4.610   2.191   2.397  0.0398 -0.2637  0.6352
  248THF     C9 4660   4.498   2.143   2.489 -0.1504 -0.5906  0.0808
  248THF    H10 4661   4.631   2.136   2.305  2.5833 -0.1405  1.0876
  248THF    H11 4662   4.598   2.294   2.365 -2.4734 -0.8790 -0.6749
  248THF    H12 4663   4.456   2.230   2.539  3.5644  1.3177  0.2807
  248THF    H13 4664   4.426   2.088   2.428 -1.5361  2.5222 -1.3367
  249THF     O1 4665   5.500   0.466   1.326  0.2147 -0.1041  0.4455
  249THF     C2 4666   5.627   0.521   1.295  0.3562 -0.3377 -0.2929
  249THF     C3 4667   5.449   0.415   1.197 -0.0154 -1.3631  0.0290
  249THF     H4 4668   5.680   0.535   1.389  0.0968 -1.2849  0.0106
  249THF     H5 4669   5.613   0.622   1.257 -1.8164 -0.6769 -0.5301
  249THF     H6 4670   5.372   0.337   1.199 -0.4872 -0.9108 -0.2778
  249THF     H7 4671   5.408   0.498   1.139 -2.2952 -1.2704  1.6404
  249THF     C8 4672   5.577   0.340   1.140 -0.1532  0.0230  0.3486
  249THF     C9 4673   5.693   0.434   1.189  0.2970 -0.4660 -0.1435
  249THF    H10 4674   5.578   0.347   1.031  0.5656  1.3280  0.4312
  249THF    H11 4675   5.589   0.238   1.177  0.4252  0.7161  2.1852
  249THF    H12 4676   5.778   0.381   1.233 -0.7069  0.0204  2.5857
  249THF    H13 4677   5.716   0.506   1.111 -1.9834  0.5705  0.0453
  250THF     O1 4678   2.830   4.751   1.369 -0.5224 -0.1844  0.6888
  250THF     C2 4679   2.696   4.802   1.360  0.1358 -0.6239  0.0169
  250THF     C3 4680   2.893   4.807   1.257  0.1320  0.5785  0.2635
  250THF     H4 4681   2.695   4.903   1.401  0.6873 -0.1509 -1.0715
  250THF     H5 4682   2.637   4.731   1.418 -1.0237  0.6221  0.4010
  250THF     H6 4683   2.896   4.915   1.270 -0.2154  0.4170  1.9497
  250THF     H7 4684   2.992   4.763   1.248 -0.6236 -1.6550  1.9288
  250THF     C8 4685   2.791   4.776   1.144 -1.3262  0.6718  0.4541
  250THF     C9 4686   2.657   4.804   1.214 -0.6575 -0.6854  0.6111
  250THF    H10 4687   2.805   4.673   1.113  1.8436  1.0192  0.4224
  250THF    H11 4688   2.818   4.840   1.060 -2.0509 -0.7441 -0.9161
  250THF    H12 4689   2.623   4.896   1.167  1.7017 -0.0211  0.0787
  250THF    H13 4690   2.594   4.723   1.179  0.9326 -1.1621 -1.2975
  251THF     O1 4691   4.638   0.956   4.170  0.0035  0.0988  0.2012
  251THF     C2 4692   4.533   0.967   4.082  0.7511  0.4134 -0.5695
  251THF     C3 4693   4.724   1.068   4.147  0.7510  0.2625  0.1077
  251THF     H4 4694   4.464   1.043   4.121  0.2063 -0.8404  0.9926
  251THF     H5 4695   4.485   0.871   4.067  2.0090 -0.7076  1.9867
  251THF     H6 4696   4.683   1.154   4.200  0.2603  0.3172 -0.3467
  251THF     H7 4697   4.825   1.052   4.185  0.6704  0.0670  0.2445
  251THF     C8 4698   4.722   1.091   3.999  0.1076  1.2874 -0.0554
  251THF     C9 4699   4.595   1.012   3.952  0.1492  0.8850  0.3429
  251THF    H10 4700   4.816   1.069   3.948  0.8635  0.9031  1.4377
  251THF    H11 4701   4.698   1.192   3.967 -3.5312  0.2712 -1.0314
  251THF    H12 4702   4.525   1.078   3.900 -0.7354 -0.1917  0.1284
  251THF    H13 4703   4.628   0.922   3.900 -1.6499 -0.0629  0.7636
  252THF     O1 4704   4.120   4.545   1.282 -0.1879 -0.1298  0.2287
  252THF     C2 4705   3.981   4.540   1.322  0.1106 -0.3231  0.2376
  252THF     C3 4706   4.134   4.433   1.196  0.4370 -1.0863 -0.7416
  252THF     H4 4707   3.941   4.638   1.347  0.8210  0.7283 -2.3836
  252THF     H5 4708   3.972   4.488   1.418 -2.6696  0.1123  0.2936
  252THF     H6 4709   4.220   4.436   1.129  0.5972 -1.4011 -0.5517
  252THF     H7 4710   4.142   4.349   1.264 -0.7292  1.4747  2.8888
  252THF     C8 4711   4.013   4.435   1.120 -0.1165 -0.4908 -0.0532
  252THF     C9 4712   3.901   4.483   1.212  0.2639  0.2671  0.0405
  252THF    H10 4713   3.988   4.334   1.086  0.6368 -0.3040 -1.2003
  252THF    H11 4714   4.013   4.496   1.030 -1.9162  1.3982  1.1373
  252THF    H12 4715   3.830   4.545   1.157  1.8145  1.8583 -0.2254
  252THF    H13 4716   3.839   4.397   1.241 -1.8551  1.7033  0.0108
  253THF     O1 4717   4.801   0.030   2.197  0.1686 -0.3071 -0.1725
  253THF     C2 4718   4.702   0.048   2.295 -0.0351  0.4418 -0.5614
  253THF     C3 4719   4.841  -0.108   2.202  0.4820  0.5209 -0.0946
  253THF     H4 4720   4.625   0.120   2.268 -1.8496 -1.6987 -1.3830
  253THF     H5 4721   4.747   0.070   2.392 -0.2572  0.4207 -0.4522
  253THF     H6 4722   4.847  -0.175   2.115  1.6180 -1.2825  1.2980
  253THF     H7 4723   4.937  -0.113   2.254 -0.4999 -0.0285  1.7630
  253THF     C8 4724   4.746  -0.179   2.303  0.3790  0.2213  0.1204
  253THF     C9 4725   4.630  -0.085   2.308 -0.5387 -0.1342  0.6484
  253THF    H10 4726   4.794  -0.181   2.401 -1.1562 -2.8233  0.9141
  253THF    H11 4727   4.719  -0.282   2.283  0.7936  0.2905 -0.8805
  253THF    H12 4728   4.566  -0.101   2.221  0.8907  0.2184 -0.5093
  253THF    H13 4729   4.569  -0.092   2.398 -1.6878 -1.8284 -0.2135
  254THF     O1 4730   0.649   3.315   0.954 -0.5826 -0.4832  0.1315
  254THF     C2 4731   0.510   3.288   0.949 -0.7307  1.1630  0.1938
  254THF     C3 4732   0.712   3.316   0.826  0.2506  0.5290 -0.2992
  254THF     H4 4733   0.459   3.357   1.016  1.0793  0.8171  2.0097
  254THF     H5 4734   0.501   3.190   0.995 -0.0925  1.6669  1.4047
  254THF     H6 4735   0.805   3.370   0.811 -0.2490  1.4915 -0.0179
  254THF     H7 4736   0.734   3.213   0.799 -1.8821  0.2027 -0.9490
  254THF     C8 4737   0.598   3.371   0.742 -0.1607  0.0175  0.2690
  254THF     C9 4738   0.480   3.289   0.794  0.1368  0.0632  0.4276
  254THF    H10 4739   0.609   3.356   0.635 -5.9419 -1.2077 -0.4697
  254THF    H11 4740   0.570   3.475   0.759 -1.2724 -0.2472  0.1377
  254THF    H12 4741   0.383   3.333   0.773 -0.1630 -1.1591 -0.9933
  254THF    H13 4742   0.479   3.182   0.770  2.2204 -0.6257  2.9174
  255THF     O1 4743   2.992   4.602   2.722 -0.2740 -0.4271 -0.3120
  255THF     C2 4744   3.118   4.540   2.711 -0.2377 -0.1007  0.0281
  255THF     C3 4745   2.994   4.743   2.687 -0.3323  0.2569  1.0865
  255THF     H4 4746   3.092   4.434   2.708 -1.0153  0.0783  0.1187
  255THF     H5 4747   3.185   4.556   2.795 -0.4408 -0.7618  0.3219
  255THF     H6 4748   2.905   4.782   2.638 -0.8953 -0.5348  1.4482
  255THF     H7 4749   3.004   4.813   2.771  1.6782 -0.3656  1.4164
  255THF     C8 4750   3.114   4.749   2.587  0.2939 -0.2252  0.6108
  255THF     C9 4751   3.179   4.608   2.589 -0.0011 -0.7494  0.5778
  255THF    H10 4752   3.178   4.831   2.622  0.0344 -0.0145  0.5968
  255THF    H11 4753   3.076   4.775   2.489 -2.9303 -1.0785  1.5300
  255THF    H12 4754   3.156   4.554   2.497 -1.0535  0.4675  0.1069
  255THF    H13 4755   3.288   4.610   2.595  0.0950  0.6834 -0.9470
  256THF     O1 4756   0.488   4.390   3.593  0.2115  0.2285  0.0259
  256THF     C2 4757   0.403   4.496   3.609 -0.0377 -0.7450  0.3727
  256THF     C3 4758   0.453   4.319   3.479  0.0751  0.2315  0.4285
  256THF     H4 4759   0.461   4.588   3.615 -0.5434 -0.3612 -0.4131
  256THF     H5 4760   0.343   4.471   3.697  0.9604  1.1861  1.6844
  256THF     H6 4761   0.546   4.284   3.435 -0.8624 -1.0008 -0.6179
  256THF     H7 4762   0.380   4.243   3.507  0.1075 -1.1960 -2.9119
  256THF     C8 4763   0.389   4.420   3.385  0.2439  0.4915  0.4482
  256THF     C9 4764   0.316   4.508   3.484  0.2282  0.0697 -0.3372
  256THF    H10 4765   0.322   4.362   3.320  0.3289 -1.4997  2.0466
  256THF    H11 4766   0.454   4.480   3.322 -1.3627  0.6857 -1.1121
  256THF    H12 4767   0.307   4.611   3.452 -0.5087  0.0305 -0.2760
  256THF    H13 4768   0.220   4.462   3.507 -0.7618  2.1954 -0.0089
  257THF     O1 4769   0.646   5.004   3.034 -0.5494  0.7250  0.2757
  257THF     C2 4770   0.598   5.124   3.106 -0.1069  0.8862  0.1504
  257THF     C3 4771   0.650   5.046   2.900 -0.0814  0.5352 -0.2913
  257THF     H4 4772   0.615   5.113   3.213 -0.1169  0.9367  0.1572
  257THF     H5 4773   0.492   5.144   3.088 -0.5525 -1.2930  0.0485
  257THF     H6 4774   0.689   4.971   2.832 -0.0339  1.0420 -0.8337
  257THF     H7 4775   0.549   5.061   2.863  0.5533 -0.6847 -2.6475
  257THF     C8 4776   0.728   5.174   2.915  0.0215 -0.1375 -0.3521
  257THF     C9 4777   0.680   5.230   3.049 -0.3364 -0.4961 -0.2783
  257THF    H10 4778   0.708   5.226   2.821  1.6425  1.6889  0.2575
  257THF    H11 4779   0.837   5.168   2.920  0.1445  0.0317 -2.0843
  257THF    H12 4780   0.768   5.258   3.107  0.1808  0.3876 -1.4457
  257THF    H13 4781   0.620   5.321   3.041 -0.2385 -0.4222 -0.1643
  258THF     O1 4782   0.589   3.767   3.639 -0.8055 -0.2975  0.0089
  258THF     C2 4783   0.598   3.662   3.536 -0.1213  0.1228  0.1255
  258THF     C3 4784   0.639   3.892   3.590 -0.0479 -0.0890 -0.2977
  258THF     H4 4785   0.494   3.636   3.518 -0.3738  2.3233 -2.1753
  258THF     H5 4786   0.657   3.578   3.573  0.8308  0.9812  0.6384
  258THF     H6 4787   0.551   3.941   3.549 -0.6348 -0.1861  0.8127
  258THF     H7 4788   0.683   3.948   3.672 -0.3549 -2.8385  1.8654
  258THF     C8 4789   0.733   3.849   3.488 -0.2424  0.4017  0.4241
  258THF     C9 4790   0.656   3.739   3.414  0.4615 -0.2504  0.2919
  258THF    H10 4791   0.824   3.813   3.535 -0.6971 -0.8508  0.3940
  258THF    H11 4792   0.770   3.929   3.424 -0.2529  0.9079  1.0329
  258THF    H12 4793   0.583   3.777   3.342  2.7236  2.6396 -0.6683
  258THF    H13 4794   0.724   3.680   3.352 -0.1341 -0.1479 -0.4796
  259THF     O1 4795   4.803   4.723   2.538  0.0154  0.6328 -0.5600
  259THF     C2 4796   4.929   4.720   2.604  0.3233 -0.7769 -0.5313
  259THF     C3 4797   4.752   4.592   2.560 -0.2310 -0.5065  0.4900
  259THF     H4 4798   4.950   4.825   2.624  0.2554 -0.8192 -0.2346
  259THF     H5 4799   5.014   4.684   2.546 -0.8564 -2.2141 -1.4198
  259THF     H6 4800   4.645   4.584   2.547 -0.4578 -1.1167  2.3586
  259THF     H7 4801   4.805   4.517   2.500  0.4406  2.2456 -2.6094
  259THF     C8 4802   4.783   4.561   2.709 -0.5717 -0.3112  0.5639
  259THF     C9 4803   4.903   4.636   2.730 -0.0920 -0.0816  0.5367
  259THF    H10 4804   4.806   4.456   2.726  0.8809 -0.4051 -1.4980
  259THF    H11 4805   4.707   4.600   2.776 -0.4617  0.2670  0.3555
  259THF    H12 4806   4.884   4.695   2.819 -0.4585  3.4431 -1.7009
  259THF    H13 4807   4.991   4.575   2.750  1.3865  1.2941 -1.2937
  260THF     O1 4808   2.073   2.312   2.938 -0.3027 -0.2826  0.3649
  260THF     C2 4809   2.188   2.344   2.860 -0.0439  0.2707 -0.0170
  260THF     C3 4810   1.969   2.297   2.847 -1.0775  1.0514 -0.0046
  260THF     H4 4811   2.251   2.257   2.840  3.2397  2.3929  0.3638
  260THF     H5 4812   2.245   2.405   2.929  0.8806 -1.1268  0.5120
  260THF     H6 4813   1.972   2.198   2.801 -0.2322  1.3697 -0.6510
  260THF     H7 4814   1.871   2.295   2.896 -1.0828 -3.2545  0.1870
  260THF     C8 4815   1.993   2.409   2.746 -0.2236  0.0780 -0.4009
  260THF     C9 4816   2.145   2.412   2.727  0.1307 -0.4684 -0.2292
  260THF    H10 4817   1.958   2.505   2.782  0.9266  1.0638 -1.7939
  260THF    H11 4818   1.941   2.385   2.653 -0.1674 -2.5835  0.1603
  260THF    H12 4819   2.179   2.361   2.637 -2.9174  1.4529 -2.6653
  260THF    H13 4820   2.183   2.514   2.724 -0.3042 -0.2626  0.7338
  261THF     O1 4821   4.032   3.002   1.576 -0.4095 -0.1016  0.1507
  261THF     C2 4822   4.033   2.868   1.631 -0.5266  0.2539 -0.6617
  261THF     C3 4823   4.132   2.993   1.474  0.1192 -0.3191  0.5025
  261THF     H4 4824   3.959   2.806   1.581 -1.5689 -0.0272  1.1507
  261THF     H5 4825   3.992   2.882   1.731 -3.2825 -0.0193 -1.6598
  261THF     H6 4826   4.087   2.957   1.381  0.4801  1.6354 -0.4866
  261THF     H7 4827   4.179   3.089   1.451  0.2816 -0.7516 -1.1424
  261THF     C8 4828   4.241   2.896   1.519 -0.7370  0.2310 -0.0404
  261THF     C9 4829   4.168   2.797   1.611  0.7511  0.4378  0.3581
  261THF    H10 4830   4.307   2.950   1.587 -0.0582 -0.5388 -0.0806
  261THF    H11 4831   4.298   2.857   1.435  1.4890 -0.1937  1.5795
  261THF    H12 4832   4.160   2.696   1.571 -2.5848 -0.0770  1.9634
  261THF    H13 4833   4.226   2.783   1.702 -1.1702 -0.1763  1.5614
  262THF     O1 4834   2.758   0.620   5.022 -0.3141 -0.0332  0.1949
  262THF     C2 4835   2.654   0.630   5.115 -0.4519 -0.0225  0.8636
  262THF     C3 4836   2.719   0.510   4.936 -0.8076 -0.2220 -0.0973
  262THF     H4 4837   2.661   0.729   5.158 -0.8806 -0.5341  2.1656
  262THF     H5 4838   2.659   0.557   5.196 -2.4288 -1.1696  0.0269
  262THF     H6 4839   2.763   0.539   4.840  0.1704  0.3998  0.5159
  262THF     H7 4840   2.768   0.419   4.971 -1.7728 -0.6385  0.1769
  262THF     C8 4841   2.564   0.500   4.936  0.2825  0.4906  0.1265
  262THF     C9 4842   2.527   0.604   5.044 -0.0985 -0.7176 -1.1776
  262THF    H10 4843   2.548   0.401   4.977  1.1977  0.3210  0.1005
  262THF    H11 4844   2.504   0.506   4.846 -0.8616 -0.7860  0.7620
  262THF    H12 4845   2.485   0.695   5.001 -0.7249 -2.0737 -3.5801
  262THF    H13 4846   2.456   0.573   5.122  0.5205 -0.3025 -0.4390
  263THF     O1 4847   5.339   1.280   2.391  0.0287 -0.3822  0.1293
  263THF     C2 4848   5.310   1.138   2.400  0.1851  0.1052 -0.1758
  263THF     C3 4849   5.480   1.285   2.384  0.5534 -0.0461 -0.1140
  263THF     H4 4850   5.330   1.088   2.305  0.3121 -0.5205  0.1718
  263THF     H5 4851   5.209   1.124   2.440 -0.3180 -0.9672 -1.7061
  263THF     H6 4852   5.528   1.286   2.286  1.9799  1.7311  0.5288
  263THF     H7 4853   5.511   1.383   2.420  1.7652 -1.1454  2.0210
  263THF     C8 4854   5.534   1.162   2.453 -0.6768  0.4199 -0.5922
  263THF     C9 4855   5.416   1.090   2.494  0.5262 -0.2434 -0.1470
  263THF    H10 4856   5.594   1.190   2.540 -0.6668 -0.9492 -0.1359
  263THF    H11 4857   5.583   1.106   2.374 -0.0585 -0.3464  0.3016
  263THF    H12 4858   5.432   0.984   2.478  0.7939  0.1614 -3.2106
  263THF    H13 4859   5.396   1.106   2.600 -0.3550  0.7465 -0.4383
  264THF     O1 4860   5.063   5.372   5.357 -0.2799 -0.0776 -0.3528
  264THF     C2 4861   5.044   5.232   5.329  0.1533  0.4606 -0.4767
  264THF     C3 4862   5.077   5.434   5.227 -0.0413 -0.0312 -0.6946
  264THF     H4 4863   5.010   5.177   5.416 -0.3667 -0.7752 -1.4431
  264THF     H5 4864   5.148   5.201   5.314  0.0675 -0.5960  0.9428
  264THF     H6 4865   5.078   5.543   5.238  2.1440 -0.0963  0.2417
  264THF     H7 4866   5.167   5.404   5.174  2.2200  0.8199  2.4049
  264THF     C8 4867   4.963   5.368   5.150 -0.1761 -0.5456  0.1369
  264THF     C9 4868   4.948   5.229   5.207  0.6054  0.8646 -0.6405
  264THF    H10 4869   4.972   5.360   5.041 -2.7375  0.6147 -0.2267
  264THF    H11 4870   4.873   5.426   5.169  0.8369  1.2343 -0.3039
  264THF    H12 4871   4.846   5.218   5.245  0.6706  0.2021 -0.6589
  264THF    H13 4872   4.954   5.151   5.132  1.3741  1.1678 -0.8980
  265THF     O1 4873   0.984   3.287   4.137  0.4349  0.0504 -0.9830
  265THF     C2 4874   1.091   3.216   4.181 -0.6578  0.0996 -0.1105
  265THF     C3 4875   1.031   3.395   4.062 -0.3331 -0.0957  0.4484
  265THF     H4 4876   1.071   3.111   4.206  1.5192 -0.2920  0.2087
  265THF     H5 4877   1.129   3.268   4.269 -2.9882  1.2342  0.2928
  265THF     H6 4878   0.949   3.432   4.001  0.0645 -0.5359 -0.3594
  265THF     H7 4879   1.078   3.471   4.124 -0.4804 -0.3942  0.9336
  265THF     C8 4880   1.137   3.325   3.976  0.4894 -0.2816  0.1727
  265THF     C9 4881   1.190   3.211   4.057  0.4409 -0.7445  0.4089
  265THF    H10 4882   1.218   3.391   3.947 -0.4583  0.0664 -1.9151
  265THF    H11 4883   1.103   3.284   3.881  0.3244 -1.3373  0.6680
  265THF    H12 4884   1.178   3.121   3.997 -0.3454  0.0795 -0.7257
  265THF    H13 4885   1.288   3.223   4.103 -0.6057 -0.0477  2.6165
  266THF     O1 4886   0.310   3.745   4.484 -0.0479 -0.1620 -0.6677
  266THF     C2 4887   0.292   3.725   4.339  0.0654  0.0530 -0.3465
  266THF     C3 4888   0.293   3.887   4.512  0.3158  0.1396  0.4679
  266THF     H4 4889   0.196   3.719   4.288  0.1034 -0.1789 -0.3938
  266THF     H5 4890   0.339   3.628   4.319 -1.1000 -0.9458  1.4402
  266THF     H6 4891   0.187   3.905   4.495 -0.2571 -3.0692 -0.0262
  266THF     H7 4892   0.345   3.912   4.604 -0.7400 -0.3221  1.2090
  266THF     C8 4893   0.363   3.951   4.380  0.6915 -0.2498 -0.4105
  266THF     C9 4894   0.369   3.839   4.273 -0.6540  0.2025 -0.5355
  266THF    H10 4895   0.459   3.988   4.417  0.4147  0.4364 -0.3541
  266THF    H11 4896   0.314   4.044   4.348  1.2305 -0.3499 -1.6000
  266THF    H12 4897   0.324   3.884   4.184  1.3850  1.8070 -0.8256
  266THF    H13 4898   0.471   3.812   4.245 -1.4529 -4.2663  0.1401
  267THF     O1 4899   3.189   1.903   5.372 -0.2057  0.2311  0.7261
  267THF     C2 4900   3.218   1.990   5.476 -0.5618  1.1139  0.6535
  267THF     C3 4901   3.050   1.907   5.350  0.0160  0.2480  0.7245
  267THF     H4 4902   3.222   2.090   5.433  3.9682  0.8550 -0.0369
  267THF     H5 4903   3.322   1.974   5.505 -0.0147  2.0573 -0.6734
  267THF     H6 4904   3.026   1.975   5.268  0.8780 -0.0727  0.1783
  267THF     H7 4905   3.024   1.806   5.319 -2.7740  0.8857  0.7110
  267THF     C8 4906   2.986   1.927   5.488 -0.5533  0.1814  0.4948
  267THF     C9 4907   3.105   1.974   5.571 -0.7630 -0.5256  0.2624
  267THF    H10 4908   2.950   1.830   5.521 -0.3020 -0.5203 -1.1952
  267THF    H11 4909   2.900   1.994   5.493 -2.3046 -1.9082 -0.2298
  267THF    H12 4910   3.079   2.062   5.629  0.8979  0.6529 -0.7104
  267THF    H13 4911   3.129   1.901   5.648  2.0855  1.5582  1.4967
  268THF     O1 4912   1.825   1.523   4.495 -0.0152  0.3354  0.2459
  268THF     C2 4913   1.690   1.562   4.467  0.0543  0.2262 -0.1993
  268THF     C3 4914   1.921   1.589   4.413 -0.3289 -0.1784 -0.4472
  268THF     H4 4915   1.623   1.530   4.546 -0.7847  4.0166  0.7991
  268THF     H5 4916   1.648   1.517   4.377  0.5252 -0.6987  0.0335
  268THF     H6 4917   2.011   1.607   4.473  0.1330  1.0522 -1.4603
  268THF     H7 4918   1.948   1.558   4.312 -1.8647  0.6927 -1.1469
  268THF     C8 4919   1.854   1.718   4.400  0.6601 -0.6854 -0.2346
  268THF     C9 4920   1.715   1.706   4.457 -0.3726 -0.4390  0.2110
  268THF    H10 4921   1.855   1.768   4.304 -2.2366 -0.8720 -0.4406
  268THF    H11 4922   1.901   1.792   4.465 -2.0007 -0.4211  1.5596
  268THF    H12 4923   1.715   1.746   4.558  0.2792 -1.7916  0.7686
  268THF    H13 4924   1.645   1.755   4.389 -0.5171 -0.6319  0.2200
  269THF     O1 4925   0.177   0.029   4.635 -0.1155  0.2358 -0.1145
  269THF     C2 4926   0.178   0.163   4.691 -0.0279  0.7247 -0.0380
  269THF     C3 4927   0.046   0.010   4.591  0.0394  0.3373  0.5859
  269THF     H4 4928   0.270   0.208   4.654  0.9477 -1.5705 -0.6277
  269THF     H5 4929   0.185   0.156   4.800  0.7352 -1.3165 -0.1613
  269THF     H6 4930   0.048  -0.059   4.506 -0.2683  0.4330  0.4988
  269THF     H7 4931  -0.013  -0.047   4.663 -0.6219 -0.4498 -0.5342
  269THF     C8 4932  -0.010   0.148   4.542 -0.3883  0.4323 -0.1252
  269THF     C9 4933   0.053   0.234   4.646 -0.0507 -0.1673  0.2030
  269THF    H10 4934  -0.119   0.152   4.540 -0.3640  1.4218  0.2682
  269THF    H11 4935   0.027   0.162   4.440 -1.0645  0.4154 -0.3800
  269THF    H12 4936   0.070   0.331   4.599  0.6952  0.1858  1.1568
  269THF    H13 4937  -0.013   0.242   4.731  0.7413 -1.3364  0.9544
  270THF     O1 4938   2.577   1.277   1.152  0.0911 -0.0536  0.3044
  270THF     C2 4939   2.706   1.221   1.104 -0.5468  0.8484  0.4504
  270THF     C3 4940   2.488   1.175   1.141 -0.5787  0.4460 -0.2175
  270THF     H4 4941   2.743   1.159   1.185  0.6085 -0.2663 -0.8911
  270THF     H5 4942   2.785   1.295   1.087 -0.0673 -0.0057 -1.1660
  270THF     H6 4943   2.515   1.102   1.217 -0.6062 -1.0380 -1.5596
  270THF     H7 4944   2.382   1.200   1.151 -1.0812 -0.5777 -2.4048
  270THF     C8 4945   2.516   1.115   0.999  0.5626 -0.4196  0.1052
  270THF     C9 4946   2.666   1.140   0.978 -0.5752  0.1377 -0.0070
  270THF    H10 4947   2.453   1.167   0.927 -0.6044 -1.3607  0.4266
  270THF    H11 4948   2.482   1.013   1.014  1.8151 -0.7242  1.1143
  270THF    H12 4949   2.724   1.047   0.983 -0.2799  0.3051 -0.2681
  270THF    H13 4950   2.695   1.178   0.880  0.0196  2.3823  0.9650
  271THF     O1 4951   5.274   4.407   0.045 -0.0715  0.3039  0.6296
  271THF     C2 4952   5.264   4.269   0.085  0.2336 -0.0737 -0.0367
  271THF     C3 4953   5.323   4.484   0.148  0.0854 -0.3001  0.2735
  271THF     H4 4954   5.360   4.219   0.068  0.5265 -0.6586  2.8513
  271THF     H5 4955   5.192   4.205   0.034  1.4074 -0.8738 -0.7388
  271THF     H6 4956   5.431   4.496   0.145 -0.0234  0.8131 -1.8635
  271THF     H7 4957   5.280   4.584   0.132  1.2812  0.2017  0.1058
  271THF     C8 4958   5.281   4.422   0.273  0.6414  0.0680  0.3375
  271THF     C9 4959   5.224   4.286   0.229 -0.1616  0.0958  0.5668
  271THF    H10 4960   5.207   4.480   0.328  0.1391 -2.2170  2.2315
  271THF    H11 4961   5.366   4.406   0.339  2.6198 -1.3779 -2.3426
  271THF    H12 4962   5.251   4.206   0.297  0.6568  1.1393  1.5218
  271THF    H13 4963   5.115   4.286   0.227 -0.2083 -2.4037  0.2812
  272THF     O1 4964   5.280   4.353   2.395 -0.6591 -0.4861  0.0294
  272THF     C2 4965   5.386   4.342   2.490  0.3653  0.5314 -0.3065
  272THF     C3 4966   5.159   4.372   2.467  0.2524  0.2667 -0.2991
  272THF     H4 4967   5.410   4.444   2.519 -0.2209  0.4747  0.3792
  272THF     H5 4968   5.471   4.300   2.437 -1.8613 -0.6011 -3.2726
  272THF     H6 4969   5.141   4.472   2.507  0.9258 -0.3215  1.5944
  272THF     H7 4970   5.087   4.352   2.387  0.4198  0.5562 -0.5248
  272THF     C8 4971   5.174   4.270   2.582 -0.3480 -0.6344  0.3091
  272THF     C9 4972   5.321   4.269   2.610  0.3408  0.3141  0.0568
  272THF    H10 4973   5.147   4.177   2.532 -1.0365  0.4214 -1.4103
  272THF    H11 4974   5.108   4.276   2.669 -0.2501  0.4519  0.3270
  272THF    H12 4975   5.345   4.326   2.699 -0.7961  1.0163 -0.0702
  272THF    H13 4976   5.365   4.169   2.602  0.4539  0.4365 -0.9864
  273THF     O1 4977   3.871   4.979   5.409  0.7219 -0.1195  0.4003
  273THF     C2 4978   3.857   5.079   5.307 -0.4703  0.5182 -0.4215
  273THF     C3 4979   3.992   4.994   5.473 -0.0719  0.3271  0.5455
  273THF     H4 4980   3.757   5.121   5.304 -0.8009 -0.2477 -0.3705
  273THF     H5 4981   3.877   5.038   5.208 -2.1282  1.0800 -1.0134
  273THF     H6 4982   3.995   4.950   5.573  2.2678  0.8572  0.7486
  273THF     H7 4983   4.066   4.940   5.414 -2.5324 -1.8974 -0.7190
  273THF     C8 4984   4.001   5.151   5.485 -0.4003 -0.3009 -0.3983
  273THF     C9 4985   3.950   5.189   5.350  0.0609  0.4082 -0.2586
  273THF    H10 4986   4.106   5.180   5.489 -0.3327 -0.1568 -2.3689
  273THF    H11 4987   3.939   5.196   5.562 -1.4628 -0.1379 -1.3206
  273THF    H12 4988   3.908   5.290   5.351  1.5807  1.1998 -3.4543
  273THF    H13 4989   4.034   5.180   5.282  1.3241 -1.5925  1.4768
  274THF     O1 4990   2.054   2.849   0.661  0.0894  0.0382 -0.0452
  274THF     C2 4991   1.961   2.793   0.571 -0.4985 -0.7356  0.0513
  274THF     C3 4992   2.063   2.996   0.635 -0.2225  0.2792  0.1992
  274THF     H4 4993   1.923   2.696   0.602 -1.7008 -0.4113 -0.3516
  274THF     H5 4994   2.016   2.785   0.477  2.2698 -1.0652  1.6025
  274THF     H6 4995   2.109   3.045   0.720 -1.9557  0.6152  0.9821
  274THF     H7 4996   2.128   3.006   0.547 -0.8687  1.5124 -0.1646
  274THF     C8 4997   1.918   3.030   0.608  0.8002 -0.4890 -0.8452
  274THF     C9 4998   1.848   2.894   0.572  0.1817 -0.0137  0.3711
  274THF    H10 4999   1.923   3.092   0.519 -1.1338  0.0994 -0.5994
  274THF    H11 5000   1.880   3.088   0.692  0.0068  1.4855 -2.4803
  274THF    H12 5001   1.770   2.851   0.634 -0.6298 -1.0146 -1.2841
  274THF    H13 5002   1.808   2.902   0.471  0.5232  0.6659  0.2825
  275THF     O1 5003   1.905   0.325   5.473  0.5177  1.3374  0.6406
  275THF     C2 5004   1.956   0.343   5.343 -0.2605 -0.1270  0.5437
  275THF     C3 5005   1.757   0.297   5.464  0.2788 -0.5583  0.0462
  275THF     H4 5006   1.960   0.247   5.292 -1.0270  0.6987 -1.1268
  275THF     H5 5007   2.045   0.406   5.337 -0.1879 -0.3606 -3.2941
  275THF     H6 5008   1.747   0.194   5.430 -0.9206 -0.4013 -0.1077
  275THF     H7 5009   1.711   0.309   5.562 -0.2428 -1.1100 -0.1285
  275THF     C8 5010   1.712   0.409   5.362 -0.0915  0.3222  0.1268
  275THF     C9 5011   1.838   0.417   5.278 -0.8265 -0.6848  0.3853
  275THF    H10 5012   1.689   0.509   5.398 -0.6611  0.5462 -0.8287
  275THF    H11 5013   1.633   0.386   5.291  1.6765 -3.8728 -0.8279
  275THF    H12 5014   1.819   0.367   5.183  0.0041  0.6490 -0.5297
  275THF    H13 5015   1.871   0.519   5.256  1.5252 -1.3075  0.6570
  276THF     O1 5016   1.401   4.442   1.008 -0.2132  0.0437  0.0929
  276THF     C2 5017   1.308   4.543   1.004 -0.3673 -0.4276 -0.0674
  276THF     C3 5018   1.527   4.488   0.973  0.4410  0.1794  0.2039
  276THF     H4 5019   1.220   4.519   1.063 -1.5919 -1.0624 -2.0331
  276THF     H5 5020   1.278   4.561   0.901 -0.3404  1.3189  0.2106
  276THF     H6 5021   1.605   4.417   0.997  0.8655  0.6155  0.1345
  276THF     H7 5022   1.540   4.514   0.867 -0.1725  1.2727  0.3720
  276THF     C8 5023   1.531   4.626   1.045  0.5827  0.3382  0.2140
  276THF     C9 5024   1.388   4.666   1.051 -1.0051  0.3429 -0.2656
  276THF    H10 5025   1.591   4.705   0.998 -1.3552  0.6224 -1.9638
  276THF    H11 5026   1.569   4.619   1.147 -1.1023 -2.2869  0.7588
  276THF    H12 5027   1.361   4.687   1.155  0.0939 -1.0451  0.3425
  276THF    H13 5028   1.356   4.752   0.993 -0.8090  0.5174 -0.1149
  277THF     O1 5029   4.704   2.948   4.641 -0.4836  0.2203 -0.1604
  277THF     C2 5030   4.640   2.962   4.769 -0.0782  0.1913  1.1570
  277THF     C3 5031   4.816   3.031   4.635 -0.1466 -0.8717  0.2290
  277THF     H4 5032   4.699   2.902   4.839 -1.2743 -0.1040  1.9383
  277THF     H5 5033   4.534   2.937   4.772  0.4770 -2.3269  1.8997
  277THF     H6 5034   4.907   2.976   4.656  1.0148  1.1691  0.8189
  277THF     H7 5035   4.818   3.070   4.533 -1.4855 -0.2203  0.4268
  277THF     C8 5036   4.796   3.143   4.741 -0.2251  0.1354  0.2263
  277THF     C9 5037   4.655   3.115   4.787 -0.3513 -0.5078  0.3433
  277THF    H10 5038   4.798   3.247   4.707 -0.6884 -0.5849 -2.1919
  277THF    H11 5039   4.867   3.136   4.824  2.7390 -3.0681 -2.3041
  277THF    H12 5040   4.631   3.153   4.887 -2.9640  0.2391 -0.4765
  277THF    H13 5041   4.575   3.149   4.721  0.8936 -1.6210 -1.8229
  278THF     O1 5042   5.415   0.625   1.786 -0.4581 -0.1505  0.6297
  278THF     C2 5043   5.394   0.518   1.692  0.1505  0.4667 -1.1163
  278THF     C3 5044   5.491   0.578   1.890  0.0430  0.2326 -0.3208
  278THF     H4 5045   5.350   0.562   1.603  1.2892  0.3464 -1.7455
  278THF     H5 5046   5.325   0.448   1.741 -0.7311 -0.8764 -4.0686
  278THF     H6 5047   5.528   0.664   1.946 -1.8549  0.3535  0.8163
  278THF     H7 5048   5.426   0.520   1.956 -2.2827  3.0701  0.0841
  278THF     C8 5049   5.601   0.502   1.818 -0.7651  0.9200 -0.6065
  278THF     C9 5050   5.538   0.448   1.684  0.5382 -0.2936 -0.1255
  278THF    H10 5051   5.635   0.412   1.871 -0.8391  1.9253  1.2319
  278THF    H11 5052   5.686   0.568   1.801 -0.8848  1.0554 -0.6691
  278THF    H12 5053   5.597   0.484   1.599 -0.1421 -4.4943 -2.6970
  278THF    H13 5054   5.534   0.339   1.682 -0.8384 -0.2392 -1.2267
  279THF     O1 5055   4.429   2.034   4.795 -0.0405  0.4831 -0.4498
  279THF     C2 5056   4.481   1.989   4.669  0.3878 -0.1317 -0.8901
  279THF     C3 5057   4.435   2.176   4.807  1.3559  0.0981 -0.3652
  279THF     H4 5058   4.401   1.960   4.602 -1.6924 -0.8720  1.7503
  279THF     H5 5059   4.552   1.907   4.681 -0.3058 -0.8343 -1.5134
  279THF     H6 5060   4.335   2.215   4.826  0.8479 -1.4225  0.2464
  279THF     H7 5061   4.496   2.210   4.891 -0.6504  0.7014  0.9247
  279THF     C8 5062   4.492   2.225   4.670 -0.5928 -0.2160 -1.1988
  279THF     C9 5063   4.564   2.107   4.623 -0.3430  0.2696  0.8366
  279THF    H10 5064   4.558   2.311   4.662  1.9548 -1.6598  1.8562
  279THF    H11 5065   4.405   2.259   4.613 -2.3058 -0.9869  0.7908
  279THF    H12 5066   4.578   2.119   4.516  0.2636 -0.9836  0.7592
  279THF    H13 5067   4.658   2.093   4.675  1.1814  1.4042 -1.4556
  280THF     O1 5068   2.176   1.782   2.945 -0.1472  0.0180  0.1573
  280THF     C2 5069   2.147   1.921   2.958 -0.4147 -0.1673  0.5491
  280THF     C3 5070   2.310   1.760   2.987  0.4331 -0.3841 -0.0871
  280THF     H4 5071   2.051   1.923   3.010 -1.2747  0.7636 -0.9626
  280THF     H5 5072   2.127   1.957   2.856 -1.9060  0.6279  1.0932
  280THF     H6 5073   2.301   1.723   3.089 -0.9311  3.8564  1.5576
  280THF     H7 5074   2.358   1.681   2.930 -0.4414 -1.1935  0.2656
  280THF     C8 5075   2.382   1.890   2.983  0.2865  0.0644  0.5865
  280THF     C9 5076   2.273   1.992   3.023 -0.2375  0.6584 -0.1956
  280THF    H10 5077   2.414   1.914   2.882  1.2618 -2.2537  0.2766
  280THF    H11 5078   2.477   1.901   3.036  1.3249 -0.6005 -1.0605
  280THF    H12 5079   2.274   1.997   3.132  0.3832  1.5734 -0.2371
  280THF    H13 5080   2.290   2.092   2.985  1.4145  0.0034 -1.3042
  281THF     O1 5081   0.178   4.863   5.227  0.3864 -0.0585 -0.2380
  281THF     C2 5082   0.205   4.890   5.367 -0.3037  0.2323 -0.4106
  281THF     C3 5083   0.272   4.772   5.180  0.1664 -0.3211  0.4450
  281THF     H4 5084   0.194   4.802   5.430  0.5302  0.9945  0.8397
  281THF     H5 5085   0.151   4.969   5.418  2.4043  2.2209 -0.4272
  281THF     H6 5086   0.264   4.669   5.214 -2.8222 -0.8537 -1.5138
  281THF     H7 5087   0.283   4.755   5.073 -0.0858 -1.9168  0.6462
  281THF     C8 5088   0.399   4.834   5.237  0.1191  0.7228 -0.0676
  281THF     C9 5089   0.362   4.909   5.360  1.0937  0.4742  0.1431
  281THF    H10 5090   0.438   4.903   5.161 -0.1643  0.4245 -0.4892
  281THF    H11 5091   0.469   4.753   5.259 -1.6634 -1.6367 -2.3241
  281THF    H12 5092   0.418   4.877   5.448  1.4607 -1.2492 -0.6904
  281THF    H13 5093   0.374   5.015   5.337 -0.3623  1.0926  2.0024
  282THF     O1 5094   0.018   2.532   4.859 -0.1313  0.7816 -1.0220
  282THF     C2 5095  -0.047   2.644   4.793 -0.8600 -0.4806 -0.0236
  282THF     C3 5096   0.080   2.458   4.759  0.3852 -0.7925  0.0686
  282THF     H4 5097   0.021   2.726   4.768 -0.7859 -0.5681 -0.1071
  282THF     H5 5098  -0.115   2.690   4.865 -1.5582  1.8275 -2.0029
  282THF     H6 5099   0.185   2.481   4.744  0.4191 -0.2152  1.0840
  282THF     H7 5100   0.086   2.354   4.792  1.4028 -1.3250 -1.6927
  282THF     C8 5101  -0.007   2.473   4.631 -0.2316  0.0146  0.5978
  282THF     C9 5102  -0.105   2.576   4.673  0.5197 -0.4136  0.6310
  282THF    H10 5103  -0.058   2.380   4.607  0.7807 -0.2221 -0.7307
  282THF    H11 5104   0.036   2.518   4.542  0.7551  1.8200  1.9013
  282THF    H12 5105  -0.129   2.647   4.594  1.5880  1.1995  1.6947
  282THF    H13 5106  -0.197   2.521   4.696  0.2985 -0.6204 -0.7026
  283THF     O1 5107   0.812   0.811   2.857  0.0293 -0.0184 -0.4985
  283THF     C2 5108   0.899   0.693   2.883  0.7139  0.2622  0.3554
  283THF     C3 5109   0.790   0.813   2.719 -0.0517 -0.5028  0.4262
  283THF     H4 5110   0.886   0.650   2.982  0.4522 -0.1212  0.1563
  283THF     H5 5111   1.003   0.727   2.874  0.7111 -0.0068 -0.8476
  283THF     H6 5112   0.708   0.880   2.690  0.0167 -1.5070 -2.3087
  283THF     H7 5113   0.878   0.838   2.660 -0.4107  1.0721  0.5004
  283THF     C8 5114   0.757   0.670   2.688  0.1160 -0.2016  0.2921
  283THF     C9 5115   0.858   0.590   2.769  0.2951  1.0609 -0.0575
  283THF    H10 5116   0.755   0.642   2.583  0.1291 -1.5899  0.6472
  283THF    H11 5117   0.656   0.653   2.726 -0.2439  1.8286  0.3766
  283THF    H12 5118   0.814   0.500   2.811 -3.1040  3.1919  1.4454
  283THF    H13 5119   0.940   0.574   2.699  0.7231  0.0368  0.6483
  284THF     O1 5120   0.141   3.491   4.527  0.4090 -0.0305  0.2998
  284THF     C2 5121   0.007   3.544   4.495  0.1944  0.2804 -0.0652
  284THF     C3 5122   0.177   3.402   4.424  0.4140  0.3807  0.3644
  284THF     H4 5123   0.018   3.608   4.407  1.3201 -0.3974 -0.4356
  284THF     H5 5124  -0.015   3.594   4.590 -0.5971 -0.1152 -0.0371
  284THF     H6 5125   0.210   3.443   4.328  0.0773 -1.6856 -0.6764
  284THF     H7 5126   0.259   3.338   4.456 -0.4151 -0.9697 -0.1483
  284THF     C8 5127   0.044   3.333   4.396  0.0913 -0.3224 -0.3699
  284THF     C9 5128  -0.065   3.414   4.460 -0.5919  0.4060  0.1538
  284THF    H10 5129   0.052   3.232   4.438  0.5798  0.0841  0.5490
  284THF    H11 5130   0.025   3.325   4.289  0.6912 -1.5315 -0.4163
  284THF    H12 5131  -0.152   3.431   4.397 -0.4277 -0.3279 -0.2797
  284THF    H13 5132  -0.092   3.360   4.551 -0.8863 -1.0498 -0.7740
  285THF     O1 5133   1.044   5.479   4.316  0.0526 -0.0551  1.0695
  285THF     C2 5134   0.991   5.350   4.345 -0.0261  0.0440  0.2903
  285THF     C3 5135   1.095   5.487   4.180 -0.7731  0.1916 -0.3467
  285THF     H4 5136   0.940   5.343   4.442  1.4010 -0.2140  1.0459
  285THF     H5 5137   1.081   5.289   4.355  0.6412  0.5436 -2.1555
  285THF     H6 5138   1.098   5.583   4.128 -0.5370  0.0722 -0.5577
  285THF     H7 5139   1.188   5.430   4.183 -0.5411  0.6152  0.6791
  285THF     C8 5140   0.977   5.418   4.115 -0.0014  0.5907  0.1561
  285THF     C9 5141   0.920   5.311   4.216  0.5231  0.2407  0.2331
  285THF    H10 5142   1.003   5.362   4.025  2.9587  0.6871  0.8461
  285THF    H11 5143   0.905   5.492   4.081  1.9403  3.4024  1.8340
  285THF    H12 5144   0.811   5.323   4.221  0.6995  1.7173  1.1680
  285THF    H13 5145   0.943   5.209   4.187  0.2434  0.0991  0.5037
  286THF     O1 5146   0.516   2.078   1.029 -0.1470  0.0631  0.1914
  286THF     C2 5147   0.632   2.168   1.054  0.7572  0.2726  0.6141
  286THF     C3 5148   0.519   2.051   0.890 -0.2554  0.0202 -0.0682
  286THF     H4 5149   0.720   2.104   1.057 -0.5982 -1.6329  1.3314
  286THF     H5 5150   0.619   2.244   1.131 -0.0715  2.2658 -1.3678
  286THF     H6 5151   0.604   1.990   0.860 -0.1077 -0.0172  0.4165
  286THF     H7 5152   0.426   2.003   0.859  0.6839 -1.8053 -0.2023
  286THF     C8 5153   0.543   2.187   0.827 -0.4397 -0.9138 -0.1364
  286THF     C9 5154   0.649   2.246   0.921 -0.2368  0.0019 -1.0990
  286THF    H10 5155   0.452   2.247   0.824 -0.0673 -0.3785 -1.8564
  286THF    H11 5156   0.583   2.191   0.726 -0.3868 -1.9833 -0.1700
  286THF    H12 5157   0.750   2.228   0.884 -0.2172  0.6285 -1.3628
  286THF    H13 5158   0.634   2.353   0.941  3.8227  0.5267  0.0590
  287THF     O1 5159   2.371   3.541   0.920 -0.1318 -0.2345  0.2975
  287THF     C2 5160   2.317   3.502   1.049 -0.1152 -0.0446 -0.4439
  287THF     C3 5161   2.403   3.422   0.852 -0.2376  0.1927 -0.8772
  287THF     H4 5162   2.259   3.582   1.094 -0.6206 -0.8563  0.3808
  287THF     H5 5163   2.393   3.465   1.117 -1.3792 -2.9413 -0.4756
  287THF     H6 5164   2.397   3.439   0.745 -0.5646 -1.0307 -1.0714
  287THF     H7 5165   2.502   3.390   0.884 -0.9433 -2.0636 -0.7977
  287THF     C8 5166   2.302   3.319   0.899  0.5762  0.3189 -0.0393
  287THF     C9 5167   2.239   3.371   1.026 -0.0743 -0.4370 -0.5728
  287THF    H10 5168   2.349   3.225   0.927  1.0909  0.5193 -0.2299
  287THF    H11 5169   2.229   3.289   0.824  1.0329  1.4267 -0.9589
  287THF    H12 5170   2.136   3.404   1.008 -0.5391 -1.4019  0.1708
  287THF    H13 5171   2.245   3.290   1.099 -0.9072 -0.4583 -0.5093
  288THF     O1 5172   3.474   4.079   4.331  0.5198 -0.3057 -0.3016
  288THF     C2 5173   3.598   4.006   4.328  0.1058 -0.0875 -0.5022
  288THF     C3 5174   3.367   3.992   4.381  0.1242 -0.0277 -0.2288
  288THF     H4 5175   3.658   4.005   4.420 -1.8648 -1.3462  0.8609
  288THF     H5 5176   3.650   4.048   4.243  0.1780  1.0116  0.0689
  288THF     H6 5177   3.345   4.024   4.483  1.8971  0.0557  0.1742
  288THF     H7 5178   3.286   3.999   4.309  0.8837 -1.3676 -1.2612
  288THF     C8 5179   3.427   3.855   4.386 -0.4393  0.6822  0.4881
  288THF     C9 5180   3.552   3.866   4.299  0.4710  0.5722  0.0879
  288THF    H10 5181   3.361   3.778   4.345  1.9647 -0.2814 -1.8897
  288THF    H11 5182   3.448   3.826   4.489 -2.9772  0.7716  1.0959
  288THF    H12 5183   3.627   3.792   4.325 -1.4561 -0.7891  2.1789
  288THF    H13 5184   3.522   3.851   4.195 -1.2225  1.6307  0.3654
  289THF     O1 5185   5.240   4.329   1.596  0.7217 -0.3808  0.6691
  289THF     C2 5186   5.355   4.291   1.516 -1.1763 -0.2648  0.2420
  289THF     C3 5187   5.126   4.340   1.507  0.2934 -0.3114 -0.1988
  289THF     H4 5188   5.391   4.191   1.537 -2.9192 -1.3984 -1.7854
  289THF     H5 5189   5.428   4.372   1.524 -2.3813  0.7501  1.6369
  289THF     H6 5190   5.044   4.305   1.570 -0.9440  0.5334 -1.2812
  289THF     H7 5191   5.109   4.445   1.484  1.2814 -0.2801 -0.8432
  289THF     C8 5192   5.159   4.264   1.379 -0.2582  0.4886 -0.5376
  289THF     C9 5193   5.310   4.293   1.372 -0.4209  0.3108 -0.3580
  289THF    H10 5194   5.103   4.296   1.291  0.2604 -1.2829 -1.5795
  289THF    H11 5195   5.149   4.156   1.392  0.0815  0.2595 -1.9368
  289THF    H12 5196   5.360   4.218   1.311  1.6311  1.6441 -0.4049
  289THF    H13 5197   5.324   4.392   1.329 -0.3655  0.2675 -0.4400
  290THF     O1 5198   3.193   2.965   5.150  0.0759 -0.1895  0.0490
  290THF     C2 5199   3.163   2.916   5.283 -0.3593 -0.3184  0.4058
  290THF     C3 5200   3.067   3.005   5.090 -0.3321  0.1222 -0.1314
  290THF     H4 5201   3.242   2.943   5.353 -0.1800  0.3543 -0.0434
  290THF     H5 5202   3.166   2.808   5.273  0.2188 -0.3273  0.6349
  290THF     H6 5203   3.077   3.077   5.009  1.3330 -0.1828 -0.2373
  290THF     H7 5204   3.018   2.919   5.044 -3.5711  0.7322  1.9028
  290THF     C8 5205   2.978   3.067   5.201 -0.5723  0.4155 -0.0312
  290THF     C9 5206   3.025   2.973   5.314 -0.1845  0.5353  0.0444
  290THF    H10 5207   2.872   3.072   5.175 -0.6289  0.0152  0.1177
  290THF    H11 5208   3.018   3.167   5.216 -0.5919  0.6735 -1.5230
  290THF    H12 5209   3.030   3.030   5.407  0.4489 -1.3676  1.2187
  290THF    H13 5210   2.954   2.890   5.316  1.4529 -0.9270  0.5636
  291THF     O1 5211   4.416   0.332   3.945 -0.2327  0.2852 -0.8235
  291THF     C2 5212   4.352   0.442   3.880  0.5705  0.7038  0.2308
  291THF     C3 5213   4.549   0.324   3.903 -0.2505  0.5009 -0.2318
  291THF     H4 5214   4.287   0.500   3.945  0.6814 -1.0209  2.0010
  291THF     H5 5215   4.292   0.400   3.800  0.4160 -2.4892  1.8513
  291THF     H6 5216   4.607   0.265   3.974  0.4931 -0.0074 -1.2435
  291THF     H7 5217   4.553   0.279   3.804  0.9567  0.7575 -0.3150
  291THF     C8 5218   4.588   0.476   3.907  0.4045  0.3862  0.4662
  291THF     C9 5219   4.470   0.534   3.838  0.5028 -0.1783 -0.7799
  291THF    H10 5220   4.682   0.493   3.857 -0.6528 -0.1822 -1.8447
  291THF    H11 5221   4.590   0.519   4.007  0.0281 -1.0680  1.1305
  291THF    H12 5222   4.454   0.642   3.838 -2.5728 -0.3981  3.1566
  291THF    H13 5223   4.478   0.512   3.732  0.8195 -1.5061 -0.4956
  292THF     O1 5224   5.075   3.030   0.822  0.4111 -0.1521 -0.2287
  292THF     C2 5225   4.995   2.918   0.855  0.1645  0.2111 -0.2965
  292THF     C3 5226   4.987   3.145   0.821  0.1661 -0.0492 -0.4731
  292THF     H4 5227   5.005   2.899   0.962 -1.9025 -0.3090 -0.1396
  292THF     H5 5228   5.042   2.833   0.806 -0.4162  0.3839 -1.1732
  292THF     H6 5229   5.028   3.217   0.891 -0.4035  0.5417 -0.7423
  292THF     H7 5230   4.986   3.189   0.721 -2.6922  0.8953 -0.1081
  292THF     C8 5231   4.846   3.096   0.840  0.8129 -0.0475 -0.1393
  292THF     C9 5232   4.856   2.948   0.804 -0.0306  0.1835  0.2796
  292THF    H10 5233   4.775   3.146   0.774  1.8004 -1.5153 -2.4392
  292THF    H11 5234   4.815   3.114   0.943  0.0814  0.5982 -0.4626
  292THF    H12 5235   4.775   2.888   0.845 -0.9259  2.1063  1.4431
  292THF    H13 5236   4.859   2.956   0.695 -1.0007  2.4464  0.3571
  293THF     O1 5237   4.327   4.196   5.438  0.1634  0.2303 -0.4423
  293THF     C2 5238   4.443   4.271   5.406 -0.5207  0.1981 -0.3267
  293THF     C3 5239   4.298   4.214   5.579 -0.2386 -0.2615  0.4104
  293THF     H4 5240   4.411   4.374   5.398 -0.7965  0.1302 -0.0979
  293THF     H5 5241   4.483   4.243   5.309  1.8363  1.0085  0.3422
  293THF     H6 5242   4.244   4.308   5.596 -1.5576 -0.9803  0.3001
  293THF     H7 5243   4.245   4.141   5.640 -0.8224  0.2621  0.5423
  293THF     C8 5244   4.437   4.228   5.644 -0.7893 -0.5124  0.5993
  293THF     C9 5245   4.535   4.255   5.525 -0.1560  0.3862  0.0108
  293THF    H10 5246   4.478   4.144   5.700 -0.8680 -1.7550 -1.1238
  293THF    H11 5247   4.460   4.320   5.698  2.3481  1.0097 -2.8212
  293THF    H12 5248   4.590   4.349   5.532  0.4511  0.0144  0.2105
  293THF    H13 5249   4.599   4.168   5.518 -0.6228  0.0291  0.0927
  294THF     O1 5250   2.755   3.992   2.056 -0.0561 -0.3875 -0.2884
  294THF     C2 5251   2.755   3.853   2.074  0.1437  0.1868 -0.1900
  294THF     C3 5252   2.729   4.066   2.178  1.2084  0.5599  0.0676
  294THF     H4 5253   2.851   3.812   2.043 -1.5937 -2.3601 -2.6593
  294THF     H5 5254   2.688   3.790   2.015  0.1797 -1.2954  1.2925
  294THF     H6 5255   2.815   4.106   2.232  1.9668 -0.2898 -0.4783
  294THF     H7 5256   2.671   4.157   2.162 -0.4565 -0.7722 -1.8688
  294THF     C8 5257   2.656   3.963   2.262 -1.4653  0.5731 -0.2658
  294THF     C9 5258   2.719   3.827   2.219  0.2348  0.3320 -0.6844
  294THF    H10 5259   2.554   3.969   2.226 -1.4019 -0.9591 -0.8039
  294THF    H11 5260   2.658   3.985   2.369  0.4737 -1.8518  0.3159
  294THF    H12 5261   2.815   3.817   2.269  0.7171 -1.7327 -1.9053
  294THF    H13 5262   2.651   3.743   2.233  0.5051  0.1729 -0.3246
  295THF     O1 5263   5.425   4.897   3.283 -0.5394 -0.1707  0.3312
  295THF     C2 5264   5.444   4.884   3.423  0.1861 -0.4303 -0.2989
  295THF     C3 5265   5.382   4.767   3.257  0.0977  0.0538 -0.0797
  295THF     H4 5266   5.463   4.982   3.465  1.4460 -1.6740  2.2358
  295THF     H5 5267   5.536   4.834   3.453  1.5856  1.4720 -1.2539
  295THF     H6 5268   5.360   4.766   3.150 -0.9866  2.1875  0.0707
  295THF     H7 5269   5.462   4.695   3.276 -0.4502 -0.2462  1.2101
  295THF     C8 5270   5.273   4.742   3.361  0.0591 -0.5525 -0.0054
  295THF     C9 5271   5.316   4.820   3.481  0.0229 -0.8342 -0.2032
  295THF    H10 5272   5.262   4.635   3.380 -3.4084 -0.3931 -0.5009
  295THF    H11 5273   5.170   4.766   3.334 -0.4526 -2.8442 -0.2827
  295THF    H12 5274   5.246   4.896   3.514  1.1986 -0.0434  0.5671
  295THF    H13 5275   5.333   4.754   3.566 -0.0725 -0.6652 -0.0532
  296THF     O1 5276   0.046   1.016   0.507  0.1792  0.0853 -0.3379
  296THF     C2 5277   0.045   1.047   0.367 -0.2779  0.1175 -0.5425
  296THF     C3 5278  -0.006   0.881   0.509 -0.3926  0.0074 -0.1496
  296THF     H4 5279   0.073   1.147   0.334  0.4948 -0.4130 -1.5808
  296THF     H5 5280  -0.058   1.041   0.333 -0.4469 -0.7857  0.0959
  296THF     H6 5281   0.014   0.832   0.604  2.6826 -0.3499 -0.8684
  296THF     H7 5282  -0.115   0.885   0.507 -0.4933 -0.1469  2.2722
  296THF     C8 5283   0.067   0.816   0.398  0.2469  0.2167  0.3375
  296THF     C9 5284   0.119   0.928   0.308 -0.1418  0.7054 -0.6896
  296THF    H10 5285   0.004   0.749   0.339  0.7015  0.8095 -0.8654
  296THF    H11 5286   0.148   0.756   0.441  1.0958  1.7832  0.9987
  296THF    H12 5287   0.226   0.937   0.330 -0.5380  2.5701  0.7230
  296THF    H13 5288   0.094   0.920   0.203  1.7300  1.2653 -1.2227
  297THF     O1 5289   1.029   4.662   2.526 -0.8613 -0.3543 -0.2761
  297THF     C2 5290   0.944   4.779   2.532  0.0570  0.0400  0.4783
  297THF     C3 5291   1.144   4.699   2.602 -0.3439  0.4819  0.0772
  297THF     H4 5292   0.840   4.750   2.518 -0.4256  0.9825  1.9323
  297THF     H5 5293   0.970   4.850   2.454  3.3334 -1.8893 -0.3923
  297THF     H6 5294   1.201   4.613   2.637  2.6372  2.6309  0.9222
  297THF     H7 5295   1.212   4.761   2.542  0.3168  0.8995  1.2236
  297THF     C8 5296   1.094   4.776   2.722  0.3389  0.2875  0.0917
  297THF     C9 5297   0.966   4.840   2.670 -0.4458 -0.0238  0.4303
  297THF    H10 5298   1.168   4.844   2.764  1.1088 -0.2647 -0.3438
  297THF    H11 5299   1.062   4.708   2.802 -0.2744 -0.6264 -0.9061
  297THF    H12 5300   0.877   4.825   2.731  0.4649 -0.3804  1.7001
  297THF    H13 5301   0.973   4.949   2.658 -0.0231 -0.1353 -0.3917
  298THF     O1 5302   3.050   5.299   2.811 -0.5056 -0.4132  0.3512
  298THF     C2 5303   3.134   5.214   2.881 -0.1482  0.3970 -0.8161
  298THF     C3 5304   3.110   5.316   2.682 -0.1845 -0.9005  0.6686
  298THF     H4 5305   3.087   5.176   2.972  0.8343  2.8230  0.8144
  298THF     H5 5306   3.219   5.277   2.907 -0.5928  0.5641  0.3018
  298THF     H6 5307   3.043   5.339   2.600 -0.8133 -2.0434  0.8502
  298THF     H7 5308   3.191   5.388   2.668 -2.3173  1.4166 -0.5532
  298THF     C8 5309   3.160   5.176   2.655  0.0226  0.1810 -0.2725
  298THF     C9 5310   3.179   5.106   2.780 -0.0300 -0.3817 -0.3796
  298THF    H10 5311   3.259   5.181   2.609  0.4715  0.2606  0.6682
  298THF    H11 5312   3.090   5.111   2.602 -1.0557 -0.9736  2.3881
  298THF    H12 5313   3.122   5.015   2.798  0.0783 -0.4228 -0.2486
  298THF    H13 5314   3.286   5.089   2.784 -0.3201 -2.3367  0.1559
  299THF     O1 5315   2.224   4.910   4.841 -0.1926 -0.5085  0.2437
  299THF     C2 5316   2.341   4.892   4.918  0.5153  0.4533  0.1243
  299THF     C3 5317   2.104   4.914   4.906  0.0615 -0.3961  0.0929
  299THF     H4 5318   2.437   4.914   4.871  0.9369  1.9189  1.5915
  299THF     H5 5319   2.338   4.787   4.948 -0.5505  1.4307  3.8904
  299THF     H6 5320   2.024   4.972   4.860 -0.4437  1.3140  2.8971
  299THF     H7 5321   2.062   4.815   4.925 -1.5174  0.1400 -0.4671
  299THF     C8 5322   2.147   4.978   5.032 -0.4229 -0.6310 -0.4415
  299THF     C9 5323   2.302   5.002   5.028  0.3828  0.0990  0.2653
  299THF    H10 5324   2.116   4.914   5.115 -0.8950 -0.0185 -0.1366
  299THF    H11 5325   2.092   5.071   5.048 -0.5056 -1.0719  2.4735
  299THF    H12 5326   2.325   5.102   4.991  1.5994 -0.7907 -1.5552
  299THF    H13 5327   2.361   4.990   5.119  0.4005 -0.7543  0.1512
  300THF     O1 5328   3.594   5.239   2.915 -0.3071  0.2736 -0.0668
  300THF     C2 5329   3.644   5.282   2.791 -0.1320  0.3223 -0.0334
  300THF     C3 5330   3.700   5.188   3.001  0.0098  0.5652 -0.1430
  300THF     H4 5331   3.674   5.387   2.794  3.5755 -0.5599 -0.8705
  300THF     H5 5332   3.575   5.258   2.710 -0.8530  0.7403  0.4432
  300THF     H6 5333   3.700   5.255   3.087  0.0336 -1.4408  1.4751
  300THF     H7 5334   3.674   5.091   3.042 -1.2043  1.1912  0.6236
  300THF     C8 5335   3.828   5.200   2.921  0.0069  0.6484  0.4604
  300THF     C9 5336   3.771   5.198   2.783  0.3415 -0.1776  1.1180
  300THF    H10 5337   3.895   5.116   2.935 -1.3026 -0.6042 -0.5916
  300THF    H11 5338   3.887   5.287   2.950  0.2347  0.8928 -0.7120
  300THF    H12 5339   3.831   5.250   2.708 -1.6560  2.7175  1.3322
  300THF    H13 5340   3.747   5.097   2.751  1.5078  0.5236 -2.3192
  301THF     O1 5341   3.575   0.872   2.853 -0.0565 -0.5655  0.1147
  301THF     C2 5342   3.687   0.926   2.930 -0.0679  0.4757  0.3166
  301THF     C3 5343   3.464   0.942   2.891 -0.3239 -0.7357 -0.3865
  301THF     H4 5344   3.785   0.901   2.889 -0.1493 -1.3638  1.1455
  301THF     H5 5345   3.673   0.895   3.034 -0.6556 -1.5529 -0.3378
  301THF     H6 5346   3.378   0.922   2.826 -1.4893  0.5491  0.6887
  301THF     H7 5347   3.433   0.909   2.990 -1.3215  3.2452  0.8400
  301THF     C8 5348   3.514   1.086   2.909 -0.0854 -0.5831 -0.4064
  301THF     C9 5349   3.665   1.077   2.920  0.0895 -0.8349  0.2705
  301THF    H10 5350   3.484   1.133   3.002 -1.7605 -0.3719 -1.0134
  301THF    H11 5351   3.487   1.159   2.832  0.8726  1.6962  1.2777
  301THF    H12 5352   3.719   1.115   2.833 -0.8409 -2.5421 -1.1414
  301THF    H13 5353   3.706   1.131   3.005  2.6558 -0.7079 -0.9363
  302THF     O1 5354   4.255   4.342   2.778 -0.0251 -0.0619  0.1409
  302THF     C2 5355   4.283   4.251   2.884  0.0228 -0.0024  1.1963
  302THF     C3 5356   4.379   4.409   2.763 -0.2874 -0.1736 -0.0319
  302THF     H4 5357   4.220   4.163   2.889  1.3227 -0.9936  0.7650
  302THF     H5 5358   4.279   4.284   2.988  0.2884 -1.4968  1.6998
  302THF     H6 5359   4.374   4.453   2.663  0.4934  0.3590  0.1532
  302THF     H7 5360   4.387   4.494   2.830 -1.0500  0.1935 -0.3935
  302THF     C8 5361   4.497   4.310   2.786  0.5449  0.3047  1.4466
  302THF     C9 5362   4.424   4.191   2.850 -0.0020  0.6039 -0.2367
  302THF    H10 5363   4.587   4.336   2.842  0.9840 -3.1293  2.6032
  302THF    H11 5364   4.544   4.270   2.696 -1.1882 -1.3787  1.2183
  302THF    H12 5365   4.422   4.105   2.784  1.8847 -0.2747  0.7495
  302THF    H13 5366   4.476   4.155   2.939  0.5588  1.0011 -0.3997
  303THF     O1 5367   3.065   3.799   2.383  0.4416 -0.1052  0.1214
  303THF     C2 5368   3.143   3.785   2.261  0.0366  0.6475 -0.1983
  303THF     C3 5369   3.113   3.699   2.472  0.4485  0.0086 -0.1540
  303THF     H4 5370   3.243   3.829   2.268  0.8375 -1.2069  0.8264
  303THF     H5 5371   3.096   3.820   2.169  0.9264  0.0937 -0.8844
  303THF     H6 5372   3.217   3.718   2.497  0.6759 -1.6595  0.2785
  303THF     H7 5373   3.051   3.674   2.558 -0.1613  0.8265 -0.3344
  303THF     C8 5374   3.116   3.577   2.386  0.4726 -0.4344 -0.6126
  303THF     C9 5375   3.150   3.629   2.245 -0.4155  0.0642  0.0208
  303THF    H10 5376   3.014   3.538   2.389  0.7720 -1.2968 -1.1553
  303THF    H11 5377   3.184   3.503   2.429  0.2016 -0.4205 -0.1414
  303THF    H12 5378   3.243   3.595   2.198 -1.2425 -0.9208 -0.9852
  303THF    H13 5379   3.072   3.596   2.176  0.4288 -2.3901  0.1343
  304THF     O1 5380   3.860   0.850   0.505 -0.0734 -0.3437 -0.7882
  304THF     C2 5381   3.980   0.795   0.444 -0.2221  0.1132 -0.4144
  304THF     C3 5382   3.775   0.743   0.548  0.3682  0.6391 -0.2749
  304THF     H4 5383   4.065   0.856   0.476 -0.3052  1.0436 -1.8727
  304THF     H5 5384   3.979   0.813   0.336 -2.5316  1.8666 -0.1763
  304THF     H6 5385   3.713   0.770   0.634 -2.3316 -1.8527 -1.2536
  304THF     H7 5386   3.703   0.712   0.472  0.3351 -0.8023  0.2966
  304THF     C8 5387   3.871   0.632   0.588  0.2833 -0.1484  0.3984
  304THF     C9 5388   3.985   0.647   0.491  0.0488  0.2773 -0.0803
  304THF    H10 5389   3.821   0.536   0.585 -0.3563  0.1935 -0.6243
  304THF    H11 5390   3.902   0.643   0.692 -0.5285  2.3615  0.4607
  304THF    H12 5391   4.079   0.618   0.536  0.3598 -1.1962 -1.5962
  304THF    H13 5392   3.968   0.583   0.404  1.1505 -3.2828  2.1516
  305THF     O1 5393   2.044   4.272   4.434 -0.2454  0.2419  0.1160
  305THF     C2 5394   2.055   4.136   4.461  0.3069  0.3602 -0.2900
  305THF     C3 5395   1.981   4.290   4.306 -0.6854 -0.7342  0.5455
  305THF     H4 5396   2.083   4.115   4.564  1.7390 -2.0933 -1.1055
  305THF     H5 5397   2.120   4.086   4.389 -0.7088 -1.0821 -0.2435
  305THF     H6 5398   1.951   4.392   4.282  1.2550 -0.3960 -0.7393
  305THF     H7 5399   2.055   4.270   4.228  0.4319  1.5854  0.9077
  305THF     C8 5400   1.870   4.188   4.317  0.0974  0.8001 -0.7024
  305THF     C9 5401   1.908   4.103   4.432 -0.5240  0.1833  0.3008
  305THF    H10 5402   1.850   4.128   4.228  0.1513 -2.3027  1.2482
  305THF    H11 5403   1.776   4.236   4.342 -0.0838 -0.3090  0.8777
  305THF    H12 5404   1.845   4.131   4.517  0.1651  1.5820  0.3794
  305THF    H13 5405   1.885   3.998   4.416 -0.3354 -0.0400  1.3797
  306THF     O1 5406   0.495   4.955   2.321 -0.3085 -0.5406 -0.2642
  306THF     C2 5407   0.401   4.956   2.209 -0.8645 -0.0367 -0.8949
  306THF     C3 5408   0.629   4.926   2.275 -0.4950 -0.5900  0.1362
  306THF     H4 5409   0.354   5.054   2.213 -1.0146 -0.1415  2.1699
  306THF     H5 5410   0.322   4.883   2.225 -0.7943  0.4168  2.0168
  306THF     H6 5411   0.698   5.008   2.258  2.0891 -2.5796  0.4148
  306THF     H7 5412   0.679   4.852   2.337  0.9240  0.4358  0.2611
  306THF     C8 5413   0.610   4.855   2.138 -0.5802  0.1647  0.0170
  306THF     C9 5414   0.486   4.932   2.088  1.0693 -0.2431 -0.3896
  306THF    H10 5415   0.587   4.749   2.146 -1.5105  0.1462 -2.0998
  306THF    H11 5416   0.688   4.860   2.062  0.1536  0.2246  0.7531
  306THF    H12 5417   0.514   5.030   2.050  1.1562  0.5017  1.5341
  306THF    H13 5418   0.430   4.891   2.003 -0.1554  0.4209  0.0651
  307THF     O1 5419   1.828   3.615   3.629 -0.0960  0.5004  0.4530
  307THF     C2 5420   1.772   3.689   3.526  0.8864  0.3010 -0.2726
  307THF     C3 5421   1.950   3.677   3.658 -0.4834  0.5568  0.1211
  307THF     H4 5422   1.736   3.780   3.575  2.2259  1.3532 -1.1520
  307THF     H5 5423   1.683   3.634   3.496 -0.4626  1.6503  1.0276
  307THF     H6 5424   1.924   3.767   3.713  2.4477  1.1236  0.7102
  307THF     H7 5425   2.012   3.629   3.733 -0.7222  0.0178 -0.0236
  307THF     C8 5426   2.009   3.711   3.529 -0.4385 -0.0063 -0.3281
  307THF     C9 5427   1.886   3.704   3.430  0.0252 -0.8027 -0.3024
  307THF    H10 5428   2.093   3.649   3.500 -2.1158 -1.2020 -3.0597
  307THF    H11 5429   2.056   3.810   3.528 -1.5557  0.5418 -0.4853
  307THF    H12 5430   1.870   3.798   3.377  0.8642  1.1281  2.6043
  307THF    H13 5431   1.892   3.620   3.361  0.2717 -0.5469 -0.5963
  308THF     O1 5432   1.326   5.041   4.289 -0.8882 -0.1577 -0.2668
  308THF     C2 5433   1.272   4.948   4.200 -0.2313  0.3433 -0.4295
  308THF     C3 5434   1.375   5.152   4.222 -0.4047  0.3028  0.4429
  308THF     H4 5435   1.201   4.881   4.248  1.3824 -0.4732  0.9450
  308THF     H5 5436   1.351   4.885   4.158 -0.9501 -0.5703 -0.4511
  308THF     H6 5437   1.359   5.245   4.277  1.3210  1.9188 -1.6005
  308THF     H7 5438   1.483   5.153   4.204 -0.9091  0.1732 -3.3155
  308THF     C8 5439   1.314   5.154   4.083  0.1615  0.7918 -0.1320
  308THF     C9 5440   1.212   5.037   4.093 -0.2771  0.2902  0.2241
  308THF    H10 5441   1.391   5.143   4.008 -0.6248 -1.2546 -0.6936
  308THF    H11 5442   1.255   5.244   4.065 -1.3098  0.0553  0.7715
  308THF    H12 5443   1.112   5.063   4.128  0.2877 -0.9916  3.0381
  308THF    H13 5444   1.202   4.997   3.992  1.4532  2.0853 -0.7263
  309THF     O1 5445   1.802   5.100   2.657  0.4524  0.0588 -0.4244
  309THF     C2 5446   1.766   5.235   2.680 -0.5182  0.8742  0.2347
  309THF     C3 5447   1.934   5.081   2.632 -0.8526 -1.1880 -0.0537
  309THF     H4 5448   1.741   5.237   2.786  0.8455  1.8308  0.5582
  309THF     H5 5449   1.679   5.257   2.618 -0.0531 -2.3738 -1.8223
  309THF     H6 5450   1.983   5.013   2.701  0.3567 -2.0695 -1.7172
  309THF     H7 5451   1.946   5.035   2.534 -3.6417 -3.0895  0.3776
  309THF     C8 5452   1.994   5.222   2.631 -0.1288  0.3754 -0.0859
  309THF     C9 5453   1.880   5.324   2.637  0.1108 -0.0372 -0.5735
  309THF    H10 5454   2.065   5.237   2.550  0.7925  1.3796  0.8703
  309THF    H11 5455   2.048   5.240   2.723 -1.1582  1.1095  0.3948
  309THF    H12 5456   1.901   5.404   2.708 -2.6033 -0.7055  1.1228
  309THF    H13 5457   1.868   5.373   2.541 -3.9541 -0.0273 -0.2391
  310THF     O1 5458   1.928   4.202   5.302 -0.4209  0.3313  0.5636
  310THF     C2 5459   1.844   4.203   5.187  0.8450  0.0617 -0.0009
  310THF     C3 5460   2.044   4.283   5.254  0.3132  0.2517  0.0249
  310THF     H4 5461   1.742   4.186   5.220 -0.3908  2.5306 -2.1883
  310THF     H5 5462   1.872   4.122   5.121 -2.8852  0.4253 -2.3128
  310THF     H6 5463   2.105   4.318   5.338  0.1443  0.4726  0.0570
  310THF     H7 5464   2.088   4.210   5.186 -0.0550 -0.6542  0.7367
  310THF     C8 5465   1.985   4.396   5.181  0.0929 -0.1268  0.4570
  310THF     C9 5466   1.853   4.342   5.132 -0.2550 -0.5378  0.1857
  310THF    H10 5467   2.064   4.423   5.111  0.7757  0.6983  1.5201
  310THF    H11 5468   1.967   4.484   5.241  0.1925 -0.1859  0.5730
  310THF    H12 5469   1.777   4.414   5.162  0.1883  0.1842 -0.3721
  310THF    H13 5470   1.840   4.350   5.024 -1.5484  1.1411  0.4143
  311THF     O1 5471   5.087   0.895   1.070  0.3667 -0.0300  0.4070
  311THF     C2 5472   5.169   0.795   1.119  0.1960 -0.1923 -0.0443
  311THF     C3 5473   5.153   0.935   0.954  0.0803  0.3691  0.7496
  311THF     H4 5474   5.148   0.703   1.066 -0.3148 -0.8570  1.2611
  311THF     H5 5475   5.151   0.778   1.226  1.0073  2.1391  0.5137
  311THF     H6 5476   5.140   0.854   0.882 -1.0852  1.6591 -0.5408
  311THF     H7 5477   5.108   1.026   0.914 -2.0873 -0.7537  0.4529
  311THF     C8 5478   5.294   0.963   0.992 -0.0606  0.4958  0.0224
  311THF     C9 5479   5.316   0.846   1.089 -0.2681  0.6896 -0.2487
  311THF    H10 5480   5.318   1.060   1.035 -3.2102  1.1112  0.6293
  311THF    H11 5481   5.362   0.947   0.908 -0.3938 -1.1416  0.0229
  311THF    H12 5482   5.390   0.775   1.051  1.9452  1.1922  2.7805
  311THF    H13 5483   5.380   0.864   1.176  0.8204 -1.8255 -0.4296
  312THF     O1 5484   5.066   3.610   2.545  0.7074  0.8583 -0.0498
  312THF     C2 5485   5.112   3.708   2.631  0.5721 -0.0272 -0.2972
  312THF     C3 5486   5.035   3.493   2.617 -0.1993  0.7124  0.0085
  312THF     H4 5487   5.089   3.808   2.593 -1.2268  0.1375  1.0698
  312THF     H5 5488   5.218   3.704   2.655 -0.0764  1.1626  3.3988
  312THF     H6 5489   4.975   3.427   2.554 -0.3833 -1.2328  2.0952
  312THF     H7 5490   5.130   3.443   2.635 -0.1343 -0.7905 -3.5878
  312THF     C8 5491   4.973   3.543   2.750  0.5612 -0.1387  0.2442
  312THF     C9 5492   5.038   3.682   2.765  0.1072  0.8744 -0.2316
  312THF    H10 5493   4.986   3.491   2.845 -0.0418 -1.0048 -0.1383
  312THF    H11 5494   4.867   3.546   2.728  0.4524 -0.0763  0.7677
  312THF    H12 5495   4.952   3.747   2.782 -2.1507 -1.3615 -2.1982
  312THF    H13 5496   5.108   3.672   2.848  0.9872  0.3556 -1.0124
  313THF     O1 5497   2.583   2.182   3.255  0.5532 -0.9063 -0.1401
  313THF     C2 5498   2.565   2.084   3.362  0.8684  0.4455  0.2579
  313THF     C3 5499   2.717   2.166   3.217 -0.1510  0.1185  0.1197
  313THF     H4 5500   2.549   1.980   3.334  0.9280 -0.4241  3.1944
  313THF     H5 5501   2.472   2.108   3.412  0.2291 -0.5303 -0.4315
  313THF     H6 5502   2.727   2.075   3.158  0.1358  0.4570 -0.3592
  313THF     H7 5503   2.749   2.249   3.154  1.0313 -0.5279 -0.1699
  313THF     C8 5504   2.801   2.157   3.350 -0.1985  0.0691 -0.2513
  313THF     C9 5505   2.689   2.095   3.444  0.3799  0.5336  0.1671
  313THF    H10 5506   2.838   2.252   3.389 -0.0580 -0.5255  1.1239
  313THF    H11 5507   2.895   2.102   3.341 -0.7128 -0.9353  0.3572
  313THF    H12 5508   2.714   1.994   3.479 -0.2568  0.5897  0.7987
  313THF    H13 5509   2.676   2.154   3.535 -0.3460 -0.4394  0.7208
  314THF     O1 5510   4.151   2.501   3.069  0.0613  0.0464 -0.0558
  314THF     C2 5511   4.118   2.409   3.173  0.3913 -0.2403  0.0510
  314THF     C3 5512   4.124   2.448   2.946  1.2468  0.3385  0.2031
  314THF     H4 5513   4.106   2.445   3.274 -0.1053 -1.6531  0.5266
  314THF     H5 5514   4.190   2.327   3.178  2.3410  1.3751 -0.1661
  314THF     H6 5515   4.087   2.517   2.869  0.5104  2.1208  2.0402
  314THF     H7 5516   4.210   2.394   2.909  0.3314 -0.7710 -0.3721
  314THF     C8 5517   4.020   2.337   2.973  0.1047  0.2807  0.0626
  314THF     C9 5518   3.989   2.344   3.123 -0.6907  0.2181 -0.0945
  314THF    H10 5519   4.055   2.241   2.937 -1.8522 -0.6461  0.5349
  314THF    H11 5520   3.933   2.356   2.911 -0.3201 -1.1227  0.2093
  314THF    H12 5521   3.910   2.416   3.139 -0.7671  0.2887 -0.7582
  314THF    H13 5522   3.960   2.253   3.175  0.8950  0.6625  1.6952
  315THF     O1 5523   4.200   0.001   5.051  0.1091 -0.2511 -0.3010
  315THF     C2 5524   4.270  -0.042   4.936  0.0192 -0.4537  0.5184
  315THF     C3 5525   4.196  -0.103   5.142 -0.3712  0.3706 -0.1775
  315THF     H4 5526   4.295   0.048   4.880 -0.4930  0.3706  1.5741
  315THF     H5 5527   4.207  -0.091   4.861  1.6676 -2.2396  0.2280
  315THF     H6 5528   4.185  -0.068   5.244 -3.0085  0.1586 -0.3255
  315THF     H7 5529   4.120  -0.180   5.124  0.4091 -0.9133  1.7158
  315THF     C8 5530   4.339  -0.162   5.135 -0.0671  0.2843  0.3637
  315THF     C9 5531   4.378  -0.139   4.985  0.0799  0.2903 -0.5883
  315THF    H10 5532   4.344  -0.267   5.163 -2.1254  0.4144  1.3870
  315THF    H11 5533   4.406  -0.110   5.203  0.4250  1.3283 -0.8873
  315THF    H12 5534   4.476  -0.092   4.979 -0.4447  1.6023  0.5518
  315THF    H13 5535   4.389  -0.232   4.930  1.5229  0.1919 -0.1779
  316THF     O1 5536   4.368   4.300   3.370  0.8692 -0.1476 -0.0268
  316THF     C2 5537   4.431   4.189   3.308  0.4706  0.3654  0.0029
  316THF     C3 5538   4.415   4.307   3.502  0.0380  0.3741 -0.1714
  316THF     H4 5539   4.428   4.202   3.200 -0.8867 -0.8167 -0.1284
  316THF     H5 5540   4.382   4.094   3.329  1.0142  0.1682  0.4423
  316THF     H6 5541   4.412   4.410   3.538 -3.0262 -0.6630  3.1897
  316THF     H7 5542   4.347   4.255   3.569 -1.4485  2.1027 -0.2428
  316THF     C8 5543   4.559   4.259   3.507 -0.8850  0.2055  0.1573
  316THF     C9 5544   4.568   4.197   3.367 -1.1455 -0.4622 -0.8242
  316THF    H10 5545   4.577   4.181   3.582 -0.0107 -0.4225 -0.6817
  316THF    H11 5546   4.616   4.349   3.528 -0.7202  1.0507 -3.3708
  316THF    H12 5547   4.634   4.261   3.308  0.0152 -1.9036 -1.1741
  316THF    H13 5548   4.628   4.106   3.374  1.3253  1.1443  0.5191
  317THF     O1 5549   1.281   0.762   5.376 -0.4047 -0.9164 -0.8374
  317THF     C2 5550   1.276   0.627   5.403 -0.5045  0.7613  1.0435
  317THF     C3 5551   1.375   0.837   5.455  0.2538 -0.1284 -0.4343
  317THF     H4 5552   1.255   0.562   5.318  0.1843 -0.5410  1.8376
  317THF     H5 5553   1.194   0.612   5.473  0.1353  1.5343  1.9880
  317THF     H6 5554   1.443   0.897   5.394  0.0535  2.1977  1.4666
  317THF     H7 5555   1.312   0.908   5.509  2.5157  1.7433 -0.1109
  317THF     C8 5556   1.447   0.732   5.544 -0.3250 -1.1476  0.2858
  317THF     C9 5557   1.400   0.602   5.478 -0.1559  0.2250 -0.6441
  317THF    H10 5558   1.411   0.740   5.647  1.1349 -0.1731  0.7523
  317THF    H11 5559   1.556   0.741   5.540 -0.3893 -0.6923 -0.7437
  317THF    H12 5560   1.479   0.557   5.417 -0.1828  0.3198 -0.7498
  317THF    H13 5561   1.380   0.521   5.548  0.3264  0.3969 -0.2979
  318THF     O1 5562   0.690   2.350   0.397  0.0833  0.0311  0.9021
  318THF     C2 5563   0.569   2.279   0.401 -0.9550  0.0519 -0.2321
  318THF     C3 5564   0.655   2.490   0.393 -0.0008 -0.0181 -0.1751
  318THF     H4 5565   0.566   2.254   0.507  1.1521  2.8617  0.6283
  318THF     H5 5566   0.577   2.187   0.344  1.0987  1.7689 -2.9377
  318THF     H6 5567   0.640   2.539   0.489  1.4553  1.9889 -0.8850
  318THF     H7 5568   0.725   2.542   0.326 -0.3653  0.6608 -0.0367
  318THF     C8 5569   0.530   2.503   0.316 -0.5739  0.4841 -0.3420
  318THF     C9 5570   0.466   2.380   0.366  0.6362 -0.1532  0.4722
  318THF    H10 5571   0.545   2.505   0.208  1.1056 -0.6972 -0.1618
  318THF    H11 5572   0.470   2.590   0.345  1.5590  1.5894  1.0659
  318THF    H12 5573   0.394   2.406   0.443 -1.0061  1.0982 -1.4111
  318THF    H13 5574   0.398   2.330   0.298  0.6179 -0.2607  0.5675
  319THF     O1 5575   2.826   1.240   0.368  0.1098  0.2696  0.3307
  319THF     C2 5576   2.719   1.143   0.374 -0.2430  0.8507 -0.2690
  319THF     C3 5577   2.893   1.211   0.248 -0.2770 -0.3697  0.1696
  319THF     H4 5578   2.628   1.203   0.368 -0.8974 -0.0422  0.5387
  319THF     H5 5579   2.726   1.095   0.471  1.0506  0.6511 -0.4362
  319THF     H6 5580   2.932   1.304   0.206 -1.4320  0.1837  0.3108
  319THF     H7 5581   2.984   1.155   0.272  1.6588  2.9592  1.3208
  319THF     C8 5582   2.797   1.129   0.158 -0.8068 -0.9701  0.0573
  319THF     C9 5583   2.725   1.040   0.254 -0.2526 -0.1952  0.7211
  319THF    H10 5584   2.846   1.076   0.076 -1.3039 -1.5195  0.1139
  319THF    H11 5585   2.733   1.198   0.104 -0.5693 -1.4851 -0.8970
  319THF    H12 5586   2.623   1.012   0.228 -0.4864  1.8801 -0.8903
  319THF    H13 5587   2.777   0.946   0.271 -0.3086 -0.5379 -0.8878
  320THF     O1 5588   2.673   4.483   3.447 -0.5912 -0.4874 -0.7212
  320THF     C2 5589   2.610   4.563   3.540 -0.1867 -0.8208 -0.4937
  320THF     C3 5590   2.703   4.572   3.340 -0.0701  0.3115  0.4233
  320THF     H4 5591   2.675   4.634   3.590 -1.8908  1.0836 -0.8681
  320THF     H5 5592   2.548   4.505   3.610 -1.2719 -0.5960 -1.2365
  320THF     H6 5593   2.795   4.622   3.371 -0.0652 -0.1663  1.2215
  320THF     H7 5594   2.723   4.518   3.248 -0.1482 -0.4427  0.8351
  320THF     C8 5595   2.581   4.662   3.319  0.0189  0.3821  0.1919
  320THF     C9 5596   2.513   4.649   3.451  0.8430 -0.0591 -0.1795
  320THF    H10 5597   2.515   4.619   3.243 -0.2797  1.9518 -0.4694
  320THF    H11 5598   2.602   4.766   3.293  0.2137 -0.0054 -1.3255
  320THF    H12 5599   2.489   4.748   3.490 -0.6877 -0.7300  0.6298
  320THF    H13 5600   2.422   4.594   3.431  1.4630 -0.5822 -1.6992
  321THF     O1 5601   3.040   1.797   3.173  0.0633 -0.1505 -0.0957
  321THF     C2 5602   2.908   1.798   3.219  0.0608 -0.9030 -0.0855
  321THF     C3 5603   3.061   1.668   3.123 -0.2636  0.6121  0.1543
  321THF     H4 5604   2.875   1.901   3.232  0.4628 -0.9892  1.9504
  321THF     H5 5605   2.913   1.775   3.326  1.7718  1.6668  0.4754
  321THF     H6 5606   3.146   1.655   3.057 -0.7947  2.3665 -0.9209
  321THF     H7 5607   3.079   1.599   3.205  1.2825  0.8352  0.0149
  321THF     C8 5608   2.922   1.628   3.059  0.8002 -0.7392 -0.3430
  321THF     C9 5609   2.820   1.713   3.128 -0.4444 -0.8633 -1.0327
  321THF    H10 5610   2.894   1.523   3.052 -2.8903  0.1634 -0.9643
  321THF    H11 5611   2.929   1.663   2.956 -0.9302 -2.2924 -1.0442
  321THF    H12 5612   2.765   1.776   3.057  0.1607  1.0145  0.0786
  321THF    H13 5613   2.749   1.649   3.180 -1.4294  0.2860 -0.9012
  322THF     O1 5614   0.719   2.729   2.186  0.0552  0.2598  0.0923
  322THF     C2 5615   0.669   2.864   2.191 -0.1275  0.1988 -0.1880
  322THF     C3 5616   0.866   2.741   2.198  1.1804  0.6256  0.3570
  322THF     H4 5617   0.566   2.874   2.223 -1.4558  1.4074 -4.2306
  322THF     H5 5618   0.672   2.914   2.094 -2.0241  1.5271  0.3914
  322THF     H6 5619   0.913   2.648   2.228  1.5631  1.0081  0.9669
  322THF     H7 5620   0.909   2.754   2.099  0.0437 -1.8113 -0.5431
  322THF     C8 5621   0.884   2.854   2.290 -0.2351 -1.1465  0.4652
  322THF     C9 5622   0.758   2.944   2.286  0.5376  0.0482  0.1322
  322THF    H10 5623   0.970   2.915   2.261 -0.6616 -1.4005 -1.5227
  322THF    H11 5624   0.908   2.825   2.392 -1.3444  1.3370  1.5163
  322THF    H12 5625   0.712   2.962   2.383 -0.1775  0.8114 -0.3368
  322THF    H13 5626   0.774   3.047   2.254 -1.5451  0.3845  0.0487
  323THF     O1 5627   4.335   1.938   0.122 -0.1803  0.4458 -0.4194
  323THF     C2 5628   4.201   1.938   0.081  0.1557 -0.5791 -0.3051
  323THF     C3 5629   4.377   1.800   0.114 -0.3846 -0.9542  0.0877
  323THF     H4 5630   4.186   1.925  -0.026  0.6360  3.5638 -1.0711
  323THF     H5 5631   4.154   2.030   0.117  1.2860  0.2577 -0.8963
  323THF     H6 5632   4.385   1.771   0.010 -2.3833  0.2405 -0.4521
  323THF     H7 5633   4.468   1.791   0.174  0.2488  1.4460 -0.3864
  323THF     C8 5634   4.262   1.728   0.189  0.2110 -0.5163 -0.8270
  323THF     C9 5635   4.144   1.821   0.164  0.3697  0.3510  1.0166
  323THF    H10 5636   4.285   1.731   0.296  0.2867 -0.5487 -0.8419
  323THF    H11 5637   4.251   1.623   0.162 -1.4873 -0.3821 -0.7512
  323THF    H12 5638   4.065   1.768   0.111  1.3691  0.9376 -1.1832
  323THF    H13 5639   4.100   1.853   0.258 -0.2495 -0.9684  1.1959
  324THF     O1 5640   2.064   1.474   2.512  0.0592  0.4283  0.1245
  324THF     C2 5641   2.014   1.344   2.549 -0.1157 -0.1684 -0.1781
  324THF     C3 5642   2.187   1.451   2.429  0.3495  0.3484  0.0662
  324THF     H4 5643   1.907   1.353   2.571 -0.2340  0.9575 -1.1178
  324THF     H5 5644   2.076   1.300   2.627  0.6874 -1.2938 -1.4116
  324THF     H6 5645   2.189   1.537   2.362 -3.1336 -0.0882 -0.8131
  324THF     H7 5646   2.280   1.461   2.485  0.0205 -0.5488  0.8021
  324THF     C8 5647   2.162   1.319   2.354  0.0305  0.2585 -0.5154
  324THF     C9 5648   2.038   1.258   2.426  0.5903  0.0615 -0.3669
  324THF    H10 5649   2.244   1.250   2.373 -1.2462 -0.9200  1.0290
  324THF    H11 5650   2.144   1.334   2.248  0.1163 -1.9503 -0.8737
  324THF    H12 5651   1.945   1.260   2.370  1.0879 -2.4829 -1.4057
  324THF    H13 5652   2.043   1.155   2.461  0.2050 -0.3326 -1.4496
  325THF     O1 5653   0.872   0.189   4.976  0.1177 -0.1651 -0.1158
  325THF     C2 5654   0.743   0.142   4.990  0.2279  0.4258  0.2941
  325THF     C3 5655   0.949   0.177   5.095  0.4001  0.5056  0.2454
  325THF     H4 5656   0.742   0.048   4.935  1.6179  0.4179  0.2477
  325THF     H5 5657   0.667   0.204   4.942  0.2640 -0.6569 -1.2051
  325THF     H6 5658   1.040   0.119   5.074  0.4733  1.3887 -2.3102
  325THF     H7 5659   0.981   0.276   5.128  2.1803  0.2138 -0.4448
  325THF     C8 5660   0.862   0.108   5.193  0.1233  0.3641  0.3532
  325THF     C9 5661   0.723   0.117   5.137 -0.4485 -0.3491 -0.0230
  325THF    H10 5662   0.856   0.152   5.293 -2.0668  0.9882  0.0025
  325THF    H11 5663   0.886   0.002   5.195 -3.0768 -0.4590  0.5961
  325THF    H12 5664   0.670   0.025   5.163 -0.2830 -0.2771  0.6000
  325THF    H13 5665   0.676   0.204   5.183  0.4573 -0.2083  0.6689
  326THF     O1 5666   3.328   1.525   5.036  0.6311  0.0429 -0.2502
  326THF     C2 5667   3.212   1.555   4.959 -0.1635 -0.7062  0.5060
  326THF     C3 5668   3.287   1.538   5.174  0.0362 -0.5040  0.0447
  326THF     H4 5669   3.210   1.529   4.854  0.7747 -0.1822  0.3519
  326THF     H5 5670   3.195   1.663   4.966  0.1724 -0.5929 -0.3574
  326THF     H6 5671   3.344   1.469   5.236  2.0068  0.8931 -0.1261
  326THF     H7 5672   3.311   1.638   5.210 -3.8459  0.8195 -0.4996
  326THF     C8 5673   3.136   1.511   5.186 -0.3668  0.3449  0.8033
  326THF     C9 5674   3.102   1.480   5.033 -0.0883  0.1778  0.0162
  326THF    H10 5675   3.084   1.598   5.227 -0.0463  0.2972  1.3240
  326THF    H11 5676   3.119   1.428   5.254  0.6592 -0.1350  0.4823
  326THF    H12 5677   3.112   1.378   4.999  0.5530  0.2674 -0.0611
  326THF    H13 5678   3.007   1.521   4.997 -0.8054 -2.3052 -1.1207
  327THF     O1 5679   3.257   1.860   0.973 -0.2428 -0.7486 -0.2324
  327THF     C2 5680   3.319   1.791   1.078 -0.5497  0.5757 -0.0795
  327THF     C3 5681   3.226   1.774   0.873  0.4020  0.0441  0.4773
  327THF     H4 5682   3.262   1.811   1.168 -1.6257 -0.7596 -0.4324
  327THF     H5 5683   3.421   1.829   1.082  0.0067 -0.4209 -2.5984
  327THF     H6 5684   3.121   1.745   0.880  0.7754 -3.4521 -3.8620
  327THF     H7 5685   3.248   1.818   0.776 -3.1358  3.8099  1.0657
  327THF     C8 5686   3.313   1.653   0.894 -0.1002 -0.4538 -0.2924
  327THF     C9 5687   3.326   1.641   1.042 -0.1113  0.8649  0.5091
  327THF    H10 5688   3.407   1.676   0.844 -0.5416  1.0089 -0.4935
  327THF    H11 5689   3.281   1.570   0.832 -0.8605 -0.2911 -0.1267
  327THF    H12 5690   3.248   1.582   1.091  0.8567  0.6404  1.8769
  327THF    H13 5691   3.418   1.586   1.065 -0.3847 -0.6884 -1.7830
  328THF     O1 5692   3.253   0.734   1.373  0.1832 -0.2163 -0.5186
  328THF     C2 5693   3.273   0.657   1.491  0.3319 -0.1696 -0.2196
  328THF     C3 5694   3.371   0.788   1.316 -0.4186  0.0667  0.6257
  328THF     H4 5695   3.247   0.553   1.473 -3.5902  0.2726  1.8634
  328THF     H5 5696   3.202   0.679   1.570  0.7111 -2.1046  0.7348
  328THF     H6 5697   3.369   0.771   1.209 -1.4682  0.2752  0.6011
  328THF     H7 5698   3.378   0.890   1.356 -0.7552  0.2359  0.2538
  328THF     C8 5699   3.480   0.707   1.383  0.7796  0.4745 -0.2597
  328THF     C9 5700   3.422   0.664   1.515 -0.5258  0.0660 -0.4371
  328THF    H10 5701   3.576   0.758   1.392  0.0188  1.5904  2.2081
  328THF    H11 5702   3.504   0.613   1.333  2.9248  0.0058  1.4912
  328THF    H12 5703   3.460   0.568   1.549  1.3009  0.3637 -1.5260
  328THF    H13 5704   3.446   0.729   1.598 -0.7671  0.4395 -0.6579
  329THF     O1 5705   1.275   0.757   1.821  0.6382  0.3234  0.2735
  329THF     C2 5706   1.298   0.893   1.789 -0.0802  0.1210  0.0592
  329THF     C3 5707   1.183   0.708   1.728  0.0861 -0.4137  0.1936
  329THF     H4 5708   1.355   0.899   1.696  1.1722 -3.4489  0.4179
  329THF     H5 5709   1.356   0.950   1.861  2.5865 -0.4288 -1.4858
  329THF     H6 5710   1.228   0.687   1.630  0.2543  3.0305 -0.5718
  329THF     H7 5711   1.130   0.620   1.766 -0.2734 -0.3026 -0.0532
  329THF     C8 5712   1.074   0.813   1.721 -0.2503  0.6129 -0.0984
  329THF     C9 5713   1.151   0.936   1.768  0.3728  0.0362  0.2484
  329THF    H10 5714   0.990   0.802   1.789  0.2489  2.8202  0.9833
  329THF    H11 5715   1.043   0.830   1.618 -1.6959 -2.5692 -0.3127
  329THF    H12 5716   1.124   1.029   1.718 -1.9461 -0.0419  1.2031
  329THF    H13 5717   1.107   0.957   1.866 -2.3890 -0.6811 -0.7323
  330THF     O1 5718   5.502   3.166   2.682 -0.5149 -0.4969 -0.2175
  330THF     C2 5719   5.569   3.178   2.805 -0.3254 -0.0323 -0.2994
  330THF     C3 5720   5.387   3.258   2.680 -0.3266  0.0272 -0.7142
  330THF     H4 5721   5.620   3.274   2.807 -0.0045 -0.1872 -0.6642
  330THF     H5 5722   5.638   3.095   2.823 -0.4279  0.1662  1.0806
  330THF     H6 5723   5.423   3.358   2.654 -3.6907  1.2254 -1.2176
  330THF     H7 5724   5.313   3.237   2.603 -0.8943 -1.0200  0.0872
  330THF     C8 5725   5.341   3.254   2.825  0.3645  0.0670 -0.2587
  330THF     C9 5726   5.442   3.170   2.894  0.0367 -0.3276  0.1464
  330THF    H10 5727   5.247   3.198   2.822  1.1136 -1.2192 -2.4402
  330THF    H11 5728   5.336   3.349   2.878  1.7216 -1.6963  3.3902
  330THF    H12 5729   5.464   3.198   2.997  0.3871  0.7978 -0.2214
  330THF    H13 5730   5.415   3.064   2.888  2.5704 -0.9857 -1.5993
  331THF     O1 5731   2.726   4.705   4.516  0.0254  0.3028  0.4422
  331THF     C2 5732   2.695   4.563   4.539  0.0634  0.7164 -0.2030
  331THF     C3 5733   2.867   4.715   4.553  0.7258  0.5069 -0.5381
  331THF     H4 5734   2.722   4.493   4.460 -1.7164  0.5537 -0.7259
  331THF     H5 5735   2.586   4.558   4.543  0.0740  1.1050  2.5255
  331THF     H6 5736   2.917   4.668   4.468  0.4453 -2.0138  0.5859
  331THF     H7 5737   2.900   4.819   4.553  1.2062  0.4370 -3.5679
  331THF     C8 5738   2.878   4.620   4.676  0.1743 -0.0136 -0.0259
  331THF     C9 5739   2.759   4.522   4.671 -0.4842 -0.2273  0.5853
  331THF    H10 5740   2.880   4.683   4.765 -1.7648 -0.3423  0.3067
  331THF    H11 5741   2.977   4.576   4.674  0.2417  0.1364 -0.0016
  331THF    H12 5742   2.791   4.418   4.681  2.5207  0.5267 -0.2043
  331THF    H13 5743   2.689   4.539   4.753 -0.6926  2.0920 -0.0067
  332THF     O1 5744   2.593   0.907   3.100  0.6770  0.1735 -0.1133
  332THF     C2 5745   2.488   0.936   3.193 -0.8781 -0.0720 -0.6446
  332THF     C3 5746   2.566   0.961   2.976 -0.2199  0.1557  0.2517
  332THF     H4 5747   2.530   0.997   3.273  0.9065 -2.1761  0.1508
  332THF     H5 5748   2.440   0.852   3.243  0.5917 -0.7192 -0.2411
  332THF     H6 5749   2.658   1.009   2.942 -0.0497 -0.3222  0.0427
  332THF     H7 5750   2.529   0.885   2.908 -0.2081  0.5385 -0.1849
  332THF     C8 5751   2.457   1.064   3.001  0.0010 -0.6447  0.7705
  332THF     C9 5752   2.383   1.012   3.114  0.1891 -0.3122  0.1496
  332THF    H10 5753   2.393   1.086   2.915  1.1233  1.5006  0.4265
  332THF    H11 5754   2.509   1.156   3.025 -1.3347 -0.1323  1.7853
  332THF    H12 5755   2.326   1.082   3.175 -2.1228 -1.5745 -0.4443
  332THF    H13 5756   2.313   0.937   3.078  0.1953 -1.5294  2.4976
  333THF     O1 5757   2.819   5.054   3.713  0.4620  0.1739 -0.6421
  333THF     C2 5758   2.904   5.121   3.618 -0.2161  0.2648 -0.9872
  333THF     C3 5759   2.802   4.923   3.664 -0.9349  0.7330 -0.5864
  333THF     H4 5760   2.940   5.220   3.646 -0.6028 -0.3437  1.9249
  333THF     H5 5761   2.864   5.125   3.516  0.8765  0.5738 -1.4262
  333THF     H6 5762   2.752   4.859   3.736  0.4846 -0.8082 -0.9073
  333THF     H7 5763   2.764   4.917   3.562 -1.2332 -1.3677 -0.3906
  333THF     C8 5764   2.954   4.894   3.645  0.2791  0.4390 -0.8816
  333THF     C9 5765   3.023   5.027   3.613 -0.5098 -0.1293  0.3039
  333THF    H10 5766   2.967   4.832   3.557  1.6915  0.5071 -0.7477
  333THF    H11 5767   2.993   4.859   3.740 -2.8203  1.7705  1.0156
  333THF    H12 5768   3.107   5.045   3.680 -0.7442 -1.9710  1.1456
  333THF    H13 5769   3.057   5.020   3.510 -1.1842 -0.6035  0.1083
  334THF     O1 5770   4.054   1.881   4.864  0.3829 -0.2050 -0.1338
  334THF     C2 5771   4.043   1.849   5.005 -0.7077  0.0368 -0.1414
  334THF     C3 5772   4.089   2.016   4.853 -0.1234  0.0358  0.3011
  334THF     H4 5773   4.142   1.816   5.037  0.5345  0.7786 -2.9605
  334THF     H5 5774   3.975   1.765   4.999 -1.5732  0.4973  2.1562
  334THF     H6 5775   4.197   2.025   4.863  0.7078 -3.1627 -3.3960
  334THF     H7 5776   4.064   2.068   4.760  1.6939  1.7264  0.6877
  334THF     C8 5777   3.994   2.072   4.964 -0.9524 -0.2691  0.3431
  334THF     C9 5778   3.998   1.978   5.074 -0.4492  0.0401 -0.8457
  334THF    H10 5779   3.897   2.078   4.916 -1.3225 -0.8569  1.0111
  334THF    H11 5780   4.017   2.176   4.990 -0.1990 -0.3799  0.1630
  334THF    H12 5781   4.074   2.020   5.140 -1.1375  1.1152 -0.7109
  334THF    H13 5782   3.898   1.982   5.117  0.0778 -0.1128  0.4217
  335THF     O1 5783   1.673   2.744   4.307 -0.1306  0.4140  0.0302
  335THF     C2 5784   1.604   2.727   4.177 -0.4137 -0.0728 -0.2147
  335THF     C3 5785   1.594   2.818   4.399 -0.9932 -0.3030  0.0329
  335THF     H4 5786   1.564   2.626   4.171 -0.7541 -0.0561  1.3020
  335THF     H5 5787   1.663   2.753   4.089  0.9948  1.3543  1.0785
  335THF     H6 5788   1.614   2.759   4.488 -0.3463 -0.8427 -0.4644
  335THF     H7 5789   1.629   2.921   4.405 -0.5980 -0.2919 -1.7803
  335THF     C8 5790   1.454   2.826   4.338 -0.2050  0.0348 -0.0474
  335THF     C9 5791   1.488   2.822   4.188 -0.5521  0.6287 -0.3137
  335THF    H10 5792   1.398   2.914   4.370 -0.6044  1.0332 -3.1787
  335THF    H11 5793   1.392   2.739   4.362 -0.7408  0.2973 -0.4740
  335THF    H12 5794   1.400   2.800   4.128  0.8003  1.3885 -2.7015
  335THF    H13 5795   1.527   2.918   4.154  0.4764 -0.3091 -1.9118
  336THF     O1 5796   4.793   1.536   3.727  0.0794 -0.2980 -0.4392
  336THF     C2 5797   4.779   1.484   3.862  0.6411 -0.1739 -0.0676
  336THF     C3 5798   4.885   1.647   3.727 -0.3331  0.0522 -0.0870
  336THF     H4 5799   4.828   1.388   3.871  3.2524  0.7736 -2.6566
  336THF     H5 5800   4.675   1.457   3.883  0.4107  1.2490  0.8318
  336THF     H6 5801   4.955   1.640   3.644 -0.1818  1.0436 -0.0605
  336THF     H7 5802   4.830   1.741   3.726  2.2290  1.6414 -0.1104
  336THF     C8 5803   4.945   1.646   3.867 -0.3576 -0.1987 -0.5672
  336THF     C9 5804   4.838   1.581   3.960  0.5751 -0.1001  0.7750
  336THF    H10 5805   4.982   1.743   3.900  2.8378 -1.3364 -0.4768
  336THF    H11 5806   5.030   1.578   3.871 -0.1297  0.1421  1.1037
  336THF    H12 5807   4.885   1.539   4.049  1.3948 -0.5059  0.1635
  336THF    H13 5808   4.769   1.659   3.995  1.2243  1.1877 -0.7145
  337THF     O1 5809   4.832   5.399   0.447 -0.5194  0.4825 -0.3766
  337THF     C2 5810   4.807   5.397   0.312 -0.0436  0.3277  0.0975
  337THF     C3 5811   4.752   5.502   0.512 -0.0970 -0.2097 -0.0618
  337THF     H4 5812   4.848   5.303   0.275  0.1408 -0.0812  1.2951
  337THF     H5 5813   4.850   5.482   0.259  2.6475 -0.4920  0.8127
  337THF     H6 5814   4.725   5.477   0.615  2.8667  2.0418  1.4023
  337THF     H7 5815   4.816   5.590   0.516  0.5861 -0.6317  4.8344
  337THF     C8 5816   4.632   5.509   0.410 -0.5978  0.0078  0.4224
  337THF     C9 5817   4.650   5.411   0.300 -0.8485 -0.2165  0.7105
  337THF    H10 5818   4.659   5.606   0.368  3.6724  0.4073  3.4297
  337THF    H11 5819   4.532   5.503   0.453 -1.1008  0.6020 -0.6339
  337THF    H12 5820   4.600   5.316   0.317  0.7114 -0.9664  1.2906
  337THF    H13 5821   4.624   5.446   0.200 -0.1942 -2.2551 -0.2188
  338THF     O1 5822   3.070   0.600   5.467 -0.2745  0.4173 -0.5160
  338THF     C2 5823   2.935   0.622   5.435 -0.2270  0.5602  0.3513
  338THF     C3 5824   3.081   0.654   5.593 -0.4751  0.4369 -0.4755
  338THF     H4 5825   2.874   0.551   5.491 -0.3663  0.1262 -0.3360
  338THF     H5 5826   2.901   0.605   5.332 -1.0046  1.3077  0.4675
  338THF     H6 5827   3.041   0.591   5.673 -1.8601  0.3761 -1.1961
  338THF     H7 5828   3.185   0.674   5.620 -0.8594  0.9217  0.7249
  338THF     C8 5829   3.009   0.788   5.595  0.2550  0.1867  0.1447
  338THF     C9 5830   2.918   0.775   5.476  0.0319 -0.7114 -0.8878
  338THF    H10 5831   3.081   0.866   5.573 -1.1085  1.0203 -1.5625
  338THF    H11 5832   2.957   0.811   5.688  1.2111  3.1325  0.0420
  338THF    H12 5833   2.817   0.810   5.495  0.3801  0.4446 -1.1039
  338THF    H13 5834   2.947   0.853   5.406 -2.7872  0.7746 -0.5460
  339THF     O1 5835   0.168   2.042   4.768 -0.1328  0.0895  0.2184
  339THF     C2 5836   0.039   1.991   4.798  0.2085 -0.6667  0.1169
  339THF     C3 5837   0.172   2.071   4.633  0.4310 -1.0096  0.1109
  339THF     H4 5838  -0.031   2.069   4.828  1.9499  0.7457  0.6505
  339THF     H5 5839   0.042   1.918   4.879  0.9448 -0.6934  0.0675
  339THF     H6 5840   0.124   2.168   4.616  0.2635 -0.9413  0.9210
  339THF     H7 5841   0.272   2.083   4.592  0.5879 -0.2634  0.6807
  339THF     C8 5842   0.101   1.951   4.565 -0.2402 -0.3114 -0.0284
  339THF     C9 5843  -0.004   1.925   4.667  0.0154  0.7938 -0.2100
  339THF    H10 5844   0.169   1.867   4.571  0.0066 -0.1336 -0.3165
  339THF    H11 5845   0.073   1.955   4.459  0.6226  0.9908 -0.2270
  339THF    H12 5846  -0.100   1.957   4.627 -1.4874 -1.1912  1.6007
  339THF    H13 5847  -0.005   1.818   4.683  0.6090  0.7109 -0.6764
  340THF     O1 5848   1.589   2.048   1.369  0.1060 -0.0335 -0.3042
  340THF     C2 5849   1.542   2.177   1.400 -0.7807 -0.1604 -0.5397
  340THF     C3 5850   1.491   1.989   1.285  0.1586 -0.0931  0.4445
  340THF     H4 5851   1.626   2.241   1.428 -1.5352 -0.4995  2.9618
  340THF     H5 5852   1.474   2.173   1.485  0.1833 -2.8201  0.1800
  340THF     H6 5853   1.549   1.936   1.209 -1.2323 -0.3379 -0.4932
  340THF     H7 5854   1.436   1.916   1.344  0.8523 -3.7922 -2.9781
  340THF     C8 5855   1.397   2.093   1.224  0.6986  0.3320  0.2475
  340THF     C9 5856   1.470   2.215   1.272  0.8568 -0.5545  0.1257
  340THF    H10 5857   1.296   2.087   1.265  1.4792  0.7942  2.4052
  340THF    H11 5858   1.382   2.089   1.116 -1.4163  0.8992  0.4736
  340THF    H12 5859   1.542   2.241   1.194 -1.6768  2.7794 -1.3169
  340THF    H13 5860   1.394   2.291   1.290 -1.1534 -2.2147 -0.9300
  341THF     O1 5861   3.746   4.587   1.534  0.1883  0.3932  1.0146
  341THF     C2 5862   3.632   4.503   1.564 -0.3788 -0.9576  0.2570
  341THF     C3 5863   3.810   4.649   1.643  0.6078 -0.3674  0.2339
  341THF     H4 5864   3.659   4.398   1.560 -2.2644 -1.4442 -1.0926
  341THF     H5 5865   3.553   4.516   1.490  1.9131  0.2825 -2.1293
  341THF     H6 5866   3.917   4.634   1.633  0.4313 -2.3127  0.9813
  341THF     H7 5867   3.781   4.754   1.638  1.7446 -0.0248  0.6658
  341THF     C8 5868   3.735   4.584   1.763 -1.3398  0.0775 -0.5969
  341THF     C9 5869   3.595   4.548   1.709  0.0650  0.4971  0.3617
  341THF    H10 5870   3.736   4.648   1.851  1.4550  1.1802 -1.3224
  341THF    H11 5871   3.784   4.491   1.789 -0.8021 -0.1564 -2.3208
  341THF    H12 5872   3.542   4.471   1.765  1.3494 -0.5903  0.1407
  341THF    H13 5873   3.522   4.629   1.711 -1.4909 -0.8606  0.3494
  342THF     O1 5874   4.899   1.500   0.192  0.1146  0.5141 -0.2631
  342THF     C2 5875   4.773   1.494   0.116 -0.3914  0.4158  0.2383
  342THF     C3 5876   4.851   1.496   0.326  0.1423  0.3230  0.4607
  342THF     H4 5877   4.738   1.391   0.114  0.5388  0.0997 -0.4462
  342THF     H5 5878   4.794   1.526   0.014  1.2583  1.3545  0.8187
  342THF     H6 5879   4.842   1.390   0.349 -1.3940 -0.0323 -1.5192
  342THF     H7 5880   4.920   1.538   0.400 -0.9731  1.0597  1.1146
  342THF     C8 5881   4.710   1.560   0.335  0.0386 -0.8195  0.2510
  342THF     C9 5882   4.682   1.596   0.190  0.4971 -0.4521 -0.2963
  342THF    H10 5883   4.717   1.652   0.393 -1.2395 -0.2054 -0.5294
  342THF    H11 5884   4.621   1.508   0.372  0.1597 -2.4208 -1.5397
  342THF    H12 5885   4.579   1.585   0.156  0.3579  0.6473 -0.2663
  342THF    H13 5886   4.722   1.696   0.168  1.0476 -0.5565  0.2162
  343THF     O1 5887   1.141   3.349   0.386  0.1569 -0.2998 -0.3843
  343THF     C2 5888   1.177   3.214   0.396 -0.4874 -0.4044 -0.0715
  343THF     C3 5889   1.019   3.368   0.456 -0.2283  0.2057 -0.1392
  343THF     H4 5890   1.282   3.206   0.367 -0.4053  0.8927 -0.2117
  343THF     H5 5891   1.127   3.150   0.324 -0.5797 -1.1982  0.6781
  343THF     H6 5892   0.996   3.474   0.466 -1.6530 -0.1283  0.3765
  343THF     H7 5893   0.945   3.316   0.396 -0.9077  1.3177 -0.2904
  343THF     C8 5894   1.043   3.289   0.582  0.5317  0.2187 -0.1016
  343THF     C9 5895   1.147   3.185   0.540 -0.2221  0.4427  0.0435
  343THF    H10 5896   0.948   3.240   0.604  1.9171 -1.5599  2.4955
  343THF    H11 5897   1.081   3.348   0.666  0.9894 -1.3728  0.8538
  343THF    H12 5898   1.237   3.198   0.599 -0.8054  2.5688  0.5605
  343THF    H13 5899   1.101   3.087   0.551  0.2984  0.1760 -0.1304
  344THF     O1 5900   4.720   2.560   2.438 -0.1377 -0.4730 -0.3911
  344THF     C2 5901   4.769   2.654   2.342 -0.0686 -0.7567 -0.4178
  344THF     C3 5902   4.581   2.587   2.442 -0.0821 -0.7339  0.5966
  344THF     H4 5903   4.864   2.615   2.303 -0.2628  1.7490 -3.7892
  344THF     H5 5904   4.780   2.756   2.379  0.3784 -0.8524 -0.2715
  344THF     H6 5905   4.516   2.524   2.504 -0.5020 -0.7215  0.1776
  344THF     H7 5906   4.554   2.687   2.476 -0.2020  0.1664 -1.9733
  344THF     C8 5907   4.548   2.574   2.292 -0.5140 -0.1603 -0.4510
  344THF     C9 5908   4.666   2.648   2.231  0.3110  0.8478 -0.2409
  344THF    H10 5909   4.451   2.621   2.275 -0.8117 -0.0407  1.4290
  344THF    H11 5910   4.547   2.476   2.245  2.9541 -0.4650 -0.1298
  344THF    H12 5911   4.707   2.592   2.146  0.4186 -2.7524  1.9524
  344THF    H13 5912   4.648   2.753   2.210 -0.7913  1.1874  2.1042
  345THF     O1 5913   4.329   3.621   1.990 -0.1499 -0.3963  0.4106
  345THF     C2 5914   4.329   3.748   1.920  0.5175 -0.4525 -0.2123
  345THF     C3 5915   4.294   3.646   2.124 -0.6234 -0.1245 -1.1689
  345THF     H4 5916   4.225   3.778   1.907  0.9206  1.4131  0.4847
  345THF     H5 5917   4.372   3.749   1.820 -1.1369 -1.3588 -0.9677
  345THF     H6 5918   4.186   3.636   2.138 -0.4995  0.0987  0.0261
  345THF     H7 5919   4.333   3.573   2.194 -0.1133  1.1876 -0.0594
  345THF     C8 5920   4.332   3.783   2.158 -0.3751  0.1517 -0.4668
  345THF     C9 5921   4.381   3.841   2.025 -0.9925 -0.4418  0.1942
  345THF    H10 5922   4.415   3.781   2.228 -0.2032  1.0978 -0.6260
  345THF    H11 5923   4.239   3.834   2.184 -2.2986 -3.4830  0.4429
  345THF    H12 5924   4.358   3.946   2.011  0.7977  0.0420  0.5617
  345THF    H13 5925   4.489   3.838   2.011 -1.1961  1.9098 -2.5731
  346THF     O1 5926   4.089   4.648   0.182  0.2492 -0.5315 -0.0366
  346THF     C2 5927   4.110   4.642   0.040  0.6369 -0.0339  0.1530
  346THF     C3 5928   4.061   4.518   0.226  0.2272  0.0152  0.0912
  346THF     H4 5929   4.214   4.658   0.010  1.2610 -0.9800  1.6961
  346THF     H5 5930   4.050   4.726   0.005 -0.5419 -0.4969  0.9876
  346THF     H6 5931   4.158   4.468   0.225  0.4318  0.3748  1.0491
  346THF     H7 5932   4.020   4.517   0.328  2.7194 -0.1671  1.1709
  346THF     C8 5933   3.977   4.451   0.114 -0.5770 -0.7075  0.1322
  346THF     C9 5934   4.052   4.507  -0.011  0.3382  0.1036  0.5467
  346THF    H10 5935   3.877   4.495   0.107  0.3522  1.1904 -3.6752
  346THF    H11 5936   3.975   4.343   0.109  0.6794 -0.8016  1.0868
  346THF    H12 5937   4.137   4.445  -0.038  0.9600  0.7189  1.0369
  346THF    H13 5938   3.976   4.518  -0.088  1.3097  1.0035 -0.3080
  347THF     O1 5939   2.221   1.008   1.602 -0.2310 -0.1209 -0.6966
  347THF     C2 5940   2.253   1.024   1.741  0.0061  0.3603  0.2618
  347THF     C3 5941   2.155   1.131   1.564  0.4510 -0.2887  0.2151
  347THF     H4 5942   2.348   1.078   1.749  1.1738 -1.7119  1.3491
  347THF     H5 5943   2.261   0.923   1.781  0.8889  0.4148  0.2586
  347THF     H6 5944   2.221   1.214   1.542  0.6474 -0.0391  1.6536
  347THF     H7 5945   2.094   1.113   1.476  2.1477  1.0587 -1.3097
  347THF     C8 5946   2.066   1.150   1.689 -0.3605 -0.3568 -0.3853
  347THF     C9 5947   2.136   1.094   1.806 -0.1598  0.3471  0.6694
  347THF    H10 5948   1.964   1.117   1.670 -1.1563  1.5871  0.2362
  347THF    H11 5949   2.054   1.257   1.706  1.0219 -0.5686  2.4724
  347THF    H12 5950   2.164   1.166   1.883  0.2679  1.3375 -0.3723
  347THF    H13 5951   2.086   1.011   1.855  2.2010 -1.1388  0.7002
  348THF     O1 5952   3.172   1.116   3.577  0.7049  0.6716  0.1634
  348THF     C2 5953   3.090   1.056   3.673 -0.1939 -0.5293 -1.1560
  348THF     C3 5954   3.221   1.224   3.636 -0.3384 -0.1586 -0.1912
  348THF     H4 5955   3.066   0.955   3.642 -1.6212 -0.8324  0.7294
  348THF     H5 5956   2.997   1.112   3.688 -0.8432 -2.0938  1.3120
  348THF     H6 5957   3.294   1.272   3.571 -0.5339 -0.5004 -0.6628
  348THF     H7 5958   3.140   1.295   3.654 -1.0193 -1.0165  0.2111
  348THF     C8 5959   3.275   1.161   3.773  0.5553 -1.4231  0.1971
  348THF     C9 5960   3.165   1.061   3.809  0.0113 -0.4007 -0.3799
  348THF    H10 5961   3.294   1.230   3.855 -0.6415 -2.4857  1.4078
  348THF    H11 5962   3.374   1.116   3.760  1.2193 -0.0407  0.2179
  348THF    H12 5963   3.203   0.963   3.836 -1.6730 -0.7176  1.0715
  348THF    H13 5964   3.095   1.091   3.888 -0.2874 -0.4006 -0.6426
  349THF     O1 5965   4.116   3.211   2.152  0.3121  0.4044  0.7549
  349THF     C2 5966   4.074   3.145   2.037  0.2715  0.8304 -0.3086
  349THF     C3 5967   4.174   3.332   2.107  0.1374 -0.5109 -0.3141
  349THF     H4 5968   3.977   3.182   2.003 -0.2656 -0.7285 -0.5446
  349THF     H5 5969   4.066   3.039   2.060  0.3393  0.3959 -2.1171
  349THF     H6 5970   4.118   3.422   2.134 -0.0344 -0.3783 -1.0859
  349THF     H7 5971   4.268   3.341   2.161 -0.6273 -1.9808  1.3736
  349THF     C8 5972   4.205   3.323   1.961  0.5360  0.2022 -0.0833
  349THF     C9 5973   4.173   3.177   1.931 -0.7466 -0.1447 -0.4629
  349THF    H10 5974   4.310   3.337   1.934  0.2884 -0.9657 -1.7887
  349THF    H11 5975   4.149   3.384   1.891 -2.2244  0.3603  2.1115
  349THF    H12 5976   4.129   3.183   1.831 -0.5576  1.7703 -0.4521
  349THF    H13 5977   4.255   3.106   1.926  0.5208  1.0864  1.6487
  350THF     O1 5978   1.795   4.914   4.372  0.3530  0.1368 -0.1750
  350THF     C2 5979   1.853   5.025   4.438 -0.7693  0.1542 -0.7078
  350THF     C3 5980   1.664   4.953   4.334 -0.4792  0.7996  0.2162
  350THF     H4 5981   1.891   5.096   4.364  3.0187 -1.2328 -0.3105
  350THF     H5 5982   1.943   4.999   4.493 -0.5979  1.5844 -0.2699
  350THF     H6 5983   1.673   5.007   4.240 -0.2912 -0.8174 -0.7310
  350THF     H7 5984   1.600   4.864   4.332 -0.4715  0.8116 -1.2549
  350THF     C8 5985   1.615   5.034   4.452  0.0491  0.2002 -0.1118
  350THF     C9 5986   1.737   5.093   4.523  0.2674  0.7750 -0.4047
  350THF    H10 5987   1.556   4.981   4.528  0.2622 -1.3243 -0.9650
  350THF    H11 5988   1.559   5.120   4.416  0.5669  1.5386  2.0715
  350THF    H12 5989   1.729   5.202   4.521 -1.0852  0.8418  2.6751
  350THF    H13 5990   1.745   5.059   4.627 -0.4205 -4.9235 -1.9036
  351THF     O1 5991   5.034   2.044   0.576  0.0473  0.1810 -0.4659
  351THF     C2 5992   5.128   2.106   0.493  0.3260  0.0588  0.4342
  351THF     C3 5993   4.913   2.040   0.516  0.3314 -0.4503  0.0286
  351THF     H4 5994   5.230   2.071   0.509  0.7341  1.7613  1.8653
  351THF     H5 5995   5.128   2.214   0.508  0.2572  0.2169 -0.6338
  351THF     H6 5996   4.849   1.966   0.565 -0.6163  0.2054 -0.1785
  351THF     H7 5997   4.862   2.136   0.526 -2.5699 -2.1006  3.9366
  351THF     C8 5998   4.948   1.997   0.373  0.1706  0.6415  0.0576
  351THF     C9 5999   5.080   2.076   0.349  0.0174  0.2470 -0.5312
  351THF    H10 6000   4.870   2.008   0.298 -0.1056 -2.2304 -0.1909
  351THF    H11 6001   4.963   1.889   0.382 -0.0041  0.7567  2.2041
  351THF    H12 6002   5.158   2.008   0.313  2.0119  0.7788  2.4313
  351THF    H13 6003   5.070   2.170   0.294 -0.3842  0.7980  0.4595
  352THF     O1 6004   2.685   2.272   0.720  0.2265 -0.4212 -0.5195
  352THF     C2 6005   2.788   2.366   0.759  0.1210  0.2518 -0.5844
  352THF     C3 6006   2.602   2.263   0.837  0.0801  0.3901 -0.7394
  352THF     H4 6007   2.739   2.463   0.755 -1.0592 -0.2576  0.6395
  352THF     H5 6008   2.871   2.359   0.688 -1.0495 -0.5827 -1.9154
  352THF     H6 6009   2.533   2.347   0.845  0.2316  0.3941  1.0306
  352THF     H7 6010   2.563   2.162   0.842 -0.0677  0.4818  0.1299
  352THF     C8 6011   2.699   2.271   0.961 -0.1164 -0.1026 -0.2666
  352THF     C9 6012   2.826   2.329   0.907  0.2063 -0.3372  0.1074
  352THF    H10 6013   2.720   2.171   1.000  0.5763  0.2128  0.1905
  352THF    H11 6014   2.670   2.330   1.048  3.1097  1.0851  0.1380
  352THF    H12 6015   2.853   2.417   0.964  1.5939  0.5938 -1.8815
  352THF    H13 6016   2.906   2.255   0.903 -1.1359 -1.7966 -1.7283
  353THF     O1 6017   1.441   1.281   0.441 -0.2356 -0.0338 -0.4628
  353THF     C2 6018   1.366   1.181   0.367 -0.7478 -0.2384  0.4074
  353THF     C3 6019   1.346   1.387   0.473  0.0583 -0.3611  0.3893
  353THF     H4 6020   1.397   1.082   0.401 -1.6491 -1.0489 -1.0579
  353THF     H5 6021   1.389   1.183   0.261 -2.3686 -0.8518  0.0174
  353THF     H6 6022   1.371   1.435   0.567 -1.3156  0.5940  0.2969
  353THF     H7 6023   1.345   1.458   0.391  1.9064 -1.4583 -0.6580
  353THF     C8 6024   1.203   1.317   0.487 -0.0303 -0.0618  0.0293
  353THF     C9 6025   1.223   1.203   0.389 -0.0183  0.0592  0.2305
  353THF    H10 6026   1.116   1.375   0.457 -2.2026 -2.4927  1.2635
  353THF    H11 6027   1.190   1.281   0.589 -1.6176  0.5012  0.0469
  353THF    H12 6028   1.164   1.119   0.426 -1.1775  0.5680 -0.4084
  353THF    H13 6029   1.181   1.240   0.296  1.1981  1.5035  0.2148
  354THF     O1 6030   3.088   5.156   4.196  0.3079  0.6081  0.5577
  354THF     C2 6031   2.988   5.117   4.293  0.1529  0.1893 -0.7806
  354THF     C3 6032   3.076   5.067   4.081  0.3732 -0.2866  0.1699
  354THF     H4 6033   2.902   5.181   4.275  0.5365  1.1096  0.5034
  354THF     H5 6034   3.021   5.137   4.395  1.0176 -0.1447 -0.9817
  354THF     H6 6035   3.039   5.128   3.999  2.1040  0.0583 -0.3902
  354THF     H7 6036   3.168   5.026   4.039  1.3719 -0.0577  2.0182
  354THF     C8 6037   2.967   4.962   4.123 -0.1884 -0.3651 -1.1512
  354THF     C9 6038   2.960   4.964   4.270  0.0861 -0.3380 -0.0349
  354THF    H10 6039   2.985   4.866   4.075  1.4266 -0.3975 -0.5371
  354THF    H11 6040   2.867   4.993   4.091 -0.7122  0.1212  0.7799
  354THF    H12 6041   2.865   4.931   4.310  0.3740  0.1458  1.0706
  354THF    H13 6042   3.041   4.900   4.306 -0.7210 -0.4925  1.5652
  355THF     O1 6043   1.629   1.574   0.939 -0.0964  0.6815  0.3472
  355THF     C2 6044   1.525   1.656   0.889 -0.1038  0.3032  0.5588
  355THF     C3 6045   1.720   1.646   1.022  0.7642 -0.1138  0.0903
  355THF     H4 6046   1.441   1.635   0.956 -2.8897  1.2024 -2.3696
  355THF     H5 6047   1.500   1.621   0.789  1.8641 -0.2736  0.2327
  355THF     H6 6048   1.679   1.637   1.123  0.6689  0.6234  0.1201
  355THF     H7 6049   1.824   1.613   1.022  0.9172  0.3000  1.7971
  355THF     C8 6050   1.699   1.793   0.972 -0.1042  0.3227 -0.1790
  355THF     C9 6051   1.570   1.807   0.895 -0.9595  0.1981  0.7873
  355THF    H10 6052   1.777   1.808   0.897  0.2200  0.7807  0.2462
  355THF    H11 6053   1.706   1.855   1.062 -1.3221  0.0566  0.1148
  355THF    H12 6054   1.495   1.878   0.928 -0.9732  1.2282 -1.3303
  355THF    H13 6055   1.589   1.837   0.793  2.1872 -3.5539  0.0220
  356THF     O1 6056   4.442   1.519   2.678 -0.1703  0.4796 -0.4169
  356THF     C2 6057   4.306   1.518   2.725 -0.2678  0.1688  0.5809
  356THF     C3 6058   4.512   1.579   2.783 -1.1109 -0.1637 -0.1364
  356THF     H4 6059   4.241   1.455   2.665 -0.5624  0.9663  0.0491
  356THF     H5 6060   4.284   1.622   2.700 -1.1730  0.3303  1.9516
  356THF     H6 6061   4.618   1.557   2.782 -1.3090 -1.1704 -0.1224
  356THF     H7 6062   4.492   1.684   2.762 -2.8994 -0.4873 -0.2647
  356THF     C8 6063   4.455   1.525   2.913  0.2066  0.2244  0.2304
  356THF     C9 6064   4.313   1.493   2.874 -0.3463  0.6926  0.1779
  356THF    H10 6065   4.467   1.601   2.989  1.0473 -0.3908  0.7343
  356THF    H11 6066   4.510   1.437   2.945  0.5754  0.2414 -0.3291
  356THF    H12 6067   4.293   1.387   2.892 -1.0941  0.7237 -0.4280
  356THF    H13 6068   4.252   1.561   2.933  2.5279  1.5512  2.4006
  357THF     O1 6069   5.293   1.754   1.282 -0.3978 -0.3598  0.2127
  357THF     C2 6070   5.166   1.813   1.307  0.7245 -0.2939 -0.0476
  357THF     C3 6071   5.303   1.647   1.373  0.3863 -0.2141 -0.4128
  357THF     H4 6072   5.138   1.878   1.224  1.6872  0.3750  0.1363
  357THF     H5 6073   5.164   1.877   1.395  0.3121  1.4578 -1.2884
  357THF     H6 6074   5.383   1.574   1.360  0.6315  0.0927 -0.6131
  357THF     H7 6075   5.306   1.680   1.477 -1.7507  1.6217 -0.8449
  357THF     C8 6076   5.173   1.564   1.344 -0.0881 -0.1296  1.1910
  357THF     C9 6077   5.075   1.682   1.310 -0.1508 -0.2836 -0.2738
  357THF    H10 6078   5.156   1.493   1.426  2.0949  0.1477  1.9536
  357THF    H11 6079   5.181   1.502   1.255 -1.3269 -3.7268  3.3477
  357THF    H12 6080   5.023   1.649   1.221  1.0565  0.3818 -1.2590
  357THF    H13 6081   4.996   1.701   1.383 -0.5694  1.1169 -1.0604
  358THF     O1 6082   2.107   1.280   5.454  0.2398  0.2143 -0.2222
  358THF     C2 6083   2.117   1.164   5.535 -0.1659  0.4967 -0.1086
  358THF     C3 6084   2.174   1.386   5.532  0.3219 -0.2202  0.5253
  358THF     H4 6085   2.093   1.074   5.479  3.3670 -1.6064  1.4202
  358THF     H5 6086   2.050   1.164   5.621  0.8923 -0.2156  0.7399
  358THF     H6 6087   2.204   1.474   5.477 -0.3247 -0.1756  0.2288
  358THF     H7 6088   2.098   1.404   5.609 -0.4151  0.8857 -0.4300
  358THF     C8 6089   2.292   1.315   5.587  0.1662 -0.0495 -0.2258
  358THF     C9 6090   2.256   1.165   5.581  0.1602  0.2479  0.1401
  358THF    H10 6091   2.333   1.343   5.684  1.3227 -3.1328  0.2900
  358THF    H11 6092   2.373   1.328   5.515 -1.5940  0.1900 -2.2744
  358THF    H12 6093   2.326   1.125   5.508 -0.5961  0.7524 -0.9089
  358THF    H13 6094   2.272   1.117   5.677  1.1151  0.7734  0.2521
  359THF     O1 6095   0.132   4.018   1.363 -0.0234  0.4901  0.2320
  359THF     C2 6096   0.014   3.937   1.382  0.3389 -0.1959  0.7251
  359THF     C3 6097   0.239   3.930   1.382 -0.1200  0.1474 -0.3231
  359THF     H4 6098  -0.008   3.879   1.292 -0.7706  0.4248  0.5798
  359THF     H5 6099  -0.074   4.001   1.388 -2.0407 -2.9090 -2.2463
  359THF     H6 6100   0.250   3.868   1.293 -0.7610  0.6948 -0.7935
  359THF     H7 6101   0.335   3.980   1.389  0.1937 -0.6519  1.8924
  359THF     C8 6102   0.204   3.847   1.502  1.0451 -0.2152 -0.9456
  359THF     C9 6103   0.051   3.841   1.485 -0.4240 -0.2752  0.1029
  359THF    H10 6104   0.234   3.908   1.587 -0.3724  1.6058 -1.6805
  359THF    H11 6105   0.241   3.745   1.513  0.9130 -0.1966 -0.2703
  359THF    H12 6106   0.030   3.737   1.458 -2.1197 -0.7089  2.6859
  359THF    H13 6107  -0.001   3.868   1.578 -0.2751  2.4351 -0.5203
  360THF     O1 6108   4.565   4.707   1.314  0.0620 -0.5574  0.1685
  360THF     C2 6109   4.588   4.799   1.423  1.1231 -0.2980 -0.5288
  360THF     C3 6110   4.444   4.637   1.314  0.0722 -0.3591 -0.4337
  360THF     H4 6111   4.603   4.904   1.397 -2.5226 -0.1987 -3.0792
  360THF     H5 6112   4.676   4.755   1.468 -0.4994 -1.9910  1.1721
  360THF     H6 6113   4.401   4.624   1.214 -1.1424  1.2576 -0.1759
  360THF     H7 6114   4.474   4.536   1.342 -0.2276 -0.5670 -0.8479
  360THF     C8 6115   4.361   4.711   1.418 -0.1885 -1.1579  0.3635
  360THF     C9 6116   4.462   4.784   1.506  0.2637 -0.4320  0.4261
  360THF    H10 6117   4.303   4.646   1.484 -1.0314 -0.5270  0.2545
  360THF    H11 6118   4.290   4.781   1.374 -0.5498 -1.3981  0.5625
  360THF    H12 6119   4.426   4.885   1.526 -0.5282 -0.7620  0.7116
  360THF    H13 6120   4.500   4.728   1.592  1.2964  1.2526  1.1315
  361THF     O1 6121   0.003   3.106   0.690  0.6359  0.2272 -0.3738
  361THF     C2 6122   0.054   3.175   0.570  0.3362  0.2274 -0.0477
  361THF     C3 6123   0.119   3.044   0.750  0.1972  0.2850  0.1120
  361THF     H4 6124   0.080   3.273   0.609  1.5542  0.8365 -2.2097
  361THF     H5 6125  -0.021   3.187   0.491 -1.6992 -2.0604  1.3748
  361THF     H6 6126   0.183   3.111   0.807  0.6357 -0.6080  0.6873
  361THF     H7 6127   0.094   2.959   0.814 -3.1247  0.0327 -1.2807
  361THF     C8 6128   0.186   2.986   0.627 -0.3156 -0.6166  0.2188
  361THF     C9 6129   0.176   3.095   0.518  1.0550 -0.3270  0.5355
  361THF    H10 6130   0.128   2.899   0.596 -3.0540  1.0742  0.1671
  361THF    H11 6131   0.291   2.966   0.648  0.2499  0.8735 -1.0089
  361THF    H12 6132   0.258   3.167   0.519 -0.1287  1.0661  1.3113
  361THF    H13 6133   0.137   3.062   0.422  2.0259 -0.5998  0.2186
  362THF     O1 6134   4.668   0.736   0.771 -0.3891  0.0976  0.4245
  362THF     C2 6135   4.578   0.698   0.866  1.0114 -0.6152  0.1806
  362THF     C3 6136   4.800   0.691   0.808  0.1578  0.1215 -0.6418
  362THF     H4 6137   4.545   0.595   0.854  1.1767 -0.6418 -0.0566
  362THF     H5 6138   4.486   0.756   0.864 -0.3115 -2.3210  3.4744
  362THF     H6 6139   4.803   0.583   0.796  0.7760  0.1626 -0.8866
  362THF     H7 6140   4.880   0.733   0.747 -0.2296  1.7671 -0.0813
  362THF     C8 6141   4.798   0.724   0.956 -0.0747 -0.2357 -0.2446
  362THF     C9 6142   4.652   0.714   1.003 -0.3032 -0.3489  0.6539
  362THF    H10 6143   4.833   0.826   0.975 -2.1469  0.5359 -0.2915
  362THF    H11 6144   4.859   0.657   1.016 -3.4644 -0.9403  2.7717
  362THF    H12 6145   4.644   0.627   1.069 -1.0188  0.4816  1.6985
  362THF    H13 6146   4.617   0.803   1.054  0.9805 -0.5493  1.9537
  363THF     O1 6147   3.570   0.585   4.497  0.2115  0.0585  0.1525
  363THF     C2 6148   3.625   0.584   4.362 -0.8803  0.5847  0.2532
  363THF     C3 6149   3.503   0.459   4.520 -0.4359 -0.2853  0.4596
  363THF     H4 6150   3.708   0.651   4.339 -0.6481  0.5471  0.9617
  363THF     H5 6151   3.551   0.608   4.286 -0.6088  0.9514  0.1038
  363THF     H6 6152   3.506   0.434   4.627 -0.0112 -0.1385  0.4829
  363THF     H7 6153   3.404   0.451   4.476  0.0297 -0.7164 -0.5362
  363THF     C8 6154   3.600   0.361   4.455  0.0173 -0.6239  0.1377
  363THF     C9 6155   3.659   0.436   4.339 -1.0057  0.6804 -0.1225
  363THF    H10 6156   3.558   0.262   4.437 -0.9326 -0.2075  0.0053
  363THF    H11 6157   3.685   0.350   4.523  0.1598  1.9879  0.4731
  363THF    H12 6158   3.765   0.418   4.321 -1.0017  1.1532 -0.6158
  363THF    H13 6159   3.609   0.412   4.245 -1.2232  0.7725 -0.0315
  364THF     O1 6160   3.931   3.223   2.551 -0.2810  0.0645 -0.0015
  364THF     C2 6161   3.956   3.320   2.645 -0.2429  0.2963  0.4479
  364THF     C3 6162   3.997   3.254   2.437 -0.6850 -0.3921  0.8491
  364THF     H4 6163   4.039   3.304   2.713  1.5120 -1.2830 -1.9077
  364THF     H5 6164   3.862   3.322   2.700 -0.3743 -1.6027  0.3607
  364THF     H6 6165   4.105   3.238   2.444 -0.7168 -0.5827  0.8988
  364THF     H7 6166   3.951   3.199   2.355 -0.6892 -1.2770  1.4337
  364THF     C8 6167   3.986   3.405   2.429 -0.2659  0.0101  0.0182
  364THF     C9 6168   3.978   3.455   2.567  0.1188 -0.2011 -0.7048
  364THF    H10 6169   3.897   3.411   2.367  0.7827  1.4337 -1.4364
  364THF    H11 6170   4.058   3.455   2.364 -0.5500  1.3466  0.7088
  364THF    H12 6171   4.071   3.503   2.595 -0.2305 -0.3998  0.9108
  364THF    H13 6172   3.901   3.531   2.582 -0.5162 -0.6491 -1.5584
  365THF     O1 6173   1.275   0.738   2.992  0.3141  0.6815  0.4339
  365THF     C2 6174   1.361   0.742   2.879 -0.7142  0.2646  0.1160
  365THF     C3 6175   1.302   0.616   3.061  0.6436 -0.5992  0.8478
  365THF     H4 6176   1.368   0.847   2.849 -1.2037  0.0489 -0.7643
  365THF     H5 6177   1.317   0.682   2.800 -1.2037  0.8943 -0.0958
  365THF     H6 6178   1.236   0.611   3.147  0.5270  0.7191  0.8626
  365THF     H7 6179   1.265   0.539   2.992 -1.0219 -0.1837  1.2317
  365THF     C8 6180   1.451   0.625   3.064  0.3788 -0.4370  0.8911
  365THF     C9 6181   1.482   0.673   2.928 -0.6824 -0.3023  0.2036
  365THF    H10 6182   1.497   0.529   3.087  2.6320  0.0140 -1.2872
  365THF    H11 6183   1.481   0.699   3.138  3.3068  0.5847 -1.1048
  365THF    H12 6184   1.567   0.740   2.917 -0.2916 -0.7423  0.4848
  365THF    H13 6185   1.498   0.592   2.857  3.5498  0.1597  0.3412
  366THF     O1 6186   4.134   3.561   0.112  0.0144  0.4616 -0.2185
  366THF     C2 6187   4.075   3.693   0.128 -0.1550  0.4432  0.4754
  366THF     C3 6188   4.283   3.557   0.103  0.0075 -0.3270 -0.7956
  366THF     H4 6189   3.975   3.703   0.170 -0.0341  0.4139  0.7693
  366THF     H5 6190   4.085   3.751   0.036  0.4252  2.7972  1.9492
  366THF     H6 6191   4.334   3.482   0.164 -0.3156  0.1924  0.1224
  366THF     H7 6192   4.316   3.546  -0.000  0.2099  1.9148 -1.0115
  366THF     C8 6193   4.321   3.697   0.161  0.1480 -0.5162  0.2516
  366THF     C9 6194   4.187   3.756   0.225  0.1177  0.0935  0.1114
  366THF    H10 6195   4.341   3.770   0.083  1.6288 -0.2044  0.8801
  366THF    H11 6196   4.403   3.706   0.232 -0.3649  0.3399  0.7517
  366THF    H12 6197   4.171   3.719   0.327  1.9623 -1.7339 -0.1956
  366THF    H13 6198   4.191   3.864   0.234  0.4398 -0.0368  2.0803
  367THF     O1 6199   5.385   0.438   2.823 -0.3496 -0.5678 -0.4611
  367THF     C2 6200   5.378   0.490   2.958  0.2652 -0.1546 -0.1470
  367THF     C3 6201   5.304   0.512   2.733  0.4601 -0.1654 -0.1954
  367THF     H4 6202   5.472   0.474   3.010  0.1671 -1.2243 -0.2890
  367THF     H5 6203   5.298   0.449   3.019 -1.8605  1.1364 -1.9093
  367THF     H6 6204   5.323   0.487   2.629 -0.3226 -0.8217 -0.1965
  367THF     H7 6205   5.196   0.497   2.743  0.0465  2.9505  1.0715
  367THF     C8 6206   5.324   0.651   2.773  0.4810  0.4143 -0.1228
  367THF     C9 6207   5.350   0.635   2.922 -0.9734  0.0596 -0.5007
  367THF    H10 6208   5.235   0.714   2.771  0.0033 -0.1255  1.7032
  367THF    H11 6209   5.411   0.694   2.723  1.0252 -0.5070  0.0153
  367THF    H12 6210   5.439   0.698   2.931 -2.3780  1.9610  1.1519
  367THF    H13 6211   5.279   0.673   2.996 -0.8401  0.0793 -0.3812
  368THF     O1 6212   0.955   4.074   4.444  0.9305 -0.3824 -0.5429
  368THF     C2 6213   0.902   3.952   4.391 -0.8910  0.4824  0.2472
  368THF     C3 6214   0.851   4.131   4.519  0.0583 -0.5266 -0.0421
  368THF     H4 6215   0.987   3.884   4.398 -0.4198  1.2162  3.0469
  368THF     H5 6216   0.858   3.963   4.292  0.4081  2.0242 -0.2036
  368THF     H6 6217   0.885   4.213   4.584 -1.2753  2.9515 -3.3656
  368THF     H7 6218   0.777   4.195   4.471  2.6529  0.9620 -2.3706
  368THF     C8 6219   0.784   4.017   4.594 -0.2921  0.2193  0.4440
  368THF     C9 6220   0.798   3.901   4.498  0.1864 -0.7246  0.4244
  368THF    H10 6221   0.693   4.048   4.645  0.5531  1.6152  1.1507
  368THF    H11 6222   0.853   4.008   4.678 -0.8910  1.5989  1.1245
  368THF    H12 6223   0.843   3.813   4.545  3.0421  1.7921  2.7642
  368THF    H13 6224   0.706   3.879   4.444 -1.0677  0.5672  1.9324
  369THF     O1 6225   3.944   4.957   3.472  0.2842  0.2074  0.2750
  369THF     C2 6226   4.021   4.977   3.357  0.2477 -0.0556  0.4722
  369THF     C3 6227   3.815   5.013   3.463  0.1902  0.2045  0.6621
  369THF     H4 6228   4.099   4.902   3.365  0.1805  0.0175  2.1560
  369THF     H5 6229   4.052   5.082   3.351  0.1751 -0.0216  0.6876
  369THF     H6 6230   3.749   4.929   3.483  0.8969 -0.7832 -0.9723
  369THF     H7 6231   3.794   5.079   3.547  2.9599  1.2168  0.6341
  369THF     C8 6232   3.796   5.052   3.318 -0.2476  0.6426  0.8707
  369THF     C9 6233   3.908   4.976   3.245 -0.0928  0.3751 -0.3404
  369THF    H10 6234   3.817   5.155   3.290  3.5861 -0.3738 -0.6238
  369THF    H11 6235   3.702   5.020   3.272  0.2714 -1.9496  1.4593
  369THF    H12 6236   3.881   4.872   3.228 -2.7717  1.3705 -3.1638
  369THF    H13 6237   3.937   5.020   3.149 -0.7724 -1.3466 -1.3822
  370THF     O1 6238   3.846   0.069   0.662 -0.1143 -0.0324  0.2470
  370THF     C2 6239   3.822   0.201   0.614  0.4039 -0.1986 -0.0280
  370THF     C3 6240   3.769   0.051   0.786 -0.4562 -0.8830  0.6769
  370THF     H4 6241   3.718   0.197   0.582  0.1546 -1.3978  0.8612
  370THF     H5 6242   3.892   0.227   0.535  0.8511 -1.5989 -0.1261
  370THF     H6 6243   3.665   0.038   0.754 -1.2581  2.8783  1.3143
  370THF     H7 6244   3.793  -0.047   0.828  2.9780 -0.9682 -1.1167
  370THF     C8 6245   3.801   0.179   0.856  0.6707  0.2444  0.2702
  370THF     C9 6246   3.838   0.276   0.744  0.0428  0.0378  0.2764
  370THF    H10 6247   3.885   0.164   0.924  0.4383 -1.8886  0.1459
  370THF    H11 6248   3.713   0.199   0.918  0.1865  1.8714 -0.8830
  370THF    H12 6249   3.768   0.359   0.730  0.4327  0.2115 -0.7024
  370THF    H13 6250   3.928   0.335   0.762 -0.4875  1.3871 -1.2507
  371THF     O1 6251   3.209   3.589   3.712  0.6171 -0.3127 -0.0404
  371THF     C2 6252   3.138   3.698   3.646  0.3185  0.0232 -0.8095
  371THF     C3 6253   3.345   3.622   3.708 -0.2594  0.3185  0.0066
  371THF     H4 6254   3.037   3.708   3.686  0.3790 -0.9287 -0.3673
  371THF     H5 6255   3.137   3.697   3.537 -1.7591  2.8644 -0.9246
  371THF     H6 6256   3.378   3.586   3.805  1.8265 -0.7562 -1.0148
  371THF     H7 6257   3.411   3.574   3.635  0.6299 -0.1107  1.0691
  371THF     C8 6258   3.355   3.770   3.683  0.2957 -0.6276  0.3732
  371THF     C9 6259   3.215   3.817   3.693 -0.9249  0.3078 -0.2224
  371THF    H10 6260   3.388   3.780   3.579  3.4238  1.6537  1.3920
  371THF    H11 6261   3.417   3.822   3.756  0.2606  0.6999 -0.5041
  371THF    H12 6262   3.193   3.837   3.798  2.5283  1.7916  0.3376
  371THF    H13 6263   3.181   3.902   3.634  0.3049  0.8175 -0.2132
  372THF     O1 6264   4.074   1.828   3.191 -0.2622  0.4334  0.2281
  372THF     C2 6265   4.125   1.871   3.066  0.3111  0.4251 -0.2932
  372THF     C3 6266   4.182   1.812   3.283 -0.5393 -0.3243  0.1981
  372THF     H4 6267   4.083   1.963   3.025 -0.1956 -0.3718 -1.6178
  372THF     H5 6268   4.127   1.800   2.983 -0.4518  0.2949 -0.2038
  372THF     H6 6269   4.141   1.831   3.383  0.2993  3.4613 -0.0019
  372THF     H7 6270   4.236   1.718   3.281  2.8162  1.4416 -0.2536
  372THF     C8 6271   4.288   1.913   3.241  0.0664  0.1596 -0.5426
  372THF     C9 6272   4.272   1.908   3.088  0.0657  1.0483 -0.5218
  372THF    H10 6273   4.385   1.875   3.272 -0.4525 -0.7499  0.0143
  372THF    H11 6274   4.272   2.012   3.285  1.7354  0.0621  0.3493
  372THF    H12 6275   4.305   1.998   3.036  3.2127  0.1290 -0.3652
  372THF    H13 6276   4.340   1.827   3.063  0.9263  1.3637  0.7179
  373THF     O1 6277   2.857   1.386   3.267 -0.5362 -0.0958  0.4683
  373THF     C2 6278   2.940   1.390   3.386  0.2703 -0.2659  0.4399
  373THF     C3 6279   2.806   1.264   3.252  0.1888  0.4854  0.4485
  373THF     H4 6280   2.932   1.482   3.444 -0.1045 -1.4862  2.3911
  373THF     H5 6281   3.044   1.393   3.353  0.6566 -1.7388  1.4384
  373THF     H6 6282   2.715   1.252   3.193 -1.1152  0.6546  2.3260
  373THF     H7 6283   2.885   1.203   3.209 -0.4489 -0.1862  0.2089
  373THF     C8 6284   2.785   1.217   3.394  1.0512  1.3234 -0.2944
  373THF     C9 6285   2.907   1.263   3.465  0.1565 -0.1602 -0.1866
  373THF    H10 6286   2.771   1.109   3.407  0.9284  1.5603  1.8586
  373THF    H11 6287   2.693   1.260   3.433 -0.4949 -3.0134  1.5011
  373THF    H12 6288   2.902   1.275   3.574 -0.1013 -0.0869 -0.2067
  373THF    H13 6289   2.989   1.194   3.444 -0.6722 -0.8478 -1.2399
  374THF     O1 6290   5.490   0.740   2.305 -0.2607  0.5234 -0.4866
  374THF     C2 6291   5.617   0.693   2.327 -0.4557  0.2036  0.0049
  374THF     C3 6292   5.406   0.643   2.361 -0.0604  0.1754  0.4532
  374THF     H4 6293   5.652   0.716   2.428  2.2027 -0.8894 -0.6039
  374THF     H5 6294   5.681   0.751   2.261  0.1167 -0.4528 -0.0295
  374THF     H6 6295   5.394   0.650   2.469  1.1974 -3.5417  0.9842
  374THF     H7 6296   5.308   0.648   2.313 -0.1470 -0.0551  0.6088
  374THF     C8 6297   5.471   0.510   2.333 -0.2402  0.4830  0.0125
  374THF     C9 6298   5.613   0.550   2.292 -0.1207 -0.1287 -0.2455
  374THF    H10 6299   5.426   0.456   2.250  1.4997 -2.6753  0.9205
  374THF    H11 6300   5.460   0.435   2.412 -2.0108  0.0169 -0.6375
  374THF    H12 6301   5.698   0.499   2.335  1.2852  0.2047 -2.4605
  374THF    H13 6302   5.613   0.526   2.185 -1.4664  0.1657 -0.3370
  375THF     O1 6303   2.996   0.085   0.450 -0.3276 -0.2233 -0.1962
  375THF     C2 6304   3.008   0.079   0.597 -0.4879  0.1921 -0.5572
  375THF     C3 6305   2.947   0.217   0.425 -0.0832 -0.0992 -0.0874
  375THF     H4 6306   3.110   0.063   0.633 -0.1594  1.7296 -0.7093
  375THF     H5 6307   2.934   0.005   0.627 -1.6573  1.5425  0.0107
  375THF     H6 6308   3.036   0.279   0.415  0.6658 -1.0275  0.6543
  375THF     H7 6309   2.877   0.223   0.341  1.1256 -1.3181 -1.2375
  375THF     C8 6310   2.877   0.264   0.548 -0.9523  0.8746 -0.2008
  375THF     C9 6311   2.969   0.216   0.657  0.3835  0.1911 -0.1306
  375THF    H10 6312   2.773   0.230   0.545 -0.7507  0.2815 -0.5813
  375THF    H11 6313   2.876   0.373   0.556  0.3990  0.8974 -0.2048
  375THF    H12 6314   3.060   0.271   0.676  0.2724  0.0482  0.9097
  375THF    H13 6315   2.907   0.211   0.747 -0.5542  0.6175 -0.7310
  376THF     O1 6316   5.136   3.658   4.748  0.3382 -0.1124  0.3842
  376THF     C2 6317   5.027   3.724   4.810 -0.0027  0.0739  0.4125
  376THF     C3 6318   5.132   3.524   4.778 -0.1208  0.4999  0.1324
  376THF     H4 6319   4.999   3.817   4.759  0.6873  0.4921  0.7846
  376THF     H5 6320   5.051   3.752   4.912  0.8197  0.1590  0.2018
  376THF     H6 6321   5.169   3.465   4.694  1.9131  0.5742  0.9102
  376THF     H7 6322   5.202   3.515   4.861 -0.5068  1.3237  0.5560
  376THF     C8 6323   4.996   3.486   4.826 -0.0360  0.0744 -0.6294
  376THF     C9 6324   4.918   3.616   4.811  0.6725 -0.0846 -0.2547
  376THF    H10 6325   4.984   3.447   4.927  0.0234  1.8311  0.0917
  376THF    H11 6326   4.951   3.408   4.763 -2.0465 -0.1858  1.0181
  376THF    H12 6327   4.859   3.620   4.719  1.0848 -0.4683 -0.5385
  376THF    H13 6328   4.839   3.631   4.885  0.9732  1.5202 -0.2116
  377THF     O1 6329   3.416   4.032   2.021  0.2140 -0.0997 -0.3599
  377THF     C2 6330   3.369   3.924   1.931  0.1118  0.4667  0.1610
  377THF     C3 6331   3.346   4.148   1.983  0.0074 -0.4484 -0.1598
  377THF     H4 6332   3.412   3.829   1.963 -0.3975 -0.0865 -0.7555
  377THF     H5 6333   3.410   3.941   1.832 -2.0204  1.8534 -0.5429
  377THF     H6 6334   3.334   4.225   2.059  2.7957  0.3468 -0.4031
  377THF     H7 6335   3.406   4.200   1.908 -1.2386  1.1731 -0.0827
  377THF     C8 6336   3.211   4.101   1.916 -0.0525 -0.5802  0.4903
  377THF     C9 6337   3.215   3.954   1.907 -0.2435  0.1581 -0.3699
  377THF    H10 6338   3.194   4.150   1.820  1.9328  2.2004  1.4468
  377THF    H11 6339   3.129   4.130   1.982  0.1655 -0.8919  0.9073
  377THF    H12 6340   3.152   3.919   1.989  0.1190  0.0513 -0.1340
  377THF    H13 6341   3.183   3.916   1.811  1.5908  0.5144 -1.1659
  378THF     O1 6342   5.282   0.063   4.310  0.3522 -0.5864 -0.0182
  378THF     C2 6343   5.287  -0.070   4.359  0.2938  0.9095  0.0852
  378THF     C3 6344   5.244   0.067   4.174  0.4456  0.3901  0.3782
  378THF     H4 6345   5.262  -0.066   4.464 -0.3570 -2.8124  0.1841
  378THF     H5 6346   5.387  -0.108   4.339  0.2599  1.8285 -2.1265
  378THF     H6 6347   5.203   0.165   4.152 -1.0407  0.1957  2.0329
  378THF     H7 6348   5.321   0.047   4.100  0.1491  1.7035 -0.3039
  378THF     C8 6349   5.140  -0.045   4.175 -0.0073  0.4053 -0.4110
  378THF     C9 6350   5.198  -0.151   4.268  0.0706 -0.4658 -0.1432
  378THF    H10 6351   5.118  -0.080   4.074  0.3729  1.1030 -0.7450
  378THF    H11 6352   5.049   0.006   4.208 -0.1202 -1.4109  2.3833
  378THF    H12 6353   5.113  -0.202   4.313 -0.3162  0.0078 -0.3285
  378THF    H13 6354   5.258  -0.223   4.212 -0.0718 -1.0186  0.3987
  379THF     O1 6355   0.867   3.683   2.250  0.6777 -0.2909  0.0525
  379THF     C2 6356   0.777   3.603   2.162  0.0950 -0.2406  0.1072
  379THF     C3 6357   0.916   3.591   2.342 -0.7545  0.6750 -0.3117
  379THF     H4 6358   0.822   3.585   2.064 -1.5797 -0.8002 -0.5979
  379THF     H5 6359   0.680   3.649   2.142  1.0270  2.2958  1.1249
  379THF     H6 6360   0.997   3.545   2.286  0.1560  2.4332 -0.5157
  379THF     H7 6361   0.956   3.643   2.429 -2.0061  1.8191 -0.3873
  379THF     C8 6362   0.805   3.496   2.374  0.1310 -0.2711  0.4030
  379THF     C9 6363   0.739   3.476   2.238 -0.0221  0.1293  0.1702
  379THF    H10 6364   0.735   3.537   2.447 -0.7118 -0.0456 -0.5158
  379THF    H11 6365   0.855   3.411   2.421  0.9834  0.6547  1.2153
  379THF    H12 6366   0.786   3.392   2.186 -0.1666  0.0867  0.1070
  379THF    H13 6367   0.632   3.455   2.239  0.2255 -1.2082  0.2370
  380THF     O1 6368   3.451   1.282   1.440  0.0197  0.3842  0.3079
  380THF     C2 6369   3.550   1.183   1.454  0.3824 -0.2592  1.0916
  380THF     C3 6370   3.528   1.399   1.418 -0.3422 -0.2121 -0.0174
  380THF     H4 6371   3.599   1.176   1.356 -2.8615  0.5770 -0.7222
  380THF     H5 6372   3.516   1.082   1.479 -1.2496  0.0752  0.3219
  380THF     H6 6373   3.574   1.400   1.319 -2.3952  2.0511 -1.0570
  380THF     H7 6374   3.463   1.486   1.416  0.4497  0.4036  0.4012
  380THF     C8 6375   3.628   1.387   1.539 -0.2653  0.4198 -0.0539
  380THF     C9 6376   3.639   1.237   1.562  0.7066 -0.9685  0.3522
  380THF    H10 6377   3.583   1.440   1.623  3.3062  3.0527  0.4551
  380THF    H11 6378   3.722   1.441   1.527 -1.0686  1.9042  0.0547
  380THF    H12 6379   3.734   1.198   1.527  1.3108  0.4937  0.2999
  380THF    H13 6380   3.606   1.214   1.664  0.7167  0.8101  0.8008
  381THF     O1 6381   2.941   0.625   3.236 -0.4873  0.5178  0.3030
  381THF     C2 6382   2.823   0.699   3.213  0.0143  0.7017 -0.4114
  381THF     C3 6383   3.015   0.695   3.337  0.4443  0.2228  0.2454
  381THF     H4 6384   2.747   0.662   3.282  1.4774 -0.0687  0.8458
  381THF     H5 6385   2.798   0.681   3.108  0.3612  0.0298 -0.3824
  381THF     H6 6386   2.978   0.675   3.438 -0.7305  1.8661  0.1778
  381THF     H7 6387   3.122   0.672   3.338  0.5159  0.3032 -1.8217
  381THF     C8 6388   2.991   0.838   3.297  0.7662  0.1678  0.4436
  381THF     C9 6389   2.849   0.844   3.242  0.5039  0.2339 -0.2047
  381THF    H10 6390   3.067   0.862   3.221  0.3712 -0.2307 -0.0859
  381THF    H11 6391   2.999   0.908   3.380  1.0260 -1.7247  2.0721
  381THF    H12 6392   2.778   0.874   3.319  0.9625  0.2088  0.2336
  381THF    H13 6393   2.835   0.895   3.147  1.2784  1.1897  0.1732
  382THF     O1 6394   5.013   3.628   4.280  0.1031  0.3970 -0.2972
  382THF     C2 6395   5.001   3.593   4.416  0.3939  0.3694 -0.4436
  382THF     C3 6396   5.021   3.511   4.202 -0.3493  0.3257 -0.2369
  382THF     H4 6397   4.938   3.669   4.462  1.3691  0.8181  0.1808
  382THF     H5 6398   5.100   3.604   4.460  0.1417  2.2067 -0.2273
  382THF     H6 6399   4.954   3.517   4.117 -0.1729 -0.3021 -0.4297
  382THF     H7 6400   5.119   3.517   4.153 -0.0529 -2.3702 -0.1499
  382THF     C8 6401   5.021   3.393   4.295 -0.3868  0.8899  0.4367
  382THF     C9 6402   4.952   3.445   4.418  0.2693 -0.2713 -0.5243
  382THF    H10 6403   5.121   3.362   4.323  0.0811  0.5201 -1.4896
  382THF    H11 6404   4.997   3.296   4.251  3.2562 -0.3123  0.7734
  382THF    H12 6405   4.844   3.431   4.410  0.2118 -0.0610 -0.1096
  382THF    H13 6406   4.980   3.388   4.507 -0.4107 -0.4721 -0.4351
  383THF     O1 6407   5.262   0.815   0.248  0.3719  0.2551 -0.0227
  383THF     C2 6408   5.228   0.923   0.162  0.6049 -0.5797  0.0167
  383THF     C3 6409   5.221   0.688   0.197 -0.1938 -0.0698 -0.2479
  383THF     H4 6410   5.291   1.010   0.180  4.8807 -3.7193  1.9534
  383THF     H5 6411   5.124   0.951   0.179  0.1250 -1.5427 -1.1909
  383THF     H6 6412   5.274   0.604   0.242  2.5360  1.3714 -0.5167
  383THF     H7 6413   5.114   0.676   0.213 -0.4141  0.9713 -0.8309
  383THF     C8 6414   5.261   0.710   0.046  0.5519  0.3027 -1.1796
  383THF     C9 6415   5.233   0.859   0.020  0.2923  0.2897 -0.5865
  383THF    H10 6416   5.202   0.645  -0.018 -4.6402  1.6189  1.6923
  383THF    H11 6417   5.366   0.678   0.042 -0.3666 -3.2509 -0.1802
  383THF    H12 6418   5.308   0.900  -0.047  1.2998 -0.1787  0.2295
  383THF    H13 6419   5.135   0.877  -0.026 -0.5025 -0.5450  0.7105
  384THF     O1 6420   4.428   2.310   1.183 -0.7503 -0.0321  0.3325
  384THF     C2 6421   4.321   2.222   1.162  0.3918 -0.1400 -0.5411
  384THF     C3 6422   4.460   2.293   1.324 -0.2287 -0.9325  0.6500
  384THF     H4 6423   4.330   2.171   1.066  2.1441  1.4958 -1.3224
  384THF     H5 6424   4.235   2.287   1.172  0.8467  0.2387  1.4061
  384THF     H6 6425   4.557   2.330   1.356 -0.2281 -1.8489  1.7569
  384THF     H7 6426   4.398   2.366   1.378  0.6691  0.4236 -0.0945
  384THF     C8 6427   4.430   2.157   1.368  0.8011 -0.0908  0.2762
  384THF     C9 6428   4.310   2.126   1.282  0.4756  0.2525  0.0916
  384THF    H10 6429   4.415   2.155   1.475 -0.4300  0.6484  0.1360
  384THF    H11 6430   4.518   2.098   1.344  0.8507  0.1135 -0.0556
  384THF    H12 6431   4.306   2.023   1.246  1.2376 -0.1346  1.0706
  384THF    H13 6432   4.214   2.145   1.329  0.9375  0.8486  0.8055
  385THF     O1 6433   0.002   5.079   0.105  0.0215 -0.3008 -0.0038
  385THF     C2 6434  -0.122   5.149   0.109 -0.0763  0.3004  1.0652
  385THF     C3 6435   0.085   5.135   0.207 -0.2355 -0.4499  0.9543
  385THF     H4 6436  -0.197   5.109   0.178  0.4583 -2.6391  0.1045
  385THF     H5 6437  -0.174   5.145   0.013  1.2192  0.6257  0.3299
  385THF     H6 6438   0.057   5.099   0.306  1.9537  0.7362  2.0747
  385THF     H7 6439   0.189   5.107   0.193 -0.0374  0.7426 -0.2039
  385THF     C8 6440   0.072   5.283   0.174  0.0340 -0.9560  0.2125
  385THF     C9 6441  -0.078   5.294   0.133 -0.5857  1.0499  0.3467
  385THF    H10 6442   0.139   5.301   0.091 -0.0234  0.2515  0.4071
  385THF    H11 6443   0.100   5.347   0.258 -0.2575  1.8722 -1.6802
  385THF    H12 6444  -0.142   5.322   0.216 -0.1285  1.1540  0.6701
  385THF    H13 6445  -0.087   5.369   0.054 -3.1617 -0.9813 -1.4346
  386THF     O1 6446   2.317   4.208   2.048  0.4448 -0.0760 -0.5031
  386THF     C2 6447   2.377   4.219   2.179 -0.1620  0.0683  0.8505
  386THF     C3 6448   2.180   4.175   2.071 -0.0019 -0.8114 -0.5899
  386THF     H4 6449   2.469   4.277   2.173 -0.7033  0.8900  0.3539
  386THF     H5 6450   2.383   4.117   2.217  1.4288  0.3929  1.5190
  386THF     H6 6451   2.119   4.171   1.981 -1.0434  1.7212 -0.1092
  386THF     H7 6452   2.179   4.077   2.117 -3.2669  0.5247  2.7467
  386THF     C8 6453   2.142   4.273   2.180  0.0926  0.3106  0.2445
  386THF     C9 6454   2.272   4.303   2.249 -0.3293 -0.6744 -0.2681
  386THF    H10 6455   2.074   4.229   2.253  0.6682 -0.4295  0.3466
  386THF    H11 6456   2.100   4.365   2.139  2.8521  1.4786 -0.2467
  386THF    H12 6457   2.294   4.409   2.232 -2.5778 -0.5447 -3.0677
  386THF    H13 6458   2.274   4.291   2.358 -1.2557  3.3165  0.3418
  387THF     O1 6459   2.228   0.244   2.800  0.5272  0.1788  0.2148
  387THF     C2 6460   2.230   0.158   2.683  0.4871 -0.0153 -0.2849
  387THF     C3 6461   2.305   0.173   2.893 -0.6675  0.5310  0.0251
  387THF     H4 6462   2.326   0.182   2.636 -0.1439  1.0303 -1.0560
  387THF     H5 6463   2.143   0.186   2.625 -0.2195 -0.3092  0.6073
  387THF     H6 6464   2.406   0.191   2.856 -0.3904  0.0962  0.5496
  387THF     H7 6465   2.293   0.202   2.998  2.6802 -0.0917  0.7130
  387THF     C8 6466   2.276   0.029   2.870 -0.1155  0.3551 -0.1165
  387THF     C9 6467   2.222   0.017   2.736 -0.6732  0.3279  0.5217
  387THF    H10 6468   2.208  -0.006   2.948  0.8425 -0.4205  0.3828
  387THF    H11 6469   2.372  -0.021   2.876  0.8805  2.2059  0.1891
  387THF    H12 6470   2.283  -0.048   2.674 -1.5039  0.9309 -0.9871
  387THF    H13 6471   2.119  -0.021   2.737 -0.3739 -0.4999  0.2673
  388THF     O1 6472   4.111   4.888   0.697  0.4935 -0.7735 -0.2851
  388THF     C2 6473   4.245   4.835   0.672 -0.1272 -0.1295 -0.4602
  388THF     C3 6474   4.110   4.931   0.834 -0.1623  0.1229  0.0860
  388THF     H4 6475   4.285   4.876   0.579  1.7710  5.8688  2.4797
  388THF     H5 6476   4.240   4.727   0.679  0.2908 -0.2223 -1.4109
  388THF     H6 6477   4.117   5.039   0.839  0.3568  0.0815  0.4207
  388THF     H7 6478   4.020   4.902   0.888 -0.2232  1.0328  0.4832
  388THF     C8 6479   4.237   4.884   0.902  0.2116 -0.1669 -0.0960
  388THF     C9 6480   4.332   4.869   0.791  0.2889  0.6673 -0.2345
  388THF    H10 6481   4.222   4.788   0.951  0.9154  0.4668  1.4239
  388THF    H11 6482   4.270   4.960   0.974  1.0683  0.7371 -1.4006
  388THF    H12 6483   4.380   4.965   0.771 -0.3681  0.5028 -2.8950
  388THF    H13 6484   4.406   4.792   0.816 -0.5853 -0.3504 -0.7442
  389THF     O1 6485   2.415   4.508   0.802 -0.1346 -0.4172 -0.2105
  389THF     C2 6486   2.294   4.572   0.843  0.0177  0.2067 -0.5045
  389THF     C3 6487   2.426   4.396   0.892 -0.7860  0.5939  0.2780
  389THF     H4 6488   2.214   4.511   0.802  1.4304 -1.7053 -0.5818
  389THF     H5 6489   2.291   4.666   0.788 -1.9948 -0.5771 -1.8415
  389THF     H6 6490   2.351   4.321   0.868 -1.2177  1.2221 -0.3790
  389THF     H7 6491   2.524   4.348   0.889  0.1833  2.5260 -0.3338
  389THF     C8 6492   2.411   4.470   1.026  0.7524 -0.1356  0.1284
  389THF     C9 6493   2.311   4.575   0.995 -0.1997  0.1713 -0.8053
  389THF    H10 6494   2.504   4.527   1.037 -0.0928  1.1811  0.6932
  389THF    H11 6495   2.403   4.399   1.108  2.4577  1.1568  1.4975
  389THF    H12 6496   2.215   4.558   1.044 -0.7497  1.6221 -1.3346
  389THF    H13 6497   2.335   4.674   1.034  2.5190 -0.6258 -0.2235
  390THF     O1 6498   2.231   5.421   5.273 -0.2634  0.0157  0.4756
  390THF     C2 6499   2.370   5.393   5.250  0.2900  0.2841  0.6744
  390THF     C3 6500   2.158   5.298   5.279 -0.4733 -0.2572 -0.1182
  390THF     H4 6501   2.434   5.478   5.271 -0.4855  1.4478 -1.3924
  390THF     H5 6502   2.394   5.361   5.149 -0.2989 -2.1734  1.2314
  390THF     H6 6503   2.066   5.313   5.336 -0.8809  1.1777 -1.0863
  390THF     H7 6504   2.150   5.249   5.181  1.8659 -1.4167  0.2087
  390THF     C8 6505   2.250   5.212   5.361 -0.1641 -0.6522  0.1358
  390THF     C9 6506   2.392   5.272   5.338  0.1737 -0.2869 -0.4521
  390THF    H10 6507   2.243   5.109   5.326 -0.7331 -2.1100  4.0123
  390THF    H11 6508   2.224   5.220   5.467 -0.3626 -0.1656  0.0553
  390THF    H12 6509   2.440   5.305   5.431 -1.1250  0.8701 -0.1653
  390THF    H13 6510   2.458   5.200   5.290  0.3536  1.1470 -2.4774
  391THF     O1 6511   4.732   0.042   3.016 -0.1184  0.0590  0.3115
  391THF     C2 6512   4.626   0.123   3.062  0.2094 -0.4576  0.1781
  391THF     C3 6513   4.678  -0.056   2.937  0.1086  0.5807 -0.2904
  391THF     H4 6514   4.662   0.212   3.114 -1.0412  1.0091 -1.3559
  391THF     H5 6515   4.573   0.063   3.136 -0.8113  1.4524  1.0807
  391THF     H6 6516   4.765  -0.076   2.874  1.0272  1.2589  0.7339
  391THF     H7 6517   4.656  -0.133   3.010 -0.4433  1.6442  0.6897
  391THF     C8 6518   4.564   0.018   2.859 -0.1537 -0.4876 -0.0428
  391THF     C9 6519   4.549   0.156   2.930 -0.5280  0.2208 -0.1930
  391THF    H10 6520   4.476  -0.047   2.854  0.9839 -2.0213 -0.8182
  391THF    H11 6521   4.586   0.048   2.757 -0.8969  0.6772  0.1232
  391THF    H12 6522   4.595   0.236   2.872 -0.4975  0.5875  0.3245
  391THF    H13 6523   4.447   0.182   2.959  0.2714  0.8858  2.2840
  392THF     O1 6524   0.513   5.135   1.132  0.5202 -0.3862 -0.2904
  392THF     C2 6525   0.532   5.124   1.280 -0.5411  0.0728  0.3994
  392THF     C3 6526   0.374   5.136   1.102  0.6816 -0.1955 -0.0702
  392THF     H4 6527   0.629   5.168   1.306 -0.4384  0.9975 -1.3587
  392THF     H5 6528   0.522   5.023   1.319  2.6852 -1.2200 -1.6880
  392THF     H6 6529   0.350   5.175   1.004  0.9578  0.5910  0.1639
  392THF     H7 6530   0.326   5.038   1.111  0.6944 -0.3744 -1.6442
  392THF     C8 6531   0.308   5.217   1.211 -0.4117  0.2412  0.3225
  392THF     C9 6532   0.411   5.216   1.329 -0.1537 -0.4119  0.9099
  392THF    H10 6533   0.208   5.187   1.243  0.0433 -2.2369 -0.3526
  392THF    H11 6534   0.294   5.321   1.183  2.1194  0.6400  0.2490
  392THF    H12 6535   0.463   5.310   1.340 -3.7330  2.0848 -1.2781
  392THF    H13 6536   0.385   5.189   1.432  1.2230 -1.1837  1.0763
  393THF     O1 6537   0.357   1.441   3.606 -0.1299  0.9242 -0.1682
  393THF     C2 6538   0.376   1.556   3.688  0.9880  0.5114 -0.1073
  393THF     C3 6539   0.219   1.432   3.559  0.0824 -0.0268 -0.1291
  393THF     H4 6540   0.484   1.567   3.700  0.8559  0.7774  0.8815
  393THF     H5 6541   0.326   1.557   3.785  1.7672 -0.4400  0.3146
  393THF     H6 6542   0.207   1.377   3.465 -0.7811  0.3181 -0.2290
  393THF     H7 6543   0.157   1.375   3.628 -0.7324  0.9634 -0.0199
  393THF     C8 6544   0.170   1.580   3.549 -0.6817  0.0564  0.0391
  393THF     C9 6545   0.295   1.647   3.591 -0.9314 -0.4316 -0.0270
  393THF    H10 6546   0.096   1.607   3.624  1.6426  3.3241  1.3855
  393THF    H11 6547   0.127   1.612   3.454 -0.9149  0.9610  0.4455
  393THF    H12 6548   0.351   1.662   3.498 -0.1748  2.9192  0.8319
  393THF    H13 6549   0.274   1.748   3.627 -0.1409  0.4675 -1.9015
  394THF     O1 6550   0.152   4.009   3.352 -0.0576  0.0376 -0.6247
  394THF     C2 6551   0.073   3.898   3.312 -0.4091 -0.0106  0.4162
  394THF     C3 6552   0.244   3.975   3.455 -0.3392  1.4358  0.0468
  394THF     H4 6553   0.102   3.876   3.210  2.4186  1.8374  0.7020
  394THF     H5 6554  -0.029   3.935   3.322  0.2901  1.6599  1.9132
  394THF     H6 6555   0.348   4.006   3.457  0.3376 -0.4817 -1.8401
  394THF     H7 6556   0.202   4.001   3.552  1.0979 -1.2313  1.4990
  394THF     C8 6557   0.252   3.829   3.466 -0.7495  0.8920  0.4480
  394THF     C9 6558   0.115   3.786   3.407  0.3124  0.3157  0.0252
  394THF    H10 6559   0.270   3.789   3.566  2.1408  1.1310  0.1252
  394THF    H11 6560   0.323   3.790   3.392 -2.2167 -0.1876 -0.4375
  394THF    H12 6561   0.117   3.687   3.362  0.9815  0.8483 -1.1638
  394THF    H13 6562   0.046   3.782   3.492  0.9491  1.0005  0.5970
  395THF     O1 6563   0.841   0.655   4.795  0.5003  0.2005  0.0035
  395THF     C2 6564   0.793   0.529   4.865 -0.1964 -0.2943  0.1590
  395THF     C3 6565   0.853   0.744   4.902  0.1781 -0.1139 -0.6704
  395THF     H4 6566   0.822   0.442   4.805  0.6600  1.9985 -2.9900
  395THF     H5 6567   0.685   0.523   4.876 -0.1846 -0.2114  0.3230
  395THF     H6 6568   0.904   0.836   4.871  1.3171 -0.2393  0.7412
  395THF     H7 6569   0.754   0.780   4.929  0.4624  0.9822 -1.0332
  395THF     C8 6570   0.917   0.675   5.014  0.5139 -0.1049 -0.1044
  395THF     C9 6571   0.860   0.540   5.005  0.3039  0.5949  0.1001
  395THF    H10 6572   0.889   0.726   5.106  2.0336  1.9270 -0.6627
  395THF    H11 6573   1.026   0.667   5.020  0.4707  0.0180  1.0992
  395THF    H12 6574   0.931   0.458   5.012 -0.0932  0.2949  0.8045
  395THF    H13 6575   0.793   0.526   5.091  0.0438  0.4780 -0.1204
  396THF     O1 6576   2.011   2.184   1.179  0.2869  0.2366  0.5499
  396THF     C2 6577   2.138   2.147   1.239 -0.4091  0.4293  0.3952
  396THF     C3 6578   1.907   2.088   1.206  0.0401 -0.3107  0.3973
  396THF     H4 6579   2.151   2.166   1.345  3.7614  1.0441 -0.0648
  396THF     H5 6580   2.223   2.196   1.192  1.5005 -1.4468  1.7036
  396THF     H6 6581   1.833   2.139   1.268  0.6073  1.2603 -0.1572
  396THF     H7 6582   1.864   2.057   1.111 -0.2252  0.9699  0.0778
  396THF     C8 6583   1.980   1.972   1.267  0.0819  0.0713 -0.7452
  396THF     C9 6584   2.124   1.991   1.224 -0.0351 -0.2874  0.0208
  396THF    H10 6585   1.921   1.889   1.229 -1.0975  0.6353 -0.2203
  396THF    H11 6586   1.969   1.969   1.376 -1.3907 -0.1225 -0.8703
  396THF    H12 6587   2.203   1.938   1.277  0.9381  1.2890  0.1902
  396THF    H13 6588   2.127   1.960   1.119 -0.8618 -1.5475  0.3473
  397THF     O1 6589   5.070   0.699   2.133  0.7199  0.1223 -0.8252
  397THF     C2 6590   5.036   0.627   2.014 -0.2482  0.7637 -0.6555
  397THF     C3 6591   5.190   0.775   2.108 -0.1428  0.1124  0.2113
  397THF     H4 6592   4.929   0.606   2.003 -0.4967  0.5937  1.5568
  397THF     H5 6593   5.093   0.535   2.012 -0.3502  0.6299  0.9923
  397THF     H6 6594   5.204   0.853   2.184  1.6595  0.1926 -0.1406
  397THF     H7 6595   5.281   0.715   2.110  0.0580  0.4231  0.8187
  397THF     C8 6596   5.165   0.838   1.968 -0.0145  0.3582  0.2558
  397THF     C9 6597   5.081   0.723   1.900 -0.4415  0.7813 -0.0149
  397THF    H10 6598   5.253   0.873   1.914 -0.9014 -0.2126 -1.6416
  397THF    H11 6599   5.093   0.920   1.976  0.0090  0.4305 -0.2400
  397THF    H12 6600   4.994   0.769   1.853 -2.0247  1.3236  3.2259
  397THF    H13 6601   5.144   0.670   1.828 -0.1978  0.3752  0.4954
  398THF     O1 6602   3.206   0.111   0.011 -0.1073 -0.3200  0.3420
  398THF     C2 6603   3.172   0.228   0.076 -0.1179 -0.3326  0.3915
  398THF     C3 6604   3.353   0.124   0.019  0.2904  0.3163 -0.6056
  398THF     H4 6605   3.064   0.231   0.091 -0.2119  1.4683 -0.4654
  398THF     H5 6606   3.193   0.315   0.014 -0.4237  0.2095  1.0289
  398THF     H6 6607   3.394   0.023   0.011  0.3715  0.4594 -2.2550
  398THF     H7 6608   3.393   0.188  -0.059 -0.2705  2.1015  0.5061
  398THF     C8 6609   3.381   0.171   0.164  0.3372 -0.5711  0.2743
  398THF     C9 6610   3.257   0.232   0.206 -0.0752 -0.1978  0.2256
  398THF    H10 6611   3.463   0.244   0.166  0.8405 -1.0674 -0.9932
  398THF    H11 6612   3.407   0.095   0.238 -0.2469  1.2173  2.4552
  398THF    H12 6613   3.216   0.174   0.289  0.6140 -2.6448 -1.0642
  398THF    H13 6614   3.265   0.336   0.237 -0.5491 -0.5802  1.7304
  399THF     O1 6615   0.177   2.875   0.038 -0.3133  0.0867  0.6027
  399THF     C2 6616   0.118   2.785   0.126  0.3256  0.8137 -0.2784
  399THF     C3 6617   0.247   2.972   0.105  0.3748  0.7543 -0.2333
  399THF     H4 6618   0.109   2.689   0.075  0.4831  0.7322 -0.1556
  399THF     H5 6619   0.018   2.813   0.157  1.2662  4.5452 -0.2320
  399THF     H6 6620   0.321   3.003   0.030  0.1315  2.4235  0.1760
  399THF     H7 6621   0.181   3.053   0.135  1.0109  0.2813  2.6768
  399THF     C8 6622   0.300   2.900   0.222  0.7393 -0.4229 -0.1824
  399THF     C9 6623   0.209   2.785   0.244 -0.4373  0.3591  0.4637
  399THF    H10 6624   0.305   2.967   0.309  0.6370  0.5481 -0.9070
  399THF    H11 6625   0.403   2.872   0.203  0.3038 -2.2892  0.0102
  399THF    H12 6626   0.265   2.694   0.266  0.4559  0.1259 -2.3810
  399THF    H13 6627   0.144   2.812   0.327 -0.8472 -1.7112  0.8637
  400THF     O1 6628   4.589   1.294   3.247 -0.3534 -0.2491  0.3514
  400THF     C2 6629   4.605   1.436   3.238  0.0203  0.5278  1.6380
  400THF     C3 6630   4.464   1.261   3.185  0.3666  0.3777 -0.5335
  400THF     H4 6631   4.631   1.454   3.134 -0.5594 -2.5304  0.8670
  400THF     H5 6632   4.691   1.475   3.293  1.6720  0.9600 -1.0576
  400THF     H6 6633   4.475   1.269   3.077 -0.7428  1.9115 -0.5791
  400THF     H7 6634   4.426   1.164   3.215  0.6149  0.5859  0.4899
  400THF     C8 6635   4.379   1.369   3.241  0.4075 -0.8495  0.6413
  400THF     C9 6636   4.474   1.483   3.280 -0.3768  0.2501  0.4342
  400THF    H10 6637   4.320   1.350   3.331 -1.9766  2.6694  0.0107
  400THF    H11 6638   4.307   1.406   3.169  0.8759  2.5029  1.7034
  400THF    H12 6639   4.455   1.585   3.244 -0.4110  0.1227  0.0910
  400THF    H13 6640   4.469   1.497   3.388 -2.1168 -0.6025  0.4923
  401THF     O1 6641   3.119   2.606   1.845 -0.4269  0.0473 -0.6307
  401THF     C2 6642   2.979   2.583   1.830  0.0300 -0.3667 -0.6559
  401THF     C3 6643   3.134   2.689   1.955  1.0913 -0.4295  0.3760
  401THF     H4 6644   2.959   2.501   1.761 -1.3003  0.1389 -0.9122
  401THF     H5 6645   2.929   2.668   1.784  1.1543  0.5343 -0.2417
  401THF     H6 6646   3.227   2.665   2.006  1.0411 -1.2732  0.0810
  401THF     H7 6647   3.144   2.790   1.914  1.6674 -0.4618  0.4280
  401THF     C8 6648   3.016   2.668   2.045  0.2117 -0.6325 -0.1981
  401THF     C9 6649   2.936   2.559   1.978 -0.8015 -0.0078  0.5024
  401THF    H10 6650   2.967   2.765   2.047  0.5961 -0.2937 -3.1379
  401THF    H11 6651   3.040   2.625   2.143 -0.7937 -1.8118 -0.4452
  401THF    H12 6652   2.981   2.472   2.026  0.5646  1.4472  2.0355
  401THF    H13 6653   2.831   2.551   2.003 -0.7594  0.5523  0.8928
  402THF     O1 6654   2.756   0.259   3.656  0.2959 -0.3854 -0.2087
  402THF     C2 6655   2.891   0.297   3.690 -0.1791  0.0090 -0.3988
  402THF     C3 6656   2.747   0.265   3.513  0.0413  0.4097 -0.0627
  402THF     H4 6657   2.947   0.205   3.708 -1.1978 -0.3274  1.3433
  402THF     H5 6658   2.881   0.359   3.779 -1.9873 -0.7268 -0.0338
  402THF     H6 6659   2.780   0.173   3.466  0.1659  1.3604 -1.9307
  402THF     H7 6660   2.641   0.281   3.491  0.7604  3.1979 -2.0088
  402THF     C8 6661   2.825   0.390   3.483 -0.7253 -0.2767  0.4224
  402THF     C9 6662   2.948   0.368   3.561  0.0586 -0.4276  0.3712
  402THF    H10 6663   2.779   0.485   3.510  1.0573  0.9023 -0.5040
  402THF    H11 6664   2.848   0.385   3.376 -0.0694 -0.6593  0.5764
  402THF    H12 6665   3.019   0.303   3.509  2.6506  0.6093  2.3500
  402THF    H13 6666   3.002   0.458   3.590 -1.1771  0.6089 -0.4697
  403THF     O1 6667   4.490   2.854   3.928  0.0286 -0.0381  0.4786
  403THF     C2 6668   4.589   2.935   3.865  0.0462  0.3823 -0.3896
  403THF     C3 6669   4.365   2.913   3.910 -0.5033  0.3007  0.3111
  403THF     H4 6670   4.580   2.925   3.757 -1.4327 -0.2989 -0.2207
  403THF     H5 6671   4.687   2.905   3.904  1.5843  2.6258 -2.2674
  403THF     H6 6672   4.315   2.867   3.825 -1.1371  1.2194  0.1720
  403THF     H7 6673   4.305   2.902   4.000 -2.1644  2.2087 -0.4781
  403THF     C8 6674   4.395   3.067   3.890  0.3902 -0.0564 -0.0981
  403THF     C9 6675   4.548   3.076   3.908  0.4617 -0.4746 -0.0667
  403THF    H10 6676   4.341   3.135   3.955 -2.2201 -2.9823  1.0259
  403THF    H11 6677   4.381   3.096   3.786  1.3557  2.1300  0.3148
  403THF    H12 6678   4.594   3.152   3.844  1.8061 -1.4160 -0.2579
  403THF    H13 6679   4.574   3.092   4.013  1.4160  0.4178 -0.4172
  404THF     O1 6680   3.835   2.897   2.997 -0.3624  0.9700 -0.2888
  404THF     C2 6681   3.885   3.008   3.058 -0.2033 -0.0079  0.5261
  404THF     C3 6682   3.870   2.771   3.071 -0.0605 -0.6093  0.4978
  404THF     H4 6683   3.838   3.102   3.029  0.8761  0.2117 -0.5942
  404THF     H5 6684   3.988   3.020   3.026 -0.5105 -0.6851 -0.7543
  404THF     H6 6685   3.792   2.695   3.059 -1.2053  0.5645  0.2826
  404THF     H7 6686   3.971   2.739   3.046 -0.1076  0.0041 -0.5674
  404THF     C8 6687   3.880   2.826   3.210 -0.1360  0.4742  0.0141
  404THF     C9 6688   3.900   2.975   3.207  0.3645  0.1110  1.0515
  404THF    H10 6689   3.958   2.779   3.270 -0.3126  0.4036  0.1890
  404THF    H11 6690   3.789   2.807   3.266  0.7809  0.4386  1.5372
  404THF    H12 6691   3.829   3.021   3.276 -0.4249 -0.9736  0.9809
  404THF    H13 6692   4.001   2.989   3.244  1.3984 -3.2442 -0.1308
  405THF     O1 6693   1.283   3.765   1.874 -0.9383 -0.2587 -0.6279
  405THF     C2 6694   1.204   3.662   1.816 -0.7149 -0.3804  0.1542
  405THF     C3 6695   1.285   3.743   2.016 -0.0679 -0.1127  0.2356
  405THF     H4 6696   1.260   3.570   1.805  1.7972  0.9767  0.8950
  405THF     H5 6697   1.163   3.693   1.719 -2.0081 -1.2621  0.3920
  405THF     H6 6698   1.355   3.661   2.033 -0.0410 -0.4004 -1.1523
  405THF     H7 6699   1.314   3.828   2.078  0.1866 -0.5448  0.7115
  405THF     C8 6700   1.135   3.707   2.041 -0.5760 -0.1240 -0.1526
  405THF     C9 6701   1.092   3.631   1.918  0.3936 -0.1733  0.2397
  405THF    H10 6702   1.076   3.794   2.065 -1.2727 -0.4023 -0.8042
  405THF    H11 6703   1.131   3.640   2.127  1.9240  0.0597  0.2045
  405THF    H12 6704   1.088   3.522   1.925 -0.5448 -0.1108  1.0185
  405THF    H13 6705   0.993   3.667   1.888  0.2202 -0.5319  0.3783
  406THF     O1 6706   0.552   3.866   3.084  0.2213  0.0185  0.1226
  406THF     C2 6707   0.430   3.858   3.005  0.7980  0.0377  0.5570
  406THF     C3 6708   0.585   4.001   3.113 -0.5467  0.0118 -0.1638
  406THF     H4 6709   0.371   3.772   3.035 -1.3970  2.0275  2.3060
  406THF     H5 6710   0.440   3.863   2.897 -0.0648  1.5536  0.5204
  406THF     H6 6711   0.662   4.009   3.190 -0.3378 -0.1143 -0.3616
  406THF     H7 6712   0.629   4.054   3.029 -0.2597  0.8581  0.4937
  406THF     C8 6713   0.449   4.051   3.155  0.2093  0.1768 -0.2204
  406THF     C9 6714   0.353   3.979   3.055 -0.9383 -0.4220  0.4006
  406THF    H10 6715   0.438   4.159   3.149  0.7293  0.2141 -0.5846
  406THF    H11 6716   0.430   4.010   3.254  2.7528 -0.3226  0.1481
  406THF    H12 6717   0.260   3.953   3.106 -2.4829 -1.1678 -2.5011
  406THF    H13 6718   0.333   4.047   2.972 -0.0687 -1.2237 -0.4955
  407THF     O1 6719   5.041   3.872   1.059  0.0404  0.1745 -0.2956
  407THF     C2 6720   5.070   3.996   1.122  0.3398 -0.5907  0.7660
  407THF     C3 6721   5.156   3.825   0.986 -0.4785 -0.0021  0.0826
  407THF     H4 6722   5.010   4.020   1.210  1.0381  1.3896  0.7506
  407THF     H5 6723   5.047   4.074   1.050 -0.7824 -1.3224  0.3031
  407THF     H6 6724   5.157   3.716   0.986  1.1389 -0.0116  1.2330
  407THF     H7 6725   5.167   3.867   0.886 -2.7929 -0.4521 -0.4335
  407THF     C8 6726   5.278   3.867   1.074 -0.1919  0.2542 -0.4445
  407THF     C9 6727   5.226   3.994   1.139  0.0862 -0.5214 -0.8595
  407THF    H10 6728   5.368   3.894   1.018 -0.6798  0.2351 -1.2406
  407THF    H11 6729   5.299   3.799   1.156  3.6761  1.3415 -0.3325
  407THF    H12 6730   5.250   3.999   1.245 -0.2174  0.7205 -0.8386
  407THF    H13 6731   5.265   4.080   1.085 -0.9361 -0.4503 -1.5134
  408THF     O1 6732   0.625   0.670   0.419  0.1354 -0.0115 -0.7303
  408THF     C2 6733   0.511   0.608   0.483  0.1252  0.3517  0.7824
  408THF     C3 6734   0.695   0.567   0.356 -0.1201 -0.3561  0.3767
  408THF     H4 6735   0.435   0.674   0.523 -0.9726 -1.1471  1.2226
  408THF     H5 6736   0.559   0.552   0.563  2.2428 -0.2822 -0.8040
  408THF     H6 6737   0.779   0.606   0.299 -0.5443 -2.7351 -2.0927
  408THF     H7 6738   0.730   0.513   0.443  0.0110 -0.1664  0.4423
  408THF     C8 6739   0.582   0.495   0.282  0.0572 -0.4173 -0.3705
  408THF     C9 6740   0.463   0.512   0.369 -0.8804  0.5630 -0.0222
  408THF    H10 6741   0.603   0.389   0.270 -2.7122 -0.9466 -1.5365
  408THF    H11 6742   0.571   0.539   0.183 -0.2160  1.7852  0.5763
  408THF    H12 6743   0.368   0.537   0.321 -0.6711  1.4135  0.0013
  408THF    H13 6744   0.440   0.415   0.414  0.0803  0.7711  0.9613
  409THF     O1 6745   2.196   2.274   0.258  0.1277 -0.3902  0.3397
  409THF     C2 6746   2.113   2.385   0.249 -0.0977  0.5613 -0.0604
  409THF     C3 6747   2.320   2.319   0.316  0.0965 -0.2971  0.2799
  409THF     H4 6748   2.008   2.357   0.255 -0.3396  1.6509  0.9197
  409THF     H5 6749   2.124   2.433   0.151  2.4907 -0.6384 -0.4606
  409THF     H6 6750   2.353   2.233   0.374  0.8788  1.2840  2.3195
  409THF     H7 6751   2.399   2.354   0.250 -0.3190  1.0911  0.4740
  409THF     C8 6752   2.276   2.421   0.424  0.1070 -0.5637 -0.6645
  409THF     C9 6753   2.144   2.474   0.364 -0.0571 -0.3102 -0.3975
  409THF    H10 6754   2.354   2.495   0.445 -1.8361  1.3983  0.0124
  409THF    H11 6755   2.268   2.367   0.518  1.1316 -0.7452 -0.6747
  409THF    H12 6756   2.066   2.470   0.440  1.0349 -2.0574  0.6850
  409THF    H13 6757   2.150   2.580   0.337  0.3166  0.4748  2.4063
  410THF     O1 6758   0.503   4.732   0.818  0.7452  0.0161 -0.5248
  410THF     C2 6759   0.554   4.865   0.817  0.5548  0.1651 -0.2643
  410THF     C3 6760   0.368   4.728   0.765  0.9042  0.5897  0.5418
  410THF     H4 6761   0.609   4.894   0.728 -2.0461 -0.0553 -2.0392
  410THF     H5 6762   0.616   4.862   0.907 -2.0351 -1.9738  1.6193
  410THF     H6 6763   0.361   4.676   0.669  0.6671 -0.4781  1.1296
  410THF     H7 6764   0.306   4.676   0.837  1.4009 -0.1585  0.4390
  410THF     C8 6765   0.328   4.873   0.748 -0.0573 -0.3851  0.4394
  410THF     C9 6766   0.424   4.945   0.835  0.2412 -0.4301 -0.3710
  410THF    H10 6767   0.222   4.895   0.755 -0.0259  0.5905 -1.4305
  410THF    H11 6768   0.355   4.899   0.645  0.0595  0.4592  0.6741
  410THF    H12 6769   0.434   5.047   0.799 -0.2977 -0.0553  0.5145
  410THF    H13 6770   0.400   4.947   0.941  1.6975 -1.3494  0.0075
  411THF     O1 6771   4.789   5.087   2.831  0.2424 -0.5439 -0.0413
  411THF     C2 6772   4.717   5.045   2.717 -0.4687 -0.4908 -0.0158
  411THF     C3 6773   4.702   5.065   2.943 -0.6530  0.1567  0.0653
  411THF     H4 6774   4.787   5.021   2.638 -0.4846  3.5745 -1.5206
  411THF     H5 6775   4.657   5.124   2.672 -0.5027  0.3458  1.4188
  411THF     H6 6776   4.767   5.068   3.030  1.0408  0.8477 -1.1544
  411THF     H7 6777   4.619   5.134   2.955 -0.5826  0.7440 -2.2063
  411THF     C8 6778   4.658   4.926   2.920 -0.1955  0.2851  0.3470
  411THF     C9 6779   4.632   4.927   2.766 -0.3383 -0.0639  0.5014
  411THF    H10 6780   4.562   4.895   2.961  0.6018 -1.9113  0.6768
  411THF    H11 6781   4.731   4.853   2.955 -0.9099 -0.2026  0.8449
  411THF    H12 6782   4.672   4.837   2.719 -0.4432  0.6592 -1.0417
  411THF    H13 6783   4.525   4.944   2.752  0.0591  1.0186 -1.7156
  412THF     O1 6784   1.161   1.513   1.297 -0.4524  0.2381 -0.2594
  412THF     C2 6785   1.135   1.458   1.166  0.2770  0.2217 -1.0598
  412THF     C3 6786   1.291   1.483   1.332 -0.5423  1.0622 -0.0094
  412THF     H4 6787   1.037   1.502   1.150 -1.8951 -2.1481  3.5867
  412THF     H5 6788   1.129   1.349   1.172  0.7962  0.2057 -0.7262
  412THF     H6 6789   1.327   1.548   1.412 -0.1340 -1.0052  1.5667
  412THF     H7 6790   1.302   1.382   1.371  0.0416  2.1413  2.8927
  412THF     C8 6791   1.370   1.489   1.197 -0.5908 -0.2085  0.1361
  412THF     C9 6792   1.256   1.515   1.097  0.0625  0.6079  0.3734
  412THF    H10 6793   1.419   1.402   1.154 -0.5177  0.1439 -0.5098
  412THF    H11 6794   1.443   1.571   1.196  0.2008 -0.8787  1.0893
  412THF    H12 6795   1.258   1.623   1.084  0.6048  0.5009 -0.5554
  412THF    H13 6796   1.277   1.470   1.000  3.1624 -0.5430  1.4427
  413THF     O1 6797   3.243   5.344   1.841  0.1997 -1.0469  0.8815
  413THF     C2 6798   3.378   5.380   1.804  0.3244 -0.1804  0.1445
  413THF     C3 6799   3.159   5.372   1.734  0.8677  0.6491  0.0403
  413THF     H4 6800   3.457   5.350   1.873  0.5517 -1.4830 -0.6432
  413THF     H5 6801   3.385   5.488   1.794 -0.9928  0.0266  1.0399
  413THF     H6 6802   3.070   5.313   1.757  1.3771 -0.4411 -0.7295
  413THF     H7 6803   3.139   5.479   1.721 -2.2944  0.3077  1.1567
  413THF     C8 6804   3.239   5.329   1.609 -0.6135 -0.0958  0.4820
  413THF     C9 6805   3.379   5.320   1.661 -0.2709  0.6832 -0.0800
  413THF    H10 6806   3.233   5.406   1.533  1.0975  1.0964  1.4976
  413THF    H11 6807   3.212   5.240   1.551 -2.3954  2.2822 -2.6536
  413THF    H12 6808   3.420   5.219   1.658  0.3744  0.8791  1.4708
  413THF    H13 6809   3.441   5.381   1.595  1.4426 -4.3188 -3.6790
  414THF     O1 6810   0.148   2.895   2.986  0.4134  0.1676  0.5326
  414THF     C2 6811   0.178   2.763   3.025 -0.3111 -0.4572 -0.2767
  414THF     C3 6812   0.175   2.970   3.103 -0.0439  0.1370  0.7568
  414THF     H4 6813   0.282   2.735   3.006 -0.0763  1.4208 -1.9783
  414THF     H5 6814   0.108   2.694   2.978  2.1816 -2.0853 -1.7946
  414THF     H6 6815   0.282   2.989   3.102  0.4812 -2.4728  1.0215
  414THF     H7 6816   0.145   3.075   3.092  1.1903  0.6585  2.0297
  414THF     C8 6817   0.124   2.891   3.222  0.1053  0.1907  0.6060
  414THF     C9 6818   0.165   2.751   3.177  0.2741  0.0720  0.5259
  414THF    H10 6819   0.018   2.909   3.242 -0.0694  1.1956 -1.0280
  414THF    H11 6820   0.172   2.930   3.312 -0.4948  0.7008  0.7147
  414THF    H12 6821   0.262   2.717   3.215  0.3048  0.9666  1.2890
  414THF    H13 6822   0.094   2.676   3.212  1.7429 -0.3224  2.8914
  415THF     O1 6823   4.784   2.252   1.206 -0.5461 -0.1778 -0.8433
  415THF     C2 6824   4.792   2.111   1.206 -0.3235 -0.0331  0.7152
  415THF     C3 6825   4.880   2.300   1.298 -0.4439 -0.1606  0.4469
  415THF     H4 6826   4.848   2.089   1.115  0.2771  0.2187  1.0161
  415THF     H5 6827   4.695   2.063   1.193  0.3989 -1.7643  1.3847
  415THF     H6 6828   4.971   2.312   1.239 -0.9029  1.2821 -0.0111
  415THF     H7 6829   4.845   2.395   1.339  1.3454  0.6864  0.0979
  415THF     C8 6830   4.898   2.193   1.399 -0.2995  0.2608 -0.4327
  415THF     C9 6831   4.873   2.066   1.333 -0.0565  0.1936  0.0038
  415THF    H10 6832   4.820   2.200   1.475 -0.1625 -0.5207 -0.2108
  415THF    H11 6833   4.993   2.209   1.450 -0.7730 -0.7227  0.8345
  415THF    H12 6834   4.964   2.016   1.300  1.2326  2.7060 -0.5248
  415THF    H13 6835   4.809   2.011   1.401 -2.7677  1.9846 -0.9201
  416THF     O1 6836   0.083   5.019   2.396  0.1416 -0.4082  0.0231
  416THF     C2 6837   0.170   5.105   2.470  0.3760 -0.2862 -1.2855
  416THF     C3 6838  -0.045   5.089   2.390 -0.1785  0.3086  0.1519
  416THF     H4 6839   0.213   5.181   2.405 -0.9250  1.2759 -0.4131
  416THF     H5 6840   0.254   5.046   2.507 -1.9109 -2.5859  0.5562
  416THF     H6 6841  -0.026   5.168   2.317  1.7462 -0.6013 -0.4259
  416THF     H7 6842  -0.118   5.021   2.346  1.5239 -1.1754 -0.5340
  416THF     C8 6843  -0.067   5.146   2.528 -0.1838 -0.3131  0.2304
  416THF     C9 6844   0.079   5.167   2.583 -0.2737 -0.7328  0.3699
  416THF    H10 6845  -0.111   5.068   2.591 -2.0076  1.0868  0.7876
  416THF    H11 6846  -0.133   5.232   2.532 -2.7067 -2.1688  1.2616
  416THF    H12 6847   0.113   5.268   2.608  0.2743 -0.8593  0.1561
  416THF    H13 6848   0.096   5.117   2.678  0.5621  0.5968  0.9633
  417THF     O1 6849   5.272   1.342   4.105  0.2749 -0.3047 -0.3843
  417THF     C2 6850   5.351   1.268   4.203 -0.2950 -0.9641  0.2896
  417THF     C3 6851   5.278   1.481   4.146 -0.3595  0.7951  0.3830
  417THF     H4 6852   5.387   1.174   4.161 -0.9984 -0.1696 -2.2631
  417THF     H5 6853   5.291   1.251   4.293 -2.5216 -0.9380 -1.1227
  417THF     H6 6854   5.253   1.559   4.075 -0.5704  0.4719  0.1024
  417THF     H7 6855   5.204   1.497   4.224 -0.1134 -1.5918  1.1853
  417THF     C8 6856   5.426   1.498   4.201  0.1937 -0.2569 -0.4748
  417THF     C9 6857   5.464   1.356   4.243 -0.6147  0.1171 -0.6953
  417THF    H10 6858   5.436   1.565   4.287  0.0244  0.3737 -0.9388
  417THF    H11 6859   5.498   1.537   4.129  0.9620  0.0098  0.4210
  417THF    H12 6860   5.550   1.321   4.186 -0.2235 -0.0169 -0.0248
  417THF    H13 6861   5.493   1.347   4.347 -1.1339 -0.3848 -0.5876
  418THF     O1 6862   4.735   1.859   5.086  0.3939 -0.5847 -0.0791
  418THF     C2 6863   4.669   1.805   5.196  0.1616 -0.1686  0.3371
  418THF     C3 6864   4.637   1.925   5.005 -0.0007 -0.2428 -0.0705
  418THF     H4 6865   4.682   1.869   5.283 -0.2278  1.1167 -0.5194
  418THF     H5 6866   4.710   1.709   5.228 -0.8282 -0.3841  1.0142
  418THF     H6 6867   4.619   2.023   5.049 -0.7515 -1.5541  2.7291
  418THF     H7 6868   4.685   1.940   4.908  0.7390  4.1947  0.7290
  418THF     C8 6869   4.513   1.841   5.012  0.2088 -0.2996  0.3657
  418THF     C9 6870   4.518   1.785   5.160 -0.4179 -0.2557 -0.3715
  418THF    H10 6871   4.512   1.760   4.939 -0.9922  0.4777 -0.5102
  418THF    H11 6872   4.421   1.897   4.995  1.5832  1.7086 -0.8121
  418THF    H12 6873   4.450   1.838   5.226 -1.5890  0.7282 -2.2768
  418THF    H13 6874   4.490   1.680   5.155 -0.8080 -0.2821  1.6289
  419THF     O1 6875   0.743   4.002   0.438 -0.2812  0.2121 -0.1547
  419THF     C2 6876   0.788   3.868   0.465  0.0580 -0.7168  0.2674
  419THF     C3 6877   0.821   4.088   0.518 -0.9346 -0.5392 -0.1619
  419THF     H4 6878   0.884   3.852   0.417  0.1832  0.5787  0.0310
  419THF     H5 6879   0.722   3.789   0.430 -1.9427  1.0070 -0.0325
  419THF     H6 6880   0.921   4.103   0.476 -0.7197 -1.1975  0.1065
  419THF     H7 6881   0.772   4.184   0.537 -0.4989 -0.0524 -1.4086
  419THF     C8 6882   0.847   4.018   0.649 -0.4974 -0.5302 -0.0044
  419THF     C9 6883   0.793   3.881   0.617 -0.2528  0.2367  0.3508
  419THF    H10 6884   0.806   4.073   0.734 -3.0598 -0.5757 -1.1097
  419THF    H11 6885   0.954   4.011   0.668 -0.5803 -1.7535  0.0771
  419THF    H12 6886   0.854   3.804   0.664 -0.9803 -1.1565 -0.9017
  419THF    H13 6887   0.697   3.854   0.659 -0.4675 -1.7392 -1.2431
  420THF     O1 6888   3.686   2.059   1.927  0.0448 -0.0694 -0.1168
  420THF     C2 6889   3.613   2.164   1.865 -0.0166  0.5256 -0.1634
  420THF     C3 6890   3.594   1.949   1.951  0.1196 -0.6280  0.1809
  420THF     H4 6891   3.683   2.227   1.810  0.7279 -0.6925 -0.6646
  420THF     H5 6892   3.557   2.217   1.941 -0.4374  0.2017 -0.2472
  420THF     H6 6893   3.643   1.857   1.982  0.2395 -0.0061  1.9724
  420THF     H7 6894   3.540   1.970   2.043 -1.6293  0.0161 -0.9537
  420THF     C8 6895   3.499   1.954   1.828  0.0325  0.4884 -0.7607
  420THF     C9 6896   3.512   2.096   1.777 -0.1199  0.4382 -0.0076
  420THF    H10 6897   3.396   1.919   1.842  0.2923 -0.5272 -1.2970
  420THF    H11 6898   3.551   1.884   1.763 -1.7435 -0.5778 -1.0990
  420THF    H12 6899   3.540   2.093   1.672  1.0849 -0.2670  0.3115
  420THF    H13 6900   3.416   2.147   1.776 -1.5457 -2.0802 -1.7249
  421THF     O1 6901   2.737   4.038   4.981 -0.4906  0.6011 -0.6237
  421THF     C2 6902   2.684   4.043   5.115 -0.2883  0.4291 -0.1277
  421THF     C3 6903   2.726   4.167   4.941 -0.3242 -0.8175  0.1338
  421THF     H4 6904   2.755   4.046   5.198 -0.9136 -0.7616  0.4894
  421THF     H5 6905   2.650   3.939   5.119  1.1607 -0.0845 -0.6629
  421THF     H6 6906   2.797   4.238   4.984  0.5705 -2.7323  1.9366
  421THF     H7 6907   2.737   4.183   4.833 -0.8395  1.8743  0.4043
  421THF     C8 6908   2.580   4.202   4.983  0.1253  0.4651 -0.7908
  421THF     C9 6909   2.571   4.142   5.121 -0.1292  0.3291  0.1467
  421THF    H10 6910   2.509   4.153   4.916  1.2475 -3.3505  0.5471
  421THF    H11 6911   2.570   4.311   4.987 -1.2755  0.3218  2.9000
  421THF    H12 6912   2.585   4.222   5.193 -0.5631  1.4714 -0.9899
  421THF    H13 6913   2.476   4.091   5.136  0.9987 -2.4937 -1.6186
  422THF     O1 6914   2.984   4.305   5.216  0.8835 -0.1475  0.0244
  422THF     C2 6915   2.977   4.241   5.340 -0.5740 -0.3314  0.4665
  422THF     C3 6916   3.070   4.417   5.223 -0.4033  0.0023  0.5944
  422THF     H4 6917   2.933   4.142   5.334 -1.8780  0.2916 -0.9127
  422THF     H5 6918   2.907   4.294   5.406 -1.5024 -0.2825 -0.5414
  422THF     H6 6919   3.088   4.450   5.121 -1.5585 -2.2770 -0.4266
  422THF     H7 6920   3.024   4.500   5.278 -0.3762 -0.0692  0.7257
  422THF     C8 6921   3.180   4.366   5.304 -0.3872 -0.9932  0.4164
  422THF     C9 6922   3.122   4.262   5.392  0.7545 -0.3841  0.0852
  422THF    H10 6923   3.220   4.449   5.362  1.0040  0.6403 -2.6532
  422THF    H11 6924   3.254   4.330   5.233  0.8955  2.1570  0.0299
  422THF    H12 6925   3.178   4.169   5.377  1.4650 -0.2653  1.7750
  422THF    H13 6926   3.135   4.299   5.493 -1.9303 -0.7539  0.6258
  423THF     O1 6927   2.242   3.207   2.497  0.4791  0.0021  0.0222
  423THF     C2 6928   2.204   3.067   2.496  0.0617 -0.0535  0.2465
  423THF     C3 6929   2.256   3.248   2.628  0.1254 -0.5613  0.3480
  423THF     H4 6930   2.261   3.011   2.422  0.0609 -0.3095  0.4386
  423THF     H5 6931   2.101   3.058   2.462  0.9841  0.0664 -2.8411
  423THF     H6 6932   2.316   3.338   2.636  1.1442 -1.3021  1.3843
  423THF     H7 6933   2.162   3.274   2.676  0.1286  0.1704 -0.0292
  423THF     C8 6934   2.318   3.127   2.699 -0.5354 -0.1219 -0.2139
  423THF     C9 6935   2.236   3.016   2.640 -0.3655  0.2980 -0.2283
  423THF    H10 6936   2.312   3.137   2.808  0.7438 -1.1804 -0.0195
  423THF    H11 6937   2.421   3.113   2.667 -0.5019  0.2952 -0.2857
  423THF    H12 6938   2.272   2.913   2.646  1.2138  0.7515 -1.2568
  423THF    H13 6939   2.146   3.013   2.702  0.0535  0.2385  0.3846
  424THF     O1 6940   4.159   5.426   3.953  0.1437  0.3949 -0.4233
  424THF     C2 6941   4.113   5.409   4.089 -0.5011  0.1739 -0.6083
  424THF     C3 6942   4.153   5.564   3.926  0.3236 -0.3810 -0.2255
  424THF     H4 6943   4.191   5.437   4.159  0.4686 -2.5864 -0.4601
  424THF     H5 6944   4.099   5.304   4.114  0.5636  0.0685 -0.4078
  424THF     H6 6945   4.241   5.615   3.965  0.5782  0.2831 -1.5889
  424THF     H7 6946   4.146   5.576   3.817 -1.7255  2.2263  0.0875
  424THF     C8 6947   4.021   5.611   3.997 -0.5729  0.0279 -0.5901
  424THF     C9 6948   3.996   5.501   4.097 -0.0790 -0.1409  0.2279
  424THF    H10 6949   3.942   5.608   3.922 -1.8453  0.8130  0.6670
  424THF    H11 6950   4.019   5.714   4.034 -3.6328 -0.8694  2.2349
  424THF    H12 6951   3.988   5.537   4.199 -2.3639 -1.4870  0.5835
  424THF    H13 6952   3.898   5.456   4.078 -0.5573  0.6849  0.6593
  425THF     O1 6953   0.279   1.204   4.274 -0.4623  0.0831 -0.0914
  425THF     C2 6954   0.400   1.163   4.331 -0.4679 -0.3319 -0.7065
  425THF     C3 6955   0.189   1.093   4.274  0.1034 -0.0630 -0.1871
  425THF     H4 6956   0.407   1.213   4.428 -1.6520 -1.0271 -0.2415
  425THF     H5 6957   0.486   1.203   4.277 -1.3991  1.9415 -0.5959
  425THF     H6 6958   0.127   1.096   4.364 -0.3214 -1.1655 -0.4189
  425THF     H7 6959   0.119   1.104   4.191 -2.3469  0.9495  1.8591
  425THF     C8 6960   0.290   0.972   4.258 -0.3111  0.6176 -0.5277
  425THF     C9 6961   0.408   1.014   4.348  1.1573 -0.6659 -0.4702
  425THF    H10 6962   0.332   0.968   4.158  3.0690 -0.4463  0.8079
  425THF    H11 6963   0.239   0.884   4.299  0.1359  2.0413  3.5056
  425THF    H12 6964   0.379   0.993   4.451  4.0919  0.2495  0.6337
  425THF    H13 6965   0.513   0.987   4.334  1.0911 -0.1414 -2.2492
  426THF     O1 6966   2.027   1.049   2.135 -0.3808  0.0270 -0.0015
  426THF     C2 6967   1.910   1.006   2.195 -0.5557  0.4061 -0.1946
  426THF     C3 6968   2.140   0.965   2.157 -0.5755 -0.5622  0.4808
  426THF     H4 6969   1.836   1.025   2.117 -1.2265 -1.0930  0.0267
  426THF     H5 6970   1.892   1.056   2.290  2.7651  2.7449 -0.6274
  426THF     H6 6971   2.172   0.929   2.059  0.8173  1.2213  0.2411
  426THF     H7 6972   2.224   1.018   2.201  0.3951  0.9260 -2.8092
  426THF     C8 6973   2.087   0.855   2.246  0.1173  0.4290  0.0750
  426THF     C9 6974   1.944   0.854   2.213  0.4112  0.4686  0.2958
  426THF    H10 6975   2.097   0.891   2.348 -0.6597  3.4631 -0.8103
  426THF    H11 6976   2.148   0.765   2.234 -1.2916 -0.2807 -2.6221
  426THF    H12 6977   1.915   0.802   2.121 -2.0463 -0.2484  1.4136
  426THF    H13 6978   1.882   0.808   2.289  1.4257 -0.7711  0.4036
  427THF     O1 6979   4.223   1.594   4.707 -0.1586  0.6569  0.0336
  427THF     C2 6980   4.286   1.507   4.611 -0.0319 -0.0512 -0.8817
  427THF     C3 6981   4.307   1.607   4.818 -1.1108  0.1817 -0.3381
  427THF     H4 6982   4.319   1.568   4.527 -0.8035  2.7720  0.7490
  427THF     H5 6983   4.215   1.425   4.593  2.3222 -2.7723  1.2761
  427THF     H6 6984   4.314   1.714   4.840 -1.1696 -0.1179  1.2349
  427THF     H7 6985   4.257   1.563   4.904 -0.3383  0.3349  0.1939
  427THF     C8 6986   4.444   1.546   4.785 -0.8222 -0.1588 -0.1492
  427THF     C9 6987   4.401   1.444   4.683  0.1073 -0.2094  0.2017
  427THF    H10 6988   4.490   1.511   4.877 -0.1774  0.2539 -0.3064
  427THF    H11 6989   4.507   1.623   4.740 -0.0200 -0.2261  0.8265
  427THF    H12 6990   4.480   1.410   4.616 -1.1076 -1.5917 -0.6008
  427THF    H13 6991   4.360   1.357   4.735  0.9417 -1.2323 -0.7929
  428THF     O1 6992   3.769   2.494   5.023  0.3402  0.1822  0.1029
  428THF     C2 6993   3.682   2.599   4.977  0.3504  0.1045 -0.1500
  428THF     C3 6994   3.782   2.507   5.169  0.5162 -0.2381  0.1800
  428THF     H4 6995   3.640   2.588   4.877 -1.0546  0.4055  0.3941
  428THF     H5 6996   3.735   2.694   4.982  2.5418 -0.8734 -2.2298
  428THF     H6 6997   3.777   2.411   5.219  2.3684 -1.2270 -1.3846
  428THF     H7 6998   3.887   2.535   5.180  1.2174 -1.9774 -1.5661
  428THF     C8 6999   3.671   2.589   5.212  0.5970 -0.2504  0.7130
  428THF     C9 7000   3.583   2.607   5.087  0.0048  0.5041 -0.0387
  428THF    H10 7001   3.714   2.685   5.240  2.1483 -0.5809 -0.4354
  428THF    H11 7002   3.611   2.540   5.288 -0.2702 -0.8999 -0.3493
  428THF    H12 7003   3.516   2.521   5.080  0.1784  0.3717 -0.0749
  428THF    H13 7004   3.515   2.693   5.090 -0.4871  0.0944  2.9821
  429THF     O1 7005   1.495   5.259   0.850 -0.0958  0.3516 -0.5081
  429THF     C2 7006   1.570   5.216   0.967  0.7001 -0.5469  0.4363
  429THF     C3 7007   1.428   5.154   0.781 -0.3172 -0.4898  0.1920
  429THF     H4 7008   1.520   5.262   1.052 -1.4669 -0.4933 -0.7743
  429THF     H5 7009   1.674   5.237   0.945  0.2364  1.2222 -0.2139
  429THF     H6 7010   1.323   5.160   0.808 -0.7999  1.3341 -1.7310
  429THF     H7 7011   1.427   5.166   0.672  0.0574  0.9114  0.3265
  429THF     C8 7012   1.508   5.033   0.815 -0.0673  0.6279 -0.1706
  429THF     C9 7013   1.553   5.065   0.960  0.3628  0.1014 -0.6638
  429THF    H10 7014   1.601   5.031   0.759  0.0403  0.8111  0.0009
  429THF    H11 7015   1.457   4.937   0.804  0.6039  0.2303  0.1457
  429THF    H12 7016   1.467   5.035   1.020  1.4620 -0.5007  0.6533
  429THF    H13 7017   1.645   5.016   0.991  0.3771  0.2527 -0.4604
  430THF     O1 7018   1.278   3.940   3.075  0.5052 -0.2642 -0.0857
  430THF     C2 7019   1.160   3.940   2.992  0.7296 -0.5018 -0.6142
  430THF     C3 7020   1.359   4.040   3.012  0.0292  0.2090  0.7289
  430THF     H4 7021   1.082   3.886   3.045  0.8033  1.4235  1.6206
  430THF     H5 7022   1.174   3.904   2.890 -0.5558 -0.6296 -0.7575
  430THF     H6 7023   1.442   4.069   3.075 -0.5283  3.5857  0.1009
  430THF     H7 7024   1.400   3.990   2.925  1.1625 -1.1002  1.9617
  430THF     C8 7025   1.264   4.151   2.970  0.1913 -0.2151  0.1632
  430THF     C9 7026   1.125   4.084   2.973 -0.1532  0.0225 -0.3881
  430THF    H10 7027   1.287   4.190   2.871 -1.4660  1.3927  0.3329
  430THF    H11 7028   1.273   4.230   3.045 -1.9038 -0.4472  0.7284
  430THF    H12 7029   1.063   4.128   3.051 -0.9025 -1.3173 -0.2058
  430THF    H13 7030   1.073   4.094   2.878  1.0458 -0.2783 -1.1049
  431THF     O1 7031   0.315   4.569   2.534  0.3399  0.0413 -0.0067
  431THF     C2 7032   0.308   4.603   2.668 -0.2148 -0.1260 -0.2028
  431THF     C3 7033   0.442   4.607   2.482 -0.9207 -0.3077  0.2918
  431THF     H4 7034   0.222   4.559   2.719  0.5746  0.2213  1.5157
  431THF     H5 7035   0.306   4.711   2.684  1.5057 -0.3857  2.2609
  431THF     H6 7036   0.453   4.568   2.381 -0.3790  2.1302 -0.6282
  431THF     H7 7037   0.445   4.715   2.479 -0.0072 -0.3392 -0.1556
  431THF     C8 7038   0.536   4.553   2.581 -0.0123  0.2047 -0.2167
  431THF     C9 7039   0.441   4.537   2.703 -0.3938 -0.3133  0.6333
  431THF    H10 7040   0.636   4.595   2.591  1.0061 -2.1675  0.1774
  431THF    H11 7041   0.558   4.450   2.554 -3.3309 -1.2571  1.9547
  431THF    H12 7042   0.437   4.430   2.723 -2.5714 -0.0296  2.0210
  431THF    H13 7043   0.489   4.592   2.784 -1.3428 -1.7085  2.2221
  432THF     O1 7044   0.169   3.488   0.932 -0.7949  0.0445 -1.0554
  432THF     C2 7045   0.220   3.562   0.828  0.3332  0.0081  0.2245
  432THF     C3 7046   0.123   3.585   1.029  0.1428 -0.2724 -0.0042
  432THF     H4 7047   0.155   3.619   0.761  0.9127  1.0311  0.5171
  432THF     H5 7048   0.282   3.501   0.761  2.1703  1.4488  0.5492
  432THF     H6 7049   0.027   3.633   1.010  0.2466  0.4818  1.2304
  432THF     H7 7050   0.125   3.543   1.129  2.1371 -0.5882 -0.1402
  432THF     C8 7051   0.230   3.700   1.018  0.6049 -0.1457 -0.1627
  432THF     C9 7052   0.313   3.662   0.898 -0.0463 -0.1185 -0.4248
  432THF    H10 7053   0.295   3.691   1.105  0.2656 -1.9139 -0.0569
  432THF    H11 7054   0.179   3.797   1.016  0.1799 -0.2864  1.7527
  432THF    H12 7055   0.327   3.756   0.843 -0.5098  0.9393  1.1990
  432THF    H13 7056   0.408   3.617   0.928 -0.1931  0.3466  0.7661
  433THF     O1 7057   0.594   2.092   1.675  0.1616  0.0691 -0.2529
  433THF     C2 7058   0.669   2.062   1.555  0.0528  0.9864  0.7409
  433THF     C3 7059   0.574   2.236   1.675  0.1288 -0.2346 -0.4465
  433THF     H4 7060   0.609   2.041   1.467  0.4388  0.5793  0.5733
  433THF     H5 7061   0.731   1.973   1.556  1.1407  1.5433 -3.2135
  433THF     H6 7062   0.469   2.264   1.674  0.3075  0.4715 -0.6058
  433THF     H7 7063   0.623   2.276   1.764  0.7623  0.0797 -0.9242
  433THF     C8 7064   0.646   2.291   1.556 -0.5311  0.0153  0.7075
  433THF     C9 7065   0.743   2.186   1.526  0.5512 -0.4077  0.1094
  433THF    H10 7066   0.682   2.391   1.581 -1.3975  0.4523  0.2946
  433THF    H11 7067   0.575   2.305   1.474  0.9228 -2.2453 -1.0651
  433THF    H12 7068   0.785   2.195   1.426  0.7163 -1.1272  0.1027
  433THF    H13 7069   0.828   2.190   1.595 -0.8391  0.1096  1.8669
  434THF     O1 7070   4.490   1.552   2.202 -0.9210  0.3086  0.5979
  434THF     C2 7071   4.575   1.651   2.136 -0.1751 -0.1795 -0.4926
  434THF     C3 7072   4.430   1.610   2.317 -0.1377  0.0162  0.0518
  434THF     H4 7073   4.592   1.618   2.034 -3.2478 -0.9961 -0.8463
  434THF     H5 7074   4.672   1.650   2.186  0.4650  2.5464 -1.5303
  434THF     H6 7075   4.326   1.579   2.319 -0.2007  0.1266 -1.0687
  434THF     H7 7076   4.475   1.572   2.409 -0.7659 -0.1329  0.2988
  434THF     C8 7077   4.460   1.758   2.304 -0.0260 -0.0091 -0.2524
  434THF     C9 7078   4.513   1.785   2.172  0.6255  0.2749 -0.3672
  434THF    H10 7079   4.533   1.779   2.382  0.3394 -3.4317  0.4946
  434THF    H11 7080   4.376   1.823   2.328 -2.0086 -1.8523 -1.7787
  434THF    H12 7081   4.433   1.784   2.098 -0.0348  1.5799  0.2796
  434THF    H13 7082   4.568   1.876   2.150 -0.6237  1.0149 -0.5618
  435THF     O1 7083   4.470   0.092   1.388 -0.4707  0.1627 -0.6340
  435THF     C2 7084   4.360   0.174   1.349  0.4665 -0.0554  0.5858
  435THF     C3 7085   4.587   0.173   1.382 -0.5805  0.2542  0.2836
  435THF     H4 7086   4.322   0.220   1.440 -0.0546 -0.9230  0.8246
  435THF     H5 7087   4.284   0.117   1.294  2.8706 -0.4954 -2.5723
  435THF     H6 7088   4.639   0.178   1.477 -0.3590 -3.3992  0.4887
  435THF     H7 7089   4.650   0.117   1.313 -1.3273 -1.3563  0.8637
  435THF     C8 7090   4.545   0.308   1.323 -0.3566  0.3641 -0.4314
  435THF     C9 7091   4.421   0.280   1.253 -0.6573  0.1975  0.8435
  435THF    H10 7092   4.616   0.357   1.256 -0.7180  0.8565 -0.4547
  435THF    H11 7093   4.540   0.369   1.413  1.8064 -0.4095  0.2823
  435THF    H12 7094   4.360   0.370   1.243  2.0443  1.8366 -3.4467
  435THF    H13 7095   4.444   0.243   1.153  0.1638  0.6236  0.8746
  436THF     O1 7096   1.615   1.257   5.006 -0.0820  0.3516 -0.0487
  436THF     C2 7097   1.619   1.298   5.143  0.0090  0.5118 -0.0632
  436THF     C3 7098   1.501   1.178   4.978 -0.1229  0.3606 -0.1569
  436THF     H4 7099   1.558   1.387   5.156 -0.4702  0.3557 -1.1602
  436THF     H5 7100   1.722   1.323   5.170  1.2720 -1.9055 -2.2573
  436THF     H6 7101   1.430   1.240   4.923 -0.8226 -0.7209 -0.5021
  436THF     H7 7102   1.521   1.094   4.911  0.5454  0.4338 -0.0532
  436THF     C8 7103   1.455   1.137   5.117 -0.4131  0.0973 -0.4844
  436THF     C9 7104   1.565   1.179   5.211  0.1317 -0.1631 -0.0634
  436THF    H10 7105   1.433   1.030   5.122 -1.4862  0.2783 -1.0107
  436THF    H11 7106   1.368   1.198   5.140 -0.6720  0.5543 -2.4544
  436THF    H12 7107   1.519   1.204   5.307 -0.7066  1.9445 -0.9472
  436THF    H13 7108   1.638   1.100   5.223  0.7210  0.3911  0.0725
  437THF     O1 7109   1.005   0.251   3.278 -0.0189  0.5846  0.1408
  437THF     C2 7110   1.058   0.261   3.149  0.7827  0.7263  0.2505
  437THF     C3 7111   0.866   0.285   3.263 -0.0935 -0.2746 -0.1554
  437THF     H4 7112   1.092   0.170   3.100 -0.0588  0.7528 -0.3948
  437THF     H5 7113   1.149   0.321   3.155  1.9963 -0.9538 -0.6533
  437THF     H6 7114   0.815   0.198   3.220 -0.0914  0.2824 -1.3134
  437THF     H7 7115   0.810   0.310   3.354 -0.8918 -1.7584 -0.2017
  437THF     C8 7116   0.867   0.396   3.156 -0.3252 -0.3944  0.2049
  437THF     C9 7117   0.959   0.330   3.056 -1.2126  0.7949  0.4283
  437THF    H10 7118   0.888   0.491   3.205  2.2347 -0.8685  0.1339
  437THF    H11 7119   0.771   0.399   3.104 -0.5937 -0.1717  0.7064
  437THF    H12 7120   0.914   0.258   2.988  2.4724 -0.6578 -0.7256
  437THF    H13 7121   1.007   0.397   2.984 -2.1705 -0.3061 -1.2860
  438THF     O1 7122   1.811   2.976   1.165  0.1501 -0.6823 -0.1105
  438THF     C2 7123   1.926   2.914   1.115  0.2065  0.3797 -0.0253
  438THF     C3 7124   1.836   3.115   1.175 -0.2420 -0.2171  0.3539
  438THF     H4 7125   1.890   2.823   1.066 -1.5688  1.9529 -1.8288
  438THF     H5 7126   1.994   2.896   1.198 -0.1876  0.4677  0.3197
  438THF     H6 7127   1.746   3.177   1.177 -0.5466 -0.4412 -2.5598
  438THF     H7 7128   1.901   3.131   1.261  1.1057  1.2005 -0.8642
  438THF     C8 7129   1.905   3.150   1.045 -0.1326 -0.1586 -0.2219
  438THF     C9 7130   1.989   3.023   1.023 -0.5821 -0.5740 -0.0325
  438THF    H10 7131   1.971   3.237   1.046 -2.5814  1.8146 -0.5201
  438THF    H11 7132   1.838   3.168   0.961 -1.2651 -1.7458  0.2927
  438THF    H12 7133   1.983   3.001   0.916 -2.4229  1.3143 -0.3779
  438THF    H13 7134   2.094   3.026   1.053 -1.0382  1.4487  1.5477
  439THF     O1 7135   4.472   3.751   3.302  0.4081  0.5384 -0.5241
  439THF     C2 7136   4.601   3.801   3.276  0.5360  0.7122  0.3148
  439THF     C3 7137   4.426   3.675   3.194 -0.2705 -0.5705  0.1778
  439THF     H4 7138   4.678   3.723   3.272  0.9762  1.1860 -0.9479
  439THF     H5 7139   4.633   3.884   3.339 -0.3707  2.8605 -1.9348
  439THF     H6 7140   4.465   3.573   3.194  1.0466 -0.0877  0.3633
  439THF     H7 7141   4.317   3.675   3.198 -0.4533  1.6552 -2.5023
  439THF     C8 7142   4.482   3.758   3.079 -0.1856 -0.3111  0.3423
  439THF     C9 7143   4.592   3.850   3.133  0.5124  0.0277 -0.0932
  439THF    H10 7144   4.404   3.820   3.034  1.0754 -0.3139 -2.0591
  439THF    H11 7145   4.511   3.690   2.998 -1.9322  0.0695 -0.6609
  439THF    H12 7146   4.675   3.839   3.064 -1.6077  0.8714 -2.9884
  439THF    H13 7147   4.576   3.958   3.132  0.3809  0.0475  1.5728
  440THF     O1 7148   5.041   0.034   2.728  0.7790 -0.5840 -0.2966
  440THF     C2 7149   4.956   0.124   2.662 -0.2770 -0.6898  0.0507
  440THF     C3 7150   5.057  -0.083   2.655  0.1236 -0.4562 -0.1752
  440THF     H4 7151   4.960   0.229   2.692  0.3911 -0.5992 -0.3317
  440THF     H5 7152   4.853   0.088   2.657 -0.5199 -0.1114  0.7078
  440THF     H6 7153   5.146  -0.142   2.679 -0.2360 -1.3101 -0.8854
  440THF     H7 7154   4.966  -0.143   2.659  0.0116 -0.2338  1.0548
  440THF     C8 7155   5.081  -0.025   2.521  0.2883 -0.7619 -0.1565
  440THF     C9 7156   5.021   0.115   2.521 -0.1334 -0.1068  0.8621
  440THF    H10 7157   5.040  -0.099   2.452  1.3289 -2.9126  1.4505
  440THF    H11 7158   5.188  -0.012   2.506  0.1023 -0.3172 -1.1786
  440THF    H12 7159   5.109   0.178   2.515  1.2228 -2.0148 -1.8815
  440THF    H13 7160   4.964   0.125   2.429  0.9009  0.2622  0.2413
  441THF     O1 7161   5.502   1.778   3.051 -0.1181 -0.2108  0.4205
  441THF     C2 7162   5.520   1.687   3.157  0.0527 -0.4010  0.2439
  441THF     C3 7163   5.362   1.775   3.015 -0.5658 -0.5650  0.7489
  441THF     H4 7164   5.499   1.717   3.260  1.5263 -1.5804  0.9356
  441THF     H5 7165   5.620   1.645   3.166 -0.1863 -0.7349  1.7290
  441THF     H6 7166   5.313   1.860   3.063 -0.7897 -1.9927  3.2508
  441THF     H7 7167   5.347   1.797   2.910 -0.4693 -2.6712  0.2510
  441THF     C8 7168   5.310   1.640   3.047 -0.0884 -0.7568  0.3847
  441THF     C9 7169   5.429   1.572   3.116  0.1451  0.7523  0.7562
  441THF    H10 7170   5.270   1.589   2.959  0.4363  0.4707 -0.6033
  441THF    H11 7171   5.229   1.638   3.120  0.5473  0.0038  1.1287
  441THF    H12 7172   5.412   1.514   3.206  0.5785 -0.9972 -0.2410
  441THF    H13 7173   5.480   1.509   3.044  2.3102  1.8126  1.2663
  442THF     O1 7174   0.617   3.424   5.397  0.1699 -0.6382  0.1229
  442THF     C2 7175   0.563   3.292   5.373 -0.6717  0.0551  0.3106
  442THF     C3 7176   0.700   3.460   5.292  0.4820 -0.2313 -0.2936
  442THF     H4 7177   0.484   3.258   5.440  0.5900  2.4013  3.2280
  442THF     H5 7178   0.638   3.214   5.366 -0.8202 -0.3391  2.4258
  442THF     H6 7179   0.709   3.569   5.294  0.0631 -0.1623  2.2258
  442THF     H7 7180   0.798   3.428   5.326 -0.0565 -0.8950  0.7113
  442THF     C8 7181   0.634   3.392   5.172 -0.1891 -0.7945 -0.6139
  442THF     C9 7182   0.523   3.307   5.234  0.6776  0.6045  0.2973
  442THF    H10 7183   0.699   3.318   5.125 -0.2392 -1.6776  0.6431
  442THF    H11 7184   0.598   3.466   5.100 -0.3416  2.1371  2.2583
  442THF    H12 7185   0.424   3.352   5.242  0.7562  0.6616  1.1225
  442THF    H13 7186   0.502   3.208   5.194  1.7291  0.9989 -1.2965
  443THF     O1 7187   2.265   0.077   1.636  0.2227 -0.0399  1.0039
  443THF     C2 7188   2.240   0.072   1.770  0.4414 -0.3697  0.1945
  443THF     C3 7189   2.397   0.050   1.617  0.8137 -0.2178  0.2694
  443THF     H4 7190   2.137   0.054   1.801  0.4074 -0.7820 -0.1434
  443THF     H5 7191   2.272   0.167   1.811 -0.7401  0.4323 -0.6770
  443THF     H6 7192   2.429   0.035   1.514 -1.0825 -0.2151 -0.3544
  443THF     H7 7193   2.455   0.129   1.666 -0.2282 -0.1791  1.5033
  443THF     C8 7194   2.405  -0.077   1.706 -0.5876  0.3314  0.3578
  443THF     C9 7195   2.320  -0.045   1.824 -0.4232  0.7312 -0.7935
  443THF    H10 7196   2.508  -0.109   1.726 -0.6668 -0.7791 -0.8866
  443THF    H11 7197   2.358  -0.160   1.654 -1.8781  0.3667  1.4353
  443THF    H12 7198   2.277  -0.136   1.864 -3.2831  2.7105  1.0566
  443THF    H13 7199   2.379   0.004   1.901  2.4875  1.3865 -3.2246
  444THF     O1 7200   0.014   3.836   2.940 -0.4774 -0.3697  0.0175
  444THF     C2 7201  -0.112   3.771   2.960  0.8445  0.2920 -0.6861
  444THF     C3 7202   0.096   3.759   2.845  0.5814  0.2405  0.1707
  444THF     H4 7203  -0.184   3.813   2.889  0.3572 -0.0399 -0.3958
  444THF     H5 7204  -0.150   3.783   3.061  0.2411 -1.1565 -0.7231
  444THF     H6 7205   0.096   3.813   2.750  0.2670  1.1003  0.6429
  444THF     H7 7206   0.201   3.752   2.874  0.3255  1.4053  1.5543
  444THF     C8 7207   0.023   3.622   2.825  0.0869  0.3875 -0.0506
  444THF     C9 7208  -0.073   3.620   2.937  0.2473  0.7632  0.0211
  444THF    H10 7209   0.093   3.538   2.826 -0.1332  0.1954 -0.4918
  444THF    H11 7210  -0.025   3.634   2.728  1.5032 -1.5530 -1.0505
  444THF    H12 7211  -0.158   3.555   2.921  1.3484 -0.3739 -1.5288
  444THF    H13 7212  -0.027   3.593   3.032 -2.4108 -1.5547  0.7745
  445THF     O1 7213   0.246   2.233   1.366 -0.2242 -0.2987  0.1704
  445THF     C2 7214   0.223   2.369   1.391  0.2099 -0.7794  0.0378
  445THF     C3 7215   0.326   2.219   1.244 -0.2509 -0.3254  0.5362
  445THF     H4 7216   0.310   2.429   1.419 -0.9022  1.5345 -1.1644
  445THF     H5 7217   0.139   2.386   1.459 -0.4060 -0.5342 -0.7718
  445THF     H6 7218   0.429   2.202   1.274  0.8747  2.2275 -1.5012
  445THF     H7 7219   0.307   2.126   1.192 -1.7061 -0.6817  1.6296
  445THF     C8 7220   0.298   2.348   1.172  0.3360 -0.4134 -0.0984
  445THF     C9 7221   0.193   2.425   1.260  0.3600  0.5751  0.1378
  445THF    H10 7222   0.260   2.336   1.070 -1.8528 -3.5172  0.9463
  445THF    H11 7223   0.385   2.414   1.168 -0.7433  1.0854  0.2319
  445THF    H12 7224   0.208   2.533   1.253  3.1702  0.3921  1.7215
  445THF    H13 7225   0.094   2.394   1.226  0.8549  0.2938 -1.0966
  446THF     O1 7226   2.062   5.264   4.595 -0.1724 -0.1932  0.6332
  446THF     C2 7227   2.193   5.213   4.594  0.4136  0.2644 -0.0746
  446THF     C3 7228   2.033   5.334   4.468 -0.1355 -1.0692  0.1729
  446THF     H4 7229   2.193   5.125   4.658  1.9421  0.7983  0.7057
  446THF     H5 7230   2.272   5.288   4.608  0.5606  0.1332 -0.2019
  446THF     H6 7231   1.928   5.340   4.439 -0.2550  0.6304  0.7972
  446THF     H7 7232   2.077   5.434   4.476  0.2046 -1.0934 -1.0896
  446THF     C8 7233   2.118   5.264   4.368  0.1340  0.3473  0.9707
  446THF     C9 7234   2.192   5.158   4.456 -0.1154  0.3102 -0.1071
  446THF    H10 7235   2.185   5.341   4.330  0.0189 -0.2153 -0.4374
  446THF    H11 7236   2.077   5.219   4.278 -0.5127 -1.2442  2.0018
  446THF    H12 7237   2.134   5.067   4.442 -1.5194  0.8717  1.7581
  446THF    H13 7238   2.294   5.150   4.419 -0.6616 -0.1994 -1.5974
  447THF     O1 7239   0.322   1.332   2.359 -0.1230 -0.3956 -0.2825
  447THF     C2 7240   0.412   1.397   2.270 -0.0299 -0.1275 -0.3377
  447THF     C3 7241   0.340   1.398   2.486  0.6051  0.3231  0.1921
  447THF     H4 7242   0.373   1.492   2.234  2.3550  0.7328 -0.8383
  447THF     H5 7243   0.434   1.340   2.180 -0.7557 -1.3564  0.2350
  447THF     H6 7244   0.304   1.501   2.484 -0.2412  0.0301 -0.4113
  447THF     H7 7245   0.305   1.339   2.571 -0.1660  2.1264  1.1710
  447THF     C8 7246   0.489   1.403   2.498 -0.8299  0.4757  0.4917
  447THF     C9 7247   0.539   1.415   2.351 -0.4872  0.4118 -0.5910
  447THF    H10 7248   0.538   1.320   2.548 -1.6288 -0.7237 -0.6667
  447THF    H11 7249   0.522   1.493   2.551  0.9280 -0.1269  0.4863
  447THF    H12 7250   0.589   1.503   2.312  0.7595 -0.7421 -1.7002
  447THF    H13 7251   0.610   1.337   2.326 -0.6186  0.1265 -0.0922
  448THF     O1 7252   3.330   1.288   3.122  0.2232 -0.2514 -0.4501
  448THF     C2 7253   3.227   1.192   3.083  0.1651  0.2577  0.6466
  448THF     C3 7254   3.347   1.275   3.259  0.1840 -0.4432  1.0039
  448THF     H4 7255   3.243   1.155   2.982  1.5415  0.9362  0.5971
  448THF     H5 7256   3.124   1.225   3.096 -0.6541 -2.2598  1.0976
  448THF     H6 7257   3.433   1.320   3.309 -0.7719  0.4515  1.8759
  448THF     H7 7258   3.258   1.315   3.308 -0.3229  1.5440 -1.3223
  448THF     C8 7259   3.360   1.122   3.273  0.5097 -0.7684  0.7009
  448THF     C9 7260   3.249   1.078   3.182 -0.7161 -0.7284  0.0587
  448THF    H10 7261   3.335   1.090   3.374 -0.1765 -0.2173  0.7138
  448THF    H11 7262   3.460   1.092   3.241  0.1993 -1.8637  0.7307
  448THF    H12 7263   3.277   0.993   3.120 -1.2272 -0.8624  0.0083
  448THF    H13 7264   3.151   1.068   3.228 -1.4201  2.4342 -0.4785
  449THF     O1 7265   2.007   3.239   3.822  0.0510 -0.4191 -0.1827
  449THF     C2 7266   1.895   3.281   3.737 -0.1833 -0.7046  0.5594
  449THF     C3 7267   2.076   3.132   3.751  0.1355 -0.2113 -0.2654
  449THF     H4 7268   1.848   3.375   3.765 -0.4127 -0.6158 -0.1160
  449THF     H5 7269   1.810   3.212   3.736 -1.8359  1.2521  0.0567
  449THF     H6 7270   2.176   3.113   3.791 -0.6860 -0.2596  1.8824
  449THF     H7 7271   2.009   3.047   3.765 -0.6460  0.6577  1.7006
  449THF     C8 7272   2.083   3.195   3.611 -0.1582 -0.2390  0.2054
  449THF     C9 7273   1.957   3.288   3.603 -0.1787 -0.3915  0.2054
  449THF    H10 7274   2.076   3.118   3.535 -0.7404 -0.4631  0.4781
  449THF    H11 7275   2.170   3.254   3.586  0.1851 -0.8813 -0.1377
  449THF    H12 7276   1.973   3.390   3.569 -0.0594 -1.3297 -2.8234
  449THF    H13 7277   1.882   3.257   3.531  2.1508  0.4393 -2.7737
  450THF     O1 7278   0.949   3.058   5.434  0.3794 -0.4454  0.6221
  450THF     C2 7279   1.026   3.024   5.321 -0.3076 -0.4103 -0.0424
  450THF     C3 7280   0.973   3.190   5.485  0.3814 -0.6825  0.3838
  450THF     H4 7281   0.952   3.021   5.240 -0.6470  0.6521  0.2025
  450THF     H5 7282   1.073   2.927   5.328  0.5637  0.0034 -0.0273
  450THF     H6 7283   0.881   3.245   5.506  1.6545  1.6811  0.1399
  450THF     H7 7284   1.016   3.168   5.582 -0.7851  0.1459  1.1092
  450THF     C8 7285   1.074   3.257   5.378 -0.8235 -0.0292  0.8753
  450THF     C9 7286   1.134   3.132   5.310  0.1325  0.6367 -0.3109
  450THF    H10 7287   1.156   3.301   5.434 -0.6292 -0.1369  0.6769
  450THF    H11 7288   1.038   3.339   5.314  2.6416 -0.2294 -1.6161
  450THF    H12 7289   1.173   3.149   5.210 -0.9879  2.9715 -0.4102
  450THF    H13 7290   1.219   3.110   5.376  0.5485  1.3666 -0.5883
  451THF     O1 7291   2.916   4.831   3.277  0.1409 -0.1207 -0.4664
  451THF     C2 7292   3.046   4.846   3.239 -0.2775  0.2690 -0.0890
  451THF     C3 7293   2.841   4.939   3.239  0.8520 -0.0986 -0.2097
  451THF     H4 7294   3.080   4.750   3.200 -0.9053 -1.2067  2.7059
  451THF     H5 7295   3.111   4.878   3.321 -0.2454  2.0128 -0.7553
  451THF     H6 7296   2.732   4.931   3.238  0.9132 -1.3090  0.8907
  451THF     H7 7297   2.874   5.010   3.314  0.4194 -1.5320  1.4120
  451THF     C8 7298   2.903   4.981   3.108  0.1476  0.2715  0.3110
  451THF     C9 7299   3.048   4.938   3.129 -0.6531  0.1806  0.4611
  451THF    H10 7300   2.901   5.088   3.091 -0.8147 -0.0511 -2.0683
  451THF    H11 7301   2.845   4.938   3.026  0.0077 -1.7574  1.3882
  451THF    H12 7302   3.073   4.877   3.042 -0.9283 -2.0966  1.8874
  451THF    H13 7303   3.128   5.012   3.132 -2.4136  2.5698 -3.4765
  452THF     O1 7304   4.943   2.382   0.438  0.0157 -0.0944 -0.1721
  452THF     C2 7305   4.848   2.462   0.373  0.1738 -0.0388  0.1496
  452THF     C3 7306   5.048   2.464   0.503  0.2032  0.6968 -0.5159
  452THF     H4 7307   4.753   2.444   0.423  0.4829  0.9361  1.1210
  452THF     H5 7308   4.825   2.434   0.270 -0.0246  0.4150  0.0685
  452THF     H6 7309   5.085   2.405   0.587  0.1502  0.0862 -0.9205
  452THF     H7 7310   5.135   2.476   0.439  0.9408 -1.9505 -0.1329
  452THF     C8 7311   4.983   2.597   0.529  0.1824  0.0220 -0.3764
  452THF     C9 7312   4.904   2.604   0.395  0.4072 -0.2405  0.1709
  452THF    H10 7313   5.065   2.669   0.536 -0.8700  1.1689  0.9035
  452THF    H11 7314   4.928   2.597   0.623  1.7232  1.7688  0.5848
  452THF    H12 7315   4.818   2.670   0.395  0.2567 -0.3709 -2.1293
  452THF    H13 7316   4.964   2.637   0.311  1.1392 -2.6512 -0.3353
  453THF     O1 7317   5.472   4.100   4.891 -0.2006 -0.2990 -0.1555
  453THF     C2 7318   5.488   4.197   4.795 -0.0960  0.4606  0.1193
  453THF     C3 7319   5.342   4.034   4.894 -0.5846 -0.4693 -0.4355
  453THF     H4 7320   5.575   4.168   4.737  0.2756  0.2763  0.7639
  453THF     H5 7321   5.508   4.292   4.845 -1.7585  0.0329  1.6798
  453THF     H6 7322   5.347   3.926   4.911 -1.7230 -0.3002  1.2569
  453THF     H7 7323   5.273   4.076   4.968 -1.2831 -1.1882 -0.6608
  453THF     C8 7324   5.279   4.064   4.756  0.0548 -0.3610  0.2889
  453THF     C9 7325   5.353   4.194   4.717  0.4002 -0.1161 -0.7848
  453THF    H10 7326   5.171   4.061   4.744 -0.1617  1.7301  1.2040
  453THF    H11 7327   5.323   3.994   4.685  1.0865 -0.0832  0.6387
  453THF    H12 7328   5.373   4.203   4.610  1.5979 -0.0070 -0.5702
  453THF    H13 7329   5.297   4.283   4.747 -0.0721 -1.4648  2.7777
  454THF     O1 7330   3.306   4.401   1.321  0.0693  0.1368  0.0432
  454THF     C2 7331   3.227   4.511   1.366 -0.2113 -0.0205  0.6174
  454THF     C3 7332   3.232   4.294   1.371  0.5076  0.0283  0.6424
  454THF     H4 7333   3.133   4.512   1.311 -0.3305 -1.4177  0.7452
  454THF     H5 7334   3.280   4.605   1.349  0.0227 -0.2289  0.1795
  454THF     H6 7335   3.144   4.267   1.313  1.2589 -1.2947  0.1045
  454THF     H7 7336   3.282   4.199   1.387 -1.3060 -0.6067  3.3839
  454THF     C8 7337   3.183   4.334   1.510 -0.1981 -0.3500 -0.0819
  454THF     C9 7338   3.212   4.482   1.523 -0.7845  0.3572  0.1645
  454THF    H10 7339   3.229   4.270   1.585  2.1442  1.0084 -0.2516
  454THF    H11 7340   3.075   4.324   1.518 -0.2946  0.3740 -0.3360
  454THF    H12 7341   3.132   4.535   1.574  0.0703  0.7445  1.1277
  454THF    H13 7342   3.305   4.501   1.577 -1.0714 -2.5766  1.8894
  455THF     O1 7343   1.342   0.332   5.007 -0.0948 -0.3290 -0.8005
  455THF     C2 7344   1.304   0.464   5.047  0.1134  0.2768  0.1661
  455THF     C3 7345   1.434   0.333   4.898 -0.3249  0.0427  0.7023
  455THF     H4 7346   1.375   0.503   5.120 -0.3855  1.4817  0.0356
  455THF     H5 7347   1.209   0.472   5.101 -0.9835 -0.6992 -1.5082
  455THF     H6 7348   1.532   0.342   4.943 -1.2926  0.3956  2.8612
  455THF     H7 7349   1.427   0.246   4.833  2.0735 -1.1423  1.9245
  455THF     C8 7350   1.392   0.464   4.826 -0.4014  0.4816 -0.4296
  455THF     C9 7351   1.289   0.528   4.909  0.3614 -0.4727 -0.5290
  455THF    H10 7352   1.350   0.441   4.728 -1.6827  1.1748 -0.0630
  455THF    H11 7353   1.491   0.510   4.823  0.3517 -1.0126  0.6090
  455THF    H12 7354   1.306   0.635   4.925 -0.4689 -0.5250  0.8289
  455THF    H13 7355   1.196   0.508   4.856  1.2072  0.1620 -2.3365
  456THF     O1 7356   1.963   4.080   1.167  0.0103  0.0849 -0.3222
  456THF     C2 7357   2.094   4.107   1.217 -0.1317 -0.1063  0.4428
  456THF     C3 7358   1.935   4.179   1.069 -0.4014  0.5831  0.4390
  456THF     H4 7359   2.146   4.024   1.265  0.6079  0.8353  1.2817
  456THF     H5 7360   2.085   4.188   1.289 -5.4103  0.1090 -0.0393
  456THF     H6 7361   1.907   4.136   0.972 -3.4990 -1.0176  1.9207
  456THF     H7 7362   1.857   4.248   1.099  2.0380  3.2499  1.1382
  456THF     C8 7363   2.060   4.262   1.055  0.0433 -0.1987 -0.5261
  456THF     C9 7364   2.168   4.167   1.096  0.1190 -0.0913 -1.0652
  456THF    H10 7365   2.068   4.348   1.121  1.9155 -0.2898 -0.5639
  456THF    H11 7366   2.067   4.304   0.954 -2.0663 -2.4636 -1.7310
  456THF    H12 7367   2.184   4.098   1.013  0.6602  0.8588 -1.7647
  456THF    H13 7368   2.256   4.219   1.134 -1.5704  3.0080 -1.1230
  457THF     O1 7369   4.862   2.435   3.938 -0.3479 -0.9640  0.0752
  457THF     C2 7370   4.722   2.441   3.969 -0.4220  0.0934 -0.4054
  457THF     C3 7371   4.909   2.556   3.867  0.4043 -0.2583  0.7121
  457THF     H4 7372   4.694   2.447   4.074  0.5150  0.4595 -0.1671
  457THF     H5 7373   4.683   2.345   3.933  1.2440 -0.5676 -0.5504
  457THF     H6 7374   4.954   2.630   3.933 -0.1991 -1.1501  2.1689
  457THF     H7 7375   4.984   2.517   3.798  1.4539  1.8589  0.5774
  457THF     C8 7376   4.778   2.605   3.802 -0.9719 -0.2806  0.2594
  457THF     C9 7377   4.663   2.561   3.893  0.3140  0.0730 -0.5263
  457THF    H10 7378   4.783   2.553   3.706  1.3527 -0.1952  0.2594
  457THF    H11 7379   4.794   2.710   3.780 -0.0288 -0.5949 -0.6701
  457THF    H12 7380   4.634   2.644   3.958  1.3459  0.5842 -0.7030
  457THF    H13 7381   4.568   2.538   3.845  0.3171 -0.1106 -0.4449
  458THF     O1 7382   1.948   1.436   4.751  0.5379  0.3477  0.2418
  458THF     C2 7383   1.833   1.411   4.842  0.6228 -0.0839 -0.4153
  458THF     C3 7384   1.984   1.576   4.762  0.3362  0.2482  0.2878
  458THF     H4 7385   1.821   1.305   4.861 -1.7502  0.0207 -1.0456
  458THF     H5 7386   1.737   1.449   4.808 -1.6202 -3.4605  1.5521
  458THF     H6 7387   2.087   1.588   4.728  0.6853  0.6330  1.4048
  458THF     H7 7388   1.926   1.653   4.711 -1.9264 -1.5337  0.0626
  458THF     C8 7389   1.961   1.602   4.910  0.4030 -0.0262 -0.4488
  458THF     C9 7390   1.898   1.475   4.965  0.4502 -0.4702  0.3330
  458THF    H10 7391   1.906   1.695   4.918  2.9844  1.6698 -1.1909
  458THF    H11 7392   2.057   1.623   4.958  0.8497 -1.3185 -0.7322
  458THF    H12 7393   1.983   1.413   4.994  0.0599 -0.0431  2.6047
  458THF    H13 7394   1.834   1.497   5.051  0.2477 -0.1566  0.1026
  459THF     O1 7395   2.539   3.674   3.597 -0.1324 -0.0867  0.2561
  459THF     C2 7396   2.583   3.677   3.734 -0.9244 -0.6073  0.4499
  459THF     C3 7397   2.413   3.740   3.598  0.8486 -0.0547  0.4069
  459THF     H4 7398   2.643   3.764   3.760  1.7401 -1.6346 -1.7076
  459THF     H5 7399   2.645   3.597   3.774  1.3694  1.6730  1.7662
  459THF     H6 7400   2.427   3.847   3.616  0.2015 -0.3390  2.8572
  459THF     H7 7401   2.355   3.726   3.506 -0.1423 -0.5861  1.1047
  459THF     C8 7402   2.337   3.675   3.715  0.4760  0.1096 -0.1207
  459THF     C9 7403   2.448   3.678   3.817 -0.4314 -0.6519 -0.7944
  459THF    H10 7404   2.307   3.573   3.690 -0.5639 -0.1637  2.0572
  459THF    H11 7405   2.245   3.720   3.749 -0.1282 -0.4475 -0.9712
  459THF    H12 7406   2.434   3.760   3.887 -0.0734 -1.2051 -0.0620
  459THF    H13 7407   2.445   3.594   3.887  2.8491 -1.3013 -1.2558
  460THF     O1 7408   2.028   0.006   1.239  0.8171  0.3215 -0.1158
  460THF     C2 7409   1.904  -0.005   1.169  0.6809 -0.0828  1.1075
  460THF     C3 7410   2.006  -0.056   1.366 -0.6792 -0.2069 -0.3794
  460THF     H4 7411   1.927   0.001   1.062  0.6499  0.9870  1.1506
  460THF     H5 7412   1.834   0.075   1.195 -0.1481 -0.0724 -0.9807
  460THF     H6 7413   2.096  -0.088   1.419 -0.9287 -0.9374 -0.3812
  460THF     H7 7414   1.943   0.004   1.433  1.5023  0.7268  0.9704
  460THF     C8 7415   1.926  -0.183   1.323 -0.4999 -0.2266  0.0900
  460THF     C9 7416   1.843  -0.144   1.203  0.6749 -0.3515  1.2179
  460THF    H10 7417   1.859  -0.215   1.402 -0.4328 -1.1600 -0.2226
  460THF    H11 7418   1.998  -0.263   1.303  2.0495  1.6039  1.3403
  460THF    H12 7419   1.867  -0.217   1.126 -2.0080  0.3147 -0.4126
  460THF    H13 7420   1.739  -0.157   1.235  1.3320 -2.3784  2.7665
  461THF     O1 7421   0.786   4.332   2.175  0.0964  0.1218  0.7695
  461THF     C2 7422   0.718   4.450   2.147 -0.5452  0.1203  0.2297
  461THF     C3 7423   0.891   4.365   2.256 -0.3570  0.1215  0.2437
  461THF     H4 7424   0.649   4.473   2.228 -0.8949 -0.3967  0.0882
  461THF     H5 7425   0.673   4.430   2.049  1.6454  0.2970 -0.8699
  461THF     H6 7426   0.840   4.383   2.351 -0.2414  0.8002  0.1754
  461THF     H7 7427   0.972   4.292   2.265 -1.5778 -1.5295 -1.3500
  461THF     C8 7428   0.948   4.491   2.191 -0.1271  0.1708  0.3076
  461THF     C9 7429   0.821   4.558   2.139  0.7403 -0.3064 -0.0951
  461THF    H10 7430   1.010   4.457   2.108 -1.1851 -3.7160  0.9326
  461THF    H11 7431   1.013   4.556   2.249  0.7967 -1.8352  1.6484
  461THF    H12 7432   0.782   4.640   2.198  0.3611 -0.6469  0.1332
  461THF    H13 7433   0.829   4.599   2.038  2.5399  0.9994  0.5294
  462THF     O1 7434   1.757   4.982   2.172 -0.2357  0.2070  0.1915
  462THF     C2 7435   1.896   5.008   2.189 -0.1835  0.1980 -0.5269
  462THF     C3 7436   1.691   5.069   2.257  1.1038 -0.4462 -0.6485
  462THF     H4 7437   1.941   4.977   2.094 -0.4194  0.4858 -0.7373
  462THF     H5 7438   1.940   4.962   2.277  0.8755  1.0887 -0.5598
  462THF     H6 7439   1.583   5.084   2.259  1.2092  0.3124  0.1251
  462THF     H7 7440   1.717   5.049   2.361 -1.2617 -0.4903 -0.0062
  462THF     C8 7441   1.755   5.202   2.229  0.8838  0.1694  0.4719
  462THF     C9 7442   1.897   5.162   2.205 -0.3683  0.4566 -0.3482
  462THF    H10 7443   1.749   5.272   2.313 -1.0124  0.2478  0.3004
  462THF    H11 7444   1.706   5.245   2.142  0.6271 -0.2022  0.4300
  462THF    H12 7445   1.944   5.215   2.122 -0.0370  0.9645  0.1580
  462THF    H13 7446   1.964   5.187   2.287  1.0989 -2.6436 -0.4913
  463THF     O1 7447   1.178   3.656   3.510  0.2405 -0.0080 -0.0236
  463THF     C2 7448   1.109   3.590   3.402 -0.2188 -0.9832 -0.3414
  463THF     C3 7449   1.112   3.625   3.632 -0.3501 -0.2911 -0.1141
  463THF     H4 7450   1.185   3.553   3.333  1.4215  1.0435  0.2649
  463THF     H5 7451   1.053   3.673   3.358 -0.7421  0.0882  2.1685
  463THF     H6 7452   1.183   3.597   3.710 -0.0514  1.6198  0.3581
  463THF     H7 7453   1.069   3.716   3.674 -1.4234 -0.3837 -0.9745
  463THF     C8 7454   0.993   3.535   3.601 -0.0863  1.0627  0.0404
  463THF     C9 7455   1.023   3.484   3.467 -0.3268  0.3534 -0.5982
  463THF    H10 7456   0.898   3.588   3.604 -1.0946 -0.6958  1.0004
  463THF    H11 7457   0.972   3.453   3.670  0.8348  1.4033  0.7504
  463THF    H12 7458   1.081   3.392   3.468 -0.3014  0.3767  0.2183
  463THF    H13 7459   0.932   3.457   3.413 -0.3310 -0.7701 -0.0512
  464THF     O1 7460   0.514   1.620   4.175 -0.0398 -0.0125  0.0148
  464THF     C2 7461   0.391   1.553   4.136  0.3331 -1.2182  0.3829
  464THF     C3 7462   0.474   1.717   4.266  0.4036  0.5277  0.1521
  464THF     H4 7463   0.401   1.451   4.098 -3.8462 -1.1360 -1.5015
  464THF     H5 7464   0.357   1.596   4.041 -0.8319 -0.7984  0.9748
  464THF     H6 7465   0.562   1.740   4.326  0.9975 -0.7966 -0.1797
  464THF     H7 7466   0.439   1.801   4.206  0.5677  1.3767  1.2170
  464THF     C8 7467   0.363   1.645   4.340  0.2501  0.1245 -0.2513
  464THF     C9 7468   0.278   1.579   4.236 -0.0100  1.2284 -0.1670
  464THF    H10 7469   0.304   1.715   4.400 -3.4436  1.1439 -4.5090
  464THF    H11 7470   0.402   1.566   4.403 -1.4514  0.8213  1.7813
  464THF    H12 7471   0.249   1.480   4.271 -0.9998  2.2212  1.9800
  464THF    H13 7472   0.197   1.639   4.194 -0.3847  0.8834  0.0482
  465THF     O1 7473   0.861   2.609   2.861  0.2585  0.0139 -0.2256
  465THF     C2 7474   0.985   2.633   2.793  0.7809  0.5012  0.1395
  465THF     C3 7475   0.880   2.608   3.002 -0.1746 -0.3845 -0.0368
  465THF     H4 7476   1.000   2.741   2.802  0.2035  0.6186 -0.1725
  465THF     H5 7477   0.968   2.591   2.694  1.6443 -0.0069  0.2005
  465THF     H6 7478   0.868   2.708   3.043 -0.1615 -0.1031 -0.7146
  465THF     H7 7479   0.810   2.537   3.047 -1.5889  3.0287  3.7471
  465THF     C8 7480   1.027   2.562   3.016  0.1777  0.1269 -0.9313
  465THF     C9 7481   1.074   2.550   2.883  0.2644 -0.0563  0.4909
  465THF    H10 7482   1.036   2.468   3.071  0.3976  0.9042  0.4003
  465THF    H11 7483   1.086   2.642   3.061 -3.0502  1.7446  0.8282
  465THF    H12 7484   1.169   2.601   2.870  0.5686 -0.9105 -0.8615
  465THF    H13 7485   1.080   2.452   2.836  0.0976 -0.3172  1.0007
  466THF     O1 7486   0.477   2.620   1.316  0.0795 -0.1736  0.9059
  466THF     C2 7487   0.561   2.635   1.433  0.0906 -0.1179 -0.0641
  466THF     C3 7488   0.534   2.713   1.222 -0.6077 -0.3318 -0.9474
  466THF     H4 7489   0.565   2.547   1.497 -0.5494 -1.8601 -2.2856
  466THF     H5 7490   0.528   2.722   1.490 -0.8809 -0.1763 -0.5125
  466THF     H6 7491   0.511   2.698   1.116  0.7387  0.9660 -1.4715
  466THF     H7 7492   0.506   2.815   1.249 -0.8743 -0.7978  0.6297
  466THF     C8 7493   0.685   2.687   1.232 -0.5971  0.3768 -0.6681
  466THF     C9 7494   0.705   2.651   1.381  0.0036 -0.4594 -0.5959
  466THF    H10 7495   0.736   2.780   1.210  2.3427 -1.0752 -0.5420
  466THF    H11 7496   0.727   2.602   1.177  1.0493  0.3385  0.5870
  466THF    H12 7497   0.750   2.552   1.391 -0.1830 -0.4656  0.2532
  466THF    H13 7498   0.759   2.726   1.440 -0.9055  0.1527 -0.5177
  467THF     O1 7499   4.754   3.944   5.147  0.0924  0.3510  0.2707
  467THF     C2 7500   4.890   3.982   5.115  0.7245  0.5174  0.2702
  467THF     C3 7501   4.749   3.809   5.186 -0.1633  0.1375  0.1827
  467THF     H4 7502   4.900   4.084   5.153 -0.4107  0.0881  1.8110
  467THF     H5 7503   4.898   3.986   5.006 -1.1425 -1.4779 -0.0029
  467THF     H6 7504   4.661   3.785   5.245  0.0248  2.0977  1.3458
  467THF     H7 7505   4.757   3.750   5.095 -1.1430  1.1927 -0.6113
  467THF     C8 7506   4.875   3.810   5.274 -0.1351 -0.1969  0.0747
  467THF     C9 7507   4.979   3.887   5.191  0.2178  0.5627  0.4353
  467THF    H10 7508   4.905   3.708   5.300 -0.4039 -0.5116 -0.7980
  467THF    H11 7509   4.866   3.868   5.366  2.4507 -0.3415  0.4860
  467THF    H12 7510   5.060   3.934   5.247  2.0372 -0.4924 -1.1904
  467THF    H13 7511   5.016   3.808   5.125 -1.9260 -1.7619  1.8247
  468THF     O1 7512   1.760   0.072   0.852 -0.0251  0.1960  0.3546
  468THF     C2 7513   1.661   0.142   0.920 -0.1290 -0.8131 -0.3889
  468THF     C3 7514   1.713   0.049   0.721 -0.6940  0.2749  0.6728
  468THF     H4 7515   1.702   0.196   1.005  2.6688 -1.2395 -1.3494
  468THF     H5 7516   1.582   0.079   0.963  0.9314 -0.6059  2.0443
  468THF     H6 7517   1.796   0.012   0.660 -0.8054  1.8497 -0.5032
  468THF     H7 7518   1.624  -0.014   0.712  0.5343 -1.3526 -1.0729
  468THF     C8 7519   1.682   0.199   0.693  0.0709 -0.1772 -0.1140
  468THF     C9 7520   1.613   0.247   0.820  0.0330 -0.0302 -0.5846
  468THF    H10 7521   1.612   0.212   0.611  0.3453 -1.1384 -0.5082
  468THF    H11 7522   1.775   0.254   0.675 -0.3124  1.1672  1.7318
  468THF    H12 7523   1.641   0.347   0.853 -0.7396 -0.3971  1.3305
  468THF    H13 7524   1.504   0.244   0.820  0.0021  0.3705  0.7089
  469THF     O1 7525   2.997   1.138   1.645 -0.0174 -0.1631  0.8234
  469THF     C2 7526   3.032   1.065   1.760 -0.3102  0.3013 -0.0486
  469THF     C3 7527   3.119   1.132   1.564  0.4297 -0.0871  0.2485
  469THF     H4 7528   2.944   1.035   1.817  0.2389 -1.0529  0.1250
  469THF     H5 7529   3.084   1.123   1.837 -1.7465 -1.0890  2.1073
  469THF     H6 7530   3.082   1.122   1.462 -2.6860  0.7697  1.1814
  469THF     H7 7531   3.184   1.219   1.574  2.3227 -1.0867 -2.2253
  469THF     C8 7532   3.189   0.994   1.594 -0.2372  0.4927 -0.0529
  469THF     C9 7533   3.108   0.935   1.711  0.4956 -0.3768 -0.7315
  469THF    H10 7534   3.294   0.977   1.617 -0.9033 -1.7636  1.6796
  469THF    H11 7535   3.185   0.935   1.503 -1.1233 -0.4546  0.5778
  469THF    H12 7536   3.047   0.852   1.676 -0.6544 -0.5807  1.5389
  469THF    H13 7537   3.168   0.892   1.792 -0.4983  0.9738  0.7906
  470THF     O1 7538   1.687   1.920   4.782  0.1379 -0.2449  0.1696
  470THF     C2 7539   1.610   2.038   4.747 -0.7643 -0.2910  0.5026
  470THF     C3 7540   1.791   1.958   4.868 -0.6720 -0.1747 -0.0438
  470THF     H4 7541   1.510   2.014   4.710 -1.0432  2.1124 -0.4527
  470THF     H5 7542   1.659   2.087   4.664 -0.6586  0.4253  0.9786
  470THF     H6 7543   1.804   1.887   4.950  0.5313 -1.9004 -1.6357
  470THF     H7 7544   1.889   1.944   4.821 -0.7044  2.8750 -1.2478
  470THF     C8 7545   1.767   2.108   4.900  0.3078 -0.2407  0.2425
  470THF     C9 7546   1.615   2.129   4.863 -0.6506 -0.7245 -0.0808
  470THF    H10 7547   1.819   2.166   4.824 -0.2698  1.7113  1.2433
  470THF    H11 7548   1.790   2.142   5.001  0.2962 -1.3039  0.6070
  470THF    H12 7549   1.540   2.100   4.936  1.2542  1.2972  2.9057
  470THF    H13 7550   1.600   2.234   4.839  0.3792 -0.6282 -0.3679
  471THF     O1 7551   1.580   3.716   0.553 -0.0463  0.1484  0.3657
  471THF     C2 7552   1.531   3.831   0.488  0.8779 -0.4145  0.2040
  471THF     C3 7553   1.679   3.651   0.471 -0.2817  0.3669  0.3625
  471THF     H4 7554   1.556   3.921   0.543 -1.4924  0.5338 -0.1288
  471THF     H5 7555   1.422   3.836   0.495  0.9643  1.0113  0.8866
  471THF     H6 7556   1.782   3.660   0.507 -0.9354  2.0608  1.9557
  471THF     H7 7557   1.650   3.546   0.463  0.4303  0.3060 -3.1619
  471THF     C8 7558   1.664   3.718   0.335 -0.2472  0.2720  0.4223
  471THF     C9 7559   1.585   3.842   0.347  0.8460 -0.2153  0.1691
  471THF    H10 7560   1.607   3.642   0.282  0.5511  1.0641 -1.6495
  471THF    H11 7561   1.755   3.729   0.277 -0.3703  2.9727  0.6240
  471THF    H12 7562   1.652   3.928   0.343 -0.9459  1.2194 -0.6034
  471THF    H13 7563   1.525   3.873   0.260  1.5469  0.8850  0.0539
  472THF     O1 7564   3.476   0.569   2.558 -0.5245  0.2017  0.3634
  472THF     C2 7565   3.497   0.568   2.419 -0.5975 -0.2983 -0.3333
  472THF     C3 7566   3.422   0.692   2.589  0.9455 -0.4578  0.1189
  472THF     H4 7567   3.503   0.466   2.380 -1.8094 -0.3233 -0.4819
  472THF     H5 7568   3.588   0.615   2.381 -0.5784  0.6902  0.8874
  472THF     H6 7569   3.368   0.684   2.683 -0.9117 -1.0852 -0.9384
  472THF     H7 7570   3.511   0.755   2.592 -0.4105  1.5552  0.2563
  472THF     C8 7571   3.324   0.728   2.476 -0.7446  0.1097 -1.0093
  472THF     C9 7572   3.379   0.646   2.360  0.0541 -0.1724 -0.4876
  472THF    H10 7573   3.330   0.831   2.439 -0.4819  0.3472 -0.3209
  472THF    H11 7574   3.220   0.701   2.495 -1.7802  1.2887 -4.2120
  472THF    H12 7575   3.314   0.576   2.308  0.8391 -0.2288 -1.4258
  472THF    H13 7576   3.418   0.713   2.284 -0.3225 -0.0410 -0.5623
  473THF     O1 7577   1.597   3.717   2.529  0.3569 -0.0576 -0.2983
  473THF     C2 7578   1.517   3.833   2.559 -0.2113 -0.0767 -0.2276
  473THF     C3 7579   1.523   3.637   2.433 -0.2609  0.0294 -0.4506
  473THF     H4 7580   1.570   3.910   2.503  0.7041 -0.9928 -0.6442
  473THF     H5 7581   1.513   3.877   2.658 -0.6491  1.3563 -0.8530
  473THF     H6 7582   1.557   3.666   2.333  3.5462  0.4051  0.7950
  473THF     H7 7583   1.551   3.535   2.461 -0.9036  0.2312  0.9944
  473THF     C8 7584   1.373   3.655   2.469 -0.3553  0.3943  0.3718
  473THF     C9 7585   1.374   3.798   2.521 -0.1383 -0.0965 -0.7471
  473THF    H10 7586   1.353   3.590   2.554 -1.2451  0.4990  0.2466
  473THF    H11 7587   1.303   3.642   2.387  0.5661  2.0424 -0.7364
  473THF    H12 7588   1.344   3.868   2.444  0.1321 -0.6849 -1.3990
  473THF    H13 7589   1.303   3.803   2.604 -1.3647 -0.2341 -1.7680
  474THF     O1 7590   2.946   2.959   0.138  0.1696 -0.2155 -0.2176
  474THF     C2 7591   2.975   2.855   0.228  0.3554  0.1090  0.1821
  474THF     C3 7592   2.971   3.082   0.202  0.4649  0.5488  0.0190
  474THF     H4 7593   2.973   2.756   0.182  0.1451  0.7321 -1.1987
  474THF     H5 7594   2.905   2.855   0.311  0.2915  0.2042  0.1280
  474THF     H6 7595   3.019   3.151   0.132  0.4307  0.9104  0.3496
  474THF     H7 7596   2.876   3.125   0.235  0.2292  1.4308 -1.6724
  474THF     C8 7597   3.069   3.049   0.320  0.6689 -0.3060 -0.1833
  474THF     C9 7598   3.106   2.901   0.283 -0.6352 -0.1861  0.0049
  474THF    H10 7599   3.007   3.057   0.409 -0.9787 -0.8142 -1.2324
  474THF    H11 7600   3.159   3.112   0.319  0.5772 -0.0725 -3.1314
  474THF    H12 7601   3.186   2.907   0.210  0.6020  2.1236  1.4169
  474THF    H13 7602   3.148   2.845   0.366  0.9248  1.6976  0.5702
  475THF     O1 7603   4.819   5.438   1.317 -0.8205  0.3479 -0.4011
  475THF     C2 7604   4.914   5.457   1.418 -0.1664  0.8766 -0.3040
  475THF     C3 7605   4.886   5.383   1.207 -0.5967  0.0749  0.2680
  475THF     H4 7606   4.883   5.424   1.516  0.0198 -1.8127 -1.0843
  475THF     H5 7607   4.944   5.561   1.430 -0.8031  1.0675 -0.3256
  475THF     H6 7608   4.825   5.321   1.141  1.0978 -1.8173  0.3738
  475THF     H7 7609   4.924   5.468   1.151 -1.2674  1.1998  1.4495
  475THF     C8 7610   4.995   5.290   1.267 -0.0368  0.8270  0.2242
  475THF     C9 7611   5.045   5.372   1.378  0.5630  0.8996 -0.0618
  475THF    H10 7612   5.075   5.261   1.199  0.1308 -2.6393  1.6854
  475THF    H11 7613   4.961   5.195   1.307 -1.2565  0.3536 -1.8101
  475THF    H12 7614   5.081   5.316   1.464  0.2801  0.3715 -0.2805
  475THF    H13 7615   5.129   5.432   1.344  3.3985 -2.0878  1.1535
  476THF     O1 7616   1.370   4.355   2.504  0.6529  0.7972  0.3426
  476THF     C2 7617   1.282   4.319   2.612  0.5309  0.0988  0.5415
  476THF     C3 7618   1.319   4.295   2.388  0.3753 -0.5543  0.0934
  476THF     H4 7619   1.196   4.386   2.612  0.9765  0.6788  0.9746
  476THF     H5 7620   1.325   4.324   2.712  1.8636  0.0112  0.0019
  476THF     H6 7621   1.239   4.357   2.347  0.9157  0.2918  0.2882
  476THF     H7 7622   1.393   4.291   2.308  0.4256 -0.2288  0.1220
  476THF     C8 7623   1.270   4.160   2.440  0.1141 -0.1680  0.0910
  476THF     C9 7624   1.229   4.174   2.583  0.6281  0.6821  0.4744
  476THF    H10 7625   1.350   4.086   2.435 -1.0724 -1.6329  1.3832
  476THF    H11 7626   1.183   4.117   2.390  0.1228 -2.0480  1.5740
  476THF    H12 7627   1.121   4.169   2.599  0.1957 -0.2401 -2.3194
  476THF    H13 7628   1.278   4.103   2.649  0.7663  0.9119  0.6215
  477THF     O1 7629   4.371   2.918   0.626 -0.2005 -0.6147 -0.5954
  477THF     C2 7630   4.482   2.931   0.538  0.4688  1.1926 -0.0778
  477THF     C3 7631   4.395   2.831   0.738 -0.0758 -0.2455  0.8127
  477THF     H4 7632   4.556   2.999   0.579  1.6369  0.2994 -0.6139
  477THF     H5 7633   4.464   2.956   0.433  0.1703  0.5587 -0.1846
  477THF     H6 7634   4.450   2.899   0.802 -1.0683  0.4386  0.9611
  477THF     H7 7635   4.301   2.802   0.786 -0.9995  2.3054  0.7100
  477THF     C8 7636   4.469   2.724   0.663  0.1260  0.0356 -0.2882
  477THF     C9 7637   4.532   2.787   0.542 -0.0690 -0.6465 -0.4763
  477THF    H10 7638   4.400   2.644   0.635  1.3521 -0.4525 -2.0522
  477THF    H11 7639   4.548   2.681   0.724 -1.7437 -1.4359  1.2114
  477THF    H12 7640   4.639   2.775   0.525 -0.0395  1.0118 -1.6756
  477THF    H13 7641   4.493   2.753   0.446 -2.1086  0.8550 -0.2406
  478THF     O1 7642   4.529   5.184   5.486 -0.1725  0.2536 -0.7417
  478THF     C2 7643   4.427   5.141   5.575 -0.1464 -0.3708 -0.6407
  478THF     C3 7644   4.647   5.107   5.535  0.6163  0.1418  0.1887
  478THF     H4 7645   4.329   5.180   5.549  0.4167 -0.0148 -2.3233
  478THF     H5 7646   4.451   5.164   5.679  0.2686  1.4898 -1.1057
  478THF     H6 7647   4.716   5.121   5.451 -2.6178  1.0684 -2.5610
  478THF     H7 7648   4.697   5.166   5.612  0.2227  2.2089 -1.0493
  478THF     C8 7649   4.586   4.962   5.547  0.1400  0.1557 -0.1748
  478THF     C9 7650   4.440   4.993   5.559 -0.1383 -0.0537 -0.0000
  478THF    H10 7651   4.630   4.913   5.634 -0.0035 -0.0920 -0.2412
  478THF    H11 7652   4.597   4.903   5.456  2.1003  1.4849 -0.8819
  478THF    H12 7653   4.368   4.957   5.485 -0.5444 -0.8447  0.7583
  478THF    H13 7654   4.401   4.934   5.642  0.5913 -1.0572 -0.3516
  479THF     O1 7655   3.502   0.126   2.715 -0.4017 -0.0237  0.2047
  479THF     C2 7656   3.386   0.044   2.745  0.4146  0.1196  0.2870
  479THF     C3 7657   3.466   0.262   2.686 -0.1653 -0.5635  0.9215
  479THF     H4 7658   3.401  -0.036   2.818  0.7501  0.1131  0.2096
  479THF     H5 7659   3.344   0.002   2.654  0.5147 -0.0672  0.3252
  479THF     H6 7660   3.502   0.325   2.767  1.1967 -0.7747  0.5020
  479THF     H7 7661   3.498   0.301   2.589 -0.9027 -0.9850  0.4945
  479THF     C8 7662   3.322   0.254   2.687  0.6117 -0.0611  0.4120
  479THF     C9 7663   3.287   0.150   2.796 -0.2130 -0.1801 -0.9662
  479THF    H10 7664   3.294   0.235   2.584  2.9364 -2.1276  0.0794
  479THF    H11 7665   3.276   0.351   2.710  0.6439  0.3220 -1.0430
  479THF    H12 7666   3.291   0.178   2.901 -0.5792 -1.1306 -0.6876
  479THF    H13 7667   3.182   0.127   2.777  0.4493 -1.4610 -3.5733
  480THF     O1 7668   1.416   1.557   4.887  0.1262 -0.0845 -0.4103
  480THF     C2 7669   1.299   1.550   4.967  0.2046  0.0527 -0.7080
  480THF     C3 7670   1.482   1.686   4.909 -0.2584  0.5049  0.0796
  480THF     H4 7671   1.306   1.486   5.054  1.1848  1.1209  0.0297
  480THF     H5 7672   1.216   1.516   4.904  1.4328  1.9866 -3.5951
  480THF     H6 7673   1.591   1.689   4.913 -0.3009  0.9486  1.1122
  480THF     H7 7674   1.451   1.734   4.816  0.2187 -0.5109 -0.6230
  480THF     C8 7675   1.408   1.748   5.030 -0.0465  0.5465  0.5871
  480THF     C9 7676   1.271   1.690   5.018 -0.7486  0.7823 -0.1705
  480THF    H10 7677   1.415   1.856   5.018 -1.8164  0.6616  0.3343
  480THF    H11 7678   1.450   1.721   5.127  2.2179  0.7086 -0.2984
  480THF    H12 7679   1.221   1.699   5.114 -0.6625  0.3438 -0.0793
  480THF    H13 7680   1.213   1.747   4.947 -0.2748  1.8982  0.3149
  481THF     O1 7681   2.365   4.233   0.458 -0.3021 -0.3287  0.0435
  481THF     C2 7682   2.248   4.274   0.523 -0.0372 -0.2300  0.2006
  481THF     C3 7683   2.444   4.175   0.565  0.3890  0.9451  0.3700
  481THF     H4 7684   2.170   4.301   0.452  0.0116 -0.1100  0.1923
  481THF     H5 7685   2.269   4.358   0.589  1.1750 -0.5021  0.1906
  481THF     H6 7686   2.532   4.123   0.526  1.1329  2.3388  0.1365
  481THF     H7 7687   2.484   4.257   0.624  1.8819 -1.9123  3.6597
  481THF     C8 7688   2.350   4.096   0.653  0.3226  0.0945 -0.3816
  481THF     C9 7689   2.219   4.156   0.612  0.2406 -0.4947  0.5244
  481THF    H10 7690   2.373   4.114   0.758 -0.8511  2.3374 -0.4367
  481THF    H11 7691   2.339   3.994   0.616  0.6382 -0.2613  0.4874
  481THF    H12 7692   2.162   4.080   0.559 -0.2722 -1.3966  2.3028
  481THF    H13 7693   2.165   4.204   0.694 -0.6165  0.7905 -0.7233
  482THF     O1 7694   1.687   2.490   4.807  0.6527 -0.3653 -0.1548
  482THF     C2 7695   1.760   2.562   4.707 -0.6189 -0.3127 -0.4515
  482THF     C3 7696   1.758   2.493   4.925  0.5111  0.7745  0.0388
  482THF     H4 7697   1.742   2.669   4.713  0.5054 -0.1742  0.8213
  482THF     H5 7698   1.741   2.530   4.604 -1.8661 -0.0083 -0.3217
  482THF     H6 7699   1.746   2.579   4.992 -0.2721  0.5937  0.1448
  482THF     H7 7700   1.723   2.406   4.981 -1.2296  0.8384 -0.8616
  482THF     C8 7701   1.898   2.472   4.882 -0.4430 -0.1107  0.3881
  482THF     C9 7702   1.904   2.543   4.742 -0.4323  0.1206 -0.2431
  482THF    H10 7703   1.905   2.364   4.868 -1.4925 -0.2506  0.8527
  482THF    H11 7704   1.966   2.505   4.961 -1.1804 -1.5944  1.7044
  482THF    H12 7705   1.945   2.642   4.759 -1.0106  0.6667 -1.8828
  482THF    H13 7706   1.962   2.490   4.667  1.0595  0.6014  0.5469
  483THF     O1 7707   3.364   3.194   3.133  0.4226  0.3370 -0.0274
  483THF     C2 7708   3.404   3.162   3.265 -0.8178  0.5062 -0.2022
  483THF     C3 7709   3.414   3.321   3.099  0.4418 -0.0701 -0.4575
  483THF     H4 7710   3.510   3.137   3.254 -1.1222 -0.7133 -0.5063
  483THF     H5 7711   3.362   3.071   3.307  2.6718 -1.3050 -0.2292
  483THF     H6 7712   3.521   3.329   3.078  0.7385 -0.9431  0.6485
  483THF     H7 7713   3.363   3.359   3.011  0.1971  0.3828 -0.1268
  483THF     C8 7714   3.386   3.395   3.230  0.3448  0.6797 -0.5458
  483THF     C9 7715   3.384   3.293   3.348 -0.0935 -0.5936  0.4916
  483THF    H10 7716   3.292   3.449   3.238  0.3395  0.8670 -1.7165
  483THF    H11 7717   3.466   3.469   3.241 -1.0580  2.2433 -0.4324
  483THF    H12 7718   3.471   3.309   3.411 -1.7723 -1.4648  3.1989
  483THF    H13 7719   3.289   3.286   3.402 -0.8333 -0.5367 -0.7707
  484THF     O1 7720   1.619   4.899   0.378 -0.0547  0.0911  0.0699
  484THF     C2 7721   1.718   4.937   0.469  0.9903 -0.4831  0.2674
  484THF     C3 7722   1.664   4.778   0.324  0.1511 -0.0671 -0.6801
  484THF     H4 7723   1.718   4.890   0.567 -0.8191 -4.2125 -1.2963
  484THF     H5 7724   1.718   5.046   0.477  1.1324 -0.3585 -1.2012
  484THF     H6 7725   1.617   4.687   0.362 -0.0566 -1.0333 -3.0555
  484THF     H7 7726   1.623   4.760   0.225 -1.9464 -0.2739  0.1537
  484THF     C8 7727   1.816   4.773   0.345  0.0845 -0.0625  0.2026
  484THF     C9 7728   1.848   4.910   0.400 -0.0227 -0.0868  0.0156
  484THF    H10 7729   1.874   4.751   0.255  0.2182  0.3207  0.1927
  484THF    H11 7730   1.842   4.707   0.427 -0.5521  0.5530  0.9097
  484THF    H12 7731   1.925   4.913   0.477 -0.5560  0.2339  0.5422
  484THF    H13 7732   1.858   4.992   0.329 -1.1808  0.7394  0.7690
  485THF     O1 7733   2.644   0.751   2.070  0.2320 -0.0261  0.4935
  485THF     C2 7734   2.497   0.768   2.045  0.2036  0.6129  0.3092
  485THF     C3 7735   2.686   0.885   2.101 -0.5930  0.8461 -0.0461
  485THF     H4 7736   2.451   0.769   2.144 -0.0864  0.2911  0.1801
  485THF     H5 7737   2.456   0.679   1.997  1.2894 -0.6502  1.6215
  485THF     H6 7738   2.674   0.895   2.209 -3.0285  0.9310 -0.2698
  485THF     H7 7739   2.792   0.909   2.088 -0.1462  0.7212  2.7608
  485THF     C8 7740   2.601   0.986   2.024  0.2021  0.5966  0.0246
  485THF     C9 7741   2.490   0.903   1.973  0.3466 -0.0061 -0.0475
  485THF    H10 7742   2.648   1.028   1.935 -0.0754  1.6595  0.3695
  485THF    H11 7743   2.567   1.061   2.095 -0.1832 -0.8191  1.3953
  485THF    H12 7744   2.393   0.950   1.989 -0.3631 -1.1217 -0.8947
  485THF    H13 7745   2.501   0.884   1.866 -2.3281  1.2502 -0.6397
  486THF     O1 7746   5.501   2.741   5.122 -0.3578 -0.5258  0.0553
  486THF     C2 7747   5.639   2.716   5.134  0.6997 -0.2240  0.3617
  486THF     C3 7748   5.492   2.878   5.108  1.1354  0.4644  0.5320
  486THF     H4 7749   5.676   2.615   5.118 -0.5411 -0.3497 -2.3601
  486THF     H5 7750   5.671   2.765   5.226 -0.5383  3.9981 -1.1984
  486THF     H6 7751   5.393   2.900   5.069  1.2518  1.0964  0.5749
  486THF     H7 7752   5.509   2.916   5.209  1.9152  0.9031  0.2469
  486THF     C8 7753   5.597   2.914   5.008 -0.2800 -0.1335 -0.7366
  486THF     C9 7754   5.703   2.805   5.025  0.0431  0.3423 -0.0368
  486THF    H10 7755   5.643   3.011   5.027 -0.1227 -0.5616  1.2482
  486THF    H11 7756   5.557   2.906   4.907  2.2829 -0.3192 -1.8168
  486THF    H12 7757   5.726   2.744   4.937 -0.6349 -0.4808  0.3527
  486THF    H13 7758   5.802   2.838   5.056  0.5366  0.8718 -2.0213
  487THF     O1 7759   3.929   2.818   3.513  0.1155 -0.6491  0.4528
  487THF     C2 7760   4.057   2.851   3.550 -0.6212  0.2265 -0.8151
  487THF     C3 7761   3.834   2.896   3.582  0.5651 -0.5941 -0.4366
  487THF     H4 7762   4.129   2.842   3.469 -1.3391 -0.9193 -1.3514
  487THF     H5 7763   4.086   2.775   3.623  0.2614  2.3982  1.2360
  487THF     H6 7764   3.763   2.941   3.512  0.1641 -1.0651 -0.3454
  487THF     H7 7765   3.768   2.836   3.645 -1.1910  0.2945 -1.3305
  487THF     C8 7766   3.900   3.001   3.669 -0.0693 -0.1500  0.2804
  487THF     C9 7767   4.041   2.997   3.611  0.1591  0.0244 -0.1916
  487THF    H10 7768   3.900   2.956   3.768 -1.1789 -1.5357 -0.3155
  487THF    H11 7769   3.862   3.102   3.656  2.0459  0.4533 -2.1652
  487THF    H12 7770   4.046   3.065   3.525  3.5742 -0.7102 -0.7570
  487THF    H13 7771   4.116   3.031   3.682 -0.0483 -2.5423  1.3677
  488THF     O1 7772   3.314   4.628   2.036 -0.3546  0.0531 -0.2414
  488THF     C2 7773   3.450   4.587   2.037 -0.0123  0.0141 -0.1768
  488THF     C3 7774   3.272   4.673   2.163  0.0599 -0.3737 -0.0025
  488THF     H4 7775   3.500   4.630   1.950 -0.8895 -0.1203 -0.7570
  488THF     H5 7776   3.458   4.478   2.031  1.8982  0.1866 -1.8741
  488THF     H6 7777   3.260   4.781   2.153 -0.2851 -0.6003 -2.8684
  488THF     H7 7778   3.179   4.625   2.192  0.2667 -2.1139 -2.0124
  488THF     C8 7779   3.386   4.643   2.254 -0.1652  0.1240 -0.8331
  488THF     C9 7780   3.509   4.634   2.168  0.0639 -0.3486 -0.0441
  488THF    H10 7781   3.358   4.541   2.282 -2.0112  0.2507 -2.0509
  488THF    H11 7782   3.390   4.705   2.344  0.2889 -2.3891  1.0019
  488THF    H12 7783   3.542   4.738   2.158  2.3316 -0.8068  1.7767
  488THF    H13 7784   3.593   4.574   2.202 -0.1067 -0.4833  0.1363
  489THF     O1 7785   5.108   1.887   4.320 -0.3441  0.3426 -0.4577
  489THF     C2 7786   4.975   1.936   4.294 -0.6041  0.3181 -0.4828
  489THF     C3 7787   5.092   1.778   4.407 -0.2069 -0.3364 -0.0090
  489THF     H4 7788   4.979   1.964   4.189  1.8329  0.0378 -0.5075
  489THF     H5 7789   4.951   2.032   4.341  0.4924  1.6516 -2.4828
  489THF     H6 7790   5.185   1.722   4.415  1.8133  2.9186  1.2972
  489THF     H7 7791   5.091   1.812   4.511  0.2956 -0.3920  0.0144
  489THF     C8 7792   4.964   1.707   4.358  0.1308 -0.2327  0.2641
  489THF     C9 7793   4.874   1.820   4.304 -0.4767  0.6174  0.2943
  489THF    H10 7794   4.915   1.654   4.440  0.5491  0.2710  0.8421
  489THF    H11 7795   4.985   1.641   4.273  0.6935  1.1540 -0.7253
  489THF    H12 7796   4.833   1.789   4.208 -1.0429 -0.3499  0.8239
  489THF    H13 7797   4.793   1.834   4.375  0.2943 -0.2042  1.3935
  490THF     O1 7798   4.595   4.681   5.215  0.8317 -0.1127 -0.0671
  490THF     C2 7799   4.559   4.556   5.218  0.0474  0.4137 -0.6068
  490THF     C3 7800   4.601   4.736   5.089  0.2197 -0.1723 -0.0884
  490THF     H4 7801   4.458   4.552   5.259 -0.2859  2.1418 -1.1910
  490THF     H5 7802   4.624   4.500   5.286  1.2429  1.5462 -0.7772
  490THF     H6 7803   4.552   4.833   5.087  2.0737  0.7873 -0.9144
  490THF     H7 7804   4.703   4.742   5.051 -0.1594  0.9704 -1.0016
  490THF     C8 7805   4.531   4.633   4.996 -0.5145  0.0243  0.0340
  490THF     C9 7806   4.557   4.510   5.073  0.2367 -0.4640 -0.7079
  490THF    H10 7807   4.585   4.625   4.901  0.5693 -0.5722  0.6745
  490THF    H11 7808   4.426   4.660   4.998 -1.0205 -1.7937  0.5775
  490THF    H12 7809   4.477   4.439   5.052  0.6748 -1.0817 -0.3189
  490THF    H13 7810   4.648   4.461   5.039  1.1858  0.1484  0.8748
  491THF     O1 7811   2.998   4.861   1.843 -0.0139 -0.2226 -0.3207
  491THF     C2 7812   3.111   4.954   1.839 -0.7174  0.5137  0.1077
  491THF     C3 7813   2.978   4.795   1.724  0.6285 -0.1687  0.2975
  491THF     H4 7814   3.193   4.926   1.904  0.0079 -1.9039 -1.7072
  491THF     H5 7815   3.076   5.054   1.863  1.0507  0.6802  2.2011
  491THF     H6 7816   2.957   4.689   1.737  0.4167 -0.2942 -0.9521
  491THF     H7 7817   2.902   4.846   1.665 -0.0751 -2.0202 -0.4950
  491THF     C8 7818   3.110   4.817   1.651 -0.0097  0.0223  0.4211
  491THF     C9 7819   3.154   4.961   1.694 -0.4656  0.6588  0.4415
  491THF    H10 7820   3.099   4.795   1.545 -0.4994 -3.0746  1.0234
  491THF    H11 7821   3.183   4.745   1.687  1.5278  1.4603  0.2939
  491THF    H12 7822   3.259   4.985   1.678 -0.0182 -1.6334 -0.5287
  491THF    H13 7823   3.098   5.037   1.640  0.1672 -0.9888 -2.7803
  492THF     O1 7824   3.856   5.381   1.449  0.3765  0.1713 -0.1529
  492THF     C2 7825   3.758   5.425   1.547 -0.5601  0.8637  0.0408
  492THF     C3 7826   3.961   5.471   1.448  0.4782  0.7945 -0.4099
  492THF     H4 7827   3.723   5.336   1.599  1.2327  1.6378  2.7787
  492THF     H5 7828   3.679   5.490   1.507  0.9112  1.8006 -1.5027
  492THF     H6 7829   4.049   5.425   1.404  0.3899 -0.4044  0.6146
  492THF     H7 7830   3.917   5.553   1.390 -0.7094 -0.2909 -1.1063
  492THF     C8 7831   3.979   5.515   1.596  0.0843  0.3450  0.4476
  492THF     C9 7832   3.840   5.490   1.654  0.4047  0.5348 -0.9615
  492THF    H10 7833   4.005   5.621   1.604 -2.3351  1.1525 -1.0733
  492THF    H11 7834   4.053   5.446   1.636 -1.2946 -2.8447 -2.0687
  492THF    H12 7835   3.851   5.436   1.748  1.1383  1.2551 -0.6213
  492THF    H13 7836   3.786   5.582   1.674 -0.2122 -0.3533  1.8549
  493THF     O1 7837   0.358   0.675   4.569  0.1301 -0.0718 -0.9300
  493THF     C2 7838   0.321   0.539   4.546 -0.3930  0.1038 -0.0772
  493THF     C3 7839   0.502   0.684   4.618  0.5127 -0.5998  0.0835
  493THF     H4 7840   0.266   0.523   4.454 -3.0662 -1.6841  1.7111
  493THF     H5 7841   0.258   0.505   4.628 -0.1022  0.3414  0.2482
  493THF     H6 7842   0.556   0.779   4.619 -0.2313 -0.1785  0.6389
  493THF     H7 7843   0.511   0.659   4.723  1.6053 -0.5713  0.0095
  493THF     C8 7844   0.565   0.581   4.533 -0.0485 -0.2210 -1.0389
  493THF     C9 7845   0.460   0.472   4.536 -0.0371 -0.4974 -0.0496
  493THF    H10 7846   0.662   0.541   4.565 -0.4787 -1.3664 -1.1128
  493THF    H11 7847   0.586   0.617   4.433  1.5647  0.1305 -0.6042
  493THF    H12 7848   0.465   0.403   4.451 -1.4696  0.1295 -0.6781
  493THF    H13 7849   0.470   0.400   4.618 -2.1573 -1.1156 -0.2597
  494THF     O1 7850   4.555   1.299   1.183  0.5128  0.4209  0.4133
  494THF     C2 7851   4.478   1.191   1.223  0.2448 -0.0497  0.8931
  494THF     C3 7852   4.588   1.292   1.041 -0.0912  0.1374  0.2309
  494THF     H4 7853   4.387   1.219   1.277  0.9548  1.6220  1.2913
  494THF     H5 7854   4.533   1.122   1.287 -0.1065 -0.7838  0.4175
  494THF     H6 7855   4.525   1.356   0.979  0.7314 -0.4187 -1.2338
  494THF     H7 7856   4.691   1.326   1.028 -0.5311  2.0702  1.3579
  494THF     C8 7857   4.551   1.149   1.004 -0.1696 -0.2089 -0.7008
  494THF     C9 7858   4.433   1.130   1.093  0.1440  0.3268 -0.0121
  494THF    H10 7859   4.619   1.071   1.038 -1.5872 -1.3245 -0.2755
  494THF    H11 7860   4.520   1.134   0.900  0.8754  0.7557 -1.1680
  494THF    H12 7861   4.348   1.174   1.041  1.1884  0.5836 -1.5433
  494THF    H13 7862   4.415   1.023   1.100  3.4355 -0.5448 -2.3695
  495THF     O1 7863   4.920   2.932   3.427 -0.1335 -0.4894 -0.4510
  495THF     C2 7864   5.055   2.985   3.435 -0.0606  0.1002 -0.2706
  495THF     C3 7865   4.891   2.870   3.548 -0.3379  0.0922  0.3128
  495THF     H4 7866   5.056   3.088   3.400 -0.9068  0.7207  1.4216
  495THF     H5 7867   5.135   2.930   3.386  2.0030  1.4539  1.3856
  495THF     H6 7868   4.786   2.867   3.576  0.2979  1.5062  3.2512
  495THF     H7 7869   4.910   2.763   3.546 -0.8380 -0.0235  1.1795
  495THF     C8 7870   4.960   2.959   3.645 -1.1651 -0.1754  0.4031
  495THF     C9 7871   5.100   2.985   3.581  0.6337 -0.4481 -0.3221
  495THF    H10 7872   4.972   2.927   3.749 -0.1915  1.0901  0.7058
  495THF    H11 7873   4.895   3.046   3.648  0.0244  0.7626 -0.1491
  495THF    H12 7874   5.143   3.082   3.605 -0.7025  0.1021 -0.0135
  495THF    H13 7875   5.161   2.898   3.604  0.6736 -0.1615  0.7097
  496THF     O1 7876   4.336   3.282   5.248 -0.0868 -0.0037 -0.0954
  496THF     C2 7877   4.205   3.269   5.202 -0.1335 -0.2486 -0.2414
  496THF     C3 7878   4.393   3.397   5.200  0.2950 -0.7802  0.3945
  496THF     H4 7879   4.146   3.192   5.251 -2.2648 -0.1218 -2.3853
  496THF     H5 7880   4.231   3.225   5.106  1.3731 -3.4806  1.5069
  496THF     H6 7881   4.478   3.437   5.255  0.5894  1.5048 -1.5599
  496THF     H7 7882   4.429   3.364   5.102  0.0133  1.7661 -0.6444
  496THF     C8 7883   4.273   3.497   5.194  0.5787 -0.3315  0.9046
  496THF     C9 7884   4.150   3.412   5.218 -0.5011  1.2268  0.8138
  496THF    H10 7885   4.271   3.544   5.096  1.6619  1.5581  1.7274
  496THF    H11 7886   4.291   3.583   5.259 -2.9951  0.0887  1.5506
  496THF    H12 7887   4.116   3.402   5.321 -1.4744 -1.0060  0.3484
  496THF    H13 7888   4.069   3.445   5.152  3.1277  1.7169 -3.9464
  497THF     O1 7889   0.676   1.916   2.566 -0.0680 -0.0575 -0.1227
  497THF     C2 7890   0.701   1.880   2.431  0.1881  0.9630 -0.1525
  497THF     C3 7891   0.696   1.792   2.642  0.4401  0.4370  0.2908
  497THF     H4 7892   0.757   1.957   2.378 -0.0407 -0.2528 -2.2647
  497THF     H5 7893   0.608   1.862   2.377  0.8543  2.8046 -2.0962
  497THF     H6 7894   0.713   1.790   2.749  1.7326 -3.4207  0.1591
  497THF     H7 7895   0.610   1.729   2.620  0.1511  1.4019 -1.6503
  497THF     C8 7896   0.813   1.719   2.567 -1.2140  0.4411 -0.7049
  497THF     C9 7897   0.794   1.763   2.426  0.0521 -0.6591  0.5188
  497THF    H10 7898   0.810   1.612   2.583  0.2374  0.6005  0.8518
  497THF    H11 7899   0.908   1.759   2.603 -1.6138  2.7849 -2.0285
  497THF    H12 7900   0.887   1.791   2.377  0.0359 -1.0959  0.2378
  497THF    H13 7901   0.748   1.680   2.373 -2.3782  2.8835 -3.5310
  498THF     O1 7902   4.040   0.174   4.809 -0.3754  0.0501 -0.1955
  498THF     C2 7903   4.140   0.282   4.809 -0.1310  0.1480 -0.3681
  498THF     C3 7904   4.001   0.162   4.674  0.2336 -0.1848  0.0313
  498THF     H4 7905   4.232   0.243   4.766  0.6613  1.1297  0.4070
  498THF     H5 7906   4.162   0.318   4.909  0.9868 -2.7879  0.5671
  498THF     H6 7907   4.077   0.130   4.603  0.1542 -0.1797 -0.0559
  498THF     H7 7908   3.918   0.094   4.653  0.7003 -0.0480 -2.5299
  498THF     C8 7909   3.958   0.307   4.644 -0.4175 -0.7894 -0.6042
  498THF     C9 7910   4.062   0.383   4.723 -0.0844  0.3845 -0.2788
  498THF    H10 7911   3.858   0.325   4.682 -0.4900  2.7232 -2.1345
  498THF    H11 7912   3.957   0.321   4.536 -3.3294 -0.9900 -0.6920
  498THF    H12 7913   4.139   0.426   4.658  2.5945 -1.9293  1.1123
  498THF    H13 7914   4.025   0.457   4.794  1.6112  0.8013  0.2124
  499THF     O1 7915   0.876   4.134   3.505 -0.1209  0.4294 -0.2099
  499THF     C2 7916   0.877   4.272   3.473 -0.0820  0.4603  0.6246
  499THF     C3 7917   1.010   4.103   3.534 -0.0220 -0.0804 -0.6720
  499THF     H4 7918   0.887   4.344   3.555 -1.6319  1.3482  0.0687
  499THF     H5 7919   0.780   4.300   3.431 -0.3136 -0.5520  0.4685
  499THF     H6 7920   1.031   4.140   3.634 -1.6198  2.0946 -1.0580
  499THF     H7 7921   1.028   3.997   3.517 -0.6309 -0.7917  2.4804
  499THF     C8 7922   1.096   4.183   3.436  0.8160 -0.7091 -0.3286
  499THF     C9 7923   0.994   4.285   3.380  0.3189 -0.3000 -0.2387
  499THF    H10 7924   1.132   4.116   3.358 -0.1862 -0.7989 -0.7274
  499THF    H11 7925   1.186   4.226   3.480  0.0665  1.8132 -1.0774
  499THF    H12 7926   1.033   4.386   3.372 -0.3859  0.2324  2.1484
  499THF    H13 7927   0.967   4.257   3.279  1.6449 -0.1251 -0.6597
  500THF     O1 7928   4.809   4.568   1.739 -0.2762 -0.4111  0.0793
  500THF     C2 7929   4.941   4.573   1.794  0.3118 -0.4739  0.2830
  500THF     C3 7930   4.718   4.568   1.844 -0.1019  0.3407 -0.3102
  500THF     H4 7931   5.005   4.645   1.743 -0.2110  1.3530  2.0691
  500THF     H5 7932   4.988   4.476   1.786  3.7307  1.1930 -4.3279
  500THF     H6 7933   4.630   4.615   1.798  0.4490 -0.0007 -1.7590
  500THF     H7 7934   4.683   4.472   1.881  0.2756  0.2965 -0.0612
  500THF     C8 7935   4.781   4.664   1.943 -0.5886  0.2938  0.3666
  500THF     C9 7936   4.930   4.629   1.938 -0.6947  0.3827 -0.3770
  500THF    H10 7937   4.725   4.664   2.037 -2.2680  1.6140 -0.5586
  500THF    H11 7938   4.764   4.764   1.902 -2.7568 -0.7840 -1.6356
  500THF    H12 7939   4.990   4.719   1.943 -1.8590  1.6629 -4.8969
  500THF    H13 7940   4.955   4.564   2.023  0.9531  0.4687 -0.7747
  501THF     O1 7941   2.381   1.419   3.197  0.1937 -0.4390  0.0772
  501THF     C2 7942   2.352   1.375   3.332 -0.1008  0.0572  0.4573
  501THF     C3 7943   2.495   1.498   3.192  0.6605 -0.4111 -0.2807
  501THF     H4 7944   2.390   1.275   3.355  0.8959  0.6207  1.3615
  501THF     H5 7945   2.245   1.362   3.345 -0.0061 -0.8465  0.4244
  501THF     H6 7946   2.585   1.438   3.211 -0.6563 -2.3744  0.0879
  501THF     H7 7947   2.506   1.558   3.101 -0.5102 -0.3980 -0.4234
  501THF     C8 7948   2.466   1.584   3.317  0.2893  0.5033 -0.8303
  501THF     C9 7949   2.406   1.489   3.421 -0.2580  0.5704  0.0622
  501THF    H10 7950   2.395   1.663   3.290  0.0296  0.7399  0.4873
  501THF    H11 7951   2.558   1.630   3.353  0.4531 -1.1232  0.9395
  501THF    H12 7952   2.483   1.461   3.493 -1.0050  1.0612  1.0797
  501THF    H13 7953   2.327   1.534   3.480 -1.0277 -1.8241  0.9469
  502THF     O1 7954   1.517   2.237   2.201 -0.5965 -1.1117  0.3004
  502THF     C2 7955   1.443   2.181   2.091  0.0104 -0.3506  0.1127
  502THF     C3 7956   1.650   2.184   2.196 -0.4230  0.5992 -0.0513
  502THF     H4 7957   1.458   2.244   2.003  1.8213  1.3623  1.5571
  502THF     H5 7958   1.336   2.180   2.111 -0.3054  1.6634 -1.2465
  502THF     H6 7959   1.683   2.239   2.108 -0.5772  0.7422 -0.0215
  502THF     H7 7960   1.715   2.202   2.282 -0.8441  0.3670  0.3200
  502THF     C8 7961   1.630   2.040   2.150 -0.6636 -0.2631  0.5685
  502THF     C9 7962   1.498   2.041   2.069 -0.3499 -0.3336  0.3424
  502THF    H10 7963   1.642   1.973   2.235 -0.3110  0.2335  0.9151
  502THF    H11 7964   1.711   2.009   2.084  1.7450  3.6805  1.3274
  502THF    H12 7965   1.515   2.017   1.964  0.7327 -0.7165  0.5963
  502THF    H13 7966   1.439   1.966   2.122 -0.4391 -0.4383  0.0939
  503THF     O1 7967   3.570   1.759   3.210  0.1251 -0.4610 -0.1807
  503THF     C2 7968   3.521   1.644   3.263  0.1190 -1.1437 -0.0168
  503THF     C3 7969   3.498   1.881   3.255 -0.3356  0.7179 -0.4614
  503THF     H4 7970   3.583   1.618   3.349  0.5324 -0.5892 -0.1458
  503THF     H5 7971   3.507   1.568   3.186 -0.9495 -0.4867 -0.4813
  503THF     H6 7972   3.535   1.899   3.356 -1.7287 -0.6647  0.3471
  503THF     H7 7973   3.506   1.968   3.190 -1.0185  1.3952  0.3363
  503THF     C8 7974   3.361   1.822   3.245 -0.3089 -0.0144  0.1342
  503THF     C9 7975   3.385   1.686   3.305  0.1447  0.5284 -0.8509
  503THF    H10 7976   3.330   1.818   3.140 -1.2406 -1.3895  0.4230
  503THF    H11 7977   3.281   1.867   3.305  0.0216  0.0478  0.5276
  503THF    H12 7978   3.385   1.683   3.414 -1.1299 -0.1105 -0.8549
  503THF    H13 7979   3.306   1.621   3.267  1.5414 -1.7084 -0.1742
  504THF     O1 7980   2.203   4.605   2.669 -0.0410  0.0148 -1.1636
  504THF     C2 7981   2.075   4.666   2.665 -0.2017 -0.7488  1.2786
  504THF     C3 7982   2.253   4.607   2.535  0.5844  0.4062  0.2660
  504THF     H4 7983   2.074   4.766   2.707  0.1764  0.6336 -1.7073
  504THF     H5 7984   2.000   4.602   2.711 -0.0550 -2.1728 -0.3598
  504THF     H6 7985   2.306   4.698   2.507 -0.0939  0.0782 -2.3472
  504THF     H7 7986   2.318   4.524   2.508  0.3939  0.6526 -0.9873
  504THF     C8 7987   2.132   4.586   2.444  0.1515  0.3197  0.2829
  504THF     C9 7988   2.043   4.679   2.510 -0.3669 -0.2401 -0.7601
  504THF    H10 7989   2.085   4.488   2.447 -1.1312  0.9330  1.2843
  504THF    H11 7990   2.152   4.599   2.337 -0.9465 -2.4318 -0.3429
  504THF    H12 7991   2.065   4.782   2.478  0.3294 -1.0030 -2.9668
  504THF    H13 7992   1.939   4.684   2.478 -0.6503 -0.6073  0.0915
  505THF     O1 7993   2.389   5.080   3.063 -0.4287  0.2919 -0.4772
  505THF     C2 7994   2.407   5.040   3.193 -0.3339 -0.1492  0.3594
  505THF     C3 7995   2.282   5.015   2.993  0.4945 -0.0802 -0.0796
  505THF     H4 7996   2.384   5.115   3.269 -1.2074 -1.8170  1.8084
  505THF     H5 7997   2.508   5.000   3.207 -0.9924 -1.3305  2.1347
  505THF     H6 7998   2.220   5.076   2.928  1.8663  0.1609 -1.1829
  505THF     H7 7999   2.323   4.929   2.940 -1.0027  0.4961 -2.2816
  505THF     C8 8000   2.199   4.957   3.105 -0.6123  0.9609 -0.5743
  505THF     C9 8001   2.311   4.917   3.208  0.4656 -0.6358 -0.4848
  505THF    H10 8002   2.140   4.873   3.069  0.3806  1.0789 -2.6209
  505THF    H11 8003   2.134   5.034   3.146 -0.7599  1.1680 -1.1935
  505THF    H12 8004   2.276   4.893   3.308 -1.1376 -1.3463 -1.1846
  505THF    H13 8005   2.347   4.821   3.172  1.0317 -0.1264 -1.3146
  506THF     O1 8006   0.258   1.934   2.677 -0.3153 -0.2500  0.2338
  506THF     C2 8007   0.351   1.889   2.587 -0.1576 -0.4146  0.5506
  506THF     C3 8008   0.209   2.065   2.633  0.1129 -0.0378  0.0963
  506THF     H4 8009   0.338   1.780   2.590  2.3427 -0.7890 -0.3838
  506THF     H5 8010   0.450   1.908   2.628  1.3833 -2.6090 -1.8337
  506THF     H6 8011   0.102   2.051   2.613 -0.1353  3.3525 -1.7945
  506THF     H7 8012   0.196   2.147   2.704 -0.9770 -0.5702  0.5403
  506THF     C8 8013   0.269   2.103   2.495  0.3780  0.7201 -0.5112
  506THF     C9 8014   0.327   1.965   2.452 -0.7197 -0.0496 -0.1888
  506THF    H10 8015   0.345   2.181   2.504  1.5584 -0.4430 -0.0600
  506THF    H11 8016   0.196   2.139   2.422 -1.2084 -3.2057 -1.0705
  506THF    H12 8017   0.256   1.911   2.390 -2.8027 -0.0623  2.0202
  506THF    H13 8018   0.424   1.974   2.404  0.7429 -1.6984  2.2063
  507THF     O1 8019   4.357   0.781   2.555 -0.1534 -0.8823 -0.1184
  507THF     C2 8020   4.268   0.811   2.655 -0.5507  0.4766  0.1869
  507THF     C3 8021   4.286   0.734   2.444 -0.3931  0.3929  0.3928
  507THF     H4 8022   4.236   0.916   2.650 -0.4959  0.4673 -3.1879
  507THF     H5 8023   4.303   0.785   2.754 -1.5616 -2.4921 -0.1452
  507THF     H6 8024   4.242   0.816   2.388  0.1313  0.2402 -0.2568
  507THF     H7 8025   4.348   0.669   2.382 -0.9815 -0.6536  0.8667
  507THF     C8 8026   4.181   0.643   2.513  0.2166  0.4028 -0.0257
  507THF     C9 8027   4.143   0.725   2.631  0.5363  0.0309 -0.1632
  507THF    H10 8028   4.232   0.552   2.543  0.7529  0.0392 -1.9436
  507THF    H11 8029   4.096   0.626   2.446  2.0597 -0.0714 -2.3599
  507THF    H12 8030   4.050   0.778   2.611 -1.5956 -2.7087  1.7086
  507THF    H13 8031   4.119   0.665   2.718 -0.1292 -0.2757 -0.5527
  508THF     O1 8032   1.692   1.259   1.342  0.3884  0.3301 -0.2977
  508THF     C2 8033   1.835   1.235   1.351 -0.6618  0.5859  0.0921
  508THF     C3 8034   1.628   1.145   1.291  0.1728 -0.3902  0.0002
  508THF     H4 8035   1.874   1.251   1.451 -0.4581 -1.1775  0.3332
  508THF     H5 8036   1.881   1.296   1.273 -0.2373  0.6002  0.3543
  508THF     H6 8037   1.529   1.137   1.337  0.2000 -1.3175 -0.0950
  508THF     H7 8038   1.601   1.152   1.186  0.9971  2.4698 -0.1030
  508THF     C8 8039   1.712   1.029   1.323 -0.0458 -0.1508  0.2167
  508THF     C9 8040   1.849   1.086   1.306 -0.0572 -0.2467  0.2246
  508THF    H10 8041   1.672   0.953   1.257 -0.5494 -0.4853  0.8998
  508THF    H11 8042   1.692   0.991   1.423 -1.1069  1.0901  0.5085
  508THF    H12 8043   1.938   1.033   1.341 -0.1248 -0.7037 -0.2803
  508THF    H13 8044   1.868   1.091   1.199  0.6739  0.1586  0.3660
  509THF     O1 8045   1.261   2.845   3.057  0.0352 -0.3456  0.2551
  509THF     C2 8046   1.191   2.922   3.156 -0.6533  0.6582  0.0821
  509THF     C3 8047   1.331   2.941   2.978  0.2770  0.5918  0.0030
  509THF     H4 8048   1.263   2.968   3.224  0.7697 -1.4240  0.1002
  509THF     H5 8049   1.126   2.857   3.215  0.2187 -1.7298 -1.4179
  509THF     H6 8050   1.416   2.969   3.040 -1.2199  0.8251  2.0647
  509THF     H7 8051   1.368   2.900   2.884 -0.2319  1.1213 -0.4411
  509THF     C8 8052   1.242   3.073   2.972 -0.6974 -0.5245 -0.0291
  509THF     C9 8053   1.128   3.036   3.072 -0.1234 -0.1378  0.7742
  509THF    H10 8054   1.206   3.096   2.872  0.7965 -0.6574 -0.6114
  509THF    H11 8055   1.298   3.156   3.014 -0.3168 -0.9055  0.2254
  509THF    H12 8056   1.092   3.121   3.131 -2.1570 -0.7221  0.4620
  509THF    H13 8057   1.040   2.988   3.030  0.1200  1.3976 -1.7278
  510THF     O1 8058   2.294   3.780   1.753 -0.5370 -0.0765  0.0692
  510THF     C2 8059   2.278   3.676   1.846  0.5677 -0.0540 -0.3467
  510THF     C3 8060   2.167   3.849   1.751  0.3631 -0.5120 -0.6993
  510THF     H4 8061   2.299   3.719   1.944 -1.5458 -1.2938  0.7260
  510THF     H5 8062   2.349   3.598   1.821 -1.9836 -2.2122 -1.3745
  510THF     H6 8063   2.179   3.931   1.823  1.8559 -1.3278  0.0490
  510THF     H7 8064   2.138   3.881   1.651 -0.8806 -0.9029 -0.4730
  510THF     C8 8065   2.061   3.753   1.802 -0.4900 -0.0296 -0.7567
  510THF     C9 8066   2.132   3.621   1.823 -0.4596 -0.4854 -0.1712
  510THF    H10 8067   1.972   3.751   1.739 -1.7358 -0.7763  0.9449
  510THF    H11 8068   2.021   3.792   1.895  0.1548 -1.1694  0.0170
  510THF    H12 8069   2.099   3.549   1.897  1.8413 -1.0774  0.3523
  510THF    H13 8070   2.139   3.574   1.725  0.7847  3.0607 -1.9949
  511THF     O1 8071   4.775   2.753   2.842  0.1071  0.1937  0.5025
  511THF     C2 8072   4.674   2.749   2.745  0.2786 -0.1334  0.7969
  511THF     C3 8073   4.722   2.825   2.954 -0.3703  0.7798  0.6453
  511THF     H4 8074   4.584   2.696   2.776 -0.8727  0.2293 -1.6906
  511THF     H5 8075   4.712   2.714   2.649  0.0010  0.2289  0.5521
  511THF     H6 8076   4.649   2.766   3.009  0.6149 -1.2408 -0.1339
  511THF     H7 8077   4.796   2.853   3.030  0.4514  2.6084 -0.7535
  511THF     C8 8078   4.664   2.948   2.881  0.2947 -0.4781 -0.0715
  511THF     C9 8079   4.638   2.894   2.736  0.3948  0.0085 -0.3618
  511THF    H10 8080   4.738   3.027   2.889 -1.4814  1.3462 -0.8704
  511THF    H11 8081   4.572   2.994   2.918  0.0501 -0.9512 -0.0765
  511THF    H12 8082   4.550   2.918   2.678  1.6546 -1.8037 -3.2516
  511THF    H13 8083   4.724   2.929   2.679  0.5384 -0.6420 -0.5536
  512THF     O1 8084   0.913   1.596   0.896 -0.7256 -0.5660  0.6349
  512THF     C2 8085   0.845   1.715   0.896  0.2937 -0.1809 -0.4525
  512THF     C3 8086   1.010   1.600   0.792 -0.4934 -0.0067 -0.0939
  512THF     H4 8087   0.901   1.798   0.940  0.0882 -1.1296  1.6966
  512THF     H5 8088   0.752   1.705   0.953  1.5327 -2.0837  1.3712
  512THF     H6 8089   1.102   1.637   0.837 -2.2556  1.3670  2.6665
  512THF     H7 8090   1.037   1.503   0.750 -1.9193 -1.7134  2.6425
  512THF     C8 8091   0.946   1.696   0.688  0.3236  0.3815  0.2235
  512THF     C9 8092   0.814   1.747   0.751 -0.1063  0.1096 -0.4801
  512THF    H10 8093   0.934   1.641   0.595  0.4747  1.5387 -0.4931
  512THF    H11 8094   1.015   1.777   0.663 -2.2449  1.8668 -2.6808
  512THF    H12 8095   0.800   1.855   0.745 -0.2645  0.1594  0.5359
  512THF    H13 8096   0.724   1.694   0.721 -0.0871 -1.2810  1.6569
  513THF     O1 8097   5.126   3.168   4.563  0.4706 -0.0951 -0.4191
  513THF     C2 8098   5.170   3.069   4.472  0.2367  1.2029 -0.1336
  513THF     C3 8099   5.213   3.155   4.675 -0.2194 -0.2089  0.2956
  513THF     H4 8100   5.235   3.114   4.396  0.7786  1.9494  0.7374
  513THF     H5 8101   5.080   3.034   4.423  0.6901  1.1936 -0.9769
  513THF     H6 8102   5.301   3.213   4.647 -0.5639  1.2778  2.0653
  513THF     H7 8103   5.170   3.197   4.766 -1.6737 -2.3741  0.6882
  513THF     C8 8104   5.254   3.001   4.689  0.3683  0.0682  0.2352
  513THF     C9 8105   5.232   2.947   4.549  0.6446 -0.0167  0.6254
  513THF    H10 8106   5.184   2.950   4.756 -0.6980  0.2090 -0.7334
  513THF    H11 8107   5.356   2.988   4.725  0.9436  2.8206 -0.2293
  513THF    H12 8108   5.324   2.925   4.495  1.9772  2.6179  1.6377
  513THF    H13 8109   5.164   2.863   4.540 -0.9472  1.4515 -4.2933
  514THF     O1 8110   3.357   2.177   3.166  0.1103  0.0266 -0.0420
  514THF     C2 8111   3.246   2.222   3.100 -0.0311 -0.4425 -0.6518
  514THF     C3 8112   3.339   2.196   3.304  0.3401  0.3035  0.2973
  514THF     H4 8113   3.181   2.134   3.100 -0.0898 -0.3990 -0.6456
  514THF     H5 8114   3.262   2.234   2.993  0.0109 -1.4725 -0.7798
  514THF     H6 8115   3.283   2.113   3.348  1.9051 -0.0076  1.8217
  514THF     H7 8116   3.436   2.204   3.354  0.2960 -0.3621  0.4980
  514THF     C8 8117   3.257   2.319   3.319 -0.6058  0.1026  0.6718
  514THF     C9 8118   3.195   2.340   3.180 -0.5410 -0.0735 -0.5020
  514THF    H10 8119   3.314   2.409   3.341 -0.0455 -0.7324  2.9458
  514THF    H11 8120   3.195   2.315   3.408 -1.2479 -1.2411  0.1930
  514THF    H12 8121   3.087   2.325   3.175 -0.6253  0.3439  0.0029
  514THF    H13 8122   3.230   2.436   3.143  1.0491 -0.8670 -1.1799
  515THF     O1 8123   3.921   4.620   3.015 -0.3084 -0.3791  0.6321
  515THF     C2 8124   3.831   4.567   3.111 -0.0295  0.7312  0.4140
  515THF     C3 8125   4.043   4.650   3.081 -0.1755  0.7907  0.1755
  515THF     H4 8126   3.752   4.506   3.068  0.5457  0.2503  0.0093
  515THF     H5 8127   3.779   4.644   3.167 -0.0981  0.7316  0.3492
  515THF     H6 8128   4.130   4.639   3.016  0.7890 -0.1625  1.5734
  515THF     H7 8129   4.037   4.752   3.119  2.5024  1.5777 -1.2237
  515THF     C8 8130   4.055   4.560   3.198  0.5026  0.2118 -0.2418
  515THF     C9 8131   3.920   4.494   3.210  0.3104  0.0452 -0.4760
  515THF    H10 8132   4.076   4.636   3.273  0.5901 -1.1664  1.1943
  515THF    H11 8133   4.140   4.493   3.208 -0.3398 -1.1653 -1.8130
  515THF    H12 8134   3.903   4.387   3.205 -0.8540  0.1699  0.3083
  515THF    H13 8135   3.892   4.512   3.314  2.8281 -1.9386  0.6227
  516THF     O1 8136   4.720   5.270   4.493  0.2903  0.3848 -0.6715
  516THF     C2 8137   4.763   5.221   4.371  0.0798 -0.3457  0.9926
  516THF     C3 8138   4.770   5.402   4.521  0.3347 -0.0529  0.4611
  516THF     H4 8139   4.683   5.195   4.301 -0.9899  2.9821  0.7993
  516THF     H5 8140   4.834   5.139   4.379 -0.7904 -1.2331  0.0553
  516THF     H6 8141   4.694   5.480   4.512  0.4820  0.4518  2.8613
  516THF     H7 8142   4.791   5.413   4.627  0.4630  1.3446  0.3154
  516THF     C8 8143   4.890   5.417   4.430 -0.7024 -0.1155  0.0285
  516THF     C9 8144   4.822   5.348   4.311 -0.2858  0.3173 -0.0521
  516THF    H10 8145   4.984   5.376   4.467 -0.5251 -0.3392 -0.6438
  516THF    H11 8146   4.905   5.523   4.410  2.9895 -0.1845  1.5594
  516THF    H12 8147   4.745   5.409   4.264 -0.6005  0.1799  0.2787
  516THF    H13 8148   4.895   5.324   4.234 -0.1010  0.9599 -0.0873
  517THF     O1 8149   2.394   4.885   1.390 -0.1882  0.0458  0.0345
  517THF     C2 8150   2.257   4.877   1.360  1.0962 -0.4630 -0.1222
  517THF     C3 8151   2.416   4.976   1.501  0.3516  0.1606 -0.0098
  517THF     H4 8152   2.204   4.795   1.409 -1.1028 -0.7701 -2.7577
  517THF     H5 8153   2.244   4.869   1.252 -1.5307  1.1678 -0.0293
  517THF     H6 8154   2.446   4.924   1.592  3.2639  2.0977  0.2795
  517THF     H7 8155   2.509   5.024   1.470  0.2565  0.1064 -0.3902
  517THF     C8 8156   2.288   5.050   1.516  1.1007  0.3709 -0.3169
  517THF     C9 8157   2.202   5.009   1.399  1.5528 -0.1327  0.8585
  517THF    H10 8158   2.305   5.152   1.550  0.0802  1.1105 -1.8887
  517THF    H11 8159   2.237   5.019   1.607 -0.4816  0.8115 -1.0195
  517THF    H12 8160   2.093   5.007   1.405  1.5533 -0.9058  0.6269
  517THF    H13 8161   2.233   5.072   1.315  2.0087 -2.0770 -0.5008
  518THF     O1 8162   3.789   1.989   3.361  0.8256 -0.0296  0.0721
  518THF     C2 8163   3.737   2.121   3.365  0.2778  0.2715 -0.0830
  518THF     C3 8164   3.864   1.967   3.483 -0.3443  0.3966  0.9348
  518THF     H4 8165   3.631   2.111   3.389  0.7421 -0.8819  1.6579
  518THF     H5 8166   3.730   2.169   3.267  0.2485 -1.8032 -1.1463
  518THF     H6 8167   3.793   1.932   3.559 -0.1002 -3.6603 -0.4574
  518THF     H7 8168   3.948   1.897   3.479  1.2287  2.2519 -0.1768
  518THF     C8 8169   3.911   2.104   3.515 -0.5518  0.3606  0.0270
  518THF     C9 8170   3.805   2.205   3.462 -1.2239  0.0886 -0.2587
  518THF    H10 8171   4.008   2.110   3.467  0.2447 -2.8270  0.9907
  518THF    H11 8172   3.924   2.126   3.621  1.9572 -0.3523 -0.0689
  518THF    H12 8173   3.738   2.248   3.536  0.4708  0.0379  1.3656
  518THF    H13 8174   3.864   2.282   3.412  0.8635 -0.8727  0.6261
  519THF     O1 8175   2.468   5.222   3.493  0.4889  0.2026 -0.0977
  519THF     C2 8176   2.534   5.260   3.608  0.0367 -0.5801  0.8642
  519THF     C3 8177   2.330   5.196   3.534  0.0813  0.4518  0.3999
  519THF     H4 8178   2.510   5.365   3.627 -0.5972 -0.2397 -1.5039
  519THF     H5 8179   2.643   5.262   3.602 -0.0092  0.7283  0.2315
  519THF     H6 8180   2.262   5.279   3.520 -0.5599 -0.2889 -1.0788
  519THF     H7 8181   2.288   5.119   3.470 -3.4339  0.2037  2.7073
  519THF     C8 8182   2.328   5.161   3.683 -0.3460 -0.1696  0.3233
  519THF     C9 8183   2.474   5.171   3.719  0.1058  0.4255  0.7208
  519THF    H10 8184   2.283   5.067   3.713  1.7902 -0.8726  1.5304
  519THF    H11 8185   2.268   5.239   3.730 -1.0741 -1.1748  1.1139
  519THF    H12 8186   2.505   5.209   3.816  0.5772 -0.9181  1.1092
  519THF    H13 8187   2.523   5.075   3.707  0.1811  0.5117  0.3091
  520THF     O1 8188   5.350   0.112   1.682 -0.6638  0.5804  0.4467
  520THF     C2 8189   5.321   0.151   1.545  0.2224 -0.1041  0.2394
  520THF     C3 8190   5.417  -0.019   1.670  0.4553  0.0324 -0.6533
  520THF     H4 8191   5.286   0.253   1.533  0.5454  0.2232  1.8559
  520THF     H5 8192   5.227   0.102   1.518 -1.2392  2.3369  0.6087
  520THF     H6 8193   5.454  -0.068   1.761 -1.9421 -0.1633  0.2749
  520THF     H7 8194   5.336  -0.086   1.641 -0.3381  1.0590 -0.8338
  520THF     C8 8195   5.521   0.020   1.564 -0.7481  0.2134 -0.0005
  520THF     C9 8196   5.448   0.116   1.467 -0.9087  0.2625  0.4088
  520THF    H10 8197   5.567  -0.062   1.509 -0.7705  1.0603 -1.3370
  520THF    H11 8198   5.605   0.076   1.604 -1.6622  1.1335  0.7101
  520THF    H12 8199   5.506   0.208   1.456 -1.8565  0.6849 -1.3538
  520THF    H13 8200   5.425   0.063   1.375 -0.5922 -0.5863  0.7991
  521THF     O1 8201   5.098   4.489   3.167 -0.6026  0.2526 -0.3058
  521THF     C2 8202   5.019   4.509   3.055 -0.0976  0.0938  0.0715
  521THF     C3 8203   5.058   4.363   3.210  1.0611 -0.6437 -0.1105
  521THF     H4 8204   5.061   4.444   2.978  1.9762 -0.1900  1.3585
  521THF     H5 8205   5.041   4.610   3.020 -0.4612  0.0392 -0.3307
  521THF     H6 8206   5.083   4.283   3.140  0.0140  1.0109 -2.5267
  521THF     H7 8207   5.098   4.328   3.305 -3.0993  1.0868  2.5846
  521THF     C8 8208   4.903   4.378   3.213  0.5142  0.0696  0.1463
  521THF     C9 8209   4.876   4.486   3.107  0.2192  0.3614 -0.1042
  521THF    H10 8210   4.862   4.397   3.312 -0.9726  0.5849 -0.5419
  521THF    H11 8211   4.862   4.283   3.179  0.7069  0.8753 -2.6041
  521THF    H12 8212   4.801   4.464   3.032 -2.3828 -0.2396  2.4824
  521THF    H13 8213   4.838   4.568   3.169 -2.3934 -1.0479  0.3044
  522THF     O1 8214   2.405   4.179   4.477 -0.9535 -0.4437  0.4458
  522THF     C2 8215   2.438   4.213   4.341 -0.3098  0.0944 -0.4480
  522THF     C3 8216   2.527   4.140   4.543 -0.1390  0.6222  0.0898
  522THF     H4 8217   2.507   4.297   4.348 -0.6404  0.3138  0.4185
  522THF     H5 8218   2.347   4.230   4.284 -1.5932 -2.6579  0.6073
  522THF     H6 8219   2.596   4.221   4.566  1.3948 -0.9067  1.1639
  522THF     H7 8220   2.500   4.086   4.634 -1.4764 -1.4767 -1.4461
  522THF     C8 8221   2.585   4.047   4.430  0.3360 -0.0794  0.6548
  522THF     C9 8222   2.522   4.095   4.300  0.1404 -1.2151 -0.3036
  522THF    H10 8223   2.560   3.943   4.453 -1.9855 -0.2774 -2.2386
  522THF    H11 8224   2.693   4.062   4.421  0.5219 -1.0907  0.9837
  522THF    H12 8225   2.589   4.124   4.219  2.3027  1.0720  2.1016
  522THF    H13 8226   2.450   4.020   4.267 -3.0668  1.6424 -0.4205
  523THF     O1 8227   0.567   5.372   2.294 -0.6442 -0.1867 -0.3431
  523THF     C2 8228   0.588   5.514   2.304  0.3501 -0.2908 -0.0472
  523THF     C3 8229   0.663   5.301   2.372 -0.1695  0.1731 -0.5838
  523THF     H4 8230   0.501   5.580   2.306  0.8971  0.4946 -1.0574
  523THF     H5 8231   0.631   5.544   2.209  1.6370  0.1703  0.6458
  523THF     H6 8232   0.635   5.199   2.400  0.8046  0.4129  1.4481
  523THF     H7 8233   0.755   5.296   2.315 -0.8021  0.9503 -1.7164
  523THF     C8 8234   0.677   5.400   2.486  0.8717  0.1143 -0.7060
  523THF     C9 8235   0.674   5.536   2.425 -0.2719 -0.0761  1.2318
  523THF    H10 8236   0.764   5.371   2.545  0.7320 -1.2597 -1.1317
  523THF    H11 8237   0.587   5.382   2.545  0.0654  1.4190 -1.4857
  523THF    H12 8238   0.652   5.621   2.490  0.1423  0.2632  0.9314
  523THF    H13 8239   0.775   5.543   2.384 -0.6533  1.5779  0.4863
  524THF     O1 8240   2.131   3.644   2.351 -0.5609 -0.2103 -0.6639
  524THF     C2 8241   2.173   3.729   2.245  0.2132  0.3126 -0.2202
  524THF     C3 8242   2.207   3.675   2.466 -0.6058  0.1154  0.4089
  524THF     H4 8243   2.117   3.822   2.251 -0.3584 -0.0297 -0.2218
  524THF     H5 8244   2.154   3.672   2.154 -1.2315  0.4210  0.0038
  524THF     H6 8245   2.169   3.761   2.521  0.2453  2.1956 -2.0485
  524THF     H7 8246   2.225   3.589   2.531 -1.2028 -1.2072 -1.1025
  524THF     C8 8247   2.345   3.724   2.412 -0.3271 -0.2976  0.0895
  524THF     C9 8248   2.324   3.747   2.260  0.2726 -0.3632 -0.0240
  524THF    H10 8249   2.426   3.654   2.433 -0.0385  0.1671  0.5884
  524THF    H11 8250   2.375   3.817   2.462  3.4281 -1.5288  0.4353
  524THF    H12 8251   2.340   3.851   2.234  0.1923 -0.3544 -0.0374
  524THF    H13 8252   2.383   3.686   2.192  1.5343  1.9359 -1.0931
  525THF     O1 8253   3.308   0.357   3.143  0.2953 -0.3759 -0.4249
  525THF     C2 8254   3.204   0.445   3.177 -1.3487 -0.3875  0.2982
  525THF     C3 8255   3.423   0.437   3.101  0.1997 -0.0479  0.3119
  525THF     H4 8256   3.229   0.490   3.273  0.8738 -1.6450  0.3883
  525THF     H5 8257   3.100   0.418   3.199 -1.6485 -0.7617 -1.4258
  525THF     H6 8258   3.483   0.442   3.192 -0.9985  2.5549  1.0233
  525THF     H7 8259   3.477   0.392   3.018  1.3140  1.8062 -0.0306
  525THF     C8 8260   3.367   0.577   3.060  0.6019 -0.8867  0.3541
  525THF     C9 8261   3.213   0.552   3.066 -0.4848 -0.1670 -0.0182
  525THF    H10 8262   3.390   0.600   2.957  0.5647 -0.9051  0.3415
  525THF    H11 8263   3.383   0.661   3.127 -1.5501 -1.3929  1.6098
  525THF    H12 8264   3.162   0.644   3.093 -0.3855  0.0247 -0.4796
  525THF    H13 8265   3.180   0.513   2.970 -0.5928 -1.0775  0.3724
  526THF     O1 8266   5.052   3.176   1.475 -0.7797 -0.0045 -0.0401
  526THF     C2 8267   5.074   3.046   1.520 -0.3611  0.1228 -0.3175
  526THF     C3 8268   4.995   3.245   1.586 -0.3968 -0.6987 -0.0670
  526THF     H4 8269   5.151   2.999   1.460  0.3627 -0.8652  1.3454
  526THF     H5 8270   4.982   2.988   1.514 -0.2799 -0.0889  0.4066
  526THF     H6 8271   5.043   3.341   1.606  0.1503 -1.2969  1.7285
  526THF     H7 8272   4.889   3.255   1.563 -0.4705 -3.4183 -1.2232
  526THF     C8 8273   5.026   3.167   1.714  0.3180  0.3669 -0.1619
  526THF     C9 8274   5.120   3.059   1.669  0.3201  0.4129  0.3769
  526THF    H10 8275   4.934   3.123   1.753 -0.5600  1.5413 -0.8239
  526THF    H11 8276   5.069   3.219   1.800 -2.0414  1.9013  0.1734
  526THF    H12 8277   5.224   3.087   1.685  0.2849  0.4617  0.5169
  526THF    H13 8278   5.107   2.970   1.731 -0.0019  0.8822  0.9894
  527THF     O1 8279   2.121   4.252   1.534 -0.2571  0.2355 -0.1252
  527THF     C2 8280   2.050   4.300   1.643 -0.4041 -0.2559 -0.6081
  527THF     C3 8281   2.220   4.342   1.496  0.6415 -0.2349 -0.7034
  527THF     H4 8282   1.981   4.231   1.690  0.2822 -0.2539  0.4154
  527THF     H5 8283   1.989   4.384   1.610 -0.6558 -0.4250 -0.5765
  527THF     H6 8284   2.309   4.297   1.452 -0.4984 -1.6008 -1.7295
  527THF     H7 8285   2.183   4.400   1.411 -0.7209 -0.9371 -0.6177
  527THF     C8 8286   2.260   4.418   1.631  0.6917  0.2057  0.5848
  527THF     C9 8287   2.166   4.356   1.734 -0.3351  0.5443 -0.1104
  527THF    H10 8288   2.236   4.524   1.621  0.2274  0.0454 -0.1279
  527THF    H11 8289   2.365   4.392   1.642  0.3958 -1.4330 -0.0978
  527THF    H12 8290   2.222   4.273   1.778 -0.3795 -0.0669 -1.1842
  527THF    H13 8291   2.140   4.417   1.820  2.7574  0.5492  0.9765
  528THF     O1 8292   0.935   3.530   1.139  0.2301 -0.2707 -0.1444
  528THF     C2 8293   0.838   3.589   1.067  0.3395 -0.6200  0.3941
  528THF     C3 8294   1.013   3.452   1.055  0.0339 -0.3847 -0.0772
  528THF     H4 8295   0.800   3.677   1.119  1.4126 -2.0150  3.8227
  528THF     H5 8296   0.760   3.514   1.056  0.3633 -0.5539 -0.2432
  528THF     H6 8297   1.111   3.420   1.090 -0.2963 -0.6949  0.5742
  528THF     H7 8298   0.969   3.356   1.028  0.7405 -0.7306 -0.0329
  528THF     C8 8299   1.024   3.536   0.933  0.0835  0.1972  0.2992
  528THF     C9 8300   0.908   3.638   0.942  0.1079 -0.4317  0.7984
  528THF    H10 8301   1.026   3.476   0.841 -1.1317 -0.2954  0.5660
  528THF    H11 8302   1.114   3.596   0.934 -0.4132  0.9460  0.9006
  528THF    H12 8303   0.946   3.740   0.938  2.1451 -1.1773 -0.1133
  528THF    H13 8304   0.835   3.629   0.861  0.0831  1.3924  0.5870
  529THF     O1 8305   3.175   1.986   3.779  0.1357 -0.7064  0.4628
  529THF     C2 8306   3.038   2.012   3.813  0.1884 -0.0722  0.2061
  529THF     C3 8307   3.186   1.942   3.640 -0.2851  0.0907 -0.0451
  529THF     H4 8308   3.024   2.082   3.896 -1.1018 -2.1356  1.8295
  529THF     H5 8309   2.984   1.922   3.841  0.0570  0.4240  1.5960
  529THF     H6 8310   3.271   1.984   3.586 -0.3831  0.3756  0.0220
  529THF     H7 8311   3.196   1.833   3.644  0.3957  0.0758 -1.5091
  529THF     C8 8312   3.048   1.974   3.584  0.0234  0.2994  0.3424
  529THF     C9 8313   2.984   2.075   3.682 -0.5922  0.0158  0.5657
  529THF    H10 8314   2.981   1.888   3.576  1.4168 -1.0243  2.0639
  529THF    H11 8315   3.051   2.019   3.485 -0.7527 -0.7003 -0.1487
  529THF    H12 8316   3.025   2.175   3.669  1.1251 -0.8631 -1.4167
  529THF    H13 8317   2.876   2.076   3.672 -0.4782  1.6129 -0.9735
  530THF     O1 8318   3.471   0.430   1.887  0.3347  0.1193  0.1124
  530THF     C2 8319   3.591   0.458   1.818 -0.0972  0.6612 -0.1839
  530THF     C3 8320   3.486   0.355   2.005 -0.2366 -0.4729 -0.3804
  530THF     H4 8321   3.611   0.565   1.820 -0.0389  0.7288  3.7194
  530THF     H5 8322   3.587   0.432   1.712  1.6003 -3.2055  0.5348
  530THF     H6 8323   3.405   0.387   2.070 -2.0239  0.1301 -2.7804
  530THF     H7 8324   3.467   0.251   1.979  0.8339 -0.8830  0.3709
  530THF     C8 8325   3.633   0.386   2.039 -0.4451 -0.4238  0.6102
  530THF     C9 8326   3.698   0.377   1.898 -0.1820  0.7854  0.1084
  530THF    H10 8327   3.675   0.316   2.112  0.3887 -0.1260  0.4287
  530THF    H11 8328   3.633   0.480   2.094 -1.0375  0.2897 -0.5774
  530THF    H12 8329   3.798   0.410   1.872  0.6047 -1.1264  0.5462
  530THF    H13 8330   3.704   0.269   1.883 -1.7305  0.2662  2.5982
  531THF     O1 8331   1.522   0.089   2.260 -0.1339 -0.1854 -0.4365
  531THF     C2 8332   1.557   0.156   2.376 -0.8800 -1.2517  0.1608
  531THF     C3 8333   1.429  -0.011   2.308  0.4064 -0.7173  0.5190
  531THF     H4 8334   1.481   0.230   2.401  0.2886  0.1495 -0.2746
  531THF     H5 8335   1.652   0.208   2.366 -1.8387  0.6306  0.3854
  531THF     H6 8336   1.330   0.034   2.312  0.4186 -0.6538  0.1443
  531THF     H7 8337   1.419  -0.092   2.236  1.3658 -0.0325 -0.4105
  531THF     C8 8338   1.485  -0.059   2.442 -0.3224 -0.0154  0.1321
  531THF     C9 8339   1.581   0.052   2.485  0.0296 -0.6659 -0.6349
  531THF    H10 8340   1.532  -0.156   2.429 -2.1839 -1.2241  1.8571
  531THF    H11 8341   1.396  -0.066   2.505  0.9254  0.1562  1.9992
  531THF    H12 8342   1.567   0.100   2.582  0.6215  0.0419 -0.8938
  531THF    H13 8343   1.685   0.021   2.477  0.3037  0.1642 -0.3502
  532THF     O1 8344   2.543   3.511   4.516 -0.8612  0.2303 -0.1506
  532THF     C2 8345   2.480   3.494   4.644  0.0781 -0.1595  0.6181
  532THF     C3 8346   2.673   3.560   4.540 -0.2611 -0.1146  0.0027
  532THF     H4 8347   2.397   3.425   4.628  0.2086 -0.2978  0.5260
  532THF     H5 8348   2.447   3.585   4.693  0.6576  0.6200 -0.4097
  532THF     H6 8349   2.747   3.510   4.478  0.4622  0.2293  0.5686
  532THF     H7 8350   2.682   3.666   4.517  0.1900 -0.3585 -0.9843
  532THF     C8 8351   2.705   3.526   4.692 -0.2293 -0.4679  0.3833
  532THF     C9 8352   2.588   3.429   4.724 -0.4417 -0.9137 -0.3324
  532THF    H10 8353   2.689   3.610   4.759  1.5667  1.4155 -1.4067
  532THF    H11 8354   2.809   3.495   4.699  0.8188  2.1843 -1.6980
  532THF    H12 8355   2.609   3.324   4.702 -0.2996 -0.9630  0.0243
  532THF    H13 8356   2.572   3.434   4.832  0.4448 -0.5479 -0.2090
  533THF     O1 8357   4.976   3.755   1.916 -0.4853  0.4565 -0.2844
  533THF     C2 8358   5.085   3.658   1.938 -0.0101  0.5247  0.5385
  533THF     C3 8359   4.855   3.682   1.897 -0.2602  0.2216  0.1975
  533THF     H4 8360   5.100   3.645   2.045 -0.4862 -3.4020  0.2517
  533THF     H5 8361   5.186   3.684   1.907 -0.3547  1.2113 -0.0384
  533THF     H6 8362   4.790   3.683   1.985  1.4101 -1.9565  1.5413
  533THF     H7 8363   4.792   3.725   1.820  0.4869 -2.6958 -2.1979
  533THF     C8 8364   4.885   3.542   1.867  0.1311  0.4541  0.8898
  533THF     C9 8365   5.041   3.536   1.868 -0.6054 -0.2531 -0.2979
  533THF    H10 8366   4.847   3.530   1.766 -2.3637 -1.6366  1.9658
  533THF    H11 8367   4.838   3.468   1.932 -2.2517  1.4397  0.3972
  533THF    H12 8368   5.084   3.448   1.915 -2.0859 -1.2011 -0.6594
  533THF    H13 8369   5.070   3.534   1.763 -3.3271  0.3356 -1.1341
  534THF     O1 8370   5.483   0.172   2.188 -0.3306  0.0475  0.1716
  534THF     C2 8371   5.615   0.109   2.192 -0.2578 -0.2893  0.3401
  534THF     C3 8372   5.422   0.138   2.310 -0.7903 -0.4927 -0.5902
  534THF     H4 8373   5.693   0.184   2.203 -1.2682  0.5126  2.5727
  534THF     H5 8374   5.639   0.055   2.100  0.1659 -1.3051  1.0294
  534THF     H6 8375   5.383   0.231   2.352  0.9537  0.7388 -1.5358
  534THF     H7 8376   5.343   0.064   2.297 -0.8818 -0.1905 -1.8511
  534THF     C8 8377   5.533   0.092   2.412 -0.0535 -0.4218  0.6979
  534THF     C9 8378   5.622   0.018   2.315 -0.1597  0.0432 -0.5021
  534THF    H10 8379   5.496   0.048   2.505  1.0832 -0.3333  1.2072
  534THF    H11 8380   5.589   0.177   2.451  0.6688 -0.1410 -0.8758
  534THF    H12 8381   5.725   0.007   2.346  0.5500  2.3545 -1.7910
  534THF    H13 8382   5.587  -0.082   2.291 -0.3338  0.0090 -0.1179
  535THF     O1 8383   3.997   2.007   2.194 -0.4481  0.7590  0.6868
  535THF     C2 8384   3.882   1.921   2.161 -0.1457 -0.4773  0.2039
  535THF     C3 8385   4.113   1.932   2.165 -0.2277 -0.2677 -1.2541
  535THF     H4 8386   3.859   1.938   2.056  0.5560 -1.1336 -0.0653
  535THF     H5 8387   3.797   1.942   2.227  0.6823  0.2938  1.0690
  535THF     H6 8388   4.121   1.942   2.056 -2.8905 -0.9792 -1.5857
  535THF     H7 8389   4.209   1.966   2.205 -0.4089 -0.3450 -0.7480
  535THF     C8 8390   4.074   1.789   2.182 -0.0571  0.4843  0.1122
  535THF     C9 8391   3.923   1.777   2.186  0.0584  0.6182  0.3729
  535THF    H10 8392   4.101   1.745   2.278 -1.5970  0.9268  0.7705
  535THF    H11 8393   4.117   1.724   2.105 -1.4130  0.8997 -1.0442
  535THF    H12 8394   3.874   1.718   2.110 -1.2753  0.2222  1.4928
  535THF    H13 8395   3.890   1.739   2.283 -1.3554 -0.2648 -0.4229
  536THF     O1 8396   4.413   0.185   5.445 -0.1493 -0.0475 -0.0300
  536THF     C2 8397   4.400   0.286   5.550  0.8844 -0.1968 -0.5968
  536THF     C3 8398   4.423   0.057   5.509  0.2914 -0.7896  0.6843
  536THF     H4 8399   4.362   0.382   5.514  2.7380  0.6712 -0.3692
  536THF     H5 8400   4.500   0.304   5.589  0.4896 -2.9412  1.9680
  536THF     H6 8401   4.365  -0.015   5.450  0.7257 -0.2218 -0.4684
  536THF     H7 8402   4.529   0.032   5.512  0.7169  0.8818  0.2709
  536THF     C8 8403   4.356   0.079   5.644  0.4087  0.2447 -0.1342
  536THF     C9 8404   4.317   0.225   5.651  0.9095  0.6756 -0.1535
  536THF    H10 8405   4.435   0.050   5.714  0.7831 -1.4073 -1.1780
  536THF    H11 8406   4.272   0.017   5.675  0.4326  1.1236  1.8668
  536THF    H12 8407   4.212   0.224   5.620  0.6962  1.0599  0.5481
  536THF    H13 8408   4.334   0.267   5.750 -1.5527  2.8217 -0.5379
  537THF     O1 8409   3.018   1.674   2.594 -0.2225  0.1098  0.2575
  537THF     C2 8410   2.905   1.678   2.504  0.4864 -0.5467 -0.4175
  537THF     C3 8411   3.018   1.530   2.618  0.1535  0.1106 -0.1311
  537THF     H4 8412   2.914   1.771   2.449 -0.9501 -0.0193  0.2118
  537THF     H5 8413   2.816   1.688   2.566  1.8146 -1.2190  1.7023
  537THF     H6 8414   3.101   1.497   2.681  0.4206 -0.7615 -0.9053
  537THF     H7 8415   2.929   1.508   2.677 -0.6815  0.3714 -1.2729
  537THF     C8 8416   3.016   1.465   2.483  0.0175 -0.3432  0.4454
  537THF     C9 8417   2.917   1.552   2.414  0.0199  0.1987 -0.7437
  537THF    H10 8418   2.990   1.360   2.492  0.7247 -0.3832  2.2066
  537THF    H11 8419   3.109   1.475   2.427 -1.1037  0.4671 -1.4063
  537THF    H12 8420   2.948   1.567   2.311 -2.1137  0.0083 -1.4545
  537THF    H13 8421   2.820   1.503   2.404 -0.1118  0.0716  0.9214
  538THF     O1 8422   4.976   3.030   4.201 -0.6349  0.5124  0.4168
  538THF     C2 8423   4.835   3.075   4.189  0.0382  0.4661 -0.3339
  538THF     C3 8424   4.974   2.888   4.198  0.3156  0.6381  0.5242
  538THF     H4 8425   4.818   3.098   4.084 -2.1556 -1.4772 -0.4786
  538THF     H5 8426   4.809   3.163   4.248 -0.4699 -0.5754  1.0492
  538THF     H6 8427   5.027   2.855   4.109 -1.3180  2.4848 -1.2243
  538THF     H7 8428   5.026   2.856   4.289  0.5161  1.1563  0.5925
  538THF     C8 8429   4.828   2.830   4.198  0.2559 -0.2653 -0.0016
  538THF     C9 8430   4.757   2.954   4.237 -0.5684 -0.9326 -0.0811
  538THF    H10 8431   4.822   2.747   4.268  2.5816  0.9933  1.8255
  538THF    H11 8432   4.803   2.801   4.096  0.5893 -1.0807  0.1404
  538THF    H12 8433   4.654   2.953   4.201 -0.1048 -1.3418 -1.4657
  538THF    H13 8434   4.744   2.968   4.344  0.2408  4.3787 -0.3950
  539THF     O1 8435   1.384   4.137   4.067 -0.6132  0.1167  0.1237
  539THF     C2 8436   1.409   4.015   4.134  0.7692 -0.0790 -0.4682
  539THF     C3 8437   1.466   4.233   4.126 -0.2427 -0.0134  0.1093
  539THF     H4 8438   1.511   3.980   4.115  1.0185  0.0314  0.5777
  539THF     H5 8439   1.341   3.937   4.101 -0.0081 -0.6514  2.2241
  539THF     H6 8440   1.559   4.198   4.082 -1.2777 -1.4087 -1.0902
  539THF     H7 8441   1.438   4.337   4.110  1.1390  0.6202  1.4968
  539THF     C8 8442   1.455   4.199   4.283  0.5337 -0.6514  0.3589
  539THF     C9 8443   1.396   4.060   4.281  0.2376 -0.5219  0.1244
  539THF    H10 8444   1.392   4.263   4.345  0.9934 -0.7362  0.9278
  539THF    H11 8445   1.558   4.201   4.319  0.3368 -3.7716  1.4228
  539THF    H12 8446   1.437   3.993   4.357  0.8860  0.6315  0.8095
  539THF    H13 8447   1.291   4.079   4.301 -0.1627  0.4567 -2.4065
  540THF     O1 8448   1.361   0.372   1.361 -0.5885 -0.4040  0.1202
  540THF     C2 8449   1.321   0.502   1.317 -0.0468 -0.3161 -0.3825
  540THF     C3 8450   1.491   0.355   1.310 -0.2052  0.3349 -0.6583
  540THF     H4 8451   1.239   0.546   1.376 -0.7764 -1.1610 -0.7445
  540THF     H5 8452   1.287   0.495   1.214 -0.9256  2.5095 -0.3924
  540THF     H6 8453   1.537   0.273   1.365 -0.9409  0.7621  0.6355
  540THF     H7 8454   1.491   0.339   1.203 -0.3836 -0.8904 -0.4936
  540THF     C8 8455   1.554   0.494   1.344  0.0950  0.0655 -0.2890
  540THF     C9 8456   1.446   0.594   1.320 -0.4101  0.2967  0.0195
  540THF    H10 8457   1.639   0.517   1.279 -0.2834  0.9103 -0.4850
  540THF    H11 8458   1.593   0.497   1.446  0.5321 -1.0748 -0.4034
  540THF    H12 8459   1.446   0.667   1.401  1.0425 -1.6693  1.8827
  540THF    H13 8460   1.450   0.642   1.222  0.9229  0.1914  0.0123
  541THF     O1 8461   3.583   4.588   5.171  0.1060  0.1676  0.2831
  541THF     C2 8462   3.493   4.666   5.253  0.3694 -0.0648  0.6420
  541THF     C3 8463   3.717   4.628   5.204  0.0943 -0.1462 -0.0522
  541THF     H4 8464   3.402   4.607   5.272  0.3009 -0.8037 -1.6703
  541THF     H5 8465   3.459   4.748   5.190 -0.3704  0.5888  1.8613
  541THF     H6 8466   3.777   4.537   5.196 -0.5855 -0.9648  2.8806
  541THF     H7 8467   3.742   4.704   5.130 -0.1338 -0.2643 -0.2509
  541THF     C8 8468   3.714   4.663   5.359 -0.3176  0.2746 -0.0016
  541THF     C9 8469   3.575   4.715   5.374  0.5885 -0.3240  0.3997
  541THF    H10 8470   3.795   4.718   5.408  1.8506 -1.5033 -1.4125
  541THF    H11 8471   3.723   4.577   5.425 -2.3530 -0.2745 -0.3709
  541THF    H12 8472   3.534   4.697   5.474  1.4902  0.3008  0.8988
  541THF    H13 8473   3.589   4.823   5.361  1.6664 -0.6508 -1.3377
  542THF     O1 8474   0.635   1.966   4.746 -0.3635  0.5166 -0.3138
  542THF     C2 8475   0.509   1.907   4.720  0.4031 -0.3464  0.0674
  542THF     C3 8476   0.711   1.861   4.805 -1.0280 -0.5603  0.2545
  542THF     H4 8477   0.454   1.963   4.644 -1.2192  1.0333  2.1501
  542THF     H5 8478   0.459   1.897   4.816  0.8930 -0.6279  0.2993
  542THF     H6 8479   0.816   1.884   4.789 -0.9440  0.4117  2.0168
  542THF     H7 8480   0.672   1.850   4.906  0.6478  0.0540  1.0006
  542THF     C8 8481   0.667   1.739   4.718 -0.0997  0.1304 -0.5224
  542THF     C9 8482   0.549   1.778   4.649  0.3012 -0.5920  0.7289
  542THF    H10 8483   0.639   1.654   4.779 -0.0095  0.9690  0.7122
  542THF    H11 8484   0.750   1.715   4.651  0.7874 -0.9732  0.9183
  542THF    H12 8485   0.561   1.808   4.545 -2.4176  1.4860  0.8745
  542THF    H13 8486   0.463   1.710   4.649  0.3263 -0.6261  1.0631
  543THF     O1 8487   4.250   5.420   0.477  0.5623 -0.7550 -0.1254
  543THF     C2 8488   4.112   5.407   0.522  0.6018  0.0416  0.2445
  543THF     C3 8489   4.290   5.296   0.414 -0.6990 -0.1743 -0.2173
  543THF     H4 8490   4.043   5.459   0.457 -1.0479 -1.4746  0.6933
  543THF     H5 8491   4.112   5.438   0.627  0.8636  0.6049  0.0807
  543THF     H6 8492   4.319   5.318   0.312  2.9760 -0.2266  0.6976
  543THF     H7 8493   4.378   5.256   0.465 -0.4642  1.7307  0.9571
  543THF     C8 8494   4.173   5.200   0.418 -0.1967 -0.4563 -0.4187
  543THF     C9 8495   4.095   5.256   0.532 -0.3306  0.1712  0.7388
  543THF    H10 8496   4.206   5.100   0.448  0.1018  0.8827  4.5201
  543THF    H11 8497   4.110   5.194   0.330 -1.6987 -1.3251  0.6722
  543THF    H12 8498   3.995   5.213   0.542  0.6057 -1.8126  2.5451
  543THF    H13 8499   4.141   5.227   0.627 -0.1810  0.4977  0.7665
  544THF     O1 8500   0.895   3.883   2.779  0.6444 -0.1091 -0.5153
  544THF     C2 8501   0.958   3.879   2.653  0.2982  0.0616  0.2436
  544THF     C3 8502   0.765   3.931   2.776 -0.2606 -0.1419 -0.2306
  544THF     H4 8503   0.979   3.773   2.637 -1.9718 -0.8179  2.2728
  544THF     H5 8504   1.054   3.930   2.657  0.4452 -0.2536  0.9551
  544THF     H6 8505   0.705   3.881   2.852  1.7462 -0.5124  1.1839
  544THF     H7 8506   0.770   4.037   2.800 -2.6223 -0.2850  1.2337
  544THF     C8 8507   0.719   3.904   2.636  0.0431  0.2144  0.0417
  544THF     C9 8508   0.852   3.927   2.559 -0.3799  0.1945  0.3300
  544THF    H10 8509   0.636   3.962   2.596  0.4308 -1.5911 -3.7645
  544THF    H11 8510   0.688   3.800   2.641 -0.7315  0.4126 -0.4372
  544THF    H12 8511   0.860   3.862   2.472  0.0272  0.2178  0.3502
  544THF    H13 8512   0.881   4.028   2.530  3.5797 -0.4859  1.3457
  545THF     O1 8513   5.294   5.393   3.361 -0.2428  0.6432 -0.4101
  545THF     C2 8514   5.362   5.441   3.477  0.4250  0.4270  0.0738
  545THF     C3 8515   5.260   5.259   3.396  0.4596  0.2597  0.6645
  545THF     H4 8516   5.385   5.548   3.473 -0.4699  0.6190 -0.0562
  545THF     H5 8517   5.455   5.388   3.498  0.4302  1.1608  2.1180
  545THF     H6 8518   5.201   5.208   3.320  2.4856  0.8189 -1.3959
  545THF     H7 8519   5.351   5.200   3.405  0.2132 -0.0585  1.1485
  545THF     C8 8520   5.190   5.274   3.532 -0.3780 -0.0251 -0.0616
  545THF     C9 8521   5.263   5.400   3.583  0.6562 -0.5041 -0.3473
  545THF    H10 8522   5.204   5.185   3.592  1.0677 -0.7553 -1.3883
  545THF    H11 8523   5.085   5.297   3.513 -0.2304 -0.5727 -1.7259
  545THF    H12 8524   5.192   5.482   3.592  0.6637 -0.4293 -0.9603
  545THF    H13 8525   5.302   5.385   3.684  1.6913 -1.8176 -0.9101
  546THF     O1 8526   5.017   2.485   2.029  0.6696 -0.3664  0.1915
  546THF     C2 8527   5.024   2.388   2.132 -0.3889 -0.4733  0.3621
  546THF     C3 8528   5.083   2.439   1.914 -0.0586  0.2173 -0.0869
  546THF     H4 8529   4.929   2.339   2.155 -0.2848 -0.5290  0.6747
  546THF     H5 8530   5.060   2.438   2.222 -0.1135  3.2413 -1.6319
  546THF     H6 8531   5.021   2.455   1.826 -1.7069 -2.4617  0.4908
  546THF     H7 8532   5.182   2.484   1.900  0.9074 -1.5867  0.6280
  546THF     C8 8533   5.105   2.285   1.931  0.2929 -0.4673 -0.9744
  546THF     C9 8534   5.124   2.282   2.083 -0.3902 -0.1881 -0.0718
  546THF    H10 8535   5.182   2.242   1.868 -0.0916 -1.8581 -0.5322
  546THF    H11 8536   5.012   2.232   1.910  0.0336  0.0152 -1.0587
  546THF    H12 8537   5.094   2.187   2.127 -1.4479  0.7980  1.4484
  546THF    H13 8538   5.228   2.291   2.115 -0.0930 -0.4841 -0.9379
  547THF     O1 8539   0.988   4.915   2.109  0.4961  0.3922  0.1521
  547THF     C2 8540   1.110   4.856   2.155 -0.6093  0.6388  0.7424
  547THF     C3 8541   0.989   5.052   2.128  0.3730  0.2652 -0.1299
  547THF     H4 8542   1.170   4.825   2.069  1.6328  2.5920  1.5056
  547THF     H5 8543   1.097   4.773   2.224  4.4019 -0.6119  0.5764
  547THF     H6 8544   0.942   5.098   2.041 -1.5127 -0.0517  0.6621
  547THF     H7 8545   0.925   5.058   2.215  2.0153  0.8628  1.0841
  547THF     C8 8546   1.130   5.094   2.162 -0.1862 -0.6553  0.8573
  547THF     C9 8547   1.180   4.965   2.226  0.2199  0.0829  0.4592
  547THF    H10 8548   1.150   5.173   2.235  1.3747 -2.0950  2.1006
  547THF    H11 8549   1.183   5.116   2.070  3.1140  1.0551  2.9679
  547THF    H12 8550   1.287   4.956   2.210  0.2649  1.0684  0.1422
  547THF    H13 8551   1.148   4.949   2.329 -2.5704 -2.3253 -0.6310
  548THF     O1 8552   0.831   1.402   4.505 -0.5414 -0.2259  0.0682
  548THF     C2 8553   0.708   1.427   4.433  0.1752 -0.2014  0.1283
  548THF     C3 8554   0.941   1.407   4.414 -1.2002  0.3244  0.5626
  548THF     H4 8555   0.712   1.533   4.408 -0.6732  0.0845  1.1476
  548THF     H5 8556   0.615   1.414   4.487  0.3712  1.6883  0.9828
  548THF     H6 8557   0.959   1.512   4.390 -0.3387  0.0937  0.1996
  548THF     H7 8558   1.027   1.353   4.452 -2.6892 -1.3498  1.7389
  548THF     C8 8559   0.878   1.339   4.292 -0.2878 -0.5033 -0.3961
  548THF     C9 8560   0.729   1.337   4.309 -0.2625 -0.2508 -0.5142
  548THF    H10 8561   0.919   1.242   4.267  2.1028  0.0380  1.0874
  548THF    H11 8562   0.897   1.394   4.200 -1.3416  0.9139  0.1857
  548THF    H12 8563   0.684   1.367   4.214  0.3773 -0.5035 -0.9065
  548THF    H13 8564   0.686   1.240   4.335 -0.0029 -0.7019 -1.7045
  549THF     O1 8565   0.368   1.954   3.445  0.1045 -0.1354 -0.2800
  549THF     C2 8566   0.444   2.070   3.421 -0.1979  0.6729  0.4626
  549THF     C3 8567   0.354   1.883   3.333  0.0301 -0.2684  0.0277
  549THF     H4 8568   0.549   2.042   3.414  0.0189  1.4984  0.1752
  549THF     H5 8569   0.450   2.150   3.495  0.2653  1.4698 -0.4177
  549THF     H6 8570   0.448   1.827   3.329  0.1679 -0.0578  0.3077
  549THF     H7 8571   0.271   1.813   3.335  1.0071 -1.4490  0.6437
  549THF     C8 8572   0.338   1.991   3.220  0.1530  0.6281  0.0991
  549THF     C9 8573   0.393   2.115   3.291  0.2181  0.4978  0.4076
  549THF    H10 8574   0.237   2.022   3.194 -0.0500  0.8179  1.0641
  549THF    H11 8575   0.394   1.960   3.131 -1.9179  0.4234 -1.2009
  549THF    H12 8576   0.472   2.157   3.229  1.7002 -2.5980  0.0064
  549THF    H13 8577   0.313   2.189   3.291 -1.0031 -0.6671  3.2049
  550THF     O1 8578   4.474   4.403   0.563  0.5158 -1.0194 -0.4620
  550THF     C2 8579   4.354   4.439   0.496  0.6375  0.3099  0.0711
  550THF     C3 8580   4.572   4.415   0.464 -0.4853 -0.4855 -0.5472
  550THF     H4 8581   4.265   4.438   0.558 -0.2452 -0.3829 -1.1673
  550THF     H5 8582   4.330   4.361   0.424 -1.6694  1.3706 -0.4020
  550THF     H6 8583   4.673   4.430   0.502 -0.0595 -0.6447 -1.5777
  550THF     H7 8584   4.557   4.326   0.403 -1.5558  0.7011 -2.0640
  550THF     C8 8585   4.526   4.530   0.386  0.1675 -0.0206 -0.6212
  550THF     C9 8586   4.383   4.565   0.428 -0.9411 -0.4680  0.2247
  550THF    H10 8587   4.522   4.517   0.278  0.3439 -2.5306 -0.3744
  550THF    H11 8588   4.578   4.624   0.404 -2.9425  1.4315  1.9694
  550THF    H12 8589   4.377   4.657   0.486 -0.9439 -0.1503 -0.2725
  550THF    H13 8590   4.322   4.577   0.338 -3.8815  1.1096  2.2435
  551THF     O1 8591   3.007   0.282   5.024  0.1196  0.3165  0.1067
  551THF     C2 8592   3.079   0.376   4.950  0.5378  0.0480 -0.6146
  551THF     C3 8593   2.998   0.316   5.158 -0.0469 -0.1162 -0.0554
  551THF     H4 8594   3.014   0.457   4.918  0.1588 -0.2383 -0.5744
  551THF     H5 8595   3.135   0.329   4.869  2.3788  0.4167  0.3871
  551THF     H6 8596   2.919   0.392   5.157 -0.2957 -0.3228  1.3686
  551THF     H7 8597   2.971   0.225   5.211  1.1723 -0.6016 -0.2474
  551THF     C8 8598   3.137   0.376   5.189  0.1626  0.0654 -0.3738
  551THF     C9 8599   3.188   0.408   5.053 -0.7044 -0.3754 -0.5264
  551THF    H10 8600   3.196   0.301   5.243 -2.9027 -0.7495  2.1855
  551THF    H11 8601   3.133   0.460   5.258 -0.9407 -1.2730  1.2916
  551THF    H12 8602   3.208   0.516   5.048 -1.8065 -0.1692 -0.6065
  551THF    H13 8603   3.276   0.346   5.034 -0.1412  0.0201  0.7020
  552THF     O1 8604   4.372   3.211   0.481 -0.0315  0.1861 -0.1178
  552THF     C2 8605   4.362   3.263   0.613  0.6055  0.2070 -0.4235
  552THF     C3 8606   4.476   3.278   0.417  0.7743 -0.1357  0.3148
  552THF     H4 8607   4.301   3.202   0.679  1.7725  1.2249  1.6895
  552THF     H5 8608   4.318   3.363   0.607 -1.7331 -0.7022  0.4128
  552THF     H6 8609   4.532   3.203   0.360  1.0681 -0.5347  1.1211
  552THF     H7 8610   4.442   3.348   0.341  0.7463 -1.7494 -1.2256
  552THF     C8 8611   4.571   3.332   0.528 -0.2839  0.4158 -0.2500
  552THF     C9 8612   4.505   3.278   0.652 -0.0040  0.2218  0.6638
  552THF    H10 8613   4.581   3.441   0.523  0.4612  0.7296  3.9459
  552THF    H11 8614   4.673   3.294   0.530 -0.6422 -0.5659 -0.1695
  552THF    H12 8615   4.540   3.180   0.686 -2.2326 -0.8719 -0.0134
  552THF    H13 8616   4.516   3.351   0.732  0.0178  0.4700  0.4342
  553THF     O1 8617   1.739   1.855   5.206 -0.2183  0.0700  1.2108
  553THF     C2 8618   1.804   1.729   5.217  0.1495 -0.0105 -0.1852
  553THF     C3 8619   1.699   1.900   5.335  0.2445  0.1741  0.1669
  553THF     H4 8620   1.910   1.737   5.238  0.4995 -0.8622 -1.5389
  553THF     H5 8621   1.783   1.672   5.126  1.2399 -0.5284 -0.1228
  553THF     H6 8622   1.786   1.925   5.395 -0.9409 -0.5644  2.3086
  553THF     H7 8623   1.630   1.984   5.339  0.8359  0.6933 -0.5462
  553THF     C8 8624   1.651   1.773   5.400  0.0441 -0.0299 -0.0829
  553THF     C9 8625   1.730   1.664   5.334  0.7036  0.2913 -0.7672
  553THF    H10 8626   1.549   1.746   5.371  0.0322 -1.0938  0.8675
  553THF    H11 8627   1.658   1.775   5.509  0.9717  1.1142 -0.1419
  553THF    H12 8628   1.810   1.629   5.400  0.1024  1.8415  0.8803
  553THF    H13 8629   1.666   1.578   5.317  0.7308  0.1571 -0.2014
  554THF     O1 8630   4.300   3.527   1.555  0.1668 -0.2321  0.7037
  554THF     C2 8631   4.318   3.436   1.659  0.5400  0.0602  0.2834
  554THF     C3 8632   4.407   3.544   1.462  0.2149 -1.1114 -0.0417
  554THF     H4 8633   4.247   3.354   1.654  2.0393 -1.2435 -0.3539
  554THF     H5 8634   4.299   3.489   1.752 -0.6523 -0.7989  0.5535
  554THF     H6 8635   4.410   3.468   1.384 -0.7733  0.9328 -2.2276
  554THF     H7 8636   4.420   3.645   1.424 -0.2512 -0.1014  2.2942
  554THF     C8 8637   4.521   3.505   1.552 -0.6391 -1.2886  0.1388
  554THF     C9 8638   4.467   3.414   1.656  0.0335  0.2172  0.8970
  554THF    H10 8639   4.545   3.598   1.603  0.4690 -0.8852 -1.0700
  554THF    H11 8640   4.609   3.461   1.505 -0.8463  0.5433 -2.0921
  554THF    H12 8641   4.481   3.312   1.620 -0.4340  0.4822 -0.0754
  554THF    H13 8642   4.514   3.439   1.751  1.6070  1.8983 -0.2655
  555THF     O1 8643   2.100   1.044   4.958  0.2618 -0.2301  0.2650
  555THF     C2 8644   2.009   1.125   5.027 -0.1484 -0.5916  0.8838
  555THF     C3 8645   2.085   0.905   4.988  0.4213 -0.0301 -0.0773
  555THF     H4 8646   1.918   1.145   4.971  0.6613 -0.2765 -0.3648
  555THF     H5 8647   2.053   1.222   5.050 -1.5821  0.0029  1.2556
  555THF     H6 8648   1.993   0.867   4.943  0.3004 -0.4529  0.5127
  555THF     H7 8649   2.174   0.846   4.969  0.2895 -0.3493  0.2983
  555THF     C8 8650   2.048   0.910   5.137 -0.6485 -0.2593  0.9603
  555THF     C9 8651   1.983   1.050   5.156  0.2435 -0.1806  0.1477
  555THF    H10 8652   2.140   0.903   5.195 -1.7146 -0.8617  2.6601
  555THF    H11 8653   1.979   0.830   5.165 -2.8671  0.3210 -2.3231
  555THF    H12 8654   1.877   1.044   5.179  0.2865 -3.0348 -0.0787
  555THF    H13 8655   2.022   1.106   5.241  0.1627  1.8775 -1.0885
  556THF     O1 8656   2.087   2.557   4.383  0.2568  0.1599 -0.4095
  556THF     C2 8657   2.033   2.679   4.432  0.0775  0.2716  0.0727
  556THF     C3 8658   2.081   2.554   4.239  0.1001 -0.7513  0.6465
  556THF     H4 8659   2.073   2.701   4.531 -0.4840 -1.5131  0.7372
  556THF     H5 8660   1.925   2.671   4.447 -0.5362  2.4341 -2.4330
  556THF     H6 8661   2.156   2.492   4.190  0.6210  0.3610 -0.0233
  556THF     H7 8662   1.980   2.529   4.206  0.6254 -3.0289  0.6412
  556THF     C8 8663   2.087   2.702   4.207  0.4376 -0.5416 -0.8824
  556THF     C9 8664   2.044   2.790   4.323  0.3597 -0.1738  0.4143
  556THF    H10 8665   2.021   2.725   4.123  0.3379  0.4067 -0.5644
  556THF    H11 8666   2.188   2.734   4.183  0.2430 -0.3836 -1.5242
  556THF    H12 8667   2.119   2.867   4.343  1.5369 -1.4445  1.0257
  556THF    H13 8668   1.942   2.823   4.306 -0.0774 -1.5242  0.3258
  557THF     O1 8669   1.690   3.149   3.967 -0.2449  0.5366  0.0924
  557THF     C2 8670   1.814   3.128   4.032 -0.4718  0.7006  0.1911
  557THF     C3 8671   1.629   3.231   4.061 -1.0948  0.1864 -0.4404
  557THF     H4 8672   1.877   3.216   4.021  1.1583 -0.6014 -1.4365
  557THF     H5 8673   1.874   3.050   3.985  0.0817  0.3360  1.4585
  557THF     H6 8674   1.647   3.338   4.048 -1.0670  0.0233 -1.9903
  557THF     H7 8675   1.522   3.210   4.052 -0.9010 -0.7749 -0.5545
  557THF     C8 8676   1.673   3.186   4.197  0.3300  0.2297 -0.4396
  557THF     C9 8677   1.785   3.096   4.178  0.5741 -0.5287  0.0405
  557THF    H10 8678   1.596   3.136   4.255  3.4621  0.5559  4.6193
  557THF    H11 8679   1.697   3.270   4.262  3.5964  0.4358 -1.7293
  557THF    H12 8680   1.873   3.112   4.239 -0.7177  0.1950  1.8056
  557THF    H13 8681   1.757   2.992   4.195 -0.3251 -0.0809  1.5563
  558THF     O1 8682   2.158   3.510   4.422 -0.6789  0.2590  0.3535
  558THF     C2 8683   2.125   3.642   4.462 -0.1172 -0.1251 -0.2293
  558THF     C3 8684   2.253   3.522   4.322  0.1946  0.7828 -0.5153
  558THF     H4 8685   2.192   3.660   4.545  0.0993 -1.1197 -0.1780
  558THF     H5 8686   2.021   3.646   4.494  0.4340 -0.2287  1.6692
  558THF     H6 8687   2.339   3.459   4.343 -1.4264 -0.7437  2.1802
  558THF     H7 8688   2.205   3.468   4.240 -2.6144 -0.0817  1.5285
  558THF     C8 8689   2.288   3.667   4.295  0.4947  0.1139 -0.0340
  558THF     C9 8690   2.160   3.735   4.349 -0.5780 -0.2355  0.6351
  558THF    H10 8691   2.297   3.702   4.192 -2.3823  0.4641 -0.2643
  558THF    H11 8692   2.371   3.692   4.360  0.2577 -3.2723  1.7503
  558THF    H12 8693   2.186   3.833   4.390 -1.9695  0.2418  0.4536
  558THF    H13 8694   2.088   3.750   4.269  0.0999  0.7252  0.1873
  559THF     O1 8695   4.029   0.784   5.235 -0.2411  0.3106 -0.0408
  559THF     C2 8696   3.926   0.876   5.233  0.0761  0.7937 -0.0231
  559THF     C3 8697   4.094   0.769   5.362  0.1006  1.0741  0.0121
  559THF     H4 8698   3.833   0.832   5.269  0.9156 -2.0302 -1.0223
  559THF     H5 8699   3.917   0.920   5.133  1.2015 -0.4391 -0.6916
  559THF     H6 8700   4.082   0.672   5.409 -0.0846  0.6306 -0.9280
  559THF     H7 8701   4.200   0.792   5.353  1.0882 -2.1864  1.7152
  559THF     C8 8702   4.024   0.876   5.442  0.3007 -0.5112 -0.1156
  559THF     C9 8703   3.980   0.975   5.331  0.0441  0.4057  0.5038
  559THF    H10 8704   4.092   0.927   5.510 -0.0497 -2.6539  1.9755
  559THF    H11 8705   3.945   0.841   5.509 -0.1683  1.5474  0.4732
  559THF    H12 8706   3.899   1.044   5.359 -0.6257  0.3254 -1.1287
  559THF    H13 8707   4.057   1.037   5.284 -1.0319  0.3615 -1.4087
  560THF     O1 8708   1.347   1.153   2.295 -0.1122  0.2396 -0.0114
  560THF     C2 8709   1.428   1.040   2.319 -0.1204  0.3623 -0.0007
  560THF     C3 8710   1.293   1.128   2.169 -0.9281 -0.8923 -0.1991
  560THF     H4 8711   1.463   1.038   2.422 -1.1541  1.0156  0.3811
  560THF     H5 8712   1.516   1.033   2.255  0.7500  2.3855  0.9017
  560THF     H6 8713   1.225   1.205   2.133  2.7043  1.7405 -2.0408
  560THF     H7 8714   1.364   1.122   2.087 -2.1288 -3.4503 -1.1501
  560THF     C8 8715   1.233   0.990   2.195  0.0440 -0.6103  0.1254
  560THF     C9 8716   1.329   0.926   2.294 -0.3282  0.2012 -0.2705
  560THF    H10 8717   1.226   0.943   2.097  0.1637  0.2767 -0.3185
  560THF    H11 8718   1.134   1.001   2.240 -0.2513  1.6057 -0.8861
  560THF    H12 8719   1.271   0.898   2.382 -0.4845  1.6618  0.1132
  560THF    H13 8720   1.380   0.833   2.269 -0.3201 -0.5561  2.2921
  561THF     O1 8721   2.926   4.292   1.841 -0.3248 -0.0732 -0.3558
  561THF     C2 8722   2.931   4.431   1.824  0.7433  0.1403 -0.5613
  561THF     C3 8723   2.890   4.277   1.977  0.4766  0.4915 -0.0063
  561THF     H4 8724   2.838   4.476   1.789  1.0460  2.5656  1.4770
  561THF     H5 8725   3.015   4.446   1.756  0.6775 -3.1650 -1.5632
  561THF     H6 8726   2.782   4.284   1.972  0.4219  1.2272  1.7218
  561THF     H7 8727   2.914   4.173   2.000  0.4566  0.3797 -0.4721
  561THF     C8 8728   2.959   4.377   2.060 -0.1777  0.9691  0.5427
  561THF     C9 8729   2.975   4.491   1.963  0.6632 -0.1575 -0.0235
  561THF    H10 8730   3.055   4.336   2.090  0.9143  0.6557 -2.9112
  561THF    H11 8731   2.895   4.412   2.141 -1.7126  1.5803 -0.8935
  561THF    H12 8732   2.912   4.574   1.995  1.0065 -0.3369  1.1637
  561THF    H13 8733   3.077   4.530   1.956  0.1406  3.1612  5.3467
  562THF     O1 8734   2.367   2.579   1.054  0.2500 -0.2646 -0.1190
  562THF     C2 8735   2.310   2.625   0.934  0.0890 -0.4244  0.1688
  562THF     C3 8736   2.291   2.467   1.101 -0.0457 -0.0580 -0.9301
  562THF     H4 8737   2.393   2.643   0.865 -0.5497  1.4082 -0.1894
  562THF     H5 8738   2.242   2.710   0.932  0.2620 -0.2670  0.7673
  562THF     H6 8739   2.358   2.383   1.082 -1.9655 -1.4825 -1.8381
  562THF     H7 8740   2.284   2.465   1.209  2.6967 -0.7782 -0.6924
  562THF     C8 8741   2.169   2.455   1.008  0.4360  0.0683 -0.4869
  562THF     C9 8742   2.222   2.508   0.888 -0.3986 -0.2253 -0.5851
  562THF    H10 8743   2.083   2.508   1.049 -0.1165 -1.2892  0.1805
  562THF    H11 8744   2.129   2.354   0.995 -0.9752  0.7409 -1.8363
  562THF    H12 8745   2.285   2.439   0.833 -1.0594 -2.7564  1.6341
  562THF    H13 8746   2.139   2.531   0.821 -0.5854  2.4705  0.4188
  563THF     O1 8747   1.802   5.384   4.942  0.0985  1.0435  0.3668
  563THF     C2 8748   1.765   5.521   4.954 -0.3818 -0.3325 -0.3787
  563THF     C3 8749   1.912   5.372   4.846  0.0197 -0.6993 -0.4329
  563THF     H4 8750   1.829   5.569   5.028 -0.5684 -1.0320  0.2437
  563THF     H5 8751   1.662   5.525   4.990  0.3330 -1.3391  1.9358
  563THF     H6 8752   1.994   5.342   4.911 -0.8417  0.2622  1.1643
  563THF     H7 8753   1.864   5.293   4.789 -0.8627  0.5249 -1.4567
  563THF     C8 8754   1.926   5.513   4.785  0.9339 -0.7226 -0.6629
  563THF     C9 8755   1.790   5.582   4.814  0.2871  0.2425 -0.6048
  563THF    H10 8756   1.971   5.504   4.686 -0.0390 -0.9308 -1.0935
  563THF    H11 8757   1.993   5.570   4.849  0.5151 -0.8956 -0.0587
  563THF    H12 8758   1.786   5.691   4.816 -0.4755  0.2230  1.5642
  563THF    H13 8759   1.715   5.543   4.745  0.1612  0.9383 -0.8736
  564THF     O1 8760   0.017   4.385   2.933 -0.0737  0.2097 -0.4359
  564THF     C2 8761  -0.098   4.360   3.014 -0.5605 -0.2397  0.3428
  564THF     C3 8762   0.089   4.260   2.937 -0.0844 -0.6223  0.7298
  564THF     H4 8763  -0.167   4.286   2.974 -0.6227  0.3828 -0.7584
  564THF     H5 8764  -0.146   4.455   3.036 -0.2622 -0.3139  1.3593
  564THF     H6 8765   0.057   4.190   2.860 -1.2514 -0.7843  1.3402
  564THF     H7 8766   0.195   4.283   2.926 -0.3022  0.8941  1.4845
  564THF     C8 8767   0.062   4.195   3.069  0.6048 -0.6403 -0.2450
  564THF     C9 8768  -0.029   4.298   3.137  0.1278  0.3828  0.8084
  564THF    H10 8769   0.156   4.193   3.124  0.4928 -1.4908 -0.0710
  564THF    H11 8770   0.017   4.096   3.069 -1.7719  0.3632 -1.3320
  564THF    H12 8771  -0.105   4.239   3.189  0.4165  0.3970  1.2543
  564THF    H13 8772   0.021   4.371   3.200 -0.4692  0.1850  1.5274
  565THF     O1 8773   1.353   2.219   5.385  0.8236  0.2183  0.0022
  565THF     C2 8774   1.365   2.263   5.254  0.1860 -0.0290  0.1568
  565THF     C3 8775   1.468   2.272   5.449  0.5759  0.0446 -0.2925
  565THF     H4 8776   1.346   2.370   5.252 -1.3357 -0.2728  0.4872
  565THF     H5 8777   1.297   2.216   5.182  0.2919  1.0259 -0.6603
  565THF     H6 8778   1.449   2.370   5.494 -1.3050 -0.7274  0.7349
  565THF     H7 8779   1.492   2.200   5.527 -2.3727 -0.8598 -0.0850
  565THF     C8 8780   1.574   2.278   5.351 -0.3364 -0.1145  0.1200
  565THF     C9 8781   1.513   2.235   5.225  0.3788 -0.1375 -0.3813
  565THF    H10 8782   1.643   2.200   5.384 -0.7214 -0.4370  0.1696
  565THF    H11 8783   1.617   2.378   5.358  2.0114 -1.1064  1.2534
  565THF    H12 8784   1.551   2.286   5.137  1.5185  1.3314  0.9043
  565THF    H13 8785   1.523   2.128   5.204 -0.2731 -0.3851  0.4716
  566THF     O1 8786   0.719   5.081   5.065 -0.2139 -0.0131  0.7308
  566THF     C2 8787   0.783   5.133   4.956 -0.4634  0.7814 -0.2321
  566THF     C3 8788   0.801   5.109   5.182 -0.0097 -0.1525 -0.6657
  566THF     H4 8789   0.706   5.170   4.889 -0.7925  0.4345 -0.0490
  566THF     H5 8790   0.840   5.058   4.901  0.9254  0.9002  0.9960
  566THF     H6 8791   0.754   5.119   5.280  1.1233 -0.6627 -0.0404
  566THF     H7 8792   0.887   5.041   5.183 -0.7048 -1.0924  1.5103
  566THF     C8 8793   0.851   5.249   5.158  0.0166 -1.1153 -0.5627
  566THF     C9 8794   0.874   5.243   5.008 -0.2825  0.0453 -0.4525
  566THF    H10 8795   0.936   5.288   5.214 -0.9257 -0.3096  0.3575
  566THF    H11 8796   0.770   5.320   5.176 -0.6379 -1.7687 -0.8586
  566THF    H12 8797   0.857   5.333   4.949 -1.5210 -0.1828 -0.4847
  566THF    H13 8798   0.977   5.208   5.005 -0.2362  0.1236  0.1213
  567THF     O1 8799   0.519   0.099   4.456  0.7980  0.1579 -0.0061
  567THF     C2 8800   0.483   0.003   4.561  0.7545  0.7820  0.1481
  567THF     C3 8801   0.650   0.154   4.471 -0.3482 -0.4673  0.1666
  567THF     H4 8802   0.413  -0.072   4.526  1.4788 -0.0961  0.5451
  567THF     H5 8803   0.440   0.044   4.653 -1.4549 -2.8022  0.9173
  567THF     H6 8804   0.698   0.128   4.376 -0.7668  0.6774 -0.3797
  567THF     H7 8805   0.650   0.263   4.481 -0.1244 -0.4724  0.2117
  567THF     C8 8806   0.706   0.082   4.588 -0.2496 -0.1505 -0.5297
  567THF     C9 8807   0.623  -0.047   4.591 -0.3978  0.1298  0.9802
  567THF    H10 8808   0.674   0.131   4.680 -0.8971 -1.8088  0.1666
  567THF    H11 8809   0.813   0.063   4.582 -0.4388 -1.0366 -1.2253
  567THF    H12 8810   0.647  -0.125   4.518  0.7016  2.5792 -1.4229
  567THF    H13 8811   0.630  -0.089   4.692  0.6954 -1.3766  0.3223
  568THF     O1 8812   4.210   2.465   4.866  0.0091  0.0180 -0.5479
  568THF     C2 8813   4.085   2.503   4.925  0.3140  0.0707 -0.4581
  568THF     C3 8814   4.186   2.449   4.731 -0.5038  0.4091 -0.2331
  568THF     H4 8815   4.094   2.550   5.023 -0.7757 -0.2687 -0.1867
  568THF     H5 8816   4.029   2.413   4.952 -1.9670  1.8438  1.0937
  568THF     H6 8817   4.278   2.432   4.675 -0.7410  1.7792 -1.0930
  568THF     H7 8818   4.132   2.355   4.734 -1.1564  0.7762 -0.3011
  568THF     C8 8819   4.091   2.556   4.685 -0.1569 -0.2813  0.2346
  568THF     C9 8820   4.016   2.584   4.813 -0.1250 -0.0419  0.6336
  568THF    H10 8821   4.023   2.511   4.613  1.2907 -0.3900 -1.0981
  568THF    H11 8822   4.144   2.641   4.642  3.4267 -1.8993  1.0798
  568THF    H12 8823   4.016   2.692   4.830 -0.6366 -0.0649  0.7903
  568THF    H13 8824   3.910   2.557   4.808 -0.1621  0.0112  1.0720
  569THF     O1 8825   2.711   1.292   2.589  0.3855  0.4193 -0.0348
  569THF     C2 8826   2.630   1.398   2.638 -0.3255  0.8613 -0.7173
  569THF     C3 8827   2.776   1.225   2.696  0.1291  0.0933 -0.2674
  569THF     H4 8828   2.538   1.421   2.583 -0.8588  1.1610  0.2845
  569THF     H5 8829   2.696   1.485   2.634  1.4519 -0.4769 -2.1399
  569THF     H6 8830   2.734   1.125   2.699  1.0234 -0.2824  1.1048
  569THF     H7 8831   2.881   1.207   2.671  0.3082 -2.4108  1.7952
  569THF     C8 8832   2.738   1.299   2.825  0.7066 -0.0395  0.1864
  569THF     C9 8833   2.600   1.357   2.787 -0.0746  0.2756 -0.0769
  569THF    H10 8834   2.807   1.380   2.849 -0.8892  1.5015 -0.2388
  569THF    H11 8835   2.727   1.223   2.903 -2.4200 -0.4337 -0.4997
  569THF    H12 8836   2.527   1.275   2.793  1.0565 -1.0121 -2.5366
  569THF    H13 8837   2.566   1.442   2.846  0.5241  1.7341 -1.7456
  570THF     O1 8838   2.242   2.724   5.315 -0.2567  0.0731  0.1704
  570THF     C2 8839   2.288   2.595   5.355 -0.1650  0.7877  0.1822
  570THF     C3 8840   2.161   2.696   5.198  0.0761  0.4807 -0.3680
  570THF     H4 8841   2.330   2.589   5.455 -1.2252  1.0322  0.6548
  570THF     H5 8842   2.375   2.574   5.293  0.0607 -1.8848  1.2795
  570THF     H6 8843   2.074   2.762   5.205  0.1590  1.0994 -3.6257
  570THF     H7 8844   2.204   2.722   5.101  0.5465 -0.5982 -0.4586
  570THF     C8 8845   2.118   2.549   5.195 -0.7394  0.5164 -0.2085
  570THF     C9 8846   2.177   2.492   5.325  0.5689  1.2644  0.7128
  570THF    H10 8847   2.160   2.483   5.119 -0.1571 -0.9452  1.3177
  570THF    H11 8848   2.010   2.538   5.197 -0.5044 -2.6058 -0.1300
  570THF    H12 8849   2.095   2.478   5.395 -0.6478 -1.0123 -1.0199
  570THF    H13 8850   2.217   2.393   5.307 -1.9099  0.3245 -0.1500
  571THF     O1 8851   2.283   1.726   5.141 -0.6008 -0.3627 -0.1255
  571THF     C2 8852   2.417   1.777   5.135  0.3368  0.1991 -0.0207
  571THF     C3 8853   2.282   1.624   5.239  0.5278  0.4024  0.4476
  571THF     H4 8854   2.422   1.876   5.090  3.1259  1.2328  2.2963
  571THF     H5 8855   2.482   1.710   5.077  0.3516 -1.1156  1.4520
  571THF     H6 8856   2.183   1.598   5.278  1.1629 -1.1934  1.1153
  571THF     H7 8857   2.328   1.531   5.206  0.4842  0.5604 -0.0576
  571THF     C8 8858   2.362   1.688   5.345  0.8713  0.1310  0.0479
  571THF     C9 8859   2.460   1.782   5.283  0.3017 -0.8944  0.3329
  571THF    H10 8860   2.420   1.617   5.403 -2.0605 -1.1533  1.6560
  571THF    H11 8861   2.289   1.730   5.415 -0.1636  2.5303 -2.3151
  571THF    H12 8862   2.454   1.880   5.331 -1.3852  0.4227 -2.2931
  571THF    H13 8863   2.563   1.747   5.282  0.2819 -1.2400 -3.4609
  572THF     O1 8864   0.280   3.813   5.291 -0.3830  0.3411  0.3160
  572THF     C2 8865   0.240   3.679   5.278 -0.1247 -0.0718 -0.7214
  572THF     C3 8866   0.333   3.835   5.416  0.3119 -0.3011 -0.5225
  572THF     H4 8867   0.318   3.615   5.238  0.4222 -0.5483  1.0149
  572THF     H5 8868   0.149   3.685   5.217 -0.2461  1.7694 -0.4195
  572THF     H6 8869   0.438   3.807   5.415  0.3391 -0.1992 -0.5871
  572THF     H7 8870   0.329   3.939   5.448  2.6055 -0.1198 -0.6691
  572THF     C8 8871   0.237   3.747   5.495 -0.4704  0.6045 -0.0802
  572THF     C9 8872   0.221   3.619   5.416  0.4457 -1.1233  0.4321
  572THF    H10 8873   0.141   3.799   5.500  0.7142  2.8354  0.5156
  572THF    H11 8874   0.272   3.732   5.597  0.0318 -1.2137 -0.4899
  572THF    H12 8875   0.295   3.547   5.451  1.0389  0.9500  3.9153
  572THF    H13 8876   0.117   3.592   5.434 -0.1162  0.3732 -0.3617
  573THF     O1 8877   2.580   1.149   1.693 -0.7130  0.1846 -0.7781
  573THF     C2 8878   2.623   1.043   1.604 -0.6549  1.0809  0.3476
  573THF     C3 8879   2.565   1.278   1.626 -0.0524  0.7572 -0.2149
  573THF     H4 8880   2.528   0.995   1.580  0.5025 -1.6915  0.9276
  573THF     H5 8881   2.700   0.983   1.653 -0.9163 -0.1187 -0.6709
  573THF     H6 8882   2.462   1.270   1.591 -0.5533 -2.9032  1.5547
  573THF     H7 8883   2.564   1.366   1.690 -1.2633  1.6585 -1.4397
  573THF     C8 8884   2.657   1.267   1.509  0.6564  0.3191  0.7871
  573THF     C9 8885   2.674   1.122   1.480  0.0101  0.4778  0.4965
  573THF    H10 8886   2.751   1.311   1.539  0.9259 -1.8181  3.4777
  573THF    H11 8887   2.620   1.307   1.414 -3.5162 -0.9590  1.6310
  573THF    H12 8888   2.650   1.101   1.376  0.9773  1.3266  0.0781
  573THF    H13 8889   2.783   1.112   1.472  0.0910  1.3613  0.3557
  574THF     O1 8890   0.683   4.830   5.461  0.7414 -0.6244  0.5358
  574THF     C2 8891   0.797   4.911   5.463 -0.6113  0.1024 -0.5955
  574THF     C3 8892   0.700   4.695   5.503 -0.0117  0.4812 -0.3710
  574THF     H4 8893   0.774   5.016   5.480 -0.9955 -0.2109  0.9358
  574THF     H5 8894   0.861   4.897   5.376 -1.4832  1.4851 -1.4929
  574THF     H6 8895   0.625   4.658   5.573 -1.6029  2.0165 -1.1925
  574THF     H7 8896   0.710   4.621   5.424  1.4117 -1.3964  1.4427
  574THF     C8 8897   0.833   4.709   5.567  0.1094  0.2966 -0.3807
  574THF     C9 8898   0.859   4.855   5.591  0.6168 -0.0435 -0.0692
  574THF    H10 8899   0.911   4.660   5.508 -0.7138  0.1086 -1.3384
  574THF    H11 8900   0.835   4.648   5.657 -1.8237 -2.5505 -2.0890
  574THF    H12 8901   0.803   4.892   5.676 -1.5262  0.1658 -1.5015
  574THF    H13 8902   0.966   4.873   5.605  0.2437  1.9533  0.4285
  575THF     O1 8903   1.844   2.246   1.869  0.7311 -0.7233 -0.1824
  575THF     C2 8904   1.962   2.210   1.799  0.2988  0.6330  0.1994
  575THF     C3 8905   1.728   2.223   1.799 -0.4258 -0.5287  0.2858
  575THF     H4 8906   2.046   2.190   1.865  0.1511  0.0526  0.2142
  575THF     H5 8907   1.990   2.292   1.733  2.5665 -0.6464 -0.5364
  575THF     H6 8908   1.634   2.219   1.854 -0.5170  1.8004  0.4046
  575THF     H7 8909   1.715   2.285   1.709 -1.0706 -0.4499  0.4251
  575THF     C8 8910   1.756   2.085   1.742 -0.0885  0.1469  0.0246
  575THF     C9 8911   1.905   2.081   1.735 -0.1454 -0.2206  0.0567
  575THF    H10 8912   1.711   2.064   1.645  0.7900 -0.3230 -0.2896
  575THF    H11 8913   1.720   2.010   1.812 -4.1126 -2.0412 -3.8340
  575THF    H12 8914   1.947   2.004   1.799 -0.4144  0.2871  0.8594
  575THF    H13 8915   1.946   2.071   1.634  0.6987  0.7018  0.2805
  576THF     O1 8916   2.353   2.860   1.491 -0.5816  0.5458 -0.2316
  576THF     C2 8917   2.290   2.981   1.514 -0.1180 -0.4138 -0.1460
  576THF     C3 8918   2.334   2.831   1.353  0.0768  0.0852  0.3117
  576THF     H4 8919   2.306   3.029   1.611  1.1196  1.5925 -1.2828
  576THF     H5 8920   2.182   2.965   1.522  0.0195 -1.2788  0.0110
  576THF     H6 8921   2.403   2.749   1.334 -0.3090 -0.2514  0.3691
  576THF     H7 8922   2.232   2.799   1.335 -0.3620  0.8489  1.3361
  576THF     C8 8923   2.382   2.960   1.289  0.2158 -0.6912  0.0208
  576THF     C9 8924   2.355   3.068   1.398 -0.6010  1.1402 -0.2111
  576THF    H10 8925   2.333   2.992   1.197  0.6089  0.5558  0.2229
  576THF    H11 8926   2.488   2.959   1.262 -0.0069 -0.5211 -0.8883
  576THF    H12 8927   2.453   3.111   1.421 -0.0512 -1.7366  3.6984
  576THF    H13 8928   2.295   3.149   1.357  0.5420  1.7631 -0.7264
  577THF     O1 8929   5.108   1.281   1.102  0.4014 -0.3783  0.0519
  577THF     C2 8930   5.137   1.191   1.211  0.1954  0.4522  0.4101
  577THF     C3 8931   4.966   1.293   1.095  0.4202  0.2011 -0.4350
  577THF     H4 8932   5.232   1.227   1.251  1.3741 -1.8005 -0.1740
  577THF     H5 8933   5.155   1.089   1.176 -0.2099  0.1340  1.1113
  577THF     H6 8934   4.941   1.391   1.053 -0.5309 -0.2709 -1.0081
  577THF     H7 8935   4.911   1.220   1.035  0.6229  0.6375 -1.1652
  577THF     C8 8936   4.915   1.290   1.245 -0.0310  0.5572 -0.8567
  577THF     C9 8937   5.016   1.194   1.307 -0.5742 -0.0526  0.3554
  577THF    H10 8938   4.813   1.253   1.253  0.5820 -1.5843 -2.1402
  577THF    H11 8939   4.928   1.390   1.287  1.4095 -0.6025  1.7295
  577THF    H12 8940   5.052   1.234   1.401  0.3696 -0.1215  0.0381
  577THF    H13 8941   4.989   1.090   1.328 -0.3451 -0.3865 -0.9080
  578THF     O1 8942   1.236   1.826   2.794 -0.5278  0.0378 -0.4039
  578THF     C2 8943   1.259   1.971   2.811  0.3594  0.4775  0.0633
  578THF     C3 8944   1.112   1.796   2.865  0.2508 -0.8989  0.5859
  578THF     H4 8945   1.192   2.013   2.736 -1.6472 -1.6296  0.5447
  578THF     H5 8946   1.361   1.996   2.782  0.1515  0.4292 -0.7092
  578THF     H6 8947   1.027   1.839   2.812  1.0769  1.7315  1.2354
  578THF     H7 8948   1.101   1.690   2.889 -1.1559 -0.5517  1.5419
  578THF     C8 8949   1.125   1.884   2.989  0.1227  0.0539  0.3027
  578THF     C9 8950   1.209   2.002   2.958 -0.0293 -0.2510 -0.0246
  578THF    H10 8951   1.173   1.820   3.065 -0.9359 -0.4140  0.5949
  578THF    H11 8952   1.032   1.907   3.040 -0.2023 -0.2129 -0.1693
  578THF    H12 8953   1.155   2.097   2.962 -0.4309 -0.1403 -4.0014
  578THF    H13 8954   1.297   1.997   3.022  0.4396 -2.7452 -0.7599
  579THF     O1 8955   3.258   3.917   5.003 -0.0743 -0.4243 -0.3669
  579THF     C2 8956   3.122   3.962   4.996 -0.1730  0.3437  0.1255
  579THF     C3 8957   3.267   3.821   4.904 -0.1944  0.5188 -0.1220
  579THF     H4 8958   3.113   4.059   5.045  1.7746  0.5932  0.0588
  579THF     H5 8959   3.071   3.886   5.055 -0.6909  0.2774 -0.4049
  579THF     H6 8960   3.370   3.798   4.877 -0.4977  0.9910 -1.7863
  579THF     H7 8961   3.219   3.729   4.937 -0.7434  0.4512 -1.0680
  579THF     C8 8962   3.184   3.866   4.786 -0.6056  0.3025 -0.7527
  579THF     C9 8963   3.080   3.956   4.844 -0.3139 -0.0377 -1.0431
  579THF    H10 8964   3.140   3.780   4.735 -0.5787 -0.3579  0.3085
  579THF    H11 8965   3.243   3.917   4.709  1.7355 -0.2321  0.5967
  579THF    H12 8966   3.082   4.056   4.800  1.1876  0.4870  0.1541
  579THF    H13 8967   2.982   3.909   4.834 -0.4515 -0.0131  0.0088
  580THF     O1 8968   0.427   3.127   2.671 -0.4981 -0.4546 -0.4500
  580THF     C2 8969   0.485   3.156   2.547 -0.4905  0.4290 -0.2269
  580THF     C3 8970   0.469   3.230   2.758 -0.0023  0.7553  0.3629
  580THF     H4 8971   0.444   3.104   2.461  1.5295 -0.0508 -0.9757
  580THF     H5 8972   0.590   3.125   2.551 -0.6430 -0.1547 -0.5912
  580THF     H6 8973   0.415   3.223   2.852  0.9726 -0.3793  0.8843
  580THF     H7 8974   0.576   3.216   2.778 -0.0219 -1.3620 -0.6303
  580THF     C8 8975   0.446   3.354   2.680  0.2312  0.5796 -0.8237
  580THF     C9 8976   0.481   3.312   2.535  0.5360 -0.3533  0.0957
  580THF    H10 8977   0.496   3.446   2.712  2.2507 -1.0740  1.1280
  580THF    H11 8978   0.338   3.364   2.690  0.1819 -0.5720  0.0545
  580THF    H12 8979   0.393   3.347   2.481  0.9654  0.9668  0.2243
  580THF    H13 8980   0.569   3.353   2.486  1.4024  0.0325  1.9040
  581THF     O1 8981   1.968   5.472   3.288 -0.2063 -0.1844 -0.5522
  581THF     C2 8982   2.061   5.453   3.189  0.0232  0.2101 -0.2797
  581THF     C3 8983   1.834   5.445   3.236 -0.8815 -0.4001  0.2619
  581THF     H4 8984   2.159   5.450   3.236 -0.9729 -0.5438  1.8938
  581THF     H5 8985   2.075   5.541   3.127  0.0932  0.5693  0.2374
  581THF     H6 8986   1.775   5.404   3.318 -1.0888  0.3829  0.5129
  581THF     H7 8987   1.785   5.531   3.191 -0.1345 -0.0861  0.0393
  581THF     C8 8988   1.867   5.339   3.133  0.7528 -0.2293 -0.2753
  581THF     C9 8989   2.012   5.319   3.135 -0.1668  0.3359  0.3613
  581THF    H10 8990   1.837   5.374   3.035  0.7435  0.9297  0.1271
  581THF    H11 8991   1.824   5.242   3.158  1.8957 -1.2801 -2.2009
  581THF    H12 8992   2.031   5.230   3.195  0.8057  0.8396  0.8190
  581THF    H13 8993   2.044   5.296   3.033 -0.2174  1.8078 -0.0033
  582THF     O1 8994   1.085   4.178   1.746 -0.0969 -0.2346 -0.5783
  582THF     C2 8995   1.147   4.285   1.809  0.0647 -0.0199  0.5494
  582THF     C3 8996   1.166   4.064   1.791  0.0467  0.4625  0.3876
  582THF     H4 8997   1.097   4.381   1.795 -0.2216  0.1385  2.4099
  582THF     H5 8998   1.240   4.287   1.754  0.5533 -2.2401  1.2154
  582THF     H6 8999   1.103   3.977   1.773 -1.3012  1.7004 -1.2362
  582THF     H7 9000   1.260   4.062   1.736 -0.1504  2.6820 -0.1237
  582THF     C8 9001   1.190   4.089   1.934  0.3548 -0.2662  0.5748
  582THF     C9 9002   1.176   4.243   1.949  0.2811  0.6007 -0.1482
  582THF    H10 9003   1.294   4.060   1.950  0.7336  0.5732 -0.2138
  582THF    H11 9004   1.124   4.044   2.008 -1.5335  0.8263 -0.3784
  582THF    H12 9005   1.080   4.273   1.992  0.2000 -0.4745  0.4341
  582THF    H13 9006   1.261   4.297   1.990 -0.6753  3.1796 -1.2722
  583THF     O1 9007   4.303   2.818   2.117 -0.5094 -0.0366 -0.4593
  583THF     C2 9008   4.324   2.900   2.226 -0.2000  0.0434 -0.6865
  583THF     C3 9009   4.417   2.841   2.040 -0.5582 -0.1039  0.7753
  583THF     H4 9010   4.358   2.842   2.312 -1.5486 -1.6170 -1.1994
  583THF     H5 9011   4.231   2.941   2.265 -0.2001  0.5579 -1.2200
  583THF     H6 9012   4.489   2.765   2.071 -0.4440 -0.6537 -0.7364
  583THF     H7 9013   4.398   2.818   1.935 -1.8377 -1.2895  1.2452
  583THF     C8 9014   4.479   2.979   2.066 -0.5143 -0.4594  0.3174
  583THF     C9 9015   4.421   3.009   2.200  0.1842 -0.6265 -0.5991
  583THF    H10 9016   4.460   3.046   1.982  0.7738 -3.1592 -2.3150
  583THF    H11 9017   4.587   2.963   2.075  0.1328  2.7034 -0.4469
  583THF    H12 9018   4.503   3.022   2.272  2.4325 -0.4892 -3.0356
  583THF    H13 9019   4.367   3.103   2.204  0.4166 -0.5037 -0.2239
  584THF     O1 9020   2.064   5.485   2.098 -0.6791 -0.2832 -0.4410
  584THF     C2 9021   1.939   5.511   2.048  0.8588  0.6493 -0.3694
  584THF     C3 9022   2.110   5.606   2.163 -0.0118  0.1076  0.2395
  584THF     H4 9023   1.884   5.420   2.023  0.3488 -0.0227  2.7551
  584THF     H5 9024   1.962   5.568   1.959  1.4894  1.3357  0.2182
  584THF     H6 9025   2.190   5.572   2.229  1.4803 -0.2195 -1.6508
  584THF     H7 9026   2.133   5.690   2.098 -0.2215 -0.5727 -0.7394
  584THF     C8 9027   1.976   5.646   2.232  0.0249 -0.2712  0.1077
  584THF     C9 9028   1.863   5.581   2.157 -0.2867 -0.6519  0.9066
  584THF    H10 9029   1.975   5.755   2.230  1.9213 -0.2056 -1.5581
  584THF    H11 9030   1.972   5.602   2.331 -1.2310 -2.7765 -0.9645
  584THF    H12 9031   1.805   5.504   2.208 -1.4148 -0.6070 -0.2835
  584THF    H13 9032   1.788   5.650   2.119  1.2920  0.9869  0.6337
  585THF     O1 9033   2.218   0.185   3.642 -0.1067 -0.0665  0.1009
  585THF     C2 9034   2.187   0.116   3.519  0.1832 -0.0072  0.5561
  585THF     C3 9035   2.353   0.213   3.625 -0.0214 -0.5473 -0.2765
  585THF     H4 9036   2.078   0.116   3.515  0.0906  1.9471  1.6156
  585THF     H5 9037   2.228   0.016   3.529  2.0194  0.7997  1.5476
  585THF     H6 9038   2.390   0.280   3.703 -1.0542  0.6449 -0.7671
  585THF     H7 9039   2.412   0.122   3.631 -0.2749 -0.8344 -1.7601
  585THF     C8 9040   2.353   0.272   3.484 -0.2769  0.7209  0.4205
  585THF     C9 9041   2.259   0.188   3.410 -0.0323 -1.0135  0.4162
  585THF    H10 9042   2.453   0.278   3.442  0.5168 -0.0347  2.1088
  585THF    H11 9043   2.315   0.373   3.499 -0.0113  1.0022 -0.6578
  585THF    H12 9044   2.185   0.250   3.359  1.1508  0.4568  0.4586
  585THF    H13 9045   2.306   0.125   3.335  0.2735  2.8722 -2.9914
  586THF     O1 9046   1.714   0.004   4.269 -0.2130  0.5118  0.3901
  586THF     C2 9047   1.656   0.033   4.397  0.2385  0.0712 -0.1669
  586THF     C3 9048   1.616   0.014   4.161  0.6836 -0.1616 -0.4637
  586THF     H4 9049   1.724   0.103   4.446 -0.1823  1.8441 -1.9501
  586THF     H5 9050   1.641  -0.049   4.466  1.9941  0.3492  0.6060
  586THF     H6 9051   1.654   0.061   4.070 -1.1763  1.3180 -0.5357
  586THF     H7 9052   1.571  -0.084   4.147 -0.9133  0.5695 -0.6086
  586THF     C8 9053   1.506   0.108   4.215 -0.4060  0.5058  0.7373
  586THF     C9 9054   1.518   0.093   4.362  0.2583  0.0304 -0.3907
  586THF    H10 9055   1.405   0.091   4.177 -0.2479  2.1154 -0.5022
  586THF    H11 9056   1.531   0.209   4.186 -1.3576  0.7477  0.7085
  586THF    H12 9057   1.498   0.184   4.418  3.0470  0.2743  0.3684
  586THF    H13 9058   1.442   0.019   4.389  1.9426 -1.5277  0.2912
  587THF     O1 9059   2.515   2.384   1.572 -0.1412 -0.3177  0.0452
  587THF     C2 9060   2.417   2.495   1.570  0.2735  0.5621 -0.7256
  587THF     C3 9061   2.448   2.271   1.522  0.0884  0.2542 -0.1148
  587THF     H4 9062   2.406   2.524   1.466  2.6738 -0.5630 -1.3521
  587THF     H5 9063   2.454   2.579   1.628 -0.0032  0.6183 -0.6244
  587THF     H6 9064   2.423   2.288   1.417 -1.6956 -1.3943 -0.0210
  587THF     H7 9065   2.507   2.179   1.534 -3.3332 -2.1609 -0.2743
  587THF     C8 9066   2.317   2.266   1.606 -0.1949 -0.9825  0.6456
  587THF     C9 9067   2.297   2.419   1.638  0.5545  0.4079 -0.2461
  587THF    H10 9068   2.332   2.200   1.692  1.0022  0.7998  1.8648
  587THF    H11 9069   2.236   2.214   1.555  0.3389 -1.4969  0.3173
  587THF    H12 9070   2.207   2.456   1.588 -0.4881  0.2733  1.4474
  587THF    H13 9071   2.281   2.437   1.744  1.9248  0.6616 -0.0639
  588THF     O1 9072   1.711   2.950   2.009 -0.3340 -0.0105  1.0118
  588THF     C2 9073   1.776   3.077   2.004 -0.3309  0.4502  0.1100
  588THF     C3 9074   1.729   2.910   2.148  0.7435  0.2622 -0.0620
  588THF     H4 9075   1.712   3.160   1.973 -2.5846 -1.5942 -0.9883
  588THF     H5 9076   1.852   3.080   1.926  1.9825 -0.6192  2.2159
  588THF     H6 9077   1.653   2.960   2.207  0.3871  0.4773 -0.6876
  588THF     H7 9078   1.705   2.805   2.168 -0.9128  1.1341  3.1486
  588THF     C8 9079   1.863   2.967   2.190 -0.5670 -0.7554  0.8114
  588THF     C9 9080   1.847   3.105   2.137  0.1441  0.5066  0.0209
  588THF    H10 9081   1.937   2.911   2.133  0.8782  0.1746  1.7336
  588THF    H11 9082   1.877   2.961   2.298  0.2619  0.1337  0.7638
  588THF    H12 9083   1.775   3.141   2.211  0.4448  0.5190  0.3108
  588THF    H13 9084   1.940   3.163   2.137  1.9606 -2.2166 -0.7910
  589THF     O1 9085   4.988   1.981   3.855  0.4293 -0.1595 -0.4465
  589THF     C2 9086   5.004   2.113   3.914 -0.7335 -0.8661 -0.7954
  589THF     C3 9087   4.990   1.989   3.711 -1.0644  0.3154 -1.0032
  589THF     H4 9088   5.052   2.109   4.011  0.4437  0.9730 -1.2541
  589THF     H5 9089   4.907   2.162   3.910 -0.7305 -0.0455  3.9441
  589THF     H6 9090   5.061   1.910   3.685 -0.4455  0.4355  0.2147
  589THF     H7 9091   4.898   1.959   3.661 -0.4683  2.0694 -3.3202
  589THF     C8 9092   5.030   2.136   3.677  0.2230 -0.3248 -0.6251
  589THF     C9 9093   5.091   2.190   3.807  1.0847  0.0260  0.6504
  589THF    H10 9094   4.945   2.199   3.650 -0.4639 -1.2481 -0.6383
  589THF    H11 9095   5.103   2.137   3.595 -0.4990  1.0903 -1.2960
  589THF    H12 9096   5.197   2.168   3.815  1.0145 -0.4355  0.3818
  589THF    H13 9097   5.080   2.297   3.819 -1.2984 -0.2853  2.0915
  590THF     O1 9098   4.876   1.354   4.740  0.2771  0.2049  0.2060
  590THF     C2 9099   4.878   1.400   4.876 -0.6130  0.1328 -0.2964
  590THF     C3 9100   4.889   1.465   4.655 -0.1665 -0.3416 -0.7536
  590THF     H4 9101   4.940   1.333   4.935  2.0037  1.5893 -1.2166
  590THF     H5 9102   4.773   1.397   4.906 -0.3383  1.7435  0.9854
  590THF     H6 9103   4.993   1.469   4.621 -0.4956  1.9743 -1.7169
  590THF     H7 9104   4.836   1.439   4.564  1.0606 -1.2447 -1.2353
  590THF     C8 9105   4.849   1.588   4.736 -0.1663 -0.1933 -0.6811
  590THF     C9 9106   4.916   1.549   4.866 -0.7215  0.8537  0.0925
  590THF    H10 9107   4.741   1.586   4.748 -0.4362  2.1444 -2.1261
  590THF    H11 9108   4.892   1.680   4.695  2.1513 -1.0311 -0.2850
  590THF    H12 9109   5.025   1.558   4.863 -0.6997  0.6417  0.2293
  590THF    H13 9110   4.881   1.602   4.955  0.4831 -1.6079  2.1581
  591THF     O1 9111   2.787   2.519   0.417 -0.1132  0.5544 -0.0762
  591THF     C2 9112   2.928   2.501   0.418 -0.1588  0.1982 -0.0802
  591THF     C3 9113   2.728   2.393   0.384 -0.4327 -0.5751 -0.1176
  591THF     H4 9114   2.948   2.478   0.522 -1.0460 -1.1213 -0.1794
  591THF     H5 9115   2.979   2.592   0.386  0.7612 -0.1649  0.3473
  591THF     H6 9116   2.658   2.347   0.454 -1.2338 -1.8465 -1.6760
  591THF     H7 9117   2.686   2.409   0.285  2.1450 -1.4295 -1.4495
  591THF     C8 9118   2.846   2.299   0.358 -0.2012  0.1389 -0.3152
  591THF     C9 9119   2.964   2.388   0.330 -0.0808  0.3329  0.6404
  591THF    H10 9120   2.828   2.242   0.267  2.9147  0.2366 -1.1267
  591THF    H11 9121   2.858   2.234   0.445  0.4388 -2.6006 -2.3135
  591THF    H12 9122   3.058   2.348   0.367 -0.0232 -1.1417 -0.9771
  591THF    H13 9123   2.978   2.414   0.225  0.9288 -1.8308  0.1896
  592THF     O1 9124   3.174   3.846   0.337  0.3006 -0.2919 -0.6441
  592THF     C2 9125   3.305   3.863   0.386  0.2154 -0.3819  0.2354
  592THF     C3 9126   3.147   3.958   0.247  1.0759  0.1753 -0.2949
  592THF     H4 9127   3.359   3.780   0.431 -0.2593 -0.3791  0.8302
  592THF     H5 9128   3.300   3.944   0.459 -2.2038  0.9680 -1.3119
  592THF     H6 9129   3.057   3.938   0.190  0.9484  1.0955 -0.4325
  592THF     H7 9130   3.136   4.051   0.303 -0.0634 -0.2766  0.2792
  592THF     C8 9131   3.274   3.952   0.165  0.9029  0.6096 -0.0187
  592THF     C9 9132   3.378   3.917   0.264 -0.1827 -0.5857  0.0730
  592THF    H10 9133   3.294   4.038   0.101 -0.5776  0.9698 -0.0210
  592THF    H11 9134   3.267   3.869   0.095 -1.1317  1.6595 -1.1321
  592THF    H12 9135   3.444   3.843   0.219  0.0455  0.4098 -1.3138
  592THF    H13 9136   3.439   4.001   0.300 -1.6261  1.3788 -1.8071
  593THF     O1 9137   2.237   4.782   0.377 -0.3822  0.5192 -0.2426
  593THF     C2 9138   2.207   4.663   0.459 -0.4560  0.1426  0.3586
  593THF     C3 9139   2.375   4.808   0.382 -0.3791 -0.6770 -0.2243
  593THF     H4 9140   2.110   4.623   0.429 -1.1416  0.9375  1.4290
  593THF     H5 9141   2.206   4.689   0.565  0.1506  3.3471 -0.2980
  593THF     H6 9142   2.401   4.880   0.305 -1.7191 -0.8624 -0.8672
  593THF     H7 9143   2.401   4.864   0.473  2.4288  0.2107 -1.4503
  593THF     C8 9144   2.438   4.674   0.372 -0.0003  0.1278 -0.0673
  593THF     C9 9145   2.336   4.580   0.431 -0.5034 -0.8712  0.1560
  593THF    H10 9146   2.535   4.661   0.420 -0.7493 -1.3682  1.1358
  593THF    H11 9147   2.451   4.641   0.269 -0.0053  1.6195 -0.5689
  593THF    H12 9148   2.323   4.500   0.358  2.2130  0.5528 -2.0843
  593THF    H13 9149   2.380   4.533   0.519  2.6207  2.8548  0.8447
  594THF     O1 9150   2.312   4.359   4.930  0.1777 -0.4072 -0.1798
  594THF     C2 9151   2.228   4.314   4.836 -0.4141  0.2780  0.1862
  594THF     C3 9152   2.327   4.499   4.905  0.5073  0.1050 -0.7238
  594THF     H4 9153   2.128   4.324   4.878  0.3832  0.4070  2.1544
  594THF     H5 9154   2.247   4.208   4.821 -2.1235 -0.1413  0.7743
  594THF     H6 9155   2.237   4.554   4.932 -0.1159 -1.5784  0.9106
  594THF     H7 9156   2.414   4.528   4.965 -0.9490  0.9739  1.0668
  594THF     C8 9157   2.359   4.494   4.757  0.3426 -0.0173 -0.8038
  594THF     C9 9158   2.246   4.403   4.715 -0.5582  0.2187  0.7506
  594THF    H10 9159   2.454   4.448   4.728  2.8196  3.5349  0.9046
  594THF    H11 9160   2.359   4.596   4.718 -0.7360 -0.0171 -0.8193
  594THF    H12 9161   2.152   4.456   4.698 -1.6629 -1.8549 -0.0248
  594THF    H13 9162   2.255   4.352   4.619 -2.4976  2.2645 -0.6119
  595THF     O1 9163   4.013   3.906   1.291 -0.0564 -0.2636  0.3825
  595THF     C2 9164   4.125   3.980   1.225 -0.1323  0.0514  0.1715
  595THF     C3 9165   4.060   3.836   1.404  0.0594 -0.4514  0.2942
  595THF     H4 9166   4.111   4.087   1.234 -2.4623 -0.2262  0.3065
  595THF     H5 9167   4.129   3.964   1.117  1.1233 -0.6455  0.2955
  595THF     H6 9168   4.032   3.900   1.488  0.5193  0.2992 -0.1082
  595THF     H7 9169   4.017   3.737   1.413  1.0255 -1.0512 -1.2247
  595THF     C8 9170   4.210   3.819   1.380  0.0998  0.2135  0.1691
  595THF     C9 9171   4.251   3.940   1.296 -0.7633  0.4792 -0.2287
  595THF    H10 9172   4.229   3.731   1.319  1.2785  1.1427 -0.8914
  595THF    H11 9173   4.268   3.803   1.471  0.9067  0.9902 -0.1797
  595THF    H12 9174   4.292   4.010   1.368 -1.4818 -1.7177  2.5027
  595THF    H13 9175   4.331   3.930   1.222 -1.1908  1.4367 -0.8320
  596THF     O1 9176   4.070   2.409   2.457 -0.2546  0.0123 -0.1228
  596THF     C2 9177   4.134   2.505   2.373  1.3340  0.0619  0.2867
  596THF     C3 9178   4.160   2.403   2.572 -0.0702 -0.0699  0.1319
  596THF     H4 9179   4.063   2.539   2.298  1.2602  0.1472  0.3963
  596THF     H5 9180   4.214   2.457   2.315  0.1268 -2.2886  0.4614
  596THF     H6 9181   4.113   2.347   2.653 -1.8027  1.1648  0.0362
  596THF     H7 9182   4.245   2.354   2.525 -0.9238 -0.9637 -0.5123
  596THF     C8 9183   4.165   2.553   2.605 -0.2797  0.4242  0.1424
  596THF     C9 9184   4.173   2.619   2.469 -0.0545  0.0740  0.0101
  596THF    H10 9185   4.253   2.579   2.664  1.8674 -0.5294 -2.4584
  596THF    H11 9186   4.068   2.587   2.644 -1.4198  0.3256 -2.4190
  596THF    H12 9187   4.098   2.697   2.479 -0.5629 -0.2742 -0.9994
  596THF    H13 9188   4.270   2.665   2.448  0.5184 -0.8063  0.6411
  597THF     O1 9189   1.475   5.142   1.848 -0.1305  0.0279 -0.7638
  597THF     C2 9190   1.488   5.062   1.962 -0.1835  0.5342 -0.0006
  597THF     C3 9191   1.343   5.117   1.803  0.7299  0.3569  0.1631
  597THF     H4 9192   1.422   5.100   2.040 -0.4422 -0.4563  0.2772
  597THF     H5 9193   1.589   5.064   2.004 -1.1637  2.9872  2.5785
  597THF     H6 9194   1.271   5.164   1.870 -0.9698  0.0246 -1.3460
  597THF     H7 9195   1.333   5.151   1.700  1.5112  0.3070  0.0636
  597THF     C8 9196   1.330   4.966   1.821 -0.1871 -0.1014 -0.1522
  597THF     C9 9197   1.443   4.927   1.912  0.3382 -0.1390  0.4619
  597THF    H10 9198   1.357   4.923   1.725  0.4457 -2.1173  0.8841
  597THF    H11 9199   1.228   4.941   1.851 -0.0086 -0.0674  0.5134
  597THF    H12 9200   1.403   4.853   1.982  0.6693 -2.3142 -1.5200
  597THF    H13 9201   1.514   4.871   1.852  0.3760 -2.6013  2.6292
  598THF     O1 9202   3.193   1.600   4.111 -0.2289 -0.0772 -0.2022
  598THF     C2 9203   3.181   1.458   4.120 -0.5092 -0.0209 -0.0144
  598THF     C3 9204   3.086   1.648   4.023  0.5509 -0.5509 -0.5620
  598THF     H4 9205   3.232   1.424   4.210 -2.0771  0.0621  0.9585
  598THF     H5 9206   3.217   1.408   4.030  0.2494  0.0702  0.2311
  598THF     H6 9207   3.054   1.752   4.031 -2.1234 -1.1498 -2.0634
  598THF     H7 9208   3.097   1.635   3.915  0.4103 -2.1985 -0.4063
  598THF     C8 9209   2.974   1.556   4.064 -0.4339 -0.4781  0.2353
  598THF     C9 9210   3.036   1.437   4.128  0.0898 -0.5923 -0.3599
  598THF    H10 9211   2.919   1.529   3.974  1.7329 -0.1607 -1.2686
  598THF    H11 9212   2.902   1.613   4.123  1.6363  1.8310  0.6703
  598THF    H12 9213   3.014   1.432   4.235 -1.8665 -2.3443 -0.7845
  598THF    H13 9214   3.004   1.341   4.088 -0.1546 -0.1885 -1.1544
  599THF     O1 9215   5.097   1.731   1.760  0.0528 -0.3470  0.4938
  599THF     C2 9216   5.231   1.784   1.781  0.6776 -0.0185 -0.1526
  599THF     C3 9217   5.009   1.840   1.771  0.6204  0.2617  0.4100
  599THF     H4 9218   5.294   1.714   1.727  0.9913 -1.8677  2.4297
  599THF     H5 9219   5.262   1.775   1.885 -0.3517  1.3910  0.3136
  599THF     H6 9220   4.910   1.825   1.728  0.3941 -0.0459  1.0233
  599THF     H7 9221   4.992   1.868   1.875 -1.5335 -0.9172  0.4321
  599THF     C8 9222   5.079   1.957   1.702 -0.1137  0.0550 -0.5380
  599THF     C9 9223   5.226   1.931   1.732  0.5421  0.4391 -0.3296
  599THF    H10 9224   5.038   2.052   1.736  1.0000  1.1582 -2.0995
  599THF    H11 9225   5.055   1.943   1.596 -0.2420  1.4959 -0.7145
  599THF    H12 9226   5.292   1.939   1.647  2.2780 -1.9060  0.6886
  599THF    H13 9227   5.263   2.006   1.802 -0.8659 -1.4144  2.6084
  600THF     O1 9228   5.459   4.673   2.615  0.1217  0.2721  0.1087
  600THF     C2 9229   5.493   4.756   2.725  0.6169  0.2357  0.2419
  600THF     C3 9230   5.318   4.704   2.586 -0.0213 -0.3074 -0.2305
  600THF     H4 9231   5.497   4.857   2.685 -1.4081 -0.1224 -1.0286
  600THF     H5 9232   5.587   4.718   2.766  0.1987  0.4400  1.4432
  600THF     H6 9233   5.307   4.799   2.534  2.1803  0.7310  1.0181
  600THF     H7 9234   5.275   4.622   2.528 -0.5987 -0.9762  1.1143
  600THF     C8 9235   5.264   4.714   2.727  0.4170  0.2284  0.4231
  600THF     C9 9236   5.371   4.735   2.823  0.4435  0.1775  0.3421
  600THF    H10 9237   5.222   4.616   2.752  1.1472  0.0228  0.8590
  600THF    H11 9238   5.181   4.784   2.735  1.2525  1.3074 -0.0910
  600THF    H12 9239   5.358   4.818   2.892  1.6552 -0.7419  1.7266
  600THF    H13 9240   5.398   4.655   2.891  1.2264  1.6094  1.8053
  601THF     O1 9241   1.055   5.450   1.096 -0.0545 -0.2344 -0.2556
  601THF     C2 9242   1.022   5.570   1.170  0.1708 -0.3206 -0.2483
  601THF     C3 9243   1.149   5.502   0.999  0.2429 -0.2075 -0.3348
  601THF     H4 9244   0.968   5.548   1.261 -2.7766 -1.1150 -2.0539
  601THF     H5 9245   0.948   5.616   1.104  0.4854 -2.7939 -2.5107
  601THF     H6 9246   1.193   5.425   0.936 -2.5282 -1.2473 -1.1259
  601THF     H7 9247   1.101   5.566   0.925  1.5405  0.2914 -0.7706
  601THF     C8 9248   1.246   5.583   1.085 -0.2429 -0.7443 -0.5135
  601THF     C9 9249   1.157   5.647   1.186  0.5782 -0.1790  0.0977
  601THF    H10 9250   1.312   5.654   1.035  0.3946 -2.4678 -2.1970
  601THF    H11 9251   1.310   5.510   1.134 -0.9236 -1.0240 -0.0160
  601THF    H12 9252   1.197   5.626   1.286 -0.6312  0.4899  0.7458
  601THF    H13 9253   1.145   5.754   1.174  2.5650  0.1062  0.2116
  602THF     O1 9254   3.662   4.797   2.361 -0.1104 -0.1863  0.4544
  602THF     C2 9255   3.652   4.941   2.356  0.2754  0.2386 -0.0738
  602THF     C3 9256   3.639   4.772   2.503  0.2859  0.4803  0.3668
  602THF     H4 9257   3.546   4.965   2.349  0.5428  1.3074 -0.7003
  602THF     H5 9258   3.696   4.986   2.267  0.5244 -0.6881 -0.4403
  602THF     H6 9259   3.532   4.758   2.520  0.2036 -0.8435 -0.9928
  602THF     H7 9260   3.676   4.677   2.542  0.2974 -0.0339 -0.8444
  602THF     C8 9261   3.677   4.899   2.579 -0.0543  0.1639  0.0426
  602THF     C9 9262   3.720   4.991   2.478 -0.5781 -0.0726 -0.3856
  602THF    H10 9263   3.756   4.882   2.652 -0.1376 -5.0700 -0.7559
  602THF    H11 9264   3.588   4.952   2.614  0.5288  2.4137 -1.6422
  602THF    H12 9265   3.699   5.098   2.485  0.7910  0.1281  1.4740
  602THF    H13 9266   3.828   4.975   2.479 -0.4121  0.8881 -1.0198
  603THF     O1 9267   1.401   3.245   1.053  0.0630 -0.2956  0.1311
  603THF     C2 9268   1.423   3.146   0.950  0.0374  0.9055  0.3411
  603THF     C3 9269   1.306   3.192   1.138  0.5116  0.5460 -0.1776
  603THF     H4 9270   1.507   3.091   0.991 -1.6809 -2.5686 -0.3761
  603THF     H5 9271   1.454   3.196   0.858 -2.3375  0.7613 -0.6206
  603THF     H6 9272   1.356   3.130   1.213 -0.7819  1.0329  1.1429
  603THF     H7 9273   1.255   3.273   1.190 -2.7943 -1.5070  0.0583
  603THF     C8 9274   1.215   3.097   1.055  0.2409  0.1704 -0.3062
  603THF     C9 9275   1.291   3.076   0.922 -1.1146 -0.0406 -0.6619
  603THF    H10 9276   1.116   3.140   1.045  0.2551  0.0736 -0.8935
  603THF    H11 9277   1.201   2.999   1.099  1.0311  0.4713  0.6507
  603THF    H12 9278   1.304   2.974   0.884 -0.3660  0.4329 -1.7361
  603THF    H13 9279   1.244   3.140   0.848 -0.0970  1.3369 -0.1738
  604THF     O1 9280   1.735   4.681   1.466  0.0991  0.1172 -0.2022
  604THF     C2 9281   1.701   4.554   1.418  0.7535  0.1135 -0.7270
  604THF     C3 9282   1.843   4.731   1.390  0.2221 -0.2260  0.6342
  604THF     H4 9283   1.604   4.563   1.368  1.1303  3.8829 -1.0820
  604THF     H5 9284   1.683   4.494   1.507  0.8181  0.1742 -0.6736
  604THF     H6 9285   1.813   4.766   1.291 -0.8350 -2.7307 -0.0197
  604THF     H7 9286   1.891   4.811   1.446 -0.4180 -1.3028  2.8624
  604THF     C8 9287   1.928   4.606   1.377  0.1389 -0.2822  0.0855
  604THF     C9 9288   1.817   4.504   1.336 -0.7167 -0.1978  0.1906
  604THF    H10 9289   1.975   4.580   1.472  1.0856  1.9009  0.2607
  604THF    H11 9290   2.009   4.610   1.305 -0.6384 -0.9356 -0.8511
  604THF    H12 9291   1.794   4.505   1.230 -2.7537 -1.7411  0.5491
  604THF    H13 9292   1.838   4.398   1.352 -0.2391  0.0542  1.4055
  605THF     O1 9293   0.809   3.075   0.450  0.1142 -0.0905  0.1706
  605THF     C2 9294   0.674   3.086   0.492  0.4227  0.6790  0.5297
  605THF     C3 9295   0.813   3.046   0.303 -0.0362 -0.1577 -0.4850
  605THF     H4 9296   0.654   3.136   0.587 -2.0538  0.1215  0.3750
  605THF     H5 9297   0.629   2.987   0.507  0.7454  0.4529  0.0262
  605THF     H6 9298   0.908   3.073   0.257  1.3151 -0.0577  2.1993
  605THF     H7 9299   0.782   2.943   0.285  1.1275 -0.5704 -0.2125
  605THF     C8 9300   0.699   3.146   0.258 -0.1507 -0.2963  0.5889
  605THF     C9 9301   0.598   3.154   0.376 -0.2951 -0.1496 -0.0035
  605THF    H10 9302   0.656   3.119   0.161 -0.8355  1.6717  0.2965
  605THF    H11 9303   0.727   3.249   0.236 -0.2503 -0.9656 -3.4198
  605THF    H12 9304   0.576   3.258   0.400 -0.0286 -0.0403 -0.2184
  605THF    H13 9305   0.500   3.107   0.365  0.7984 -2.8182  0.7982
  606THF     O1 9306   3.431   2.558   1.319  0.9318  0.1413  0.3436
  606THF     C2 9307   3.479   2.628   1.207 -0.0522 -0.0350  0.3875
  606THF     C3 9308   3.526   2.475   1.381  0.3617 -0.0666 -0.3323
  606THF     H4 9309   3.436   2.728   1.198 -0.3468  0.0663  2.4332
  606THF     H5 9310   3.454   2.568   1.119 -2.8631 -1.2817  1.9020
  606THF     H6 9311   3.502   2.456   1.485 -0.7047  0.3104 -0.4907
  606THF     H7 9312   3.526   2.381   1.325  1.8631  0.6008 -1.5366
  606THF     C8 9313   3.654   2.553   1.355  0.1545  0.0959 -1.1315
  606THF     C9 9314   3.627   2.639   1.235  0.2422 -0.2549 -0.1716
  606THF    H10 9315   3.739   2.487   1.338 -0.4494 -1.3382  1.0066
  606THF    H11 9316   3.678   2.606   1.447  0.0597 -0.7528 -0.6009
  606THF    H12 9317   3.656   2.743   1.250  0.8316 -0.2065 -1.5375
  606THF    H13 9318   3.682   2.602   1.149  2.0762  2.0664 -0.0764
  607THF     O1 9319   1.351   1.497   3.268 -0.6711  0.0543  0.0135
  607THF     C2 9320   1.339   1.484   3.130  0.3741  0.2760 -0.1786
  607THF     C3 9321   1.470   1.430   3.312 -1.2188 -0.2831 -0.3865
  607THF     H4 9322   1.271   1.561   3.091 -0.0586  0.1650  0.3446
  607THF     H5 9323   1.298   1.385   3.110  0.7577  0.1420 -0.3114
  607THF     H6 9324   1.519   1.501   3.379 -1.7496  1.5113 -1.8181
  607THF     H7 9325   1.442   1.343   3.371  1.0725 -0.0124  1.2590
  607THF     C8 9326   1.554   1.398   3.187  1.1605  0.2835  0.7958
  607THF     C9 9327   1.480   1.483   3.087 -0.2963 -0.4227 -0.3859
  607THF    H10 9328   1.554   1.294   3.156 -1.4239  0.1708  0.9917
  607THF    H11 9329   1.658   1.431   3.182  0.7721  1.3561 -1.3823
  607THF    H12 9330   1.504   1.589   3.088  0.3887 -0.5673 -0.8034
  607THF    H13 9331   1.485   1.440   2.987  0.9159  2.0494 -1.4769
  608THF     O1 9332   4.727   2.138   5.401 -0.6846 -0.0853 -0.6069
  608THF     C2 9333   4.762   2.249   5.489 -0.4534 -0.6375  0.1679
  608THF     C3 9334   4.805   2.143   5.281 -0.1535  1.2367  0.5134
  608THF     H4 9335   4.763   2.221   5.594 -1.0316 -0.9615  0.0927
  608THF     H5 9336   4.688   2.329   5.475  1.0000  0.4601 -1.6351
  608THF     H6 9337   4.848   2.044   5.263 -1.5139  0.4967  1.1424
  608THF     H7 9338   4.738   2.155   5.196  0.1446 -1.9122 -0.2867
  608THF     C8 9339   4.910   2.258   5.307  0.4437  0.2094 -0.0665
  608THF     C9 9340   4.908   2.296   5.454 -0.8689 -0.0699  0.0760
  608THF    H10 9341   4.866   2.346   5.259 -1.4686 -1.1639 -0.9833
  608THF    H11 9342   5.007   2.250   5.258 -0.3049  3.3430 -2.3905
  608THF    H12 9343   4.971   2.232   5.515 -1.1919  0.4030  0.9385
  608THF    H13 9344   4.909   2.404   5.470 -0.9322  0.1467 -1.3003
  609THF     O1 9345   1.883   2.559   3.685 -0.4019 -0.0732  0.7015
  609THF     C2 9346   1.965   2.482   3.766  0.5712 -0.4211 -0.2674
  609THF     C3 9347   1.800   2.646   3.768 -0.2035 -0.4173 -0.6325
  609THF     H4 9348   2.058   2.450   3.721 -0.2120 -0.5924 -1.8269
  609THF     H5 9349   1.903   2.411   3.821 -0.5098  1.5192  1.1380
  609THF     H6 9350   1.762   2.730   3.709 -0.0105  2.5119  3.0278
  609THF     H7 9351   1.717   2.589   3.810 -0.7851 -0.2691 -1.5379
  609THF     C8 9352   1.903   2.697   3.877 -0.1386 -0.3815 -0.4826
  609THF     C9 9353   2.006   2.579   3.878  0.4570  0.2598  0.3540
  609THF    H10 9354   1.851   2.708   3.972  0.5114  1.1285 -0.2921
  609THF    H11 9355   1.942   2.793   3.843  0.5880 -0.9076 -1.1800
  609THF    H12 9356   2.109   2.611   3.864  0.6201 -0.6038 -0.4902
  609THF    H13 9357   2.015   2.524   3.972  0.9188 -2.4172 -1.1726
  610THF     O1 9358   5.234   0.697   0.681  0.0669 -0.2065 -0.1383
  610THF     C2 9359   5.302   0.589   0.731 -0.2646  0.5181  0.2870
  610THF     C3 9360   5.160   0.648   0.566  0.2087 -0.9506 -1.0735
  610THF     H4 9361   5.348   0.610   0.828 -0.3129 -0.9405  0.6510
  610THF     H5 9362   5.383   0.553   0.667 -0.6957 -3.0271  1.5330
  610THF     H6 9363   5.086   0.720   0.531  0.8034 -0.1064 -0.6314
  610THF     H7 9364   5.230   0.638   0.483  0.6548  3.0400 -1.4130
  610THF     C8 9365   5.115   0.514   0.607  0.3578  0.1107 -0.3860
  610THF     C9 9366   5.193   0.479   0.732  0.4815 -0.3554 -0.0515
  610THF    H10 9367   5.135   0.446   0.524  1.7591  0.4421 -0.3535
  610THF    H11 9368   5.010   0.505   0.634  0.8070 -2.8590  0.8246
  610THF    H12 9369   5.149   0.484   0.832  0.7406 -2.5848  0.2426
  610THF    H13 9370   5.236   0.379   0.730 -0.0467 -0.5852 -0.2197
  611THF     O1 9371   4.555   2.400   1.798  0.0647 -0.0646  0.7312
  611THF     C2 9372   4.647   2.427   1.902 -0.1250 -0.3327  0.1180
  611THF     C3 9373   4.601   2.454   1.671  0.1318  0.7292 -1.1623
  611THF     H4 9374   4.728   2.355   1.897  1.2309  1.1291  0.1669
  611THF     H5 9375   4.594   2.438   1.997 -2.6613  2.2765 -1.4352
  611THF     H6 9376   4.644   2.376   1.608 -1.4452 -0.1403 -1.2112
  611THF     H7 9377   4.514   2.491   1.616 -0.9038  0.4407  0.2378
  611THF     C8 9378   4.713   2.551   1.708  0.9225  0.2926 -0.4546
  611THF     C9 9379   4.703   2.563   1.863  0.9677 -0.9365 -0.0702
  611THF    H10 9380   4.720   2.647   1.657  1.1902  0.5993  0.1405
  611THF    H11 9381   4.798   2.489   1.677 -0.3710 -1.1289 -1.2813
  611THF    H12 9382   4.796   2.598   1.908 -0.8309  1.5886  1.9605
  611THF    H13 9383   4.631   2.643   1.879  1.7012 -0.5859  1.7278
  612THF     O1 9384   0.961   4.804   3.423  0.3481 -0.2451 -0.9189
  612THF     C2 9385   0.954   4.668   3.424  0.5330  0.8393  0.2199
  612THF     C3 9386   0.856   4.870   3.355 -0.1051 -0.3405 -0.6302
  612THF     H4 9387   0.983   4.619   3.517  1.2557  0.8776  0.0225
  612THF     H5 9388   1.003   4.616   3.341 -1.1759 -1.7653  0.7178
  612THF     H6 9389   0.799   4.946   3.407 -1.0186 -0.1025 -1.9336
  612THF     H7 9390   0.903   4.918   3.269 -2.3571  2.4066 -0.4782
  612THF     C8 9391   0.764   4.749   3.313  0.6063  0.1778  0.0417
  612THF     C9 9392   0.807   4.638   3.399 -0.0070  0.3701 -0.8113
  612THF    H10 9393   0.777   4.731   3.206 -0.0081 -0.8363  0.1251
  612THF    H11 9394   0.661   4.782   3.320  0.2463 -0.6580 -1.0185
  612THF    H12 9395   0.761   4.644   3.498  0.9435  1.0417 -0.3909
  612THF    H13 9396   0.793   4.545   3.345  1.8761  0.8409 -2.2027
  613THF     O1 9397   4.877   2.861   0.086 -0.4199 -0.5485  0.0910
  613THF     C2 9398   4.792   2.749   0.081  0.2184  0.6104 -0.8011
  613THF     C3 9399   4.877   2.925   0.219  0.2899 -0.2804 -0.3134
  613THF     H4 9400   4.853   2.672   0.129  1.2642  0.5947 -2.0906
  613THF     H5 9401   4.773   2.718  -0.022 -4.6119 -0.2738  0.0926
  613THF     H6 9402   4.924   2.868   0.299 -4.0970 -1.0006  2.0989
  613THF     H7 9403   4.922   3.024   0.224  0.4674 -0.4070  0.7431
  613THF     C8 9404   4.725   2.931   0.243 -0.0204  0.5748  0.0074
  613THF     C9 9405   4.673   2.797   0.182 -0.1838  0.2541  0.1563
  613THF    H10 9406   4.679   3.016   0.193 -1.6417  0.5459  1.3605
  613THF    H11 9407   4.703   2.938   0.349 -0.9399 -2.0265  0.0648
  613THF    H12 9408   4.659   2.706   0.241  3.0951 -0.7262 -0.3234
  613THF    H13 9409   4.580   2.803   0.126  0.8742 -0.3015 -1.7745
  614THF     O1 9410   5.284   1.843   5.162 -0.0645 -0.2644 -0.7363
  614THF     C2 9411   5.163   1.788   5.115  0.6164 -0.1283 -0.4029
  614THF     C3 9412   5.392   1.755   5.126 -0.0844 -0.2116 -0.7105
  614THF     H4 9413   5.118   1.826   5.024  0.6163 -0.4889 -0.5545
  614THF     H5 9414   5.083   1.809   5.186  1.4827  1.6570  0.1026
  614THF     H6 9415   5.434   1.761   5.025  0.2879 -0.5991 -0.5831
  614THF     H7 9416   5.482   1.768   5.185 -0.7483 -0.7573  0.4642
  614THF     C8 9417   5.329   1.617   5.159  0.1275 -0.7822  0.2780
  614THF     C9 9418   5.194   1.636   5.097  1.0966 -0.4008  0.4779
  614THF    H10 9419   5.326   1.595   5.265  1.9392  1.2023  0.8046
  614THF    H11 9420   5.384   1.534   5.114  0.3068 -0.0329 -0.9551
  614THF    H12 9421   5.206   1.616   4.991  0.5391 -0.1146  0.3533
  614THF    H13 9422   5.111   1.574   5.133 -0.2844  1.2528  0.2967
  615THF     O1 9423   2.046   2.237   5.168  0.2004  0.5434 -0.5542
  615THF     C2 9424   2.115   2.114   5.138  0.4836 -0.1958 -0.0783
  615THF     C3 9425   1.960   2.208   5.276  0.8778 -0.1649 -0.0300
  615THF     H4 9426   2.203   2.119   5.075  1.0070  1.0544  0.7166
  615THF     H5 9427   2.044   2.065   5.071  0.8776  0.0297 -0.6665
  615THF     H6 9428   1.915   2.291   5.331  1.3266  0.2051 -0.2172
  615THF     H7 9429   1.875   2.149   5.240  0.7075  0.3143 -0.4214
  615THF     C8 9430   2.044   2.116   5.369  0.1352  0.0346  0.0376
  615THF     C9 9431   2.138   2.041   5.276  0.0290 -0.3870 -1.1680
  615THF    H10 9432   1.971   2.047   5.411  2.0772 -1.7216  0.6866
  615THF    H11 9433   2.077   2.167   5.459 -0.3588  2.1681 -0.9233
  615THF    H12 9434   2.238   2.060   5.317 -0.6069  0.1158  0.1935
  615THF    H13 9435   2.115   1.935   5.264 -2.0064 -0.1414  0.1817
  616THF     O1 9436   2.953   3.053   4.473 -0.4910 -0.8340  0.2283
  616THF     C2 9437   2.910   3.000   4.590  0.3141  0.4713  0.4467
  616THF     C3 9438   2.995   2.953   4.387 -0.6875  0.3825  0.1071
  616THF     H4 9439   2.802   2.996   4.609  0.3971 -4.7878  1.5225
  616THF     H5 9440   2.948   3.057   4.674  1.8837 -0.7860  0.6412
  616THF     H6 9441   2.904   2.929   4.331  0.1624  0.7617 -1.4947
  616THF     H7 9442   3.073   2.997   4.324 -1.5418  1.9976  0.1373
  616THF     C8 9443   3.046   2.837   4.473  0.0440 -0.3588 -0.2532
  616THF     C9 9444   2.949   2.849   4.594 -0.1004 -0.1961  0.4564
  616THF    H10 9445   3.145   2.866   4.507 -0.9922  1.4303  1.5151
  616THF    H11 9446   3.055   2.736   4.433 -1.0684 -1.0607  1.1589
  616THF    H12 9447   2.862   2.783   4.585 -0.0452 -0.0831 -1.0479
  616THF    H13 9448   2.987   2.825   4.693 -2.8311 -3.3021  0.9327
  617THF     O1 9449   0.650   0.194   0.476  0.1904 -0.2562  0.0081
  617THF     C2 9450   0.743   0.111   0.410 -0.0115 -0.2612  0.7830
  617THF     C3 9451   0.569   0.115   0.569  0.7696 -0.4997  0.5561
  617THF     H4 9452   0.844   0.149   0.425  0.4459  0.9813 -3.8727
  617THF     H5 9453   0.728   0.116   0.302  1.0578  1.2166  0.6695
  617THF     H6 9454   0.557   0.172   0.662 -1.0454  0.2873 -0.1003
  617THF     H7 9455   0.476   0.105   0.514 -1.2605  0.9941  3.3994
  617THF     C8 9456   0.646  -0.020   0.585 -0.3353  0.5115  0.3694
  617THF     C9 9457   0.719  -0.039   0.451 -0.0810 -0.6547 -1.0109
  617THF    H10 9458   0.577  -0.103   0.602  3.5222 -2.7372  1.5534
  617THF    H11 9459   0.711  -0.013   0.671  0.3300 -0.7533  0.0009
  617THF    H12 9460   0.816  -0.089   0.458  0.2556  0.1766  2.9906
  617THF    H13 9461   0.657  -0.085   0.375  0.5915  0.9710 -2.6277
  618THF     O1 9462   2.534   0.859   5.340 -0.2378 -0.6387 -0.2572
  618THF     C2 9463   2.591   0.991   5.354  0.1999 -0.3113 -0.1854
  618THF     C3 9464   2.392   0.881   5.329  0.2454 -0.5786  0.4388
  618THF     H4 9465   2.697   0.993   5.330  0.0060  0.6658 -0.9945
  618THF     H5 9466   2.573   1.027   5.455 -0.5250 -1.0921 -0.0213
  618THF     H6 9467   2.348   0.797   5.276  1.8431 -0.3586 -1.3594
  618THF     H7 9468   2.341   0.914   5.420 -0.6725 -0.8490  0.0293
  618THF     C8 9469   2.392   0.998   5.227 -0.7253 -0.0176 -0.1987
  618THF     C9 9470   2.510   1.085   5.257 -0.0077 -0.2527  0.1997
  618THF    H10 9471   2.299   1.051   5.245 -0.0209  0.4405  2.5028
  618THF    H11 9472   2.395   0.969   5.122  1.4040  1.1513 -0.5190
  618THF    H12 9473   2.559   1.113   5.163  0.5049  1.7610  0.9962
  618THF    H13 9474   2.493   1.183   5.302 -1.9954 -0.6562  0.3908
  619THF     O1 9475   0.816   4.710   4.938  0.5926 -0.0651 -0.0660
  619THF     C2 9476   0.692   4.767   4.982  0.2481 -0.5460  0.2670
  619THF     C3 9477   0.788   4.605   4.851  0.2558  0.2653 -0.1521
  619THF     H4 9478   0.639   4.823   4.904 -2.4856 -0.8953  1.7324
  619THF     H5 9479   0.718   4.830   5.066  0.3517  2.6159 -1.9636
  619THF     H6 9480   0.775   4.641   4.749  2.7111  2.6013  0.2449
  619THF     H7 9481   0.881   4.549   4.841 -0.0063 -0.4719  1.3138
  619THF     C8 9482   0.677   4.537   4.924  0.1172 -0.1189  0.3510
  619THF     C9 9483   0.619   4.646   5.016 -0.5187 -0.1956  0.2543
  619THF    H10 9484   0.710   4.447   4.977  1.2174 -0.1097 -0.3004
  619THF    H11 9485   0.611   4.520   4.839  1.2777 -0.8733 -0.4339
  619THF    H12 9486   0.510   4.650   5.018 -0.5043  0.1857  0.2115
  619THF    H13 9487   0.640   4.621   5.120  0.6205 -0.0973  0.0626
  620THF     O1 9488   0.204   1.806   5.476  0.6384 -0.5539  0.1836
  620THF     C2 9489   0.089   1.875   5.427 -0.2452 -0.2257 -0.4365
  620THF     C3 9490   0.236   1.842   5.615  0.0504 -0.0431  0.4811
  620THF     H4 9491  -0.001   1.816   5.442  0.4389 -1.0297  0.6707
  620THF     H5 9492   0.107   1.889   5.320 -1.1424  0.9876 -0.4608
  620THF     H6 9493   0.222   1.754   5.677  1.9424 -0.3431  0.5590
  620THF     H7 9494   0.342   1.869   5.607 -0.1563  1.2640  1.7477
  620THF     C8 9495   0.147   1.967   5.644 -0.9920 -0.4938 -0.5340
  620THF     C9 9496   0.109   2.010   5.501  0.1002  0.3484  1.1772
  620THF    H10 9497   0.195   2.045   5.703  0.4737 -1.4970 -0.3316
  620THF    H11 9498   0.053   1.960   5.698 -1.7595 -2.3783 -1.9901
  620THF    H12 9499   0.017   2.070   5.497 -0.2217 -0.1705  0.6893
  620THF    H13 9500   0.190   2.071   5.461  1.5166 -2.1350  0.0145
  621THF     O1 9501   4.217   1.955   3.694  0.0243 -0.2217 -0.2751
  621THF     C2 9502   4.223   2.077   3.763  0.2805 -0.3603 -0.4268
  621THF     C3 9503   4.120   1.877   3.766  0.2689  1.0392  0.1449
  621THF     H4 9504   4.219   2.168   3.703  0.4637 -1.3905 -2.0811
  621THF     H5 9505   4.325   2.080   3.800  0.6614 -1.8048 -1.2808
  621THF     H6 9506   4.024   1.879   3.714  1.0089  0.8826 -1.2578
  621THF     H7 9507   4.145   1.771   3.776  1.8097  1.3289 -0.5111
  621THF     C8 9508   4.111   1.934   3.913 -0.6774  0.0463  0.3348
  621THF     C9 9509   4.129   2.082   3.883  0.2489 -0.0125 -0.4164
  621THF    H10 9510   4.211   1.904   3.944 -0.0597  1.0121 -0.6347
  621THF    H11 9511   4.028   1.902   3.975 -1.6122 -1.3592 -1.5148
  621THF    H12 9512   4.038   2.134   3.854  0.6818 -1.0084 -3.9998
  621THF    H13 9513   4.177   2.141   3.961  0.2112  1.4300 -1.4522
  622THF     O1 9514   3.075   0.630   1.860  0.7001  0.3153 -0.0684
  622THF     C2 9515   3.003   0.679   1.968  0.2157 -0.3620 -0.4990
  622THF     C3 9516   3.213   0.614   1.896 -0.0973  0.0539  0.2097
  622THF     H4 9517   2.900   0.646   1.967 -0.0049  0.2795 -2.0819
  622THF     H5 9518   3.003   0.787   1.961 -2.5976 -0.3167 -0.7344
  622THF     H6 9519   3.230   0.506   1.904 -1.7356 -0.2659 -0.1406
  622THF     H7 9520   3.288   0.653   1.828  1.7821 -0.6906  1.7524
  622THF     C8 9521   3.221   0.671   2.035  0.0414 -0.1722 -0.1977
  622THF     C9 9522   3.081   0.639   2.094 -0.3281  0.9007  0.3940
  622THF    H10 9523   3.237   0.779   2.030 -1.1063 -0.0094 -0.6186
  622THF    H11 9524   3.308   0.629   2.085  1.6100 -0.2667 -2.7889
  622THF    H12 9525   3.062   0.536   2.122 -1.2743  1.3980  1.6850
  622THF    H13 9526   3.029   0.698   2.170 -2.1079  1.5976 -1.2870
  623THF     O1 9527   3.054   2.339   5.269 -0.2049 -0.1791  0.4985
  623THF     C2 9528   3.185   2.311   5.215  0.3261 -0.2591  0.7197
  623THF     C3 9529   3.053   2.463   5.342 -0.0752 -0.0644  0.0392
  623THF     H4 9530   3.199   2.353   5.116 -1.0874 -0.9547  0.1843
  623THF     H5 9531   3.210   2.205   5.209 -0.3213 -0.4240  0.7991
  623THF     H6 9532   2.967   2.524   5.313 -0.3384  0.1824  1.3013
  623THF     H7 9533   3.044   2.449   5.450  1.0807 -2.4919 -0.1180
  623THF     C8 9534   3.190   2.524   5.312 -0.3034  0.8118  0.2352
  623THF     C9 9535   3.272   2.400   5.291 -0.4380  0.0137 -0.4130
  623THF    H10 9536   3.244   2.581   5.387  2.1442 -2.5711  1.3019
  623THF    H11 9537   3.202   2.589   5.225 -2.0960  0.9669  0.0788
  623THF    H12 9538   3.368   2.425   5.245  1.0932 -0.6596  2.2408
  623THF    H13 9539   3.281   2.376   5.396 -2.2697  0.6867 -0.0668
  624THF     O1 9540   0.454   0.610   1.368  0.1990  0.0869  0.5044
  624THF     C2 9541   0.555   0.709   1.339 -0.2747  0.1762 -0.1416
  624THF     C3 9542   0.499   0.505   1.454  0.7659  0.9331  0.2570
  624THF     H4 9543   0.516   0.810   1.349  1.3348  0.8334 -0.1703
  624THF     H5 9544   0.597   0.701   1.239 -0.4686  0.3120 -0.2344
  624THF     H6 9545   0.423   0.453   1.512  1.8298 -0.8052  0.1651
  624THF     H7 9546   0.563   0.432   1.404 -1.7123 -0.2300 -1.4102
  624THF     C8 9547   0.593   0.589   1.537 -0.5142  0.2317  0.2181
  624THF     C9 9548   0.661   0.684   1.444  0.2445  0.5564  0.3817
  624THF    H10 9549   0.663   0.521   1.584  0.2337 -0.3389 -1.6240
  624THF    H11 9550   0.538   0.644   1.613 -0.9569 -0.5630  0.4909
  624THF    H12 9551   0.688   0.773   1.501  0.7999 -1.2277  3.1062
  624THF    H13 9552   0.758   0.660   1.401  0.8050  1.8417  0.8650
  625THF     O1 9553   2.817   4.033   3.714 -0.3302  0.3606 -0.1664
  625THF     C2 9554   2.741   4.127   3.648  0.3662  0.0412  0.2329
  625THF     C3 9555   2.778   4.022   3.850 -0.3538 -0.1637  0.1450
  625THF     H4 9556   2.740   4.098   3.543  0.6636 -0.3661  0.3420
  625THF     H5 9557   2.782   4.227   3.663 -0.9264  0.5689  0.3925
  625THF     H6 9558   2.769   3.918   3.880  0.4980 -0.4295 -0.4705
  625THF     H7 9559   2.856   4.069   3.910  1.2654 -1.2471 -1.0336
  625THF     C8 9560   2.642   4.094   3.863  0.1907 -0.1305  0.1989
  625THF     C9 9561   2.607   4.109   3.719  0.0779  0.0326  1.1118
  625THF    H10 9562   2.657   4.183   3.924 -0.0030 -2.0219  3.2203
  625THF    H11 9563   2.566   4.038   3.917 -2.8432  3.9050  0.5817
  625THF    H12 9564   2.570   4.011   3.688 -0.8073  0.4134  0.9348
  625THF    H13 9565   2.541   4.190   3.687 -0.4495 -0.7654  0.1075
  626THF     O1 9566   3.543   3.489   5.148  0.6952  0.4498 -0.0265
  626THF     C2 9567   3.509   3.411   5.031 -0.1867 -0.2176 -0.3678
  626THF     C3 9568   3.654   3.573   5.105 -0.1013 -0.1580  0.7694
  626THF     H4 9569   3.411   3.368   5.051 -0.4127  0.7092  0.6092
  626THF     H5 9570   3.572   3.324   5.013 -0.9797 -0.8559 -0.1103
  626THF     H6 9571   3.652   3.661   5.169  0.9200  2.1405 -2.1334
  626THF     H7 9572   3.753   3.533   5.130 -0.2090 -0.1567  1.2013
  626THF     C8 9573   3.621   3.612   4.952 -0.5012 -0.0080 -0.1249
  626THF     C9 9574   3.504   3.524   4.923  0.0869  0.0812 -0.0567
  626THF    H10 9575   3.707   3.586   4.890  1.7806  3.2342  1.3796
  626THF    H11 9576   3.601   3.717   4.935  1.5799  0.4314 -0.1367
  626THF    H12 9577   3.406   3.570   4.938 -1.9000 -4.3928  2.8980
  626THF    H13 9578   3.493   3.490   4.819  1.1879 -0.7789  0.0886
  627THF     O1 9579   1.099   2.177   4.942  0.0452 -0.2414  0.0481
  627THF     C2 9580   1.137   2.062   4.865 -0.4480  0.1215  0.3301
  627THF     C3 9581   0.961   2.199   4.918 -0.9060 -0.2096  0.3587
  627THF     H4 9582   1.099   1.973   4.914 -0.9944 -0.0793 -0.4361
  627THF     H5 9583   1.246   2.054   4.860 -0.5197 -0.7643 -0.1763
  627THF     H6 9584   0.910   2.123   4.978 -1.5948  1.5443  2.1044
  627THF     H7 9585   0.944   2.296   4.964 -3.8399  0.4520 -1.8633
  627THF     C8 9586   0.952   2.175   4.770 -0.1251 -0.2067  0.0062
  627THF     C9 9587   1.070   2.087   4.732  0.7873 -0.5342  0.0277
  627THF    H10 9588   0.959   2.271   4.720 -1.1066  0.8668  1.8045
  627THF    H11 9589   0.857   2.136   4.734 -1.9263  2.3896  1.5842
  627THF    H12 9590   1.042   1.992   4.686 -2.5130 -0.8423  2.3548
  627THF    H13 9591   1.136   2.137   4.661 -0.0400 -0.3343 -0.6206
  628THF     O1 9592   3.911   1.159   4.258 -0.2457 -0.0091  0.3714
  628THF     C2 9593   3.807   1.151   4.353  0.0532 -0.2904  1.3680
  628THF     C3 9594   4.028   1.194   4.328  0.1801 -0.1770  0.0376
  628THF     H4 9595   3.798   1.052   4.399  3.4821 -0.7633  1.2493
  628THF     H5 9596   3.717   1.169   4.295  0.2730 -4.5296 -0.6785
  628THF     H6 9597   4.065   1.118   4.396  4.2445  0.8740 -0.6872
  628THF     H7 9598   4.105   1.222   4.255 -1.6156  0.2333 -1.8046
  628THF     C8 9599   3.974   1.318   4.398  0.4270  0.2829  0.1415
  628THF     C9 9600   3.839   1.265   4.444 -0.6121  0.3232 -0.8692
  628THF    H10 9601   3.949   1.394   4.324 -1.0253  1.2450  1.5518
  628THF    H11 9602   4.042   1.366   4.468 -0.2558  0.2396  0.8470
  628THF    H12 9603   3.837   1.220   4.543  0.0517 -0.2300 -1.0993
  628THF    H13 9604   3.767   1.347   4.438 -0.5661  0.4400 -0.0075
  629THF     O1 9605   5.233   2.607   5.255 -0.1034 -0.2264  0.0480
  629THF     C2 9606   5.174   2.733   5.277  0.4930  0.1373 -0.0164
  629THF     C3 9607   5.148   2.522   5.329 -0.1275  0.4052 -0.1884
  629THF     H4 9608   5.083   2.739   5.218  0.5492  0.8101 -0.0502
  629THF     H5 9609   5.229   2.823   5.249  0.0052  0.2320 -0.6973
  629THF     H6 9610   5.044   2.528   5.294  0.0601  2.2642 -0.5295
  629THF     H7 9611   5.191   2.422   5.334 -1.1340 -0.0864 -0.8854
  629THF     C8 9612   5.153   2.591   5.465  0.0279  0.2323 -0.4116
  629THF     C9 9613   5.132   2.728   5.425 -0.6278  0.2173 -0.5689
  629THF    H10 9614   5.232   2.561   5.533  1.1541  1.1544 -1.2856
  629THF    H11 9615   5.068   2.552   5.522  0.6544  1.2265  1.2841
  629THF    H12 9616   5.035   2.772   5.443 -0.1539  1.8908 -1.8282
  629THF    H13 9617   5.187   2.796   5.490  0.1859  0.4830 -1.4987
  630THF     O1 9618   3.345   2.099   4.835  0.1657  0.9386 -0.7583
  630THF     C2 9619   3.337   2.213   4.748 -0.2118  0.1291 -0.7231
  630THF     C3 9620   3.255   2.003   4.788 -0.0389 -1.2863  0.7406
  630THF     H4 9621   3.375   2.194   4.647  0.7941 -1.5221 -0.0645
  630THF     H5 9622   3.384   2.302   4.790  0.7587 -0.6125 -0.1978
  630THF     H6 9623   3.288   1.940   4.705 -0.9880 -2.5438  1.2903
  630THF     H7 9624   3.241   1.946   4.880 -2.1270  0.9006  1.8783
  630THF     C8 9625   3.131   2.095   4.749  0.0740 -0.1661 -0.0314
  630THF     C9 9626   3.194   2.232   4.722  0.3061 -0.2482  0.1618
  630THF    H10 9627   3.044   2.101   4.815  0.0160  2.5845 -0.2164
  630THF    H11 9628   3.090   2.059   4.654  1.2389 -0.1445 -0.5619
  630THF    H12 9629   3.175   2.274   4.624  0.0184  0.6547  0.5913
  630THF    H13 9630   3.163   2.303   4.799 -1.0926 -0.3931 -0.2347
  631THF     O1 9631   0.936   4.300   2.862 -0.1885 -0.1968 -0.2228
  631THF     C2 9632   0.932   4.396   2.761 -0.4569 -0.0004 -0.0962
  631THF     C3 9633   0.934   4.375   2.985 -0.2719  0.0731  0.1139
  631THF     H4 9634   0.919   4.355   2.661 -1.6042  2.1849 -0.9242
  631THF     H5 9635   1.031   4.441   2.765  0.1934 -1.4825  1.2246
  631THF     H6 9636   0.902   4.299   3.057  2.6808 -0.1705  1.2828
  631THF     H7 9637   1.029   4.418   3.015 -0.6218  0.1018  1.2363
  631THF     C8 9638   0.839   4.496   2.959 -0.3387 -0.1002  1.2102
  631THF     C9 9639   0.823   4.496   2.806  0.0380  0.1551  0.2813
  631THF    H10 9640   0.896   4.586   2.985  1.8616 -1.3778  1.0332
  631THF    H11 9641   0.745   4.495   3.014 -1.4813  0.4122 -0.6632
  631THF    H12 9642   0.727   4.454   2.776 -0.2486  0.0528  1.2955
  631THF    H13 9643   0.832   4.591   2.754  0.9117 -0.7351 -1.2900
  632THF     O1 9644   0.024   0.593   4.707  0.4439 -0.1458  0.5772
  632THF     C2 9645   0.035   0.739   4.690 -0.6304 -0.1651 -0.5869
  632THF     C3 9646  -0.088   0.562   4.782 -0.5115  0.2810  0.2541
  632THF     H4 9647  -0.047   0.765   4.623 -1.3173  1.0408  0.6586
  632THF     H5 9648   0.129   0.784   4.658 -1.8157  3.3177  0.3931
  632THF     H6 9649  -0.182   0.559   4.726 -0.2050 -1.8655 -0.2259
  632THF     H7 9650  -0.084   0.466   4.833 -0.2161  1.0615  1.7421
  632THF     C8 9651  -0.088   0.676   4.883  0.5854 -0.0474 -0.5869
  632THF     C9 9652   0.003   0.782   4.832 -0.0066 -0.0624 -0.7989
  632THF    H10 9653  -0.055   0.635   4.978 -3.2000  1.0601  1.4230
  632THF    H11 9654  -0.188   0.716   4.900  0.8215  1.0573 -1.6565
  632THF    H12 9655  -0.049   0.877   4.842  1.6120  0.6824  1.3302
  632THF    H13 9656   0.089   0.786   4.899 -0.0013 -0.5841 -0.7690
  633THF     O1 9657   2.900   4.849   2.324  0.0816 -0.5561  0.6593
  633THF     C2 9658   2.772   4.862   2.391  0.2455  0.0677 -0.0683
  633THF     C3 9659   2.922   4.970   2.254 -0.0558  0.1785 -0.0964
  633THF     H4 9660   2.782   4.797   2.478  0.5636 -0.3463 -0.4115
  633THF     H5 9661   2.685   4.834   2.331  1.4916 -1.3615 -1.2917
  633THF     H6 9662   3.022   4.979   2.212  1.1477 -2.1034  1.9504
  633THF     H7 9663   2.861   4.970   2.164  1.2471  0.7988 -1.0138
  633THF     C8 9664   2.883   5.079   2.343 -0.0757 -0.4049  0.6810
  633THF     C9 9665   2.775   5.011   2.428  0.1484 -0.2448  1.2187
  633THF    H10 9666   2.851   5.174   2.299  3.8859  0.1700 -1.3980
  633THF    H11 9667   2.975   5.096   2.398  1.9743 -1.1424 -2.2672
  633THF    H12 9668   2.793   5.025   2.534 -0.8127 -1.0981  1.5155
  633THF    H13 9669   2.672   5.039   2.404  0.0062 -2.1273 -0.7656
  634THF     O1 9670   4.310   2.597   4.258  0.4022 -0.7194  0.0554
  634THF     C2 9671   4.429   2.624   4.183  0.3835  0.0951 -0.1392
  634THF     C3 9672   4.339   2.507   4.358 -0.5852  0.4050 -0.1286
  634THF     H4 9673   4.439   2.725   4.143 -1.6264  0.8679  1.1157
  634THF     H5 9674   4.447   2.556   4.100 -2.7064 -0.5956 -0.3728
  634THF     H6 9675   4.270   2.514   4.442  2.3210  0.1500  2.4670
  634THF     H7 9676   4.337   2.403   4.325 -1.0323  0.7825 -1.3556
  634THF     C8 9677   4.483   2.552   4.407  0.2475 -0.2416 -0.3356
  634THF     C9 9678   4.546   2.611   4.288  0.0896 -0.1131  0.0340
  634THF    H10 9679   4.541   2.472   4.454 -0.8954 -0.2263  1.1798
  634THF    H11 9680   4.474   2.630   4.483  1.2265 -1.1709  0.7767
  634THF    H12 9681   4.601   2.700   4.318 -1.3675  0.5572  0.8794
  634THF    H13 9682   4.627   2.548   4.252  1.4342  1.0293  0.9667
  635THF     O1 9683   4.662   3.570   3.851 -0.0897 -0.0633  0.1517
  635THF     C2 9684   4.553   3.579   3.951 -0.1629 -0.5444  0.5054
  635THF     C3 9685   4.637   3.665   3.750 -0.1214  0.2993  0.7491
  635THF     H4 9686   4.590   3.587   4.054 -0.4716 -0.9211  0.6456
  635THF     H5 9687   4.497   3.486   3.944  0.2210 -0.8108  0.9501
  635THF     H6 9688   4.682   3.759   3.782 -0.7275  0.4513  1.1811
  635THF     H7 9689   4.675   3.640   3.651  1.4570 -1.2604  1.6985
  635THF     C8 9690   4.480   3.686   3.742 -0.2759 -0.2468  0.0185
  635THF     C9 9691   4.450   3.674   3.892 -0.0186 -0.1133 -0.0267
  635THF    H10 9692   4.426   3.619   3.675  2.5916 -0.5127 -2.1732
  635THF    H11 9693   4.473   3.785   3.697  0.8527  0.5779  1.5521
  635THF    H12 9694   4.471   3.772   3.936  0.2498 -0.5465  0.8424
  635THF    H13 9695   4.348   3.647   3.919  0.3722  0.3473  2.1777
  636THF     O1 9696   4.493   5.004   2.350 -0.1737  0.7886  0.3822
  636THF     C2 9697   4.386   4.933   2.291  0.1154 -0.1727  0.0323
  636THF     C3 9698   4.594   4.912   2.381 -0.3983 -0.4110 -0.2155
  636THF     H4 9699   4.334   5.002   2.225 -2.8425 -1.5581  0.7538
  636THF     H5 9700   4.314   4.891   2.361  0.8657 -0.4287  0.6717
  636THF     H6 9701   4.687   4.967   2.395  0.5699 -2.3266  1.3750
  636THF     H7 9702   4.568   4.850   2.467 -0.3531 -0.2357 -0.0767
  636THF     C8 9703   4.605   4.822   2.260 -0.0670  0.3659  0.1790
  636THF     C9 9704   4.458   4.809   2.222 -0.4761 -0.1224  0.4052
  636THF    H10 9705   4.649   4.726   2.289  0.9851  0.8594  0.2539
  636THF    H11 9706   4.667   4.865   2.182 -0.2492  1.5857  0.6901
  636THF    H12 9707   4.449   4.802   2.114 -0.7388 -1.1931  0.4830
  636THF    H13 9708   4.410   4.724   2.270 -1.8114  2.2519  3.6470
  637THF     O1 9709   4.278   3.248   0.993 -0.5876  0.2451  0.4861
  637THF     C2 9710   4.328   3.121   0.995 -0.4332 -0.5260 -0.2484
  637THF     C3 9711   4.233   3.282   1.119  0.3972  0.0881  0.0471
  637THF     H4 9712   4.411   3.112   0.925  0.7412 -1.2192  1.1793
  637THF     H5 9713   4.253   3.045   0.972  1.8416 -2.5731 -1.3338
  637THF     H6 9714   4.212   3.389   1.123  0.3014  0.0378  1.4830
  637THF     H7 9715   4.136   3.236   1.139  0.6546 -1.2263 -1.5401
  637THF     C8 9716   4.342   3.230   1.213  0.0345  0.4972  0.1142
  637THF     C9 9717   4.395   3.114   1.134 -0.3580 -0.0349 -0.2335
  637THF    H10 9718   4.308   3.201   1.312  0.7146 -0.6844  0.0188
  637THF    H11 9719   4.426   3.299   1.223  1.2677 -0.5897 -2.1319
  637THF    H12 9720   4.502   3.122   1.117  0.0130 -1.6813  1.1260
  637THF    H13 9721   4.380   3.013   1.171  1.1638 -0.0731  0.3177
  638THF     O1 9722   0.011   4.533   2.130  0.3143  0.0300  0.3046
  638THF     C2 9723  -0.099   4.589   2.203  0.2772  0.2535 -0.0191
  638THF     C3 9724   0.119   4.625   2.145  0.6014  0.3548 -0.0492
  638THF     H4 9725  -0.096   4.550   2.304 -1.4930  1.9243  0.7338
  638THF     H5 9726  -0.189   4.552   2.154  1.8483 -3.0983 -0.6843
  638THF     H6 9727   0.169   4.622   2.242  0.2692 -0.6231  0.1086
  638THF     H7 9728   0.194   4.594   2.073  0.5769 -2.0587  0.8644
  638THF     C8 9729   0.064   4.757   2.139 -0.1728 -0.4996  0.5823
  638THF     C9 9730  -0.078   4.741   2.195  0.1658 -0.2234 -0.0277
  638THF    H10 9731   0.049   4.784   2.035 -0.3707 -2.0233  0.1827
  638THF    H11 9732   0.134   4.826   2.186 -0.6364  0.2934  0.1136
  638THF    H12 9733  -0.076   4.777   2.298 -3.2030  0.1958 -0.0239
  638THF    H13 9734  -0.150   4.795   2.133 -0.2014 -2.1719 -1.3947
  639THF     O1 9735   2.082   3.552   4.866  0.7217 -0.1468 -0.3430
  639THF     C2 9736   2.155   3.478   4.780 -0.6558 -0.4642 -0.4174
  639THF     C3 9737   1.976   3.465   4.906 -0.0531  0.3668 -0.5461
  639THF     H4 9738   2.247   3.534   4.761 -1.7533  1.0031 -1.6888
  639THF     H5 9739   2.106   3.468   4.683 -1.7174 -1.3677  0.1863
  639THF     H6 9740   1.946   3.492   5.007  0.8848  0.6047 -0.3208
  639THF     H7 9741   1.885   3.473   4.846 -0.1876  0.2689 -0.3557
  639THF     C8 9742   2.031   3.326   4.902 -0.4280  0.0202  0.3233
  639THF     C9 9743   2.170   3.347   4.844 -0.5704  0.7959 -0.0060
  639THF    H10 9744   1.976   3.259   4.835  0.2975 -0.4667  0.2087
  639THF    H11 9745   2.035   3.282   5.001  1.3032 -0.9258 -0.1334
  639THF    H12 9746   2.253   3.337   4.914  0.8797  1.2561 -1.5668
  639THF    H13 9747   2.196   3.284   4.758  2.8263  2.8261 -0.6600
  640THF     O1 9748   0.877   3.086   1.771 -0.0393  0.2160 -0.7711
  640THF     C2 9749   0.797   3.196   1.801 -0.0858 -0.1844 -0.0549
  640THF     C3 9750   0.944   3.061   1.893 -0.0240  0.1129 -0.1388
  640THF     H4 9751   0.705   3.165   1.850  1.5225 -1.9317  2.0570
  640THF     H5 9752   0.771   3.237   1.703  3.8845 -1.1352 -1.7144
  640THF     H6 9753   0.895   2.984   1.952 -0.1042 -1.2633 -1.9003
  640THF     H7 9754   1.043   3.024   1.866 -0.7267  0.5229 -3.9357
  640THF     C8 9755   0.955   3.190   1.970 -0.4633  0.0337 -0.7121
  640THF     C9 9756   0.880   3.293   1.879 -0.3368  0.4942  0.1489
  640THF    H10 9757   1.055   3.216   2.004 -1.1899  0.1396  1.5229
  640THF    H11 9758   0.896   3.192   2.062 -2.0807 -0.5785 -1.7087
  640THF    H12 9759   0.820   3.364   1.935 -0.3635  1.1683 -0.7214
  640THF    H13 9760   0.951   3.337   1.809 -0.5432 -0.7315 -0.8837
  641THF     O1 9761   5.078   0.377   4.692 -0.4093 -0.5111  0.0524
  641THF     C2 9762   5.150   0.364   4.563 -0.5488 -0.5363 -0.9260
  641THF     C3 9763   4.939   0.397   4.670 -0.0601 -0.2853 -0.4242
  641THF     H4 9764   5.197   0.266   4.559  2.8904  0.9117  0.3517
  641THF     H5 9765   5.234   0.430   4.543 -0.7549 -0.0521 -0.2152
  641THF     H6 9766   4.876   0.336   4.734  0.6124 -0.4567  0.0905
  641THF     H7 9767   4.931   0.504   4.686  3.6089  0.1769 -0.7564
  641THF     C8 9768   4.912   0.358   4.518  0.6253 -0.0970  0.1098
  641THF     C9 9769   5.048   0.396   4.459  0.2071  0.3070 -0.1075
  641THF    H10 9770   4.828   0.417   4.480  1.1241  1.8513  1.7949
  641THF    H11 9771   4.898   0.251   4.510 -2.1513  0.0976  1.2862
  641THF    H12 9772   5.083   0.345   4.370  1.7136 -0.3029  0.7954
  641THF    H13 9773   5.047   0.505   4.446 -0.5850  0.3643  0.3587
  642THF     O1 9774   4.769   0.457   0.309  0.2858 -0.7699 -0.5105
  642THF     C2 9775   4.765   0.575   0.391  0.1335  0.7629  0.1830
  642THF     C3 9776   4.740   0.504   0.182  0.1821 -0.4598  0.6501
  642THF     H4 9777   4.863   0.623   0.387 -0.3528  1.7054 -1.5588
  642THF     H5 9778   4.737   0.544   0.492 -1.1321 -1.2543 -0.7390
  642THF     H6 9779   4.828   0.554   0.142 -0.5547 -0.4631 -1.0497
  642THF     H7 9780   4.718   0.417   0.120  1.4953  0.4293 -1.1370
  642THF     C8 9781   4.624   0.611   0.202  0.2538  0.5353 -0.5837
  642THF     C9 9782   4.655   0.667   0.336 -0.2880 -0.3630 -0.6390
  642THF    H10 9783   4.534   0.550   0.206  0.6131  0.0630  1.2582
  642THF    H11 9784   4.601   0.680   0.120  0.2496  0.6860 -0.4573
  642THF    H12 9785   4.675   0.774   0.333  0.5791 -0.4889  0.0868
  642THF    H13 9786   4.564   0.651   0.395  0.4539 -1.2843  0.3022
  643THF     O1 9787   3.582   4.925   1.282  0.1204 -0.0212  0.1022
  643THF     C2 9788   3.566   4.836   1.392 -0.3072  0.3775 -0.3676
  643THF     C3 9789   3.468   5.016   1.263 -0.5784 -0.2187  0.1647
  643THF     H4 9790   3.660   4.807   1.438 -2.2107 -1.6698  2.5708
  643THF     H5 9791   3.506   4.759   1.344 -0.0173 -0.6945  0.9270
  643THF     H6 9792   3.483   5.122   1.239 -3.8967  0.4400  0.4825
  643THF     H7 9793   3.401   4.976   1.187  0.2399 -1.8926  0.2916
  643THF     C8 9794   3.388   4.999   1.398 -0.4383 -0.2770 -0.1737
  643THF     C9 9795   3.487   4.922   1.493  0.4852 -0.2762 -0.5203
  643THF    H10 9796   3.298   4.941   1.374 -1.0262  0.9223 -0.9514
  643THF    H11 9797   3.353   5.091   1.445 -0.0576 -0.5035  0.5663
  643THF    H12 9798   3.553   4.995   1.539  0.7670  0.1381 -1.5406
  643THF    H13 9799   3.429   4.858   1.559  2.3627  0.4163  1.9166
  644THF     O1 9800   5.244   0.092   4.976 -0.4608  0.6893  0.7259
  644THF     C2 9801   5.278  -0.034   4.915 -0.3132 -0.1481 -0.1437
  644THF     C3 9802   5.180   0.170   4.874  0.5075  0.4193  0.5055
  644THF     H4 9803   5.289  -0.108   4.994 -1.6518  1.1420  1.3425
  644THF     H5 9804   5.382  -0.036   4.882  0.6429  1.4287  2.3856
  644THF     H6 9805   5.149   0.267   4.912  0.6604  0.5963  0.1825
  644THF     H7 9806   5.250   0.188   4.792 -1.7417  0.0454 -1.6425
  644THF     C8 9807   5.082   0.060   4.822 -0.1773  0.3445 -0.1458
  644THF     C9 9808   5.170  -0.058   4.811 -0.4653  0.7280  0.5346
  644THF    H10 9809   5.036   0.085   4.726  1.2411  0.7294 -0.7398
  644THF    H11 9810   5.004   0.052   4.898 -0.7863 -0.4667 -0.8376
  644THF    H12 9811   5.114  -0.150   4.829 -1.6993  1.3038 -0.3185
  644THF    H13 9812   5.215  -0.063   4.712 -4.1130  0.1828 -1.2617
  645THF     O1 9813   2.521   2.949   0.447  0.7321  0.3627 -0.1757
  645THF     C2 9814   2.496   2.834   0.527  0.9916  0.1608  0.9588
  645THF     C3 9815   2.453   3.061   0.505 -0.9228 -0.6774 -0.7134
  645THF     H4 9816   2.565   2.750   0.513 -0.5478 -1.1016  0.6960
  645THF     H5 9817   2.396   2.797   0.505  1.5488 -0.6800 -0.2882
  645THF     H6 9818   2.504   3.151   0.472  0.5782 -1.2868 -0.1356
  645THF     H7 9819   2.352   3.076   0.467 -0.4130  0.2561 -1.7636
  645THF     C8 9820   2.457   3.032   0.653 -0.0008 -0.3749  1.0690
  645THF     C9 9821   2.507   2.887   0.666  0.6308 -0.2453  0.2016
  645THF    H10 9822   2.359   3.038   0.698  0.6514 -1.4674  2.7599
  645THF    H11 9823   2.527   3.100   0.701  2.1565 -1.6259 -0.1317
  645THF    H12 9824   2.612   2.886   0.696  0.1972 -0.0818  1.8370
  645THF    H13 9825   2.441   2.833   0.735  2.8325 -1.8078  1.1862
  646THF     O1 9826   5.349   2.526   0.887 -0.3036  0.7891 -0.3336
  646THF     C2 9827   5.279   2.629   0.941  0.1814  0.0356 -0.4038
  646THF     C3 9828   5.476   2.517   0.947 -0.0932  0.2224 -0.4267
  646THF     H4 9829   5.251   2.593   1.040 -0.5702  1.3222 -0.1216
  646THF     H5 9830   5.193   2.649   0.878 -1.0683  1.5101  1.6328
  646THF     H6 9831   5.464   2.483   1.050 -0.8218  1.0228 -0.2374
  646THF     H7 9832   5.549   2.450   0.902 -0.0647  0.2863 -0.4748
  646THF     C8 9833   5.511   2.667   0.927 -0.0373  0.1836  0.3308
  646THF     C9 9834   5.380   2.745   0.956  1.1183  0.7603  1.1275
  646THF    H10 9835   5.553   2.681   0.828 -1.7012  0.2899 -0.3990
  646THF    H11 9836   5.588   2.702   0.996 -1.5523 -0.0281  2.2436
  646THF    H12 9837   5.362   2.793   1.052  0.4312 -0.0660  1.4334
  646THF    H13 9838   5.359   2.815   0.875  0.7663 -1.5083 -0.8585
  647THF     O1 9839   3.072   0.441   4.236  0.5369 -0.0654  0.2072
  647THF     C2 9840   3.078   0.360   4.117 -0.0740 -0.2321 -0.4939
  647THF     C3 9841   3.198   0.504   4.258  0.3850 -0.2064  0.4882
  647THF     H4 9842   3.069   0.416   4.024 -2.2330  1.2385  0.5124
  647THF     H5 9843   2.997   0.288   4.129 -1.4534  1.4128  0.5933
  647THF     H6 9844   3.208   0.594   4.197 -0.0614  0.1595  0.9448
  647THF     H7 9845   3.201   0.533   4.363 -0.3110 -1.0521  0.7553
  647THF     C8 9846   3.295   0.394   4.207  0.3517 -0.0692 -0.2662
  647THF     C9 9847   3.217   0.289   4.132  0.3493 -0.4050 -0.3986
  647THF    H10 9848   3.344   0.349   4.293  0.0255 -0.9400 -0.5156
  647THF    H11 9849   3.362   0.454   4.145 -1.7908  0.1242 -2.6069
  647THF    H12 9850   3.268   0.277   4.037  0.8940  2.4288 -0.5327
  647THF    H13 9851   3.206   0.192   4.181 -2.2260  0.7136  1.5043
  648THF     O1 9852   0.832   0.874   5.485 -0.1503 -0.7310 -0.5670
  648THF     C2 9853   0.794   0.941   5.607  0.1567 -0.0451 -0.1792
  648THF     C3 9854   0.939   0.791   5.522  0.6563 -0.1829 -0.1647
  648THF     H4 9855   0.753   0.884   5.690  2.9611  0.0286  1.3908
  648THF     H5 9856   0.722   1.018   5.581  0.8052  0.6263 -0.0182
  648THF     H6 9857   0.914   0.707   5.586  2.1337  0.3890  1.2269
  648THF     H7 9858   0.997   0.751   5.439  0.4806 -1.7161  0.4117
  648THF     C8 9859   1.017   0.881   5.622  0.2235  0.7705 -0.1794
  648THF     C9 9860   0.932   0.992   5.659  0.4679 -0.6428  0.4162
  648THF    H10 9861   1.102   0.924   5.568  0.2068 -0.9666 -1.6723
  648THF    H11 9862   1.055   0.837   5.714 -1.1057  1.8334  0.9342
  648THF    H12 9863   0.929   1.019   5.765  3.1729 -1.2462  0.7330
  648THF    H13 9864   0.959   1.078   5.598 -0.4425 -0.0872  0.7812
  649THF     O1 9865   0.741   1.979   3.900  0.2533  0.3334 -0.0305
  649THF     C2 9866   0.652   1.899   3.975 -0.5949 -0.3857 -0.0474
  649THF     C3 9867   0.703   1.970   3.760  0.4949  0.1058 -0.0743
  649THF     H4 9868   0.604   1.962   4.049 -1.4932 -0.0471 -0.8981
  649THF     H5 9869   0.714   1.827   4.029 -0.4572  1.1422  1.9297
  649THF     H6 9870   0.643   2.061   3.758  2.2866  1.3267 -0.2898
  649THF     H7 9871   0.780   1.981   3.683 -2.5668  1.6940 -3.2226
  649THF     C8 9872   0.618   1.840   3.746 -0.0648 -0.4527  0.5722
  649THF     C9 9873   0.548   1.835   3.876 -0.2099 -0.0677 -0.5341
  649THF    H10 9874   0.674   1.748   3.733  1.7791  0.4967  1.4175
  649THF    H11 9875   0.554   1.834   3.658 -0.1116 -4.4330  0.7030
  649THF    H12 9876   0.465   1.902   3.855  0.8513  1.5323  0.1985
  649THF    H13 9877   0.513   1.735   3.901 -1.8793  0.9449  1.4798
  650THF     O1 9878   4.741   0.653   4.416 -0.3954 -0.2001 -0.2301
  650THF     C2 9879   4.686   0.643   4.279  0.2409 -0.5918  0.5532
  650THF     C3 9880   4.824   0.771   4.407  0.2349  0.6184  0.0423
  650THF     H4 9881   4.600   0.709   4.277 -0.0258 -0.9042 -2.2144
  650THF     H5 9882   4.653   0.540   4.268  0.2887 -0.6105  0.5839
  650THF     H6 9883   4.773   0.867   4.413  0.4821  0.7363  0.3153
  650THF     H7 9884   4.905   0.769   4.480  1.3181  0.2215 -1.1324
  650THF     C8 9885   4.892   0.749   4.269  0.3206 -0.5631 -0.0680
  650THF     C9 9886   4.788   0.691   4.183  0.7749  0.1449  0.6912
  650THF    H10 9887   4.979   0.687   4.287 -0.2816 -1.2568  0.5031
  650THF    H11 9888   4.925   0.847   4.235 -1.0377  0.1338  0.5289
  650THF    H12 9889   4.742   0.771   4.125 -3.5389 -2.5656 -0.1347
  650THF    H13 9890   4.844   0.623   4.119 -0.9858  1.2197 -2.1960
  651THF     O1 9891   2.617   2.532   4.370 -0.5453  0.3252  0.1447
  651THF     C2 9892   2.558   2.603   4.265  0.4866  0.1888 -0.0591
  651THF     C3 9893   2.619   2.625   4.478  0.3938  0.1232 -0.4461
  651THF     H4 9894   2.547   2.545   4.173 -0.3485 -1.5198  1.0679
  651THF     H5 9895   2.621   2.686   4.232 -1.2324  0.8648 -1.8442
  651THF     H6 9896   2.642   2.581   4.575  2.4461  2.7137  0.3459
  651THF     H7 9897   2.702   2.693   4.460  1.0441 -0.4625  0.2777
  651THF     C8 9898   2.486   2.703   4.475 -0.1244 -0.3374  0.7925
  651THF     C9 9899   2.433   2.660   4.339 -0.1427  0.7712  1.5906
  651THF    H10 9900   2.515   2.808   4.476  1.2834 -0.7135  1.1538
  651THF    H11 9901   2.425   2.675   4.560 -1.9483  0.3532 -0.2374
  651THF    H12 9902   2.364   2.576   4.339  0.2441  0.4375  0.4452
  651THF    H13 9903   2.390   2.739   4.278 -1.7269 -0.6279  0.8202
  652THF     O1 9904   0.246   3.372   3.089 -0.1795  1.2051  0.5889
  652THF     C2 9905   0.307   3.494   3.067 -0.8817  0.1265  0.0529
  652THF     C3 9906   0.339   3.284   3.160  0.4977 -0.1131 -0.0651
  652THF     H4 9907   0.232   3.566   3.036 -1.9854 -0.1972  1.8324
  652THF     H5 9908   0.375   3.485   2.982  1.7044  3.4242  1.5462
  652THF     H6 9909   0.298   3.201   3.216  0.2149 -0.4457 -0.7560
  652THF     H7 9910   0.407   3.237   3.088 -0.3093 -1.4799  0.0327
  652THF     C8 9911   0.401   3.386   3.250  0.0917 -0.0125 -0.5483
  652THF     C9 9912   0.377   3.528   3.197  0.2010  1.0509 -1.0457
  652THF    H10 9913   0.502   3.359   3.279  0.0936 -0.4684 -0.9585
  652THF    H11 9914   0.341   3.387   3.341 -0.9598 -0.1191 -1.2262
  652THF    H12 9915   0.312   3.581   3.267 -0.2778  0.6219 -1.1610
  652THF    H13 9916   0.471   3.582   3.188  0.8471 -0.0459 -1.0553
  653THF     O1 9917   4.910   3.650   0.857  0.1123  0.3232 -0.0994
  653THF     C2 9918   4.928   3.760   0.770 -0.3455 -0.1012 -0.0121
  653THF     C3 9919   4.929   3.531   0.772 -0.5088  0.3640 -0.1754
  653THF     H4 9920   5.025   3.768   0.722  0.4183 -2.9322  0.8916
  653THF     H5 9921   4.918   3.859   0.814  2.8725  1.6244 -2.6697
  653THF     H6 9922   5.033   3.508   0.753 -0.4956 -0.6834  1.0424
  653THF     H7 9923   4.896   3.443   0.827  0.4386  1.2580  1.9025
  653THF     C8 9924   4.853   3.567   0.636  0.1958  0.8300 -0.6823
  653THF     C9 9925   4.832   3.719   0.661  0.1377 -0.4595 -0.4572
  653THF    H10 9926   4.757   3.517   0.623  0.9313  0.0038 -3.7304
  653THF    H11 9927   4.913   3.553   0.545  2.3140 -1.3642  0.9327
  653THF    H12 9928   4.851   3.780   0.573 -0.2626  2.4525  1.3201
  653THF    H13 9929   4.734   3.757   0.691  1.0084  1.7157 -0.1563
  654THF     O1 9930   3.588   0.545   0.801 -0.0792 -0.3334  0.4596
  654THF     C2 9931   3.662   0.628   0.890  0.1404 -0.9975 -0.3114
  654THF     C3 9932   3.506   0.454   0.880 -0.3255 -0.0680  0.6342
  654THF     H4 9933   3.701   0.718   0.842  0.5785 -1.7822 -1.4588
  654THF     H5 9934   3.744   0.562   0.920  0.5675 -0.2582  0.1794
  654THF     H6 9935   3.421   0.426   0.818 -0.5437  0.5987  0.6191
  654THF     H7 9936   3.563   0.374   0.928 -0.4592 -0.1497  0.6556
  654THF     C8 9937   3.459   0.546   0.996 -0.2540  0.5227  0.4069
  654THF     C9 9938   3.560   0.661   1.003 -0.2977 -0.3874  0.3876
  654THF    H10 9939   3.484   0.479   1.078  1.5734  0.0722 -0.4769
  654THF    H11 9940   3.356   0.582   0.997  0.5225  3.0400 -0.9233
  654THF    H12 9941   3.512   0.757   0.986 -0.7604 -0.5388  0.8177
  654THF    H13 9942   3.601   0.663   1.104  1.3579  0.8203 -0.2763
  655THF     O1 9943   4.230   2.998   0.247  0.7950 -0.0042  0.9027
  655THF     C2 9944   4.256   3.090   0.146  0.6134 -0.5854  0.3420
  655THF     C3 9945   4.189   2.879   0.178 -0.4466  0.3996 -0.0996
  655THF     H4 9946   4.321   3.169   0.184  0.9132  0.1477 -1.5824
  655THF     H5 9947   4.167   3.131   0.099  0.9278 -0.9289 -0.5746
  655THF     H6 9948   4.175   2.788   0.237 -0.0026  0.0476 -0.5216
  655THF     H7 9949   4.093   2.904   0.133  0.4581 -0.1567 -2.5124
  655THF     C8 9950   4.282   2.868   0.062  0.8779  0.2480 -0.5301
  655THF     C9 9951   4.328   3.013   0.038  0.6446  0.2519  0.4965
  655THF    H10 9952   4.239   2.829  -0.031 -0.3566  1.2128 -0.3834
  655THF    H11 9953   4.366   2.802   0.085 -0.3012 -1.1412 -0.0636
  655THF    H12 9954   4.437   3.022   0.040  0.7531  0.0360 -1.9016
  655THF    H13 9955   4.298   3.045  -0.062 -0.4064 -0.1791  0.6586
  656THF     O1 9956   3.764   2.581   4.047  0.0687 -0.1429  0.5623
  656THF     C2 9957   3.757   2.518   4.174 -0.4300 -0.0831 -0.2466
  656THF     C3 9958   3.824   2.711   4.067 -0.4691 -0.2593 -0.4327
  656THF     H4 9959   3.755   2.410   4.160  0.6640  0.0441 -1.6458
  656THF     H5 9960   3.679   2.555   4.240  0.1230  1.4638 -0.4132
  656THF     H6 9961   3.850   2.760   3.974 -0.3517  1.1607  0.3217
  656THF     H7 9962   3.759   2.785   4.114  0.5394  1.4979 -1.7268
  656THF     C8 9963   3.946   2.670   4.147 -0.4127  0.1431  0.3993
  656THF     C9 9964   3.896   2.549   4.233 -0.3145 -0.0532  0.2163
  656THF    H10 9965   3.991   2.756   4.196 -0.4491 -0.4187  1.4552
  656THF    H11 9966   4.019   2.624   4.081 -0.9439  0.9019 -0.7566
  656THF    H12 9967   3.966   2.466   4.227 -0.9565 -0.5776 -0.1028
  656THF    H13 9968   3.895   2.575   4.339  0.9354 -1.0924  0.5126
  657THF     O1 9969   1.403   5.320   3.028  0.2929  0.2209 -0.4973
  657THF     C2 9970   1.331   5.413   2.942 -0.0761 -0.3611  0.2342
  657THF     C3 9971   1.541   5.350   3.028  0.3779 -0.2336 -0.7645
  657THF     H4 9972   1.267   5.479   3.000  0.3401  1.0063 -0.7876
  657THF     H5 9973   1.261   5.367   2.872 -0.5601  1.2361 -0.3737
  657THF     H6 9974   1.566   5.378   3.130 -0.2925 -1.4776 -0.2388
  657THF     H7 9975   1.601   5.263   3.000 -0.2684 -0.1919 -2.4127
  657THF     C8 9976   1.576   5.467   2.938  0.1250  0.3541  0.1646
  657THF     C9 9977   1.443   5.478   2.860  0.1526 -1.1334 -0.2115
  657THF    H10 9978   1.664   5.445   2.878 -0.4225 -0.5459 -0.3336
  657THF    H11 9979   1.586   5.557   2.999  1.6458  1.0613 -1.0433
  657THF    H12 9980   1.436   5.584   2.837 -1.5703 -1.6566 -2.4972
  657THF    H13 9981   1.454   5.430   2.762  0.0895  0.4345 -1.0128
  658THF     O1 9982   1.710   3.676   4.027  0.3440  0.5296 -0.1946
  658THF     C2 9983   1.707   3.696   4.164  0.0294 -0.3255  0.0094
  658THF     C3 9984   1.833   3.613   3.993  0.2736  0.0530  0.2314
  658THF     H4 9985   1.604   3.719   4.192 -0.5165 -3.2027  0.6921
  658THF     H5 9986   1.774   3.781   4.176 -0.8613  0.5329 -0.9711
  658THF     H6 9987   1.814   3.546   3.909 -1.1297 -0.0602  0.6051
  658THF     H7 9988   1.916   3.680   3.973 -0.6926  1.4830  0.8664
  658THF     C8 9989   1.862   3.532   4.120 -0.6385 -0.0867 -0.5110
  658THF     C9 9990   1.772   3.572   4.226 -0.1266 -0.2268 -0.5017
  658THF    H10 9991   1.964   3.561   4.147  0.0606 -1.5093 -1.5283
  658THF    H11 9992   1.865   3.427   4.093 -1.4054 -0.2943  0.1636
  658THF    H12 9993   1.710   3.482   4.221  0.0743 -0.2997 -3.5045
  658THF    H13 9994   1.805   3.591   4.329 -3.2733  0.8449  0.4339
  659THF     O1 9995   3.454   3.093   4.808  0.1541 -0.1935 -0.3230
  659THF     C2 9996   3.329   3.074   4.738 -0.1213  0.1054  0.0844
  659THF     C3 9997   3.460   3.008   4.922  0.1588  0.0586 -0.6657
  659THF     H4 9998   3.349   3.088   4.632  1.2632  1.1550  0.4483
  659THF     H5 9999   3.265   3.155   4.773  0.2970  0.7593 -0.6233
  659THF     H610000   3.563   2.983   4.944  0.6678  1.3882 -1.4280
  659THF     H710001   3.419   3.054   5.013  2.0606 -0.7290  0.6433
  659THF     C810002   3.381   2.889   4.876 -0.1740 -0.5426  0.4585
  659THF     C910003   3.274   2.947   4.788 -0.0271 -0.4057 -0.0842
  659THF    H1010004   3.341   2.824   4.954  0.2347 -2.6883 -1.0230
  659THF    H1110005   3.435   2.817   4.816 -2.0198 -1.8958  0.3205
  659THF    H1210006   3.251   2.878   4.707 -2.9955  1.9386 -1.4342
  659THF    H1310007   3.181   2.972   4.839 -0.5194  2.0682 -2.0014
  660THF     O110008   2.752   0.370   2.839  0.9754 -0.1206  0.0768
  660THF     C210009   2.718   0.242   2.879 -0.4824  0.9552 -0.2996
  660THF     C310010   2.828   0.431   2.937  0.1225 -0.3632  0.8326
  660THF     H410011   2.672   0.177   2.804  1.9789 -1.9180  0.4921
  660THF     H510012   2.647   0.244   2.962  3.2203 -0.2024  3.1827
  660THF     H610013   2.854   0.533   2.909  2.5776 -0.7950  1.2818
  660THF     H710014   2.757   0.441   3.019  0.0512 -0.3137  0.7653
  660THF     C810015   2.934   0.320   2.962  0.5055  0.1530  0.6402
  660THF     C910016   2.860   0.198   2.919 -0.0284  0.0838 -0.5935
  660THF    H1010017   2.963   0.319   3.067  1.0975 -0.0433  0.4774
  660THF    H1110018   3.020   0.338   2.898 -1.0811  2.7858 -0.9360
  660THF    H1210019   2.907   0.154   2.830  1.2022  0.8386 -0.3361
  660THF    H1310020   2.875   0.126   2.999  0.1552 -1.1392 -1.6841
  661THF     O110021   0.499   4.870   1.588  0.0054 -0.4883 -0.0281
  661THF     C210022   0.592   4.767   1.554  0.3835  0.1507 -0.2081
  661THF     C310023   0.381   4.802   1.620  0.4743 -0.4695  0.0132
  661THF     H410024   0.692   4.808   1.539  1.7211 -1.6452  2.8730
  661THF     H510025   0.560   4.710   1.467  0.3936  1.2924 -0.9783
  661THF     H610026   0.324   4.878   1.675  0.7776 -0.2303 -0.0006
  661THF     H710027   0.322   4.776   1.532 -0.4782  2.0738 -0.1930
  661THF     C810028   0.438   4.693   1.711  1.1187  0.0319 -0.9427
  661THF     C910029   0.589   4.684   1.679  0.2324 -0.1547  0.6646
  661THF    H1010030   0.393   4.595   1.697  1.0576 -0.5747  2.6696
  661THF    H1110031   0.428   4.715   1.817 -0.1983  0.7828 -1.1909
  661THF    H1210032   0.644   4.727   1.763  0.8280  1.9797 -0.7348
  661THF    H1310033   0.622   4.581   1.670  1.4230  0.1242  1.5515
  662THF     O110034   0.124   1.734   2.233  0.3366 -0.1193  0.0043
  662THF     C210035   0.044   1.807   2.142 -0.6483 -0.4766  0.4351
  662THF     C310036   0.091   1.600   2.195 -0.1140 -0.4262  0.7144
  662THF     H410037   0.064   1.914   2.152 -1.3292 -0.5306  3.5380
  662THF     H510038  -0.058   1.786   2.173  0.1166 -2.7623  1.6616
  662THF     H610039   0.167   1.535   2.239  1.6130 -0.0014 -1.4607
  662THF     H710040  -0.011   1.572   2.219 -0.4888 -0.0708 -0.3919
  662THF     C810041   0.103   1.598   2.042 -0.1107 -0.6834  0.6339
  662THF     C910042   0.079   1.743   2.003  0.4017 -0.0787  0.1623
  662THF    H1010043   0.043   1.523   1.990  2.1384 -1.2071 -1.4190
  662THF    H1110044   0.200   1.572   1.999 -0.6267 -0.3533 -0.7661
  662THF    H1210045   0.162   1.787   1.950 -0.2937 -1.1083 -1.8790
  662THF    H1310046  -0.008   1.746   1.937  1.2087 -0.0902 -0.9209
  663THF     O110047   2.361   2.171   2.154  0.0710  0.1941 -0.3201
  663THF     C210048   2.324   2.041   2.128 -0.3718 -0.2999 -0.4594
  663THF     C310049   2.317   2.206   2.284 -0.0840  0.0982  0.3612
  663THF     H410050   2.392   1.964   2.164 -0.6171 -0.4515 -0.3189
  663THF     H510051   2.312   2.014   2.023  1.5670 -0.7292 -0.5944
  663THF     H610052   2.378   2.154   2.358 -0.4694 -1.9387 -0.6712
  663THF     H710053   2.323   2.312   2.310 -1.4976  0.2089  0.3420
  663THF     C810054   2.174   2.166   2.277  0.0409 -0.7505 -0.8043
  663THF     C910055   2.188   2.038   2.196  0.1837  0.0915 -0.1861
  663THF    H1010056   2.120   2.240   2.218  1.0194  1.3578  0.7776
  663THF    H1110057   2.133   2.168   2.379  0.7892 -1.7282 -0.4729
  663THF    H1210058   2.191   1.953   2.265  1.5513 -2.2741 -2.9320
  663THF    H1310059   2.107   2.020   2.125  1.8683 -3.0785 -1.5314
  664THF     O110060   1.223   3.512   4.444  0.0333  0.0984  0.2988
  664THF     C210061   1.245   3.590   4.560 -0.3097 -0.2855  0.0169
  664THF     C310062   1.286   3.591   4.336  0.2166  0.5153 -0.1931
  664THF     H410063   1.335   3.561   4.612 -0.9311 -1.8356  0.2753
  664THF     H510064   1.165   3.557   4.626 -0.9847  0.7130 -0.2726
  664THF     H610065   1.392   3.579   4.361 -0.2112  1.6928  2.5537
  664THF     H710066   1.269   3.552   4.236 -0.1755  2.0146 -0.7317
  664THF     C810067   1.235   3.724   4.367 -0.4430  0.5590 -0.3603
  664THF     C910068   1.261   3.739   4.519  0.0418 -0.4670 -0.0148
  664THF    H1010069   1.128   3.725   4.347 -0.9498 -0.3597  1.9306
  664THF    H1110070   1.294   3.805   4.324  0.0225 -0.5999 -1.9533
  664THF    H1210071   1.358   3.786   4.532  0.2985 -0.9067 -0.3011
  664THF    H1310072   1.184   3.808   4.551  1.6964  1.5715 -0.2554
  665THF     O110073   4.496   4.779   4.366 -0.7034 -0.6742 -0.4410
  665THF     C210074   4.584   4.856   4.280 -0.2873  0.4603 -0.6153
  665THF     C310075   4.569   4.777   4.495  0.4785  0.1451  0.0557
  665THF     H410076   4.582   4.962   4.304  0.2670  0.4262 -0.4024
  665THF     H510077   4.559   4.831   4.177 -1.7539 -0.8831  0.0101
  665THF     H610078   4.560   4.874   4.543  1.3977 -0.4598  1.5103
  665THF     H710079   4.523   4.701   4.558 -0.4119 -1.0099 -1.8768
  665THF     C810080   4.718   4.756   4.461  0.7011 -0.1273 -0.2381
  665THF     C910081   4.726   4.801   4.319  0.7377 -0.0273  0.0748
  665THF    H1010082   4.750   4.654   4.480 -0.4945 -0.3440  0.7862
  665THF    H1110083   4.776   4.820   4.527  1.2078 -0.4524 -0.3660
  665THF    H1210084   4.801   4.879   4.305  0.6769 -0.0455 -0.3825
  665THF    H1310085   4.751   4.715   4.258 -0.5136 -1.8317  1.9706
  666THF     O110086   3.760   3.032   0.274  0.4611 -0.4075 -0.4337
  666THF     C210087   3.793   2.925   0.183  0.3245  0.1417  0.3561
  666THF     C310088   3.683   2.970   0.366 -0.5242 -0.4740 -0.3905
  666THF     H410089   3.858   2.850   0.228 -0.1908 -0.6830 -0.2286
  666THF     H510090   3.837   2.977   0.098 -0.6523  2.0162  0.9474
  666THF     H610091   3.751   2.915   0.431 -0.2701  2.2364  1.8066
  666THF     H710092   3.639   3.055   0.419 -0.7551 -0.0390 -1.2618
  666THF     C810093   3.582   2.880   0.294 -0.1441 -0.3187 -0.7731
  666THF     C910094   3.645   2.886   0.152  0.8034 -0.0056  0.0832
  666THF    H1010095   3.477   2.909   0.297 -0.5897 -1.6546 -2.0370
  666THF    H1110096   3.577   2.779   0.332 -0.2317 -0.1720 -0.3957
  666THF    H1210097   3.635   2.797   0.090  3.7624 -0.6443  0.3624
  666THF    H1310098   3.614   2.963   0.082 -0.5102 -0.7112 -0.1445
  667THF     O110099   3.815   2.878   4.444 -0.2406 -0.5094  0.2121
  667THF     C210100   3.689   2.814   4.432  0.5227 -0.5941 -0.2819
  667THF     C310101   3.823   2.937   4.573 -0.2350 -0.1545 -0.0584
  667THF     H410102   3.686   2.724   4.369 -1.7399 -0.0857 -1.0114
  667THF     H510103   3.625   2.888   4.383  2.5607  1.5446  0.1254
  667THF     H610104   3.908   2.882   4.613 -0.3873  0.0156  0.5135
  667THF     H710105   3.839   3.044   4.558 -3.1388  0.4877  0.7923
  667THF     C810106   3.683   2.920   4.639  0.1400 -0.0125  0.1351
  667THF     C910107   3.629   2.795   4.570  0.5035 -0.3010  0.6031
  667THF    H1010108   3.613   2.999   4.612 -0.4533 -0.4002  0.5150
  667THF    H1110109   3.691   2.904   4.747 -0.3522 -0.6115  0.0897
  667THF    H1210110   3.656   2.705   4.626 -0.5124 -0.2682  1.1777
  667THF    H1310111   3.521   2.808   4.560  0.8639  1.6651 -1.6243
  668THF     O110112   3.039   3.052   1.961  0.2182  0.3158  0.0502
  668THF     C210113   3.113   3.146   1.888  0.5289  0.7955 -0.2398
  668THF     C310114   3.067   3.060   2.097  0.4665  0.6456 -0.8845
  668THF     H410115   3.069   3.164   1.790 -1.8778 -0.1654  0.5927
  668THF     H510116   3.211   3.101   1.870 -0.4199 -1.2292 -0.6493
  668THF     H610117   2.977   3.028   2.149 -0.5087 -1.8174 -3.7843
  668THF     H710118   3.156   3.001   2.119  0.3699  0.3618 -1.2468
  668THF     C810119   3.091   3.207   2.126 -0.4466 -0.1261  0.1593
  668THF     C910120   3.111   3.270   1.984 -0.0904  0.6963  0.3402
  668THF    H1010121   3.187   3.214   2.178  0.3877 -1.8044 -1.0705
  668THF    H1110122   3.021   3.260   2.190 -1.2258  0.9180 -1.4860
  668THF    H1210123   3.022   3.325   1.953 -0.0776 -0.2669 -1.5575
  668THF    H1310124   3.204   3.322   1.960  0.4263 -0.5245 -0.4653
  669THF     O110125   0.464   0.256   2.634 -0.0135  0.2698 -0.3100
  669THF     C210126   0.320   0.266   2.617 -0.1699  0.0225 -0.3921
  669THF     C310127   0.514   0.363   2.552  0.7902 -0.4182  0.4193
  669THF     H410128   0.253   0.217   2.686 -0.7746  0.9484 -0.2992
  669THF     H510129   0.295   0.216   2.523 -0.8119  0.0051 -0.2096
  669THF     H610130   0.614   0.394   2.581  0.9212 -0.6701  0.2361
  669THF     H710131   0.517   0.329   2.449 -1.0152 -0.3772  0.3123
  669THF     C810132   0.420   0.482   2.569 -0.0674 -0.2489  0.1794
  669THF     C910133   0.294   0.416   2.624  0.5287  0.0451  0.4306
  669THF    H1010134   0.398   0.518   2.468  2.0367 -1.3975 -0.7409
  669THF    H1110135   0.454   0.567   2.628 -0.3834 -1.2622  1.8992
  669THF    H1210136   0.275   0.441   2.728 -0.3867  0.7766  0.1005
  669THF    H1310137   0.207   0.438   2.561  0.7937  0.2367  0.1275
  670THF     O110138   3.915   3.554   2.044  0.7529  0.0119  0.2429
  670THF     C210139   3.890   3.668   1.962  0.0895  0.9321 -0.6797
  670THF     C310140   3.806   3.457   2.039 -0.8759  0.1552 -0.2781
  670THF     H410141   3.954   3.658   1.874  0.6187 -0.5772 -0.1574
  670THF     H510142   3.916   3.751   2.028 -0.8571  0.2966  0.5418
  670THF     H610143   3.810   3.398   1.947 -0.0620 -0.9774  0.4468
  670THF     H710144   3.794   3.394   2.127 -0.8659 -2.3558 -1.9646
  670THF     C810145   3.693   3.547   2.028  0.0546 -0.5879 -0.9498
  670THF     C910146   3.741   3.645   1.923 -0.5322 -0.1686 -0.4326
  670THF    H1010147   3.694   3.598   2.125 -1.0567 -1.9991 -0.1663
  670THF    H1110148   3.592   3.507   2.021 -0.3355 -0.3180  1.7720
  670THF    H1210149   3.742   3.604   1.822  2.1138 -1.9442  0.2219
  670THF    H1310150   3.679   3.735   1.917 -0.1856  0.0684 -0.4989
  671THF     O110151   1.123   4.096   0.821 -0.0627  0.5887  0.5407
  671THF     C210152   1.025   4.138   0.914 -0.6403 -0.4160  0.3563
  671THF     C310153   1.246   4.152   0.852  0.2345  0.1812  0.6522
  671THF     H410154   0.955   4.057   0.937  0.8439 -1.1658  2.5394
  671THF     H510155   0.972   4.224   0.872 -2.0633 -1.9405 -1.1236
  671THF     H610156   1.321   4.093   0.799 -0.5733  0.2621 -0.6371
  671THF     H710157   1.251   4.259   0.830  1.7987 -0.0067 -0.0124
  671THF     C810158   1.254   4.122   0.993 -0.7757 -0.2877  0.1943
  671THF     C910159   1.111   4.168   1.037  0.0340 -0.1937 -0.3176
  671THF    H1010160   1.335   4.178   1.039 -0.4614 -0.9623  0.4739
  671THF    H1110161   1.267   4.016   1.014 -3.1074 -0.4348  1.2092
  671THF    H1210162   1.080   4.115   1.127 -0.9770  1.0718  0.1124
  671THF    H1310163   1.116   4.276   1.051 -1.0769 -0.0093 -1.2162
  672THF     O110164   5.121   0.348   3.799  0.0181  0.1241 -0.2782
  672THF     C210165   5.240   0.345   3.720 -0.2633  0.1700 -0.1954
  672THF     C310166   5.147   0.264   3.915 -0.1195  0.0688 -0.4641
  672THF     H410167   5.301   0.412   3.781 -0.9255  2.9175 -2.3464
  672THF     H510168   5.228   0.381   3.618 -0.0321 -0.4373 -0.4390
  672THF     H610169   5.217   0.301   3.990 -1.8898 -0.1530  1.3826
  672THF     H710170   5.056   0.238   3.968 -0.1651 -0.4425 -0.7905
  672THF     C810171   5.203   0.147   3.842 -0.5957  0.3358 -0.1804
  672THF     C910172   5.302   0.214   3.738  0.1327  0.2192 -0.3340
  672THF    H1010173   5.130   0.093   3.782 -0.2810 -0.4817  0.1715
  672THF    H1110174   5.270   0.073   3.885 -0.2294 -1.5309 -3.5704
  672THF    H1210175   5.401   0.201   3.782 -0.3159 -0.9180  0.4004
  672THF    H1310176   5.305   0.162   3.642  0.3447 -1.3404  0.4771
  673THF     O110177   0.100   2.487   0.348 -0.2806 -0.2025 -0.1703
  673THF     C210178   0.060   2.349   0.341  0.5153 -0.0949 -0.7512
  673THF     C310179  -0.001   2.555   0.420  0.5179  0.4478 -0.0205
  673THF     H410180   0.142   2.282   0.369  1.8871  1.5269 -0.7120
  673THF     H510181   0.035   2.318   0.240  1.3578  0.8415 -1.2684
  673THF     H610182   0.036   2.648   0.462 -0.6157  0.6689  0.5087
  673THF     H710183  -0.086   2.580   0.357  0.1929 -1.5987 -0.4625
  673THF     C810184  -0.055   2.455   0.520  0.4818  0.4340  0.9758
  673THF     C910185  -0.061   2.328   0.435 -0.0374 -0.5141 -0.0509
  673THF    H1010186  -0.153   2.478   0.563 -1.2671 -2.1097 -1.3497
  673THF    H1110187   0.005   2.446   0.610  0.4719  1.1819  1.0687
  673THF    H1210188  -0.046   2.247   0.505 -0.1817  0.8233  1.5971
  673THF    H1310189  -0.155   2.309   0.384 -0.7807 -1.6370  1.6700
  674THF     O110190   3.127   5.490   4.528  0.3800 -0.4721  0.6212
  674THF     C210191   2.995   5.460   4.496  0.4188 -0.1597  0.2977
  674THF     C310192   3.140   5.633   4.528 -0.3269 -0.2678  0.6251
  674THF     H410193   2.965   5.374   4.557  2.9442 -0.5398  1.1001
  674THF     H510194   2.993   5.432   4.391  2.1931  0.3590  0.0964
  674THF     H610195   3.223   5.670   4.587 -0.0603 -0.1446  0.1738
  674THF     H710196   3.155   5.676   4.429 -0.3803 -1.9437 -0.1519
  674THF     C810197   3.010   5.681   4.589 -0.4054  0.0124 -0.3562
  674THF     C910198   2.909   5.583   4.521 -0.2557 -0.0939  0.7573
  674THF    H1010199   2.998   5.786   4.563  0.8004 -0.0634 -1.3478
  674THF    H1110200   3.011   5.661   4.696 -1.7615 -2.0564 -0.6685
  674THF    H1210201   2.819   5.570   4.581 -2.5031  1.6288 -1.9565
  674THF    H1310202   2.874   5.630   4.429  1.7515 -0.1139 -0.0754
  675THF     O110203   3.233   4.271   2.465 -0.0163  0.6139 -0.1330
  675THF     C210204   3.194   4.141   2.418  0.1761  0.2128  0.1677
  675THF     C310205   3.325   4.267   2.576  0.1646  0.1299  0.6171
  675THF     H410206   3.233   4.125   2.317  0.7349 -2.7458  0.7597
  675THF     H510207   3.086   4.129   2.424  0.2207 -0.2787  0.0059
  675THF     H610208   3.425   4.266   2.533 -0.2862 -3.7822 -0.7613
  675THF     H710209   3.320   4.349   2.648  0.6976 -2.4358  3.8152
  675THF     C810210   3.302   4.133   2.641  0.1116  0.3671 -0.1778
  675THF     C910211   3.269   4.048   2.518 -0.2701 -0.2600  0.1145
  675THF    H1010212   3.213   4.125   2.703 -1.6106 -0.0159 -2.5333
  675THF    H1110213   3.388   4.099   2.699  0.6021 -1.1874 -1.7092
  675THF    H1210214   3.361   4.014   2.468  0.0425  0.6213  0.0658
  675THF    H1310215   3.219   3.958   2.552 -1.6607  0.7356  0.7796
  676THF     O110216   4.501   1.671   3.869  0.4669 -0.0191  0.4784
  676THF     C210217   4.498   1.790   3.796 -0.3490 -0.5409  0.3385
  676THF     C310218   4.408   1.592   3.806  0.3585 -0.3376 -0.1468
  676THF     H410219   4.579   1.851   3.836  0.0674 -1.6698  1.2819
  676THF     H510220   4.407   1.847   3.811 -1.2342 -1.2795 -1.8069
  676THF     H610221   4.413   1.486   3.828 -1.7001 -0.6606 -0.9629
  676THF     H710222   4.309   1.628   3.834  0.0243 -2.1021  1.1198
  676THF     C810223   4.446   1.602   3.660  0.1724  0.1424  0.2060
  676THF     C910224   4.515   1.739   3.654  0.0653  0.8641  0.0021
  676THF    H1010225   4.360   1.594   3.594  0.8191  1.5814 -0.8688
  676THF    H1110226   4.519   1.523   3.641  0.3824 -0.2826  2.5462
  676THF    H1210227   4.620   1.718   3.633 -0.4645  1.2677 -3.5798
  676THF    H1310228   4.473   1.806   3.580  2.4066  0.7817 -1.5076
  677THF     O110229   0.266   0.498   3.145  0.0779  0.4586 -0.1759
  677THF     C210230   0.203   0.581   3.241  0.6568 -0.7652  0.8348
  677THF     C310231   0.300   0.565   3.024 -0.1419  0.2850 -0.1239
  677THF     H410232   0.214   0.549   3.344 -0.0343 -0.6285  0.9598
  677THF     H510233   0.099   0.567   3.211  0.6265  0.7857  0.0519
  677THF     H610234   0.405   0.539   3.010 -0.2703 -2.9903  3.2674
  677THF     H710235   0.245   0.532   2.936  0.6595 -0.3857 -0.3868
  677THF     C810236   0.273   0.715   3.052  0.4012  0.4931  0.1651
  677THF     C910237   0.261   0.720   3.204  0.0054 -0.1938 -0.5458
  677THF    H1010238   0.173   0.738   3.016 -0.1543 -0.5350  0.9865
  677THF    H1110239   0.345   0.787   3.012  0.7614  0.3176  0.4868
  677THF    H1210240   0.348   0.737   3.267 -0.0677 -2.3567  0.1893
  677THF    H1310241   0.188   0.797   3.231  0.5018  0.0078  0.2671
  678THF     O110242   1.590   3.483   2.088  0.0443  0.4583 -0.1664
  678THF     C210243   1.586   3.428   1.954 -0.1529 -0.0422  0.3216
  678THF     C310244   1.728   3.485   2.131 -0.3218  0.0624 -0.9922
  678THF     H410245   1.506   3.477   1.899  0.1623 -0.0639 -0.1616
  678THF     H510246   1.566   3.322   1.937  0.4371  0.0563 -1.1880
  678THF     H610247   1.745   3.566   2.201 -0.5700 -0.3155 -0.4922
  678THF     H710248   1.761   3.386   2.161  0.2936 -0.0662 -2.0366
  678THF     C810249   1.812   3.490   2.008 -0.1387 -0.4420 -0.1947
  678THF     C910250   1.707   3.487   1.891  0.5067  0.2891 -0.4431
  678THF    H1010251   1.877   3.403   1.998 -0.0476 -0.2460 -1.5717
  678THF    H1110252   1.879   3.576   2.010 -0.9761  0.2071  0.8011
  678THF    H1210253   1.688   3.590   1.861 -3.0676  0.2138  1.0120
  678THF    H1310254   1.740   3.427   1.806 -0.9264  0.5255 -1.1998
  679THF     O110255   4.853   4.503   3.560  0.5651 -0.0545 -0.5141
  679THF     C210256   4.938   4.589   3.489 -0.1095  0.1450 -0.0147
  679THF     C310257   4.879   4.504   3.702 -0.4117 -0.1030  0.1765
  679THF     H410258   4.879   4.623   3.404 -1.3672 -2.0477 -0.1044
  679THF     H510259   5.023   4.523   3.471 -1.8607 -1.9312 -1.1530
  679THF     H610260   4.799   4.453   3.756 -0.5971 -1.6549 -1.4421
  679THF     H710261   4.970   4.448   3.724  1.0731  1.8034 -0.8190
  679THF     C810262   4.890   4.654   3.725 -0.6055  0.2874 -0.0782
  679THF     C910263   4.964   4.699   3.599 -0.2299  0.1341  0.3835
  679THF    H1010264   4.936   4.682   3.820 -2.2813  0.2387  0.7692
  679THF    H1110265   4.791   4.699   3.717 -0.0764  1.3670 -0.8187
  679THF    H1210266   4.963   4.802   3.563  0.1622  0.1188  0.3292
  679THF    H1310267   5.068   4.695   3.630  0.7414 -0.6268 -2.6321
  680THF     O110268   1.187   5.438   3.421 -0.5651 -0.3617 -0.2323
  680THF     C210269   1.290   5.377   3.352 -0.2288 -0.0847 -0.5826
  680THF     C310270   1.074   5.353   3.429 -0.1523 -0.0732  0.0632
  680THF     H410271   1.392   5.406   3.378  0.1242  0.2085 -2.2006
  680THF     H510272   1.258   5.408   3.252 -2.1366 -0.6107 -0.1639
  680THF     H610273   1.053   5.327   3.533  0.9511  0.7061  0.4971
  680THF     H710274   0.980   5.392   3.390  0.5052  1.2699 -0.2221
  680THF     C810275   1.105   5.230   3.349 -0.3366  0.1785  0.5487
  680THF     C910276   1.250   5.224   3.352 -0.0920  0.5829 -0.3464
  680THF    H1010277   1.060   5.232   3.250  0.3810 -0.7114  0.1964
  680THF    H1110278   1.070   5.140   3.400 -0.8622 -0.5446 -1.0227
  680THF    H1210279   1.294   5.173   3.438  2.5131  1.5672 -0.9921
  680THF    H1310280   1.301   5.171   3.271  0.1011  0.3059 -0.0503
  681THF     O110281   2.893   2.473   3.723 -0.9560  0.4191  0.1237
  681THF     C210282   3.009   2.539   3.678  0.1783  0.2388  1.0857
  681THF     C310283   2.798   2.458   3.614  0.2668  0.3251  0.1011
  681THF     H410284   3.101   2.488   3.708  1.7378  0.5499 -2.6693
  681THF     H510285   3.005   2.638   3.723 -2.0195  0.5882  0.2623
  681THF     H610286   2.811   2.357   3.577  0.2839  1.4205 -3.2523
  681THF     H710287   2.696   2.466   3.652  0.1137 -1.0515  0.0356
  681THF     C810288   2.837   2.563   3.521 -0.1940 -0.1879 -0.0565
  681THF     C910289   2.992   2.556   3.527  0.8981 -0.2883 -0.0059
  681THF    H1010290   2.795   2.656   3.560  0.3861 -0.5370  1.4499
  681THF    H1110291   2.806   2.540   3.419  0.2272  2.1183 -0.7735
  681THF    H1210292   3.025   2.463   3.481 -1.1461 -0.8444 -0.4258
  681THF    H1310293   3.056   2.639   3.495  4.0483 -1.0089  3.6588
  682THF     O110294   5.137   5.385   0.570  0.1164  0.1687  0.4821
  682THF     C210295   5.146   5.523   0.602  0.0987  0.3028  0.6559
  682THF     C310296   5.255   5.354   0.499 -0.3312  0.1189  0.4057
  682THF     H410297   5.082   5.545   0.688  1.8185  0.1633  2.0404
  682THF     H510298   5.112   5.589   0.523  1.7715  0.5194  0.0660
  682THF     H610299   5.264   5.246   0.509  1.3991  0.0021 -1.6484
  682THF     H710300   5.233   5.380   0.395  0.6527 -1.2680 -0.1731
  682THF     C810301   5.362   5.438   0.558  0.0640  0.5732  0.4422
  682THF     C910302   5.292   5.554   0.632  0.0018  0.8293  0.2816
  682THF    H1010303   5.425   5.473   0.476  0.0351 -0.1786  0.0855
  682THF    H1110304   5.426   5.382   0.626 -0.4317  0.5970  0.9317
  682THF    H1210305   5.310   5.558   0.740 -1.9377 -0.3450  0.6989
  682THF    H1310306   5.327   5.649   0.591  0.3693 -0.3764 -2.3895
  683THF     O110307   1.383   3.466   1.611 -0.0625  0.3643  0.2333
  683THF     C210308   1.472   3.374   1.546 -0.1770 -0.5185  0.1660
  683THF     C310309   1.446   3.595   1.622  0.2809 -0.0310  0.4638
  683THF     H410310   1.423   3.319   1.466  1.7038 -1.3240 -0.4866
  683THF     H510311   1.485   3.289   1.613 -2.7681  1.2574  3.2215
  683THF     H610312   1.370   3.673   1.616 -0.7495 -0.9601  1.0220
  683THF     H710313   1.494   3.603   1.720  0.7040 -0.0894  0.2625
  683THF     C810314   1.538   3.607   1.500 -0.1522 -0.0335 -0.3529
  683THF     C910315   1.589   3.457   1.492  0.0098 -0.5856 -0.2110
  683THF    H1010316   1.618   3.680   1.515 -0.6055  0.5734 -0.8265
  683THF    H1110317   1.481   3.636   1.412 -2.0717 -1.7828  0.2499
  683THF    H1210318   1.612   3.433   1.388  2.3964  2.0236 -0.4011
  683THF    H1310319   1.681   3.459   1.550 -0.9962  1.4768  1.4583
  684THF     O110320   5.353   5.233   1.916 -0.3675 -0.2303 -0.2639
  684THF     C210321   5.429   5.111   1.905  0.2167 -0.3878 -1.2937
  684THF     C310322   5.410   5.315   2.021  0.4779  0.1201  0.3519
  684THF     H410323   5.445   5.087   1.800  0.5636 -1.2125 -1.0589
  684THF     H510324   5.370   5.033   1.953  0.5375  0.4375  0.5519
  684THF     H610325   5.407   5.420   1.992 -0.0615  0.0064 -0.0093
  684THF     H710326   5.345   5.302   2.107  0.0367  1.2747  0.2035
  684THF     C810327   5.554   5.267   2.034 -0.8435  0.6454  0.5832
  684THF     C910328   5.563   5.127   1.971  0.3630 -0.8590  0.0810
  684THF    H1010329   5.597   5.257   2.134 -0.3883  0.9388  0.4199
  684THF    H1110330   5.620   5.337   1.983  0.2666 -0.6035  0.2661
  684THF    H1210331   5.639   5.120   1.893 -0.1093 -0.1092 -0.4610
  684THF    H1310332   5.595   5.048   2.039 -0.8680  0.3510  2.1615
  685THF     O110333   3.752   1.127   3.798 -0.5110  0.4443 -0.0154
  685THF     C210334   3.851   1.113   3.695  0.0460 -0.0340  0.1593
  685THF     C310335   3.647   1.210   3.755  0.0251  0.7541  0.1600
  685THF     H410336   3.898   1.014   3.697  1.6859  0.6487 -1.7005
  685THF     H510337   3.927   1.188   3.712 -1.3275  1.5062 -0.2388
  685THF     H610338   3.558   1.204   3.818 -1.0645  1.8888 -1.2063
  685THF     H710339   3.686   1.312   3.766  0.2103  0.4540  3.6903
  685THF     C810340   3.632   1.170   3.605 -0.8485 -0.5090 -0.3213
  685THF     C910341   3.780   1.147   3.565 -0.0195 -0.4071 -0.2377
  685THF    H1010342   3.577   1.244   3.547 -0.5686 -0.6947 -0.8266
  685THF    H1110343   3.589   1.071   3.596  0.8106 -1.4175  1.1172
  685THF    H1210344   3.776   1.055   3.505 -2.6696  0.0397 -0.8748
  685THF    H1310345   3.827   1.233   3.518 -0.1573  0.5404  1.3031
  686THF     O110346   3.144   4.427   0.437 -0.3476  1.1501 -0.5224
  686THF     C210347   3.231   4.532   0.458 -0.7607 -0.0784 -0.0389
  686THF     C310348   3.225   4.312   0.404 -0.8978  0.1173 -0.1820
  686THF     H410349   3.188   4.610   0.521 -1.7771 -0.8657  0.2656
  686THF     H510350   3.271   4.567   0.362  2.0555  0.6904  1.2890
  686THF     H610351   3.167   4.221   0.419  0.7170 -1.0533 -0.7742
  686THF     H710352   3.240   4.323   0.296 -0.2377  1.0404 -0.0095
  686THF     C810353   3.364   4.326   0.481  0.2799 -0.7392 -0.6370
  686THF     C910354   3.355   4.474   0.525 -0.4800  0.7156  0.7462
  686THF    H1010355   3.447   4.299   0.417  0.1297  0.9424 -1.6174
  686THF    H1110356   3.361   4.254   0.563 -0.2928 -0.9166 -0.8095
  686THF    H1210357   3.329   4.478   0.630 -1.5107 -2.1799  0.6837
  686THF    H1310358   3.446   4.526   0.495  0.7172 -0.1111  2.8032
  687THF     O110359   1.323   4.965   1.345 -0.9747  0.0531  0.4182
  687THF     C210360   1.440   4.891   1.354 -0.0128 -0.4963  0.1773
  687THF     C310361   1.365   5.100   1.345  0.4074  0.4494  0.6283
  687THF     H410362   1.464   4.865   1.251 -1.4433 -0.7217 -0.1104
  687THF     H510363   1.408   4.800   1.404 -2.3059  0.0593 -0.1864
  687THF     H610364   1.326   5.148   1.255  0.2854 -2.4623 -1.0056
  687THF     H710365   1.320   5.154   1.428  1.0168  3.4122 -0.8475
  687THF     C810366   1.514   5.107   1.348  0.2671 -0.2660  0.1857
  687THF     C910367   1.549   4.981   1.417  1.1099  0.6311  0.0094
  687THF    H1010368   1.556   5.188   1.408 -0.9344  1.0437 -0.6680
  687THF    H1110369   1.548   5.116   1.245 -0.1577  1.2177  0.1517
  687THF    H1210370   1.648   4.943   1.391  1.0722 -0.5396  1.4639
  687THF    H1310371   1.534   4.986   1.525  2.5085 -2.7303  0.4867
  688THF     O110372   3.437   2.269   0.997  0.6971  0.4806 -0.1294
  688THF     C210373   3.348   2.196   0.911  0.0185 -0.1715 -0.5483
  688THF     C310374   3.546   2.318   0.918 -0.3012 -0.1623  0.7484
  688THF     H410375   3.292   2.275   0.860  0.2184  0.7637  0.6354
  688THF     H510376   3.274   2.129   0.954  1.3507 -0.6970  1.0292
  688THF     H610377   3.537   2.425   0.898  3.5273 -0.0180 -1.0965
  688THF     H710378   3.635   2.301   0.980 -0.7245 -4.1297  0.5414
  688THF     C810379   3.543   2.239   0.786  0.0697 -0.5349 -0.6281
  688THF     C910380   3.447   2.127   0.814  0.8447 -0.3441  0.0355
  688THF    H1010381   3.641   2.198   0.761  1.4348  0.8786  1.9720
  688THF    H1110382   3.518   2.305   0.703 -0.8729 -0.5181 -0.3482
  688THF    H1210383   3.396   2.097   0.722  1.1168  0.2689 -0.3192
  688THF    H1310384   3.492   2.039   0.859  1.0618 -0.0619  0.3748
  689THF     O110385   5.363   3.257   5.261  0.2851  0.0923 -0.3452
  689THF     C210386   5.424   3.239   5.397  0.5824  0.0108  0.3037
  689THF     C310387   5.242   3.178   5.258 -0.8173  0.0214  0.3185
  689THF     H410388   5.502   3.311   5.421  0.3603 -0.5097  2.9420
  689THF     H510389   5.472   3.142   5.392 -2.1604 -1.5078  1.3936
  689THF     H610390   5.173   3.216   5.183  0.1442  1.6254  0.2035
  689THF     H710391   5.264   3.073   5.241 -1.0199 -0.5287  3.0460
  689THF     C810392   5.184   3.195   5.403  0.3293 -0.2342  0.6925
  689THF     C910393   5.302   3.234   5.490  0.0984  0.2245 -0.4719
  689THF    H1010394   5.134   3.111   5.451  0.2593  0.7402  2.4044
  689THF    H1110395   5.106   3.271   5.407  0.8914  0.4116 -0.3396
  689THF    H1210396   5.296   3.337   5.525 -1.0861 -0.3283  1.0431
  689THF    H1310397   5.325   3.170   5.575  0.1198  0.3372 -0.3936
  690THF     O110398   2.867   0.608   2.497  0.0344  0.4169  0.2873
  690THF     C210399   2.780   0.640   2.389  0.1973 -0.2788 -0.6562
  690THF     C310400   2.825   0.478   2.552 -0.0830 -0.6462 -0.4579
  690THF     H410401   2.830   0.716   2.330  2.2832 -1.3893 -0.4126
  690THF     H510402   2.679   0.668   2.421  0.0616 -1.3438 -0.0832
  690THF     H610403   2.906   0.414   2.587  1.0230 -0.6266 -2.8005
  690THF     H710404   2.746   0.486   2.626  0.2567 -0.3750 -0.1247
  690THF     C810405   2.759   0.416   2.431  0.2342  0.0733 -0.8575
  690THF     C910406   2.768   0.508   2.317 -0.4640  0.0373 -0.0806
  690THF    H1010407   2.653   0.394   2.440  0.6808 -1.7912  0.5457
  690THF    H1110408   2.811   0.321   2.417  0.4626 -0.1324  1.1034
  690THF    H1210409   2.857   0.484   2.259 -0.7787  0.2087 -0.6421
  690THF    H1310410   2.682   0.509   2.250 -1.3071  0.6129  0.9788
  691THF     O110411   1.072   0.293   1.702 -0.7235 -0.4885 -0.8549
  691THF     C210412   0.985   0.357   1.804  0.4731  0.0517  0.7855
  691THF     C310413   1.079   0.377   1.590 -0.0779  0.3240 -0.0939
  691THF     H410414   1.048   0.436   1.847 -1.0416  2.1842 -0.7081
  691THF     H510415   0.937   0.296   1.881  1.5386 -2.3487 -0.3504
  691THF     H610416   1.164   0.445   1.590  0.5809 -0.4781 -0.9425
  691THF     H710417   1.090   0.319   1.498  0.3588  0.2941 -0.0219
  691THF     C810418   0.950   0.461   1.592 -0.2749 -0.3491 -0.3335
  691THF     C910419   0.880   0.431   1.723 -0.0365  0.5091 -0.4503
  691THF    H1010420   0.886   0.439   1.507  0.0034 -1.5663 -0.2444
  691THF    H1110421   0.966   0.569   1.581 -0.4575 -0.4548 -1.8570
  691THF    H1210422   0.827   0.514   1.769  1.5355  0.0069  2.5152
  691THF    H1310423   0.801   0.358   1.704  2.8896 -3.9497  2.6569
  692THF     O110424   1.784   1.190   0.774 -0.1087 -0.1445 -0.2964
  692THF     C210425   1.857   1.278   0.856  0.4677 -0.0598  0.3933
  692THF     C310426   1.826   1.054   0.815  0.4950  0.8263  0.8115
  692THF     H410427   1.815   1.267   0.956 -2.1292  1.0048 -0.4947
  692THF     H510428   1.837   1.380   0.822 -0.8263 -1.1493 -2.3961
  692THF     H610429   1.775   1.036   0.910  0.5278  0.1191  0.7045
  692THF     H710430   1.799   0.973   0.747 -1.6670  2.1955 -0.0862
  692THF     C810431   1.977   1.071   0.844 -0.4636  0.9694 -0.1676
  692THF     C910432   1.999   1.224   0.845  0.4839  0.0946 -0.1865
  692THF    H1010433   2.028   1.021   0.762  2.6894  0.7361  1.7551
  692THF    H1110434   2.007   1.020   0.935 -1.7178  0.9573  0.2650
  692THF    H1210435   2.068   1.260   0.921  0.6680  1.0079 -0.7651
  692THF    H1310436   2.046   1.252   0.751  1.1423 -1.2040 -0.2615
  693THF     O110437   5.005   4.778   4.152 -0.0931  0.0476  0.2177
  693THF     C210438   5.108   4.853   4.214  0.1564  0.0833  0.0207
  693THF     C310439   5.029   4.642   4.196 -0.0200 -0.4988 -0.4555
  693THF     H410440   5.087   4.959   4.201 -2.7155 -0.4438 -0.3380
  693THF     H510441   5.201   4.818   4.169 -1.1240 -1.6736 -1.4405
  693THF     H610442   4.954   4.567   4.172 -0.9568  0.0861  0.5186
  693THF     H710443   5.121   4.608   4.148 -0.5303  0.5308 -2.2473
  693THF     C810444   5.051   4.661   4.345 -0.0871 -0.4714 -0.7197
  693THF     C910445   5.098   4.808   4.362  0.2933 -0.2941  0.4258
  693THF    H1010446   5.123   4.589   4.383  0.5695  0.0924 -0.8759
  693THF    H1110447   4.959   4.646   4.401  0.1783  0.9304  0.1378
  693THF    H1210448   5.031   4.883   4.402  0.8956  1.0490 -0.9525
  693THF    H1310449   5.193   4.817   4.416  1.1482  0.2814 -1.1081
  694THF     O110450   1.585   2.291   0.875 -0.0363 -0.9495  0.0797
  694THF     C210451   1.522   2.168   0.843 -0.1325 -0.4574 -0.0938
  694THF     C310452   1.705   2.319   0.796  0.2649 -0.4956  0.1629
  694THF     H410453   1.419   2.180   0.811  0.1269  2.3627 -0.1655
  694THF     H510454   1.540   2.111   0.934 -1.0821  0.3113  0.6061
  694THF     H610455   1.722   2.423   0.769  2.0700 -1.0250 -0.8982
  694THF     H710456   1.799   2.283   0.840  0.8874  0.3944 -0.4125
  694THF     C810457   1.673   2.241   0.665  0.4144 -0.4711 -0.8810
  694THF     C910458   1.597   2.116   0.721 -0.2555  0.1202  0.2391
  694THF    H1010459   1.761   2.221   0.604  1.6960  0.7140  0.5155
  694THF    H1110460   1.601   2.300   0.607  1.2081 -1.0621 -2.5272
  694THF    H1210461   1.534   2.063   0.651  0.8320 -1.5002  0.4283
  694THF    H1310462   1.669   2.051   0.772 -1.8628 -2.8114 -1.0042
  695THF     O110463   2.095   5.400   4.076 -0.6851  0.3182  0.5799
  695THF     C210464   2.189   5.481   4.004  0.3371 -0.7168  0.1125
  695THF     C310465   1.989   5.472   4.128  0.6054  0.2556 -0.3038
  695THF     H410466   2.172   5.480   3.897  0.2130 -0.8765  0.1327
  695THF     H510467   2.283   5.441   4.041  0.7339  0.1010 -0.0018
  695THF     H610468   1.909   5.492   4.057  1.9378  1.7136 -1.4822
  695THF     H710469   1.944   5.425   4.215  2.4542  0.3155  0.7274
  695THF     C810470   2.050   5.605   4.160  0.6454 -0.5387  0.1718
  695THF     C910471   2.172   5.624   4.069  0.6787  0.6810 -0.3782
  695THF    H1010472   2.100   5.594   4.257  1.4406 -1.3401 -0.3152
  695THF    H1110473   1.984   5.691   4.173  0.4434 -0.7423  0.5066
  695THF    H1210474   2.148   5.707   4.003  0.9551  1.5568  0.5909
  695THF    H1310475   2.255   5.656   4.132  0.2737  1.6760 -0.3201
  696THF     O110476   3.865   1.330   2.406  0.3548  0.0840 -0.7732
  696THF     C210477   3.878   1.316   2.551 -0.2730  0.4790  0.5858
  696THF     C310478   3.835   1.468   2.382  0.1416  0.4126  0.6468
  696THF     H410479   3.947   1.238   2.582  1.2895  0.4877 -2.4650
  696THF     H510480   3.778   1.287   2.583 -1.2401  1.3743 -1.4349
  696THF     H610481   3.924   1.503   2.330 -0.6199  0.0368 -0.9787
  696THF     H710482   3.748   1.499   2.324  1.3087  0.8398 -0.9380
  696THF     C810483   3.833   1.548   2.515 -0.3453  0.9600 -0.3484
  696THF     C910484   3.913   1.452   2.597 -0.6701 -0.3713  0.1459
  696THF    H1010485   3.732   1.551   2.555  0.4719 -2.2479  2.5809
  696THF    H1110486   3.879   1.647   2.515  1.5786  0.1219 -0.1019
  696THF    H1210487   4.021   1.464   2.584  0.4497 -2.8886  4.7209
  696THF    H1310488   3.895   1.473   2.702 -0.8957  0.9359 -0.1458
  697THF     O110489   4.940   3.983   3.934  0.1982  0.4194 -0.9804
  697THF     C210490   4.857   4.071   4.017 -0.0010 -0.1890 -0.0780
  697THF     C310491   4.925   3.852   3.985  0.1880  0.5220 -0.5955
  697THF     H410492   4.821   4.152   3.954 -0.4734 -0.3820 -0.0618
  697THF     H510493   4.911   4.104   4.105 -0.8561  1.3877 -0.1199
  697THF     H610494   4.927   3.780   3.903 -0.0945 -0.0285 -0.1246
  697THF     H710495   5.000   3.839   4.063 -0.3195 -0.1249 -0.2047
  697THF     C810496   4.795   3.849   4.067  0.2991  0.2325  0.8757
  697THF     C910497   4.735   3.987   4.048  0.0247 -0.5407  0.2415
  697THF    H1010498   4.809   3.822   4.172 -0.9069 -0.2036  0.9441
  697THF    H1110499   4.737   3.768   4.023  3.1550 -1.7684  0.4731
  697THF    H1210500   4.667   3.998   3.964  0.7069  0.3810 -0.2016
  697THF    H1310501   4.683   4.022   4.138  2.5292  1.2940  1.0933
  698THF     O110502   2.725   3.788   0.859  0.3958  0.2725 -0.1341
  698THF     C210503   2.713   3.925   0.907 -0.4836 -0.6634  0.5854
  698THF     C310504   2.598   3.727   0.886  0.0627 -0.3367  0.3664
  698THF     H410505   2.729   3.994   0.824  1.1347  0.2083  1.5568
  698THF     H510506   2.789   3.951   0.981  1.6432 -1.4918 -1.1598
  698THF     H610507   2.577   3.645   0.818 -0.3910 -1.7334  2.1189
  698THF     H710508   2.595   3.689   0.988 -0.5414  0.1416  0.5364
  698THF     C810509   2.491   3.839   0.873 -0.6250  0.3382 -0.1160
  698THF     C910510   2.565   3.944   0.951 -0.7407  0.6174  0.9557
  698THF    H1010511   2.393   3.808   0.909  0.1763  0.4244  2.3516
  698THF    H1110512   2.494   3.863   0.767  0.8840  2.7185  0.3886
  698THF    H1210513   2.506   4.035   0.943 -0.5817  0.7822  1.5848
  698THF    H1310514   2.568   3.911   1.055 -2.5989  1.5831  1.3517
  699THF     O110515   4.149   4.984   1.593 -0.3802 -0.5521  0.3065
  699THF     C210516   4.137   5.108   1.668  0.0562 -0.5206 -0.3266
  699THF     C310517   4.050   4.976   1.492  0.4431 -0.1477  0.2333
  699THF     H410518   4.173   5.194   1.611 -0.6040  0.7188  1.0790
  699THF     H510519   4.191   5.105   1.762 -0.6122 -0.6197  0.0569
  699THF     H610520   4.092   4.981   1.392  0.6700 -0.9177  0.2797
  699THF     H710521   4.011   4.875   1.501 -0.6283  0.1239 -1.0668
  699THF     C810522   3.948   5.081   1.538 -0.1268  0.0016 -0.9486
  699THF     C910523   3.994   5.116   1.682  0.8473 -0.0991  0.1995
  699THF    H1010524   3.850   5.034   1.529  0.2783 -1.2748  0.7263
  699THF    H1110525   3.959   5.163   1.466 -0.6929  0.5456 -0.4257
  699THF    H1210526   3.964   5.216   1.713  1.7305  0.7565 -1.5446
  699THF    H1310527   3.957   5.030   1.738  1.9223 -0.0494  1.0080
  700THF     O110528   1.940   4.788   1.071 -0.7253 -0.1221  0.4812
  700THF     C210529   1.922   4.726   0.943  0.2293  0.0305  0.0394
  700THF     C310530   1.945   4.933   1.059 -0.1596  0.6551  0.3090
  700THF     H410531   1.849   4.644   0.946  0.4058 -0.3647 -3.2851
  700THF     H510532   2.018   4.682   0.917  0.4855  1.8856 -2.4747
  700THF     H610533   1.852   4.983   1.086 -0.8720  0.8032 -2.1717
  700THF     H710534   2.027   4.978   1.114 -0.2964  0.5877  0.5710
  700THF     C810535   1.965   4.952   0.909 -0.1196  0.6181 -0.6861
  700THF     C910536   1.885   4.840   0.850  0.1440  0.5931  0.5780
  700THF    H1010537   2.068   4.928   0.882 -0.2851  0.4855 -1.1982
  700THF    H1110538   1.934   5.040   0.853 -1.4914  0.4407 -0.2371
  700THF    H1210539   1.776   4.849   0.851 -0.1648 -0.7446 -3.5985
  700THF    H1310540   1.914   4.826   0.747 -2.3824  0.2710 -0.1716
  701THF     O110541   0.162   2.726   3.999 -0.3433 -1.3056  0.2372
  701THF     C210542   0.252   2.728   4.105 -0.7429 -0.3981 -0.5611
  701THF     C310543   0.200   2.632   3.906 -0.3349  0.2452 -0.4902
  701THF     H410544   0.234   2.640   4.166  1.6789 -0.3756  0.2703
  701THF     H510545   0.236   2.820   4.162 -0.2485 -0.4646 -0.3099
  701THF     H610546   0.156   2.543   3.951  0.3740 -0.1951 -0.6570
  701THF     H710547   0.157   2.659   3.809 -1.0527 -1.5338 -0.7031
  701THF     C810548   0.352   2.628   3.911 -0.7086 -0.3768 -0.0052
  701THF     C910549   0.388   2.717   4.033  0.9368 -0.4640 -0.5022
  701THF    H1010550   0.390   2.664   3.815 -2.4100 -2.3634 -1.5328
  701THF    H1110551   0.387   2.525   3.918 -4.1485 -1.6412  0.6159
  701THF    H1210552   0.463   2.672   4.097  1.3523 -1.6673 -1.7776
  701THF    H1310553   0.405   2.819   4.000  0.0063 -0.4666 -1.0333
  702THF     O110554   2.620   0.143   4.979 -0.4964 -0.1176  0.0039
  702THF     C210555   2.536   0.036   5.000  0.2516 -0.1494  0.0796
  702THF     C310556   2.703   0.110   4.866  0.1438 -0.3494 -0.3678
  702THF     H410557   2.457   0.066   5.069 -0.2407 -2.1714  0.4705
  702THF     H510558   2.597  -0.047   5.035 -0.7046 -0.8577  0.1181
  702THF     H610559   2.762   0.189   4.820 -0.6984 -0.4548 -1.6797
  702THF     H710560   2.775   0.040   4.907  1.1619  1.5410  1.2613
  702THF     C810561   2.605   0.026   4.776  0.2952  0.7285  0.6475
  702THF     C910562   2.481  -0.004   4.865 -0.3259 -0.5594  0.6649
  702THF    H1010563   2.659  -0.065   4.750  1.5706  1.0780  1.9361
  702THF    H1110564   2.577   0.075   4.683 -0.3347  2.4192  1.6867
  702THF    H1210565   2.397   0.060   4.841 -0.7770 -0.9439  1.2005
  702THF    H1310566   2.458  -0.110   4.855  1.4780 -0.8574 -0.9317
  703THF     O110567   2.038   3.574   1.246  0.3037 -0.8100  0.1556
  703THF     C210568   1.938   3.671   1.284 -0.4922  0.6760  0.1350
  703THF     C310569   2.017   3.456   1.315  0.2731  0.2432  1.0018
  703THF     H410570   1.838   3.661   1.241 -0.0309  0.9373 -1.0368
  703THF     H510571   1.975   3.768   1.251  1.4696  0.9656  2.8851
  703THF     H610572   1.940   3.401   1.261  0.8707 -1.1184  1.5089
  703THF     H710573   2.102   3.390   1.329 -0.4333 -0.8013  0.4958
  703THF     C810574   1.962   3.506   1.452 -0.3637  0.1219  0.3433
  703THF     C910575   1.946   3.655   1.434 -0.4528 -0.1027  0.1433
  703THF    H1010576   2.023   3.489   1.541 -0.2031 -0.5346  0.1166
  703THF    H1110577   1.866   3.456   1.460 -0.1775  0.0035  2.1705
  703THF    H1210578   1.852   3.690   1.477 -1.1108  0.7297 -1.8225
  703THF    H1310579   2.022   3.720   1.477 -2.3137  1.6660  0.9184
  704THF     O110580   2.637   4.278   1.297  0.4016  0.0716  0.6332
  704THF     C210581   2.767   4.248   1.250 -0.6772 -0.0125 -1.0926
  704THF     C310582   2.642   4.397   1.377  0.1462  0.3766  0.2525
  704THF     H410583   2.791   4.303   1.159  1.8333 -1.9088 -1.6985
  704THF     H510584   2.778   4.142   1.227  2.0500 -0.8511  2.9859
  704THF     H610585   2.660   4.488   1.319 -0.8028  1.6144  1.7973
  704THF     H710586   2.548   4.400   1.432 -0.0733  1.1299 -0.1481
  704THF     C810587   2.778   4.379   1.462  0.5490  0.9075  0.2777
  704THF     C910588   2.860   4.300   1.370 -0.4642  0.6155  0.3518
  704THF    H1010589   2.748   4.315   1.545 -0.8947 -0.7099 -1.4112
  704THF    H1110590   2.829   4.469   1.499  0.3425  1.3191 -0.4243
  704THF    H1210591   2.935   4.365   1.324 -1.6067  1.1596 -0.8098
  704THF    H1310592   2.902   4.207   1.410  1.3895 -0.1541 -3.0082
  705THF     O110593   4.690   1.007   3.094  0.1225  0.5109 -0.0454
  705THF     C210594   4.575   0.968   3.015  0.3840 -0.7240 -0.2911
  705THF     C310595   4.782   1.071   3.013  0.4023  0.1215  0.7600
  705THF     H410596   4.485   1.003   3.064  0.8614  0.4695 -0.2331
  705THF     H510597   4.573   0.859   3.014  3.5477 -0.8915 -0.3453
  705THF     H610598   4.770   1.178   3.034 -0.7505 -0.0396  0.9958
  705THF     H710599   4.882   1.040   3.043  0.0982 -0.2721  1.3967
  705THF     C810600   4.734   1.043   2.870 -0.1593  0.3304 -0.0474
  705THF     C910601   4.584   1.034   2.877 -0.1475 -0.5397 -0.3557
  705THF    H1010602   4.768   0.944   2.843  1.8417  1.5165 -2.1537
  705THF    H1110603   4.777   1.114   2.799  0.5213  0.2649  0.2937
  705THF    H1210604   4.533   1.130   2.876 -1.0943 -0.9662 -3.2546
  705THF    H1310605   4.528   0.976   2.803  2.6041  0.9510 -3.8974
  706THF     O110606   0.643   1.293   3.780 -0.1721  0.3758 -0.3394
  706THF     C210607   0.733   1.193   3.821 -0.3105 -0.1257 -0.7302
  706THF     C310608   0.680   1.412   3.838  0.3009 -0.5356 -0.2595
  706THF     H410609   0.806   1.170   3.744 -1.5296  1.3707 -2.4055
  706THF     H510610   0.668   1.107   3.841  0.0207 -0.1858  0.1198
  706THF     H610611   0.697   1.488   3.762 -1.5556 -2.1883 -2.4726
  706THF     H710612   0.602   1.440   3.910  0.7217 -0.3224  0.1169
  706THF     C810613   0.793   1.390   3.938 -0.0232  0.1549  0.2475
  706THF     C910614   0.791   1.240   3.950 -0.3852  0.2854 -0.6017
  706THF    H1010615   0.791   1.444   4.033  0.5362 -0.1157  0.4216
  706THF    H1110616   0.881   1.429   3.887  1.9647 -2.7108  1.2312
  706THF    H1210617   0.891   1.200   3.970 -0.2091  0.5417 -0.9489
  706THF    H1310618   0.730   1.212   4.035 -0.6928 -0.3363 -1.0225
  707THF     O110619   1.142   2.132   0.728  0.1724 -0.0547  0.3281
  707THF     C210620   1.179   2.271   0.741  0.1372 -0.0888  0.4358
  707THF     C310621   1.015   2.131   0.659 -0.4725 -0.7146 -0.4837
  707THF     H410622   1.251   2.311   0.670  1.5810 -0.9988  1.3349
  707THF     H510623   1.229   2.280   0.837  0.6553 -1.4439  0.3148
  707THF     H610624   1.024   2.079   0.564  0.2024 -0.5666 -0.5071
  707THF     H710625   0.939   2.069   0.707 -2.3330  0.9180 -1.1748
  707THF     C810626   0.967   2.272   0.639 -0.6547 -0.4899 -1.2166
  707THF     C910627   1.048   2.349   0.742 -0.6543 -0.6785 -0.2103
  707THF    H1010628   0.859   2.277   0.653 -0.8798 -4.0497 -0.8476
  707THF    H1110629   0.990   2.304   0.537 -0.9159  3.0306 -0.3143
  707THF    H1210630   1.050   2.457   0.736  1.0678 -0.6786 -0.1259
  707THF    H1310631   1.001   2.324   0.837  0.3958 -1.2259  0.1835
  708THF     O110632   2.358   0.738   1.383 -0.0520 -0.0682 -0.4953
  708THF     C210633   2.273   0.839   1.327  0.3565 -0.1617  0.0808
  708THF     C310634   2.308   0.711   1.518 -0.3146 -0.3832 -0.0600
  708THF     H410635   2.298   0.848   1.221  2.9990  0.4731  0.6987
  708THF     H510636   2.288   0.942   1.358 -0.1066  0.4469 -1.6053
  708THF     H610637   2.340   0.615   1.558 -1.8111 -0.4766  0.9710
  708THF     H710638   2.334   0.789   1.590 -0.3567  0.8745 -1.3632
  708THF     C810639   2.160   0.705   1.494 -0.6971  0.2794  0.0481
  708THF     C910640   2.135   0.784   1.367  0.0713  0.0184 -0.4246
  708THF    H1010641   2.107   0.758   1.573 -0.4871  0.9220 -0.2368
  708THF    H1110642   2.117   0.605   1.498  1.3913 -0.6374  0.9035
  708THF    H1210643   2.108   0.714   1.288 -0.0924 -0.8848  0.4187
  708THF    H1310644   2.056   0.860   1.376  0.6249  0.7447 -1.5217
  709THF     O110645   2.057   1.765   4.043  0.3901  0.4901 -0.2734
  709THF     C210646   2.114   1.878   4.116 -0.8850 -0.0298 -0.3189
  709THF     C310647   2.146   1.652   4.065  0.1889 -0.6165  0.2799
  709THF     H410648   2.085   1.859   4.219  1.4430 -1.9414  0.0673
  709THF     H510649   2.081   1.979   4.092  1.5505  1.1918  1.0755
  709THF     H610650   2.131   1.614   4.166  2.0148 -0.8337  0.4941
  709THF     H710651   2.122   1.573   3.994  2.2613 -1.7059  0.7374
  709THF     C810652   2.278   1.709   4.048  0.1894 -0.2036 -0.3579
  709THF     C910653   2.272   1.844   4.115  0.2010 -0.2172 -0.5383
  709THF    H1010654   2.302   1.717   3.943 -1.7197 -0.3723 -0.8519
  709THF    H1110655   2.353   1.649   4.100 -1.0634 -1.4688  0.0705
  709THF    H1210656   2.300   1.823   4.218  1.2945 -3.5376 -1.3915
  709THF    H1310657   2.325   1.926   4.067 -2.3568  1.0771 -1.3313
  710THF     O110658   4.248   2.998   4.271  0.1612  0.3548  0.1180
  710THF     C210659   4.356   2.918   4.322 -0.2229 -0.1961  0.3622
  710THF     C310660   4.156   2.994   4.371 -0.3259  0.3915  0.3854
  710THF     H410661   4.447   2.930   4.263 -1.0904  0.7379 -0.8517
  710THF     H510662   4.325   2.819   4.353  1.7996 -0.2017  2.7137
  710THF     H610663   4.071   3.062   4.360 -0.0481  0.9130  1.2993
  710THF     H710664   4.119   2.892   4.376 -0.7826  0.3768 -2.1839
  710THF     C810665   4.235   3.012   4.495 -0.2323  0.0573  0.6956
  710THF     C910666   4.382   2.979   4.458  0.0262  0.2621 -0.7184
  710THF    H1010667   4.206   2.938   4.569 -0.5939 -2.8891 -2.1552
  710THF    H1110668   4.223   3.112   4.537  0.5210  0.2761  0.4067
  710THF    H1210669   4.429   3.077   4.458  0.8889 -0.1117  0.7448
  710THF    H1310670   4.436   2.917   4.530  0.6638 -1.2063 -2.3863
  711THF     O110671   0.213   0.230   3.714  0.1735  0.0256 -0.2853
  711THF     C210672   0.268   0.329   3.801  0.1596 -0.0125 -0.1353
  711THF     C310673   0.177   0.297   3.597 -0.0380  0.7365  0.4864
  711THF     H410674   0.366   0.363   3.766 -0.6232  2.5022 -0.1134
  711THF     H510675   0.282   0.290   3.901  0.7453 -1.4192 -0.7427
  711THF     H610676   0.260   0.311   3.527 -2.7469  0.9750 -2.9613
  711THF     H710677   0.099   0.248   3.537  0.3286  4.2073 -3.2726
  711THF     C810678   0.115   0.427   3.646  0.0270 -0.1565 -0.3720
  711THF     C910679   0.159   0.430   3.792  1.2085 -0.5262 -0.7676
  711THF    H1010680   0.010   0.446   3.625  0.4755  2.4151 -0.6466
  711THF    H1110681   0.170   0.509   3.599  2.5051 -0.3530  1.9912
  711THF    H1210682   0.178   0.536   3.811  0.3114 -0.1586 -1.7865
  711THF    H1310683   0.073   0.405   3.854  0.2828  0.3434 -1.6711
  712THF     O110684   5.493   1.468   0.016  0.2349  0.1084  0.0977
  712THF     C210685   5.511   1.457   0.156 -0.0302  0.4436 -0.3318
  712THF     C310686   5.563   1.353  -0.038  0.1310  0.7260  0.0929
  712THF     H410687   5.433   1.392   0.194 -0.4936  1.8708  1.2639
  712THF     H510688   5.498   1.556   0.199 -1.8708 -0.9230  2.5466
  712THF     H610689   5.495   1.267  -0.028 -0.5869  1.0347 -1.7698
  712THF     H710690   5.582   1.363  -0.144 -3.2901 -2.0471 -1.0023
  712THF     C810691   5.686   1.332   0.054 -0.1620 -0.4907  0.7509
  712THF     C910692   5.656   1.419   0.174  0.1553  0.9524 -0.5083
  712THF    H1010693   5.769   1.375  -0.002 -0.6449  1.6298  1.5877
  712THF    H1110694   5.700   1.227   0.079 -1.6036 -1.0715 -0.6685
  712THF    H1210695   5.667   1.363   0.267 -1.6106  1.2397 -0.0939
  712THF    H1310696   5.725   1.502   0.184  0.1228  0.7580  2.0597
  713THF     O110697   3.182   1.675   4.593 -0.3250  0.3410 -0.4169
  713THF     C210698   3.052   1.701   4.632 -0.0721  0.2335  0.4954
  713THF     C310699   3.182   1.635   4.457  0.0179 -0.0932 -0.4251
  713THF     H410700   3.066   1.767   4.718 -1.6724  0.1422  0.8531
  713THF     H510701   2.999   1.608   4.654  1.4304 -1.2437 -1.7095
  713THF     H610702   3.274   1.650   4.401 -0.4596 -1.9514 -1.7801
  713THF     H710703   3.175   1.527   4.467 -2.0487  0.0423  0.0055
  713THF     C810704   3.055   1.693   4.397 -0.1274 -0.0412  0.1598
  713THF     C910705   2.983   1.760   4.515  0.0163 -0.1202  1.0628
  713THF    H1010706   2.983   1.620   4.360  0.8194 -2.2925  2.4665
  713THF    H1110707   3.074   1.765   4.317 -0.4964 -0.0195  0.0919
  713THF    H1210708   3.009   1.866   4.517  0.8295 -0.1432 -2.1976
  713THF    H1310709   2.875   1.748   4.521  0.2250 -1.6758  2.0750
  714THF     O110710   3.610   3.798   3.452 -0.4709  0.3442 -0.8081
  714THF     C210711   3.594   3.934   3.472  0.1878  0.7468  0.1840
  714THF     C310712   3.635   3.767   3.323  0.1447 -0.3193  0.2379
  714THF     H410713   3.685   3.994   3.469  0.7506 -0.1253 -1.3688
  714THF     H510714   3.551   3.981   3.561  1.1441  3.6603 -0.7706
  714THF     H610715   3.739   3.795   3.303 -0.2273 -0.0400 -1.4647
  714THF     H710716   3.619   3.660   3.314 -0.6998 -0.1581 -0.2597
  714THF     C810717   3.543   3.858   3.244 -0.3212  0.8623 -0.9594
  714THF     C910718   3.515   3.973   3.346 -0.0777  0.0543  0.2214
  714THF    H1010719   3.458   3.797   3.214 -0.2438 -0.5463  1.4202
  714THF    H1110720   3.582   3.885   3.146 -4.8253  2.0661 -2.6766
  714THF    H1210721   3.555   4.062   3.297  1.0235 -0.6438 -0.2018
  714THF    H1310722   3.408   3.976   3.369  0.1702  1.3760  1.2777
  715THF     O110723   0.464   0.036   1.178 -0.0567 -0.7763  0.2706
  715THF     C210724   0.439   0.097   1.053  0.0257  0.6709  0.1121
  715THF     C310725   0.600   0.022   1.175  0.2529  0.1033  0.1580
  715THF     H410726   0.475   0.199   1.041 -1.6643  1.0266 -2.5396
  715THF     H510727   0.332   0.093   1.033  0.2338 -0.4993 -0.8489
  715THF     H610728   0.661   0.111   1.191 -0.2248  0.1461  1.9600
  715THF     H710729   0.618  -0.055   1.250  1.0868  0.7860  0.6892
  715THF     C810730   0.625  -0.050   1.041 -0.5442  0.1500 -0.5144
  715THF     C910731   0.510  -0.006   0.955 -0.0673 -0.1798  0.7724
  715THF    H1010732   0.630  -0.158   1.047  1.4482  0.2500  0.3509
  715THF    H1110733   0.721  -0.021   0.996 -0.9081 -1.9010 -2.7936
  715THF    H1210734   0.534   0.029   0.855 -4.9785 -0.8995 -0.9706
  715THF    H1310735   0.434  -0.084   0.946  0.5256 -0.7429  0.6131
  716THF     O110736   5.295   5.083   4.980  0.2653  0.5811 -0.2275
  716THF     C210737   5.306   5.047   4.837  0.6277 -0.3530 -0.5967
  716THF     C310738   5.427   5.064   5.030 -0.8817 -0.2099 -0.3956
  716THF     H410739   5.238   5.122   4.796 -0.8850  0.4842  2.9855
  716THF     H510740   5.301   4.940   4.819 -2.1545 -0.8057  2.0102
  716THF     H610741   5.449   5.114   5.125  0.8674 -1.5528 -0.0356
  716THF     H710742   5.442   4.957   5.048 -0.4854 -0.2628 -1.0206
  716THF     C810743   5.521   5.110   4.923 -0.9242 -0.1175 -0.4788
  716THF     C910744   5.441   5.105   4.799 -0.2076  0.9938  0.2429
  716THF    H1010745   5.601   5.037   4.921 -1.3713 -0.6687  0.6755
  716THF    H1110746   5.556   5.210   4.947 -0.6804 -0.7651  2.1504
  716THF    H1210747   5.444   5.206   4.757  1.4739  0.3571 -1.3082
  716THF    H1310748   5.484   5.039   4.724  2.1420  1.3548  1.1727
  717THF     O110749   5.365   2.132   3.515  0.1284 -0.3426  0.0762
  717THF     C210750   5.386   2.009   3.580  0.3735 -0.6249 -0.3422
  717THF     C310751   5.368   2.110   3.376  0.4402 -0.1062  0.7022
  717THF     H410752   5.297   1.969   3.630  1.7834 -2.6887  0.6646
  717THF     H510753   5.463   2.026   3.655 -1.0452  0.9811  0.8407
  717THF     H610754   5.272   2.093   3.327  0.9024 -0.7603  0.0032
  717THF     H710755   5.399   2.206   3.334 -1.0006  0.1025  0.0568
  717THF     C810756   5.464   1.992   3.362  0.0714  0.0504 -0.1601
  717THF     C910757   5.425   1.908   3.484 -0.2833  1.0821  0.3174
  717THF    H1010758   5.568   2.023   3.376 -0.8264  2.3787  2.2657
  717THF    H1110759   5.462   1.943   3.265 -0.3495 -1.2512  0.4795
  717THF    H1210760   5.342   1.841   3.463  1.9849 -1.2439 -1.7637
  717THF    H1310761   5.511   1.852   3.522 -1.6479 -1.2788  0.0931
  718THF     O110762   3.043   1.045   2.792 -0.1023  0.1538  0.6335
  718THF     C210763   2.955   0.930   2.815 -0.1837  0.4227  0.1019
  718THF     C310764   3.089   1.035   2.659 -0.6524 -0.3429  0.0839
  718THF     H410765   2.849   0.957   2.816 -0.0850  0.8088  0.1961
  718THF     H510766   2.985   0.886   2.910  1.5012 -0.3161 -0.7217
  718THF     H610767   3.075   1.128   2.603  1.2644 -0.2393 -0.3150
  718THF     H710768   3.196   1.014   2.652 -0.8015 -0.5297 -2.9042
  718THF     C810769   3.012   0.928   2.582  0.0959 -0.1693 -0.5531
  718THF     C910770   2.978   0.842   2.695  0.3761 -0.2918  0.5172
  718THF    H1010771   3.074   0.872   2.512  1.6708 -0.3320  0.8844
  718THF    H1110772   2.923   0.969   2.535 -1.1882 -0.9373  1.1059
  718THF    H1210773   2.895   0.772   2.703 -0.5376  0.4093 -1.8105
  718THF    H1310774   3.057   0.773   2.726 -1.3912 -2.0948  1.2562
  719THF     O110775   0.943   2.669   4.994  0.1329  0.3553  0.4105
  719THF     C210776   0.968   2.605   4.867 -0.1085 -0.2874 -0.4881
  719THF     C310777   0.841   2.594   5.059  0.5967  0.5869  0.8184
  719THF     H410778   1.030   2.518   4.888 -0.5747 -0.1798  1.6068
  719THF     H510779   1.026   2.670   4.801  0.7827  1.4372  1.8341
  719THF     H610780   0.890   2.517   5.119  0.6221  1.1968  1.5966
  719THF     H710781   0.800   2.669   5.127 -0.8962  0.2359  0.3510
  719THF     C810782   0.742   2.534   4.947  0.4317 -0.8287 -0.8601
  719THF     C910783   0.819   2.568   4.818  0.2415  0.3613  0.4124
  719THF    H1010784   0.645   2.584   4.954 -0.2918 -2.4082  1.8020
  719THF    H1110785   0.734   2.427   4.964 -0.0579 -0.5818  0.6672
  719THF    H1210786   0.830   2.479   4.755  1.8700 -0.0750  1.2564
  719THF    H1310787   0.778   2.655   4.767 -0.0829  1.4572  2.4648
  720THF     O110788   4.455   3.380   3.676 -0.7894  0.2180  0.3605
  720THF     C210789   4.532   3.337   3.567 -0.3301 -0.1377  0.2400
  720THF     C310790   4.312   3.364   3.633 -0.8030 -0.3664 -0.4986
  720THF     H410791   4.537   3.228   3.572  0.0936 -0.0644  4.2084
  720THF     H510792   4.633   3.377   3.577 -0.4477 -0.3806  3.2375
  720THF     H610793   4.285   3.258   3.632  0.3287 -0.7630  2.1845
  720THF     H710794   4.258   3.426   3.705  2.1686  0.6955  0.9974
  720THF     C810795   4.311   3.419   3.493  0.4492  0.4032 -0.0936
  720THF     C910796   4.450   3.375   3.441  0.2614  0.0596 -0.2672
  720THF    H1010797   4.293   3.527   3.493 -0.8896  0.2530 -2.7684
  720THF    H1110798   4.235   3.370   3.433 -0.8753  1.4419  0.6645
  720THF    H1210799   4.453   3.286   3.378 -0.1559 -1.3773  1.6701
  720THF    H1310800   4.495   3.449   3.374  1.3116  0.7936  1.1911
  721THF     O110801   0.617   2.790   0.087  0.0217 -0.1652  0.1927
  721THF     C210802   0.519   2.741  -0.001 -0.6959  0.3871 -0.2205
  721THF     C310803   0.735   2.815   0.017  0.2554  0.6198 -0.1772
  721THF     H410804   0.467   2.818  -0.058 -2.4423 -1.2119 -0.8824
  721THF     H510805   0.440   2.685   0.049 -0.5486  0.5541  0.2072
  721THF     H610806   0.704   2.899  -0.044 -1.8676 -0.0216 -0.0735
  721THF     H710807   0.825   2.834   0.076  0.7498 -1.9527  0.0450
  721THF     C810808   0.741   2.688  -0.068  0.1481 -0.5407  1.1195
  721THF     C910809   0.603   2.646  -0.092 -0.5411  0.0773 -0.8139
  721THF    H1010810   0.797   2.608  -0.020  1.1579 -0.0268  0.8469
  721THF    H1110811   0.804   2.708  -0.155  1.6526  1.8364  2.6149
  721THF    H1210812   0.588   2.665  -0.198  0.8056  0.6178 -0.9213
  721THF    H1310813   0.588   2.543  -0.060 -1.5279  0.9071  1.6589
  722THF     O110814   4.413   4.052   0.480  0.2421 -0.4032 -0.2089
  722THF     C210815   4.424   3.929   0.411 -0.5401 -0.5939 -0.2961
  722THF     C310816   4.520   4.056   0.574 -0.1729  0.0688 -0.3441
  722THF     H410817   4.387   3.943   0.309  1.6201 -0.3506 -1.1195
  722THF     H510818   4.389   3.839   0.461  0.8505 -1.3410 -0.6082
  722THF     H610819   4.542   4.152   0.621  1.1399  0.0525 -0.8786
  722THF     H710820   4.512   3.973   0.644  0.1546 -1.7686 -2.3640
  722THF     C810821   4.643   4.013   0.487  0.6993 -0.1496 -0.3305
  722THF     C910822   4.578   3.926   0.387  0.5562 -0.3885 -0.1444
  722THF    H1010823   4.717   3.951   0.537 -0.2838 -0.8476  0.2981
  722THF    H1110824   4.691   4.098   0.439 -0.6821  0.7462 -0.1750
  722THF    H1210825   4.610   3.940   0.283  3.3280 -3.2072  0.2125
  722THF    H1310826   4.619   3.825   0.389  2.7185  0.4115 -1.2116
  723THF     O110827   4.982   3.602   3.353  0.3435 -0.2764 -0.3061
  723THF     C210828   4.979   3.705   3.250  0.3103  0.3656  0.0105
  723THF     C310829   4.947   3.672   3.470  0.1794 -0.0687  0.5660
  723THF     H410830   4.888   3.683   3.194  0.6680 -0.6012 -0.2193
  723THF     H510831   5.048   3.671   3.172  0.4689 -2.5722  1.2844
  723THF     H610832   4.843   3.703   3.477  0.1519  0.0771 -0.4137
  723THF     H710833   4.970   3.608   3.556 -0.9997 -0.9983  0.2151
  723THF     C810834   5.031   3.806   3.465 -0.6240 -0.2072 -0.0942
  723THF     C910835   4.997   3.839   3.318 -0.3973  0.6379 -0.1932
  723THF    H1010836   5.137   3.785   3.474 -0.3517  1.0776 -0.2337
  723THF    H1110837   4.994   3.886   3.529 -0.4823  0.5641 -0.9684
  723THF    H1210838   4.904   3.895   3.325 -1.0033 -0.5016  1.2960
  723THF    H1310839   5.059   3.910   3.263  0.5183  1.0602  1.3215
  724THF     O110840   3.120   0.742   4.626  0.7049  0.1254  0.2449
  724THF     C210841   3.259   0.784   4.604  0.0780  0.0796 -0.2290
  724THF     C310842   3.128   0.612   4.689 -0.1924  0.0758  0.7300
  724THF     H410843   3.277   0.891   4.588  1.0049 -0.0206  0.0783
  724THF     H510844   3.280   0.718   4.520 -2.4335 -0.4193 -0.5247
  724THF     H610845   3.031   0.591   4.732 -0.0538  2.1995  2.2671
  724THF     H710846   3.148   0.531   4.619 -2.9192 -0.2275  0.2283
  724THF     C810847   3.244   0.632   4.789  0.4301  0.4859 -1.0491
  724THF     C910848   3.332   0.743   4.729  0.3928  0.4531 -0.0713
  724THF    H1010849   3.307   0.544   4.798  1.6280  1.5009  1.1719
  724THF    H1110850   3.221   0.676   4.886  2.0952  0.6869 -0.7205
  724THF    H1210851   3.355   0.825   4.796  1.2317  0.4836 -0.3902
  724THF    H1310852   3.427   0.700   4.698 -0.0711 -0.1394 -0.7499
  725THF     O110853   1.922   3.369   5.411 -0.2069  0.8277  0.2164
  725THF     C210854   1.919   3.333   5.557  0.5005  0.2021  0.2347
  725THF     C310855   1.838   3.473   5.382  0.9693  0.0543 -0.0759
  725THF     H410856   2.008   3.376   5.603  1.4608 -1.9625  0.5035
  725THF     H510857   1.902   3.226   5.569 -2.2745  0.2935 -1.9206
  725THF     H610858   1.891   3.547   5.321  1.2001  0.6013  0.7693
  725THF     H710859   1.755   3.419   5.337  0.2555 -0.4543  1.7710
  725THF     C810860   1.782   3.523   5.518  0.0278 -0.2302  0.1621
  725THF     C910861   1.799   3.403   5.609  1.0740  0.9824 -0.9894
  725THF    H1010862   1.678   3.553   5.505  0.2055  0.0981 -0.5852
  725THF    H1110863   1.836   3.615   5.540 -1.4819  1.5241 -2.7296
  725THF    H1210864   1.810   3.429   5.714  0.6454  0.8621 -0.9156
  725THF    H1310865   1.712   3.341   5.590  0.9182 -0.0320  2.3742
  726THF     O110866   0.778   0.557   2.239  0.7200 -0.1160 -0.9943
  726THF     C210867   0.795   0.464   2.343 -0.0663  0.6086 -0.7233
  726THF     C310868   0.720   0.498   2.123 -0.1661 -0.2244  0.2939
  726THF     H410869   0.707   0.477   2.405  1.0181 -0.3963  1.0988
  726THF     H510870   0.885   0.479   2.402 -0.6004  1.2784 -0.0591
  726THF     H610871   0.624   0.544   2.101 -1.6331 -2.3777  1.7588
  726THF     H710872   0.786   0.507   2.037  1.1830 -1.3299  1.1502
  726THF     C810873   0.705   0.350   2.156  0.4317 -0.1148 -0.0169
  726THF     C910874   0.799   0.331   2.270 -0.7171 -0.2152 -0.4785
  726THF    H1010875   0.724   0.280   2.075  1.1514 -1.5448  1.3391
  726THF    H1110876   0.603   0.322   2.184  0.1933 -0.6661 -1.3783
  726THF    H1210877   0.805   0.234   2.320  1.4780  0.2266  0.2360
  726THF    H1310878   0.903   0.322   2.237  0.2398 -1.8276  2.5063
  727THF     O110879   0.482   4.958   4.588  0.1961  0.3265 -0.4364
  727THF     C210880   0.434   5.090   4.573 -0.2353 -0.0053 -0.7627
  727THF     C310881   0.369   4.870   4.607  0.0441 -0.2953 -0.5919
  727THF     H410882   0.394   5.101   4.472  0.5683  0.8446 -1.0051
  727THF     H510883   0.528   5.144   4.584  0.4428 -1.0694 -1.1693
  727THF     H610884   0.314   4.859   4.513  0.1893 -1.4196 -0.5575
  727THF     H710885   0.390   4.767   4.637  0.9686 -0.3129 -1.2350
  727THF     C810886   0.294   4.954   4.713 -0.1113  0.3105 -0.0356
  727THF     C910887   0.337   5.101   4.691  0.4659  0.3643 -0.9947
  727THF    H1010888   0.337   4.922   4.808  0.9842  0.2469 -0.5412
  727THF    H1110889   0.186   4.949   4.699  0.0031 -0.9361 -0.5848
  727THF    H1210890   0.255   5.173   4.684 -0.6487 -0.4789  2.0164
  727THF    H1310891   0.387   5.131   4.783 -0.5343  2.4655 -1.0696
  728THF     O110892   1.770   0.782   1.927 -0.0490  0.1765  0.3835
  728THF     C210893   1.659   0.735   1.850  0.1131 -0.1269 -0.3794
  728THF     C310894   1.845   0.880   1.853  0.1105  0.2022 -0.2947
  728THF     H410895   1.570   0.793   1.874  0.9842  2.0029 -1.9865
  728THF     H510896   1.635   0.629   1.863 -2.1809  0.4146  0.1706
  728THF     H610897   1.817   0.975   1.900 -1.2249 -1.2547  2.0365
  728THF     H710898   1.952   0.862   1.861  0.2639  1.1585 -0.1197
  728THF     C810899   1.804   0.862   1.704 -0.7216 -0.4332 -0.4425
  728THF     C910900   1.691   0.764   1.705  0.4738 -0.0357 -0.6498
  728THF    H1010901   1.885   0.846   1.633  0.1711 -0.5266  0.5758
  728THF    H1110902   1.765   0.955   1.663 -0.1093 -0.5161 -1.2420
  728THF    H1210903   1.598   0.784   1.652 -0.0522 -2.9371 -0.9982
  728THF    H1310904   1.732   0.671   1.664  0.7123  0.0779 -0.6706
  729THF     O110905   0.939   0.847   4.316  0.4290  0.2126  0.3533
  729THF     C210906   1.047   0.855   4.404 -0.0950 -0.2823  0.0753
  729THF     C310907   0.831   0.896   4.385 -0.1200  0.1475 -0.2772
  729THF     H410908   1.069   0.961   4.400 -2.8636  0.4058  0.6396
  729THF     H510909   1.139   0.802   4.378 -0.3526 -0.4614 -0.4921
  729THF     H610910   0.852   1.002   4.399  1.6006 -0.3127  0.9564
  729THF     H710911   0.735   0.868   4.341 -1.9862  1.1920  2.8249
  729THF     C810912   0.841   0.827   4.526  0.2565  0.5993  0.5137
  729THF     C910913   0.992   0.820   4.536  0.3848  0.2672  0.2653
  729THF    H1010914   0.807   0.724   4.516  3.5512 -0.4729 -1.1220
  729THF    H1110915   0.786   0.885   4.601 -1.4853 -0.9400  0.5003
  729THF    H1210916   1.035   0.897   4.600 -0.0226 -0.8944  1.9976
  729THF    H1310917   1.016   0.719   4.571 -1.0352  0.1761  1.0476
  730THF     O110918   2.798   0.917   1.215 -0.1330 -0.6159  0.1418
  730THF     C210919   2.917   0.891   1.290 -0.2257  0.6463  0.2028
  730THF     C310920   2.708   0.812   1.212 -0.3642  0.2762 -0.0885
  730THF     H410921   2.916   0.947   1.384 -1.6003 -0.5808  0.9667
  730THF     H510922   3.015   0.915   1.248  0.6862 -1.2709  1.0817
  730THF     H610923   2.604   0.844   1.219 -0.1802  1.0334 -0.7125
  730THF     H710924   2.723   0.759   1.117  0.3875 -0.8810  0.6472
  730THF     C810925   2.753   0.723   1.323 -0.7772 -0.0428 -0.0142
  730THF     C910926   2.899   0.744   1.322  0.2132 -0.4678  0.1574
  730THF    H1010927   2.732   0.617   1.307 -1.4803 -0.1309  1.3760
  730THF    H1110928   2.711   0.752   1.419  1.3458  1.2123  0.6086
  730THF    H1210929   2.942   0.718   1.419 -1.8609 -0.8911  1.0081
  730THF    H1310930   2.946   0.681   1.247  0.2653  0.8434 -0.9582
  731THF     O110931   4.515   4.261   2.254 -0.2708  0.0332 -0.3595
  731THF     C210932   4.493   4.375   2.337 -0.6078 -0.4707 -0.0652
  731THF     C310933   4.412   4.254   2.160 -0.1421 -0.8038  0.0904
  731THF     H410934   4.570   4.448   2.311 -1.6349  0.0352 -1.8785
  731THF     H510935   4.508   4.350   2.442  0.2981  1.1028  0.2200
  731THF     H610936   4.446   4.234   2.058 -1.1705 -1.4638 -0.1332
  731THF     H710937   4.352   4.166   2.183 -0.7594 -0.5625 -0.5479
  731THF     C810938   4.329   4.387   2.168 -0.2187 -0.0055  0.0466
  731THF     C910939   4.351   4.415   2.316  0.6236  0.1420  0.5055
  731THF    H1010940   4.224   4.380   2.137  0.4358 -0.7114 -2.2066
  731THF    H1110941   4.371   4.476   2.122  0.3892 -0.3196 -0.0080
  731THF    H1210942   4.322   4.517   2.340  0.7364  0.9922 -2.5128
  731THF    H1310943   4.283   4.347   2.367  0.6511  0.2061  0.6275
  732THF     O110944   4.865   1.791   2.808 -0.3591  0.3622  0.6974
  732THF     C210945   4.971   1.812   2.900 -0.1394 -0.1305  0.5299
  732THF     C310946   4.830   1.916   2.753  0.1790 -0.2895  0.6003
  732THF     H410947   5.039   1.727   2.894  1.0839  0.9206 -1.8326
  732THF     H510948   4.934   1.818   3.002  0.4699 -0.4305  0.7725
  732THF     H610949   4.788   1.917   2.652 -1.3332  0.1164  1.2104
  732THF     H710950   4.754   1.953   2.821  0.3108 -0.4775  0.8528
  732THF     C810951   4.963   2.002   2.759  0.0045  0.4420  0.0880
  732THF     C910952   5.044   1.933   2.863 -0.2452 -0.0995  0.2446
  732THF    H1010953   4.951   2.109   2.781 -1.4630  0.6170 -1.3620
  732THF    H1110954   5.009   1.993   2.661  1.1800  1.7861  0.4803
  732THF    H1210955   5.143   1.906   2.826  0.9553  0.9838  2.4531
  732THF    H1310956   5.049   1.994   2.953 -0.6777 -2.2166  1.7797
  733THF     O110957   2.356   0.372   1.115 -0.4163 -0.0632 -0.0651
  733THF     C210958   2.484   0.369   1.167 -0.2873  0.1130  0.1173
  733THF     C310959   2.273   0.361   1.228 -0.8974  0.5721  0.4505
  733THF     H410960   2.516   0.462   1.214  1.4621  0.0848 -0.9072
  733THF     H510961   2.548   0.351   1.081 -1.1333 -1.1306 -0.2670
  733THF     H610962   2.258   0.464   1.263 -0.0849  1.1497 -0.8429
  733THF     H710963   2.170   0.327   1.213 -0.1016 -2.1434  0.7001
  733THF     C810964   2.345   0.276   1.333  0.0231 -0.4396 -0.1535
  733THF     C910965   2.474   0.250   1.256  0.1930  0.5484 -0.2868
  733THF    H1010966   2.294   0.181   1.346 -1.3664  0.2198 -0.6053
  733THF    H1110967   2.362   0.322   1.431 -1.8779 -1.8222  0.8709
  733THF    H1210968   2.552   0.234   1.330  0.6934  0.3074 -0.8602
  733THF    H1310969   2.457   0.160   1.198  0.8838  1.2722 -1.6607
  734THF     O110970   0.326   4.454   1.440  0.0178 -0.0146  0.2523
  734THF     C210971   0.196   4.395   1.445  0.1085 -0.6786 -0.3628
  734THF     C310972   0.320   4.549   1.334  0.2970  0.6281 -0.1497
  734THF     H410973   0.129   4.466   1.493  1.3568  0.2478  0.0528
  734THF     H510974   0.195   4.303   1.504  0.0680 -2.2876 -2.7422
  734THF     H610975   0.254   4.632   1.357 -1.1113 -0.4571 -0.1746
  734THF     H710976   0.425   4.574   1.314  0.2894  0.3594 -0.5510
  734THF     C810977   0.249   4.465   1.225  0.2684 -0.1247  0.1368
  734THF     C910978   0.170   4.357   1.303  0.4614  0.6251 -0.0457
  734THF    H1010979   0.333   4.432   1.164 -1.3144 -1.6312 -1.3399
  734THF    H1110980   0.183   4.525   1.162 -0.4777  0.0614  1.0686
  734THF    H1210981   0.063   4.360   1.281  0.2226 -0.4375  0.8998
  734THF    H1310982   0.205   4.257   1.278 -1.5592  0.5069 -2.8667
  735THF     O110983   0.982   3.410   3.005  0.0296  0.0751 -0.3093
  735THF     C210984   0.952   3.547   3.020  0.6874 -0.4111 -0.2818
  735THF     C310985   0.876   3.332   3.063  0.0818  0.0302  0.9180
  735THF     H410986   1.026   3.607   2.968 -0.4777  0.5042 -0.9214
  735THF     H510987   0.945   3.587   3.121 -1.8576  1.4335 -1.0978
  735THF     H610988   0.873   3.229   3.030  1.4904  0.7191 -1.6555
  735THF     H710989   0.879   3.351   3.170  0.9298  0.8041  0.7791
  735THF     C810990   0.764   3.413   3.010  0.1168  0.9954 -0.5273
  735THF     C910991   0.812   3.550   2.964  0.1290  0.0132  0.0509
  735THF    H1010992   0.683   3.419   3.084  0.5410 -1.2941  0.2074
  735THF    H1110993   0.709   3.356   2.936  0.6661  0.9353 -0.8919
  735THF    H1210994   0.816   3.564   2.856  0.1219  1.0402  0.1687
  735THF    H1310995   0.743   3.622   3.008 -1.2111 -0.5879 -0.9912
  736THF     O110996   4.230   4.897   2.747 -0.4322 -0.1604  0.2835
  736THF     C210997   4.097   4.867   2.793  0.0344 -0.6275 -0.0081
  736THF     C310998   4.301   4.774   2.752  0.0399  0.2422  1.1139
  736THF     H410999   4.033   4.953   2.773 -0.6727 -1.2719 -0.5665
  736THF     H511000   4.102   4.857   2.901  2.9301  3.2773  0.4375
  736THF     H611001   4.393   4.775   2.694 -1.9683 -0.8470 -2.3614
  736THF     H711002   4.321   4.745   2.856 -0.5938  1.1731  1.5117
  736THF     C811003   4.195   4.675   2.695  0.9271  0.2669  0.4717
  736THF     C911004   4.059   4.743   2.710  0.1223  0.3231 -0.2303
  736THF    H1011005   4.190   4.583   2.753 -0.7226  0.0196  0.0077
  736THF    H1111006   4.226   4.645   2.595  1.2529  1.4272  0.2136
  736THF    H1211007   4.022   4.761   2.609 -0.5732  0.2118 -0.0015
  736THF    H1311008   3.993   4.682   2.771  2.8850 -0.7649  1.8728
  737THF     O111009   0.843   0.233   0.043  0.0692  0.1224  0.2658
  737THF     C211010   0.762   0.336  -0.009  0.6198 -1.0430  0.6188
  737THF     C311011   0.952   0.297   0.097  0.1305 -0.3259 -0.0508
  737THF     H411012   0.705   0.396   0.062  0.0994 -0.9341  0.1103
  737THF     H511013   0.692   0.290  -0.079  1.9120 -1.6449 -0.3267
  737THF     H611014   0.920   0.334   0.195 -0.5925 -0.6158 -0.1691
  737THF     H711015   1.030   0.224   0.119 -0.0789  0.0500  2.1782
  737THF     C811016   0.994   0.403  -0.001 -0.6959  0.1235 -0.1790
  737THF     C911017   0.872   0.429  -0.082  0.3074 -0.8218 -0.1070
  737THF    H1011018   1.076   0.372  -0.065 -0.0356  0.5660  0.4378
  737THF    H1111019   1.024   0.486   0.062 -2.2872  1.8994 -1.6386
  737THF    H1211020   0.834   0.531  -0.073  0.1819 -1.0510  3.2253
  737THF    H1311021   0.886   0.385  -0.181 -1.1457 -0.4139 -0.5157
  738THF     O111022   1.285   4.472   1.369 -0.0698  0.3165  0.3384
  738THF     C211023   1.334   4.344   1.315  0.1372 -0.5003  0.0741
  738THF     C311024   1.164   4.452   1.440  0.2089  0.9517 -0.0070
  738THF     H411025   1.442   4.337   1.321  0.2352 -1.3463 -1.8564
  738THF     H511026   1.293   4.345   1.213 -1.6860  2.3092  0.6934
  738THF     H611027   1.173   4.486   1.543  1.6046  1.4914 -0.2873
  738THF     H711028   1.090   4.516   1.391 -0.7074  0.4846  0.7598
  738THF     C811029   1.128   4.304   1.426 -0.4158 -0.1008  0.0120
  738THF     C911030   1.261   4.241   1.405 -0.7192  0.5216  0.0874
  738THF    H1011031   1.073   4.281   1.334  0.9045  0.8289 -1.0436
  738THF    H1111032   1.080   4.257   1.512  2.0065 -0.6742  1.1572
  738THF    H1211033   1.322   4.217   1.492  0.5021 -1.2066 -1.1633
  738THF    H1311034   1.252   4.146   1.352  1.2228 -0.0169  0.6498
  739THF     O111035   1.535   1.134   3.481 -0.1310 -0.4412 -0.2376
  739THF     C211036   1.417   1.070   3.461  0.2386  0.4671  0.3420
  739THF     C311037   1.642   1.065   3.406  0.1230 -0.1210 -0.3177
  739THF     H411038   1.373   1.101   3.366  1.1736 -1.4313 -0.7718
  739THF     H511039   1.339   1.070   3.537  0.5237 -0.1567  0.6353
  739THF     H611040   1.633   1.098   3.303  2.7636  3.1664  0.3546
  739THF     H711041   1.746   1.084   3.433  0.6628 -2.0309 -0.9379
  739THF     C811042   1.601   0.918   3.420  0.2662 -0.1075  0.0642
  739THF     C911043   1.453   0.918   3.438  0.8551 -0.0897 -0.6130
  739THF    H1011044   1.649   0.884   3.512 -2.4601 -0.3839  1.4959
  739THF    H1111045   1.630   0.851   3.340 -1.4023 -1.0877  0.2371
  739THF    H1211046   1.405   0.867   3.355  1.2195 -0.6963 -0.4625
  739THF    H1311047   1.422   0.854   3.520 -2.6440  0.6959 -1.1803
  740THF     O111048   5.009   4.460   4.678  0.4396  0.3505  0.1788
  740THF     C211049   4.888   4.392   4.657 -0.3527  0.2422 -0.2162
  740THF     C311050   4.982   4.581   4.742  0.1691 -0.0134 -0.0820
  740THF     H411051   4.903   4.287   4.633  0.8202  0.7330 -1.7960
  740THF     H511052   4.838   4.432   4.569 -0.7081  1.3850  0.4765
  740THF     H611053   5.057   4.585   4.821  0.2548 -1.2876 -0.0819
  740THF     H711054   5.006   4.665   4.677  1.8292  1.4996  2.3039
  740THF     C811055   4.843   4.576   4.794  0.1458 -0.6325  0.1352
  740THF     C911056   4.811   4.425   4.783 -0.5933 -0.1654 -0.3629
  740THF    H1011057   4.779   4.625   4.720 -1.0897 -0.7889  1.0716
  740THF    H1111058   4.821   4.624   4.889  1.2971 -0.9616  0.5784
  740THF    H1211059   4.858   4.366   4.861  0.8834  1.0437 -0.2948
  740THF    H1311060   4.704   4.404   4.791 -0.1943 -1.6966  1.9924
  741THF     O111061   0.486   5.010   3.725 -0.0978  0.2524 -0.2771
  741THF     C211062   0.350   4.959   3.716 -0.0738 -0.6138  0.2461
  741THF     C311063   0.531   5.043   3.592  0.4203  0.1770  0.5758
  741THF     H411064   0.271   5.032   3.698 -1.0565 -1.6519  0.2832
  741THF     H511065   0.327   4.880   3.787  1.4562 -0.5850  0.8183
  741THF     H611066   0.530   5.152   3.592  0.9667  0.1888  1.3220
  741THF     H711067   0.631   5.004   3.576  0.6791  1.0439  0.0538
  741THF     C811068   0.430   4.977   3.492  0.1081 -0.6622  0.4815
  741THF     C911069   0.352   4.879   3.581 -0.0507 -1.0985 -0.1934
  741THF    H1011070   0.479   4.944   3.400  1.5608 -0.6719  1.2329
  741THF    H1111071   0.359   5.052   3.458  0.5018  0.6040  2.2853
  741THF    H1211072   0.251   4.852   3.550 -0.3572  1.0694 -1.1990
  741THF    H1311073   0.410   4.787   3.594  1.3871 -0.2160 -0.1084
  742THF     O111074   0.071   1.780   1.070 -0.2281 -0.0719  1.0454
  742THF     C211075   0.115   1.655   1.024  0.1882  0.7803 -0.2554
  742THF     C311076   0.152   1.823   1.173 -0.0079 -0.5471 -0.2065
  742THF     H411077   0.082   1.632   0.923 -0.5384  0.0424  0.1421
  742THF     H511078   0.077   1.579   1.092 -1.8400  0.8306 -1.2562
  742THF     H611079   0.169   1.930   1.160  1.9154 -1.0490 -2.4115
  742THF     H711080   0.104   1.786   1.264  1.1276 -3.5162 -0.6911
  742THF     C811081   0.283   1.749   1.156 -0.0769 -0.0511 -0.6887
  742THF     C911082   0.266   1.666   1.027  0.0359  0.3031  0.2689
  742THF    H1011083   0.300   1.670   1.229  0.3888  0.4366 -0.2581
  742THF    H1111084   0.379   1.800   1.155  0.9206 -1.4508  3.5341
  742THF    H1211085   0.304   1.726   0.944  0.6226 -1.7539 -1.0218
  742THF    H1311086   0.325   1.574   1.025  0.3417  0.4997 -1.0767
  743THF     O111087   4.134   1.227   1.409  0.4680 -0.1058  0.3719
  743THF     C211088   4.010   1.166   1.447 -0.8386  1.0120  0.7301
  743THF     C311089   4.097   1.304   1.295  0.8232  0.3940 -0.0489
  743THF     H411090   3.953   1.246   1.496  0.8835  2.6069  0.2180
  743THF     H511091   4.034   1.086   1.517 -1.7644  1.2748  1.3752
  743THF     H611092   4.031   1.383   1.330  0.9375 -0.0858  1.2830
  743THF     H711093   4.179   1.345   1.235  0.6910 -3.0532 -2.8885
  743THF     C811094   4.012   1.208   1.211  0.5176  0.2072 -0.2302
  743THF     C911095   3.940   1.122   1.315 -0.2735  0.0173 -0.2051
  743THF    H1011096   4.084   1.157   1.146 -0.4936  0.8022 -1.8640
  743THF    H1111097   3.945   1.269   1.150 -0.7416 -1.2594 -0.3597
  743THF    H1211098   3.837   1.157   1.313  0.3557  2.0976  0.4514
  743THF    H1311099   3.953   1.019   1.284 -0.2717  0.1351 -0.5997
  744THF     O111100   5.367   2.698   3.537 -0.8349 -0.0017 -0.5296
  744THF     C211101   5.431   2.598   3.618 -0.4361  0.3941 -0.0149
  744THF     C311102   5.326   2.639   3.417 -0.1804 -0.2402 -0.5974
  744THF     H411103   5.419   2.611   3.726 -3.2895 -0.0652 -0.2006
  744THF     H511104   5.538   2.598   3.598  0.2468  2.9916  2.8097
  744THF     H611105   5.254   2.703   3.366 -1.1854 -0.9832 -0.1224
  744THF     H711106   5.410   2.618   3.350 -0.7898 -1.5391 -0.9807
  744THF     C811107   5.270   2.508   3.479 -0.4447 -0.0500 -0.0273
  744THF     C911108   5.369   2.469   3.579 -0.1576  0.4240  0.7091
  744THF    H1011109   5.266   2.429   3.403  0.0850  0.0207 -0.1336
  744THF    H1111110   5.174   2.527   3.527 -1.0846 -2.1429 -0.3540
  744THF    H1211111   5.319   2.415   3.660 -1.2699 -1.7931 -1.3374
  744THF    H1311112   5.435   2.395   3.534  1.2456  1.9927  0.0884
  745THF     O111113   4.373   5.332   2.585 -0.0845  0.1921  0.4460
  745THF     C211114   4.368   5.193   2.613  0.0842  0.3948  0.5986
  745THF     C311115   4.287   5.358   2.470  0.1056 -0.3319 -0.3900
  745THF     H411116   4.409   5.169   2.711  2.1684  0.4330 -0.2160
  745THF     H511117   4.441   5.147   2.546  1.8496  1.3597  1.7963
  745THF     H611118   4.238   5.454   2.485  1.2832  0.3827 -0.9589
  745THF     H711119   4.340   5.360   2.375  0.9389 -1.0353  0.0487
  745THF     C811120   4.188   5.239   2.460 -1.0537 -0.2691  0.5136
  745THF     C911121   4.219   5.158   2.579  0.0740 -0.3664 -0.9309
  745THF    H1011122   4.215   5.181   2.372  3.3077  1.6569  0.3284
  745THF    H1111123   4.082   5.265   2.460 -1.2203 -0.9170  1.3680
  745THF    H1211124   4.166   5.193   2.667  3.3666  0.0204  1.0353
  745THF    H1311125   4.190   5.053   2.572  0.1310 -0.3933 -0.7652
  746THF     O111126   3.551   2.668   1.671 -0.4776  0.1776  0.1527
  746THF     C211127   3.432   2.666   1.739  0.0442 -0.6342  0.9518
  746THF     C311128   3.629   2.557   1.719  0.5983 -0.5331 -0.1516
  746THF     H411129   3.367   2.591   1.693  1.7105  0.4684 -3.7645
  746THF     H511130   3.391   2.766   1.728  1.6031  0.0259  0.9364
  746THF     H611131   3.588   2.458   1.701 -0.9874  0.3655 -1.7509
  746THF     H711132   3.731   2.557   1.682  0.4526 -2.0914 -0.6226
  746THF     C811133   3.613   2.575   1.871  0.0010 -0.0643  0.6203
  746THF     C911134   3.471   2.630   1.879 -0.3320 -0.2847  0.0248
  746THF    H1011135   3.678   2.647   1.920  0.6045  0.3884 -0.7932
  746THF    H1111136   3.616   2.484   1.931 -0.6083 -1.1651 -0.9630
  746THF    H1211137   3.393   2.563   1.913 -1.2183 -0.5667 -2.4277
  746THF    H1311138   3.470   2.728   1.927 -1.2758  0.2617 -1.0572
  747THF     O111139   2.794   1.305   5.157 -0.3527  0.6846 -0.0117
  747THF     C211140   2.809   1.374   5.274 -0.4024  0.4611 -0.2204
  747THF     C311141   2.696   1.363   5.077 -0.5135  0.4064  0.2201
  747THF     H411142   2.904   1.356   5.325 -0.6940 -0.4459  0.0236
  747THF     H511143   2.736   1.337   5.347  1.5525 -1.1168  1.0534
  747THF     H611144   2.681   1.332   4.974  2.8590  3.0526 -1.2624
  747THF     H711145   2.606   1.346   5.137 -0.1861  2.2119  1.2917
  747THF     C811146   2.725   1.513   5.096  0.2001  0.8235 -0.2446
  747THF     C911147   2.788   1.523   5.234  0.1223 -0.4996 -0.5543
  747THF    H1011148   2.632   1.567   5.081  0.6659  1.7350  0.1134
  747THF    H1111149   2.792   1.537   5.013  0.8380 -0.7239 -0.2191
  747THF    H1211150   2.873   1.592   5.241 -1.3720  1.4824 -1.0761
  747THF    H1311151   2.721   1.568   5.307  0.3195 -0.3121 -0.4854
  748THF     O111152   1.822   4.615   2.259 -0.8967 -0.0602 -0.5115
  748THF     C211153   1.809   4.476   2.255  0.1581  0.0712 -1.1223
  748THF     C311154   1.705   4.676   2.204  0.5611  0.1528  0.0265
  748THF     H411155   1.878   4.422   2.320 -2.2134 -0.8229  0.8144
  748THF     H511156   1.823   4.428   2.158  2.5981 -0.6837 -0.4631
  748THF     H611157   1.683   4.776   2.241 -1.0488 -0.0720 -0.2509
  748THF     H711158   1.708   4.681   2.095 -1.9459  2.3174 -0.0427
  748THF     C811159   1.597   4.588   2.273 -0.3648 -0.1194  0.0440
  748THF     C911160   1.662   4.457   2.289  0.5892  0.3207 -0.4758
  748THF    H1011161   1.502   4.586   2.220 -0.9759  0.3801  1.0925
  748THF    H1111162   1.566   4.622   2.372  2.2014 -0.5044  1.0606
  748THF    H1211163   1.647   4.427   2.393 -1.6996  1.2585 -0.4763
  748THF    H1311164   1.599   4.385   2.236 -0.1737  0.8600 -0.3086
  749THF     O111165   2.188   3.819   5.227  0.0941 -0.2292 -0.3758
  749THF     C211166   2.059   3.876   5.254 -0.2636  0.5847 -0.6250
  749THF     C311167   2.284   3.893   5.303  0.5182 -0.3744 -0.1586
  749THF     H411168   1.982   3.813   5.211  1.3316 -0.7142 -1.7233
  749THF     H511169   2.052   3.978   5.216 -0.6020  1.8630  2.5423
  749THF     H611170   2.388   3.859   5.307  0.7727 -0.2067 -3.2007
  749THF     H711171   2.283   3.998   5.271 -1.9036 -0.0475  0.7464
  749THF     C811172   2.213   3.894   5.435  0.0863 -0.5544  0.0635
  749THF     C911173   2.063   3.890   5.406 -0.1527 -0.4261 -0.5958
  749THF    H1011174   2.243   3.970   5.508  0.1474  0.6588 -1.1776
  749THF    H1111175   2.235   3.796   5.476 -0.7048 -0.9198 -0.3771
  749THF    H1211176   2.018   3.808   5.461  2.4976 -1.8567 -0.3976
  749THF    H1311177   2.020   3.986   5.434 -0.0223 -0.0944 -1.4745
  750THF     O111178   1.058   3.300   2.586 -0.1068  0.0440 -0.1788
  750THF     C211179   0.990   3.317   2.707 -0.8142  0.2652  0.7835
  750THF     C311180   1.048   3.165   2.551 -0.0678 -0.3961 -0.3584
  750THF     H411181   0.976   3.424   2.726  1.2931  0.6681  0.3114
  750THF     H511182   1.059   3.274   2.780  0.2103  0.3375 -0.1237
  750THF     H611183   1.043   3.129   2.448 -0.4703 -0.7420 -0.2219
  750THF     H711184   1.139   3.130   2.600  0.4822 -0.5562 -1.4465
  750THF     C811185   0.925   3.112   2.618  0.8648 -0.3104  0.4749
  750THF     C911186   0.870   3.232   2.688 -0.7806  0.2422  0.0908
  750THF    H1011187   0.958   3.036   2.689  0.4397 -1.6755 -0.7461
  750THF    H1111188   0.854   3.064   2.550  0.7126 -2.1333  1.8369
  750THF    H1211189   0.794   3.289   2.634 -1.1417 -2.0304 -1.9455
  750THF    H1311190   0.822   3.213   2.784  1.1369  3.2503  1.8106
  751THF     O111191   4.916   5.149   1.571  0.0260  0.4557  0.2677
  751THF     C211192   4.958   5.033   1.510  0.2617  0.9054 -0.4592
  751THF     C311193   4.986   5.153   1.693 -0.4737  0.7886 -0.5026
  751THF     H411194   5.062   5.042   1.478  0.5660 -1.8719 -0.5482
  751THF     H511195   4.903   5.005   1.420  1.0117 -1.6979 -0.1949
  751THF     H611196   5.080   5.208   1.685 -0.3801  1.0588  1.8165
  751THF     H711197   4.921   5.210   1.759 -0.4421 -0.6399  0.8403
  751THF     C811198   5.020   5.008   1.737  0.7171  0.0741 -0.1614
  751THF     C911199   4.956   4.923   1.622 -0.3011 -0.5835 -0.3081
  751THF    H1011200   4.970   4.972   1.827 -2.2321  1.0092 -1.3168
  751THF    H1111201   5.126   4.999   1.760  0.5502  0.3593  0.7475
  751THF    H1211202   5.007   4.830   1.599 -0.6783 -1.4232  2.0065
  751THF    H1311203   4.852   4.905   1.649  0.2632 -0.9638  1.8183
  752THF     O111204   0.557   2.211   5.141 -0.2356  0.4581 -0.3340
  752THF     C211205   0.558   2.079   5.091  0.5669  0.4343 -0.4338
  752THF     C311206   0.428   2.269   5.129 -0.3787 -0.1064  0.1661
  752THF     H411207   0.646   2.034   5.138  0.6788  0.7676 -0.3225
  752THF     H511208   0.571   2.073   4.982 -0.8973  0.6181 -0.6343
  752THF     H611209   0.422   2.350   5.202 -1.2383  0.4648 -0.5197
  752THF     H711210   0.406   2.307   5.029  0.5239  0.5510  0.2037
  752THF     C811211   0.333   2.153   5.170  0.5873  0.8248 -0.4469
  752THF     C911212   0.420   2.030   5.123  0.4673  0.2461  0.2056
  752THF    H1011213   0.243   2.156   5.108  0.0325  2.3272  0.3812
  752THF    H1111214   0.302   2.143   5.274 -2.5952 -1.4144 -1.4074
  752THF    H1211215   0.425   1.951   5.198  1.7229 -1.6715 -1.7775
  752THF    H1311216   0.381   1.992   5.029  0.4030 -1.4543  0.8843
  753THF     O111217   1.139   1.958   0.059  0.0703  0.6234  0.2638
  753THF     C211218   1.033   1.892  -0.011 -0.5071  0.0379 -0.8804
  753THF     C311219   1.256   1.930  -0.028  0.2949 -0.3296 -0.2241
  753THF     H411220   0.996   1.963  -0.085  0.3521  0.2168 -1.1437
  753THF     H511221   0.947   1.866   0.051 -0.9154 -0.8240 -1.7843
  753THF     H611222   1.269   1.996  -0.114  0.8106 -0.8944 -0.5918
  753THF     H711223   1.344   1.946   0.035 -0.0644 -0.9572  0.4532
  753THF     C811224   1.238   1.785  -0.070  0.5539 -0.2069  0.1267
  753THF     C911225   1.092   1.776  -0.086  0.7263 -0.1999 -0.0587
  753THF    H1011226   1.267   1.718   0.011  1.0882 -1.1786 -0.8515
  753THF    H1111227   1.287   1.765  -0.165  0.8182  0.6802  0.0609
  753THF    H1211228   1.061   1.770  -0.190 -0.0072  0.7784  0.0860
  753THF    H1311229   1.060   1.684  -0.036 -0.4069  0.8078  1.1494
  754THF     O111230   2.825   1.271   4.721  0.7486 -0.3231 -0.0889
  754THF     C211231   2.969   1.276   4.731  0.1496 -0.2528 -0.0137
  754THF     C311232   2.790   1.158   4.642 -0.2051 -0.2539  0.3800
  754THF     H411233   3.010   1.203   4.800 -2.1571 -0.4077  1.2878
  754THF     H511234   2.995   1.377   4.764  0.3611 -0.4332  0.3665
  754THF     H611235   2.814   1.084   4.718 -0.3709 -0.0045  0.6780
  754THF     H711236   2.686   1.168   4.610 -0.1037 -0.0434  0.1064
  754THF     C811237   2.901   1.147   4.533 -0.3324 -0.8235 -0.4187
  754THF     C911238   2.996   1.262   4.582 -0.0737  0.1548 -0.3573
  754THF    H1011239   2.865   1.171   4.432 -1.2525  1.2919  0.3478
  754THF    H1111240   2.944   1.047   4.538 -0.8367 -0.9939  4.2144
  754THF    H1211241   3.098   1.227   4.565 -0.3298 -0.6036 -0.3845
  754THF    H1311242   2.984   1.350   4.519  0.8301 -0.1909 -1.0332
  755THF     O111243   5.177   0.276   0.044 -0.2806 -0.5636 -0.8375
  755THF     C211244   5.049   0.317   0.073  0.8024  0.0632 -0.8897
  755THF     C311245   5.180   0.134   0.048 -0.8281  0.2247  0.0362
  755THF     H411246   4.977   0.309  -0.008  1.8513  2.2866 -2.1415
  755THF     H511247   5.048   0.421   0.108  0.4470 -0.5996  1.2153
  755THF     H611248   5.156   0.101  -0.053 -0.4972  1.7684 -0.5721
  755THF     H711249   5.279   0.094   0.070 -1.8295 -2.4007  0.1570
  755THF     C811250   5.074   0.089   0.149 -0.2695 -0.4195 -0.2550
  755THF     C911251   5.010   0.223   0.189 -0.4295  0.3521  0.0287
  755THF    H1011252   5.128   0.050   0.235 -0.5847 -0.8400 -0.2425
  755THF    H1111253   5.007   0.014   0.106 -1.9886  0.9253 -0.0165
  755THF    H1211254   4.901   0.220   0.201 -0.6770 -2.8223 -1.9307
  755THF    H1311255   5.043   0.259   0.286 -0.2200 -0.3512  0.2216
  756THF     O111256   0.190   1.064   2.836 -0.2467 -0.2820  0.6124
  756THF     C211257   0.087   1.000   2.905 -0.2986  0.0387  0.3767
  756THF     C311258   0.205   1.200   2.876 -0.4514 -0.1892 -1.0648
  756THF     H411259   0.127   0.965   3.001 -0.0760  0.7934  0.5698
  756THF     H511260   0.049   0.910   2.856 -0.1693 -0.6098  1.4306
  756THF     H611261   0.245   1.206   2.977  1.5147  1.1503 -1.8709
  756THF     H711262   0.264   1.266   2.813  0.1945  0.1504 -0.1278
  756THF     C811263   0.057   1.235   2.881 -0.1186  0.2173  0.1585
  756THF     C911264  -0.013   1.109   2.933  0.3578  0.1841 -0.0142
  756THF    H1011265   0.014   1.242   2.782 -0.7751  0.4342  0.4566
  756THF    H1111266   0.019   1.325   2.929  0.2791 -0.5855  2.0731
  756THF    H1211267  -0.019   1.116   3.042  2.9488 -0.9634  0.2733
  756THF    H1311268  -0.113   1.098   2.891 -0.0996 -2.2542  1.4784
  757THF     O111269   4.292   2.884   2.614  0.5254 -0.0488 -0.5035
  757THF     C211270   4.201   2.985   2.586  0.3206 -0.5988  0.3715
  757THF     C311271   4.283   2.867   2.756 -0.5947  0.1217  0.6307
  757THF     H411272   4.178   2.986   2.479 -1.0316  1.3861  0.6259
  757THF     H511273   4.245   3.079   2.618 -0.1137 -1.1315  2.6909
  757THF     H611274   4.338   2.774   2.765  0.8627  0.7821 -0.9365
  757THF     H711275   4.330   2.955   2.800  1.7251 -1.0068  0.5251
  757THF     C811276   4.130   2.864   2.780  0.2503 -0.0988 -0.4035
  757THF     C911277   4.082   2.963   2.680  0.0167  0.5983  0.0478
  757THF    H1011278   4.092   2.899   2.876 -1.0702 -0.3913 -0.7998
  757THF    H1111279   4.087   2.768   2.751  0.7446 -0.3797 -0.2104
  757THF    H1211280   4.008   2.913   2.618 -0.4139  0.6592  0.4956
  757THF    H1311281   4.034   3.051   2.725 -1.5096  0.2255 -0.7869
  758THF     O111282   1.219   3.842   1.317  0.1645 -0.7955 -0.1757
  758THF     C211283   1.105   3.812   1.233  0.6897 -0.0564 -0.5129
  758THF     C311284   1.176   3.809   1.447  0.2479 -0.1646 -0.0079
  758THF     H411285   1.088   3.704   1.232 -2.8761  0.3794 -0.0433
  758THF     H511286   1.125   3.839   1.130 -0.4743 -0.1914 -0.7868
  758THF     H611287   1.147   3.705   1.460 -0.6065  0.0595 -0.0797
  758THF     H711288   1.255   3.834   1.518  1.0257  2.8858 -1.7134
  758THF     C811289   1.051   3.901   1.453 -0.0929 -0.0848 -0.5626
  758THF     C911290   0.988   3.879   1.309 -0.6253 -0.2480 -0.1552
  758THF    H1011291   1.087   4.003   1.465 -2.1014  0.3213  4.0690
  758THF    H1111292   0.986   3.899   1.541  1.1730 -1.6441  0.4027
  758THF    H1211293   0.897   3.819   1.300 -0.1720 -0.6553 -2.6332
  758THF    H1311294   0.968   3.976   1.263 -0.4055  0.2650  0.7982
  759THF     O111295   4.706   0.826   3.420  0.0186  0.0667  0.2059
  759THF     C211296   4.624   0.757   3.322 -0.0754 -0.0123 -0.4730
  759THF     C311297   4.780   0.726   3.505 -0.8047 -0.7560  0.4085
  759THF     H411298   4.664   0.774   3.222  1.0737  4.1775  0.4889
  759THF     H511299   4.521   0.793   3.325 -0.0950 -0.1401  1.4782
  759THF     H611300   4.872   0.711   3.448 -0.2731 -1.2291  1.3519
  759THF     H711301   4.821   0.778   3.592  1.0722 -1.4170 -0.0325
  759THF     C811302   4.670   0.625   3.518 -0.5949 -0.2155 -0.3506
  759THF     C911303   4.626   0.617   3.374  0.5427 -0.2237  0.3394
  759THF    H1011304   4.600   0.671   3.588  1.9761  1.0105  1.5858
  759THF    H1111305   4.702   0.530   3.560  0.8619 -0.2410 -1.4360
  759THF    H1211306   4.707   0.566   3.321  1.7632  2.7268 -0.8585
  759THF    H1311307   4.532   0.563   3.364 -0.4312  1.4452  0.3038
  760THF     O111308   0.971   4.554   4.302 -0.1058  0.0376 -0.6775
  760THF     C211309   0.873   4.455   4.269 -0.7171 -0.0195  0.5688
  760THF     C311310   1.104   4.501   4.272  0.4429  0.6543  0.2270
  760THF     H411311   0.780   4.494   4.228  1.1153  3.2632 -0.8155
  760THF     H511312   0.832   4.409   4.358 -1.5070 -1.2715 -0.4106
  760THF     H611313   1.165   4.583   4.236  1.9347 -0.6329 -0.2711
  760THF     H711314   1.162   4.451   4.349  2.9661  0.9196 -1.3932
  760THF     C811315   1.075   4.403   4.163  0.1519 -0.5302 -0.2372
  760THF     C911316   0.934   4.352   4.182  0.1258  0.4103 -0.4748
  760THF    H1011317   1.153   4.327   4.159  0.7342  0.0920 -0.9136
  760THF    H1111318   1.093   4.462   4.073  1.7018  0.8676  0.9454
  760THF    H1211319   0.876   4.334   4.091 -2.4107  1.2167  0.8613
  760THF    H1311320   0.943   4.259   4.239  0.7582 -0.1426 -1.4613
  761THF     O111321   1.510   2.829   5.025 -0.3807  0.2061 -0.2144
  761THF     C211322   1.378   2.831   4.972  0.4443  0.1583 -0.4472
  761THF     C311323   1.518   2.719   5.118 -0.6388 -0.1219  0.2190
  761THF     H411324   1.367   2.751   4.899 -2.5173  0.9273 -1.0030
  761THF     H511325   1.369   2.928   4.923 -0.3125  0.8108  0.9289
  761THF     H611326   1.546   2.627   5.067 -1.1180 -0.4535  0.5427
  761THF     H711327   1.591   2.742   5.196 -0.5336  0.3057 -0.0038
  761THF     C811328   1.375   2.718   5.174 -0.5806  0.1669  0.2205
  761THF     C911329   1.294   2.816   5.093  0.6267 -0.0924  0.2110
  761THF    H1011330   1.372   2.730   5.283  0.4079 -1.4693  0.4735
  761THF    H1111331   1.336   2.616   5.167  0.1197 -0.0292 -1.1924
  761THF    H1211332   1.196   2.780   5.064  0.4758 -0.7673  1.4837
  761THF    H1311333   1.304   2.908   5.150  1.4458  0.0421 -0.1231
  762THF     O111334   4.903   3.248   3.871  0.6420  0.1128  0.1070
  762THF     C211335   4.900   3.372   3.802  0.8353 -0.2167 -0.3771
  762THF     C311336   5.037   3.206   3.889 -0.2546  0.6671 -0.7490
  762THF     H411337   4.902   3.453   3.875 -2.4523  1.3159 -1.7246
  762THF     H511338   4.812   3.392   3.740  0.5748  0.4602  0.1970
  762THF     H611339   5.064   3.220   3.993 -2.3433  1.6038 -0.2748
  762THF     H711340   5.060   3.102   3.867  0.9227  0.9886 -1.0632
  762THF     C811341   5.125   3.303   3.812  0.0814  0.0647  0.0595
  762THF     C911342   5.026   3.370   3.718 -0.0522 -0.5676 -0.0896
  762THF    H1011343   5.209   3.270   3.750  0.6893  0.7718  0.4884
  762THF    H1111344   5.163   3.368   3.891 -0.3553 -1.8840  1.9782
  762THF    H1211345   5.071   3.461   3.678  0.1049 -0.4237  0.4014
  762THF    H1311346   5.008   3.312   3.628  0.3429 -0.5180 -0.2024
  763THF     O111347   1.877   5.496   3.737  1.6167 -0.2026 -0.2830
  763THF     C211348   1.852   5.617   3.801 -0.3056  0.7655  0.5114
  763THF     C311349   1.770   5.473   3.644 -0.3449 -0.1434  0.1048
  763THF     H411350   1.942   5.679   3.796 -0.9113  1.6787  0.7625
  763THF     H511351   1.822   5.604   3.905  0.9797  0.1921  0.8394
  763THF     H611352   1.796   5.409   3.560  0.2602  0.5563 -0.2533
  763THF     H711353   1.688   5.417   3.689 -0.5130 -1.3983 -1.6757
  763THF     C811354   1.716   5.612   3.602 -0.8748 -0.4879 -0.0691
  763THF     C911355   1.733   5.689   3.730  0.2264  0.4527 -0.7825
  763THF    H1011356   1.614   5.599   3.565 -1.1567 -3.4960  1.4485
  763THF    H1111357   1.776   5.667   3.529 -2.0228 -0.2053 -0.8175
  763THF    H1211358   1.747   5.795   3.712  0.6770  0.6327  0.5804
  763THF    H1311359   1.641   5.676   3.786  1.8635  0.9899  2.1992
  764THF     O111360   1.728   4.176   1.559 -0.3298 -0.3208  0.0892
  764THF     C211361   1.610   4.191   1.478 -0.5490  0.9584  0.1816
  764THF     C311362   1.809   4.074   1.515 -0.5471 -0.5468  0.6538
  764THF     H411363   1.619   4.274   1.408  0.9650 -0.7342 -1.7424
  764THF     H511364   1.523   4.208   1.541  1.1232  0.4973  2.7955
  764THF     H611365   1.880   4.112   1.441 -0.0883 -0.9539  0.8749
  764THF     H711366   1.865   4.027   1.596 -0.3923 -0.6518  0.4867
  764THF     C811367   1.709   3.975   1.456  0.0665  0.7245 -0.3017
  764THF     C911368   1.602   4.061   1.396  0.0821 -0.1729  0.2767
  764THF    H1011369   1.676   3.911   1.537  0.2244  1.1992  0.1395
  764THF    H1111370   1.756   3.919   1.375  1.2443  0.9020  0.2292
  764THF    H1211371   1.628   4.081   1.292  1.4019 -1.0538  0.4047
  764THF    H1311372   1.507   4.009   1.406  0.9482 -1.5676  1.8918
  765THF     O111373   0.244   3.605   4.039 -0.1191  0.2606  0.4043
  765THF     C211374   0.141   3.506   4.014  0.0599 -1.1847 -0.2672
  765THF     C311375   0.266   3.655   3.914 -0.0621 -0.3167  0.9805
  765THF     H411376   0.046   3.555   3.991  1.2320  1.5731  0.2941
  765THF     H511377   0.114   3.447   4.102 -2.5775 -1.7285 -1.3339
  765THF     H611378   0.178   3.719   3.901  0.5148  0.2890 -0.0736
  765THF     H711379   0.356   3.716   3.904  0.6686 -1.3890  0.9620
  765THF     C811380   0.267   3.536   3.815 -0.0750 -0.6048  0.5146
  765THF     C911381   0.186   3.435   3.887  0.4967  0.0738 -0.2551
  765THF    H1011382   0.367   3.499   3.794 -0.1998  0.6824 -2.9759
  765THF    H1111383   0.217   3.571   3.724  0.6161  1.4844  0.8990
  765THF    H1211384   0.091   3.407   3.843  0.4313 -0.0656 -0.0236
  765THF    H1311385   0.236   3.345   3.923 -0.0484  0.1922  0.8513
  766THF     O111386   0.636   1.087   1.903  1.0024  0.7963  0.1680
  766THF     C211387   0.747   1.013   1.954  0.4799  0.2940  0.4656
  766THF     C311388   0.622   1.202   1.982 -0.1953  0.4558  0.0579
  766THF     H411389   0.818   1.009   1.871  0.3463  0.1992  0.3550
  766THF     H511390   0.721   0.909   1.973 -1.7589  0.1437 -2.6893
  766THF     H611391   0.587   1.289   1.926  0.7553  1.0627  0.3984
  766THF     H711392   0.560   1.174   2.067  2.1305  1.0541  2.0228
  766THF     C811393   0.757   1.231   2.038 -0.3695 -0.1052  0.7492
  766THF     C911394   0.807   1.092   2.066  0.2561  0.2743  0.0536
  766THF    H1011395   0.767   1.297   2.124 -2.1450 -1.5892  2.1872
  766THF    H1111396   0.820   1.280   1.963  1.4336 -0.0587  2.2328
  766THF    H1211397   0.914   1.088   2.046 -0.0303  1.7779 -2.0878
  766THF    H1311398   0.787   1.050   2.165 -0.6687  0.3338 -0.0988
  767THF     O111399   4.933   1.074   4.511 -0.1884  0.2836  0.2376
  767THF     C211400   5.033   1.148   4.450 -0.6814  0.1349 -0.4599
  767THF     C311401   4.993   1.013   4.627  0.1682  0.6440  0.2952
  767THF     H411402   5.045   1.236   4.514  0.6301 -0.5986  0.3599
  767THF     H511403   4.985   1.181   4.358  0.3407  1.5487 -0.5168
  767THF     H611404   4.987   1.080   4.713 -2.8238  0.1708  0.5613
  767THF     H711405   4.938   0.924   4.658  0.7993  0.4972  1.0432
  767THF     C811406   5.138   0.978   4.583  0.4973  1.0968 -0.3469
  767THF     C911407   5.162   1.071   4.465 -0.0605 -0.7284 -0.2328
  767THF    H1011408   5.153   0.872   4.565 -0.4140  0.2191  3.2175
  767THF    H1111409   5.210   1.003   4.661  0.4823  1.6385 -0.4998
  767THF    H1211410   5.241   1.141   4.492 -2.2163  0.6887  2.9701
  767THF    H1311411   5.190   1.021   4.372  1.4399  0.8524 -0.6809
  768THF     O111412   5.059   0.780   2.614  0.3085 -0.0824  0.3070
  768THF     C211413   5.089   0.833   2.491 -0.3160  0.5670  0.1352
  768THF     C311414   4.925   0.732   2.615 -0.1479 -0.1183 -0.2503
  768THF     H411415   5.110   0.744   2.432 -1.2036  0.1034  0.4977
  768THF     H511416   5.167   0.908   2.486 -0.2626  0.4490 -1.2432
  768THF     H611417   4.930   0.637   2.562 -1.0557 -0.4968  0.3102
  768THF     H711418   4.892   0.706   2.716 -1.5006 -1.1077 -0.9217
  768THF     C811419   4.848   0.838   2.533 -0.2669  0.0567  0.3632
  768THF     C911420   4.955   0.891   2.432  0.6526 -0.5811  0.4581
  768THF    H1011421   4.814   0.914   2.603  1.2957  0.3733  0.8087
  768THF    H1111422   4.752   0.804   2.493  0.0529 -0.2390 -0.1626
  768THF    H1211423   4.940   0.848   2.333  1.3745 -0.0616  0.1101
  768THF    H1311424   4.954   0.999   2.428 -1.8193 -0.5279  0.9441
  769THF     O111425   2.851   2.925   1.476  0.8075  0.1469 -0.3461
  769THF     C211426   2.724   2.869   1.477 -0.1861  0.2204 -0.0780
  769THF     C311427   2.863   3.007   1.593 -0.3082 -0.1452  0.4868
  769THF     H411428   2.723   2.783   1.409  1.0334 -0.1864  0.3792
  769THF     H511429   2.652   2.938   1.435 -1.8734 -0.2490  1.8693
  769THF     H611430   2.965   3.021   1.629 -0.0118 -1.6093  0.2922
  769THF     H711431   2.818   3.105   1.577  0.4757  0.1239 -0.1381
  769THF     C811432   2.782   2.927   1.695  0.9931  0.5235 -0.5983
  769THF     C911433   2.692   2.828   1.620 -0.0829  0.2171 -0.7098
  769THF    H1011434   2.717   2.993   1.754  2.1564  0.0423  1.2740
  769THF    H1111435   2.850   2.892   1.772  2.6049  2.9545 -0.7848
  769THF    H1211436   2.730   2.727   1.634 -1.4996 -0.0922  1.3650
  769THF    H1311437   2.585   2.836   1.641  0.0193  1.5847 -0.6401
  770THF     O111438   0.372   2.155   3.745  0.2093 -0.2707 -0.1335
  770THF     C211439   0.225   2.152   3.732 -0.3355 -0.6110 -0.0214
  770THF     C311440   0.420   2.280   3.711 -0.1643 -0.1443  0.1282
  770THF     H411441   0.174   2.119   3.822  0.5717 -0.2422  0.6391
  770THF     H511442   0.193   2.084   3.653 -1.7661 -1.1818  0.9995
  770THF     H611443   0.452   2.328   3.804  0.1564 -0.3673  0.1359
  770THF     H711444   0.512   2.277   3.652 -1.1126 -2.2717 -1.3620
  770THF     C811445   0.298   2.359   3.653  0.3097 -0.6589  0.5453
  770THF     C911446   0.183   2.296   3.728 -0.5737 -0.4007 -0.1421
  770THF    H1011447   0.303   2.338   3.546  1.5960  2.7967 -0.2175
  770THF    H1111448   0.304   2.464   3.680  0.3744 -0.0153 -1.7557
  770THF    H1211449   0.189   2.329   3.832  2.3779 -0.8259 -0.0968
  770THF    H1311450   0.085   2.319   3.688  0.0088 -0.0697 -1.4226
  771THF     O111451   3.480   3.050   1.860  0.4545 -0.4200  0.3718
  771THF     C211452   3.615   3.001   1.841  0.0778 -0.0892 -0.1157
  771THF     C311453   3.464   3.171   1.789  0.7433  0.0587 -0.9795
  771THF     H411454   3.621   2.965   1.738  0.6990 -0.9668  0.2095
  771THF     H511455   3.637   2.922   1.913  0.9249 -1.7918 -2.1382
  771THF     H611456   3.467   3.158   1.681  0.5325 -1.8637 -0.7925
  771THF     H711457   3.375   3.224   1.821  1.4874  2.5280 -2.6761
  771THF     C811458   3.592   3.238   1.817 -0.1575  0.0748  0.4134
  771THF     C911459   3.694   3.132   1.863  0.2346 -0.5800 -0.4261
  771THF    H1011460   3.570   3.301   1.903  2.1696  0.2829  0.9402
  771THF    H1111461   3.623   3.301   1.734 -1.0678  2.9365  2.1107
  771THF    H1211462   3.788   3.137   1.807  0.4353 -1.0113 -0.1302
  771THF    H1311463   3.723   3.144   1.967  0.9064 -2.2793 -0.3776
  772THF     O111464   3.163   2.952   3.809  0.1535  0.0399  0.3369
  772THF     C211465   3.283   3.034   3.809  0.2365 -0.2766  0.2239
  772THF     C311466   3.073   2.995   3.704 -1.0319  0.0014 -0.3947
  772THF     H411467   3.372   2.972   3.798  1.4467  1.2000  1.2856
  772THF     H511468   3.292   3.092   3.901  1.1838  0.2098 -0.1572
  772THF     H611469   3.021   2.908   3.664  0.2663 -2.0589  2.0761
  772THF     H711470   2.991   3.059   3.735 -2.2235 -1.5316 -0.2519
  772THF     C811471   3.171   3.053   3.598  0.2972  0.4139  0.4805
  772THF     C911472   3.276   3.120   3.683 -0.0951 -0.2700 -0.9337
  772THF    H1011473   3.123   3.115   3.522  1.0764  0.0236 -0.3461
  772THF    H1111474   3.216   2.970   3.543 -1.2569  2.6554 -4.8543
  772THF    H1211475   3.376   3.140   3.642  0.6135  1.2286  1.3445
  772THF    H1311476   3.247   3.222   3.711  0.2599  0.2255 -2.2604
  773THF     O111477   1.534   3.367   5.247  0.1391 -0.4760 -0.1956
  773THF     C211478   1.596   3.240   5.213 -0.5204 -0.6759 -0.5239
  773THF     C311479   1.535   3.448   5.131  1.1705 -0.1935  0.2588
  773THF     H411480   1.511   3.176   5.191 -0.2596 -1.4359  0.5958
  773THF     H511481   1.649   3.203   5.301 -0.8083 -2.6057 -1.1083
  773THF     H611482   1.445   3.428   5.073  1.4723 -0.1585 -0.2239
  773THF     H711483   1.532   3.552   5.166  0.8655 -1.0824  3.2047
  773THF     C811484   1.658   3.399   5.049  0.4140 -0.2020  0.3552
  773THF     C911485   1.680   3.256   5.086 -0.3361  0.3409  0.2089
  773THF    H1011486   1.746   3.462   5.058  0.5513  0.1175 -2.2426
  773THF    H1111487   1.628   3.400   4.944 -0.5234 -0.0485  0.6180
  773THF    H1211488   1.651   3.186   5.007  0.8634 -1.5085  1.3200
  773THF    H1311489   1.787   3.238   5.096 -0.5001  0.0019  1.5922
  774THF     O111490   3.968   4.251   2.118  0.2880  0.0858  0.0432
  774THF     C211491   3.976   4.141   2.197  0.2003  0.4430 -0.0739
  774THF     C311492   3.832   4.269   2.090 -0.7505 -0.4619 -0.0564
  774THF     H411493   4.063   4.132   2.263 -0.5565  1.6046  1.1327
  774THF     H511494   3.962   4.061   2.125 -1.8255 -0.2540  1.0154
  774THF     H611495   3.830   4.366   2.039  0.9642 -0.7205 -0.7064
  774THF     H711496   3.795   4.194   2.020  0.5533  2.1136 -3.8721
  774THF     C811497   3.778   4.259   2.236 -0.4495 -0.6251 -0.5310
  774THF     C911498   3.857   4.142   2.287 -0.6346  0.3147 -0.0834
  774THF    H1011499   3.672   4.238   2.246 -0.4826  0.3670  2.2002
  774THF    H1111500   3.791   4.354   2.288  3.0487 -2.4367  2.3751
  774THF    H1211501   3.864   4.151   2.396 -3.1885  1.7168  0.0486
  774THF    H1311502   3.805   4.047   2.277  2.3675 -1.5928  0.8282
  775THF     O111503   1.159   3.545   5.471 -0.2157 -0.2411  0.2164
  775THF     C211504   1.291   3.553   5.413 -0.2315 -0.0532 -0.6403
  775THF     C311505   1.174   3.555   5.612  0.1855  0.2385 -0.4801
  775THF     H411506   1.323   3.657   5.406 -2.1331  0.8193  2.1312
  775THF     H511507   1.299   3.509   5.313 -1.1422 -4.0323  0.8743
  775THF     H611508   1.141   3.657   5.632  1.8547  0.5864  0.6486
  775THF     H711509   1.091   3.510   5.666 -0.7254  0.6642 -1.4915
  775THF     C811510   1.313   3.518   5.651  0.1061 -0.6618  0.2041
  775THF     C911511   1.372   3.478   5.512 -0.1432  0.3764  0.4138
  775THF    H1011512   1.306   3.427   5.711  2.1072 -2.1991 -1.6926
  775THF    H1111513   1.364   3.591   5.714  0.6166 -1.4489  0.7279
  775THF    H1211514   1.474   3.515   5.503 -0.6752  1.4374 -2.0476
  775THF    H1311515   1.372   3.369   5.505 -1.1232  0.3600  0.4595
  776THF     O111516   3.661   1.038   5.255  0.2085 -0.0565 -0.2255
  776THF     C211517   3.618   1.157   5.194 -0.0458 -0.5264 -0.5343
  776THF     C311518   3.551   0.956   5.248  0.3572  0.5411  0.4110
  776THF     H411519   3.701   1.216   5.155 -1.7558  0.3172 -3.1822
  776THF     H511520   3.559   1.215   5.266  2.6828  0.4581  1.0613
  776THF     H611521   3.575   0.852   5.269 -2.2677 -0.6224 -1.7376
  776THF     H711522   3.468   0.986   5.312  0.0460  0.2473  0.1478
  776THF     C811523   3.516   0.970   5.099  0.4886  0.3029  0.0572
  776THF     C911524   3.526   1.123   5.080 -0.3904  0.4965 -0.1958
  776THF    H1011525   3.416   0.932   5.078  0.1682  0.5860  1.0372
  776THF    H1111526   3.586   0.926   5.029 -0.8827 -0.9668 -0.5748
  776THF    H1211527   3.585   1.149   4.992 -1.2395  1.2576 -0.5566
  776THF    H1311528   3.429   1.170   5.097 -1.3050 -1.8744  1.7433
  777THF     O111529   4.183   3.921   2.449 -0.8549  0.3533 -0.4302
  777THF     C211530   4.215   4.024   2.541 -0.3995  1.0372  0.1832
  777THF     C311531   4.197   3.796   2.517  0.1427  0.9412 -0.1171
  777THF     H411532   4.154   4.105   2.501 -0.1854  1.2648  0.3186
  777THF     H511533   4.313   4.069   2.555 -0.6160  2.0102 -1.1728
  777THF     H611534   4.154   3.712   2.463  2.5673  0.1416 -0.9298
  777THF     H711535   4.303   3.771   2.528  0.2987  1.2612 -0.8609
  777THF     C811536   4.123   3.831   2.643  0.2159  0.2291 -0.0598
  777THF     C911537   4.157   3.977   2.673  0.1415  1.0924  0.1550
  777THF    H1011538   4.158   3.770   2.727  0.7584 -0.3386 -0.6846
  777THF    H1111539   4.017   3.813   2.627  0.5473 -1.6133 -0.4595
  777THF    H1211540   4.063   4.027   2.699  0.4015  1.3543  0.5897
  777THF    H1311541   4.232   3.987   2.751  0.2609  0.1290  0.1870
  778THF     O111542   0.399   2.123   4.213  0.1290  0.1719 -0.5894
  778THF     C211543   0.314   2.090   4.108  0.3844 -0.1429  0.5212
  778THF     C311544   0.318   2.178   4.316 -0.0880 -0.3764  0.3562
  778THF     H411545   0.270   1.991   4.119  1.0271 -0.7618 -1.8861
  778THF     H511546   0.360   2.084   4.009 -1.2816 -1.3136 -0.2452
  778THF     H611547   0.261   2.100   4.367 -2.3998 -1.6595 -3.7054
  778THF     H711548   0.377   2.233   4.389 -0.8859  0.5087  0.3487
  778THF     C811549   0.227   2.260   4.246  0.0966 -0.2928  0.3033
  778THF     C911550   0.197   2.186   4.117  0.8898 -0.4314 -0.4484
  778THF    H1011551   0.291   2.347   4.227  1.4567 -1.0733  1.2140
  778THF    H1111552   0.135   2.277   4.302 -0.3903 -1.2570 -0.1869
  778THF    H1211553   0.100   2.136   4.125  0.2253  1.1630  2.5437
  778THF    H1311554   0.186   2.251   4.030  0.9646  1.6670  1.0536
  779THF     O111555   4.243   3.911   4.410  0.3408  0.0212  0.0824
  779THF     C211556   4.195   3.985   4.297 -0.1197 -0.2421  0.3085
  779THF     C311557   4.298   3.785   4.362  0.3034 -0.4454  0.5571
  779THF     H411558   4.205   4.092   4.312 -1.0539 -0.0636 -0.2083
  779THF     H511559   4.094   3.958   4.266 -0.1382  3.6389 -4.2511
  779THF     H611560   4.394   3.756   4.406  1.1761  1.1773 -0.1762
  779THF     H711561   4.235   3.705   4.400  1.8939 -2.1804 -0.2560
  779THF     C811562   4.315   3.805   4.210 -0.3171  0.1374 -0.3361
  779THF     C911563   4.296   3.953   4.185 -0.0764 -0.0062 -0.7111
  779THF    H1011564   4.242   3.748   4.152  0.4245 -0.9168 -0.2677
  779THF    H1111565   4.418   3.777   4.189 -0.3405 -0.7103  0.6081
  779THF    H1211566   4.388   4.010   4.199 -0.4290  0.5831 -0.7670
  779THF    H1311567   4.263   3.967   4.082 -2.1573  0.6098  0.0054
  780THF     O111568   2.500   5.442   2.263 -0.0794 -0.3280  0.2061
  780THF     C211569   2.489   5.567   2.202 -0.4567 -0.1092  0.1738
  780THF     C311570   2.628   5.439   2.336 -0.1605 -0.0764 -0.1226
  780THF     H411571   2.393   5.608   2.170 -0.4858 -0.1593  0.1972
  780THF     H511572   2.559   5.582   2.120  1.8095 -0.1269  1.9931
  780THF     H611573   2.624   5.384   2.429  1.0887  0.6691  0.4119
  780THF     H711574   2.704   5.402   2.267  1.2416  3.6485 -0.8696
  780THF     C811575   2.659   5.589   2.371  0.6635  0.4287  0.2913
  780THF     C911576   2.533   5.655   2.314  0.5260 -0.4370  0.6566
  780THF    H1011577   2.741   5.626   2.310  0.9950 -1.8786 -0.7519
  780THF    H1111578   2.677   5.612   2.476  0.9483 -0.1516  0.3713
  780THF    H1211579   2.449   5.647   2.383 -0.6906 -0.7451 -0.8023
  780THF    H1311580   2.533   5.760   2.286 -1.0060 -0.0137  2.1417
  781THF     O111581   2.644   1.646   4.507 -0.2781  0.1216 -0.1128
  781THF     C211582   2.697   1.516   4.533 -0.1357 -0.7915  0.0571
  781THF     C311583   2.627   1.648   4.366 -0.2401 -0.7014 -0.4045
  781THF     H411584   2.684   1.483   4.637 -1.8409 -0.4920 -0.0334
  781THF     H511585   2.804   1.519   4.511  0.0635  2.3914  0.8874
  781THF     H611586   2.566   1.733   4.334 -0.3801  0.5531  2.8442
  781THF     H711587   2.728   1.659   4.325  1.1326 -0.8946  2.6697
  781THF     C811588   2.567   1.517   4.333  0.1802  0.5264 -0.3460
  781THF     C911589   2.627   1.424   4.438 -0.5819 -0.7990  0.0515
  781THF    H1011590   2.580   1.493   4.228 -0.9067 -1.1385 -0.1398
  781THF    H1111591   2.459   1.526   4.341  0.3636  1.3704  2.6671
  781THF    H1211592   2.544   1.374   4.488  0.2875 -1.3316  1.0178
  781THF    H1311593   2.681   1.338   4.398 -0.3679 -0.5238 -0.2547
  782THF     O111594   3.847   3.800   4.532 -0.1232  0.0843  0.4072
  782THF     C211595   3.903   3.922   4.562 -0.3820 -0.0087 -0.3213
  782THF     C311596   3.930   3.709   4.602  0.3383 -0.3947 -0.3942
  782THF     H411597   3.824   3.996   4.551 -0.7830 -0.6114 -1.8704
  782THF     H511598   3.992   3.947   4.503 -1.2627 -0.2029 -1.7910
  782THF     H611599   3.874   3.615   4.597 -0.4212 -0.0755  1.3542
  782THF     H711600   4.023   3.704   4.547  0.2871  0.7024 -0.6063
  782THF     C811601   3.941   3.758   4.737 -0.7480 -0.1014 -0.1458
  782THF     C911602   3.934   3.905   4.710  0.3409  0.2839  0.2618
  782THF    H1011603   4.039   3.735   4.779  0.2595 -0.2824 -2.4245
  782THF    H1111604   3.867   3.733   4.813  1.6219  1.9053  3.0872
  782THF    H1211605   3.853   3.943   4.772  1.5911 -1.3153  3.0442
  782THF    H1311606   4.026   3.960   4.730 -0.2839  1.7242 -0.6461
  783THF     O111607   4.505   2.462   2.888  0.7634 -0.1763  0.5156
  783THF     C211608   4.522   2.413   3.020 -0.5824 -0.5708  0.3468
  783THF     C311609   4.526   2.346   2.799  0.1863 -0.3590  0.2253
  783THF     H411610   4.491   2.484   3.097  0.6215  1.3412 -0.8712
  783THF     H511611   4.627   2.394   3.041  0.1403  1.6218 -1.0107
  783THF     H611612   4.472   2.372   2.708 -0.7771 -0.4759  0.7495
  783THF     H711613   4.635   2.341   2.790  0.1462  0.4505 -0.9769
  783THF     C811614   4.465   2.229   2.878  0.2368 -0.1498 -0.8803
  783THF     C911615   4.448   2.277   3.027  0.6505 -0.7109  0.0729
  783THF    H1011616   4.529   2.141   2.872  0.9114  0.3922 -1.9124
  783THF    H1111617   4.366   2.196   2.847 -0.2350 -1.4601  1.7299
  783THF    H1211618   4.343   2.298   3.045  0.2874 -1.8060 -0.6810
  783THF    H1311619   4.497   2.214   3.101  1.5775  0.7402  0.7454
  784THF     O111620   3.231   5.352   3.335 -0.4867 -0.4067 -0.0548
  784THF     C211621   3.279   5.354   3.199 -0.5624 -0.1041 -0.0258
  784THF     C311622   3.144   5.463   3.357  0.0896 -0.4004 -0.6426
  784THF     H411623   3.315   5.259   3.159  1.8151  0.8846 -0.3985
  784THF     H511624   3.363   5.424   3.196 -0.4917 -0.0843  1.4177
  784THF     H611625   3.057   5.418   3.404  0.8867 -0.4387  0.8485
  784THF     H711626   3.190   5.529   3.430  3.6348  0.0657 -3.0483
  784THF     C811627   3.127   5.541   3.223  0.0162  0.7015  0.0038
  784THF     C911628   3.167   5.426   3.128 -0.0768  0.0856 -0.4166
  784THF    H1011629   3.204   5.618   3.222  2.1417 -1.2416  2.0678
  784THF    H1111630   3.023   5.574   3.212  0.2150  1.2845 -0.1641
  784THF    H1211631   3.084   5.356   3.116 -0.5560  0.5490  0.1785
  784THF    H1311632   3.209   5.468   3.036  0.6208  1.4616  0.4994
  785THF     O111633   0.397   5.189   1.882  0.2442  0.5432 -0.0359
  785THF     C211634   0.476   5.275   1.960  0.2385  0.4406 -0.2834
  785THF     C311635   0.447   5.191   1.748  0.1439  0.1968 -0.4202
  785THF     H411636   0.475   5.240   2.063  0.8901 -1.3190 -0.8460
  785THF     H511637   0.415   5.363   1.941 -0.3100  0.1931  0.2731
  785THF     H611638   0.409   5.124   1.671 -1.4046 -1.5580  1.7148
  785THF     H711639   0.399   5.283   1.715 -0.1247  1.5100  3.1917
  785THF     C811640   0.604   5.208   1.767  0.3147 -0.3348  0.5831
  785THF     C911641   0.616   5.277   1.902 -0.4763  0.2047 -0.6573
  785THF    H1011642   0.652   5.235   1.673  0.7566  0.6586  1.0778
  785THF    H1111643   0.635   5.104   1.783 -1.3173 -1.2580 -1.6928
  785THF    H1211644   0.687   5.232   1.971 -0.3454 -0.4865 -1.2278
  785THF    H1311645   0.644   5.381   1.887 -1.2706  0.2789 -1.7539
  786THF     O111646   0.917   0.416   4.054 -0.4276 -0.1928  0.0934
  786THF     C211647   0.921   0.306   4.141 -0.3133  0.3979  0.2378
  786THF     C311648   0.920   0.531   4.141 -0.1346  0.0355  0.3111
  786THF     H411649   1.014   0.278   4.191  1.1792  3.0438 -0.8883
  786THF     H511650   0.882   0.218   4.091 -0.2653  0.0953  0.7215
  786THF     H611651   1.024   0.545   4.172  0.0883  2.3144 -1.2691
  786THF     H711652   0.888   0.622   4.092 -0.1742 -0.6364 -0.9393
  786THF     C811653   0.829   0.489   4.258  0.1269  0.1015  0.1076
  786THF     C911654   0.828   0.340   4.253 -0.1786  0.0069 -0.0625
  786THF    H1011655   0.733   0.540   4.251  0.7723  1.3769  0.1975
  786THF    H1111656   0.874   0.528   4.350 -0.0493  1.4404 -0.3539
  786THF    H1211657   0.844   0.273   4.338 -5.1988  0.4926  1.5783
  786THF    H1311658   0.730   0.305   4.220  0.4115 -0.1708 -1.6839
  787THF     O111659   4.930   2.570   3.208 -0.3152 -0.3012  0.1664
  787THF     C211660   4.871   2.517   3.328 -0.1272 -0.0439  0.5008
  787THF     C311661   5.055   2.501   3.185 -0.3300  0.0778  0.4820
  787THF     H411662   4.766   2.544   3.342  0.0408  2.1518 -1.7388
  787THF     H511663   4.926   2.555   3.414  1.8660  0.0680 -0.7579
  787THF     H611664   5.084   2.506   3.080  1.3162  1.1173  0.9438
  787THF     H711665   5.134   2.560   3.233  0.6619 -1.6734  1.0688
  787THF     C811666   5.038   2.360   3.228 -0.1234 -0.5031 -0.2600
  787THF     C911667   4.917   2.364   3.315  0.4662  0.1074  0.1664
  787THF    H1011668   5.128   2.312   3.269  0.0547  0.5332  0.6078
  787THF    H1111669   5.004   2.296   3.147  0.9893  0.0773 -1.2036
  787THF    H1211670   4.833   2.305   3.277 -0.8682  1.7918  0.3718
  787THF    H1311671   4.942   2.332   3.416  2.5786 -1.1051 -0.6777
  788THF     O111672   2.093   4.106   2.565  0.2962  0.4716  0.1089
  788THF     C211673   1.996   4.184   2.631  0.6811  0.0779  0.0039
  788THF     C311674   2.023   3.997   2.504  1.1432  0.0268 -0.4991
  788THF     H411675   2.041   4.284   2.632  1.1428 -0.1183 -0.3399
  788THF     H511676   1.994   4.147   2.733  3.3778 -0.3748 -0.0362
  788THF     H611677   2.085   3.951   2.427 -0.6835 -2.2623 -0.7107
  788THF     H711678   1.998   3.920   2.576  2.0934  0.1446 -0.0341
  788THF     C811679   1.891   4.063   2.454 -0.6051 -0.1250 -0.2607
  788THF     C911680   1.875   4.181   2.550 -0.3526  0.3594 -0.1265
  788THF    H1011681   1.810   3.990   2.459 -0.4549 -0.2584  0.1864
  788THF    H1111682   1.893   4.103   2.352 -3.8925  3.0554  0.6843
  788THF    H1211683   1.883   4.280   2.505  4.4797  0.8752  1.3304
  788THF    H1311684   1.781   4.180   2.605 -0.2227 -1.1271  0.1164
  789THF     O111685   5.495   1.717   2.729 -0.3989  0.3393  0.0508
  789THF     C211686   5.449   1.793   2.624  0.2008  0.1575 -0.4093
  789THF     C311687   5.477   1.575   2.703  0.0537 -0.4846  0.5616
  789THF     H411688   5.536   1.819   2.564  1.2461 -0.4839  0.7970
  789THF     H511689   5.399   1.882   2.660 -0.8323 -0.1847 -0.9284
  789THF     H611690   5.556   1.534   2.641  0.0417  0.6331 -0.2182
  789THF     H711691   5.478   1.524   2.799  1.5949  2.0488  2.0015
  789THF     C811692   5.337   1.585   2.637  1.1140  0.4448 -0.2675
  789THF     C911693   5.346   1.705   2.545  0.5597  0.6667 -0.2217
  789THF    H1011694   5.260   1.598   2.713  0.7253  0.5548 -0.6760
  789THF    H1111695   5.307   1.489   2.594 -2.1363  1.0220  0.4774
  789THF    H1211696   5.377   1.678   2.444 -1.0760 -0.4062 -0.4785
  789THF    H1311697   5.245   1.740   2.523  0.1646 -0.9284 -1.0928
  790THF     O111698   3.841   4.619   0.592  0.1981  0.6466  0.4895
  790THF     C211699   3.883   4.615   0.725 -0.1781 -0.5799 -0.3056
  790THF     C311700   3.726   4.539   0.568  0.1341 -0.3720 -0.7764
  790THF     H411701   3.865   4.713   0.768 -0.9925 -0.5688 -0.6602
  790THF     H511702   3.989   4.586   0.723  0.4652  1.5699 -2.7776
  790THF     H611703   3.641   4.599   0.599 -0.5323 -3.0113  3.1945
  790THF     H711704   3.715   4.501   0.466  0.1671 -0.1713 -0.8558
  790THF     C811705   3.732   4.432   0.676 -0.3918  0.1129  0.0635
  790THF     C911706   3.789   4.512   0.788  0.1046 -1.1456  0.0377
  790THF    H1011707   3.806   4.355   0.656 -0.0876  0.4394 -0.0836
  790THF    H1111708   3.632   4.391   0.688 -0.3643  0.3928  1.4498
  790THF    H1211709   3.708   4.565   0.838  0.4846 -0.9845  0.4919
  790THF    H1311710   3.844   4.453   0.861  1.3114  0.3757  0.4244
  791THF     O111711   1.550   2.109   2.618  0.6961  0.0849 -0.5017
  791THF     C211712   1.447   2.132   2.519 -0.1336 -0.7118  0.4998
  791THF     C311713   1.633   2.225   2.625  0.1982 -0.8919  0.3376
  791THF     H411714   1.357   2.076   2.542  0.1765 -1.6483 -0.4939
  791THF     H511715   1.475   2.095   2.420 -3.1748 -0.4147 -0.5913
  791THF     H611716   1.639   2.245   2.732 -1.5972 -0.6665  0.4312
  791THF     H711717   1.730   2.203   2.580  0.5020  1.6420 -0.4246
  791THF     C811718   1.567   2.338   2.545  0.1605 -1.0521 -0.5378
  791THF     C911719   1.428   2.281   2.525  0.3840  0.0126 -0.9595
  791THF    H1011720   1.611   2.343   2.446  0.1662  1.2605 -0.4741
  791THF    H1111721   1.571   2.437   2.592 -1.7123 -1.7475  1.2277
  791THF    H1211722   1.363   2.303   2.610  2.5417 -0.0753  0.7905
  791THF    H1311723   1.364   2.319   2.445 -4.0043 -2.9955  0.6911
  792THF     O111724   1.516   0.015   5.338  0.2478 -0.0970  0.4306
  792THF     C211725   1.478  -0.044   5.211 -0.0884 -0.2291  0.5374
  792THF     C311726   1.409   0.095   5.387  0.0888  0.3232 -0.5520
  792THF     H411727   1.428  -0.136   5.241  1.0806 -1.1190 -0.1437
  792THF     H511728   1.567  -0.065   5.150  0.0078  1.2153  0.1355
  792THF     H611729   1.327   0.030   5.416  0.7753  0.7676  2.7608
  792THF     H711730   1.440   0.158   5.470 -1.2936 -0.0605  0.2892
  792THF     C811731   1.364   0.175   5.266  0.6536  0.3132 -0.2736
  792THF     C911732   1.380   0.069   5.153 -0.2042  0.2730  0.4646
  792THF    H1011733   1.437   0.255   5.251 -0.7715  1.5253 -1.0964
  792THF    H1111734   1.268   0.227   5.267  1.0360  1.0571 -0.8159
  792THF    H1211735   1.289   0.010   5.140  1.0583 -1.7525  0.4026
  792THF    H1311736   1.411   0.103   5.054  1.0401  0.1544  0.8077
  793THF     O111737   0.165   1.113   1.302  0.2676  0.2309  0.0690
  793THF     C211738   0.082   1.131   1.193  0.0675 -0.5682  0.3283
  793THF     C311739   0.279   1.205   1.283  0.6123 -0.2345  0.6863
  793THF     H411740  -0.018   1.088   1.205 -0.6200 -0.1857 -2.8967
  793THF     H511741   0.119   1.082   1.103  1.2341 -1.5992  1.3432
  793THF     H611742   0.334   1.245   1.368 -0.2996  0.0895  1.1393
  793THF     H711743   0.354   1.161   1.217 -1.1141  0.2397 -1.7513
  793THF     C811744   0.221   1.326   1.206  0.1761 -0.1481  0.4244
  793THF     C911745   0.080   1.280   1.173  0.3971  0.0772 -0.0139
  793THF    H1011746   0.274   1.320   1.112  1.3968 -0.5726  1.1248
  793THF    H1111747   0.225   1.424   1.254 -0.7431 -0.3882  1.0472
  793THF    H1211748   0.017   1.325   1.250 -0.5993 -1.3797  0.0670
  793THF    H1311749   0.032   1.305   1.079 -2.7420  1.6390  1.8310
  794THF     O111750   0.503   2.739   1.783 -0.5975 -0.5269 -0.2374
  794THF     C211751   0.536   2.625   1.863  0.0642  0.2812 -0.0969
  794THF     C311752   0.605   2.837   1.813  0.6791  0.1848 -0.0561
  794THF     H411753   0.482   2.534   1.836 -0.5826  0.9549 -1.1673
  794THF     H511754   0.521   2.640   1.970  0.1431 -0.3246  0.0038
  794THF     H611755   0.600   2.928   1.753  1.8008  0.7571  0.6698
  794THF     H711756   0.569   2.875   1.909  1.3409  0.9642 -0.1032
  794THF     C811757   0.730   2.753   1.806 -0.5437  0.5669 -0.9194
  794THF     C911758   0.685   2.614   1.840  0.1853  0.4023  0.2322
  794THF    H1011759   0.794   2.803   1.879 -2.4346  0.8575  0.6070
  794THF    H1111760   0.770   2.757   1.704  2.5246  0.4304  0.1718
  794THF    H1211761   0.721   2.536   1.774  1.5208 -0.5513  1.9828
  794THF    H1311762   0.738   2.579   1.929 -0.3645  0.1169  0.4506
  795THF     O111763   4.332   2.860   5.049 -0.6947  0.3500  0.0993
  795THF     C211764   4.294   2.948   4.939  0.5375  0.6188  0.3460
  795THF     C311765   4.221   2.850   5.144  0.2429  0.2678  0.6959
  795THF     H411766   4.309   2.891   4.848 -0.6759 -0.9741  1.0857
  795THF     H511767   4.342   3.045   4.931  1.9926 -0.1381 -0.4597
  795THF     H611768   4.230   2.753   5.193 -0.3135 -0.5719 -0.8122
  795THF     H711769   4.245   2.923   5.222  0.0027 -0.0545  1.0767
  795THF     C811770   4.098   2.873   5.071  0.2310  0.2499 -0.1010
  795THF     C911771   4.142   2.958   4.954 -0.4203 -0.4655  0.4443
  795THF    H1011772   4.028   2.933   5.130  0.2276  0.4863 -0.3427
  795THF    H1111773   4.048   2.778   5.051 -1.1125  0.8660  0.1726
  795THF    H1211774   4.088   2.929   4.864  0.2868  2.8052 -1.2069
  795THF    H1311775   4.111   3.062   4.962  1.4138  0.2681 -1.0040
  796THF     O111776   2.155   1.947   0.853  0.1337 -0.2755 -0.0798
  796THF     C211777   2.073   1.865   0.770  0.4567 -0.0056 -0.8241
  796THF     C311778   2.134   2.077   0.791  0.1166  0.2169  0.5021
  796THF     H411779   1.970   1.870   0.807  0.3491 -2.3655 -0.6312
  796THF     H511780   2.098   1.759   0.765 -1.2605 -0.4661 -0.4914
  796THF     H611781   2.086   2.150   0.857 -0.2692 -0.3708  0.8812
  796THF     H711782   2.238   2.108   0.779 -0.1465  1.7954  1.8607
  796THF     C811783   2.072   2.060   0.646  0.3895  0.3823  0.2698
  796THF     C911784   2.086   1.917   0.626  0.0427  1.0402 -0.1254
  796THF    H1011785   2.120   2.116   0.566 -0.8109 -0.7042 -1.2748
  796THF    H1111786   1.966   2.088   0.650  0.5115  0.8768  0.1203
  796THF    H1211787   2.008   1.871   0.566 -1.2793  1.0349  1.5244
  796THF    H1311788   2.187   1.891   0.594 -0.4710 -1.6542  0.1782
  797THF     O111789   2.098   1.618   1.050  0.4230  0.0115  0.4733
  797THF     C211790   2.214   1.562   0.997  0.0311  0.5685  0.6542
  797THF     C311791   2.104   1.617   1.189  0.4755 -1.1346 -0.8786
  797THF     H411792   2.293   1.635   0.979 -0.3006  0.5521 -1.0023
  797THF     H511793   2.200   1.514   0.900 -0.9180 -0.7465  1.4159
  797THF     H611794   2.166   1.696   1.232  0.3480 -0.4515 -1.9000
  797THF     H711795   2.009   1.643   1.236  0.9308  0.2583 -0.6897
  797THF     C811796   2.141   1.477   1.219  0.3500  0.2642  0.7438
  797THF     C911797   2.246   1.455   1.108 -0.2314  0.2157  0.2623
  797THF    H1011798   2.054   1.420   1.188 -3.2611  3.6437  3.6484
  797THF    H1111799   2.153   1.431   1.317  1.8201  0.5552  0.7284
  797THF    H1211800   2.348   1.462   1.146 -0.1584 -0.6255  0.2327
  797THF    H1311801   2.231   1.353   1.073  1.1005  0.4422 -1.0851
  798THF     O111802   4.391   3.382   2.631  0.7057  0.2577 -0.2629
  798THF     C211803   4.504   3.304   2.646 -0.3057 -0.2693 -0.0551
  798THF     C311804   4.384   3.407   2.495  1.1310 -0.3321 -0.5501
  798THF     H411805   4.474   3.200   2.660  0.2843 -0.7074 -1.8091
  798THF     H511806   4.543   3.348   2.738  0.4908  0.2038 -0.6018
  798THF     H611807   4.334   3.316   2.461  0.3537 -0.5611  1.1218
  798THF     H711808   4.327   3.499   2.478  0.7808 -0.0977  1.6278
  798THF     C811809   4.521   3.413   2.439 -0.5967  0.1383 -0.3696
  798THF     C911810   4.596   3.314   2.530 -0.2289 -0.5118  0.7178
  798THF    H1011811   4.564   3.513   2.440 -0.1140 -0.0653 -0.3263
  798THF    H1111812   4.534   3.387   2.334 -0.6029  0.1576 -0.3753
  798THF    H1211813   4.609   3.219   2.478 -0.8808  0.0602 -0.5249
  798THF    H1311814   4.695   3.350   2.556 -1.4918  1.9242  2.5638
  799THF     O111815   4.044   0.375   4.238  0.2592  0.3728 -0.2932
  799THF     C211816   4.173   0.318   4.277  0.1231 -0.4769 -0.3994
  799THF     C311817   4.070   0.499   4.185  0.8939 -0.2472 -0.4216
  799THF     H411818   4.215   0.259   4.195  1.7427 -2.2876  1.6114
  799THF     H511819   4.158   0.259   4.367  1.1803  3.9466  2.9839
  799THF     H611820   4.112   0.475   4.087  4.2463 -0.4123  0.9251
  799THF     H711821   3.979   0.559   4.178 -0.3884 -1.7713  1.9425
  799THF     C811822   4.183   0.556   4.264  1.0042  0.1155  0.0964
  799THF     C911823   4.262   0.437   4.296  0.3015 -0.1668 -0.2162
  799THF    H1011824   4.151   0.598   4.359  1.5237 -0.2242  0.4304
  799THF    H1111825   4.238   0.635   4.212  2.7472 -0.3310  1.1849
  799THF    H1211826   4.358   0.430   4.245 -0.0545  1.2956 -1.1486
  799THF    H1311827   4.276   0.444   4.404 -2.2884 -0.4356  0.1817
  800THF     O111828   3.280   3.449   4.454 -0.1593 -0.1956  0.5962
  800THF     C211829   3.215   3.565   4.513  0.3717  0.3642 -0.4366
  800THF     C311830   3.206   3.340   4.497 -0.3489 -0.1363 -0.7617
  800THF     H411831   3.126   3.602   4.463  0.8136  2.9505  0.5191
  800THF     H511832   3.276   3.654   4.532  1.3721 -0.3279 -0.3665
  800THF     H611833   3.115   3.328   4.438 -0.0152 -2.5033 -0.8953
  800THF     H711834   3.256   3.243   4.488  0.3147  0.0132  0.9360
  800THF     C811835   3.164   3.362   4.642 -0.4235 -0.5142  0.4802
  800THF     C911836   3.165   3.513   4.651  0.1204 -0.3229  0.3924
  800THF    H1011837   3.248   3.333   4.705  1.0147  1.3312 -0.4817
  800THF    H1111838   3.074   3.309   4.672 -1.8384  0.4156 -1.8149
  800THF    H1211839   3.080   3.565   4.696 -0.5980 -0.3081 -0.9216
  800THF    H1311840   3.252   3.536   4.712  0.2575 -1.9635  0.8376
  801THF     O111841   1.372   1.794   1.799 -0.0948 -0.0271  0.3113
  801THF     C211842   1.268   1.806   1.692 -0.0237  0.3068  0.2943
  801THF     C311843   1.326   1.731   1.916 -0.0824 -0.1343  0.3370
  801THF     H411844   1.298   1.780   1.590  0.3199  1.6543  0.0312
  801THF     H511845   1.222   1.905   1.688 -0.3298  0.1435 -2.1870
  801THF     H611846   1.406   1.673   1.962  1.1290  0.6604 -0.7157
  801THF     H711847   1.292   1.807   1.987  0.5197 -0.4042  0.9259
  801THF     C811848   1.229   1.633   1.864 -0.4108 -0.7697 -0.2510
  801THF     C911849   1.170   1.699   1.740 -0.0155  0.2266 -0.2045
  801THF    H1011850   1.153   1.606   1.937 -0.2875 -0.4507 -0.0067
  801THF    H1111851   1.283   1.545   1.827  2.5845  1.5707 -1.9142
  801THF    H1211852   1.145   1.628   1.661  1.6194 -2.7943  1.7949
  801THF    H1311853   1.075   1.742   1.773  0.4232 -0.3518  1.9525
  802THF     O111854   2.597   4.543   1.759 -0.0992  0.1243  0.0402
  802THF     C211855   2.521   4.666   1.795  0.3818 -0.2865 -0.2648
  802THF     C311856   2.553   4.449   1.855  0.0818  0.8951 -0.0022
  802THF     H411857   2.418   4.663   1.757 -0.0800 -0.7252  0.9828
  802THF     H511858   2.564   4.756   1.751 -2.5131  0.9167 -0.8788
  802THF     H611859   2.449   4.437   1.824  0.2485  1.7802 -0.9663
  802THF     H711860   2.590   4.346   1.851 -0.6237  0.6477 -0.3727
  802THF     C811861   2.560   4.524   1.986 -0.0499  0.3849 -0.5110
  802THF     C911862   2.523   4.664   1.944 -0.5753  0.0564  0.2300
  802THF    H1011863   2.660   4.525   2.030  0.5787  3.9527 -1.7091
  802THF    H1111864   2.480   4.489   2.052  2.1744 -1.3681  1.4549
  802THF    H1211865   2.425   4.698   1.979 -1.0908 -0.5406 -0.6036
  802THF    H1311866   2.605   4.730   1.972 -1.8718  1.9456 -0.1772
  803THF     O111867   1.794   1.963   0.163 -0.5500 -0.1335 -0.2000
  803THF     C211868   1.696   1.898   0.243  0.0762 -0.2857  0.0406
  803THF     C311869   1.779   2.107   0.177  0.0262 -0.0179  0.2559
  803THF     H411870   1.709   1.789   0.244  0.7682 -0.2093 -0.2618
  803THF     H511871   1.598   1.926   0.203 -0.6368  0.0806  1.9299
  803THF     H611872   1.865   2.154   0.130 -0.2451 -1.6361 -2.0410
  803THF     H711873   1.686   2.139   0.129 -0.7844  0.3702  1.9987
  803THF     C811874   1.746   2.125   0.323 -0.2605  0.7093  0.5579
  803THF     C911875   1.729   1.977   0.371 -0.0107 -0.2623 -0.4334
  803THF    H1011876   1.663   2.187   0.357 -0.8217 -0.4565  1.3744
  803THF    H1111877   1.833   2.159   0.380  0.3100  0.3940 -0.1131
  803THF    H1211878   1.817   1.928   0.412  1.9709  2.3083 -1.2975
  803THF    H1311879   1.656   1.974   0.453  0.8522 -1.8297  0.3160
  804THF     O111880   5.403   4.836   1.214 -0.5538  0.2114  0.4393
  804THF     C211881   5.418   4.903   1.087 -0.3343 -0.0616  0.2407
  804THF     C311882   5.519   4.757   1.236  0.2484  0.4601 -0.7420
  804THF     H411883   5.353   4.989   1.070  0.3839  0.3227 -0.7116
  804THF     H511884   5.405   4.831   1.006 -0.8367  0.3391 -0.0417
  804THF     H611885   5.549   4.746   1.340  1.4538 -0.0425 -1.1233
  804THF     H711886   5.517   4.655   1.197  0.1873  0.1350  0.0913
  804THF     C811887   5.635   4.832   1.158  0.8570  0.0242 -0.2075
  804THF     C911888   5.569   4.945   1.080 -0.1847  0.2208 -0.9406
  804THF    H1011889   5.689   4.761   1.096 -1.0942 -2.7374  1.0066
  804THF    H1111890   5.702   4.873   1.234  1.2123  0.4317 -0.7341
  804THF    H1211891   5.590   5.048   1.107 -1.2011  0.0164  0.7989
  804THF    H1311892   5.598   4.937   0.975  1.4501 -1.9872 -0.3961
  805THF     O111893   1.120   0.661   2.385  0.0504 -0.1087  0.2027
  805THF     C211894   1.183   0.590   2.280  0.5535  0.2758  0.1486
  805THF     C311895   1.187   0.640   2.506 -0.9973 -0.6502  0.4418
  805THF     H411896   1.276   0.633   2.244  0.2634  1.0092  0.2623
  805THF     H511897   1.118   0.589   2.191  1.1229  2.3036 -0.3228
  805THF     H611898   1.270   0.710   2.496 -0.9941 -0.9007 -1.6481
  805THF     H711899   1.116   0.655   2.588 -0.6103 -2.1859  1.0908
  805THF     C811900   1.224   0.497   2.508 -0.3425 -0.6199  0.8259
  805THF     C911901   1.207   0.453   2.355  0.1982 -0.0905 -0.8594
  805THF    H1011902   1.160   0.442   2.577  0.1391  2.6792  4.2431
  805THF    H1111903   1.323   0.473   2.546 -0.3791 -0.7641  0.8319
  805THF    H1211904   1.295   0.400   2.318  0.3490  0.9855 -2.1242
  805THF    H1311905   1.121   0.386   2.346 -1.1430  1.4360 -0.0098
  806THF     O111906   1.739   0.433   2.203 -0.6705 -0.2229  0.6793
  806THF     C211907   1.748   0.509   2.324  0.4704 -0.4334  0.1562
  806THF     C311908   1.678   0.531   2.115 -0.1124  0.1845  0.2322
  806THF     H411909   1.817   0.593   2.315 -1.6196  1.4278  0.6622
  806THF     H511910   1.785   0.447   2.407  1.1338 -1.6636 -1.0146
  806THF     H611911   1.767   0.592   2.102  1.0000 -1.5502 -0.6817
  806THF     H711912   1.647   0.488   2.020 -2.8348  0.2449  1.0009
  806THF     C811913   1.582   0.607   2.202 -0.5122 -0.4247 -0.4711
  806THF     C911914   1.607   0.572   2.346  0.1389  0.3240  0.3770
  806THF    H1011915   1.490   0.555   2.176 -1.7005  0.9025  0.8800
  806THF    H1111916   1.565   0.713   2.182 -0.9934 -0.4503 -0.2144
  806THF    H1211917   1.613   0.660   2.410 -1.0078  0.6957 -0.0052
  806THF    H1311918   1.530   0.501   2.375  0.9332 -1.6018 -1.8757
  807THF     O111919   2.604   1.241   3.688  0.3896  0.4962  0.7687
  807THF     C211920   2.460   1.251   3.721 -0.5994  0.8654 -0.0335
  807THF     C311921   2.670   1.174   3.792 -0.9670  0.0605 -0.3006
  807THF     H411922   2.419   1.170   3.660  2.5019 -1.1400  0.3165
  807THF     H511923   2.414   1.349   3.705 -1.1267  0.6603  0.2045
  807THF     H611924   2.737   1.094   3.759 -2.3898 -1.7806  1.0787
  807THF     H711925   2.740   1.237   3.848  1.2114 -1.3883 -1.2648
  807THF     C811926   2.567   1.105   3.875  1.0051 -0.0846 -0.4894
  807THF     C911927   2.451   1.199   3.861  0.2642  0.2127 -0.3766
  807THF    H1011928   2.598   1.093   3.979  0.4121 -3.0462 -0.5779
  807THF    H1111929   2.521   1.014   3.837 -0.4651  0.5378 -0.2678
  807THF    H1211930   2.353   1.162   3.889  1.0676 -1.3474  0.5157
  807THF    H1311931   2.468   1.280   3.931 -0.3015  1.5217 -1.6874
  808THF     O111932   4.144   3.290   3.106 -0.3496 -0.1065  0.9615
  808THF     C211933   4.168   3.302   2.974  0.6018  0.8840  0.2896
  808THF     C311934   4.224   3.191   3.160 -0.5079  0.1378 -0.4811
  808THF     H411935   4.127   3.397   2.939 -2.3095 -0.6394 -0.7010
  808THF     H511936   4.114   3.231   2.912  0.8203  1.0793 -0.1334
  808THF     H611937   4.228   3.193   3.269 -3.1269 -2.4931 -0.2002
  808THF     H711938   4.200   3.087   3.139 -1.4170  0.3277 -0.4265
  808THF     C811939   4.354   3.235   3.101  0.1040  0.1010  0.0832
  808THF     C911940   4.322   3.293   2.968 -0.1264 -0.3622  0.8586
  808THF    H1011941   4.427   3.155   3.086 -0.6048 -0.4713 -0.4049
  808THF    H1111942   4.416   3.308   3.153  0.5793  0.2895 -0.7180
  808THF    H1211943   4.374   3.388   2.958  1.7831 -1.3955  0.4374
  808THF    H1311944   4.361   3.230   2.887  1.2939  1.0767  0.3546
  809THF     O111945   5.106   0.397   1.126  0.0301  0.2718  0.1928
  809THF     C211946   5.068   0.438   1.254 -0.3322  0.5521 -0.2800
  809THF     C311947   5.048   0.277   1.079  0.2486  0.3300 -0.0163
  809THF     H411948   5.068   0.544   1.279 -1.1863  0.1060  1.7310
  809THF     H511949   5.147   0.387   1.309  0.8621 -2.9246 -4.5376
  809THF     H611950   5.046   0.275   0.970  1.9638 -0.2730 -0.0667
  809THF     H711951   5.102   0.190   1.118  2.8751  0.5128 -2.8852
  809THF     C811952   4.914   0.296   1.139  0.8273 -0.2579 -0.5026
  809THF     C911953   4.938   0.361   1.272 -0.2882  0.2243 -0.4563
  809THF    H1011954   4.874   0.195   1.152 -0.8901  0.3353 -0.9768
  809THF    H1111955   4.845   0.359   1.082  0.1753  0.3474  0.9048
  809THF    H1211956   4.862   0.432   1.305  0.0027  0.8325 -1.0678
  809THF    H1311957   4.956   0.281   1.345  1.9202  1.5052  0.5298
  810THF     O111958   1.977   1.797   2.549 -0.5457  0.1179  0.4775
  810THF     C211959   1.894   1.746   2.443  0.2657 -0.2449 -0.3240
  810THF     C311960   1.993   1.938   2.516 -0.0765  0.1094  1.0142
  810THF     H411961   1.796   1.714   2.478 -0.3571 -0.1693 -1.9519
  810THF     H511962   1.936   1.657   2.397 -0.5500  0.0835 -1.7515
  810THF     H611963   1.983   1.990   2.612  1.8751  1.2901  0.6193
  810THF     H711964   2.095   1.958   2.483 -0.6458  0.1308 -0.7844
  810THF     C811965   1.896   1.987   2.409  0.3703  0.4136 -0.5901
  810THF     C911966   1.884   1.856   2.332  0.8532 -0.0761 -0.1021
  810THF    H1011967   1.933   2.080   2.366 -1.9471  1.8218  0.2836
  810THF    H1111968   1.801   2.008   2.458 -1.3687 -1.6651 -2.7846
  810THF    H1211969   1.790   1.841   2.279  0.4908  1.6920 -0.0438
  810THF    H1311970   1.969   1.853   2.264  1.4806  2.3027  0.4653
  811THF     O111971   4.869   0.600   5.006 -0.1012 -0.1135  0.5153
  811THF     C211972   5.008   0.630   4.987 -0.5647  1.2125 -0.4354
  811THF     C311973   4.822   0.680   5.107 -0.0008 -0.0369  0.2442
  811THF     H411974   5.023   0.730   4.946 -0.1330  1.0324 -0.7279
  811THF     H511975   5.064   0.557   4.928 -0.3673  1.1492 -0.1689
  811THF     H611976   4.796   0.781   5.076 -0.6647 -0.1967  0.2516
  811THF     H711977   4.737   0.629   5.154  0.6544 -3.0152 -1.5183
  811THF     C811978   4.928   0.683   5.211  0.5204 -0.2507  0.2419
  811THF     C911979   5.054   0.632   5.141  0.0197 -0.3816  0.9235
  811THF    H1011980   4.910   0.611   5.291 -0.1345  0.3733  0.6657
  811THF    H1111981   4.940   0.777   5.265  1.8873  0.3240 -0.9955
  811THF    H1211982   5.142   0.695   5.152  1.1273 -1.7941  0.4171
  811THF    H1311983   5.079   0.532   5.176  1.0997 -1.1663 -1.8186
  812THF     O111984   1.725   0.522   3.408 -0.2214 -0.1211 -0.2263
  812THF     C211985   1.764   0.612   3.308  0.5116  0.2101  0.3497
  812THF     C311986   1.838   0.458   3.460 -0.3499 -0.1905 -0.8404
  812THF     H411987   1.773   0.714   3.346 -0.2717 -0.0223  1.2024
  812THF     H511988   1.693   0.610   3.225 -1.4693  1.1385  1.9449
  812THF     H611989   1.880   0.531   3.529 -0.4900 -0.9108  0.0198
  812THF     H711990   1.809   0.367   3.512 -0.5358 -0.0266 -0.6547
  812THF     C811991   1.928   0.431   3.336 -0.1062 -0.2304 -0.4961
  812THF     C911992   1.892   0.551   3.258 -0.1061 -0.0858  0.4429
  812THF    H1011993   1.894   0.346   3.277 -2.5292  1.0475 -1.0732
  812THF    H1111994   2.034   0.424   3.361  0.0952  2.7240 -0.1654
  812THF    H1211995   1.967   0.630   3.266 -3.6370  3.9961 -1.9670
  812THF    H1311996   1.887   0.532   3.151 -1.1745  0.5857  0.3569
  813THF     O111997   2.378   2.985   2.001 -0.4906  0.4820 -0.9302
  813THF     C211998   2.431   3.092   1.923  0.0397  0.0507  0.3012
  813THF     C311999   2.259   3.020   2.064  0.4535 -1.1675 -0.1259
  813THF     H412000   2.399   3.085   1.818  0.9407 -0.6852  0.0589
  813THF     H512001   2.540   3.084   1.919 -0.0691 -1.3180 -1.0172
  813THF     H612002   2.168   2.990   2.011  0.9339 -3.7037  0.3657
  813THF     H712003   2.243   2.972   2.160 -1.1628 -0.6121 -0.0844
  813THF     C812004   2.273   3.176   2.086 -0.2276 -0.4893 -0.0210
  813THF     C912005   2.370   3.220   1.982 -0.5252 -0.0589 -0.0730
  813THF    H1012006   2.307   3.199   2.187 -1.6421  2.2844 -0.0773
  813THF    H1112007   2.179   3.231   2.088  0.5229  0.8526  1.7375
  813THF    H1212008   2.328   3.278   1.900  0.0345 -1.6457 -1.5379
  813THF    H1312009   2.451   3.265   2.039 -0.2248  0.6215 -1.0134
  814THF     O112010   0.623   3.659   0.218 -0.3600 -0.0167  0.5582
  814THF     C212011   0.673   3.522   0.238  0.0075 -0.2199 -0.3175
  814THF     C312012   0.679   3.700   0.092  0.3307  0.5510 -0.2046
  814THF     H412013   0.615   3.451   0.179 -2.1663  1.1811  0.0451
  814THF     H512014   0.663   3.497   0.344 -0.2303  0.2820 -0.2215
  814THF     H612015   0.624   3.646   0.015 -2.1543  0.5767  1.4536
  814THF     H712016   0.673   3.807   0.072  0.2081  0.8114  1.1520
  814THF     C812017   0.824   3.652   0.098 -0.0271 -0.1229 -0.1001
  814THF     C912018   0.819   3.532   0.191 -0.2657  0.3442  0.1570
  814THF    H1012019   0.893   3.730   0.130 -1.1981  1.2253 -0.7421
  814THF    H1112020   0.859   3.625  -0.001  0.5599 -2.4639  0.6924
  814THF    H1212021   0.847   3.440   0.140 -3.6504 -0.6702 -0.1667
  814THF    H1312022   0.882   3.552   0.278 -0.1584 -1.0029  0.4078
  815THF     O112023   4.590   5.356   0.957 -0.0689  0.0994  0.0962
  815THF     C212024   4.515   5.319   0.837  0.1775 -0.5129  0.0624
  815THF     C312025   4.534   5.487   0.992  0.0260 -0.1008  0.5852
  815THF     H412026   4.514   5.210   0.829  0.0136 -0.4552 -0.7897
  815THF     H512027   4.577   5.358   0.756 -0.2035 -0.7022 -0.3200
  815THF     H612028   4.563   5.518   1.092 -1.9902  1.7614  0.6747
  815THF     H712029   4.570   5.554   0.914 -1.4981 -0.9779 -0.9444
  815THF     C812030   4.384   5.466   0.975  0.5772  0.4615  0.0526
  815THF     C912031   4.373   5.378   0.849  0.4357  0.0462 -0.5126
  815THF    H1012032   4.324   5.555   0.962 -1.5342 -0.9496 -0.3828
  815THF    H1112033   4.329   5.410   1.051 -3.7687  2.1083 -1.5685
  815THF    H1212034   4.315   5.287   0.866  1.8292 -0.5791  1.1673
  815THF    H1312035   4.344   5.436   0.761  0.3542  1.2203  0.2763
  816THF     O112036   0.019   3.166   4.109 -0.5452 -0.0417 -0.3313
  816THF     C212037   0.016   3.056   4.203  0.0719 -0.5338  0.0541
  816THF     C312038  -0.114   3.197   4.084 -0.4054  0.3765  0.6246
  816THF     H412039  -0.016   3.083   4.303 -1.8353  3.8497 -1.4668
  816THF     H512040   0.118   3.017   4.205  0.0484 -0.6550 -0.5970
  816THF     H612041  -0.163   3.246   4.169 -0.0855 -0.1533  1.1202
  816THF     H712042  -0.136   3.253   3.993 -1.0035 -3.2610 -1.6387
  816THF     C812043  -0.185   3.058   4.075  0.1243  0.2332 -0.0288
  816THF     C912044  -0.090   2.964   4.145  1.1041  0.3882  0.3591
  816THF    H1012045  -0.190   3.037   3.968  0.2592  0.5226 -0.0940
  816THF    H1112046  -0.280   3.067   4.128  0.6032 -0.1810  0.9133
  816THF    H1212047  -0.143   2.910   4.224 -0.0918  1.7705  0.5318
  816THF    H1312048  -0.033   2.896   4.081  1.6438  2.4405 -1.4221
  817THF     O112049   5.495   4.150   0.910 -0.0704  1.0700 -0.1184
  817THF     C212050   5.575   4.111   1.022  0.1505 -0.6050 -0.2048
  817THF     C312051   5.531   4.281   0.879  0.1437  0.2247 -0.4966
  817THF     H412052   5.569   4.010   1.061 -0.5843  0.0165  1.3725
  817THF     H512053   5.532   4.166   1.106  0.2347 -2.0975  0.8508
  817THF     H612054   5.510   4.322   0.780 -1.1082  2.3431  0.5798
  817THF     H712055   5.476   4.345   0.948 -0.0312  1.0013 -1.3301
  817THF     C812056   5.680   4.286   0.907  0.2676 -0.1580 -0.7273
  817THF     C912057   5.713   4.155   0.980 -0.4884  0.7952 -0.3732
  817THF    H1012058   5.698   4.371   0.973 -1.1832 -0.8399  0.6007
  817THF    H1112059   5.738   4.296   0.815 -0.4925 -0.3127 -1.2370
  817THF    H1212060   5.755   4.086   0.906 -0.2421  0.0842  0.4124
  817THF    H1312061   5.788   4.163   1.058  0.6674 -0.3605 -1.3090
  818THF     O112062   5.232   2.098   4.735 -0.3223 -0.2776  0.5471
  818THF     C212063   5.179   1.978   4.789 -0.1781 -0.3381  0.4926
  818THF     C312064   5.142   2.131   4.631  0.1473  0.3099  0.1785
  818THF     H412065   5.212   1.984   4.892  1.0569  2.0100  0.0179
  818THF     H512066   5.218   1.897   4.728  3.4398  2.1399 -0.8221
  818THF     H612067   5.150   2.237   4.607 -3.3152  0.4357 -0.9866
  818THF     H712068   5.174   2.088   4.536 -0.2569  1.5279 -0.5308
  818THF     C812069   5.002   2.079   4.668  0.6220 -1.0877 -0.1976
  818THF     C912070   5.026   1.995   4.788 -0.2026  0.2519  0.1537
  818THF    H1012071   4.963   2.015   4.589  0.9535 -1.6287  0.0736
  818THF    H1112072   4.926   2.157   4.672  1.3702 -0.0173 -3.5848
  818THF    H1212073   5.007   2.045   4.882  0.7792  0.6798  0.1322
  818THF    H1312074   4.971   1.901   4.781 -0.2180  0.2513  0.2794
  819THF     O112075   2.425   1.851   4.723  0.2674  0.5732  0.0223
  819THF     C212076   2.394   1.792   4.601 -0.2610 -1.2815 -0.7272
  819THF     C312077   2.304   1.864   4.791  0.0545  0.3066  0.1253
  819THF     H412078   2.416   1.686   4.593 -0.8491 -1.3997 -0.8341
  819THF     H512079   2.454   1.836   4.521 -1.1594 -4.2070 -3.1978
  819THF     H612080   2.295   1.766   4.839  1.0088 -0.0562 -0.3869
  819THF     H712081   2.316   1.937   4.871 -0.2983  0.1696  0.3016
  819THF     C812082   2.202   1.905   4.694 -0.4930  0.1011  0.1513
  819THF     C912083   2.246   1.825   4.575  0.7310  0.0097  0.3884
  819THF    H1012084   2.217   2.009   4.667 -1.1438  0.1899  0.1102
  819THF    H1112085   2.094   1.891   4.708 -0.3206 -0.7660  0.6877
  819THF    H1212086   2.188   1.733   4.577 -0.3289  0.6356 -0.3686
  819THF    H1312087   2.232   1.881   4.482 -2.5649 -0.3730  0.5413
  820THF     O112088   0.404   4.357   4.796  0.3035  0.8132 -0.2295
  820THF     C212089   0.398   4.330   4.938 -0.0765 -0.1571 -0.0539
  820THF     C312090   0.466   4.246   4.734 -0.0756 -0.1504  0.4177
  820THF     H412091   0.305   4.276   4.959  1.5253 -3.4879 -0.8287
  820THF     H512092   0.410   4.425   4.990  0.9644  0.9817 -2.2251
  820THF     H612093   0.391   4.170   4.714 -0.0565 -0.1453  0.3296
  820THF     H712094   0.512   4.275   4.640  1.6757  2.5981  1.9491
  820THF     C812095   0.574   4.196   4.834  0.4657  1.0947 -0.6468
  820THF     C912096   0.510   4.226   4.972 -0.9856  0.0808 -0.0688
  820THF    H1012097   0.667   4.252   4.821  1.4333 -0.6317 -1.6699
  820THF    H1112098   0.595   4.089   4.830 -1.2898  0.7419 -1.2482
  820THF    H1212099   0.468   4.142   5.027 -0.2408  0.3853  0.9988
  820THF    H1312100   0.581   4.259   5.048  0.1760 -3.2590  0.4681
  821THF     O112101   2.583   5.187   0.049  0.0422 -0.5158  0.5018
  821THF     C212102   2.701   5.226   0.115 -0.3405 -0.0132  1.2426
  821THF     C312103   2.550   5.056   0.077 -0.3732 -0.2370  0.3848
  821THF     H412104   2.693   5.278   0.210 -0.7241  1.2967  0.5217
  821THF     H512105   2.748   5.298   0.047 -4.3136  1.3044 -0.3710
  821THF     H612106   2.451   5.045   0.119  0.1370  0.6356  1.8743
  821THF     H712107   2.553   4.997  -0.015  1.3461 -0.5279  0.5809
  821THF     C812108   2.669   4.996   0.160  0.4364  0.1389  0.0015
  821THF     C912109   2.777   5.095   0.124  0.2788  0.4079 -0.1275
  821THF    H1012110   2.698   4.894   0.134  1.9712  0.3954  0.6020
  821THF    H1112111   2.639   5.015   0.263 -2.7745  0.0817 -0.8138
  821THF    H1212112   2.847   5.109   0.207  1.2119 -1.8515 -0.4537
  821THF    H1312113   2.828   5.072   0.031  0.0575  0.3915 -0.2461
  822THF     O112114   2.873   1.805   2.031  0.0923  0.3443  0.4903
  822THF     C212115   2.796   1.829   1.917 -0.6892  0.5126  0.3076
  822THF     C312116   2.785   1.743   2.132  0.2172  0.2934  0.9074
  822THF     H412117   2.829   1.768   1.833 -3.9280  1.3947 -1.8059
  822THF     H512118   2.821   1.931   1.890 -0.2541  1.5931  4.1455
  822THF     H612119   2.792   1.634   2.134 -0.6881  0.2471  1.9802
  822THF     H712120   2.810   1.771   2.234  0.6045 -1.5655  1.3691
  822THF     C812121   2.641   1.789   2.102 -0.1690  0.0420 -0.3558
  822THF     C912122   2.655   1.807   1.952 -0.1952  0.5365  0.2744
  822THF    H1012123   2.613   1.885   2.146 -1.9957  0.1576 -1.6567
  822THF    H1112124   2.565   1.715   2.130 -1.0100  1.0437  0.0906
  822THF    H1212125   2.638   1.706   1.916 -0.6587  1.3496 -1.9449
  822THF    H1312126   2.574   1.865   1.908 -0.6172  1.0247  1.6393
  823THF     O112127   3.435   2.585   3.579 -0.1618 -0.5460 -0.1254
  823THF     C212128   3.446   2.693   3.675  0.0178  0.6996  0.3120
  823THF     C312129   3.558   2.525   3.565 -0.3171 -0.0704  0.6006
  823THF     H412130   3.362   2.700   3.743 -0.2481 -1.8271  0.3117
  823THF     H512131   3.473   2.793   3.639  1.8174  0.0027 -0.4149
  823THF     H612132   3.534   2.426   3.527 -0.4614 -0.4480  1.6573
  823THF     H712133   3.624   2.572   3.492  0.1316  1.6050  2.0150
  823THF     C812134   3.625   2.534   3.705 -0.2569  0.5819  0.5072
  823THF     C912135   3.547   2.643   3.780 -0.5551 -0.0621  0.1742
  823THF    H1012136   3.732   2.554   3.704 -0.5591  2.3677  1.2069
  823THF    H1112137   3.606   2.438   3.754  0.8408  0.9161  1.6160
  823THF    H1212138   3.499   2.595   3.865 -1.1431  1.8641  0.9813
  823THF    H1312139   3.617   2.716   3.823 -0.2416 -0.3690  0.1880
  824THF     O112140   4.566   2.207   4.182  0.4909  0.1246  0.7302
  824THF     C212141   4.470   2.097   4.220  0.3637  0.0214  0.5038
  824THF     C312142   4.689   2.134   4.151 -0.6460 -0.3352  0.5784
  824THF     H412143   4.369   2.138   4.213  0.9942  1.3924 -1.1328
  824THF     H512144   4.479   2.067   4.325  0.2601 -3.0418 -0.2625
  824THF     H612145   4.768   2.195   4.107 -3.5377  0.8698 -3.6072
  824THF     H712146   4.726   2.094   4.245  1.2407  1.6066  0.7522
  824THF     C812147   4.637   2.026   4.057  1.2710 -0.1726  0.2606
  824THF     C912148   4.501   1.984   4.118  0.2547  0.0627  0.3952
  824THF    H1012149   4.705   1.941   4.054  0.5327 -0.7624 -0.1372
  824THF    H1112150   4.617   2.061   3.956  0.5354  0.0998  0.4892
  824THF    H1212151   4.426   1.990   4.039  0.9593  0.4767 -0.2626
  824THF    H1312152   4.487   1.887   4.166 -1.0143  0.4646  0.8855
  825THF     O112153   0.186   3.010   1.384 -0.3640  0.2092 -0.0912
  825THF     C212154   0.178   2.921   1.492  0.5253  0.5630  0.2401
  825THF     C312155   0.156   2.937   1.267  0.7965 -0.2347 -0.1290
  825THF     H412156   0.161   2.984   1.579 -1.8701  1.0980 -0.5410
  825THF     H512157   0.273   2.868   1.504 -0.2217 -1.4439 -1.9155
  825THF     H612158   0.131   2.997   1.180  1.2893 -0.0305 -0.1310
  825THF     H712159   0.247   2.879   1.256  1.3691 -0.3574  3.6981
  825THF     C812160   0.044   2.846   1.309 -0.0672 -0.4084  0.0663
  825THF     C912161   0.062   2.836   1.459  0.1748  0.2757  0.9037
  825THF    H1012162   0.021   2.754   1.256 -1.2632  0.5459 -1.1332
  825THF    H1112163  -0.045   2.906   1.289 -0.4266 -0.7813  0.5132
  825THF    H1212164  -0.029   2.865   1.511  1.2255  3.5080  1.1103
  825THF    H1312165   0.081   2.731   1.485 -3.5436 -0.6766  0.3507
  826THF     O112166   1.736   4.296   3.590 -0.1862  0.0096  0.2343
  826THF     C212167   1.700   4.165   3.576  0.1375 -0.7569  0.2913
  826THF     C312168   1.714   4.342   3.727 -0.7147 -0.2623  0.4323
  826THF     H412169   1.786   4.102   3.553  2.0066  1.6708  0.1592
  826THF     H512170   1.624   4.161   3.499 -0.0103  0.5219  0.3436
  826THF     H612171   1.800   4.332   3.793 -2.0229 -2.5526  1.9136
  826THF     H712172   1.705   4.450   3.738 -0.3693 -0.1165 -0.5810
  826THF     C812173   1.601   4.259   3.779 -0.0920  0.1021 -0.9791
  826THF     C912174   1.652   4.130   3.716 -0.2708  0.7086  0.2193
  826THF    H1012175   1.502   4.290   3.744 -0.4520 -0.5118 -0.5425
  826THF    H1112176   1.585   4.252   3.887 -1.3700  2.3827 -0.9619
  826THF    H1212177   1.733   4.095   3.780  0.3655 -0.7417 -1.3209
  826THF    H1312178   1.599   4.035   3.717  3.4808 -1.5749 -0.4555
  827THF     O112179   4.710   4.990   1.905  0.3061 -1.2815  0.3103
  827THF     C212180   4.633   5.040   1.798  0.3278  0.5633 -0.1393
  827THF     C312181   4.704   5.089   2.007 -0.5928  0.2594  0.3394
  827THF     H412182   4.590   4.961   1.737  0.5268 -0.9902  1.6367
  827THF     H512183   4.686   5.114   1.738  0.8736 -0.6911 -1.2614
  827THF     H612184   4.730   5.045   2.103  0.3165 -0.2778 -0.1395
  827THF     H712185   4.765   5.176   1.983  1.4187 -1.1302  0.1732
  827THF     C812186   4.553   5.113   2.011  0.1296  0.5608  0.0132
  827THF     C912187   4.511   5.102   1.862  0.4922 -0.0196 -0.0388
  827THF    H1012188   4.526   5.209   2.054 -0.7752 -0.5268  2.0211
  827THF    H1112189   4.500   5.032   2.062 -0.5558 -0.7328 -2.5533
  827THF    H1212190   4.418   5.047   1.856 -0.0519  0.9990 -1.6650
  827THF    H1312191   4.484   5.196   1.814 -3.3189 -1.5471 -1.2624
  828THF     O112192   1.420   4.511   1.917  0.0365 -0.0389  0.0921
  828THF     C212193   1.372   4.558   1.783  0.3423  0.1548 -0.9858
  828THF     C312194   1.511   4.405   1.890 -0.4702  0.4254 -0.3228
  828THF     H412195   1.327   4.658   1.782 -0.0406  0.2281  3.2894
  828THF     H512196   1.285   4.501   1.749  0.8661  0.3456 -2.7365
  828THF     H612197   1.564   4.393   1.985  1.5800 -0.1374 -1.4734
  828THF     H712198   1.459   4.315   1.858  0.1475  0.3676 -1.2189
  828THF     C812199   1.597   4.466   1.782  0.0900 -0.1183  0.5906
  828THF     C912200   1.496   4.546   1.695 -0.5170 -0.3054 -0.1897
  828THF    H1012201   1.650   4.396   1.717  0.2012  1.3806 -0.9891
  828THF    H1112202   1.668   4.537   1.823  0.3579 -0.7216  1.1807
  828THF    H1212203   1.549   4.635   1.665  0.8855 -1.0287  0.0783
  828THF    H1312204   1.472   4.487   1.607 -0.2088  0.7570 -1.0042
  829THF     O112205   4.241   4.776   4.948 -0.2129 -0.2996  0.6078
  829THF     C212206   4.171   4.886   4.886 -0.6339  0.2666  0.3730
  829THF     C312207   4.214   4.781   5.089 -0.0563  0.2359 -0.7264
  829THF     H412208   4.094   4.858   4.813 -0.6408 -1.9676  1.1523
  829THF     H512209   4.249   4.942   4.836 -0.1624  0.6778  1.5463
  829THF     H612210   4.114   4.742   5.107 -0.3354  1.8193  1.6918
  829THF     H712211   4.285   4.735   5.157 -0.6204  2.3769  1.4542
  829THF     C812212   4.207   4.931   5.118 -0.3143 -0.0341 -0.1403
  829THF     C912213   4.131   4.988   4.996 -0.7509 -0.4080  0.8577
  829THF    H1012214   4.303   4.981   5.135 -1.2022  1.6146  0.2899
  829THF    H1112215   4.167   4.959   5.215  1.5849  2.5466  0.0104
  829THF    H1212216   4.024   4.991   5.016 -0.9694 -2.3492  0.1701
  829THF    H1312217   4.161   5.090   4.968 -0.5994 -0.2254  1.6574
  830THF     O112218   2.652   4.543   2.963 -0.1889  0.1963  0.3863
  830THF     C212219   2.517   4.527   2.915 -0.2787 -0.3310 -0.2915
  830THF     C312220   2.705   4.647   2.889  0.2468 -0.9489 -0.2173
  830THF     H412221   2.457   4.451   2.964 -1.1101  0.0053 -0.7543
  830THF     H512222   2.513   4.493   2.811 -2.0794  0.0938 -0.3924
  830THF     H612223   2.793   4.687   2.941 -1.1292  3.7593 -1.1124
  830THF     H712224   2.729   4.604   2.792 -0.1261  2.1426 -1.7987
  830THF     C812225   2.592   4.750   2.896 -0.6029  0.1127 -0.4017
  830THF     C912226   2.465   4.671   2.911  0.5742  1.0807 -1.1252
  830THF    H1012227   2.592   4.808   2.804  2.0716 -0.5198 -0.8808
  830THF    H1112228   2.606   4.814   2.983 -1.2004 -0.1762 -0.0845
  830THF    H1212229   2.424   4.699   3.008 -0.0486  0.7053 -1.2761
  830THF    H1312230   2.381   4.687   2.843 -1.1185  1.2845  0.9352
  831THF     O112231   3.863   3.189   4.756  0.1510  0.2428 -0.1005
  831THF     C212232   3.780   3.222   4.870  0.1202 -0.6088 -0.1610
  831THF     C312233   3.946   3.310   4.741 -0.0365  0.2511 -0.6699
  831THF     H412234   3.733   3.137   4.921 -0.3368 -1.2971 -1.6689
  831THF     H512235   3.702   3.290   4.836 -0.8504 -1.6619 -0.1044
  831THF     H612236   4.045   3.284   4.705 -0.5385 -1.3872 -0.9940
  831THF     H712237   3.904   3.384   4.672 -1.3034 -1.7580 -2.1920
  831THF     C812238   3.961   3.373   4.885  0.9327  0.6976 -0.6188
  831THF     C912239   3.872   3.287   4.971 -1.3562 -1.1913  0.3422
  831THF    H1012240   3.939   3.479   4.886 -0.5031  0.4968 -3.0526
  831THF    H1112241   4.065   3.360   4.916  1.0920  0.0343 -1.3804
  831THF    H1212242   3.935   3.213   5.022 -0.7076  0.3783  1.9392
  831THF    H1312243   3.825   3.341   5.053  1.1405  0.2527  0.9157
  832THF     O112244   0.800   4.473   0.919 -0.1796  0.2286  0.2629
  832THF     C212245   0.779   4.367   1.013 -0.0613  0.5263  0.3039
  832THF     C312246   0.787   4.594   0.989 -0.1293  0.1245  0.5626
  832THF     H412247   0.863   4.331   1.071  0.5116 -1.4668 -1.6144
  832THF     H512248   0.760   4.276   0.956  0.7513  0.2458  0.4651
  832THF     H612249   0.871   4.608   1.057  3.3338 -2.0070 -2.8648
  832THF     H712250   0.796   4.679   0.921  1.1777 -0.5813 -0.1965
  832THF     C812251   0.658   4.568   1.069  0.1256  0.0026  0.1832
  832THF     C912252   0.663   4.419   1.091  0.4821  0.0007  0.2390
  832THF    H1012253   0.573   4.597   1.008 -0.1241 -0.4171  0.3306
  832THF    H1112254   0.642   4.626   1.159  0.4444 -1.4058  1.1736
  832THF    H1212255   0.665   4.395   1.198 -0.5280  0.2074  0.3187
  832THF    H1312256   0.574   4.374   1.046  0.9770  1.2246 -2.1321
  833THF     O112257   2.813   0.837   3.769  0.3454  0.2576  0.3727
  833THF     C212258   2.774   0.815   3.902  0.1582 -0.4159  0.2631
  833THF     C312259   2.907   0.742   3.734  0.6548 -0.9993 -0.1717
  833THF     H412260   2.671   0.848   3.917  1.0608  2.3530  0.8600
  833THF     H512261   2.825   0.874   3.978  0.5151 -1.0086  0.4904
  833THF     H612262   2.926   0.747   3.626  0.7455  1.5542 -0.1060
  833THF     H712263   2.988   0.790   3.788 -1.8527  2.4587  0.8615
  833THF     C812264   2.861   0.616   3.806 -0.3008 -0.0979 -0.2080
  833THF     C912265   2.791   0.666   3.930  0.2421 -0.3124  0.5102
  833THF    H1012266   2.941   0.548   3.835 -0.3556  0.8999  2.5287
  833THF    H1112267   2.794   0.562   3.738 -2.6252 -0.8164  2.4453
  833THF    H1212268   2.702   0.610   3.959 -0.8793  0.8492 -0.5855
  833THF    H1312269   2.875   0.668   4.000 -0.1411  2.5760  0.9690
  834THF     O112270   2.345   4.466   4.023 -0.0774  0.2037 -0.0265
  834THF     C212271   2.234   4.500   3.948  0.1700  0.2152 -0.2175
  834THF     C312272   2.367   4.328   3.991 -0.0080 -0.3571  0.2951
  834THF     H412273   2.235   4.607   3.929 -1.5602  0.0714 -1.2892
  834THF     H512274   2.141   4.473   3.998 -1.6921 -0.5866 -3.8356
  834THF     H612275   2.468   4.306   4.027 -0.7583 -2.0017  1.5739
  834THF     H712276   2.301   4.257   4.042  0.3271 -0.9121 -0.0253
  834THF     C812277   2.355   4.331   3.842  0.1364 -0.7243  1.0531
  834THF     C912278   2.249   4.433   3.815 -0.5652  0.0582  0.2971
  834THF    H1012279   2.320   4.234   3.806  0.6224  0.2692 -2.5694
  834THF    H1112280   2.444   4.364   3.789 -1.3375  1.0320 -0.5220
  834THF    H1212281   2.274   4.506   3.738 -0.0261  1.3601  1.6537
  834THF    H1312282   2.153   4.385   3.792 -0.4292 -0.1915  0.2414
  835THF     O112283   3.626   2.018   3.928 -0.4754 -0.1597 -0.2219
  835THF     C212284   3.707   2.083   3.833 -0.0412 -0.4129  0.1900
  835THF     C312285   3.722   1.976   4.035  0.0791  0.1869  0.3526
  835THF     H412286   3.646   2.126   3.753 -0.3136 -2.7616 -0.9526
  835THF     H512287   3.780   2.007   3.805 -0.2551 -1.4680  2.2427
  835THF     H612288   3.678   1.952   4.131 -0.5325 -0.5845 -0.1039
  835THF     H712289   3.785   1.896   3.996  2.2843  2.2047 -0.4840
  835THF     C812290   3.797   2.109   4.050  0.3670 -0.2894  0.0066
  835THF     C912291   3.764   2.186   3.922  0.0651 -0.1906 -0.5544
  835THF    H1012292   3.901   2.079   4.049 -0.0067 -1.6586  0.1995
  835THF    H1112293   3.780   2.162   4.144 -0.2440 -2.2836  1.0775
  835THF    H1212294   3.688   2.262   3.937  1.3136  0.7691  1.2409
  835THF    H1312295   3.850   2.242   3.886  0.1499  0.1767  0.2004
  836THF     O112296   2.522   3.208   2.298 -0.3876 -0.0507 -0.3444
  836THF     C212297   2.663   3.192   2.296 -0.4305 -0.2526 -0.0342
  836THF     C312298   2.494   3.321   2.376 -0.1486  0.0997  0.2790
  836THF     H412299   2.698   3.135   2.210  1.5428  1.1362 -0.2315
  836THF     H512300   2.694   3.141   2.387  1.5835 -0.6795 -0.9032
  836THF     H612301   2.393   3.362   2.371 -0.0343  0.4492  0.8158
  836THF     H712302   2.515   3.301   2.481 -0.9571  1.0571  0.6289
  836THF     C812303   2.582   3.425   2.304 -0.0605  0.3051  0.6379
  836THF     C912304   2.709   3.338   2.269  0.0863  0.7181  0.2639
  836THF    H1012305   2.620   3.502   2.371  3.4694 -0.6938  0.0315
  836THF    H1112306   2.536   3.458   2.211 -1.2349 -1.6340  0.4699
  836THF    H1212307   2.740   3.350   2.165  0.4530  2.4486  0.5431
  836THF    H1312308   2.802   3.361   2.321  1.2883  0.8390 -1.8215
  837THF     O112309   0.643   1.598   5.428 -0.2532 -0.0173 -0.8033
  837THF     C212310   0.762   1.665   5.371 -0.4065  0.0001  0.4752
  837THF     C312311   0.581   1.698   5.505  0.2161  0.5551  0.5843
  837THF     H412312   0.803   1.619   5.282  2.4544  0.4493  1.4596
  837THF     H512313   0.839   1.674   5.448  0.6423 -0.7114 -0.4821
  837THF     H612314   0.477   1.696   5.472  0.6396  1.1223 -0.8242
  837THF     H712315   0.590   1.668   5.610  0.3243 -1.7003 -0.0308
  837THF     C812316   0.631   1.844   5.471 -0.4630  0.8923 -0.0831
  837THF     C912317   0.709   1.805   5.342 -0.2714  0.2862 -0.8922
  837THF    H1012318   0.706   1.870   5.546 -0.5053  0.4665  0.1121
  837THF    H1112319   0.549   1.915   5.468 -0.9424  0.3327 -0.7703
  837THF    H1212320   0.644   1.801   5.255  0.4784 -0.4791 -1.4304
  837THF    H1312321   0.788   1.873   5.308 -0.9654  2.6522  1.8058
  838THF     O112322   0.790   0.593   0.850  0.3871 -0.0523  0.0357
  838THF     C212323   0.776   0.538   0.983 -0.0990 -0.2607  0.2719
  838THF     C312324   0.832   0.485   0.762  0.2072 -0.7691  0.2363
  838THF     H412325   0.716   0.609   1.039 -0.8777 -1.2175  0.6664
  838THF     H512326   0.871   0.528   1.036  0.0260  2.4986  0.7475
  838THF     H612327   0.816   0.518   0.659  2.8890  1.9855  0.5936
  838THF     H712328   0.935   0.458   0.784  0.4963 -0.3486 -0.5888
  838THF     C812329   0.748   0.372   0.808  0.2826 -0.6072 -0.2214
  838THF     C912330   0.704   0.406   0.956 -0.2163  0.7425  0.1045
  838THF    H1012331   0.795   0.275   0.794 -1.0677 -1.6191  1.6669
  838THF    H1112332   0.658   0.363   0.747  1.6594 -1.8983 -2.1793
  838THF    H1212333   0.596   0.422   0.959 -0.4260 -0.1462 -1.5497
  838THF    H1312334   0.729   0.325   1.025 -0.7518  0.3903 -0.1076
  839THF     O112335   0.002   4.982   1.526  0.2786  0.0380 -0.0949
  839THF     C212336  -0.088   5.062   1.452  0.2314  0.7688 -0.2352
  839THF     C312337   0.128   5.035   1.551  0.0804 -0.0453 -0.2507
  839THF     H412338  -0.190   5.025   1.465  1.1410 -2.1019 -0.3669
  839THF     H512339  -0.047   5.052   1.352  2.9049 -1.1942  0.9203
  839THF     H612340   0.159   5.015   1.653  0.7029  2.8130  0.2145
  839THF     H712341   0.201   5.012   1.473 -0.6943  0.2911 -1.0979
  839THF     C812342   0.095   5.187   1.547  0.0343 -0.2515  0.8503
  839THF     C912343  -0.055   5.199   1.505  0.6398 -0.5705  0.0779
  839THF    H1012344   0.154   5.242   1.474 -0.5696 -2.6108 -1.5782
  839THF    H1112345   0.111   5.233   1.644  0.4060 -0.0206  0.6791
  839THF    H1212346  -0.114   5.218   1.595  1.1120 -0.7768  0.4319
  839THF    H1312347  -0.077   5.285   1.441  0.4614 -1.8554 -1.6677
  840THF     O112348   2.482   2.017   1.158 -0.3892  0.7240  0.0619
  840THF     C212349   2.600   1.940   1.192 -0.4999 -0.3530  0.2819
  840THF     C312350   2.411   1.936   1.064  0.5663  0.0230 -0.1621
  840THF     H412351   2.585   1.871   1.275  2.4531 -0.1944  1.0597
  840THF     H512352   2.687   2.000   1.219  1.1032 -2.1472 -0.6397
  840THF     H612353   2.363   1.853   1.114  3.7636 -1.1414  1.2713
  840THF     H712354   2.323   1.984   1.021  0.4182  0.5830  0.7481
  840THF     C812355   2.515   1.879   0.972 -0.2889  0.2128  0.1944
  840THF     C912356   2.636   1.865   1.061  0.2045  0.1980 -0.1601
  840THF    H1012357   2.545   1.935   0.883  0.9962 -0.4140  0.2134
  840THF    H1112358   2.475   1.779   0.952 -0.2443  0.4473 -1.2053
  840THF    H1212359   2.660   1.759   1.070  2.7454  0.7905  1.3459
  840THF    H1312360   2.726   1.909   1.018  1.7025 -2.4525  0.0463
  841THF     O112361   3.556   2.703   0.640  0.1090  0.0328  0.0188
  841THF     C212362   3.647   2.604   0.680 -0.4651 -0.0705 -0.5716
  841THF     C312363   3.582   2.819   0.714  0.4953  0.1390 -0.6072
  841THF     H412364   3.729   2.609   0.608  0.3982  0.7801  0.4442
  841THF     H512365   3.615   2.501   0.696 -0.1254  0.2786  3.3108
  841THF     H612366   3.658   2.889   0.678  1.0442 -0.9370 -1.6397
  841THF     H712367   3.480   2.856   0.703 -0.0505 -1.5563 -1.7094
  841THF     C812368   3.619   2.769   0.851  0.3652 -0.6431  0.3769
  841THF     C912369   3.703   2.648   0.819 -1.0674  0.6662  0.4209
  841THF    H1012370   3.537   2.743   0.918  0.5745 -0.6698  0.6281
  841THF    H1112371   3.668   2.845   0.913  0.4657 -1.2069  1.0059
  841THF    H1212372   3.809   2.674   0.814 -0.5024 -1.5455 -0.3596
  841THF    H1312373   3.702   2.574   0.899  1.0878 -0.9965 -0.9506
  842THF     O112374   0.944   5.008   4.597  0.3037  0.0152  0.5286
  842THF     C212375   1.051   4.980   4.505 -0.0853 -0.0464 -0.2584
  842THF     C312376   0.852   4.899   4.593  0.7133 -0.6363 -0.2285
  842THF     H412377   1.138   5.041   4.529  1.2982 -1.7237 -0.7012
  842THF     H512378   1.010   5.008   4.408 -1.2706  0.7916  0.4648
  842THF     H612379   0.795   4.900   4.686 -0.3194  0.5361 -0.8392
  842THF     H712380   0.793   4.917   4.503 -1.7140 -0.0205  1.3890
  842THF     C812381   0.952   4.780   4.580  0.8792 -0.7390  0.0597
  842THF     C912382   1.088   4.841   4.542  0.0438  0.0013 -0.6206
  842THF    H1012383   0.915   4.707   4.508 -0.7068 -2.6526  2.6274
  842THF    H1112384   0.960   4.722   4.672  0.8234 -0.0573  0.5020
  842THF    H1212385   1.151   4.831   4.630 -0.1436  0.2917 -0.4533
  842THF    H1312386   1.127   4.791   4.453 -2.7832 -3.2294 -0.2213
  843THF     O112387   5.354   4.396   3.741 -0.5888 -0.4061  0.4381
  843THF     C212388   5.361   4.259   3.772 -0.6406 -0.4408  0.0253
  843THF     C312389   5.369   4.398   3.597  0.0709  0.1601  0.4454
  843THF     H412390   5.323   4.242   3.872 -1.4483 -0.2093 -0.2373
  843THF     H512391   5.463   4.221   3.768 -0.4540 -0.1997  1.6886
  843THF     H612392   5.336   4.491   3.552  1.0359 -0.4642 -1.6568
  843THF     H712393   5.474   4.394   3.568 -0.1929  1.1259 -0.7063
  843THF     C812394   5.279   4.284   3.549  0.5920 -0.2838 -0.7003
  843THF     C912395   5.266   4.192   3.672  0.5494 -0.4241  0.4246
  843THF    H1012396   5.327   4.238   3.463 -1.2904 -1.5415 -1.1437
  843THF    H1112397   5.183   4.321   3.513 -0.1527  0.6885  2.0382
  843THF    H1212398   5.166   4.198   3.716 -0.3275  1.7891 -1.6442
  843THF    H1312399   5.297   4.091   3.646 -0.6872 -0.3296 -1.6658
  844THF     O112400   0.921   2.405   5.321 -0.7773  0.3854 -0.0617
  844THF     C212401   0.810   2.329   5.346 -0.2891 -0.7368  0.7157
  844THF     C312402   1.031   2.339   5.266  0.2340 -0.6071 -0.1943
  844THF     H412403   0.724   2.339   5.279  2.0523  1.9908 -2.2056
  844THF     H512404   0.768   2.355   5.443 -2.1002 -0.2868 -0.1300
  844THF     H612405   1.011   2.337   5.158 -3.5939 -1.6080  0.4053
  844THF     H712406   1.120   2.395   5.296 -0.5010  1.4780 -1.6866
  844THF     C812407   1.012   2.201   5.336  0.0735 -0.6352  0.0836
  844THF     C912408   0.863   2.187   5.330  0.2512 -0.5424 -0.3055
  844THF    H1012409   1.049   2.194   5.438 -3.8255 -1.8978  1.5616
  844THF    H1112410   1.062   2.116   5.289  2.0243  0.1799  0.5964
  844THF    H1212411   0.842   2.148   5.231 -1.1159 -3.7489  1.1003
  844THF    H1312412   0.825   2.120   5.407 -1.6116  0.3269 -0.4085
  845THF     O112413   3.215   2.470   0.672 -0.4033  0.0581 -0.0793
  845THF     C212414   3.248   2.595   0.606 -0.2776  0.5684  0.1271
  845THF     C312415   3.149   2.498   0.795  0.2468  0.4572 -0.3262
  845THF     H412416   3.186   2.600   0.516  2.4897  1.9892 -1.8472
  845THF     H512417   3.355   2.599   0.584 -0.2003  1.6398  0.6428
  845THF     H612418   3.076   2.419   0.812 -0.2431  1.1295  0.8035
  845THF     H712419   3.225   2.498   0.873  1.8939 -0.9577 -1.8543
  845THF     C812420   3.094   2.634   0.775  0.9268  0.5708 -0.4273
  845THF     C912421   3.198   2.706   0.700  0.2168  0.1345  0.0918
  845THF    H1012422   3.072   2.675   0.874  0.1448 -1.1338  0.1647
  845THF    H1112423   3.005   2.619   0.714 -0.2808  1.8401  0.9302
  845THF    H1212424   3.155   2.791   0.648  0.6058  0.3649  0.1463
  845THF    H1312425   3.281   2.735   0.765 -0.1235 -0.7054  0.9416
  846THF     O112426   2.567   4.977   4.120  0.1989 -0.3094  0.1838
  846THF     C212427   2.605   5.110   4.087 -0.1591  0.0610 -0.0786
  846THF     C312428   2.445   4.957   4.063  1.2944  0.5867 -0.2348
  846THF     H412429   2.631   5.122   3.982 -0.0711  0.8301  0.0218
  846THF     H512430   2.690   5.159   4.134 -1.0443  0.5582  1.0703
  846THF     H612431   2.447   4.944   3.955 -2.5155 -0.9117 -0.3031
  846THF     H712432   2.396   4.866   4.098  1.8053 -0.6223 -2.4626
  846THF     C812433   2.363   5.083   4.092  0.1149  0.0265  0.1466
  846THF     C912434   2.474   5.187   4.116  0.5003  0.6313 -0.8644
  846THF    H1012435   2.296   5.064   4.176 -1.2013 -1.2827 -1.1283
  846THF    H1112436   2.299   5.108   4.007 -1.2206  0.4606  1.2360
  846THF    H1212437   2.455   5.271   4.049 -1.2231  0.9223 -0.0706
  846THF    H1312438   2.478   5.217   4.221  0.9511 -1.1437 -0.3380
  847THF     O112439   1.082   2.342   2.499  0.2154 -0.7330 -0.1643
  847THF     C212440   1.037   2.206   2.493 -0.1640 -0.1355 -0.2503
  847THF     C312441   1.027   2.415   2.390 -0.0739  0.4779  1.0900
  847THF     H412442   0.930   2.196   2.512 -0.5928  2.2016 -1.1162
  847THF     H512443   1.101   2.150   2.561  0.2103 -0.3895 -0.8096
  847THF     H612444   0.929   2.457   2.415  0.2858  4.0710 -2.5012
  847THF     H712445   1.090   2.501   2.368  0.6044  0.1533  1.7269
  847THF     C812446   1.016   2.310   2.279  0.8729 -0.2512  0.4314
  847THF     C912447   1.054   2.185   2.347 -0.0149 -0.0156 -0.3010
  847THF    H1012448   1.079   2.332   2.192  0.4893  1.1670  0.4910
  847THF    H1112449   0.918   2.291   2.235  2.1888 -3.3159 -1.5546
  847THF    H1212450   0.995   2.098   2.318  0.7533  0.0072 -2.0487
  847THF    H1312451   1.158   2.158   2.333  1.1004  3.2384  0.7939
  848THF     O112452   3.739   1.775   4.692 -0.4067 -0.2051  0.0719
  848THF     C212453   3.764   1.789   4.554  0.1135  0.0398 -0.0064
  848THF     C312454   3.603   1.744   4.726 -0.2369  0.0094  0.4340
  848THF     H412455   3.817   1.700   4.520  1.1550  0.5821  0.1428
  848THF     H512456   3.826   1.875   4.528 -1.4358  0.9835 -0.7108
  848THF     H612457   3.595   1.636   4.734 -2.5180  0.2000  1.5918
  848THF     H712458   3.572   1.772   4.827  1.8173 -0.1767  1.1669
  848THF     C812459   3.532   1.812   4.604 -0.2432  0.5315 -0.2071
  848THF     C912460   3.626   1.797   4.484  0.3769  0.3080  0.1312
  848THF    H1012461   3.505   1.914   4.629 -0.6401 -0.4563  4.1699
  848THF    H1112462   3.442   1.751   4.594  0.1586 -0.3625  1.4518
  848THF    H1212463   3.600   1.708   4.427 -0.6422  0.1006  0.9140
  848THF    H1312464   3.628   1.886   4.421  1.1733 -0.8829 -1.5962
  849THF     O112465   0.684   3.796   1.909 -0.5197 -0.6419 -0.1851
  849THF     C212466   0.546   3.814   1.915 -0.4589  0.1975 -0.2972
  849THF     C312467   0.749   3.920   1.947  0.2750  0.1820 -0.3410
  849THF     H412468   0.492   3.719   1.927  0.4174 -0.2468  0.2186
  849THF     H512469   0.523   3.866   1.822 -0.1500 -0.1902 -0.5988
  849THF     H612470   0.849   3.896   1.985 -0.6693 -0.3783  1.9160
  849THF     H712471   0.764   3.968   1.850  1.5048 -0.5514 -0.5486
  849THF     C812472   0.653   3.980   2.049  0.1841  0.5148  0.4966
  849THF     C912473   0.525   3.883   2.042 -0.3689 -0.2119 -0.1860
  849THF    H1012474   0.633   4.076   2.000  3.3355  0.3422 -1.4295
  849THF    H1112475   0.695   3.984   2.149 -1.4385 -0.6187  1.2586
  849THF    H1212476   0.514   3.811   2.124 -0.4906 -1.4801 -1.2909
  849THF    H1312477   0.437   3.946   2.038  0.7993  1.3969 -1.6450
  850THF     O112478   4.735   1.331   1.774  0.0562 -0.0132  0.1623
  850THF     C212479   4.809   1.268   1.672  0.4687 -0.0042  0.1324
  850THF     C312480   4.747   1.476   1.776  0.1492  0.4590 -0.1718
  850THF     H412481   4.767   1.173   1.639  2.0088 -0.0535 -1.8599
  850THF     H512482   4.907   1.256   1.718  0.5823  1.4571  0.3022
  850THF     H612483   4.646   1.515   1.789 -0.5217 -1.1757 -0.2816
  850THF     H712484   4.808   1.516   1.857  0.1093  0.6558 -0.2390
  850THF     C812485   4.803   1.505   1.632 -0.0881 -0.1539 -0.4246
  850THF     C912486   4.806   1.374   1.563  0.4243  0.5705 -0.2562
  850THF    H1012487   4.901   1.550   1.644 -0.4550  0.0623  2.4438
  850THF    H1112488   4.732   1.577   1.590 -0.9799  1.1411  2.9399
  850THF    H1212489   4.722   1.379   1.495 -0.7606 -0.2589  1.1012
  850THF    H1312490   4.899   1.358   1.507  0.0512 -0.4696 -0.6042
  851THF     O112491   5.393   0.199   0.319  0.2823 -0.1296  0.4552
  851THF     C212492   5.377   0.334   0.351  0.1490  0.2904 -0.3224
  851THF     C312493   5.522   0.157   0.282  0.5364 -0.1535 -0.2293
  851THF     H412494   5.404   0.350   0.455  0.1579 -0.1762 -0.2509
  851THF     H512495   5.270   0.355   0.347  0.1321  0.2086 -0.2984
  851THF     H612496   5.574   0.101   0.359 -0.6512 -2.5281 -1.0556
  851THF     H712497   5.510   0.093   0.195 -0.7579  1.4137 -1.2737
  851THF     C812498   5.572   0.291   0.222 -0.2187 -0.6675  0.9147
  851THF     C912499   5.464   0.393   0.244  0.4049  0.3113  0.0101
  851THF    H1012500   5.600   0.286   0.117  2.2114  0.9712  1.4173
  851THF    H1112501   5.658   0.321   0.281 -0.4945 -0.3823  1.1717
  851THF    H1212502   5.508   0.491   0.264  0.5849  0.2327  0.0092
  851THF    H1312503   5.407   0.410   0.153  1.9941  2.4570 -0.6802
  852THF     O112504   2.700   5.014   0.547  0.3237 -0.4474 -0.2415
  852THF     C212505   2.668   4.938   0.668  0.8674  0.0644  0.4940
  852THF     C312506   2.839   5.001   0.511  0.6930 -0.0910 -0.0087
  852THF     H412507   2.577   4.879   0.654  1.2499  0.0641 -3.1572
  852THF     H512508   2.642   4.995   0.757 -0.7819 -1.0092  0.7364
  852THF     H612509   2.837   5.005   0.402  0.2401  0.5592  0.0168
  852THF     H712510   2.894   5.077   0.566 -0.5254  0.4869  0.4387
  852THF     C812511   2.863   4.867   0.569 -0.0091 -0.1179  1.1439
  852THF     C912512   2.788   4.862   0.701 -0.8838  0.0969 -0.2588
  852THF    H1012513   2.968   4.850   0.592  0.7842  0.9432 -1.3566
  852THF    H1112514   2.823   4.783   0.514  1.6047 -1.0464  1.3355
  852THF    H1212515   2.768   4.757   0.720  0.9466 -0.6188 -1.8975
  852THF    H1312516   2.850   4.912   0.776 -0.8468 -1.1691  0.5716
  853THF     O112517   0.531   5.497   0.166  0.7765  0.3036  0.2264
  853THF     C212518   0.454   5.396   0.093 -0.2738 -0.2170  0.0596
  853THF     C312519   0.453   5.614   0.155 -0.2391  0.0291  0.8182
  853THF     H412520   0.366   5.371   0.153  1.6309  0.3696  3.3423
  853THF     H512521   0.513   5.304   0.086 -0.0436 -0.0772  0.1674
  853THF     H612522   0.358   5.618   0.208 -0.0327  0.7946  1.1367
  853THF     H712523   0.495   5.702   0.204 -2.7645  3.0311 -1.9376
  853THF     C812524   0.425   5.621   0.006 -0.2994  0.0827  0.1843
  853THF     C912525   0.432   5.470  -0.039 -0.1882 -0.1198 -0.4116
  853THF    H1012526   0.493   5.685  -0.050 -1.5824  0.9995 -0.3827
  853THF    H1112527   0.328   5.668  -0.011  1.2137  3.2450 -0.4124
  853THF    H1212528   0.343   5.444  -0.097 -0.8780  0.9055  0.1562
  853THF    H1312529   0.520   5.453  -0.101  0.3118 -0.9346  0.4962
  854THF     O112530   4.048   1.521   0.825 -0.7925 -0.2580 -0.4067
  854THF     C212531   4.117   1.632   0.877  0.2590 -0.2260 -0.1470
  854THF     C312532   4.128   1.406   0.852  0.4715 -0.0465 -0.0314
  854THF     H412533   4.078   1.648   0.977 -1.9947  1.3414 -1.1616
  854THF     H512534   4.084   1.716   0.815 -0.2718 -0.5578 -0.3224
  854THF     H612535   4.070   1.339   0.915  1.6364  0.2607  1.4132
  854THF     H712536   4.146   1.346   0.763  0.9401 -2.1570  1.4034
  854THF     C812537   4.264   1.456   0.911  0.3974 -0.1119 -0.5012
  854THF     C912538   4.259   1.595   0.868  0.0944  0.5127  0.0126
  854THF    H1012539   4.347   1.401   0.867  0.5315  0.2210 -0.6718
  854THF    H1112540   4.283   1.440   1.017 -1.4564 -1.3893 -0.3157
  854THF    H1212541   4.311   1.664   0.933 -0.7536  1.5356 -0.3752
  854THF    H1312542   4.290   1.598   0.763  0.4551 -1.1772  0.0437
  855THF     O112543   3.228   5.502   2.376 -0.4505  0.1868 -1.1865
  855THF     C212544   3.237   5.390   2.285 -0.3289  0.2723 -0.8466
  855THF     C312545   3.171   5.618   2.311  0.0387  0.8471  0.4825
  855THF     H412546   3.218   5.297   2.338 -0.4930  0.6173 -0.2962
  855THF     H512547   3.340   5.388   2.250  0.0076  0.1274  0.1260
  855THF     H612548   3.067   5.635   2.341  0.2588  2.2119  0.5377
  855THF     H712549   3.226   5.706   2.343 -0.8379  0.6360  2.7665
  855THF     C812550   3.179   5.577   2.159 -0.1249 -0.2471  0.0398
  855THF     C912551   3.153   5.427   2.171 -0.3754 -0.0594  0.4974
  855THF    H1012552   3.273   5.598   2.108  0.0384  1.5764  1.0188
  855THF    H1112553   3.114   5.638   2.097  0.7480  1.8203  1.0647
  855THF    H1212554   3.048   5.405   2.192 -0.9070 -0.2161 -2.0591
  855THF    H1312555   3.187   5.380   2.079  1.4013  3.1981 -0.6780
  856THF     O112556   2.645   0.090   4.073 -0.0842  0.2032 -0.5454
  856THF     C212557   2.712  -0.017   4.143  0.6295 -0.1328 -0.4138
  856THF     C312558   2.643   0.056   3.933 -0.1142 -0.3116 -0.2549
  856THF     H412559   2.643  -0.101   4.156  0.7437 -0.2274 -0.4213
  856THF     H512560   2.729   0.003   4.249 -1.2619 -0.6151  0.0238
  856THF     H612561   2.557  -0.010   3.925  0.2943 -1.5563  3.5663
  856THF     H712562   2.624   0.135   3.860  2.0219 -0.1941 -0.7356
  856THF     C812563   2.789   0.002   3.919  0.6789  0.6539 -0.3165
  856THF     C912564   2.828  -0.043   4.054  0.8051  0.0549  0.7025
  856THF    H1012565   2.854   0.079   3.877  0.9538  0.2078 -0.7297
  856THF    H1112566   2.812  -0.063   3.834 -4.1950  2.2745 -3.2753
  856THF    H1212567   2.857  -0.147   4.064  0.0424 -0.4207 -1.6043
  856THF    H1312568   2.914   0.017   4.087  1.4467 -0.8194  0.6394
  857THF     O112569   3.696   3.356   4.334 -0.0886  0.0344 -0.2578
  857THF     C212570   3.638   3.477   4.385 -0.0840  0.6008 -0.2425
  857THF     C312571   3.711   3.262   4.434 -0.1412 -0.2080  0.4246
  857THF     H412572   3.547   3.506   4.332 -1.1026  1.3675  1.8306
  857THF     H512573   3.716   3.552   4.377  0.6388 -0.0560  0.4797
  857THF     H612574   3.704   3.161   4.394 -0.7291  0.3538 -0.9381
  857THF     H712575   3.814   3.278   4.467 -0.5509  2.9554  0.5003
  857THF     C812576   3.614   3.300   4.543 -0.0544  0.4221  0.4260
  857THF     C912577   3.613   3.455   4.534 -0.2018 -0.6732  0.6318
  857THF    H1012578   3.636   3.264   4.644 -1.6277 -1.9335  0.0114
  857THF    H1112579   3.508   3.277   4.530  0.0216 -1.3871  2.3745
  857THF    H1212580   3.516   3.492   4.567  0.9756  1.4847  1.8602
  857THF    H1312581   3.690   3.499   4.597 -1.4987  1.7945  0.6047
  858THF     O112582   4.348   4.067   0.887  0.1816 -1.0614  0.6611
  858THF     C212583   4.228   4.107   0.819 -0.1731 -0.2964 -0.1517
  858THF     C312584   4.401   4.182   0.956  0.5423 -0.2063  0.2054
  858THF     H412585   4.138   4.070   0.869 -0.1057  2.2102  2.0762
  858THF     H512586   4.225   4.097   0.711  0.5460  1.8560 -0.4257
  858THF     H612587   4.344   4.179   1.049 -2.1879  0.3619 -1.3478
  858THF     H712588   4.507   4.173   0.979  0.4983 -1.0943  0.1236
  858THF     C812589   4.362   4.308   0.872 -0.4091 -0.0456  0.7606
  858THF     C912590   4.218   4.258   0.842  0.4135  0.5336 -0.2496
  858THF    H1012591   4.428   4.304   0.785 -0.9840 -1.2952  0.3539
  858THF    H1112592   4.364   4.407   0.918  0.9922  1.1132 -1.6032
  858THF    H1212593   4.144   4.281   0.918 -1.8789 -2.2121 -1.4692
  858THF    H1312594   4.189   4.301   0.746  2.5524  1.0461 -0.7288
  859THF     O112595   4.858   1.521   0.746 -0.0607  0.7948  0.9783
  859THF     C212596   4.774   1.414   0.703  0.1243  0.1723  0.2206
  859THF     C312597   4.814   1.646   0.690  0.1242  0.7065  0.5073
  859THF     H412598   4.780   1.320   0.758  1.0719  0.5815  0.8439
  859THF     H512599   4.804   1.391   0.600 -2.8056  0.3215 -0.7520
  859THF     H612600   4.849   1.735   0.741 -0.7736 -0.2357  2.9420
  859THF     H712601   4.862   1.642   0.593  1.7140 -2.2457  1.3027
  859THF     C812602   4.657   1.624   0.691 -0.0522  0.6919  0.8286
  859THF     C912603   4.634   1.474   0.709 -0.6496  0.1415  0.8820
  859THF    H1012604   4.605   1.657   0.601  1.7219  2.5658  0.4120
  859THF    H1112605   4.610   1.684   0.770  0.4278  2.7960 -0.4011
  859THF    H1212606   4.588   1.462   0.807 -2.7166 -1.9752 -0.2600
  859THF    H1312607   4.569   1.437   0.629 -0.7381  2.5371 -0.2536
  860THF     O112608   1.972   0.647   2.759  0.4734  0.2810 -0.0533
  860THF     C212609   1.845   0.713   2.732 -0.6756  0.0148 -0.1946
  860THF     C312610   2.073   0.755   2.748  0.2913 -0.4077  0.2174
  860THF     H412611   1.821   0.756   2.829 -0.1890 -1.4406  0.6045
  860THF     H512612   1.769   0.640   2.705  0.1495 -0.7984 -0.3901
  860THF     H612613   2.091   0.807   2.843  0.2482  0.7008 -0.3651
  860THF     H712614   2.178   0.734   2.727  0.3851  0.9913 -0.8376
  860THF     C812615   2.015   0.857   2.646  0.0949  0.2162 -0.1645
  860THF     C912616   1.882   0.799   2.618  0.3110 -0.5992  0.2808
  860THF    H1012617   2.073   0.863   2.554 -2.8331  0.4054 -2.1369
  860THF    H1112618   2.014   0.956   2.691 -1.8234 -0.9806  2.7304
  860THF    H1212619   1.810   0.879   2.603  0.7424 -0.1383  0.6492
  860THF    H1312620   1.895   0.740   2.527  0.9633 -3.1255  1.8921
  861THF     O112621   0.548   1.221   3.289 -0.4860 -0.0218 -0.6511
  861THF     C212622   0.591   1.189   3.417  0.1084 -0.0324  0.6541
  861THF     C312623   0.521   1.357   3.281 -0.2088  0.2005  0.1036
  861THF     H412624   0.642   1.093   3.419  0.4227  0.0942 -0.6940
  861THF     H512625   0.507   1.179   3.487  1.4711  0.8553  2.4990
  861THF     H612626   0.550   1.372   3.177 -2.7234 -2.3160 -1.0761
  861THF     H712627   0.413   1.369   3.286 -0.6159 -1.7895 -2.2834
  861THF     C812628   0.615   1.417   3.389 -1.0237 -0.4284 -0.2028
  861THF     C912629   0.688   1.295   3.447  0.2325  0.3113  0.4198
  861THF    H1012630   0.545   1.472   3.453 -0.2436 -0.6142  0.8389
  861THF    H1112631   0.680   1.494   3.347 -0.0834 -1.9644 -1.6752
  861THF    H1212632   0.777   1.278   3.386  0.0341  1.6426 -0.2841
  861THF    H1312633   0.735   1.293   3.545  2.9417 -3.2751 -0.7176
  862THF     O112634   3.938   3.889   5.071  0.2045  0.3999  0.5060
  862THF     C212635   3.995   4.011   5.109  0.1232 -0.2490  0.3923
  862THF     C312636   4.051   3.801   5.064 -0.2681 -0.4402 -0.3347
  862THF     H412637   4.024   4.006   5.214  0.6327  0.0631  0.2683
  862THF     H512638   3.927   4.092   5.083 -0.5445 -0.4115  1.5495
  862THF     H612639   4.069   3.752   5.160 -0.9874  0.1960  0.1375
  862THF     H712640   4.037   3.718   4.995 -0.1149 -1.2139  0.5444
  862THF     C812641   4.168   3.882   5.025 -0.1780  0.4146 -0.1799
  862THF     C912642   4.118   4.025   5.024 -0.6367 -0.3064 -0.0622
  862THF    H1012643   4.191   3.853   4.922 -1.7168 -0.6250 -0.2639
  862THF    H1112644   4.246   3.876   5.100 -0.2487 -0.3640 -0.1590
  862THF    H1212645   4.186   4.102   5.063 -1.0298  0.6408 -1.1876
  862THF    H1312646   4.082   4.069   4.931 -0.5990 -0.0748  0.0318
  863THF     O112647   5.314   1.497   3.579 -0.4302  0.2002 -0.0263
  863THF     C212648   5.270   1.511   3.709 -0.4096  0.1958 -0.0091
  863THF     C312649   5.280   1.374   3.523  0.6678 -0.0449  0.0449
  863THF     H412650   5.172   1.558   3.695  0.2763  1.2464 -1.5204
  863THF     H512651   5.342   1.576   3.759 -0.1757 -0.3376  0.3578
  863THF     H612652   5.176   1.377   3.490  0.7620  0.2036 -0.2360
  863THF     H712653   5.336   1.341   3.435 -1.2418  0.5435 -1.4363
  863THF     C812654   5.292   1.286   3.649 -0.2789  0.3102 -0.1713
  863THF     C912655   5.268   1.371   3.769  0.6330 -1.0043 -0.0321
  863THF    H1012656   5.396   1.252   3.647  0.1180  1.3469  1.2290
  863THF    H1112657   5.228   1.199   3.641  0.5073 -0.1231 -2.5045
  863THF    H1212658   5.171   1.354   3.816  0.1160  0.8120 -0.3613
  863THF    H1312659   5.339   1.359   3.851 -0.7730 -1.1128  1.2143
  864THF     O112660   1.756   1.399   0.526 -0.2324 -0.7229 -0.5436
  864THF     C212661   1.896   1.422   0.545  0.2068  0.4872 -0.3483
  864THF     C312662   1.701   1.535   0.516  0.3650  0.3198  0.2358
  864THF     H412663   1.946   1.440   0.450  0.3903 -1.0087 -0.5630
  864THF     H512664   1.955   1.335   0.576  0.3048  0.8623  0.5499
  864THF     H612665   1.717   1.578   0.418 -1.4151  1.0060  0.2061
  864THF     H712666   1.598   1.555   0.544  0.2054 -0.5139  0.2619
  864THF     C812667   1.781   1.607   0.629  0.4859 -0.3705  0.8342
  864THF     C912668   1.912   1.545   0.627  0.5395 -1.2834 -0.8200
  864THF    H1012669   1.734   1.583   0.725 -0.8899 -0.3845  0.1817
  864THF    H1112670   1.782   1.715   0.615 -0.6232 -0.4407  0.0980
  864THF    H1212671   1.982   1.611   0.575 -1.2608  0.1226 -1.5874
  864THF    H1312672   1.950   1.533   0.729 -2.2910 -1.7229  0.2656
  865THF     O112673   2.842   3.483   2.573 -0.3932 -0.7664  0.0576
  865THF     C212674   2.747   3.550   2.655 -0.4675 -0.1462  0.1938
  865THF     C312675   2.914   3.380   2.649  0.6955 -0.1130  0.5555
  865THF     H412676   2.690   3.612   2.586 -0.7054 -1.5607 -0.9210
  865THF     H512677   2.814   3.609   2.717 -0.4849  0.7989 -0.6738
  865THF     H612678   2.919   3.293   2.583 -1.4126 -0.1227  0.3495
  865THF     H712679   3.011   3.406   2.692  1.3640 -0.6808 -0.5476
  865THF     C812680   2.814   3.347   2.760  0.2722 -0.5261 -0.2345
  865THF     C912681   2.689   3.431   2.731 -0.5785  0.3388  0.7856
  865THF    H1012682   2.861   3.366   2.857 -1.5705  1.2369  0.3868
  865THF    H1112683   2.802   3.239   2.762  0.8322 -0.6020 -0.7435
  865THF    H1212684   2.614   3.392   2.662 -0.5839 -1.0684  1.5333
  865THF    H1312685   2.637   3.470   2.819  0.6421  0.4741  1.4661
  866THF     O112686   0.021   1.875   4.176 -0.0032  0.0862  0.1548
  866THF     C212687  -0.121   1.866   4.186 -0.6730  0.8014 -0.4401
  866THF     C312688   0.049   1.843   4.034 -0.4428  0.0633  0.1105
  866THF     H412689  -0.158   1.923   4.271 -0.9628 -0.9482  0.6464
  866THF     H512690  -0.157   1.765   4.207 -2.1742  1.6396  1.2290
  866THF     H612691   0.136   1.894   3.993 -0.7238 -1.8124 -3.0639
  866THF     H712692   0.059   1.735   4.032 -2.5766 -0.2153  1.2764
  866THF     C812693  -0.068   1.877   3.943 -0.6285 -0.0236  0.1454
  866THF     C912694  -0.170   1.918   4.046 -0.8251  0.3995 -0.1279
  866THF    H1012695  -0.105   1.795   3.880 -0.5537 -0.8182  1.1087
  866THF    H1112696  -0.040   1.961   3.880 -1.2148 -0.2284 -0.4065
  866THF    H1212697  -0.178   2.027   4.044  0.2228  0.4756 -1.1494
  866THF    H1312698  -0.265   1.869   4.027 -1.3135  1.9405 -1.9481
  867THF     O112699   0.099   0.798   5.429 -0.1655  0.3061 -0.5094
  867THF     C212700   0.082   0.733   5.304  0.5477 -1.2219 -0.3770
  867THF     C312701   0.186   0.710   5.501 -0.3076 -0.3106 -0.0383
  867THF     H412702   0.172   0.746   5.245  1.0458  0.4189  0.6763
  867THF     H512703   0.002   0.780   5.247  1.8919  0.0559 -1.2765
  867THF     H612704   0.287   0.723   5.463 -1.1844  1.5029 -1.9396
  867THF     H712705   0.188   0.748   5.603 -2.1484  3.5071 -1.2347
  867THF     C812706   0.121   0.572   5.478  0.0592  0.2079  0.7309
  867THF     C912707   0.048   0.592   5.345  0.2549  0.4205 -0.2799
  867THF    H1012708   0.047   0.556   5.556  0.2999 -1.7006  0.6280
  867THF    H1112709   0.183   0.482   5.487 -1.6833 -1.0845  0.3155
  867THF    H1212710   0.078   0.522   5.267 -1.6058 -0.7490 -0.0126
  867THF    H1312711  -0.059   0.579   5.359 -0.0920  1.4845 -1.7243
  868THF     O112712   4.834   1.905   3.446  0.3648  0.2827  0.2120
  868THF     C212713   4.828   1.776   3.397  0.1264 -0.1403  0.5233
  868THF     C312714   4.885   1.990   3.343  0.3360  0.0580 -0.3490
  868THF     H412715   4.750   1.764   3.322  0.1283  2.1475  0.0939
  868THF     H512716   4.822   1.694   3.468 -1.4368 -0.7881 -0.3095
  868THF     H612717   4.816   2.006   3.260 -0.2296 -1.7577 -0.2730
  868THF     H712718   4.913   2.093   3.364  1.1883 -0.1400 -0.4557
  868THF     C812719   4.999   1.907   3.294  0.4969  0.3605  0.1442
  868THF     C912720   4.962   1.765   3.328  0.0092  0.1696  0.5452
  868THF    H1012721   5.077   1.936   3.365 -0.4860  1.9330  0.6481
  868THF    H1112722   5.035   1.921   3.192  1.2095 -2.1562  0.0053
  868THF    H1212723   4.977   1.692   3.249 -0.6329 -0.1563  0.7178
  868THF    H1312724   5.036   1.729   3.400  1.3149 -1.2320 -1.3972
  869THF     O112725   3.070   1.068   4.301  0.2238 -0.2398 -0.5400
  869THF     C212726   3.193   1.004   4.290 -0.9672 -0.2300 -0.2903
  869THF     C312727   2.990   1.021   4.187 -0.9004 -0.9491 -0.5653
  869THF     H412728   3.253   1.008   4.381 -1.2324  0.0809 -0.1282
  869THF     H512729   3.252   1.050   4.211  0.5292  1.8337  1.9033
  869THF     H612730   2.883   1.015   4.203 -0.6304 -0.8108  1.5689
  869THF     H712731   3.004   1.093   4.106 -0.5537  1.2525  1.3587
  869THF     C812732   3.053   0.886   4.150  0.8408 -0.0560  0.3102
  869THF     C912733   3.170   0.865   4.246 -0.0153 -0.1961  0.5762
  869THF    H1012734   3.092   0.885   4.049 -1.2462 -2.1253 -0.5598
  869THF    H1112735   2.987   0.799   4.151 -0.4234  0.8480 -0.8918
  869THF    H1212736   3.143   0.804   4.332  0.3953  0.1330  0.9444
  869THF    H1312737   3.266   0.835   4.204  0.5388 -0.2915  1.8921
  870THF     O112738   4.118   3.883   3.056 -0.4193 -0.7484  0.4308
  870THF     C212739   4.039   3.777   3.002  0.3322  0.3401  0.1117
  870THF     C312740   4.036   3.971   3.133 -0.0230  0.4348 -1.2327
  870THF     H412741   4.023   3.697   3.074 -1.5416  1.5367  1.1102
  870THF     H512742   4.085   3.729   2.915  1.5093  3.7616 -1.3156
  870THF     H612743   3.999   3.926   3.225  0.9818 -1.0855 -1.5270
  870THF     H712744   4.074   4.068   3.163 -5.2776  1.8883  1.9728
  870THF     C812745   3.911   3.990   3.043 -0.3556  0.0746 -0.0720
  870THF     C912746   3.899   3.850   2.977  0.1747  0.0346  0.1630
  870THF    H1012747   3.934   4.078   2.983  0.0295  0.6873  0.9540
  870THF    H1112748   3.817   4.012   3.093 -0.8855  0.2717 -1.1361
  870THF    H1212749   3.834   3.787   3.038  0.0106  0.2517  0.2115
  870THF    H1312750   3.845   3.840   2.883  0.9040 -1.3751 -0.1362
  871THF     O112751   4.387   5.174   1.426 -0.1786  0.5383  0.0891
  871THF     C212752   4.398   5.280   1.335 -0.8429 -0.0598 -0.7014
  871THF     C312753   4.496   5.181   1.512  0.7707  0.5383 -0.5551
  871THF     H412754   4.364   5.373   1.381 -3.3309 -0.5040 -1.4872
  871THF     H512755   4.340   5.266   1.243  0.5210 -1.0762 -1.4380
  871THF     H612756   4.478   5.259   1.585 -1.3996 -0.2931 -0.1084
  871THF     H712757   4.491   5.082   1.557 -0.1681  0.3587 -1.0140
  871THF     C812758   4.609   5.206   1.422 -0.5253  0.2904  0.5600
  871THF     C912759   4.553   5.270   1.300 -0.0060  0.5037  0.4667
  871THF    H1012760   4.663   5.118   1.386  0.2208  0.3883  1.3956
  871THF    H1112761   4.686   5.266   1.472  1.2192 -0.5567 -0.9771
  871THF    H1212762   4.595   5.367   1.273  0.3641 -0.0303 -0.9867
  871THF    H1312763   4.565   5.214   1.207 -2.4930  0.4881  0.0860
  872THF     O112764   5.140   0.986   5.109  0.0574  0.4789 -0.0847
  872THF     C212765   5.272   0.992   5.165 -0.2976 -0.0978  0.3108
  872THF     C312766   5.160   0.989   4.970 -0.2744 -0.4492 -0.0941
  872THF     H412767   5.293   0.889   5.193  0.1433  0.2162  1.1695
  872THF     H512768   5.264   1.062   5.248  0.8479  2.2843 -1.4625
  872THF     H612769   5.170   0.889   4.928 -1.9693 -0.9151  0.5236
  872THF     H712770   5.078   1.038   4.917  0.7175 -3.2412 -4.7281
  872THF     C812771   5.277   1.083   4.946 -0.0679 -0.2325 -0.0629
  872THF     C912772   5.368   1.048   5.062  0.1146 -0.4265 -0.1478
  872THF    H1012773   5.241   1.185   4.952  0.2072 -0.1219 -0.2692
  872THF    H1112774   5.323   1.060   4.849  0.0362 -2.0796  0.3764
  872THF    H1212775   5.437   0.965   5.048 -1.7491 -1.9115 -1.0300
  872THF    H1312776   5.418   1.135   5.104 -1.2789  0.6504 -0.6126
  873THF     O112777   5.092   1.206   0.049 -0.1703 -0.4501 -0.4255
  873THF     C212778   4.963   1.192  -0.018  0.2104 -0.4502  0.1159
  873THF     C312779   5.155   1.324   0.007 -1.3511  0.3374  0.1105
  873THF     H412780   4.880   1.248   0.026  0.5410  0.9630 -0.9696
  873THF     H512781   4.932   1.088  -0.007 -1.0222 -0.0492  0.6076
  873THF     H612782   5.106   1.405   0.062  0.2031  0.3172  1.6121
  873THF     H712783   5.262   1.336   0.022 -1.0810 -0.9772 -0.6252
  873THF     C812784   5.124   1.335  -0.140 -0.3597  0.4081  0.4427
  873THF     C912785   5.001   1.247  -0.153  0.6699  0.3505 -0.0901
  873THF    H1012786   5.203   1.300  -0.208  0.1313 -0.8788  1.6318
  873THF    H1112787   5.095   1.437  -0.164  0.2827  1.2008  2.8225
  873THF    H1212788   4.924   1.322  -0.168  0.7454  0.6679  1.0572
  873THF    H1312789   4.999   1.171  -0.232 -0.2739  0.3407 -0.0625
  874THF     O112790   0.306   2.038   1.805  0.5183 -0.2237 -0.2691
  874THF     C212791   0.200   2.110   1.871  0.3974  0.0477  0.5363
  874THF     C312792   0.252   1.985   1.682  0.2898  0.0665  0.4963
  874THF     H412793   0.223   2.216   1.857 -1.2068  0.1159 -2.6545
  874THF     H512794   0.186   2.091   1.977  1.1171  1.5125  0.9269
  874THF     H612795   0.318   2.024   1.605  0.0503 -1.1994 -0.3873
  874THF     H712796   0.254   1.877   1.697 -1.8948 -0.2082 -0.7091
  874THF     C812797   0.113   2.043   1.670 -0.4871  0.7213 -0.2677
  874THF     C912798   0.068   2.065   1.810 -0.5084 -0.4012 -0.1492
  874THF    H1012799   0.049   1.975   1.613  1.1959 -0.7622 -0.4529
  874THF    H1112800   0.114   2.131   1.605 -1.2400  0.4776 -0.6226
  874THF    H1212801  -0.017   2.134   1.808 -0.8072 -0.7703 -0.3936
  874THF    H1312802   0.029   1.972   1.850  0.1716 -0.8089 -0.4242
  875THF     O112803   4.216   1.429   5.326 -0.2139  0.0853 -0.1693
  875THF     C212804   4.324   1.356   5.372  0.2090 -0.1141 -0.0119
  875THF     C312805   4.235   1.446   5.186 -0.1068 -0.0522 -0.6835
  875THF     H412806   4.294   1.325   5.472 -1.7698  2.4314  0.2640
  875THF     H512807   4.403   1.430   5.383 -1.5749  2.1991 -1.8724
  875THF     H612808   4.140   1.455   5.134 -0.5558 -3.0770 -0.5558
  875THF     H712809   4.304   1.524   5.154 -0.8908  0.7780 -0.3997
  875THF     C812810   4.299   1.311   5.143  0.0007  0.2046 -0.3836
  875THF     C912811   4.350   1.242   5.272 -0.0341 -0.3087 -0.2482
  875THF    H1012812   4.381   1.312   5.072 -1.5841  2.4266 -2.3599
  875THF    H1112813   4.223   1.249   5.095  1.3095 -2.4678  0.7934
  875THF    H1212814   4.284   1.157   5.292 -0.3259 -0.4549 -1.7241
  875THF    H1312815   4.452   1.203   5.267 -0.7747 -2.3029 -0.9897
  876THF     O112816   0.202   3.390   4.802  0.1542  0.3648 -0.1567
  876THF     C212817   0.109   3.276   4.808  0.2210 -0.6607 -0.0192
  876THF     C312818   0.286   3.369   4.917 -0.3227  0.2344 -0.0950
  876THF     H412819   0.155   3.180   4.787 -0.6962 -1.2149  0.4594
  876THF     H512820   0.032   3.282   4.732  0.0427 -0.4103  0.1775
  876THF     H612821   0.360   3.290   4.903 -1.2871 -0.4420 -1.5592
  876THF     H712822   0.334   3.465   4.937 -1.5878  1.0707 -0.9777
  876THF     C812823   0.184   3.321   5.027 -0.4335  0.2941  0.0842
  876THF     C912824   0.054   3.289   4.952 -0.2252  0.0105  0.7324
  876THF    H1012825   0.179   3.413   5.086  1.1559  0.0218  0.6924
  876THF    H1112826   0.231   3.237   5.078  1.9967 -0.5233 -3.1600
  876THF    H1212827   0.003   3.195   4.973 -2.4396  1.6092  3.1385
  876THF    H1312828  -0.017   3.371   4.961 -0.3968 -0.1233  0.5952
  877THF     O112829   1.528   1.194   1.766 -0.2009 -0.1567  0.1713
  877THF     C212830   1.655   1.222   1.713 -0.5876 -0.6629  0.4018
  877THF     C312831   1.430   1.294   1.732 -0.1732  0.1911 -0.0145
  877THF     H412832   1.679   1.169   1.621  1.3314  1.1168 -0.2164
  877THF     H512833   1.740   1.195   1.774  0.2739  1.8503  0.4270
  877THF     H612834   1.359   1.243   1.666  1.2844 -0.7752 -0.9230
  877THF     H712835   1.392   1.338   1.823  2.2680  0.0977  1.1225
  877THF     C812836   1.506   1.389   1.644  0.2594 -0.1412 -0.0949
  877THF     C912837   1.648   1.377   1.694 -1.1453  0.4029  0.3188
  877THF    H1012838   1.476   1.491   1.670  1.8930  0.1802  0.6276
  877THF    H1112839   1.485   1.368   1.539 -0.2705 -0.8233  0.1391
  877THF    H1212840   1.720   1.404   1.617 -1.8888 -0.0882 -0.5712
  877THF    H1312841   1.666   1.429   1.788  0.0159 -1.0542  0.9456
  878THF     O112842   0.702   1.350   0.199  0.5636 -0.3876  0.4293
  878THF     C212843   0.807   1.413   0.127  0.6516 -0.1962  0.3070
  878THF     C312844   0.702   1.420   0.325 -0.5655  0.1462  0.3446
  878THF     H412845   0.783   1.513   0.091 -3.3158 -0.8808  0.6889
  878THF     H512846   0.844   1.350   0.046 -0.0966  0.6467 -0.7149
  878THF     H612847   0.652   1.516   0.316 -0.5700  0.1573  0.4812
  878THF     H712848   0.645   1.366   0.401  0.4786  1.3230  2.0253
  878THF     C812849   0.847   1.442   0.360  0.0642  0.1720  1.2863
  878THF     C912850   0.921   1.437   0.228  0.2641 -0.2478  0.2854
  878THF    H1012851   0.876   1.354   0.418  1.3302  1.1537  2.2144
  878THF    H1112852   0.854   1.539   0.409  0.2428  1.2089 -0.7016
  878THF    H1212853   0.975   1.528   0.201  0.0872 -0.7940 -2.1953
  878THF    H1312854   0.985   1.352   0.209 -1.9447 -1.4978 -2.2861
  879THF     O112855   0.888   5.223   5.499  0.3368  0.1520 -0.1654
  879THF     C212856   0.987   5.215   5.605 -0.0363  0.2754  0.0681
  879THF     C312857   0.824   5.345   5.533  0.5600  0.2814 -0.3728
  879THF     H412858   1.062   5.138   5.587  1.8738  1.7826  1.3016
  879THF     H512859   0.941   5.191   5.701 -1.2582  0.0577 -0.5428
  879THF     H612860   0.766   5.384   5.449 -1.2708 -0.3576  0.5312
  879THF     H712861   0.746   5.331   5.608  0.8562  2.8229  0.4833
  879THF     C812862   0.931   5.445   5.573  0.2431  0.4981 -0.0569
  879THF     C912863   1.047   5.358   5.609  0.2283  0.2392 -0.5715
  879THF    H1012864   0.892   5.499   5.659 -0.1973 -1.9392  1.3426
  879THF    H1112865   0.964   5.522   5.502 -2.5972  1.4171 -0.5201
  879THF    H1212866   1.132   5.367   5.542  0.8965  1.4152  0.3943
  879THF    H1312867   1.085   5.390   5.706  1.0916  0.5329 -0.9967
  880THF     O112868   2.398   4.712   4.408 -0.4800  0.0528 -0.1912
  880THF     C212869   2.366   4.581   4.362  0.4378 -0.2336  0.3827
  880THF     C312870   2.300   4.766   4.487  0.4243 -0.2897 -0.2714
  880THF     H412871   2.374   4.507   4.442  0.9374 -2.7844 -1.8425
  880THF     H512872   2.415   4.537   4.274 -3.8365 -2.4821 -1.1568
  880THF     H612873   2.279   4.708   4.577  1.6635 -0.8498 -0.3301
  880THF     H712874   2.319   4.871   4.508 -0.1510 -0.1674 -0.3465
  880THF     C812875   2.188   4.748   4.394 -0.6274 -0.3635 -0.0942
  880THF     C912876   2.215   4.610   4.331  0.8540 -0.6510 -0.0430
  880THF    H1012877   2.198   4.824   4.316  1.0202  1.6382  1.9220
  880THF    H1112878   2.089   4.759   4.439  0.0813  1.7389  1.1115
  880THF    H1212879   2.145   4.540   4.376 -2.3084  1.1753 -1.8284
  880THF    H1312880   2.197   4.601   4.224 -0.7597  0.9091  0.0758
  881THF     O112881   0.672   4.983   0.437  0.3907  0.6601 -0.0111
  881THF     C212882   0.644   5.119   0.459  0.4460  0.2458 -0.0659
  881THF     C312883   0.570   4.927   0.364  0.9018  0.8059 -0.0215
  881THF     H412884   0.734   5.176   0.486  0.1583  1.0415 -0.7192
  881THF     H512885   0.571   5.112   0.539 -2.3421  0.7283 -2.4244
  881THF     H612886   0.598   4.838   0.308 -0.1900  0.9648 -0.8579
  881THF     H712887   0.496   4.898   0.438  0.5273  1.3761 -0.1668
  881THF     C812888   0.507   5.031   0.275 -0.1039  0.5199 -0.0095
  881THF     C912889   0.575   5.158   0.330  0.4224 -0.3780 -0.2043
  881THF    H1012890   0.401   5.013   0.291  0.4386 -1.6456  1.7038
  881THF    H1112891   0.527   5.003   0.171  2.2375  1.3048  0.1554
  881THF    H1212892   0.657   5.177   0.261 -0.8535 -0.7839 -1.9175
  881THF    H1312893   0.517   5.250   0.340 -0.3718 -0.6602 -1.8076
  882THF     O112894   3.199   1.313   5.453  0.1333  0.1622  0.1356
  882THF     C212895   3.239   1.270   5.583  0.1891 -0.3543 -0.0332
  882THF     C312896   3.219   1.203   5.366 -0.0309 -0.3823  0.8254
  882THF     H412897   3.173   1.306   5.663 -0.4866 -1.6239  0.0181
  882THF     H512898   3.341   1.305   5.594  0.1011  0.0703 -0.5478
  882THF     H612899   3.173   1.229   5.271 -0.1306 -2.2917  0.3130
  882THF     H712900   3.327   1.205   5.349 -0.3779 -1.3547 -1.9943
  882THF     C812901   3.165   1.088   5.440 -0.3719  0.1141  0.1288
  882THF     C912902   3.234   1.113   5.579 -0.1293 -0.2585  0.1068
  882THF    H1012903   3.210   1.002   5.391 -2.5038 -1.0852  0.1799
  882THF    H1112904   3.057   1.083   5.445 -0.7054  1.8917 -3.0400
  882THF    H1212905   3.193   1.080   5.675  1.1095 -0.7549  0.4926
  882THF    H1312906   3.339   1.082   5.572  0.6638  1.1923  3.5925
  883THF     O112907   5.383   2.468   4.208 -0.5857 -0.3790  0.0506
  883THF     C212908   5.376   2.364   4.107 -0.8116 -0.4006  0.3921
  883THF     C312909   5.411   2.592   4.142 -0.4473 -0.4358 -0.0774
  883THF     H412910   5.306   2.295   4.154 -0.3738 -0.8683  0.3741
  883THF     H512911   5.474   2.321   4.086 -0.5880 -0.0612  0.7114
  883THF     H612912   5.374   2.676   4.200 -0.5777 -0.5105 -0.0537
  883THF     H712913   5.520   2.595   4.147 -0.4122 -1.5119  0.0038
  883THF     C812914   5.346   2.581   4.008 -0.0519 -0.2734  0.3481
  883THF     C912915   5.320   2.434   3.985  0.0529  0.8585 -0.5156
  883THF    H1012916   5.413   2.619   3.930 -1.9077  0.8940 -0.7530
  883THF    H1112917   5.254   2.639   4.014 -1.0218 -1.6995 -0.4256
  883THF    H1212918   5.211   2.424   3.985  0.2066 -1.2873 -1.1472
  883THF    H1312919   5.370   2.392   3.898  0.4277 -0.6739  0.3836
  884THF     O112920   2.733   4.248   2.467 -0.2430 -0.5943  0.0154
  884THF     C212921   2.855   4.332   2.463 -0.2219  0.1977  1.2378
  884THF     C312922   2.608   4.318   2.481 -0.2134  0.1493 -0.4442
  884THF     H412923   2.927   4.301   2.387 -0.7007  1.8253  0.0772
  884THF     H512924   2.906   4.348   2.559 -1.4983 -0.2862  2.0219
  884THF     H612925   2.548   4.310   2.391  0.7183 -0.3261 -1.0393
  884THF     H712926   2.562   4.277   2.571  0.8654  2.5710  1.3154
  884THF     C812927   2.650   4.459   2.509 -0.2037  0.2652  0.1872
  884THF     C912928   2.783   4.465   2.424 -0.2602  0.3630 -0.1446
  884THF    H1012929   2.665   4.463   2.617  0.4219 -0.5704  0.1430
  884THF    H1112930   2.564   4.519   2.479 -0.3525 -0.9327 -1.9841
  884THF    H1212931   2.755   4.465   2.319  2.4632  0.4941 -0.9421
  884THF    H1312932   2.843   4.555   2.441  1.3910 -0.5559 -0.9744
  885THF     O112933   1.771   2.214   4.182  0.2704  0.8663 -0.0189
  885THF     C212934   1.859   2.218   4.297 -0.3909 -0.3693 -0.4469
  885THF     C312935   1.695   2.336   4.180  0.4438 -0.6778  0.1963
  885THF     H412936   1.956   2.259   4.268 -0.8691  0.7053 -0.5855
  885THF     H512937   1.866   2.115   4.332 -0.4070 -0.3678 -0.4395
  885THF     H612938   1.761   2.414   4.140 -0.7855 -0.4150 -1.4549
  885THF     H712939   1.606   2.330   4.118 -1.0057  0.7709  2.0297
  885THF     C812940   1.671   2.364   4.322  0.7470 -0.0846  0.2563
  885THF     C912941   1.795   2.309   4.400 -0.3453  0.2448 -0.5886
  885THF    H1012942   1.581   2.311   4.355  0.0560  0.4518 -0.7285
  885THF    H1112943   1.657   2.471   4.331  0.2400 -0.2280  1.4035
  885THF    H1212944   1.855   2.399   4.414  2.2369 -1.3122 -1.0377
  885THF    H1312945   1.760   2.260   4.490 -0.3306  2.1921  0.5260
  886THF     O112946   2.386   4.228   3.207 -0.1845  0.4313 -0.2768
  886THF     C212947   2.456   4.316   3.298  0.0032  0.0873  0.9209
  886THF     C312948   2.461   4.105   3.207 -0.0420 -0.1092 -0.7852
  886THF     H412949   2.400   4.406   3.322  0.2432  0.8367 -1.1126
  886THF     H512950   2.543   4.338   3.236 -0.1400 -1.2692  0.2039
  886THF     H612951   2.400   4.015   3.213  1.8987 -1.5810 -1.7827
  886THF     H712952   2.526   4.106   3.119  1.5326  0.0033  0.3448
  886THF     C812953   2.533   4.095   3.339 -0.2993  0.0874 -0.3699
  886THF     C912954   2.490   4.219   3.411  0.1624  0.3491 -0.1913
  886THF    H1012955   2.640   4.101   3.315 -0.0112 -1.5904  0.3120
  886THF    H1112956   2.516   4.002   3.394  3.3601 -0.5050  0.0072
  886THF    H1212957   2.401   4.199   3.470 -1.5912  1.3052 -2.3704
  886THF    H1312958   2.564   4.267   3.476 -0.3338  0.6253  0.1771
  887THF     O112959   0.473   0.924   0.968  0.1807 -0.0132  0.2100
  887THF     C212960   0.523   0.790   0.942 -0.2538 -0.4094 -0.0388
  887THF     C312961   0.331   0.927   0.955 -0.4117 -0.5034  0.4017
  887THF     H412962   0.512   0.713   1.019 -1.6792 -0.2331 -0.0461
  887THF     H512963   0.629   0.789   0.914  0.0079 -0.0882  0.9051
  887THF     H612964   0.277   0.887   1.041  0.0956  1.2481  1.5881
  887THF     H712965   0.303   1.029   0.931  2.4954  0.4559  0.6454
  887THF     C812966   0.309   0.830   0.834  0.7292 -0.0725  0.2516
  887THF     C912967   0.429   0.745   0.826  0.1909 -0.0925  0.6621
  887THF    H1012968   0.287   0.888   0.744 -0.3957 -0.3315  0.3476
  887THF    H1112969   0.223   0.765   0.851 -1.2354  2.4340  0.6082
  887THF    H1212970   0.416   0.637   0.834  1.6930 -0.4803 -1.3788
  887THF    H1312971   0.474   0.758   0.727  1.8181 -3.3026  0.8327
  888THF     O112972   1.027   0.299   2.760 -0.2296  0.1975 -0.0972
  888THF     C212973   0.952   0.214   2.680 -0.7205  0.2092  0.0359
  888THF     C312974   1.159   0.233   2.777 -0.0144 -0.4102 -0.3010
  888THF     H412975   0.865   0.266   2.642 -0.9620 -0.6959 -0.6815
  888THF     H512976   0.923   0.135   2.749 -2.3492  2.3566  1.9300
  888THF     H612977   1.230   0.315   2.794  1.4319 -1.3324 -1.6300
  888THF     H712978   1.175   0.176   2.869  1.3344  1.6934  0.8839
  888THF     C812979   1.169   0.148   2.650  0.1956 -0.0978  0.0988
  888THF     C912980   1.048   0.156   2.570  0.3187 -0.6989 -0.3656
  888THF    H1012981   1.180   0.042   2.671  1.8497  0.1537  0.7362
  888THF    H1112982   1.253   0.165   2.582 -0.0273 -2.7641 -0.9304
  888THF    H1212983   1.053   0.236   2.496 -0.0580 -0.2127  0.1322
  888THF    H1312984   1.029   0.056   2.531  2.5162 -2.7589  3.2304
  889THF     O112985   2.793   5.416   2.016 -0.0039  0.2009  0.0469
  889THF     C212986   2.861   5.480   1.915  0.0599  0.3705  0.4538
  889THF     C312987   2.796   5.280   1.978  0.5224 -0.4058  0.7310
  889THF     H412988   2.970   5.477   1.917  0.1295  0.8422 -1.1300
  889THF     H512989   2.840   5.587   1.916  3.3702  1.1199  1.3105
  889THF     H612990   2.890   5.240   2.016  0.7899 -0.3724  0.1217
  889THF     H712991   2.716   5.223   2.026  0.1322 -0.7763 -0.3331
  889THF     C812992   2.793   5.273   1.817 -0.1575  0.6230 -0.3916
  889THF     C912993   2.815   5.415   1.786 -0.4643  0.3878 -0.5574
  889THF    H1012994   2.696   5.242   1.777  0.5332 -3.6608  0.7066
  889THF    H1112995   2.864   5.199   1.780 -0.2894 -0.2834  1.0633
  889THF    H1212996   2.888   5.442   1.709 -1.1763  0.9776 -1.0369
  889THF    H1312997   2.720   5.466   1.770 -0.9467  0.2226  1.4457
  890THF     O112998   1.126   1.052   4.796 -0.5905  0.1914 -0.1532
  890THF     C212999   1.221   0.956   4.842 -1.0042 -0.4129 -0.0543
  890THF     C313000   1.199   1.133   4.699 -0.5547 -0.9395 -0.6505
  890THF     H413001   1.177   0.865   4.882 -0.7314 -0.2655  0.6028
  890THF     H513002   1.279   1.004   4.922 -1.4240 -0.5196  0.3223
  890THF     H613003   1.134   1.160   4.616 -1.2742 -1.1607 -0.1663
  890THF     H713004   1.223   1.230   4.744 -2.7397  0.0811 -1.5343
  890THF     C813005   1.319   1.045   4.646  0.8464 -0.0829  0.4210
  890THF     C913006   1.309   0.918   4.723 -0.0626  0.8904 -0.0278
  890THF    H1013007   1.414   1.095   4.664  1.4633 -0.5395 -1.3952
  890THF    H1113008   1.320   1.024   4.540  1.9703 -2.5827  0.8636
  890THF    H1213009   1.247   0.854   4.660 -0.0402  1.4379 -0.6233
  890THF    H1313010   1.401   0.868   4.752 -0.8610 -0.6134  0.0221
  891THF     O113011   4.692   0.282   2.561  0.3625 -0.2361 -0.3701
  891THF     C213012   4.554   0.250   2.531  0.4595 -0.1968 -0.5685
  891THF     C313013   4.681   0.402   2.644 -0.3012 -0.1826  0.0247
  891THF     H413014   4.539   0.143   2.551 -1.0654 -0.4221 -2.5755
  891THF     H513015   4.537   0.263   2.424  1.7866 -0.1722 -0.7940
  891THF     H613016   4.711   0.363   2.742  0.8513  1.0499  0.1967
  891THF     H713017   4.767   0.465   2.619  0.1870 -0.6748  0.4259
  891THF     C813018   4.543   0.459   2.632  0.5042 -0.5767  0.2626
  891THF     C913019   4.450   0.333   2.617 -0.2243  0.8724 -0.5227
  891THF    H1013020   4.548   0.519   2.541  1.1616  2.9442  2.4161
  891THF    H1113021   4.509   0.527   2.710 -1.1278 -1.6495  0.5308
  891THF    H1213022   4.445   0.292   2.718 -0.6182  1.2638 -0.3813
  891THF    H1313023   4.351   0.357   2.577  0.1961  1.1607 -1.4323
  892THF     O113024   0.208   4.829   3.019  0.0021  0.6258 -0.3482
  892THF     C213025   0.169   4.700   3.083 -0.1748 -0.3774 -0.1360
  892THF     C313026   0.354   4.849   3.045  0.7054  0.4361 -0.5243
  892THF     H413027   0.080   4.657   3.036 -0.0488 -1.2875  0.4392
  892THF     H513028   0.156   4.716   3.190  0.1162 -1.1909  0.0278
  892THF     H613029   0.397   4.896   2.956  1.1863 -0.7772 -0.9517
  892THF     H713030   0.367   4.914   3.132  1.2250  0.0062 -0.2781
  892THF     C813031   0.408   4.711   3.094 -0.1784  0.2899 -0.3219
  892THF     C913032   0.295   4.617   3.057  0.6315  0.6234 -0.2826
  892THF    H1013033   0.415   4.712   3.203 -0.6450  0.8396 -0.2943
  892THF    H1113034   0.508   4.690   3.057  0.4080  1.3369  0.5916
  892THF    H1213035   0.302   4.587   2.952 -1.7569  2.8244 -1.1636
  892THF    H1313036   0.306   4.521   3.109  1.7630 -0.3638 -2.2327
  893THF     O113037   4.067   2.284   0.894  0.2700  0.0404  0.2911
  893THF     C213038   4.000   2.387   0.960  0.2102 -0.8817 -0.0039
  893THF     C313039   3.988   2.161   0.895 -0.1013 -0.0714  0.5531
  893THF     H413040   3.918   2.417   0.894  0.9815 -1.7039 -1.3812
  893THF     H513041   4.061   2.472   0.991  0.1772 -0.4007 -1.2014
  893THF     H613042   3.916   2.172   0.813 -0.4486 -1.5175  0.6444
  893THF     H713043   4.051   2.073   0.883 -0.2661 -0.3514  1.7149
  893THF     C813044   3.912   2.174   1.025  0.8433 -0.2285 -0.2646
  893THF     C913045   3.917   2.326   1.080 -0.1702  0.0138  0.9293
  893THF    H1013046   3.947   2.114   1.108 -0.5237  0.8928  1.1982
  893THF    H1113047   3.807   2.150   1.010 -0.2949  3.1340  1.2730
  893THF    H1213048   3.814   2.360   1.083 -1.4480 -3.3903  0.1834
  893THF    H1313049   3.962   2.326   1.180 -0.4900 -3.3758  1.1912
  894THF     O113050   3.570   1.958   2.611 -0.5926 -0.2757  0.5105
  894THF     C213051   3.432   1.958   2.583  0.0097  0.0062 -0.5485
  894THF     C313052   3.640   1.920   2.497 -0.4855 -0.3799  0.9781
  894THF     H413053   3.402   2.062   2.571 -2.3011 -0.3030  1.5861
  894THF     H513054   3.363   1.916   2.657 -2.0103  0.5762 -2.0354
  894THF     H613055   3.646   2.005   2.428 -0.3496 -1.3102 -0.1831
  894THF     H713056   3.733   1.874   2.532  0.5580  0.5016 -0.4875
  894THF     C813057   3.555   1.813   2.426 -0.5468 -0.2828 -0.2573
  894THF     C913058   3.416   1.869   2.461  0.3938 -0.6109  0.7463
  894THF    H1013059   3.580   1.710   2.451  0.2909 -0.4575 -1.7394
  894THF    H1113060   3.566   1.816   2.318  0.3988  0.0497 -0.1635
  894THF    H1213061   3.385   1.931   2.376  2.2387 -1.7624 -0.8645
  894THF    H1313062   3.339   1.795   2.484 -0.4021 -0.1033 -0.1704
  895THF     O113063   1.290   2.585   0.838 -0.1915 -1.0684  0.2531
  895THF     C213064   1.409   2.566   0.755 -0.0588 -0.2738 -0.4047
  895THF     C313065   1.216   2.694   0.776 -0.0703 -0.1122  0.2475
  895THF     H413066   1.421   2.459   0.736  1.2623 -0.2792  0.3048
  895THF     H513067   1.509   2.583   0.796 -0.3133 -0.0873  0.1533
  895THF     H613068   1.111   2.667   0.786 -0.0690 -0.6012 -0.9576
  895THF     H713069   1.253   2.782   0.829 -0.6395 -0.6127  1.5086
  895THF     C813070   1.256   2.682   0.624 -0.0942  0.8713  0.4160
  895THF     C913071   1.399   2.658   0.632  0.9129  0.0012 -0.5031
  895THF    H1013072   1.234   2.773   0.567  1.9302  1.7350  0.9040
  895THF    H1113073   1.213   2.593   0.578  1.6822  0.2742 -0.1677
  895THF    H1213074   1.442   2.618   0.540 -1.3043  0.8302 -1.9915
  895THF    H1313075   1.444   2.754   0.660 -2.1933  1.2753  0.5530
  896THF     O113076   2.028   1.117   3.103 -0.0235  1.3535 -0.7850
  896THF     C213077   2.022   1.022   3.003 -0.0312  0.5026  0.6319
  896THF     C313078   2.013   1.052   3.227 -0.2215 -0.8535  0.3062
  896THF     H413079   2.126   0.998   2.982 -0.2705 -0.4221  0.4444
  896THF     H513080   1.995   1.079   2.914  1.2504 -1.3575 -1.0267
  896THF     H613081   2.111   1.064   3.275  1.0868 -2.7345 -1.6584
  896THF     H713082   1.950   1.113   3.290  3.9590  0.9785  3.1747
  896THF     C813083   1.964   0.915   3.197  0.2026  0.1681 -0.0308
  896THF     C913084   1.922   0.915   3.055 -0.0341 -0.1734  0.1322
  896THF    H1013085   1.893   0.881   3.272  1.8848 -1.6232  0.8495
  896THF    H1113086   2.048   0.846   3.207 -0.0537 -0.2317 -0.6050
  896THF    H1213087   1.932   0.818   3.007 -2.2404 -0.5100  0.2508
  896THF    H1313088   1.817   0.940   3.038 -0.2197 -1.6646 -1.1606
  897THF     O113089   2.372   0.407   4.532  0.2319  0.0966 -0.3308
  897THF     C213090   2.395   0.273   4.577 -0.7161 -0.1544 -0.1129
  897THF     C313091   2.230   0.426   4.533  0.2989  0.2999 -0.2085
  897THF     H413092   2.394   0.267   4.686  3.1402  0.4387  0.1011
  897THF     H513093   2.482   0.216   4.543 -1.8460 -2.6312  0.9256
  897THF     H613094   2.205   0.434   4.639  1.5687 -2.2872  0.3908
  897THF     H713095   2.191   0.515   4.485 -0.4655 -0.1939 -0.5263
  897THF     C813096   2.186   0.297   4.465  0.1460 -0.2793 -0.4769
  897THF     C913097   2.268   0.192   4.537 -0.7144  0.4498  0.1324
  897THF    H1013098   2.223   0.305   4.363 -0.4361  2.2842 -0.5622
  897THF    H1113099   2.079   0.279   4.468  0.2503 -0.8085  1.2285
  897THF    H1213100   2.220   0.162   4.631 -0.7657 -0.4716 -0.1789
  897THF    H1313101   2.279   0.102   4.476  0.4197  2.2985 -2.5838
  898THF     O113102   3.204   4.172   3.004  0.2218 -0.4893 -0.4849
  898THF     C213103   3.197   4.307   2.967 -0.3091  0.1591 -0.0411
  898THF     C313104   3.336   4.131   3.037 -0.1310 -0.3421 -0.7576
  898THF     H413105   3.100   4.353   2.985 -0.3959 -0.3392  0.8259
  898THF     H513106   3.215   4.315   2.860 -1.9396  1.0445 -0.2842
  898THF     H613107   3.341   4.032   3.081 -0.7592 -0.3706 -0.7341
  898THF     H713108   3.396   4.130   2.946  1.3926  1.0723  0.1662
  898THF     C813109   3.386   4.248   3.132  0.2856 -0.0887 -0.3589
  898THF     C913110   3.305   4.371   3.072 -0.1730  0.9638  0.4052
  898THF    H1013111   3.495   4.247   3.127  0.3436  1.3758  0.1291
  898THF    H1113112   3.354   4.233   3.235 -1.7731  1.1380 -0.7554
  898THF    H1213113   3.264   4.438   3.148 -0.0905  1.3085  0.1481
  898THF    H1313114   3.381   4.433   3.025  1.0317 -0.9028 -0.2541
  899THF     O113115   2.114   0.803   3.773  0.5481  0.4072  0.2520
  899THF     C213116   2.076   0.711   3.680 -0.1387 -0.0127 -0.3850
  899THF     C313117   2.003   0.896   3.774 -0.2997  0.3376  0.6620
  899THF     H413118   1.991   0.654   3.715 -3.2942  4.4116 -0.0430
  899THF     H513119   2.158   0.647   3.647 -0.3452 -0.0564 -0.8261
  899THF     H613120   1.927   0.849   3.836 -1.9279 -0.9582 -2.1357
  899THF     H713121   2.028   0.992   3.819  1.7081  0.3640 -0.3891
  899THF     C813122   1.958   0.907   3.626  0.1944 -0.3116  0.2993
  899THF     C913123   2.020   0.790   3.562  0.1485 -0.0681 -0.6408
  899THF    H1013124   1.993   1.004   3.590  2.8114 -0.6804  1.5980
  899THF    H1113125   1.850   0.906   3.611  0.3320 -1.4259 -0.7962
  899THF    H1213126   1.963   0.719   3.502  0.7739 -2.3600  1.3556
  899THF    H1313127   2.100   0.832   3.501 -0.8467  0.8921 -1.3332
  900THF     O113128   0.335   0.991   3.888 -0.3929  0.2120 -0.4907
  900THF     C213129   0.225   0.980   3.805 -0.4431  0.0530  0.2446
  900THF     C313130   0.378   1.128   3.892  0.2858  0.2763 -0.1431
  900THF     H413131   0.186   0.881   3.824  0.5115 -0.2034  0.9608
  900THF     H513132   0.245   0.988   3.698  2.0516  1.0579  0.7189
  900THF     H613133   0.444   1.165   3.970 -1.6389  1.4294  1.0207
  900THF     H713134   0.433   1.148   3.799  2.0427 -1.0484  0.5598
  900THF     C813135   0.236   1.199   3.895 -1.2751 -0.0736 -0.0346
  900THF     C913136   0.140   1.092   3.852  0.3732  0.0832  0.2113
  900THF    H1013137   0.227   1.299   3.855 -0.2767 -1.1556 -3.2798
  900THF    H1113138   0.212   1.206   4.001  0.2724 -0.4091  0.3658
  900THF    H1213139   0.087   1.052   3.939  0.0459  1.0330  0.4603
  900THF    H1313140   0.071   1.130   3.776  2.1493  2.2817 -0.3917
  901THF     O113141   3.108   0.326   1.502 -0.1871 -0.3085  0.0915
  901THF     C213142   3.100   0.318   1.644 -0.3846 -0.5529 -0.0343
  901THF     C313143   3.202   0.239   1.459  0.0101  0.3247  0.3415
  901THF     H413144   3.024   0.246   1.675 -1.8683  0.3217 -1.4460
  901THF     H513145   3.073   0.416   1.683 -2.7445 -2.3915  3.4564
  901THF     H613146   3.149   0.144   1.448 -0.1780  0.6595 -2.2428
  901THF     H713147   3.236   0.282   1.365  1.3117  1.2957  1.2154
  901THF     C813148   3.308   0.220   1.568 -0.3200 -0.5348 -0.0247
  901THF     C913149   3.239   0.282   1.689  0.0061  0.0472  0.7170
  901THF    H1013150   3.403   0.270   1.552  1.3342 -3.4054  0.1846
  901THF    H1113151   3.333   0.118   1.599  2.2852 -0.5253 -1.7862
  901THF    H1213152   3.239   0.196   1.756  0.3709 -0.9925 -0.5622
  901THF    H1313153   3.292   0.369   1.727  1.1393 -0.2157 -0.2056
  902THF     O113154   4.067   0.230   2.740 -0.2310  0.6102 -0.3548
  902THF     C213155   4.148   0.145   2.818  0.0589 -0.4362 -0.3113
  902THF     C313156   4.052   0.150   2.622  0.4948 -0.6582 -0.2373
  902THF     H413157   4.133   0.160   2.925  1.9194 -1.4742  0.1522
  902THF     H513158   4.253   0.174   2.810 -0.0377  1.4868  3.2306
  902THF     H613159   3.976   0.184   2.551  0.0826  1.5422  1.1722
  902THF     H713160   4.144   0.150   2.565  0.2287 -0.3961 -0.6735
  902THF     C813161   4.023   0.011   2.680 -0.5430  0.0490  1.1326
  902THF     C913162   4.118  -0.000   2.788 -0.0479 -0.2564  0.0472
  902THF    H1013163   4.032  -0.061   2.599  2.1433  0.4708  0.9649
  902THF    H1113164   3.919   0.006   2.714 -0.8612 -1.1749  0.0328
  902THF    H1213165   4.066  -0.036   2.877 -1.6630 -1.3938 -1.2906
  902THF    H1313166   4.211  -0.048   2.761 -0.0250 -1.2732  1.7465
  903THF     O113167   4.474   4.799   3.253 -0.3758 -0.0747  0.2809
  903THF     C213168   4.580   4.704   3.286 -0.0910  0.2287  0.2014
  903THF     C313169   4.357   4.731   3.212 -0.6838  0.7040  0.0458
  903THF     H413170   4.571   4.659   3.385 -0.8642 -2.0155 -0.8164
  903THF     H513171   4.680   4.744   3.270  0.9102 -2.1517  0.1180
  903THF     H613172   4.288   4.730   3.297 -0.4240  0.4791  0.2573
  903THF     H713173   4.324   4.775   3.118  2.3222  1.3185 -0.8231
  903THF     C813174   4.409   4.588   3.180 -0.0840 -0.1107  0.4081
  903THF     C913175   4.560   4.597   3.187 -0.0965  0.4902  0.5474
  903THF    H1013176   4.372   4.555   3.083  1.0870 -0.5052  0.0848
  903THF    H1113177   4.377   4.524   3.262 -1.8040 -0.4560 -0.4779
  903THF    H1213178   4.588   4.496   3.217  1.7802 -0.4019 -3.5199
  903THF    H1313179   4.610   4.607   3.090  2.7938 -1.6132  1.6695
  904THF     O113180   2.488   0.147   0.624 -0.0306  0.5089 -0.2625
  904THF     C213181   2.543   0.211   0.739  0.1051 -0.7685  0.1823
  904THF     C313182   2.481   0.231   0.513 -0.6070 -0.2898  0.2159
  904THF     H413183   2.652   0.211   0.743  0.4011 -3.5224 -3.2167
  904THF     H513184   2.513   0.168   0.835 -0.7619 -0.3202  0.1275
  904THF     H613185   2.547   0.205   0.430 -2.4737 -0.3579 -1.3139
  904THF     H713186   2.387   0.230   0.459  0.2092 -1.1829 -1.2366
  904THF     C813187   2.495   0.377   0.565 -0.2654 -0.2941 -0.3037
  904THF     C913188   2.489   0.353   0.717  0.0490 -0.0361 -0.4215
  904THF    H1013189   2.416   0.442   0.529  0.6563  0.6839 -0.6131
  904THF    H1113190   2.592   0.424   0.547 -0.1460 -0.6496 -0.6093
  904THF    H1213191   2.540   0.429   0.776  0.3503 -0.2445 -0.4093
  904THF    H1313192   2.382   0.356   0.739  0.3829 -0.6280  1.4812
  905THF     O113193   4.845   0.674   3.007  0.0127  0.4901  0.5254
  905THF     C213194   4.940   0.647   3.113  0.1030  0.1470 -0.2591
  905THF     C313195   4.760   0.560   2.992  0.0642  0.3689  0.4320
  905THF     H413196   4.885   0.623   3.204 -1.6874 -0.5462 -1.4862
  905THF     H513197   5.017   0.723   3.130  0.6328 -0.2359 -0.8996
  905THF     H613198   4.687   0.563   3.073 -1.4214  0.7707 -0.8573
  905THF     H713199   4.705   0.557   2.897  0.5176 -1.2721  0.1959
  905THF     C813200   4.858   0.443   3.004  0.2815 -0.3953 -0.5761
  905THF     C913201   4.986   0.512   3.058 -0.5328  0.4310 -0.7131
  905THF    H1013202   4.882   0.408   2.903  0.5544  0.8157 -0.9556
  905THF    H1113203   4.820   0.355   3.055 -0.9361 -2.1803 -4.1757
  905THF    H1213204   5.037   0.450   3.133  0.6770  0.8516 -1.1664
  905THF    H1313205   5.057   0.529   2.977 -0.7471 -0.1686 -1.0388
  906THF     O113206   1.817   1.736   1.407  0.1797 -0.2480 -0.4241
  906THF     C213207   1.898   1.675   1.511  0.2941  0.2044  0.0503
  906THF     C313208   1.678   1.706   1.439  0.0800  0.1796 -0.4371
  906THF     H413209   2.004   1.698   1.517  1.0946 -3.0994  0.3046
  906THF     H513210   1.887   1.567   1.507 -1.3290  0.2643  1.5321
  906THF     H613211   1.596   1.759   1.391 -0.3824  0.8066  0.9963
  906THF     H713212   1.666   1.598   1.427  1.9041 -0.1692  0.4631
  906THF     C813213   1.672   1.731   1.584 -0.5290  0.0375 -0.2630
  906THF     C913214   1.816   1.709   1.633 -0.3482  0.6370 -0.3560
  906THF    H1013215   1.592   1.674   1.631 -0.9302 -0.5206 -1.5538
  906THF    H1113216   1.643   1.835   1.596 -0.5620  0.0992 -0.8243
  906THF    H1213217   1.859   1.800   1.676  1.9728 -1.6015  2.4543
  906THF    H1313218   1.828   1.632   1.709 -0.8421  0.6997 -0.2110
  907THF     O113219   2.345   0.800   3.457 -0.0886 -0.0828 -0.0249
  907THF     C213220   2.413   0.888   3.543  0.3766  0.4020  0.1676
  907THF     C313221   2.428   0.683   3.443 -0.0439  0.1038  0.7775
  907THF     H413222   2.333   0.953   3.578 -0.8422 -0.3236 -1.1769
  907THF     H513223   2.485   0.951   3.489 -0.6835 -0.1022 -1.9409
  907THF     H613224   2.372   0.604   3.392 -1.1887  0.5778  1.2811
  907THF     H713225   2.517   0.712   3.386 -0.3446 -0.9467 -0.2815
  907THF     C813226   2.466   0.657   3.587 -0.3582  0.6169  0.3500
  907THF     C913227   2.486   0.794   3.643 -0.2014 -0.0968  0.0970
  907THF    H1013228   2.551   0.590   3.587 -1.3228 -0.7843 -2.5970
  907THF    H1113229   2.388   0.597   3.633  1.3327 -1.2762  0.8721
  907THF    H1213230   2.433   0.802   3.738  0.8599 -0.1833  0.7101
  907THF    H1313231   2.589   0.827   3.656  0.2374 -0.7180 -1.4813
  908THF     O113232   2.595   5.406   3.022  0.4294  0.0299 -0.3814
  908THF     C213233   2.494   5.415   3.126 -0.4743  0.8344  0.3062
  908THF     C313234   2.717   5.374   3.085 -0.5247 -0.7959 -0.0884
  908THF     H413235   2.435   5.323   3.129  0.8655 -0.0859 -0.4540
  908THF     H513236   2.428   5.500   3.108  0.4920  1.6632  0.5808
  908THF     H613237   2.717   5.268   3.109 -0.9288 -0.8472 -0.2922
  908THF     H713238   2.806   5.412   3.036 -1.8737  1.0258 -1.2743
  908THF     C813239   2.713   5.453   3.209 -0.3075  0.0770  0.0064
  908THF     C913240   2.573   5.438   3.255  0.7592 -0.1259 -0.3664
  908THF    H1013241   2.723   5.560   3.193 -1.3425  0.4400  1.5624
  908THF    H1113242   2.784   5.415   3.282  0.1447  0.7661 -0.0642
  908THF    H1213243   2.566   5.356   3.326  0.9837 -1.9668 -2.3645
  908THF    H1313244   2.542   5.528   3.308 -0.2916 -1.0569  0.6681
  909THF     O113245   2.658   4.652   4.168  0.1061 -0.3182 -0.0283
  909THF     C213246   2.793   4.623   4.193 -0.7967  0.0835  0.1113
  909THF     C313247   2.619   4.597   4.041  0.0492 -0.6460 -0.5459
  909THF     H413248   2.811   4.549   4.270 -1.0913  1.7973  1.9033
  909THF     H513249   2.843   4.717   4.217  0.0181 -0.8008  2.0471
  909THF     H613250   2.611   4.489   4.051 -0.0239 -0.4651  2.4119
  909THF     H713251   2.523   4.633   4.005 -0.3359 -0.4832  0.5919
  909THF     C813252   2.739   4.621   3.956 -0.6085  0.6022 -0.0339
  909THF     C913253   2.845   4.566   4.059  0.1412  0.2318  0.6079
  909THF    H1013254   2.757   4.726   3.933  1.3235  0.7840  1.9554
  909THF    H1113255   2.736   4.569   3.860 -0.0098  0.5935 -0.0530
  909THF    H1213256   2.834   4.458   4.067  0.0495 -0.1135 -2.9096
  909THF    H1313257   2.949   4.590   4.037 -0.7201  1.8981 -2.0457
  910THF     O113258   1.570   0.851   4.983  0.2669  0.3539 -0.0686
  910THF     C213259   1.613   0.826   5.117 -0.1717 -0.1584  0.7113
  910THF     C313260   1.659   0.792   4.898 -0.8684 -0.0251  0.1230
  910THF     H413261   1.538   0.829   5.196 -1.0923 -1.6282 -0.0542
  910THF     H513262   1.693   0.894   5.145  1.7430 -0.6157 -3.0561
  910THF     H613263   1.609   0.753   4.809 -1.7920  0.4012  0.4331
  910THF     H713264   1.734   0.862   4.862 -1.2860  0.0126 -0.6976
  910THF     C813265   1.723   0.676   4.976  0.3202  0.1126  0.1892
  910THF     C913266   1.674   0.691   5.124 -0.0121 -0.0486  0.4776
  910THF    H1013267   1.832   0.676   4.974  0.3375  1.3693 -2.9279
  910THF    H1113268   1.700   0.579   4.932  1.3376  0.6411 -1.6075
  910THF    H1213269   1.593   0.626   5.157 -1.0065  0.9382  0.0622
  910THF    H1313270   1.755   0.699   5.197 -0.2223  0.3628  0.6703
  911THF     O113271   4.657   3.255   3.125  0.7166 -0.0028  0.2522
  911THF     C213272   4.746   3.170   3.191  0.4020  0.2957  0.1766
  911THF     C313273   4.731   3.363   3.063 -0.3793 -0.0689 -0.2284
  911THF     H413274   4.790   3.104   3.116  1.6586 -0.8511  1.8526
  911THF     H513275   4.703   3.108   3.270 -0.4938  2.0412  1.1250
  911THF     H613276   4.790   3.331   2.977 -0.3860 -0.1879 -0.1885
  911THF     H713277   4.651   3.433   3.039 -2.2629 -2.0495 -0.0267
  911THF     C813278   4.821   3.405   3.181 -0.2922  0.1567  0.0947
  911THF     C913279   4.852   3.269   3.250  0.1306 -0.1115 -0.4702
  911THF    H1013280   4.769   3.473   3.250  1.9415  1.4897  0.5584
  911THF    H1113281   4.910   3.449   3.138  1.0316 -0.7783  1.7468
  911THF    H1213282   4.950   3.232   3.221  0.0276  0.6617 -1.9264
  911THF    H1313283   4.846   3.272   3.358  2.7726 -0.3484 -0.2592
  912THF     O113284   5.227   4.679   1.725 -0.1096  0.0581  0.0888
  912THF     C213285   5.330   4.696   1.623  0.1490  0.1497  0.4813
  912THF     C313286   5.292   4.687   1.851  0.0011  0.4522 -0.7708
  912THF     H413287   5.346   4.797   1.584 -0.7128  0.1460  0.0938
  912THF     H513288   5.300   4.622   1.548 -2.6604 -1.5428  3.0883
  912THF     H613289   5.314   4.793   1.868  0.0182  0.2409  0.6504
  912THF     H713290   5.223   4.654   1.928 -0.0023  2.2744  0.0749
  912THF     C813291   5.419   4.600   1.827 -0.4629 -0.6829 -0.3434
  912THF     C913292   5.458   4.637   1.684  0.1202 -0.6491 -0.5995
  912THF    H1013293   5.403   4.492   1.824  0.9235 -0.8890 -1.3423
  912THF    H1113294   5.507   4.623   1.887  0.0824 -0.1168 -1.3337
  912THF    H1213295   5.534   4.715   1.685 -1.4373  1.0853  3.2492
  912THF    H1313296   5.498   4.547   1.636 -1.0728 -1.0597 -0.8722
  913THF     O113297   0.323   0.244   0.725 -0.4525  0.6774  0.1706
  913THF     C213298   0.326   0.374   0.776  0.0207  0.2790 -0.2697
  913THF     C313299   0.192   0.202   0.767 -0.1738  0.0354  0.0752
  913THF     H413300   0.407   0.427   0.727  1.1698  0.6845  1.9445
  913THF     H513301   0.337   0.388   0.883 -1.7895  3.5356 -0.3858
  913THF     H613302   0.178   0.110   0.710  0.7199  0.2586 -0.5190
  913THF     H713303   0.182   0.192   0.875  1.4098  0.1116  0.2562
  913THF     C813304   0.107   0.313   0.710  0.2926 -0.2788 -0.1521
  913THF     C913305   0.193   0.439   0.730 -0.2078  0.5958  0.5274
  913THF    H1013306   0.006   0.320   0.751 -0.4564 -2.4463 -1.4398
  913THF    H1113307   0.097   0.300   0.602 -0.4947 -1.0730  0.0057
  913THF    H1213308   0.209   0.493   0.637  0.4158 -1.9719 -0.9561
  913THF    H1313309   0.148   0.506   0.803 -0.3665 -0.8790  1.8357
  914THF     O113310   0.377   0.107   2.915  0.2544 -0.3331 -0.5005
  914THF     C213311   0.440   0.201   3.003 -0.2672 -0.3160 -0.9090
  914THF     C313312   0.478   0.019   2.862  0.0681  0.0159 -0.1313
  914THF     H413313   0.422   0.170   3.106  0.3245 -0.9108 -0.9777
  914THF     H513314   0.397   0.299   2.981 -0.2154 -0.1965 -0.4957
  914THF     H613315   0.476  -0.060   2.937  0.4192 -0.1038 -0.2469
  914THF     H713316   0.461  -0.030   2.766 -0.4515 -0.7769  0.3486
  914THF     C813317   0.610   0.090   2.855 -0.2477 -0.1179  0.0465
  914THF     C913318   0.586   0.192   2.961 -0.5429 -0.8203  0.4679
  914THF    H1013319   0.632   0.140   2.761  2.4276  0.3120  0.8204
  914THF    H1113320   0.697   0.029   2.879 -0.9290  0.0135  3.3598
  914THF    H1213321   0.649   0.173   3.047 -0.3744 -1.1479  0.2744
  914THF    H1313322   0.608   0.294   2.930 -0.2845 -0.6844  1.0881
  915THF     O113323   3.547   1.525   2.809 -0.2675 -0.4219  0.6279
  915THF     C213324   3.457   1.438   2.879  0.2237 -0.5953 -0.1077
  915THF     C313325   3.470   1.628   2.757  1.1077 -0.0293 -0.2838
  915THF     H413326   3.501   1.384   2.963 -2.3188  0.6557  2.2220
  915THF     H513327   3.417   1.358   2.816  0.3122 -1.1625  0.5367
  915THF     H613328   3.526   1.717   2.727 -2.2259  1.7155 -1.8620
  915THF     H713329   3.417   1.595   2.668  1.0524  0.2889 -0.3729
  915THF     C813330   3.372   1.662   2.864 -0.1215 -0.1122 -0.1393
  915THF     C913331   3.352   1.534   2.939 -0.4833  0.8406  0.5098
  915THF    H1013332   3.279   1.706   2.829  1.8220  2.9787 -1.8478
  915THF    H1113333   3.409   1.741   2.929 -2.1518  0.8278 -0.0264
  915THF    H1213334   3.361   1.552   3.046  1.1049  1.0238  0.3788
  915THF    H1313335   3.255   1.489   2.920 -0.0461  0.1606 -0.1777
  916THF     O113336   3.918   0.698   4.763  0.2126  0.2697  0.2635
  916THF     C213337   3.924   0.836   4.790  0.5235  0.5157 -0.4821
  916THF     C313338   3.815   0.680   4.665  0.0187  0.2357 -0.2556
  916THF     H413339   4.015   0.875   4.836 -0.1850  1.6598 -0.0130
  916THF     H513340   3.848   0.861   4.863 -0.4742 -1.2302 -0.8567
  916THF     H613341   3.836   0.603   4.590 -1.7907  0.2746 -0.8388
  916THF     H713342   3.727   0.650   4.720  0.3455  0.5330  0.4382
  916THF     C813343   3.777   0.811   4.596 -0.2355  0.4201 -0.2686
  916THF     C913344   3.885   0.904   4.657 -0.0022  0.1696  0.3892
  916THF    H1013345   3.676   0.851   4.611 -0.4517 -0.2643  0.2033
  916THF    H1113346   3.804   0.806   4.491  0.1354  0.1373 -0.1621
  916THF    H1213347   3.973   0.907   4.593 -0.2845 -0.1553 -0.0153
  916THF    H1313348   3.858   1.010   4.663  0.7443  0.3089  1.6594
  917THF     O113349   1.337   3.664   0.764  0.2382  0.2955 -0.1374
  917THF     C213350   1.286   3.591   0.647  0.1690 -0.7105  0.0372
  917THF     C313351   1.267   3.786   0.787  0.2818 -0.6030  0.1924
  917THF     H413352   1.276   3.485   0.671  0.0291 -0.4624  1.1292
  917THF     H513353   1.356   3.610   0.565 -1.2553  0.6605 -0.9273
  917THF     H613354   1.221   3.803   0.884  0.7612 -0.6457  0.4302
  917THF     H713355   1.348   3.859   0.779  1.5252 -1.0963  5.1816
  917THF     C813356   1.164   3.802   0.674  0.2964 -0.3222  0.5171
  917THF     C913357   1.149   3.662   0.614  0.5859 -0.0183 -0.5673
  917THF    H1013358   1.189   3.867   0.590 -0.7073 -1.2278 -0.5388
  917THF    H1113359   1.062   3.828   0.705  0.4671 -0.0021  0.8128
  917THF    H1213360   1.078   3.611   0.679  0.3100 -1.4019 -1.8911
  917THF    H1313361   1.108   3.654   0.514  2.1139  1.4386 -1.3618
  918THF     O113362   2.218   4.999   2.110 -0.3292 -0.7388 -0.1161
  918THF     C213363   2.295   4.919   2.209  0.6072 -0.3146  0.8098
  918THF     C313364   2.256   5.139   2.115 -0.0677  0.3082  0.6197
  918THF     H413365   2.292   4.811   2.197 -1.7493 -0.2138 -0.2081
  918THF     H513366   2.239   4.946   2.299  0.3932  1.6742  0.1436
  918THF     H613367   2.251   5.180   2.015  0.2601  0.6838  0.7559
  918THF     H713368   2.194   5.195   2.184 -1.0522 -1.2224  1.0362
  918THF     C813369   2.408   5.122   2.161  0.1891  0.0913  0.3910
  918THF     C913370   2.434   4.978   2.185  0.8722  0.8652  0.2329
  918THF    H1013371   2.430   5.180   2.251  0.6668  1.1646 -0.3858
  918THF    H1113372   2.476   5.150   2.081 -0.7131 -0.7763 -0.7122
  918THF    H1213373   2.479   4.920   2.105  2.7368 -0.8233  2.3444
  918THF    H1313374   2.501   4.964   2.271  1.9788 -0.3345 -0.7933
  919THF     O113375   0.526   0.689   4.130  0.1361  0.3410 -0.1159
  919THF     C213376   0.581   0.783   4.033  1.2242 -1.2972 -0.1101
  919THF     C313377   0.469   0.583   4.071 -0.4097  0.9226  0.6966
  919THF     H413378   0.656   0.846   4.081 -1.1308  0.0285  2.1176
  919THF     H513379   0.513   0.866   4.011  1.5088 -0.9581  0.2736
  919THF     H613380   0.471   0.494   4.135 -1.3117  0.8326  0.6050
  919THF     H713381   0.368   0.584   4.030 -0.2797 -0.8225  0.2430
  919THF     C813382   0.573   0.562   3.953 -0.5347  0.1125  0.8460
  919THF     C913383   0.615   0.703   3.912 -0.1777 -0.2277 -0.1659
  919THF    H1013384   0.528   0.499   3.876 -1.7292  1.4811  0.3832
  919THF    H1113385   0.667   0.514   3.981  0.0944  0.3723 -0.6925
  919THF    H1213386   0.718   0.714   3.879 -1.4246  1.5200 -4.1255
  919THF    H1313387   0.553   0.733   3.827 -0.8718  2.4149  1.1902
  920THF     O113388   3.542   5.143   2.033  0.3943 -0.2860 -0.2655
  920THF     C213389   3.426   5.060   2.007 -0.0895  0.6775 -0.4462
  920THF     C313390   3.654   5.104   1.953 -0.3470  0.9932  0.4469
  920THF     H413391   3.335   5.109   1.971 -0.5204 -0.4692 -0.9767
  920THF     H513392   3.399   5.011   2.101  1.1778 -0.4070 -0.6135
  920THF     H613393   3.676   5.163   1.864  2.2426  0.0815  0.3943
  920THF     H713394   3.747   5.109   2.010  0.8483  2.2283 -1.5004
  920THF     C813395   3.609   4.961   1.920 -0.4928  0.4971  0.4861
  920THF     C913396   3.468   4.967   1.899  0.1292 -0.8463  0.2585
  920THF    H1013397   3.626   4.890   2.001  2.6211  0.9286  0.3256
  920THF    H1113398   3.656   4.928   1.827 -0.7372  4.4780 -1.2357
  920THF    H1213399   3.443   5.012   1.802  1.4973 -1.0741 -0.2152
  920THF    H1313400   3.423   4.868   1.906 -2.0281  0.1239  1.2869
  921THF     O113401   0.606   2.468   4.538 -1.3537 -0.1187 -0.0730
  921THF     C213402   0.515   2.574   4.529  0.7166  0.1698 -0.1350
  921THF     C313403   0.708   2.487   4.440 -0.3214 -0.0640 -0.2823
  921THF     H413404   0.508   2.629   4.623  0.2418  0.4336 -0.3205
  921THF     H513405   0.410   2.549   4.513 -0.8252  4.8830  1.0406
  921THF     H613406   0.807   2.459   4.476 -0.0683 -1.1707 -1.7677
  921THF     H713407   0.686   2.435   4.348 -0.4518  2.6636 -1.9201
  921THF     C813408   0.703   2.632   4.397  0.0360 -0.1243 -0.8007
  921THF     C913409   0.559   2.668   4.418 -0.3080  0.3934  0.2381
  921THF    H1013410   0.737   2.652   4.295  2.6100  0.3201  0.0707
  921THF    H1113411   0.756   2.695   4.469 -0.1472  0.9642 -1.5819
  921THF    H1213412   0.529   2.771   4.436 -1.6867  0.2651 -1.1143
  921THF    H1313413   0.501   2.637   4.331 -1.6921  1.3513  0.7727
  922THF     O113414   0.138   1.040   3.220 -0.0188 -0.3643  0.0852
  922THF     C213415   0.026   1.050   3.305 -0.1256 -0.1549  0.1146
  922THF     C313416   0.251   1.075   3.295  0.1768  0.4165 -0.6136
  922THF     H413417  -0.063   0.996   3.272 -0.6739  0.7434  0.1135
  922THF     H513418  -0.009   1.153   3.307  0.7211  0.1873 -1.2282
  922THF     H613419   0.336   1.015   3.262 -0.4518 -0.7693 -0.1343
  922THF     H713420   0.266   1.183   3.289 -0.1628  0.5810  0.9935
  922THF     C813421   0.224   1.035   3.438 -0.4932 -0.2840  0.5188
  922THF     C913422   0.075   1.006   3.436 -0.9577  0.4421  0.4312
  922THF    H1013423   0.232   1.114   3.512 -1.5875 -1.3571  1.8255
  922THF    H1113424   0.287   0.952   3.471 -2.3988 -1.7576  0.6407
  922THF    H1213425   0.053   0.899   3.437  1.1249 -0.0287  0.8377
  922THF    H1313426   0.026   1.054   3.520 -0.9954 -0.5189  0.9697
  923THF     O113427   3.348   4.271   4.087 -0.5482 -0.0470  0.1747
  923THF     C213428   3.213   4.237   4.049 -0.3750 -0.2898  0.4070
  923THF     C313429   3.438   4.224   3.986 -0.2329 -0.5914 -0.0361
  923THF     H413430   3.165   4.322   4.000 -0.6266  0.0667  1.2533
  923THF     H513431   3.160   4.211   4.140 -0.8654  1.8440  0.7810
  923THF     H613432   3.438   4.302   3.910 -0.2447  0.2566  0.8257
  923THF     H713433   3.544   4.216   4.011 -0.3561  0.5073  0.8868
  923THF     C813434   3.374   4.085   3.962  0.2276  0.6254 -0.2615
  923THF     C913435   3.226   4.114   3.957  0.3169  0.0328  0.3746
  923THF    H1013436   3.395   4.014   4.042 -0.7910 -0.7248 -1.1475
  923THF    H1113437   3.406   4.042   3.868 -0.1772 -1.0793  0.3471
  923THF    H1213438   3.200   4.135   3.854 -1.3920 -0.8044  0.5992
  923THF    H1313439   3.158   4.032   3.981 -1.0546  0.0053 -3.0764
  924THF     O113440   1.089   2.330   1.901 -0.1430 -0.3440 -0.0651
  924THF     C213441   1.193   2.281   1.817 -0.7281 -0.0236  0.3891
  924THF     C313442   1.046   2.451   1.836 -0.2823  0.2740  0.4313
  924THF     H413443   1.221   2.180   1.846 -0.3878  0.1355  0.6163
  924THF     H513444   1.282   2.344   1.816 -0.1184 -0.8681  0.1469
  924THF     H613445   0.947   2.484   1.867 -1.9429  0.0287 -3.9338
  924THF     H713446   1.118   2.530   1.856 -0.2253  0.2406  0.3603
  924THF     C813447   1.052   2.425   1.688  0.0642 -0.6701 -0.3080
  924THF     C913448   1.139   2.301   1.676 -0.3310  0.1172 -0.3782
  924THF    H1013449   1.115   2.505   1.649 -0.9786  1.4917  2.1273
  924THF    H1113450   0.959   2.401   1.637 -0.5117 -0.7827  0.7482
  924THF    H1213451   1.076   2.217   1.643 -1.3685 -0.1189  1.9853
  924THF    H1313452   1.221   2.300   1.605  1.5812 -0.6757  1.7032
  925THF     O113453   5.089   1.292   1.869 -0.7525  0.1525  0.0628
  925THF     C213454   5.148   1.403   1.806 -0.2532 -0.4776  0.9439
  925THF     C313455   5.188   1.247   1.966  0.8592 -0.0884  0.4890
  925THF     H413456   5.071   1.470   1.771 -0.4229 -0.9300  0.4319
  925THF     H513457   5.216   1.377   1.725 -0.0503 -0.6677  1.1689
  925THF     H613458   5.150   1.173   2.036  3.4209 -1.0610  0.9405
  925THF     H713459   5.281   1.213   1.921  1.0197  0.0044  0.7530
  925THF     C813460   5.229   1.377   2.031 -0.1344  0.2003 -0.5146
  925THF     C913461   5.224   1.476   1.918  0.3310 -0.9481  0.3554
  925THF    H1013462   5.327   1.376   2.078 -0.6987 -1.2440  0.7208
  925THF    H1113463   5.157   1.409   2.106  1.6017 -0.5100  1.5584
  925THF    H1213464   5.166   1.565   1.943  2.1363  1.4656 -3.1786
  925THF    H1313465   5.320   1.508   1.880 -0.3383  1.5268  0.5822
  926THF     O113466   4.806   4.970   4.937  0.2362 -0.2125  0.0839
  926THF     C213467   4.697   5.068   4.914 -0.5619  0.1149  0.0572
  926THF     C313468   4.925   5.016   4.862  0.5164  0.0257 -0.5740
  926THF     H413469   4.705   5.152   4.984  0.6208  2.0011 -2.1592
  926THF     H513470   4.603   5.013   4.915 -0.5073  0.0227  0.3925
  926THF     H613471   5.015   5.021   4.924  2.2007  1.3718 -2.9844
  926THF     H713472   4.955   4.950   4.781  0.9613 -0.2948 -0.1524
  926THF     C813473   4.895   5.151   4.806 -0.6648 -0.1570  0.3581
  926THF     C913474   4.746   5.135   4.788  0.3653  0.3926  0.2144
  926THF    H1013475   4.952   5.166   4.714  0.2286 -1.3825  0.6919
  926THF    H1113476   4.914   5.234   4.874 -0.5084 -0.7189  0.9958
  926THF    H1213477   4.684   5.215   4.748 -0.8977 -1.8901 -2.8221
  926THF    H1313478   4.730   5.053   4.718 -2.2453 -0.7717  2.0113
  927THF     O113479   3.694   4.906   4.211  0.5103  0.0753 -0.2016
  927THF     C213480   3.640   5.022   4.280  0.0416  0.7932  0.2299
  927THF     C313481   3.804   4.867   4.288  0.0249 -0.3599  0.0445
  927THF     H413482   3.535   5.030   4.250  0.7852  0.9411 -2.5993
  927THF     H513483   3.694   5.116   4.268  2.7553 -0.2545  2.9017
  927THF     H613484   3.831   4.765   4.259 -1.8300 -0.5595 -1.1180
  927THF     H713485   3.881   4.938   4.257  1.0806 -1.2299  0.6092
  927THF     C813486   3.765   4.877   4.432 -0.2296  0.2107 -0.4166
  927THF     C913487   3.655   4.987   4.435 -0.0419  0.1651  0.2752
  927THF    H1013488   3.851   4.903   4.493 -1.4287 -0.6639  1.7389
  927THF    H1113489   3.732   4.779   4.464  0.6928 -0.0057 -0.0899
  927THF    H1213490   3.566   4.943   4.479  0.3791  0.8705  1.9106
  927THF    H1313491   3.684   5.066   4.504  0.5373 -0.4885  0.7982
  928THF     O113492   3.319   0.561   0.385 -0.7402  0.0022  0.7581
  928THF     C213493   3.261   0.492   0.487 -0.1593 -0.3352 -0.0523
  928THF     C313494   3.450   0.507   0.365  0.0647 -0.6621  0.2223
  928THF     H413495   3.154   0.476   0.473 -0.5932  0.3416  2.0504
  928THF     H513496   3.263   0.570   0.563  0.1899  0.6875 -1.0843
  928THF     H613497   3.455   0.454   0.270  0.2823 -1.4048  0.6380
  928THF     H713498   3.528   0.584   0.364 -0.0292 -0.5575 -1.3775
  928THF     C813499   3.486   0.411   0.481 -0.4726 -0.3478  0.4115
  928THF     C913500   3.347   0.360   0.520  0.0647 -0.2743 -1.0794
  928THF    H1013501   3.528   0.458   0.570  1.6178 -2.2597  0.5203
  928THF    H1113502   3.549   0.330   0.447 -0.6787 -0.1362 -0.5107
  928THF    H1213503   3.320   0.275   0.457  1.8699 -1.7705  0.0681
  928THF    H1313504   3.354   0.334   0.625 -0.1738  1.3948 -0.6169
  929THF     O113505   1.689   2.177   3.370  0.3419 -0.0812  0.7891
  929THF     C213506   1.779   2.094   3.293 -0.1405  0.4022 -0.8561
  929THF     C313507   1.754   2.269   3.457  0.3532 -0.2603 -0.7176
  929THF     H413508   1.732   2.073   3.197 -1.0901  0.7198 -0.4668
  929THF     H513509   1.803   2.005   3.351 -0.1783  0.1410 -1.2371
  929THF     H613510   1.695   2.359   3.474  2.0032  0.5046  1.5375
  929THF     H713511   1.786   2.218   3.548  1.0774  1.1299 -0.1667
  929THF     C813512   1.872   2.303   3.371 -1.0080 -0.4084 -0.0860
  929THF     C913513   1.902   2.173   3.288  0.3414  0.1458  0.2086
  929THF    H1013514   1.965   2.327   3.422  1.2878 -3.5536 -2.4099
  929THF    H1113515   1.853   2.382   3.298  0.1269 -0.6125 -0.6200
  929THF    H1213516   1.935   2.196   3.187  0.3296 -0.3060  0.1004
  929THF    H1313517   1.986   2.125   3.339 -0.5803 -1.5234  0.2522
  930THF     O113518   1.699   2.516   2.990 -0.1629  0.3265 -0.2156
  930THF     C213519   1.596   2.432   3.030 -0.3142  0.2508 -0.2532
  930THF     C313520   1.642   2.641   2.946 -0.3027 -0.4795  0.2202
  930THF     H413521   1.563   2.465   3.129 -0.7548  1.4233 -0.7615
  930THF     H513522   1.617   2.327   3.047  0.3162  0.3935 -0.1410
  930THF     H613523   1.579   2.690   3.021 -0.1448  0.2054 -0.0905
  930THF     H713524   1.722   2.697   2.899  0.6709 -2.3319 -0.4346
  930THF     C813525   1.521   2.590   2.867 -0.3352 -0.0032  0.6517
  930THF     C913526   1.494   2.451   2.919  0.0944 -0.8788  0.1402
  930THF    H1013527   1.553   2.601   2.763  0.7867  1.2841  1.1099
  930THF    H1113528   1.431   2.651   2.859  0.4083  0.9725 -0.8582
  930THF    H1213529   1.393   2.452   2.958 -0.3592 -1.7934 -0.9680
  930THF    H1313530   1.497   2.377   2.840  0.7478  0.8339 -1.5111
  931THF     O113531   3.101   0.820   0.636 -0.3204 -0.7429 -0.6620
  931THF     C213532   2.988   0.774   0.568  0.2827  0.2555  0.4770
  931THF     C313533   3.083   0.797   0.779 -0.6860  0.5956 -0.4642
  931THF     H413534   2.989   0.665   0.558  0.5788  0.3747 -1.1794
  931THF     H513535   2.976   0.801   0.463 -0.6020 -1.7683 -0.0028
  931THF     H613536   3.109   0.693   0.793 -0.4313  0.8297  0.9125
  931THF     H713537   3.143   0.871   0.832  3.3147 -0.5059 -3.0240
  931THF     C813538   2.933   0.813   0.791 -0.3007 -0.1700  0.5528
  931THF     C913539   2.884   0.827   0.650 -0.3536 -0.3729  0.1320
  931THF    H1013540   2.895   0.884   0.864 -0.0255  1.4936 -0.8562
  931THF    H1113541   2.896   0.716   0.824 -1.7963 -0.1336 -0.8947
  931THF    H1213542   2.795   0.766   0.631  0.4842 -1.1025 -1.6141
  931THF    H1313543   2.865   0.930   0.621 -1.5349 -0.4906  0.3964
  932THF     O113544   4.107   4.786   2.171 -0.0985  0.0583  0.5517
  932THF     C213545   3.988   4.791   2.087 -0.2337  0.9830  0.0815
  932THF     C313546   4.066   4.720   2.287 -0.1451 -1.1760 -0.6222
  932THF     H413547   4.021   4.805   1.984  2.8502  0.6145  0.9107
  932THF     H513548   3.921   4.865   2.129  0.2526  0.8331  1.1545
  932THF     H613549   4.151   4.706   2.354  1.6968  2.6983 -1.8895
  932THF     H713550   4.004   4.787   2.347  2.4202  1.5179 -0.7732
  932THF     C813551   3.988   4.605   2.238 -0.3277  0.1002  0.0168
  932THF     C913552   3.939   4.647   2.103  0.0883 -0.6896  0.0896
  932THF    H1013553   3.905   4.579   2.303 -2.1228  0.9749 -1.8292
  932THF    H1113554   4.057   4.521   2.229 -0.5825  0.0599 -1.8912
  932THF    H1213555   3.971   4.589   2.017 -0.0134 -0.4686 -0.1011
  932THF    H1313556   3.830   4.636   2.098 -0.1932  0.5598  2.0083
  933THF     O113557   2.455   3.091   4.336  0.3436 -0.0581 -0.7152
  933THF     C213558   2.315   3.112   4.335 -0.4401  0.1917  0.5652
  933THF     C313559   2.500   3.135   4.463 -0.3140 -0.1865 -0.0890
  933THF     H413560   2.281   3.067   4.241 -1.2613 -0.8347  1.3294
  933THF     H513561   2.293   3.219   4.342  0.0707  0.2244  2.0217
  933THF     H613562   2.591   3.080   4.489 -0.4726 -1.1616 -1.5107
  933THF     H713563   2.526   3.241   4.453  2.2124 -0.5854  1.4270
  933THF     C813564   2.374   3.111   4.554 -0.3074  0.4090  0.0055
  933THF     C913565   2.278   3.037   4.464  0.3981 -0.9434  0.4327
  933THF    H1013566   2.332   3.204   4.591  0.2637  0.4548  0.5488
  933THF    H1113567   2.409   3.045   4.633  0.3038 -1.0880 -1.4364
  933THF    H1213568   2.308   2.933   4.452  1.2341 -0.6547 -0.0157
  933THF    H1313569   2.173   3.038   4.493  0.8992  0.8334  2.3785
  934THF     O113570   4.536   2.211   3.371  0.6003  0.1836  0.3399
  934THF     C213571   4.529   2.352   3.383 -0.1244 -0.4229 -0.5484
  934THF     C313572   4.538   2.135   3.491  0.4285 -0.8939  0.3540
  934THF     H413573   4.428   2.393   3.376  0.1524  0.1632 -1.2918
  934THF     H513574   4.599   2.388   3.308  1.0083 -0.0722  0.6371
  934THF     H613575   4.450   2.070   3.497  0.1205 -0.5598 -0.3328
  934THF     H713576   4.633   2.083   3.502  0.2039 -0.9632  2.1848
  934THF     C813577   4.519   2.236   3.602  0.1246  0.3624 -0.2434
  934THF     C913578   4.574   2.362   3.532 -0.2347  0.8044 -0.5959
  934THF    H1013579   4.567   2.209   3.695 -1.8863  0.7090  0.9502
  934THF    H1113580   4.413   2.255   3.619 -0.1635 -1.6137  0.4265
  934THF    H1213581   4.540   2.450   3.586 -2.0236 -1.1749  1.7493
  934THF    H1313582   4.682   2.351   3.542 -0.3405 -0.1795 -0.3822
  935THF     O113583   0.848   2.111   4.227  0.1546  0.1213 -0.0380
  935THF     C213584   0.930   2.081   4.335 -0.5814  0.0166 -0.2146
  935THF     C313585   0.722   2.133   4.290 -0.5748 -0.2673 -0.6397
  935THF     H413586   0.956   2.169   4.395 -0.6986 -0.6419  0.8300
  935THF     H513587   1.027   2.035   4.318 -0.6807 -1.2238  2.0637
  935THF     H613588   0.729   2.230   4.339  0.8978 -0.2976 -0.7495
  935THF     H713589   0.643   2.129   4.215 -1.3387 -3.2281  0.1523
  935THF     C813590   0.704   2.027   4.387 -0.1759 -0.5834  0.1490
  935THF     C913591   0.845   1.977   4.409  0.0434  0.3563 -1.3868
  935THF    H1013592   0.635   1.947   4.362  1.0605 -1.4384 -0.6222
  935THF    H1113593   0.655   2.066   4.476  1.5541  1.1154  0.4102
  935THF    H1213594   0.861   1.984   4.517  0.0755  0.3417 -1.3905
  935THF    H1313595   0.858   1.875   4.373 -2.0540 -0.7122  0.6772
  936THF     O113596   4.342   5.300   4.566  0.1540 -0.0224  0.5485
  936THF     C213597   4.214   5.294   4.505  0.3314  0.3259  0.0925
  936THF     C313598   4.401   5.170   4.555  0.1853  0.6307  0.0309
  936THF     H413599   4.212   5.291   4.396 -0.8901 -0.0516  0.1031
  936THF     H513600   4.141   5.368   4.537 -0.2596 -0.5144  0.7490
  936THF     H613601   4.466   5.172   4.468 -1.1550  2.6777 -1.0093
  936THF     H713602   4.466   5.144   4.638  2.8541 -1.0489 -2.3958
  936THF     C813603   4.286   5.073   4.541 -0.6143 -0.5204  0.0790
  936THF     C913604   4.164   5.153   4.555  0.1039 -0.2389 -0.2460
  936THF    H1013605   4.301   4.984   4.602 -0.2502  0.1538  0.9877
  936THF    H1113606   4.278   5.031   4.440  0.5442  0.7721 -0.5799
  936THF    H1213607   4.075   5.124   4.500  0.1619  0.2163 -0.5772
  936THF    H1313608   4.139   5.158   4.661  0.3412 -0.1344 -0.1946
  937THF     O113609   1.107   5.465   1.602 -0.0668 -0.2080  0.2355
  937THF     C213610   1.110   5.333   1.545  0.1616 -0.1207  0.3379
  937THF     C313611   0.984   5.519   1.566  0.3581 -0.2481 -0.0577
  937THF     H413612   1.183   5.278   1.605 -0.4315 -2.9097 -1.3238
  937THF     H513613   1.152   5.345   1.445  0.6673  0.7874  0.6511
  937THF     H613614   0.940   5.570   1.652 -2.5300  1.5656 -2.4338
  937THF     H713615   0.989   5.596   1.490 -0.1515 -0.9402 -0.8117
  937THF     C813616   0.884   5.400   1.534  0.2668 -0.6087 -0.3845
  937THF     C913617   0.970   5.284   1.569  0.5095  0.5845 -0.3149
  937THF    H1013618   0.862   5.393   1.427 -0.4059  2.2577 -0.4943
  937THF    H1113619   0.791   5.409   1.591  0.7620  2.7774  0.0306
  937THF    H1213620   0.952   5.253   1.672  0.5524  0.8252 -0.2340
  937THF    H1313621   0.947   5.193   1.514 -0.0944  0.4903  0.0772
  938THF     O113622   1.170   0.363   4.517 -0.2206 -0.2581 -0.1812
  938THF     C213623   1.079   0.388   4.622 -0.3801  0.5970  0.4652
  938THF     C313624   1.141   0.230   4.471  0.2000  0.2085 -0.3327
  938THF     H413625   0.977   0.403   4.586 -0.8167  1.3013  1.8848
  938THF     H513626   1.112   0.479   4.672  1.6280 -1.6025  3.5054
  938THF     H613627   1.040   0.220   4.432  0.2256 -0.6438 -0.1880
  938THF     H713628   1.222   0.199   4.404  0.1784  3.6199 -2.1943
  938THF     C813629   1.134   0.157   4.600 -0.1315 -0.0829  0.3031
  938THF     C913630   1.083   0.257   4.703  0.0522  0.4203  0.1573
  938THF    H1013631   1.231   0.124   4.637  0.5882  1.5293 -0.0581
  938THF    H1113632   1.080   0.062   4.592  0.9877 -0.7512  0.4292
  938THF    H1213633   0.984   0.229   4.736 -0.5703  0.3037 -1.7049
  938THF    H1313634   1.152   0.267   4.787 -3.3812  0.3484  3.2232
  939THF     O113635   3.662   3.643   2.464  0.1177 -0.4773  0.5458
  939THF     C213636   3.723   3.763   2.414  0.5505 -0.3073 -0.1305
  939THF     C313637   3.593   3.661   2.588  0.2742 -0.4979 -0.1065
  939THF     H413638   3.702   3.785   2.310 -1.1333  1.5608  0.5395
  939THF     H513639   3.831   3.753   2.424  0.8966 -0.9125 -3.5317
  939THF     H613640   3.485   3.667   2.574  0.1723  0.0361  0.8548
  939THF     H713641   3.616   3.587   2.665  0.1853  0.4247  0.8349
  939THF     C813642   3.654   3.788   2.639 -0.2481 -0.6966  0.2563
  939THF     C913643   3.677   3.874   2.511 -0.0690  0.1085 -0.3472
  939THF    H1013644   3.748   3.775   2.691 -0.0055 -0.9102 -0.2390
  939THF    H1113645   3.583   3.836   2.707  0.1779  0.6667 -0.2298
  939THF    H1213646   3.581   3.915   2.478 -0.7260 -0.5296  0.7044
  939THF    H1313647   3.739   3.963   2.521 -1.7681  1.2429  0.7042
  940THF     O113648   2.540   2.194   5.297 -0.0275  0.3440  0.0426
  940THF     C213649   2.648   2.279   5.262  0.1952  0.9224  0.4341
  940THF     C313650   2.484   2.247   5.419 -0.2433 -0.2435 -0.0077
  940THF     H413651   2.605   2.374   5.230 -2.1284 -1.1421 -3.2197
  940THF     H513652   2.712   2.235   5.185  0.5913 -0.6176  1.5859
  940THF     H613653   2.403   2.317   5.398  1.3827  1.0949 -2.2610
  940THF     H713654   2.434   2.165   5.471  0.5089 -1.6708 -1.4561
  940THF     C813655   2.607   2.312   5.492  0.0516  0.2759  0.0956
  940THF     C913656   2.722   2.299   5.397 -0.5639  0.8842  0.1788
  940THF    H1013657   2.631   2.265   5.587  1.9951  0.2788 -0.3477
  940THF    H1113658   2.586   2.417   5.514 -1.2574  0.1118 -0.2832
  940THF    H1213659   2.789   2.385   5.388 -0.4071  0.8302  0.8053
  940THF    H1313660   2.789   2.214   5.412 -0.0597  0.7979 -2.1272
  941THF     O113661   0.967   2.961   0.930  0.2886 -0.5283  0.0594
  941THF     C213662   0.966   2.950   0.789  0.3767  0.4248  0.1621
  941THF     C313663   0.954   2.820   0.976  0.0712  0.0365 -0.0219
  941THF     H413664   1.065   2.937   0.745  0.3475  0.2822  0.1394
  941THF     H513665   0.936   3.046   0.746  0.4051 -0.4508 -1.9078
  941THF     H613666   1.055   2.782   0.963 -0.0929 -0.3224 -0.2766
  941THF     H713667   0.924   2.821   1.081 -0.4105  1.6997 -0.1379
  941THF     C813668   0.850   2.756   0.887  0.0015 -0.5800 -0.2041
  941THF     C913669   0.872   2.832   0.757  0.9450  0.5667  0.0399
  941THF    H1013670   0.747   2.773   0.917 -0.2452 -1.3436 -0.5836
  941THF    H1113671   0.869   2.649   0.882  0.8472 -0.5199  1.2830
  941THF    H1213672   0.919   2.776   0.676  2.4419  3.1096 -0.9547
  941THF    H1313673   0.782   2.868   0.707  0.6876 -0.9071 -0.6275
  942THF     O113674   0.916   4.849   1.204  0.8351 -0.1768 -0.2189
  942THF     C213675   1.027   4.916   1.145 -0.6544  0.3529 -0.4697
  942THF     C313676   0.809   4.943   1.186 -0.2905  0.5793 -0.0481
  942THF     H413677   1.023   4.910   1.037  1.3955 -0.5194 -0.5505
  942THF     H513678   1.121   4.874   1.179 -0.3805  2.9026  2.3465
  942THF     H613679   0.778   4.940   1.082 -1.6738  0.9821  0.3301
  942THF     H713680   0.716   4.926   1.240 -0.4419  0.5762 -0.3124
  942THF     C813681   0.876   5.075   1.217 -0.5946  0.4048  0.3762
  942THF     C913682   1.023   5.061   1.189  0.2175 -0.3450  0.4978
  942THF    H1013683   0.861   5.102   1.321  1.4748  1.1490  0.5247
  942THF    H1113684   0.826   5.153   1.159  1.2557  1.9618  0.7619
  942THF    H1213685   1.058   5.123   1.106 -0.1649 -0.0997  0.5165
  942THF    H1313686   1.080   5.081   1.280  0.0949  0.1771  0.4672
  943THF     O113687   0.070   3.111   3.572 -0.2906  0.2086  0.9670
  943THF     C213688   0.203   3.117   3.632  0.2334 -0.1945 -0.7900
  943THF     C313689   0.015   2.986   3.596  0.7663  0.6402 -0.2988
  943THF     H413690   0.247   3.212   3.659  0.0466 -0.4636  0.5426
  943THF     H513691   0.263   3.042   3.580 -0.3207 -2.0038  0.9968
  943THF     H613692  -0.092   2.989   3.617  0.9962 -0.8764  1.4334
  943THF     H713693   0.028   2.924   3.508  2.0244 -1.0088  0.9781
  943THF     C813694   0.093   2.917   3.706  0.0468 -0.0862 -0.1226
  943THF     C913695   0.167   3.039   3.762 -0.6095  0.6929 -0.5162
  943THF    H1013696   0.161   2.840   3.669 -3.1760 -1.9003 -2.8067
  943THF    H1113697   0.033   2.883   3.790  0.9404  3.5212  2.1515
  943THF    H1213698   0.090   3.089   3.822 -1.6334 -0.2425 -1.0107
  943THF    H1313699   0.254   3.010   3.821 -1.9316 -2.2989  0.1554
  944THF     O113700   4.745   0.156   5.066  0.3801 -0.3509 -0.1173
  944THF     C213701   4.819   0.275   5.088 -0.5619  0.0930 -0.5087
  944THF     C313702   4.653   0.135   5.168 -0.2707 -0.3612  0.5010
  944THF     H413703   4.744   0.350   5.065  0.3994  1.2987  0.1937
  944THF     H513704   4.908   0.292   5.027  0.1007  1.1941  0.7410
  944THF     H613705   4.552   0.173   5.155  0.9367  2.4092 -1.8574
  944THF     H713706   4.657   0.030   5.197 -1.0178 -0.6165 -0.2755
  944THF     C813707   4.708   0.225   5.285 -0.5480  0.3294  0.0326
  944THF     C913708   4.841   0.267   5.241  0.2096 -0.8885 -0.6821
  944THF    H1013709   4.713   0.177   5.383  1.0107  2.9392  1.3276
  944THF    H1113710   4.638   0.305   5.308 -1.2516 -0.4079  0.5410
  944THF    H1213711   4.878   0.355   5.294  1.2139 -1.2155 -0.8168
  944THF    H1313712   4.910   0.188   5.270 -0.2391 -1.4256 -1.0575
  945THF     O113713   1.830   4.039   2.055 -0.0518  0.0590 -0.5199
  945THF     C213714   1.779   3.908   2.028  0.4302  0.3355 -0.0430
  945THF     C313715   1.740   4.127   1.998  0.2789 -0.1307 -0.6339
  945THF     H413716   1.819   3.826   2.087  0.6444  0.5216  0.0720
  945THF     H513717   1.797   3.888   1.922 -2.4680  0.0974 -0.5741
  945THF     H613718   1.723   4.207   2.070  2.3827  0.0440 -0.2899
  945THF     H713719   1.761   4.167   1.899 -2.7170  0.1279 -1.2711
  945THF     C813720   1.598   4.061   1.985  0.3234 -1.0519  0.2360
  945THF     C913721   1.634   3.933   2.053  0.1716  0.1821 -0.0110
  945THF    H1013722   1.568   4.038   1.883  2.5761 -2.8349 -0.1073
  945THF    H1113723   1.513   4.106   2.037 -0.2213 -0.9725 -0.6940
  945THF    H1213724   1.626   3.948   2.161  0.5808 -1.3492  0.2551
  945THF    H1313725   1.571   3.853   2.014 -0.5151  1.6301 -1.9915
  946THF     O113726   3.225   5.390   3.730 -0.2814  0.0989 -0.4569
  946THF     C213727   3.130   5.402   3.840 -0.2024  0.0874 -0.1014
  946THF     C313728   3.308   5.284   3.776 -0.2288 -0.2137 -0.7996
  946THF     H413729   3.071   5.311   3.829  0.7522 -0.4896 -0.6036
  946THF     H513730   3.073   5.495   3.834 -0.5926 -0.0423  1.3316
  946THF     H613731   3.254   5.191   3.760 -0.6026 -0.4785  1.6707
  946THF     H713732   3.398   5.259   3.720  0.4957 -1.4599  0.8471
  946THF     C813733   3.323   5.311   3.928  0.2331 -0.4292 -0.8042
  946THF     C913734   3.211   5.404   3.968  0.2265  0.1068  0.3198
  946THF    H1013735   3.422   5.354   3.944 -0.0458  0.8403 -2.2467
  946THF    H1113736   3.331   5.223   3.992  2.4684 -1.6840 -2.6434
  946THF    H1213737   3.143   5.360   4.042 -1.5241  2.7147  0.4331
  946THF    H1313738   3.236   5.507   3.993  0.2787 -0.5681  3.5206
  947THF     O113739   3.161   1.248   0.969  0.0074  0.9801 -0.8763
  947THF     C213740   3.288   1.185   0.927  0.4688 -0.1516  0.3314
  947THF     C313741   3.099   1.156   1.065 -0.5301 -0.2846 -0.1174
  947THF     H413742   3.355   1.262   0.890 -1.6485  0.9915 -1.3723
  947THF     H513743   3.254   1.122   0.845  1.6144 -0.4497  0.0678
  947THF     H613744   3.037   1.192   1.147  0.9513 -2.1279  1.9167
  947THF     H713745   3.031   1.081   1.025 -2.1812  0.0823  1.8305
  947THF     C813746   3.214   1.074   1.123  0.0132  0.1195  0.4345
  947THF     C913747   3.341   1.116   1.051 -0.6796 -0.2055  0.1171
  947THF    H1013748   3.176   0.973   1.109 -0.2314  0.2143  0.4088
  947THF    H1113749   3.222   1.085   1.231  0.5865  3.5380  0.1804
  947THF    H1213750   3.390   1.199   1.102  0.3415  1.6050 -3.4732
  947THF    H1313751   3.411   1.034   1.038 -1.2798 -0.6890 -0.1165
  948THF     O113752   4.684   3.253   0.149 -0.2791 -0.1559  0.4707
  948THF     C213753   4.623   3.343   0.057 -0.2460  0.4819 -0.0745
  948THF     C313754   4.815   3.293   0.159 -0.6113  0.3847 -0.0703
  948THF     H413755   4.515   3.351   0.070 -0.3887 -1.0418 -0.1195
  948THF     H513756   4.639   3.313  -0.046 -1.6530  1.4732 -0.6127
  948THF     H613757   4.846   3.285   0.263 -0.0129 -2.0650 -0.3881
  948THF     H713758   4.879   3.236   0.091  0.4671  0.6016  0.7332
  948THF     C813759   4.824   3.440   0.116 -0.2334  0.1709 -0.5174
  948THF     C913760   4.690   3.475   0.076  0.0054  0.5456  1.0729
  948THF    H1013761   4.886   3.449   0.027 -0.5518 -1.1706 -0.8928
  948THF    H1113762   4.859   3.505   0.197  2.4246 -1.0718 -0.5662
  948THF    H1213763   4.638   3.522   0.159 -0.3131 -1.6150  2.1606
  948THF    H1313764   4.694   3.528  -0.020  0.4876  1.3554  1.5303
  949THF     O113765   5.059   1.163   0.609  0.0160 -0.3521 -0.8033
  949THF     C213766   5.174   1.089   0.590  0.2344  0.2564 -0.1628
  949THF     C313767   5.097   1.283   0.686  0.2797  0.5857  0.7200
  949THF     H413768   5.196   1.090   0.483 -0.3869 -1.2011 -0.3216
  949THF     H513769   5.165   0.981   0.599  0.3788  0.2285 -0.3321
  949THF     H613770   5.043   1.374   0.660 -1.2316 -0.3215  0.5694
  949THF     H713771   5.074   1.258   0.790  2.4308 -1.4190  0.7807
  949THF     C813772   5.246   1.296   0.665  0.0007 -0.3384 -0.3632
  949THF     C913773   5.282   1.146   0.674  0.0138 -0.6744 -0.1698
  949THF    H1013774   5.292   1.347   0.749  2.2720 -1.0020 -1.1127
  949THF    H1113775   5.278   1.348   0.574 -1.6540  0.3402 -0.5890
  949THF    H1213776   5.378   1.131   0.624  0.1235 -0.8076  0.0767
  949THF    H1313777   5.295   1.107   0.775 -0.7168 -2.0110 -0.5804
  950THF     O113778   3.780   5.262   1.033  0.4468  0.3861  0.0274
  950THF     C213779   3.853   5.339   1.132 -0.2047 -0.2992  0.5931
  950THF     C313780   3.780   5.128   1.079 -0.5587  0.0049 -0.3416
  950THF     H413781   3.793   5.328   1.222  0.0050 -0.3965  0.7216
  950THF     H513782   3.869   5.445   1.111 -0.7100 -0.5482 -1.2165
  950THF     H613783   3.697   5.107   1.146  0.5568 -0.8080  0.8289
  950THF     H713784   3.773   5.064   0.990 -0.4374  1.1837 -1.2176
  950THF     C813785   3.914   5.113   1.147 -0.3720  0.3891  0.4176
  950THF     C913786   3.976   5.252   1.149  0.2063  0.8080  0.1007
  950THF    H1013787   3.984   5.059   1.083 -0.3040 -0.7757  1.4486
  950THF    H1113788   3.908   5.059   1.241  1.2611  0.0724  0.3708
  950THF    H1213789   4.024   5.279   1.243 -0.3886 -1.0602  0.9855
  950THF    H1313790   4.045   5.249   1.064 -0.2280 -2.3749 -0.2525
  951THF     O113791   2.208   3.621   3.120 -0.0225  0.0937 -0.0378
  951THF     C213792   2.086   3.550   3.113  0.6294  0.0026 -0.7395
  951THF     C313793   2.225   3.678   2.991  0.6182  0.2670  0.4029
  951THF     H413794   1.999   3.615   3.119 -0.6997 -1.7348 -0.4477
  951THF     H513795   2.084   3.469   3.186 -2.2040 -1.5617 -2.3572
  951THF     H613796   2.173   3.774   2.995  0.4251  0.1401  1.0637
  951THF     H713797   2.328   3.701   2.965  0.7048 -0.5882 -0.0597
  951THF     C813798   2.171   3.581   2.890 -0.0645  0.4866  0.5222
  951THF     C913799   2.077   3.495   2.971 -1.0896  0.0421  0.5905
  951THF    H1013800   2.249   3.524   2.841  0.2193  1.6492 -0.4167
  951THF    H1113801   2.124   3.644   2.814  0.3345 -1.5590 -1.5193
  951THF    H1213802   1.973   3.484   2.943 -0.8994 -1.5824  0.4098
  951THF    H1313803   2.117   3.394   2.982 -0.2827  0.3876  0.9697
  952THF     O113804   1.968   0.457   0.433  0.0677  1.0370  0.4849
  952THF     C213805   1.905   0.567   0.485 -0.2080  0.7402  0.5564
  952THF     C313806   2.108   0.471   0.445  0.1596  0.1091  0.3189
  952THF     H413807   1.837   0.543   0.567 -0.7447  1.3735  0.3049
  952THF     H513808   1.846   0.623   0.412 -0.2178  0.2793  0.2079
  952THF     H613809   2.170   0.382   0.452 -2.2219 -2.1519 -3.6780
  952THF     H713810   2.147   0.515   0.353  0.7701 -2.5948 -0.8000
  952THF     C813811   2.132   0.560   0.560  0.2718 -0.0235 -0.2953
  952THF     C913812   2.016   0.655   0.539 -0.4659 -0.3954 -0.3146
  952THF    H1013813   2.232   0.603   0.562  0.4030 -0.3269  1.2698
  952THF    H1113814   2.124   0.511   0.657 -3.2675  1.2338  0.1613
  952THF    H1213815   1.986   0.704   0.632  0.5219  0.8793 -0.6378
  952THF    H1313816   2.048   0.725   0.462 -0.6288  0.3472  0.2780
  953THF     O113817   4.539   2.418   0.228  0.9826 -0.7568  0.0916
  953THF     C213818   4.526   2.282   0.246  0.2027 -0.5271 -0.2872
  953THF     C313819   4.404   2.466   0.190 -0.2466  0.3361  0.0917
  953THF     H413820   4.608   2.244   0.307 -0.0515 -0.6903 -0.0418
  953THF     H513821   4.514   2.226   0.154 -1.8724 -0.7094  0.0408
  953THF     H613822   4.389   2.573   0.204 -2.1749  0.0884  0.2787
  953THF     H713823   4.390   2.430   0.088 -1.6397 -0.9473  0.7095
  953THF     C813824   4.318   2.385   0.286  1.3499  0.3006  0.9413
  953THF     C913825   4.402   2.274   0.337 -0.5820  0.5995 -0.2801
  953THF    H1013826   4.235   2.346   0.227  1.4531 -0.8514  1.5324
  953THF    H1113827   4.300   2.443   0.377  1.8983  2.4833 -0.2600
  953THF    H1213828   4.444   2.288   0.436 -0.7037  2.2372 -0.4278
  953THF    H1313829   4.358   2.175   0.325  0.4329 -0.0513  1.0329
  954THF     O113830   2.765   3.545   5.194  0.5997 -0.2801 -0.2633
  954THF     C213831   2.817   3.414   5.178  0.2004  0.0026  0.3986
  954THF     C313832   2.860   3.646   5.164  1.1085  0.1805 -0.2821
  954THF     H413833   2.747   3.335   5.150 -1.2310  0.8583  1.4296
  954THF     H513834   2.875   3.395   5.268 -2.5912 -0.6151  2.1784
  954THF     H613835   2.823   3.747   5.149  1.3737  0.2266 -0.6392
  954THF     H713836   2.935   3.645   5.243  1.2681 -3.7345 -0.2674
  954THF     C813837   2.929   3.580   5.047 -0.1173 -0.1469 -0.3504
  954THF     C913838   2.919   3.433   5.067 -0.0818  0.4017  0.6428
  954THF    H1013839   3.029   3.619   5.029  0.3561 -0.9215  0.4933
  954THF    H1113840   2.880   3.598   4.951 -1.2219 -3.2980 -0.4993
  954THF    H1213841   2.869   3.396   4.978  0.2906 -0.6795  0.8690
  954THF    H1313842   3.013   3.382   5.088 -0.0166  0.3524  0.2254
  955THF     O113843   1.678   4.469   0.127  0.6183  0.1450 -0.1538
  955THF     C213844   1.627   4.405   0.013  0.6586  0.3738  0.1240
  955THF     C313845   1.639   4.398   0.250  0.0885 -0.7310  0.1650
  955THF     H413846   1.707   4.377  -0.056  0.7851 -1.2616  0.8783
  955THF     H513847   1.552   4.471  -0.031  1.4334  0.2010 -1.5483
  955THF     H613848   1.721   4.336   0.287  0.2527 -0.3519  0.4371
  955THF     H713849   1.609   4.469   0.326 -0.5735 -0.8976  0.0690
  955THF     C813850   1.525   4.307   0.200 -0.3945 -0.0538  0.1255
  955THF     C913851   1.569   4.269   0.062 -0.2003 -0.0590 -0.2531
  955THF    H1013852   1.429   4.358   0.191 -0.3993 -0.4931 -3.5309
  955THF    H1113853   1.519   4.212   0.255 -2.2778 -0.6935 -1.0843
  955THF    H1213854   1.652   4.198   0.055 -1.1176 -1.1264 -0.6932
  955THF    H1313855   1.486   4.235  -0.000  0.7415  0.2177 -1.7155
  956THF     O113856   1.918   4.922   2.908  0.2506 -0.2832 -0.1662
  956THF     C213857   1.827   5.016   2.966 -0.0155  0.8597 -0.2653
  956THF     C313858   1.866   4.793   2.940  0.1719  0.2435  0.0637
  956THF     H413859   1.732   5.029   2.914 -0.1178 -0.3791 -0.3986
  956THF     H513860   1.890   5.103   2.985  0.1220  0.8855 -0.8019
  956THF     H613861   1.807   4.754   2.857 -1.4349  3.2072 -0.3326
  956THF     H713862   1.950   4.727   2.963 -0.1123 -0.1518 -0.0213
  956THF     C813863   1.776   4.801   3.067  0.3057 -0.3110 -0.7640
  956THF     C913864   1.783   4.949   3.098 -0.2527 -0.1363 -0.9340
  956THF    H1013865   1.818   4.739   3.147  0.3639  3.0956  2.0810
  956THF    H1113866   1.673   4.767   3.056 -0.4178  0.5192  2.3092
  956THF    H1213867   1.684   4.984   3.127  0.4434 -0.5530  2.4530
  956THF    H1313868   1.855   4.967   3.178  0.5649  1.0499 -1.9037
  957THF     O113869   3.831   4.183   2.755  0.0171  0.0460  0.2306
  957THF     C213870   3.707   4.263   2.759  0.2135  0.0873  0.3102
  957THF     C313871   3.944   4.274   2.732  0.0592  0.8232  0.2790
  957THF     H413872   3.706   4.308   2.858 -0.5201 -0.2460  0.4563
  957THF     H513873   3.630   4.191   2.733 -0.3153  0.2896  1.2734
  957THF     H613874   3.978   4.313   2.828  0.7209  0.5052  0.1820
  957THF     H713875   4.022   4.219   2.679 -1.1288 -0.8362  0.1825
  957THF     C813876   3.883   4.389   2.656 -0.1725  0.5146  0.5186
  957THF     C913877   3.732   4.366   2.649  0.3081 -0.2870  0.1552
  957THF    H1013878   3.923   4.403   2.556 -1.4814  1.1255  0.0599
  957THF    H1113879   3.890   4.476   2.721  0.8914 -1.5669  3.4357
  957THF    H1213880   3.675   4.457   2.662 -2.3070 -1.7503 -0.3326
  957THF    H1313881   3.711   4.313   2.556 -2.0444 -0.5856  0.7882
  958THF     O113882   4.671   2.589   1.179  0.0580 -0.0196  0.0303
  958THF     C213883   4.611   2.653   1.289 -0.4079 -0.2040  0.1728
  958THF     C313884   4.712   2.690   1.088  0.4622  0.3941 -0.2292
  958THF     H413885   4.672   2.628   1.376  0.4806 -0.5200 -0.5199
  958THF     H513886   4.518   2.597   1.295 -0.8489  0.6013  1.2210
  958THF     H613887   4.818   2.714   1.099 -0.1525  3.6610 -0.5215
  958THF     H713888   4.702   2.660   0.983  0.2020  0.4490 -0.2208
  958THF     C813889   4.630   2.819   1.115  0.5311  0.3897  0.5884
  958THF     C913890   4.587   2.798   1.255  0.0907  0.2385  0.5719
  958THF    H1013891   4.547   2.811   1.045 -0.5547 -1.7358  2.0124
  958THF    H1113892   4.699   2.903   1.105  2.5285 -0.8046  3.1907
  958THF    H1213893   4.649   2.859   1.320 -1.7019  1.1199  1.5369
  958THF    H1313894   4.485   2.833   1.272 -0.2535 -0.3616 -0.1904
  959THF     O113895   0.220   5.213   0.480  0.0500  0.5241  0.5291
  959THF     C213896   0.141   5.162   0.585 -0.2151 -0.1539 -0.1965
  959THF     C313897   0.288   5.328   0.527 -0.4117 -0.1505  0.0642
  959THF     H413898   0.179   5.060   0.590  0.3047  0.0724  0.8564
  959THF     H513899   0.034   5.172   0.565 -0.6974 -1.4001  1.5157
  959THF     H613900   0.375   5.338   0.463 -0.0161  1.8429  0.8498
  959THF     H713901   0.234   5.422   0.511  0.9381  0.6783  0.2029
  959THF     C813902   0.305   5.300   0.675 -0.4661  0.0531 -0.5643
  959THF     C913903   0.172   5.242   0.708 -0.7083 -0.0357  0.3655
  959THF    H1013904   0.325   5.391   0.732 -2.2362  1.6560 -2.3197
  959THF    H1113905   0.395   5.240   0.691  0.3135  1.4954  0.6477
  959THF    H1213906   0.191   5.186   0.799 -0.9303 -1.8103 -0.6237
  959THF    H1313907   0.097   5.321   0.715 -2.4624 -1.3286 -2.2122
  960THF     O113908   5.321   3.341   1.641  0.3468  0.1710 -0.2232
  960THF     C213909   5.335   3.322   1.503 -0.1002 -0.6521 -0.3823
  960THF     C313910   5.450   3.368   1.693 -0.2137  0.4266  0.4549
  960THF     H413911   5.361   3.409   1.441  0.1375 -0.4258  0.0264
  960THF     H513912   5.247   3.277   1.458  0.4378  2.0632 -4.8100
  960THF     H613913   5.481   3.468   1.663  1.7315 -0.7268 -1.7405
  960THF     H713914   5.456   3.350   1.800 -0.9732 -0.7728  0.3183
  960THF     C813915   5.539   3.275   1.605  0.0058 -0.2213 -0.1676
  960THF     C913916   5.452   3.228   1.492 -0.0470 -0.2457  0.1307
  960THF    H1013917   5.570   3.188   1.663 -1.6612 -0.7770 -0.0559
  960THF    H1113918   5.625   3.331   1.568 -0.0031 -1.0648 -1.5127
  960THF    H1213919   5.514   3.226   1.402  0.8853  1.9221  0.6407
  960THF    H1313920   5.421   3.124   1.505  0.2609 -0.1166  2.3763
  961THF     O113921   0.028   2.018   0.928  0.4412  0.3387  0.7303
  961THF     C213922   0.011   1.978   0.792 -0.4500 -0.2327  0.2043
  961THF     C313923   0.133   2.116   0.935 -0.9236 -0.2723  0.8058
  961THF     H413924  -0.076   2.031   0.754  1.4269  0.8940 -2.8030
  961THF     H513925  -0.013   1.873   0.771 -2.5450  0.1636  0.3822
  961THF     H613926   0.100   2.204   0.991  0.5711  1.1758 -0.4976
  961THF     H713927   0.217   2.076   0.990 -1.3697 -0.1123  1.6244
  961THF     C813928   0.167   2.155   0.797  0.2906 -0.5169 -0.0050
  961THF     C913929   0.128   2.032   0.716 -0.7998  0.4155 -0.9044
  961THF    H1013930   0.270   2.184   0.778 -0.2639  2.1911  0.6693
  961THF    H1113931   0.115   2.247   0.770 -2.2313 -2.4802 -2.5563
  961THF    H1213932   0.125   2.049   0.609  2.6386  1.4140 -0.9725
  961THF    H1313933   0.217   1.969   0.727 -0.8521  0.7865  4.2548
  962THF     O113934   0.478   0.783   2.382 -0.4643 -0.2628 -0.1843
  962THF     C213935   0.427   0.841   2.507  0.9213  0.2390  0.7442
  962THF     C313936   0.530   0.894   2.307 -0.3915  0.2971  0.9172
  962THF     H413937   0.508   0.842   2.580  2.0115 -0.1378 -0.4267
  962THF     H513938   0.352   0.768   2.539  1.5596 -0.1382  1.4025
  962THF     H613939   0.637   0.892   2.328 -0.2518 -0.9387  0.1690
  962THF     H713940   0.515   0.870   2.202  0.2216 -0.2524  0.9467
  962THF     C813941   0.468   1.019   2.357  0.3118  0.4360  0.1807
  962THF     C913942   0.372   0.979   2.469 -0.3288  0.7494  1.2411
  962THF    H1013943   0.418   1.067   2.273  1.1632  1.5304  0.2806
  962THF    H1113944   0.535   1.094   2.400 -1.8001  2.9669 -0.6633
  962THF    H1213945   0.366   1.055   2.547 -0.9346  3.0527 -0.9037
  962THF    H1313946   0.271   0.962   2.431  0.5090 -2.2137  0.0580
  963THF     O113947   3.902   3.363   3.437  0.8080 -0.8739  0.4507
  963THF     C213948   3.811   3.420   3.342 -0.7655  0.4699  0.5394
  963THF     C313949   3.964   3.477   3.494  0.5817 -0.3633 -0.5651
  963THF     H413950   3.725   3.469   3.389 -0.1838  0.7026  1.3909
  963THF     H513951   3.773   3.332   3.290  0.6668 -0.5291  1.1196
  963THF     H613952   3.886   3.513   3.561 -0.2183  1.1286 -2.2102
  963THF     H713953   4.054   3.444   3.547 -0.4281 -0.8211  0.9237
  963THF     C813954   3.999   3.568   3.374  0.7351 -0.5470 -0.0239
  963THF     C913955   3.898   3.521   3.265  0.1356  0.0407  0.3769
  963THF    H1013956   4.087   3.543   3.315  0.9942  0.5184 -0.1146
  963THF    H1113957   3.988   3.674   3.398 -0.8768 -0.6558 -0.1547
  963THF    H1213958   3.835   3.603   3.231 -0.8974 -0.9628 -0.1975
  963THF    H1313959   3.945   3.472   3.180  0.2149 -0.0273  0.4602
  964THF     O113960   3.475   4.568   0.899  0.3880 -0.8555  0.1218
  964THF     C213961   3.462   4.706   0.863 -0.6388 -0.2843  0.1087
  964THF     C313962   3.465   4.557   1.038 -0.1439 -0.1512  0.6966
  964THF     H413963   3.433   4.727   0.760 -2.4381  1.1989  0.8524
  964THF     H513964   3.565   4.741   0.875 -0.0794 -2.1332  1.0529
  964THF     H613965   3.437   4.458   1.073  1.4390 -1.1524 -0.7526
  964THF     H713966   3.558   4.592   1.081 -1.3008  1.9299  1.6707
  964THF     C813967   3.359   4.666   1.075  0.3396 -0.0775 -0.0601
  964THF     C913968   3.358   4.759   0.955  0.1640  0.0093  0.3055
  964THF    H1013969   3.391   4.719   1.164  0.2896  0.2378 -0.2268
  964THF    H1113970   3.257   4.631   1.094  0.4151 -0.5259 -0.4705
  964THF    H1213971   3.263   4.773   0.902 -1.0801  1.5670  2.7572
  964THF    H1313972   3.380   4.860   0.988  3.1934 -0.0534 -1.2397
  965THF     O113973   4.175   3.586   0.886 -0.8843  0.6573 -0.6398
  965THF     C213974   4.164   3.504   0.767 -0.2354 -1.2784 -0.0619
  965THF     C313975   4.219   3.713   0.854  0.5857  0.6810  0.8439
  965THF     H413976   4.078   3.437   0.774 -0.5272 -0.8504  0.5057
  965THF     H513977   4.247   3.434   0.770 -0.1980 -1.3661 -1.7637
  965THF     H613978   4.136   3.781   0.871  0.1782  0.3924  0.0853
  965THF     H713979   4.305   3.742   0.914  1.3269  0.7668 -0.2341
  965THF     C813980   4.256   3.713   0.706 -0.0844  0.6103 -0.1116
  965THF     C913981   4.180   3.593   0.643 -0.4248 -0.0308  0.2046
  965THF    H1013982   4.363   3.689   0.709 -0.1693  0.2589  0.0656
  965THF    H1113983   4.240   3.806   0.652 -2.6191  0.0769 -0.3776
  965THF    H1213984   4.083   3.630   0.610 -0.3402  0.2053  0.2124
  965THF    H1313985   4.229   3.549   0.556 -0.7848  0.8339 -0.4472
  966THF     O113986   2.023   1.311   4.303 -0.0198  0.1229 -0.0441
  966THF     C213987   2.161   1.285   4.292 -0.6435  0.0354 -0.0262
  966THF     C313988   1.947   1.226   4.219 -0.1950  0.2196  0.4951
  966THF     H413989   2.173   1.199   4.358 -1.2164 -0.7813 -0.9661
  966THF     H513990   2.225   1.369   4.319  0.0152 -0.9430  1.6168
  966THF     H613991   1.919   1.141   4.281  0.7559 -1.1238 -0.8474
  966THF     H713992   1.863   1.278   4.173 -1.4333 -0.5715  1.7498
  966THF     C813993   2.036   1.190   4.102  0.1583  0.1633  0.0532
  966THF     C913994   2.174   1.251   4.139 -0.6314  0.3675 -0.4692
  966THF    H1013995   1.996   1.234   4.011 -1.5602  0.3491  0.8540
  966THF    H1113996   2.045   1.086   4.071 -2.1056 -0.6965  1.9869
  966THF    H1213997   2.263   1.190   4.128  0.9643  2.6299 -0.7830
  966THF    H1313998   2.194   1.341   4.082 -0.6961 -0.2309 -1.4510
  967THF     O113999   5.393   3.911   5.341  0.2868 -0.4877  0.2979
  967THF     C214000   5.401   3.785   5.278 -0.7501 -0.2171 -0.0468
  967THF     C314001   5.336   3.885   5.470 -0.0105  0.4251  0.1984
  967THF     H414002   5.488   3.733   5.319 -0.3879 -0.5347 -1.1808
  967THF     H514003   5.413   3.796   5.170  1.9407 -2.5691 -0.1037
  967THF     H614004   5.417   3.846   5.531  0.7484  0.4418 -0.7846
  967THF     H714005   5.307   3.974   5.527  0.9617  0.5028  0.5845
  967THF     C814006   5.227   3.780   5.442  0.4814 -0.0100 -0.1724
  967THF     C914007   5.274   3.710   5.314  0.4976 -0.0596  0.5622
  967THF    H1014008   5.128   3.824   5.435  0.5891  0.2702  0.0340
  967THF    H1114009   5.212   3.705   5.520 -0.3061 -0.9622 -1.2208
  967THF    H1214010   5.270   3.602   5.328 -1.1098  0.2036  2.6462
  967THF    H1314011   5.211   3.742   5.231 -1.0153  0.2692  1.7773
  968THF     O114012   1.806   1.932   3.991 -0.0716  0.6257  0.4665
  968THF     C214013   1.714   1.924   4.100  0.0045 -0.3787 -0.4352
  968THF     C314014   1.770   2.035   3.900  0.1775  0.2379 -0.0340
  968THF     H414015   1.757   1.964   4.191 -0.8066 -0.9077  0.1961
  968THF     H514016   1.693   1.817   4.106  0.8530 -0.5463 -0.2746
  968THF     H614017   1.801   2.131   3.944  3.0884 -0.0248 -1.2309
  968THF     H714018   1.815   2.033   3.801 -1.0510 -0.7279 -0.5862
  968THF     C814019   1.619   2.016   3.899 -0.7492 -0.1523  0.3145
  968THF     C914020   1.591   1.990   4.047  0.5408 -0.3744 -0.6736
  968THF    H1014021   1.584   1.928   3.847  0.0719 -0.9986  1.1599
  968THF    H1114022   1.573   2.102   3.851  3.2604  1.8449 -0.4196
  968THF    H1214023   1.573   2.086   4.097 -0.1728 -1.4057  1.1668
  968THF    H1314024   1.496   1.939   4.062  0.3599  0.3424  0.8874
  969THF     O114025   2.941   2.602   2.802  0.6131 -0.3034 -0.6252
  969THF     C214026   2.920   2.735   2.841 -0.7277  0.0574 -0.8038
  969THF     C314027   2.981   2.529   2.918 -0.1372 -0.4911 -0.5208
  969THF     H414028   2.813   2.754   2.851 -0.4624  1.9275 -1.3042
  969THF     H514029   2.944   2.811   2.767 -0.8552  0.8180 -0.0843
  969THF     H614030   2.896   2.476   2.958 -1.5914  0.6584 -1.9505
  969THF     H714031   3.067   2.466   2.894 -0.6854 -1.8201  0.8306
  969THF     C814032   3.039   2.626   3.018  0.3635  0.8479  0.3802
  969THF     C914033   2.991   2.764   2.983  0.0296 -0.2531 -0.0223
  969THF    H1014034   3.146   2.604   3.019 -0.3847 -4.4417 -0.9679
  969THF    H1114035   3.000   2.597   3.115  0.8067  1.1740  0.6591
  969THF    H1214036   2.916   2.791   3.057  0.6578  2.8612 -0.3773
  969THF    H1314037   3.059   2.849   2.988 -0.3842  0.0464  0.6718
  970THF     O114038   1.836   0.582   1.130  0.4802  0.1958  0.0902
  970THF     C214039   1.923   0.495   1.060  0.5149 -0.2232 -0.7629
  970THF     C314040   1.862   0.708   1.071 -0.0883  0.1539 -0.3064
  970THF     H414041   1.909   0.389   1.080  1.8860 -0.4759 -1.0795
  970THF     H514042   2.026   0.524   1.081  0.5546  0.2281 -1.5452
  970THF     H614043   1.785   0.779   1.101 -1.8350 -0.4154 -3.0587
  970THF     H714044   1.958   0.744   1.107 -0.6077  1.2950 -0.0213
  970THF     C814045   1.859   0.683   0.921  0.1822 -0.3143 -0.3729
  970THF     C914046   1.894   0.533   0.918 -0.3464  0.2873  0.2141
  970THF    H1014047   1.924   0.757   0.874  0.8493 -0.4805  0.2650
  970THF    H1114048   1.758   0.702   0.885  0.2745 -0.4483 -0.7027
  970THF    H1214049   1.802   0.492   0.877  0.4188 -0.7193 -0.5651
  970THF    H1314050   1.978   0.506   0.854 -0.3874  0.5813  0.0306
  971THF     O114051   2.631   0.136   5.492  0.2619 -0.1360  0.7266
  971THF     C214052   2.677   0.173   5.624 -0.2931  0.1777 -0.0942
  971THF     C314053   2.661   0.238   5.402  0.4900 -0.1016  0.1743
  971THF     H414054   2.771   0.125   5.651 -0.2481  1.0994  1.5222
  971THF     H514055   2.601   0.143   5.696  0.8244  1.0316  1.5115
  971THF     H614056   2.761   0.238   5.360 -0.0281 -1.1396 -1.1328
  971THF     H714057   2.590   0.228   5.319 -0.1911 -1.5861  0.8898
  971THF     C814058   2.626   0.365   5.472 -0.2556 -0.1975 -0.0474
  971THF     C914059   2.679   0.329   5.612  0.0375  0.2023  0.2410
  971THF    H1014060   2.518   0.381   5.476 -0.2930 -0.4157 -0.1902
  971THF    H1114061   2.679   0.455   5.440 -0.5230  0.0938  0.3311
  971THF    H1214062   2.777   0.373   5.632  0.0120  0.1205  0.5462
  971THF    H1314063   2.614   0.369   5.689 -0.5399 -1.5251  0.6901
  972THF     O114064   4.659   0.046   1.913  0.1979  0.3890  0.3708
  972THF     C214065   4.654   0.001   1.774 -0.2503  0.0037 -0.2309
  972THF     C314066   4.533   0.025   1.966 -0.4754 -0.2470 -0.1901
  972THF     H414067   4.651  -0.107   1.788 -1.1630 -0.0387 -0.6729
  972THF     H514068   4.740   0.018   1.709  1.0090  0.5652  1.5173
  972THF     H614069   4.526  -0.080   1.991 -0.4205 -0.3349 -0.5369
  972THF     H714070   4.510   0.091   2.050 -1.1124 -0.4805 -0.1734
  972THF     C814071   4.438   0.056   1.856  0.0860 -0.1322  0.4418
  972THF     C914072   4.516   0.046   1.728 -0.5202 -0.8262  0.9352
  972THF    H1014073   4.389   0.152   1.870  0.8591  0.4264 -0.5923
  972THF    H1114074   4.352  -0.011   1.858  0.4362 -0.7002 -1.4343
  972THF    H1214075   4.484  -0.027   1.654 -0.4760 -0.7592  0.8491
  972THF    H1314076   4.534   0.143   1.680 -1.2630 -1.6559 -1.1060
  973THF     O114077   2.805   3.444   0.145  0.0833 -0.6942  0.9285
  973THF     C214078   2.725   3.550   0.076  0.1817  0.6840  0.3105
  973THF     C314079   2.925   3.504   0.191 -0.0606 -0.3660  0.2450
  973THF     H414080   2.661   3.601   0.148 -1.6309 -0.8682 -0.1290
  973THF     H514081   2.654   3.504   0.007  0.8211 -1.0418  0.7551
  973THF     H614082   2.918   3.520   0.299 -1.4446  1.3514 -0.0410
  973THF     H714083   3.004   3.437   0.158  0.9800  1.2658 -0.7644
  973THF     C814084   2.935   3.640   0.134 -0.0865  0.1134 -0.9354
  973THF     C914085   2.828   3.647   0.022 -0.5672 -0.7641  0.1404
  973THF    H1014086   3.038   3.657   0.104  1.2859 -2.0303  2.0135
  973THF    H1114087   2.919   3.715   0.212  0.7802 -1.0044  0.3582
  973THF    H1214088   2.785   3.743  -0.006  0.3888 -0.0131  1.1713
  973THF    H1314089   2.876   3.615  -0.071 -2.1838  0.6517 -1.2521
  974THF     O114090   1.245   0.075   0.690 -0.3561  0.3238 -0.7532
  974THF     C214091   1.339   0.028   0.602  0.2199  0.3419  0.6352
  974THF     C314092   1.110   0.080   0.631 -1.1815 -0.0407  0.4687
  974THF     H414093   1.356  -0.078   0.619 -1.3561  0.0676  0.6796
  974THF     H514094   1.438   0.074   0.600  0.5096 -0.2768 -0.7799
  974THF     H614095   1.040   0.024   0.693  0.3703 -1.9958  0.5568
  974THF     H714096   1.060   0.177   0.633  0.3165  0.7593  0.3726
  974THF     C814097   1.134   0.026   0.489  0.2477 -0.1854  0.1777
  974THF     C914098   1.281   0.045   0.463 -0.4603 -0.1797 -0.7105
  974THF    H1014099   1.074   0.084   0.419 -0.9904  0.2158  1.5055
  974THF    H1114100   1.107  -0.079   0.474  1.1491 -0.2388 -1.2278
  974THF    H1214101   1.324  -0.024   0.390 -2.4567 -3.5971  1.0710
  974THF    H1314102   1.298   0.151   0.446 -1.7092  0.0517 -0.6328
  975THF     O114103   2.454   0.669   0.404  0.5304 -0.9260  0.2220
  975THF     C214104   2.370   0.776   0.350 -0.2723  0.2916 -0.5540
  975THF     C314105   2.561   0.665   0.304 -0.2424  0.2643  0.0900
  975THF     H414106   2.404   0.876   0.375  2.8174 -0.4008 -1.5222
  975THF     H514107   2.270   0.769   0.392  0.5769 -2.0150  1.3489
  975THF     H614108   2.643   0.736   0.315  0.8459 -0.9147 -0.2216
  975THF     H714109   2.596   0.567   0.333  1.7861  1.1651  0.8646
  975THF     C814110   2.488   0.667   0.170 -0.3915  0.3007 -0.4036
  975THF     C914111   2.376   0.769   0.197  0.4920 -0.3143  0.5595
  975THF    H1014112   2.455   0.567   0.140  0.7558 -0.1241 -0.3068
  975THF    H1114113   2.563   0.701   0.099  2.1470 -1.0338  1.4414
  975THF    H1214114   2.379   0.868   0.152 -0.0013 -2.6951 -5.7682
  975THF    H1314115   2.284   0.720   0.164  1.2660 -2.6840  1.6701
  976THF     O114116   0.247   3.999   2.394 -0.9189  0.2402 -0.6205
  976THF     C214117   0.316   3.984   2.518 -0.0081 -0.8122  0.6340
  976THF     C314118   0.193   4.133   2.381 -0.2049  0.2718  0.2075
  976THF     H414119   0.391   3.907   2.501  1.8644  1.1645 -0.5954
  976THF     H514120   0.246   3.939   2.589  0.7096 -0.5635  1.5256
  976THF     H614121   0.162   4.165   2.282 -2.2529  1.7610  1.2518
  976THF     H714122   0.105   4.144   2.444 -1.2411 -0.5409 -1.0513
  976THF     C814123   0.322   4.197   2.425  0.1613 -0.5527  0.2388
  976THF     C914124   0.360   4.124   2.550  1.1393 -0.2335  0.3745
  976THF    H1014125   0.324   4.305   2.441  1.1495 -0.4981 -0.1187
  976THF    H1114126   0.395   4.172   2.347 -0.8439  1.0960 -1.3209
  976THF    H1214127   0.465   4.125   2.578  1.3327  0.1056 -0.3272
  976THF    H1314128   0.307   4.184   2.625  1.6162  0.2897  0.3009
  977THF     O114129   4.641   3.893   2.510 -0.9379 -0.1736  0.7879
  977THF     C214130   4.602   3.972   2.627 -0.5410 -0.4903 -0.6503
  977THF     C314131   4.701   3.775   2.547  0.2447  0.7003  0.1414
  977THF     H414132   4.524   4.042   2.596  1.5438  1.1192 -2.5849
  977THF     H514133   4.689   4.028   2.660 -1.3501 -0.1385  0.9892
  977THF     H614134   4.710   3.700   2.468  0.3989 -1.4789  2.1208
  977THF     H714135   4.803   3.803   2.576  0.4463  0.5326 -0.3927
  977THF     C814136   4.617   3.726   2.660 -0.3214 -0.4108  0.0421
  977THF     C914137   4.563   3.853   2.717  0.1345 -0.4626  0.4805
  977THF    H1014138   4.678   3.672   2.732  0.3852  1.6965  1.1149
  977THF    H1114139   4.537   3.661   2.626 -3.5661  2.5827  1.2550
  977THF    H1214140   4.455   3.839   2.709  0.2546 -0.4108 -2.4332
  977THF    H1314141   4.589   3.865   2.822  1.6503 -1.0323  0.1943
  978THF     O114142   1.808   3.764   0.780 -0.1355 -0.3706  0.2455
  978THF     C214143   1.891   3.853   0.701 -0.2870  0.4159  0.5117
  978THF     C314144   1.892   3.731   0.890 -0.7115 -0.0594  0.1304
  978THF     H414145   1.912   3.950   0.745  3.0713  0.9818 -1.9490
  978THF     H514146   1.846   3.865   0.603  1.3108  0.0102 -0.2935
  978THF     H614147   1.923   3.815   0.953  0.8437 -0.9571  0.6105
  978THF     H714148   1.863   3.652   0.959 -0.4184  1.1942  1.7639
  978THF     C814149   2.014   3.680   0.815 -0.2350 -0.2596 -0.1238
  978THF     C914150   2.025   3.774   0.700 -0.1477  0.2927 -0.0045
  978THF    H1014151   1.973   3.589   0.770  0.0383 -1.5520  2.0777
  978THF    H1114152   2.103   3.660   0.875  0.6104  1.1123 -0.8797
  978THF    H1214153   2.106   3.842   0.723  0.7717 -0.2293 -1.5342
  978THF    H1314154   2.035   3.720   0.606  1.5994  0.5020  0.0273
  979THF     O114155   1.170   2.891   1.652  0.0946  0.5811  0.0596
  979THF     C214156   1.085   2.820   1.558  0.2447 -0.0793 -0.3887
  979THF     C314157   1.272   2.954   1.578  0.4313  0.9010 -0.1148
  979THF     H414158   0.992   2.878   1.561  1.8244  2.6221  0.2430
  979THF     H514159   1.076   2.718   1.595 -0.3908  0.8926  2.4029
  979THF     H614160   1.294   3.050   1.625 -0.2598  1.0417 -0.0734
  979THF     H714161   1.361   2.890   1.574 -0.1045 -0.0330  1.8825
  979THF     C814162   1.225   2.960   1.432  0.0822  0.1854  0.2552
  979THF     C914163   1.150   2.834   1.424 -0.7849 -0.1642 -0.1698
  979THF    H1014164   1.310   2.969   1.365 -0.9423  1.5466 -0.9265
  979THF    H1114165   1.164   3.047   1.407  0.1987 -0.0518 -0.8922
  979THF    H1214166   1.073   2.839   1.347 -0.2770  1.4249 -0.6142
  979THF    H1314167   1.222   2.757   1.397  0.5602  1.1489 -0.4310
  980THF     O114168   0.137   4.230   1.864  1.1400  0.1952  0.5463
  980THF     C214169   0.220   4.320   1.940  0.6237  0.3112 -0.3594
  980THF     C314170   0.229   4.131   1.822 -0.1727 -0.0165  0.6597
  980THF     H414171   0.192   4.300   2.044  2.2550  0.0044  0.0408
  980THF     H514172   0.199   4.423   1.911 -0.8420  0.7479  1.9174
  980THF     H614173   0.229   4.062   1.906 -0.2320  0.5899  1.1699
  980THF     H714174   0.192   4.074   1.738  0.4810  0.8501 -0.2420
  980THF     C814175   0.360   4.193   1.795 -0.0099 -0.5166 -0.3371
  980THF     C914176   0.370   4.294   1.912 -0.2687  0.1972 -0.0936
  980THF    H1014177   0.358   4.247   1.700 -1.0283  0.7420  0.3696
  980THF    H1114178   0.445   4.126   1.801  0.4883  0.0248 -1.0778
  980THF    H1214179   0.401   4.246   2.005  0.2572  0.9272  0.1253
  980THF    H1314180   0.429   4.385   1.896  2.0204 -0.6167  2.8271
  981THF     O114181   2.020   4.755   5.355  0.1633  0.6330 -0.0154
  981THF     C214182   2.148   4.703   5.363  1.2649 -0.4169 -0.2640
  981THF     C314183   1.963   4.737   5.488 -0.0793  0.1309  0.2053
  981THF     H414184   2.204   4.731   5.273 -1.2972 -0.8556 -2.1084
  981THF     H514185   2.138   4.596   5.379 -0.0226 -0.0750  1.5254
  981THF     H614186   1.878   4.804   5.482 -0.1989 -0.0457 -0.0919
  981THF     H714187   1.936   4.636   5.519 -2.1765  0.4890 -0.3240
  981THF     C814188   2.076   4.796   5.577  0.2722  0.4380  0.3137
  981THF     C914189   2.198   4.773   5.484 -0.1275 -0.2093 -0.6373
  981THF    H1014190   2.088   4.735   5.667 -1.4313  0.3711  0.5293
  981THF    H1114191   2.059   4.902   5.599 -4.4739 -0.0243 -0.0883
  981THF    H1214192   2.242   4.869   5.457 -0.9424  0.2135 -0.4939
  981THF    H1314193   2.274   4.713   5.535  0.3932 -1.1961 -2.4826
  982THF     O114194   0.264   1.364   0.786  0.4935  0.6073 -0.4568
  982THF     C214195   0.130   1.316   0.741  0.4501  0.0032 -0.5450
  982THF     C314196   0.308   1.465   0.695 -0.0795  0.1181 -0.2446
  982THF     H414197   0.057   1.351   0.814 -0.6013 -1.2613 -0.9648
  982THF     H514198   0.140   1.208   0.741  4.1209  0.1985  0.2094
  982THF     H614199   0.352   1.553   0.742  1.1054  0.2446 -1.5190
  982THF     H714200   0.391   1.417   0.642 -0.5544 -1.2281  0.1952
  982THF     C814201   0.188   1.496   0.610  0.8041  0.3624  0.3285
  982THF     C914202   0.107   1.365   0.602  0.6611 -0.0161 -0.1257
  982THF    H1014203   0.217   1.533   0.511  0.2352 -2.2016 -0.8976
  982THF    H1114204   0.141   1.579   0.663  0.2616 -0.5350  1.2851
  982THF    H1214205   0.006   1.382   0.565  0.0404  1.8677  2.1278
  982THF    H1314206   0.162   1.303   0.532 -0.5024 -0.0229 -1.0654
  983THF     O114207   4.410   4.336   1.769 -0.1879  0.2425 -0.1325
  983THF     C214208   4.337   4.219   1.740  0.2488  0.0677 -0.1422
  983THF     C314209   4.425   4.409   1.649 -0.3529  0.3651 -0.1656
  983THF     H414210   4.250   4.196   1.801  1.3184  1.2670  1.9428
  983THF     H514211   4.398   4.129   1.739  1.2058  0.6556 -2.6796
  983THF     H614212   4.437   4.516   1.666  0.4381  0.0937  1.1441
  983THF     H714213   4.517   4.376   1.603 -0.1229  1.6871 -0.7097
  983THF     C814214   4.302   4.374   1.575  0.1053 -0.0127  0.5169
  983THF     C914215   4.291   4.223   1.600 -0.0226  0.0911  0.0871
  983THF    H1014216   4.295   4.401   1.470 -0.7427 -0.0076  0.5709
  983THF    H1114217   4.219   4.434   1.611  0.5722  1.1833 -0.3628
  983THF    H1214218   4.184   4.204   1.592  0.0211 -0.1852  0.1447
  983THF    H1314219   4.342   4.156   1.531  1.2227  0.7832  0.3138
  984THF     O114220   3.106   4.457   3.789  0.0884  0.0292  0.6666
  984THF     C214221   3.124   4.350   3.695  0.0822 -0.2983 -0.0465
  984THF     C314222   3.152   4.577   3.723  0.0843  0.6327  0.0529
  984THF     H414223   3.046   4.275   3.708 -1.1008  0.7258 -1.0513
  984THF     H514224   3.219   4.297   3.706  1.4692  2.2699  1.3117
  984THF     H614225   3.127   4.670   3.776  1.2882  0.1862  1.4780
  984THF     H714226   3.258   4.576   3.701 -0.4097 -0.2636 -2.6577
  984THF     C814227   3.090   4.564   3.587 -0.3447 -0.5722 -0.6676
  984THF     C914228   3.104   4.413   3.560  0.0687  0.0493 -0.6656
  984THF    H1014229   3.130   4.627   3.508 -3.1295  1.0549 -0.8999
  984THF    H1114230   2.986   4.593   3.600 -0.3369 -1.3183  1.5912
  984THF    H1214231   3.012   4.385   3.509 -1.0764  0.3263  1.1762
  984THF    H1314232   3.189   4.382   3.498  0.5590 -1.0882  0.5248
  985THF     O114233   4.798   0.975   1.518 -0.6533  0.5569  0.2873
  985THF     C214234   4.743   0.927   1.397 -0.8897 -0.1132 -0.7871
  985THF     C314235   4.880   0.875   1.579 -0.2343  0.3183  0.7276
  985THF     H414236   4.738   1.017   1.335 -1.9580  1.0815  0.9433
  985THF     H514237   4.641   0.892   1.407 -0.0728 -3.1162 -2.0119
  985THF     H614238   4.961   0.908   1.645  1.8638 -0.0474 -1.4956
  985THF     H714239   4.813   0.799   1.619 -0.2595 -1.8775 -3.0083
  985THF     C814240   4.947   0.807   1.463  0.6691 -0.3462  0.2652
  985THF     C914241   4.845   0.809   1.356  0.0733  0.0109 -0.3528
  985THF    H1014242   4.985   0.705   1.472  1.0455 -0.2486 -0.2077
  985THF    H1114243   5.024   0.876   1.430 -0.6077  1.8191  1.5823
  985THF    H1214244   4.894   0.837   1.262 -0.9090  0.6789 -0.6862
  985THF    H1314245   4.795   0.715   1.334 -2.7205  1.1544  0.5716
  986THF     O114246   5.207   2.011   2.458  0.3038 -0.4025 -0.2385
  986THF     C214247   5.283   2.000   2.337  0.2436 -0.2130 -0.0390
  986THF     C314248   5.195   2.152   2.483  0.2455 -0.0760 -0.1924
  986THF     H414249   5.211   2.001   2.255  0.9261 -2.6788 -0.7426
  986THF     H514250   5.321   1.898   2.334  0.9155  0.0037  0.7244
  986THF     H614251   5.123   2.197   2.415 -0.4034  3.1074  2.3763
  986THF     H714252   5.167   2.163   2.587 -0.8556  1.0813 -0.5803
  986THF     C814253   5.328   2.219   2.447 -0.2080  0.3608 -0.5164
  986THF     C914254   5.388   2.112   2.353 -0.5231 -0.2567  0.0765
  986THF    H1014255   5.399   2.224   2.530 -0.6252 -0.2450 -0.1146
  986THF    H1114256   5.326   2.321   2.407  2.4223  0.6919  0.0342
  986THF    H1214257   5.425   2.147   2.257 -1.1996 -1.8486 -0.8053
  986THF    H1314258   5.481   2.066   2.385 -0.5774 -2.0679 -2.0660
  987THF     O114259   2.646   1.732   0.446  0.5975  0.0867 -0.1916
  987THF     C214260   2.546   1.785   0.355  0.0226 -0.0133 -0.3302
  987THF     C314261   2.635   1.793   0.578 -0.2628  0.0583  0.4198
  987THF     H414262   2.481   1.702   0.327 -1.3751  0.8418  0.2754
  987THF     H514263   2.585   1.834   0.266 -0.5208 -0.7938 -1.0097
  987THF     H614264   2.643   1.711   0.650 -1.8597  0.9648  1.7025
  987THF     H714265   2.712   1.868   0.594  1.2544 -1.4230  0.3355
  987THF     C814266   2.498   1.849   0.581 -0.0426 -0.1913  0.4140
  987THF     C914267   2.470   1.888   0.437  0.3429  0.0686 -0.6467
  987THF    H1014268   2.472   1.936   0.641  0.1898  0.3177 -0.2124
  987THF    H1114269   2.425   1.775   0.612 -2.5554  2.4212  1.2200
  987THF    H1214270   2.361   1.882   0.427 -0.0849  3.0247  1.0008
  987THF    H1314271   2.502   1.986   0.401 -0.7583  0.3245 -0.9825
  988THF     O114272   0.300   1.435   5.009  0.3439  0.0412  0.0631
  988THF     C214273   0.189   1.433   5.105  0.5697 -0.0638  0.9024
  988THF     C314274   0.298   1.570   4.958 -0.0636 -0.1013 -0.5136
  988THF     H414275   0.188   1.342   5.165 -2.6004  0.3694  1.7177
  988THF     H514276   0.088   1.438   5.065  1.3209  0.7638 -0.9604
  988THF     H614277   0.399   1.593   4.924  0.8299 -0.4338  1.7902
  988THF     H714278   0.230   1.567   4.872 -1.0925 -0.8076  0.2972
  988THF     C814279   0.257   1.656   5.075  0.2040 -0.3110  0.3960
  988THF     C914280   0.220   1.557   5.183  0.1676 -0.4625  0.3518
  988THF    H1014281   0.168   1.708   5.038  0.1550 -0.0614  0.8575
  988THF    H1114282   0.336   1.723   5.110  1.2906 -0.7530 -1.1227
  988THF    H1214283   0.303   1.545   5.253 -0.8468  1.0186  1.9079
  988THF    H1314284   0.140   1.585   5.252 -0.7901 -1.9187 -0.1322
  989THF     O114285   2.616   1.282   2.216  0.0644  0.4513  0.6564
  989THF     C214286   2.668   1.330   2.091 -0.1895 -0.2192  0.3632
  989THF     C314287   2.504   1.372   2.252 -0.4650  0.4448 -0.1521
  989THF     H414288   2.708   1.244   2.037  1.9666  0.0710  1.3842
  989THF     H514289   2.752   1.399   2.096 -0.1874 -0.1536 -0.4508
  989THF     H614290   2.450   1.333   2.338 -1.1748 -0.6680 -1.0771
  989THF     H714291   2.551   1.468   2.277 -2.6464  2.0933 -1.9230
  989THF     C814292   2.437   1.395   2.116  0.2676 -0.0117  0.5031
  989THF     C914293   2.550   1.375   2.013  0.6306  0.2262 -0.1983
  989THF    H1014294   2.398   1.496   2.113 -0.1258 -0.0293  3.1210
  989THF    H1114295   2.362   1.317   2.103 -0.0436  0.0893  1.6438
  989THF    H1214296   2.532   1.286   1.954  1.3092 -0.2136  0.2383
  989THF    H1314297   2.558   1.464   1.950 -1.2315  0.5107 -0.0813
  990THF     O114298   4.086   2.447   1.589  0.1241  0.1141  0.4092
  990THF     C214299   4.128   2.310   1.600  0.4691 -0.0282  0.6705
  990THF     C314300   4.008   2.449   1.472 -0.0174  0.6171 -0.0664
  990THF     H414301   4.188   2.285   1.688  0.7561  0.0412  0.4968
  990THF     H514302   4.188   2.292   1.511 -1.1325 -1.1353 -0.2315
  990THF     H614303   3.966   2.548   1.452  0.4831  0.9170  0.3574
  990THF     H714304   4.064   2.422   1.382 -0.2291 -0.2630  0.0582
  990THF     C814305   3.909   2.340   1.512 -0.1516  0.0124 -0.0888
  990THF     C914306   3.996   2.232   1.588  0.2878 -1.2459  0.3118
  990THF    H1014307   3.856   2.304   1.424 -0.1614 -0.1455 -0.0188
  990THF    H1114308   3.835   2.386   1.578  0.6888  2.0740 -0.5107
  990THF    H1214309   3.949   2.208   1.683  0.2717 -0.3343  0.5374
  990THF    H1314310   4.009   2.138   1.533  0.5087 -0.9023 -0.2296
  991THF     O114311   3.546   1.890   1.288 -0.1252 -0.4923  0.4301
  991THF     C214312   3.662   1.830   1.343 -0.1813  0.7791  0.4600
  991THF     C314313   3.574   2.027   1.272 -0.6646 -0.5229  0.5638
  991THF     H414314   3.724   1.817   1.254 -1.3185 -0.3064 -0.1957
  991THF     H514315   3.656   1.730   1.385 -1.9460 -0.0354 -1.5911
  991THF     H614316   3.631   2.042   1.180 -1.2870  1.5216  0.4551
  991THF     H714317   3.483   2.088   1.279 -1.1301 -0.7988 -2.0319
  991THF     C814318   3.673   2.062   1.382 -0.2204  0.1715  0.5349
  991THF     C914319   3.706   1.929   1.445 -0.6905  0.1295 -0.4177
  991THF    H1014320   3.635   2.144   1.442  0.5845  0.8958  0.0821
  991THF    H1114321   3.759   2.109   1.333 -1.1336  2.7648  1.2750
  991THF    H1214322   3.813   1.919   1.467 -1.0850  0.7265  2.0846
  991THF    H1314323   3.649   1.923   1.537  2.3750 -1.9122  1.5537
  992THF     O114324   2.693   1.804   3.824  0.0432  0.6601 -0.4219
  992THF     C214325   2.739   1.671   3.810 -0.0831  0.1730  0.5890
  992THF     C314326   2.572   1.826   3.753 -0.5168 -0.4653 -0.2648
  992THF     H414327   2.706   1.624   3.902 -0.9617 -0.8022 -0.1901
  992THF     H514328   2.847   1.672   3.795  0.0390 -0.1293  1.4309
  992THF     H614329   2.486   1.809   3.818  1.1932  1.8080  2.8934
  992THF     H714330   2.568   1.930   3.719 -0.3444  0.8863  3.3495
  992THF     C814331   2.579   1.739   3.622 -0.3903  0.3451  0.4438
  992THF     C914332   2.651   1.619   3.685 -0.2032 -0.0678 -0.2611
  992THF    H1014333   2.656   1.775   3.554 -0.2531  0.7186  0.7932
  992THF    H1114334   2.484   1.723   3.571 -0.1748  1.6954 -0.4329
  992THF    H1214335   2.577   1.546   3.717 -0.8596  0.5071 -0.4414
  992THF    H1314336   2.706   1.565   3.608 -0.3526  1.1377 -1.2449
  993THF     O114337   2.156   4.688   1.874 -0.6148  0.2754  0.1779
  993THF     C214338   2.096   4.760   1.770 -0.2458  0.3008  0.0275
  993THF     C314339   2.073   4.702   1.988  0.3207 -0.5197 -0.2979
  993THF     H414340   2.137   4.737   1.672  1.9958 -1.8110  1.3573
  993THF     H514341   2.097   4.867   1.790 -0.3629  0.0262  1.6934
  993THF     H614342   2.090   4.627   2.066  2.4823 -0.9277 -1.0842
  993THF     H714343   2.102   4.798   2.031  0.8336 -0.9019  0.2308
  993THF     C814344   1.926   4.699   1.936 -0.6028  0.1744 -0.0765
  993THF     C914345   1.946   4.720   1.790  0.0621  0.1283 -0.0342
  993THF    H1014346   1.857   4.775   1.975 -1.6090 -0.8338  0.1648
  993THF    H1114347   1.877   4.602   1.938 -0.0932 -0.0996 -0.6117
  993THF    H1214348   1.927   4.634   1.727 -0.9201 -0.5291  1.1199
  993THF    H1314349   1.890   4.804   1.749 -0.3736 -0.2440 -0.2087
  994THF     O114350   0.712   3.052   4.777  0.2862 -0.1602  0.1274
  994THF     C214351   0.830   3.011   4.847 -0.2237 -0.0095 -0.9315
  994THF     C314352   0.605   2.960   4.808  0.0686 -0.0117  0.4049
  994THF     H414353   0.906   3.089   4.852 -0.8969  0.6702  4.4398
  994THF     H514354   0.869   2.920   4.801 -0.0464 -0.0480 -0.7071
  994THF     H614355   0.511   2.999   4.770  1.1107  0.9304 -1.3302
  994THF     H714356   0.616   2.859   4.769 -1.0787  0.1235 -0.3006
  994THF     C814357   0.624   2.942   4.956  0.6235  0.0323 -0.2251
  994THF     C914358   0.771   2.991   4.985 -0.4881  0.4043  0.3980
  994THF    H1014359   0.607   2.837   4.980 -2.4928  0.4977 -0.0535
  994THF    H1114360   0.549   2.995   5.014  0.7347  0.0806 -0.1236
  994THF    H1214361   0.767   3.094   5.020  0.6190  0.0955  1.4861
  994THF    H1314362   0.831   2.927   5.049 -1.7378 -0.1462  1.0588
  995THF     O114363   5.424   3.899   4.415 -0.0746  0.4696 -0.2478
  995THF     C214364   5.415   4.022   4.341 -0.6201  0.5274  0.1146
  995THF     C314365   5.296   3.840   4.391 -0.7491 -0.6209 -0.2565
  995THF     H414366   5.469   4.018   4.247  1.3274 -0.0044  1.1930
  995THF     H514367   5.483   4.092   4.390  1.3436 -0.2782 -1.3547
  995THF     H614368   5.283   3.800   4.291  1.4853 -1.6392 -0.1913
  995THF     H714369   5.282   3.749   4.450  0.6394 -2.2495 -2.2878
  995THF     C814370   5.195   3.950   4.421  0.0881  0.3912  0.0835
  995THF     C914371   5.271   4.064   4.353  0.5047 -0.2338 -0.4889
  995THF    H1014372   5.173   3.960   4.527  2.4547 -1.7583  0.8925
  995THF    H1114373   5.098   3.939   4.372  0.5123 -0.3162 -0.6275
  995THF    H1214374   5.238   4.078   4.250  2.1055 -3.9971 -1.6740
  995THF    H1314375   5.273   4.157   4.411  1.7763 -0.5777  0.0650
  996THF     O114376   3.407   5.414   1.295  0.0810 -0.0152  0.2963
  996THF     C214377   3.342   5.365   1.178 -0.5611  0.2789  0.3379
  996THF     C314378   3.472   5.533   1.253  0.4843 -0.1697  0.3594
  996THF     H414379   3.277   5.280   1.198  0.2767 -1.1293 -2.3781
  996THF     H514380   3.420   5.320   1.116 -0.6474  0.0378  0.4029
  996THF     H614381   3.483   5.611   1.328  2.8296  0.8107 -0.8988
  996THF     H714382   3.575   5.501   1.235  0.2546 -1.1140  0.6256
  996THF     C814383   3.404   5.580   1.126 -0.1109 -0.8441  0.3847
  996THF     C914384   3.290   5.482   1.103 -0.0737  0.0146 -0.1156
  996THF    H1014385   3.482   5.585   1.050  0.9405  1.9952  1.5243
  996THF    H1114386   3.365   5.681   1.139 -1.6796 -1.2883 -0.6477
  996THF    H1214387   3.203   5.530   1.147 -1.5562  0.4741 -3.2495
  996THF    H1314388   3.266   5.463   0.998  0.3258  0.4115 -0.2848
  997THF     O114389   4.392   2.723   3.395  0.1058 -0.0831  0.2874
  997THF     C214390   4.486   2.837   3.407  0.1540  0.4438 -0.4320
  997THF     C314391   4.339   2.712   3.262  0.2273  0.1740  0.7436
  997THF     H414392   4.582   2.804   3.445 -0.9785 -1.2395  1.1045
  997THF     H514393   4.459   2.906   3.487 -2.7700 -1.7089  0.5926
  997THF     H614394   4.395   2.635   3.208 -0.3368  0.2727  0.0026
  997THF     H714395   4.239   2.670   3.265 -0.4532  1.7310  0.7030
  997THF     C814396   4.349   2.847   3.215  0.0564  0.2032  0.3080
  997THF     C914397   4.481   2.896   3.267 -0.6876  0.7109 -0.1857
  997THF    H1014398   4.272   2.918   3.248 -0.6957  0.0538 -1.0854
  997THF    H1114399   4.347   2.843   3.107 -0.2146 -2.3403  0.3578
  997THF    H1214400   4.562   2.851   3.209 -1.6455 -3.1877  1.1659
  997THF    H1314401   4.478   3.005   3.266 -1.8569  0.6881 -1.5241
  998THF     O114402   3.989   0.561   0.154 -0.0889  0.6956  0.2543
  998THF     C214403   4.032   0.421   0.167 -0.7878 -0.2550 -0.2135
  998THF     C314404   3.850   0.575   0.122  0.6241  0.1510  0.0765
  998THF     H414405   4.103   0.420   0.250 -1.9970  0.0701  0.8732
  998THF     H514406   4.072   0.390   0.071  1.4834  1.4287  0.0987
  998THF     H614407   3.817   0.674   0.153  0.8889  1.0893 -2.4292
  998THF     H714408   3.842   0.563   0.014  0.5835  0.7851  0.0024
  998THF     C814409   3.789   0.461   0.205 -0.4267  0.4450 -0.3093
  998THF     C914410   3.899   0.352   0.196  0.2143 -0.5503  0.5905
  998THF    H1014411   3.694   0.429   0.161  0.2805 -0.4603 -1.2075
  998THF    H1114412   3.768   0.491   0.308  0.5132 -2.1945  0.7437
  998THF    H1214413   3.894   0.300   0.292 -0.1464 -2.4802 -0.4173
  998THF    H1314414   3.872   0.278   0.120 -0.1120  0.7110 -0.5635
  999THF     O114415   1.703   4.382   3.306 -0.1593  0.3661  0.9057
  999THF     C214416   1.614   4.477   3.362  0.4807  0.5024  0.0185
  999THF     C314417   1.622   4.292   3.230  0.2206 -0.0080  0.4408
  999THF     H414418   1.592   4.552   3.286 -0.7289 -1.5957 -1.8149
  999THF     H514419   1.654   4.541   3.440  0.7280  0.0266  0.2867
  999THF     H614420   1.619   4.305   3.121 -0.6365  0.1857  0.4845
  999THF     H714421   1.656   4.190   3.247 -1.0134 -0.3729  0.8012
  999THF     C814422   1.470   4.313   3.274 -0.3463  0.2891 -0.5012
  999THF     C914423   1.482   4.406   3.400  0.4893  0.3088 -0.5194
  999THF    H1014424   1.410   4.222   3.283 -0.7426  0.6969  1.5958
  999THF    H1114425   1.422   4.369   3.194 -0.6336  0.3962 -0.2566
  999THF    H1214426   1.388   4.461   3.399  0.4245  0.1995 -0.9740
  999THF    H1314427   1.485   4.353   3.495  0.5631  0.2611 -0.5484
 1000THF     O114428   0.998   2.048   1.296 -0.4186 -0.0818  0.5942
 1000THF     C214429   0.976   1.965   1.184  0.5540  0.2995 -0.5437
 1000THF     C314430   1.030   1.969   1.404  0.5504 -0.5733  0.1903
 1000THF     H414431   1.002   2.007   1.087 -0.7832  0.1580 -0.9833
 1000THF     H514432   0.871   1.939   1.191  0.2440  1.6007 -0.0349
 1000THF     H614433   1.107   2.002   1.473  0.1075  0.6598  0.1171
 1000THF     H714434   0.936   1.963   1.459 -1.2475  0.4388 -2.5478
 1000THF     C814435   1.082   1.833   1.357  0.2485 -0.5091  0.9821
 1000THF     C914436   1.054   1.837   1.210 -0.1989  0.1773 -0.3659
 1000THF    H1014437   1.037   1.755   1.419  1.3273 -1.2295  0.8931
 1000THF    H1114438   1.191   1.828   1.357  0.2871 -0.2638  2.6369
 1000THF    H1214439   1.135   1.819   1.139 -0.1983 -0.8860 -0.1232
 1000THF    H1314440   0.992   1.748   1.194 -0.9322  0.4530  0.8403
 1001THF     O114441   0.083   4.840   3.745 -0.1101 -0.1410 -0.0104
 1001THF     C214442  -0.001   4.946   3.790 -0.3429 -0.4906  0.1490
 1001THF     C314443   0.072   4.756   3.864  0.1670 -0.1938 -0.0312
 1001THF     H414444  -0.034   4.993   3.697  3.7256  0.5853 -0.9317
 1001THF     H514445   0.031   5.024   3.859 -1.0114 -2.4206  2.8063
 1001THF     H614446   0.125   4.663   3.843 -0.9903 -0.6272 -1.1787
 1001THF     H714447   0.110   4.804   3.954 -2.8700  0.9032  0.7679
 1001THF     C814448  -0.076   4.738   3.904 -0.5196 -0.5748 -0.3887
 1001THF     C914449  -0.122   4.868   3.842  0.0071 -0.2981 -0.3967
 1001THF    H1014450  -0.095   4.718   4.010  0.8897  2.5772  0.5846
 1001THF    H1114451  -0.122   4.650   3.860  0.8722 -1.1246 -0.7919
 1001THF    H1214452  -0.192   4.862   3.758  1.5727 -0.4026 -1.7523
 1001THF    H1314453  -0.182   4.919   3.917  0.0488 -0.6648 -0.1135
 1002THF     O114454   4.651   1.784   1.105  0.3184  0.3040 -0.0289
 1002THF     C214455   4.525   1.729   1.122  0.3961  0.9205  0.0074
 1002THF     C314456   4.749   1.701   1.154  0.1342  0.3033  0.7341
 1002THF     H414457   4.501   1.646   1.055  3.3704  0.2957 -0.4172
 1002THF     H514458   4.456   1.814   1.122 -2.3466 -1.1566  0.3669
 1002THF     H614459   4.764   1.619   1.085  2.3845  2.4007 -1.4800
 1002THF     H714460   4.843   1.755   1.167  0.9641 -1.3756  1.9420
 1002THF     C814461   4.684   1.658   1.287  0.6736 -0.8358  0.5550
 1002THF     C914462   4.539   1.692   1.267  0.4256  0.2467  0.0242
 1002THF    H1014463   4.726   1.723   1.363 -0.4616  0.7071 -0.0940
 1002THF    H1114464   4.696   1.552   1.310  1.1828 -1.2403 -1.3597
 1002THF    H1214465   4.473   1.609   1.293 -1.6766  2.0364  0.7068
 1002THF    H1314466   4.508   1.782   1.320 -2.5342 -0.3231 -0.5460
 1003THF     O114467   4.462   0.243   4.458 -0.2349  0.0238 -0.6982
 1003THF     C214468   4.395   0.115   4.477  0.3302 -0.4289 -0.1938
 1003THF     C314469   4.560   0.244   4.352 -0.0715 -0.8798 -0.3687
 1003THF     H414470   4.289   0.123   4.499  0.4538 -1.2350  0.7758
 1003THF     H514471   4.446   0.067   4.561 -4.1869 -1.1399  2.4458
 1003THF     H614472   4.555   0.345   4.311 -0.6309 -0.3573  0.9136
 1003THF     H714473   4.663   0.224   4.382  0.0086 -0.5904 -0.4471
 1003THF     C814474   4.516   0.127   4.261  0.4303  0.2627  0.1947
 1003THF     C914475   4.418   0.047   4.350  0.6740 -0.6119 -0.2528
 1003THF    H1014476   4.607   0.078   4.226  0.1215  0.6417 -1.2250
 1003THF    H1114477   4.464   0.165   4.173  1.4792  2.9295  0.6236
 1003THF    H1214478   4.317   0.046   4.309  0.4418  4.4153 -0.3959
 1003THF    H1314479   4.460  -0.054   4.353 -1.9812 -1.9348 -2.7832
 1004THF     O114480   4.758   0.236   3.602  0.5306 -0.1584  0.0287
 1004THF     C214481   4.731   0.246   3.463  0.2886 -0.6074 -0.3091
 1004THF     C314482   4.898   0.261   3.623  0.3874 -0.1723  0.6571
 1004THF     H414483   4.674   0.337   3.447 -2.4442 -1.9530  1.1936
 1004THF     H514484   4.659   0.171   3.431  0.5463 -0.5789 -0.9740
 1004THF     H614485   4.910   0.350   3.685  2.2023  0.1359 -0.0757
 1004THF     H714486   4.940   0.173   3.670  0.6738 -1.2915 -1.5639
 1004THF     C814487   4.971   0.259   3.489 -1.3077 -0.0115 -0.2673
 1004THF     C914488   4.861   0.223   3.392 -0.5314  0.1959  0.2198
 1004THF    H1014489   5.065   0.203   3.488 -1.8168 -0.8839 -0.1689
 1004THF    H1114490   4.996   0.364   3.472 -0.4753 -0.5803 -2.9047
 1004THF    H1214491   4.876   0.278   3.299 -1.4536 -0.9553 -0.6474
 1004THF    H1314492   4.879   0.120   3.362 -0.3516  0.7044 -1.5542
 1005THF     O114493   2.739   4.249   0.570 -0.3306 -0.3534 -0.8773
 1005THF     C214494   2.741   4.276   0.429 -0.0719 -0.8509 -0.6665
 1005THF     C314495   2.776   4.369   0.638  0.6325 -0.2709  0.8357
 1005THF     H414496   2.702   4.192   0.372  0.5208 -1.9684  0.5296
 1005THF     H514497   2.843   4.279   0.391  0.2998 -0.8972  0.2875
 1005THF     H614498   2.738   4.372   0.740 -0.3312 -2.7903  0.6239
 1005THF     H714499   2.884   4.377   0.646  0.4616  1.6365  1.7085
 1005THF     C814500   2.720   4.479   0.546  0.2817 -0.4628 -0.7560
 1005THF     C914501   2.673   4.415   0.416  0.5149 -0.2129  0.0580
 1005THF    H1014502   2.786   4.564   0.528  0.3868 -0.6590 -1.3218
 1005THF    H1114503   2.633   4.517   0.601  0.5254 -1.1060  0.1016
 1005THF    H1214504   2.565   4.411   0.417  0.5090 -0.5344  1.9365
 1005THF    H1314505   2.709   4.469   0.328  1.3202 -1.1682 -0.2226
 1006THF     O114506   2.835   1.753   4.961  1.0194  0.4757 -0.2888
 1006THF     C214507   2.891   1.881   4.986 -0.4731  0.7052 -0.5967
 1006THF     C314508   2.757   1.763   4.837 -0.4948  0.2063 -0.3173
 1006THF     H414509   2.994   1.873   4.952 -0.2910 -2.4882  0.3569
 1006THF     H514510   2.904   1.883   5.095 -1.0188 -2.0412 -0.3984
 1006THF     H614511   2.796   1.693   4.764 -1.0791 -1.3675  0.8263
 1006THF     H714512   2.651   1.737   4.847 -0.2149 -1.0718 -0.6229
 1006THF     C814513   2.771   1.916   4.790  0.4433  0.8082 -0.3527
 1006THF     C914514   2.802   1.977   4.922 -0.3905 -0.6431  0.0978
 1006THF    H1014515   2.682   1.943   4.734  0.5409 -1.1777 -1.5564
 1006THF    H1114516   2.854   1.926   4.721  0.9751  0.6954  0.2619
 1006THF    H1214517   2.853   2.073   4.914  0.1964 -1.0883 -2.5134
 1006THF    H1314518   2.706   1.988   4.972 -1.9704 -1.9732 -2.4058
 1007THF     O114519   1.242   4.739   0.117  0.0928 -0.5239 -0.2186
 1007THF     C214520   1.205   4.616   0.178  0.1988  0.3443 -0.0564
 1007THF     C314521   1.263   4.836   0.230 -0.5987 -0.4040 -0.1037
 1007THF     H414522   1.221   4.528   0.116  0.2214  0.5691 -0.3695
 1007THF     H514523   1.099   4.616   0.205  0.2698 -3.5529  0.8318
 1007THF     H614524   1.348   4.896   0.197 -2.1296  1.2247 -1.3231
 1007THF     H714525   1.181   4.908   0.235  0.9790  1.5318 -0.5080
 1007THF     C814526   1.291   4.757   0.360  0.5581 -0.0026 -0.3331
 1007THF     C914527   1.291   4.618   0.305 -0.5246  0.8408  0.5904
 1007THF    H1014528   1.213   4.777   0.433 -0.3011  0.0158 -1.2371
 1007THF    H1114529   1.390   4.779   0.402  1.4999 -0.3231 -2.2694
 1007THF    H1214530   1.392   4.590   0.275 -0.8800  0.7531 -0.5654
 1007THF    H1314531   1.256   4.545   0.377  2.2591 -0.9560  0.2805
 1008THF     O114532   0.413   0.327   4.966 -0.2039  0.3849 -0.5045
 1008THF     C214533   0.334   0.422   4.898 -0.0720  0.9735  0.2729
 1008THF     C314534   0.444   0.383   5.090  0.5504 -0.0489 -0.1162
 1008THF     H414535   0.273   0.374   4.821 -0.1469  0.6416  0.5372
 1008THF     H514536   0.385   0.505   4.848 -2.2396  2.6127  0.6289
 1008THF     H614537   0.501   0.308   5.145  0.5583 -2.1330 -2.7673
 1008THF     H714538   0.519   0.461   5.073 -0.6812  0.5624 -3.6831
 1008THF     C814539   0.311   0.444   5.134  0.4164  0.2665 -0.0652
 1008THF     C914540   0.240   0.479   5.008 -0.5456 -0.1161 -0.2286
 1008THF    H1014541   0.319   0.532   5.198  1.2595  0.9326 -1.0523
 1008THF    H1114542   0.249   0.371   5.187 -1.5362  0.5119 -1.8718
 1008THF    H1214543   0.138   0.441   4.999 -1.1137  0.7213  1.9570
 1008THF    H1314544   0.235   0.588   4.998 -0.0414  0.4341  3.7784
 1009PF6-    P114545   4.275   0.296   3.252 -0.1896  0.1168 -0.1254
 1009PF6-    F214546   4.347   0.252   3.388  0.3135  0.4457 -0.1378
 1009PF6-    F314547   4.211   0.345   3.113  0.4616 -0.4784 -0.0804
 1009PF6-    F414548   4.314   0.155   3.186  0.1564  0.2867  0.1141
 1009PF6-    F514549   4.247   0.438   3.320  0.0661 -0.0290  0.1997
 1009PF6-    F614550   4.418   0.354   3.207 -0.2660 -0.0265  0.4261
 1009PF6-    F714551   4.131   0.251   3.305  0.7188  0.1270  0.5612
 1010PF6-    P114552   3.690   4.336   4.580  0.4431  0.1660  0.0635
 1010PF6-    F214553   3.784   4.268   4.461 -0.1672  0.0297  0.1817
 1010PF6-    F314554   3.601   4.394   4.703  0.4517 -0.0455  0.8660
 1010PF6-    F414555   3.625   4.192   4.603  0.3788  0.1815  0.1235
 1010PF6-    F514556   3.754   4.481   4.555  0.4381  0.2600 -1.1217
 1010PF6-    F614557   3.576   4.371   4.477  0.0050  0.1320  0.3034
 1010PF6-    F714558   3.803   4.310   4.691 -0.3079  0.2447  0.1980
 1011PF6-    P114559   3.558   4.263   0.061  0.4471 -0.2025  0.3938
 1011PF6-    F214560   3.457   4.217   0.177  0.1189  0.0940  0.3682
 1011PF6-    F314561   3.656   4.318  -0.054  0.4450  0.1370  0.0175
 1011PF6-    F414562   3.437   4.276  -0.043 -0.0020  0.0736  0.1647
 1011PF6-    F514563   3.679   4.251   0.164 -0.2149  0.0712  0.7533
 1011PF6-    F614564   3.584   4.110   0.014 -0.2731 -0.0120  0.1252
 1011PF6-    F714565   3.539   4.419   0.102  0.1560  0.2075 -0.4093
 1012PF6-    P114566   0.825   2.268   3.306  0.3695  0.2691  0.0097
 1012PF6-    F214567   0.903   2.400   3.342  0.5759 -0.0933  0.7222
 1012PF6-    F314568   0.744   2.129   3.278 -0.3498  0.2805 -0.1052
 1012PF6-    F414569   0.729   2.339   3.206 -0.2164 -0.2518  0.2548
 1012PF6-    F514570   0.930   2.191   3.395 -0.1571 -0.0931 -0.0326
 1012PF6-    F614571   0.736   2.294   3.430  0.2395 -0.2856  0.2645
 1012PF6-    F714572   0.916   2.228   3.178 -0.1241  0.1745  0.2505
 1013PF6-    P114573   0.182   1.516   1.640 -0.0164 -0.1259 -0.0484
 1013PF6-    F214574   0.259   1.413   1.546 -0.1315 -0.4457 -0.3067
 1013PF6-    F314575   0.097   1.612   1.730  0.0655 -0.5762  0.1128
 1013PF6-    F414576   0.179   1.630   1.527  0.2110 -0.0091 -0.1043
 1013PF6-    F514577   0.185   1.403   1.755 -0.6729  0.1982  0.2595
 1013PF6-    F614578   0.319   1.572   1.701  0.0315 -0.2555  0.8173
 1013PF6-    F714579   0.048   1.450   1.573  1.0297 -0.5649 -0.4620
 1014PF6-    P114580   0.215   2.867   4.531  0.4154 -0.4046 -0.3653
 1014PF6-    F214581   0.369   2.883   4.583  0.1842  0.5697  0.3685
 1014PF6-    F314582   0.055   2.861   4.494 -0.0767 -0.5529  0.0946
 1014PF6-    F414583   0.263   2.809   4.392 -0.2423  0.0982  0.0420
 1014PF6-    F514584   0.161   2.915   4.672  0.2334  0.1246  0.3319
 1014PF6-    F614585   0.224   3.024   4.475  0.7426  0.2289  0.3486
 1014PF6-    F714586   0.215   2.718   4.591  0.4114  0.5162  0.1448
 1015PF6-    P114587   1.351   1.794   0.446  0.1068  0.2063  0.0018
 1015PF6-    F214588   1.247   1.775   0.328 -0.0034 -0.0410  0.0857
 1015PF6-    F314589   1.457   1.809   0.558  0.2258 -0.6068  0.0957
 1015PF6-    F414590   1.415   1.919   0.368 -0.2334  0.1375  0.0183
 1015PF6-    F514591   1.284   1.672   0.519  0.3363 -0.6272  0.3078
 1015PF6-    F614592   1.451   1.696   0.379 -0.5458  0.0408  0.4306
 1015PF6-    F714593   1.249   1.900   0.511  0.1619 -0.1040 -0.5823
 1016PF6-    P114594   1.453   4.348   5.087  0.1828  0.0308  0.3427
 1016PF6-    F214595   1.547   4.226   5.031  0.2364  0.4301  0.0385
 1016PF6-    F314596   1.361   4.470   5.131 -0.1191 -0.3459 -0.0690
 1016PF6-    F414597   1.345   4.241   5.144  0.0176 -0.2484  0.2996
 1016PF6-    F514598   1.562   4.453   5.032 -0.4578 -0.0923 -0.2331
 1016PF6-    F614599   1.371   4.344   4.948 -0.8069  0.2173 -0.1064
 1016PF6-    F714600   1.531   4.360   5.230 -0.0856  0.1099  1.0660
 1017PF6-    P114601   4.076   1.771   1.294 -0.1089 -0.6231 -0.1750
 1017PF6-    F214602   4.192   1.779   1.185  0.6981 -0.1961  0.3187
 1017PF6-    F314603   3.967   1.757   1.414  0.0531 -0.7149 -0.2195
 1017PF6-    F414604   4.066   1.932   1.305  0.1049 -0.1356  0.3300
 1017PF6-    F514605   4.076   1.612   1.281  0.1368 -0.4089  0.3607
 1017PF6-    F614606   4.195   1.767   1.402  0.1770 -0.0517 -0.2373
 1017PF6-    F714607   3.957   1.785   1.186 -0.6366  0.2086  0.1868
 1018PF6-    P114608   5.453   5.389   1.035  0.1952 -0.1885 -0.1219
 1018PF6-    F214609   5.604   5.346   1.002  0.2487  0.3162  0.1989
 1018PF6-    F314610   5.302   5.427   1.071  0.1820  0.1076  0.1061
 1018PF6-    F414611   5.504   5.471   1.156 -0.3206 -0.7604 -0.4711
 1018PF6-    F514612   5.402   5.306   0.905  0.4604  0.6260 -0.2090
 1018PF6-    F614613   5.435   5.257   1.120 -0.5095 -0.0447  0.2473
 1018PF6-    F714614   5.464   5.516   0.940  0.3769  0.1791  0.3100
 1019PF6-    P114615   3.347   2.775   4.168 -0.2111 -0.1577 -0.0407
 1019PF6-    F214616   3.290   2.898   4.083 -0.0665 -0.0838 -0.6987
 1019PF6-    F314617   3.405   2.661   4.262 -0.8035 -0.1479 -0.0369
 1019PF6-    F414618   3.356   2.873   4.296  0.3384  0.7454  0.1232
 1019PF6-    F514619   3.336   2.681   4.041 -0.3281 -0.2334  0.2637
 1019PF6-    F614620   3.495   2.812   4.128 -0.9072  0.4700 -0.1842
 1019PF6-    F714621   3.194   2.742   4.204  0.3111 -0.0132  0.0631
 1020PF6-    P114622   0.586   3.954   1.074 -0.2881  0.2907 -0.0847
 1020PF6-    F214623   0.739   3.970   1.128  0.0418  0.0702 -0.0877
 1020PF6-    F314624   0.438   3.941   1.016  0.3059  0.1835 -0.1010
 1020PF6-    F414625   0.591   4.104   1.027  0.5621 -0.0268 -0.3528
 1020PF6-    F514626   0.573   3.795   1.110  0.2838  0.4125 -0.2592
 1020PF6-    F614627   0.525   3.993   1.217  0.0024 -0.5156  0.3235
 1020PF6-    F714628   0.648   3.900   0.928  0.2176 -0.3694 -0.2767
 1021PF6-    P114629   3.553   4.411   3.451  0.0616 -0.1147 -0.5679
 1021PF6-    F214630   3.436   4.307   3.449  0.0981  0.5192  0.2562
 1021PF6-    F314631   3.673   4.518   3.460  0.5689  0.5937  0.3603
 1021PF6-    F414632   3.455   4.534   3.454 -0.0120  0.1500  0.2947
 1021PF6-    F514633   3.661   4.294   3.462  0.1307 -0.1399 -0.1634
 1021PF6-    F614634   3.554   4.419   3.290 -0.0454 -0.6673 -0.1367
 1021PF6-    F714635   3.547   4.411   3.612 -0.0335  0.1218 -0.1866
 1022PF6-    P114636   1.996   4.713   3.573 -0.1700 -0.2640  0.1860
 1022PF6-    F214637   1.842   4.668   3.560 -0.3368 -0.6301 -0.3001
 1022PF6-    F314638   2.148   4.752   3.586 -0.2397  0.2654  0.6041
 1022PF6-    F414639   1.954   4.842   3.657  0.0223  0.0664  0.1986
 1022PF6-    F514640   2.044   4.583   3.491  0.6411  0.3851  0.1934
 1022PF6-    F614641   1.983   4.795   3.434 -0.3727 -0.0321 -0.1187
 1022PF6-    F714642   2.014   4.633   3.713  0.0064  0.0504  0.3446
 1023PF6-    P114643   2.629   4.079   0.079  0.3149 -0.2829 -0.5225
 1023PF6-    F214644   2.780   4.043   0.116  0.1097  0.1833  0.0907
 1023PF6-    F314645   2.472   4.109   0.053  0.0713 -0.6280 -0.1088
 1023PF6-    F414646   2.645   4.226   0.145  0.7687  0.3578 -0.1247
 1023PF6-    F514647   2.607   3.936   0.010  0.4114 -0.1960  0.1021
 1023PF6-    F614648   2.590   4.023   0.227 -0.1067  0.7880  0.1337
 1023PF6-    F714649   2.664   4.145  -0.060  0.0565 -0.3038 -0.1327
 1024PF6-    P114650   1.594   1.163   2.722  0.6211 -0.1565 -0.1769
 1024PF6-    F214651   1.459   1.230   2.665 -0.5523 -0.3524  0.5626
 1024PF6-    F314652   1.730   1.097   2.769 -0.0409  0.1096  0.7555
 1024PF6-    F414653   1.648   1.300   2.776  0.6785 -0.7872 -0.6411
 1024PF6-    F514654   1.544   1.020   2.671 -0.2328  0.0552  0.2335
 1024PF6-    F614655   1.667   1.200   2.583  0.1756 -0.0338 -0.4068
 1024PF6-    F714656   1.528   1.133   2.870 -0.0149 -1.0609  0.3818
 1025PF6-    P114657   1.786   2.990   1.556 -0.2648 -0.2742  0.1744
 1025PF6-    F214658   1.799   2.839   1.601  0.0465  0.4439 -0.1192
 1025PF6-    F314659   1.779   3.143   1.507 -0.1969 -0.2882 -0.2249
 1025PF6-    F414660   1.651   3.009   1.648  0.0967 -0.8023  0.1676
 1025PF6-    F514661   1.917   2.969   1.467 -0.3033  0.2984  0.1113
 1025PF6-    F614662   1.693   2.936   1.436  0.0008 -0.5048 -0.1841
 1025PF6-    F714663   1.881   3.037   1.680 -0.0014  0.4968  0.4197
 1026PF6-    P114664   5.449   4.647   0.705 -0.3061  0.0605  0.1888
 1026PF6-    F214665   5.553   4.555   0.625  0.0191 -0.2585  0.1539
 1026PF6-    F314666   5.345   4.744   0.782 -0.1073 -0.4372 -0.7779
 1026PF6-    F414667   5.527   4.775   0.649  0.0817  0.0256 -0.0886
 1026PF6-    F514668   5.366   4.525   0.755  0.1103  0.2619  0.4982
 1026PF6-    F614669   5.550   4.651   0.828 -0.4707  0.2011 -0.2244
 1026PF6-    F714670   5.359   4.646   0.572  0.0237 -0.0114 -0.5197
 1027PF6-    P114671   3.724   0.092   5.347  0.1255 -0.0608 -0.0409
 1027PF6-    F214672   3.776   0.032   5.209 -0.3036 -0.2664  0.4726
 1027PF6-    F314673   3.680   0.154   5.489  0.0973 -0.0710  1.0296
 1027PF6-    F414674   3.862   0.049   5.414  0.2273  0.1787  0.0209
 1027PF6-    F514675   3.589   0.143   5.278 -0.4164  0.4656 -0.2195
 1027PF6-    F614676   3.658  -0.050   5.378 -0.1177  0.3040 -0.0827
 1027PF6-    F714677   3.793   0.227   5.309  0.0519 -0.0696 -0.0259
 1028PF6-    P114678   2.366   1.380   0.550  0.3403  0.4014  0.0765
 1028PF6-    F214679   2.429   1.407   0.405 -0.2366  0.0312 -0.4232
 1028PF6-    F314680   2.310   1.352   0.699  0.7564  0.4349 -0.3982
 1028PF6-    F414681   2.513   1.399   0.605 -0.0729  0.0465  0.0042
 1028PF6-    F514682   2.220   1.359   0.479  0.0559 -0.2590 -0.2752
 1028PF6-    F614683   2.394   1.229   0.530 -0.3990  0.2826  0.2683
 1028PF6-    F714684   2.336   1.539   0.567 -0.0855  0.9096  0.6167
 1029PF6-    P114685   3.826   5.257   4.809  0.3643  0.0096  0.0854
 1029PF6-    F214686   3.820   5.257   4.971 -0.1829 -0.1679 -0.0530
 1029PF6-    F314687   3.841   5.258   4.652  0.1738  0.1647  0.3580
 1029PF6-    F414688   3.728   5.387   4.800  0.5071 -0.5744  0.0898
 1029PF6-    F514689   3.920   5.127   4.815  0.0532 -0.0142  0.1498
 1029PF6-    F614690   3.700   5.158   4.804 -0.0023 -0.3953 -0.1805
 1029PF6-    F714691   3.953   5.352   4.814 -0.3358 -0.2939  0.5844
 1030PF6-    P114692   5.421   1.427   4.696 -0.3991 -0.2381 -0.3386
 1030PF6-    F214693   5.292   1.360   4.761  0.1413 -0.4833  0.2251
 1030PF6-    F314694   5.549   1.500   4.630  0.0969  0.6255  0.1103
 1030PF6-    F414695   5.387   1.569   4.765  0.5801 -0.1251  0.3279
 1030PF6-    F514696   5.461   1.290   4.614 -0.3894  0.8171 -0.0778
 1030PF6-    F614697   5.335   1.469   4.567 -0.5599  0.4726 -0.2112
 1030PF6-    F714698   5.501   1.383   4.828 -0.4437 -0.3773 -0.2636
 1031PF6-    P114699   5.142   2.652   1.432  0.2575 -0.1037 -0.0547
 1031PF6-    F214700   5.084   2.530   1.521  0.1867 -0.0792  0.3727
 1031PF6-    F314701   5.187   2.774   1.338  0.0855  0.2753  0.0214
 1031PF6-    F414702   5.114   2.560   1.295 -0.0540 -0.9534 -0.1546
 1031PF6-    F514703   5.168   2.738   1.562 -0.2851 -0.1965 -0.2586
 1031PF6-    F614704   5.288   2.596   1.439 -0.0859  0.2076  0.1116
 1031PF6-    F714705   4.992   2.708   1.429 -0.1551  0.2451 -0.5687
 1032PF6-    P114706   3.330   2.383   2.290  0.1084  0.0927  0.5754
 1032PF6-    F214707   3.437   2.280   2.231 -0.1063  0.0684 -0.1851
 1032PF6-    F314708   3.228   2.490   2.345 -0.1971  0.1063 -0.2189
 1032PF6-    F414709   3.423   2.409   2.419  0.2212 -0.0315  0.3150
 1032PF6-    F514710   3.236   2.359   2.159  0.6083 -0.1758  0.1639
 1032PF6-    F614711   3.251   2.274   2.372  0.6368 -0.3628 -0.3563
 1032PF6-    F714712   3.407   2.497   2.206  0.0634  0.0003 -0.3549
 1033PF6-    P114713   5.300   0.615   3.376 -0.4328  0.1309 -0.3195
 1033PF6-    F214714   5.159   0.547   3.341 -0.9436  0.2334  0.4487
 1033PF6-    F314715   5.438   0.684   3.415  0.2594 -0.3346 -0.2965
 1033PF6-    F414716   5.243   0.638   3.515  0.0253  0.1732  0.2454
 1033PF6-    F514717   5.353   0.587   3.232 -0.1367  0.2907  0.0175
 1033PF6-    F614718   5.241   0.754   3.330  0.5476  0.1316 -0.3897
 1033PF6-    F714719   5.361   0.474   3.418 -0.3346 -0.1299 -0.1659
 1034PF6-    P114720   0.978   0.886   3.586  0.3177 -0.0398  0.2943
 1034PF6-    F214721   0.840   0.864   3.661  0.1699 -0.2501 -0.3443
 1034PF6-    F314722   1.120   0.918   3.500  0.3224  0.1490 -0.0577
 1034PF6-    F414723   1.018   1.001   3.690  0.0994 -0.5165 -0.7546
 1034PF6-    F514724   0.940   0.772   3.478  0.2535 -0.4808 -0.3081
 1034PF6-    F614725   0.905   0.999   3.502  0.0555 -0.4544 -0.2467
 1034PF6-    F714726   1.052   0.780   3.682  0.2761 -0.3158 -0.0428
 1035PF6-    P114727   2.640   5.119   4.558 -0.2902 -0.1395  0.1200
 1035PF6-    F214728   2.529   5.136   4.443 -0.1780  0.2695  0.2274
 1035PF6-    F314729   2.745   5.098   4.672 -0.8272 -0.6787 -0.0411
 1035PF6-    F414730   2.732   5.234   4.484 -0.7493 -0.0633  0.3696
 1035PF6-    F514731   2.551   5.003   4.627  0.1977 -0.5758 -0.2975
 1035PF6-    F614732   2.714   5.002   4.472 -0.2456  0.6082  0.0404
 1035PF6-    F714733   2.567   5.228   4.649  0.1240  0.2994  0.0472
 1036PF6-    P114734   3.731   1.396   1.978 -0.3402 -0.2904 -0.1947
 1036PF6-    F214735   3.713   1.240   1.999 -0.1141  0.1691 -0.2463
 1036PF6-    F314736   3.750   1.553   1.959  0.2139  0.4311 -0.2993
 1036PF6-    F414737   3.595   1.406   1.888 -0.3609  0.1522 -0.4643
 1036PF6-    F514738   3.866   1.384   2.065 -0.1974 -0.0468 -0.1864
 1036PF6-    F614739   3.807   1.366   1.846  0.4974  0.1037  0.1833
 1036PF6-    F714740   3.642   1.426   2.112  0.3056 -0.1039 -0.0309
 1037PF6-    P114741   1.812   3.875   4.818 -0.1485 -0.1122  0.2415
 1037PF6-    F214742   1.875   4.011   4.754 -0.8366  0.5609 -0.1057
 1037PF6-    F314743   1.739   3.747   4.887  0.4201  0.2603 -0.8143
 1037PF6-    F414744   1.689   3.882   4.729  0.2234  0.2793  0.2461
 1037PF6-    F514745   1.940   3.854   4.915  0.5874  0.0523  0.2148
 1037PF6-    F614746   1.740   3.961   4.935  0.6574 -0.4822 -0.0892
 1037PF6-    F714747   1.886   3.778   4.710  0.1707 -0.0683  0.1413
 1038PF6-    P114748   4.137   0.896   3.953 -0.2914  0.0667 -0.0932
 1038PF6-    F214749   4.223   0.756   3.965 -0.0896 -0.1339 -0.3952
 1038PF6-    F314750   4.047   1.032   3.951  0.2480 -0.2696  0.3229
 1038PF6-    F414751   4.177   0.935   4.101 -0.0974 -0.7860 -0.6578
 1038PF6-    F514752   4.087   0.859   3.808  0.0234 -0.4089 -0.3682
 1038PF6-    F614753   4.013   0.825   4.028 -0.1437 -0.0503 -0.2898
 1038PF6-    F714754   4.260   0.973   3.885 -0.4007 -0.8971 -0.0495
 1039PF6-    P114755   4.400   3.573   4.745 -0.1653 -0.3739  0.0867
 1039PF6-    F214756   4.259   3.502   4.774  0.0342 -0.2882  0.3084
 1039PF6-    F314757   4.532   3.652   4.717  0.2756  0.2885 -0.5107
 1039PF6-    F414758   4.321   3.689   4.673 -0.4830  0.4223  0.4499
 1039PF6-    F514759   4.486   3.464   4.829  0.0696  0.6307 -0.0862
 1039PF6-    F614760   4.417   3.491   4.608 -0.4932 -0.3328 -0.0143
 1039PF6-    F714761   4.379   3.660   4.877 -0.0566  0.2049 -0.0379
 1040PF6-    P114762   4.554   0.891   5.359 -0.3101 -0.0890 -0.3635
 1040PF6-    F214763   4.694   0.846   5.424 -0.1250 -0.1799  0.4821
 1040PF6-    F314764   4.416   0.939   5.296  0.2814 -0.2546  0.4782
 1040PF6-    F414765   4.488   0.757   5.416  0.3433  0.2597  0.1953
 1040PF6-    F514766   4.617   1.031   5.304  0.1617  0.2847 -0.5170
 1040PF6-    F614767   4.587   0.823   5.221  0.0768 -0.1550  0.1436
 1040PF6-    F714768   4.515   0.963   5.499  0.0576  1.0823 -0.0407
 1041PF6-    P114769   1.779   3.894   2.900 -0.0117 -0.4800 -0.3331
 1041PF6-    F214770   1.799   3.854   2.745  0.4114 -0.6020  0.0584
 1041PF6-    F314771   1.754   3.936   3.052  0.4192 -0.5127  0.0155
 1041PF6-    F414772   1.938   3.920   2.910  0.6662 -0.3445 -0.4002
 1041PF6-    F514773   1.625   3.856   2.884  0.0081  0.8173  0.5162
 1041PF6-    F614774   1.814   3.746   2.947  0.3108  0.1025 -0.2181
 1041PF6-    F714775   1.755   4.047   2.858 -0.2170  0.2465 -0.2208
 1042PF6-    P114776   5.398   2.198   2.947  0.5216  0.4476  0.2568
 1042PF6-    F214777   5.244   2.239   2.945  0.3195  0.1374  0.1315
 1042PF6-    F314778   5.546   2.146   2.949 -0.1193 -0.4903  0.5672
 1042PF6-    F414779   5.430   2.290   2.819 -0.1504 -0.3727 -0.3524
 1042PF6-    F514780   5.366   2.104   3.077 -0.1163 -0.2952 -0.6351
 1042PF6-    F614781   5.368   2.072   2.846 -0.1390  0.1014 -0.4451
 1042PF6-    F714782   5.439   2.314   3.049 -0.3537 -0.6711  0.3061
 1043PF6-    P114783   0.123   3.666   1.897  0.4513 -0.1896  0.1512
 1043PF6-    F214784   0.085   3.744   2.035  0.2511  0.7087  0.0463
 1043PF6-    F314785   0.162   3.594   1.758 -0.1178 -0.0341 -0.2065
 1043PF6-    F414786   0.241   3.780   1.868 -0.1992  0.1487  1.0707
 1043PF6-    F514787   0.010   3.556   1.926  0.1123  0.1314 -0.0963
 1043PF6-    F614788   0.016   3.750   1.821  0.5934  0.0932  0.5190
 1043PF6-    F714789   0.224   3.579   1.978 -0.4947  0.2983 -0.2064
 1044PF6-    P114790   2.116   3.407   0.470  0.3266  0.0156 -0.2299
 1044PF6-    F214791   2.236   3.492   0.535  0.7113  0.0110 -0.0729
 1044PF6-    F314792   1.997   3.323   0.398 -0.0659  0.3868 -0.0179
 1044PF6-    F414793   2.218   3.352   0.359 -0.2275 -0.1865 -0.1279
 1044PF6-    F514794   2.011   3.460   0.582  0.1798 -0.2567  0.0726
 1044PF6-    F614795   2.085   3.531   0.378 -0.4378 -0.4951 -0.5020
 1044PF6-    F714796   2.152   3.280   0.567  0.5401  0.1060 -0.0263
 1045PF6-    P114797   0.575   5.492   3.465  0.4403  0.0351 -0.2024
 1045PF6-    F214798   0.501   5.568   3.344  0.7402 -0.0538 -0.8375
 1045PF6-    F314799   0.646   5.418   3.586 -0.4368 -0.1426 -0.3656
 1045PF6-    F414800   0.442   5.509   3.557  0.6279  0.0000  0.3533
 1045PF6-    F514801   0.706   5.469   3.372  0.8179  0.1865  0.3582
 1045PF6-    F614802   0.622   5.629   3.528  0.0551  0.3015 -0.2781
 1045PF6-    F714803   0.511   5.353   3.418  0.2307  0.1911  0.3737
 1046PF6-    P114804   3.206   3.703   2.893  0.0754  0.1596 -0.2015
 1046PF6-    F214805   3.248   3.595   2.783  0.9929 -0.2365 -0.1040
 1046PF6-    F314806   3.174   3.813   3.003 -0.1604  0.3315 -0.1370
 1046PF6-    F414807   3.351   3.757   2.890 -0.1180 -0.5559 -0.2148
 1046PF6-    F514808   3.053   3.643   2.902 -0.0136 -0.1905 -0.2783
 1046PF6-    F614809   3.253   3.610   3.014  0.6247  0.1537 -0.5912
 1046PF6-    F714810   3.158   3.812   2.777 -0.1951  0.3437  0.5246
 1047PF6-    P114811   2.109   3.982   3.951  0.0142  0.4676 -0.1846
 1047PF6-    F214812   2.103   4.134   3.922 -0.0698  0.6680 -0.1299
 1047PF6-    F314813   2.125   3.822   3.978  0.3681 -0.9285  0.1670
 1047PF6-    F414814   2.273   3.995   3.978  0.5889  0.2771  0.5328
 1047PF6-    F514815   1.950   3.973   3.926 -0.0274  0.6829  0.3215
 1047PF6-    F614816   2.142   3.949   3.799 -0.1261 -0.2010  0.6121
 1047PF6-    F714817   2.091   4.006   4.110  0.6463 -0.1775  0.0766
 1048PF6-    P114818   1.019   5.472   2.023  0.4060 -0.6285  0.0539
 1048PF6-    F214819   1.050   5.622   2.084 -0.5404  0.0894  0.0055
 1048PF6-    F314820   0.981   5.328   1.954 -0.6476  0.1680  0.2289
 1048PF6-    F414821   0.924   5.446   2.144 -0.2730 -0.2941 -0.0625
 1048PF6-    F514822   1.114   5.510   1.897  0.0233  0.0077 -0.0353
 1048PF6-    F614823   1.144   5.403   2.104  0.4699 -0.5731 -0.2976
 1048PF6-    F714824   0.898   5.541   1.944 -0.0524 -0.7070  0.1016
 1049PF6-    P114825   4.151   0.727   2.000  0.2214  0.0694 -0.1936
 1049PF6-    F214826   4.185   0.767   2.155  0.0272 -0.5014  0.1857
 1049PF6-    F314827   4.119   0.687   1.842  0.1776 -0.6124 -0.7708
 1049PF6-    F414828   3.998   0.734   2.032  0.0661 -0.2774  0.2805
 1049PF6-    F514829   4.302   0.716   1.979  0.6927 -0.5512  0.0502
 1049PF6-    F614830   4.152   0.575   2.038 -0.1916  0.3608 -0.1577
 1049PF6-    F714831   4.161   0.881   1.961 -0.4140  0.0980  0.2156
 1050PF6-    P114832   3.914   2.524   0.063 -0.0145  0.8896  0.3646
 1050PF6-    F214833   3.819   2.394   0.053  0.1962  0.7308 -0.2256
 1050PF6-    F314834   4.020   2.649   0.080 -0.5322  0.2258 -0.7318
 1050PF6-    F414835   3.799   2.612  -0.006 -0.7625  0.1921  0.0234
 1050PF6-    F514836   4.021   2.428   0.131  0.1483 -0.1217 -0.2403
 1050PF6-    F614837   3.966   2.491  -0.087 -0.0575  0.6042 -0.1219
 1050PF6-    F714838   3.850   2.558   0.207 -0.3178  0.0538 -0.6620
 1051PF6-    P114839   4.757   3.898   1.385 -0.4287  0.3174  0.0332
 1051PF6-    F214840   4.646   3.806   1.319 -0.5781  0.0645 -0.3706
 1051PF6-    F314841   4.875   3.981   1.450 -0.4588  0.5647  0.4025
 1051PF6-    F414842   4.647   4.003   1.425  0.4910  0.1457 -0.7465
 1051PF6-    F514843   4.863   3.786   1.336  0.2826 -0.4061 -0.9114
 1051PF6-    F614844   4.780   3.971   1.250  0.1393  0.0883  0.2086
 1051PF6-    F714845   4.733   3.820   1.528 -0.1107 -0.5447  0.1354
 1052PF6-    P114846   5.248   2.960   0.420  0.6559  0.0934 -0.3621
 1052PF6-    F214847   5.233   3.095   0.505 -0.3785 -0.0837 -0.3636
 1052PF6-    F314848   5.265   2.821   0.346 -0.0088 -0.0467 -0.4598
 1052PF6-    F414849   5.149   3.020   0.308  0.1222  0.1147 -0.1941
 1052PF6-    F514850   5.342   2.897   0.539  0.1406  0.5295 -0.1444
 1052PF6-    F614851   5.121   2.904   0.500 -0.0131 -0.1365  0.5116
 1052PF6-    F714852   5.374   3.026   0.343  0.1760 -0.5105 -0.4546
 1053PF6-    P114853   4.677   4.996   0.499  0.0683  0.0473  0.2394
 1053PF6-    F214854   4.768   5.093   0.410 -0.4431  0.3842  0.0575
 1053PF6-    F314855   4.588   4.905   0.608 -0.2823  0.4476  0.1040
 1053PF6-    F414856   4.800   4.988   0.607 -0.5084 -0.2250  0.0663
 1053PF6-    F514857   4.555   5.005   0.395  0.3824  0.1375 -0.0479
 1053PF6-    F614858   4.733   4.865   0.427  0.3957  0.0897  0.3589
 1053PF6-    F714859   4.621   5.131   0.573 -0.5520 -0.1577  0.1837
 1054PF6-    P114860   2.634   3.016   4.904  0.1345 -0.2584  0.2599
 1054PF6-    F214861   2.662   3.124   4.789 -0.5805  0.7381  0.1134
 1054PF6-    F314862   2.610   2.913   5.023 -0.7220 -0.1644 -0.4211
 1054PF6-    F414863   2.793   2.982   4.914 -0.3443  0.2817 -0.4743
 1054PF6-    F514864   2.476   3.046   4.896  0.5493 -0.0263  0.1785
 1054PF6-    F614865   2.618   2.895   4.794 -0.7885 -0.0567 -0.1252
 1054PF6-    F714866   2.653   3.137   5.008 -0.2706 -0.2313 -0.4963
 1055PF6-    P114867   3.070   4.294   4.461 -0.1596 -0.0425  0.2326
 1055PF6-    F214868   2.938   4.293   4.551  0.0524  0.1548  0.5912
 1055PF6-    F314869   3.203   4.294   4.373  0.1675 -0.0479  0.4542
 1055PF6-    F414870   3.015   4.161   4.395 -0.4459 -0.1783  0.0594
 1055PF6-    F514871   3.127   4.428   4.533  0.1186  0.2312  0.2996
 1055PF6-    F614872   3.149   4.209   4.575  0.0030  0.4145  0.5598
 1055PF6-    F714873   2.987   4.379   4.353 -0.2888  0.1434  0.2353
 1056PF6-    P114874   0.864   3.832   5.162  0.1953  0.0104 -0.0167
 1056PF6-    F214875   0.909   3.820   5.008 -0.0124 -0.3653 -0.0458
 1056PF6-    F314876   0.821   3.839   5.317 -0.0441  0.1795 -0.3135
 1056PF6-    F414877   0.948   3.700   5.188  0.3628  0.2239  0.1515
 1056PF6-    F514878   0.781   3.965   5.134  0.0660 -0.1116  0.0733
 1056PF6-    F614879   0.733   3.748   5.129 -0.3315 -0.1743 -0.6825
 1056PF6-    F714880   0.987   3.927   5.198 -0.1066  0.2868  0.0648
 1057PF6-    P114881   2.434   1.806   2.500  0.1879 -0.4813  0.0051
 1057PF6-    F214882   2.512   1.875   2.377  0.2815 -0.0815  0.2474
 1057PF6-    F314883   2.349   1.746   2.624 -0.0880 -0.8299  0.0728
 1057PF6-    F414884   2.315   1.753   2.403  0.1016  0.0988  0.3161
 1057PF6-    F514885   2.550   1.855   2.600  0.1646 -0.3022  0.1271
 1057PF6-    F614886   2.351   1.949   2.523 -0.1781  0.6195  0.1725
 1057PF6-    F714887   2.512   1.666   2.483  0.5108  0.1722 -0.0049
 1058PF6-    P114888   1.201   0.522   0.398  0.3457 -0.2077 -0.4681
 1058PF6-    F214889   1.086   0.601   0.321 -0.0716  0.0309 -0.2971
 1058PF6-    F314890   1.316   0.443   0.477 -0.6068 -0.0516  0.3688
 1058PF6-    F414891   1.109   0.525   0.530  0.1298  0.4282 -0.2802
 1058PF6-    F514892   1.290   0.517   0.264 -0.3771  0.7013  0.0293
 1058PF6-    F614893   1.271   0.657   0.436 -0.0950 -0.4329 -0.2846
 1058PF6-    F714894   1.143   0.379   0.358  0.3451 -0.0562  0.3179
 1059PF6-    P114895   1.718   2.603   0.260  0.2125 -0.0001  0.1662
 1059PF6-    F214896   1.611   2.648   0.366  0.1129 -0.2759  0.4641
 1059PF6-    F314897   1.827   2.558   0.160  0.0497  0.2315  0.0339
 1059PF6-    F414898   1.756   2.753   0.229 -0.1194  0.0725 -0.0022
 1059PF6-    F514899   1.687   2.450   0.298  0.2349 -0.6386 -0.1212
 1059PF6-    F614900   1.613   2.601   0.142  0.1399 -0.1260 -0.9382
 1059PF6-    F714901   1.827   2.608   0.373  0.4330 -0.0542  0.2501
 1060PF6-    P114902   4.234   4.958   4.104 -0.1488 -0.0736  0.0202
 1060PF6-    F214903   4.251   4.826   4.185 -0.1386 -0.1347 -0.1414
 1060PF6-    F314904   4.227   5.097   4.019  0.0256  0.1757 -0.5932
 1060PF6-    F414905   4.364   4.930   4.028 -0.0288  0.5028  0.2057
 1060PF6-    F514906   4.099   4.999   4.185  0.0698 -0.2985  0.5321
 1060PF6-    F614907   4.320   5.038   4.211  0.1941  0.0194 -0.4763
 1060PF6-    F714908   4.151   4.880   4.002  0.7429  0.0726  0.1379
 1061PF6-    P114909   3.825   4.131   3.886  0.1523  0.0601  0.4105
 1061PF6-    F214910   3.823   4.027   3.762  0.3795  0.5309  0.1870
 1061PF6-    F314911   3.822   4.238   4.006  0.0140 -0.0350  0.0040
 1061PF6-    F414912   3.921   4.227   3.802 -0.1275 -0.3478  0.1245
 1061PF6-    F514913   3.722   4.041   3.971 -0.0315  0.2212  0.0979
 1061PF6-    F614914   3.956   4.063   3.952 -0.0435  0.3640 -0.4553
 1061PF6-    F714915   3.699   4.208   3.825  0.0088  0.0730 -0.4062
 1062PF6-    P114916   3.998   2.785   1.094  0.4180 -0.2080  0.0158
 1062PF6-    F214917   3.905   2.873   1.010  0.3566  0.0443  0.9991
 1062PF6-    F314918   4.093   2.692   1.183 -0.6713 -0.1210  0.0046
 1062PF6-    F414919   4.096   2.759   0.967  0.3651  0.3323 -0.7669
 1062PF6-    F514920   3.908   2.810   1.225  0.1746 -0.6021 -0.7884
 1062PF6-    F614921   3.919   2.656   1.057 -0.5369  0.5354 -0.1359
 1062PF6-    F714922   4.084   2.917   1.130 -0.2311 -0.3105 -0.2361
 1063PF6-    P114923   1.319   5.477   3.777 -0.6453  0.2877  0.1873
 1063PF6-    F214924   1.245   5.589   3.694 -0.3080 -0.1114 -0.1782
 1063PF6-    F314925   1.392   5.369   3.869 -0.2282 -0.1651  0.0924
 1063PF6-    F414926   1.210   5.365   3.733  0.3048 -0.6446 -0.1319
 1063PF6-    F514927   1.419   5.594   3.834  0.0227 -0.1155  0.7875
 1063PF6-    F614928   1.227   5.510   3.901 -0.2215 -0.5602 -0.1340
 1063PF6-    F714929   1.412   5.438   3.644 -0.1380 -0.0920 -0.1758
 1064PF6-    P114930   2.440   2.872   3.902 -0.1211  0.0629 -0.1490
 1064PF6-    F214931   2.519   2.818   4.030  0.3545  0.2898  0.6347
 1064PF6-    F314932   2.355   2.930   3.775  0.0805  0.2040 -0.0217
 1064PF6-    F414933   2.572   2.905   3.829 -0.3672 -0.4502  0.0823
 1064PF6-    F514934   2.298   2.846   3.976 -0.3484  0.2139  0.8588
 1064PF6-    F614935   2.436   3.018   3.960 -0.0445 -0.4047  0.0500
 1064PF6-    F714936   2.446   2.721   3.839 -0.7002 -0.1256  0.1758
 1065PF6-    P114937   0.690   4.257   0.071 -0.0252  0.2750  0.1625
 1065PF6-    F214938   0.719   4.326   0.207  0.2955  0.0478  0.9629
 1065PF6-    F314939   0.665   4.182  -0.068 -0.4159 -0.0662 -0.6077
 1065PF6-    F414940   0.700   4.113   0.139 -0.2441 -0.3531 -0.1952
 1065PF6-    F514941   0.683   4.397  -0.001 -0.0573  0.2689 -0.2128
 1065PF6-    F614942   0.847   4.251   0.046 -0.3155 -0.3252  0.0082
 1065PF6-    F714943   0.535   4.261   0.108 -0.1959  0.3984 -0.0966
 1066PF6-    P114944   0.288   3.127   2.072  0.0870 -0.0842  0.0623
 1066PF6-    F214945   0.166   3.186   2.153 -0.2908  0.7963 -0.8668
 1066PF6-    F314946   0.412   3.073   1.984 -0.8396  0.2128  0.6422
 1066PF6-    F414947   0.203   3.153   1.932 -0.1937  0.1705 -0.2493
 1066PF6-    F514948   0.368   3.108   2.204 -0.2341  0.3167 -0.1363
 1066PF6-    F614949   0.236   2.975   2.090 -0.2252 -0.2244  0.1317
 1066PF6-    F714950   0.351   3.273   2.056  0.5499  0.7577  0.2407
 1067PF6-    P114951   1.828   0.559   4.543  0.2132  0.0628 -0.1571
 1067PF6-    F214952   1.741   0.658   4.456 -0.3026 -0.1609 -0.5714
 1067PF6-    F314953   1.920   0.464   4.638 -0.1913 -0.3895  0.4608
 1067PF6-    F414954   1.926   0.529   4.420 -0.6848 -0.0657  0.0217
 1067PF6-    F514955   1.727   0.579   4.663 -0.0637 -0.3555  0.1556
 1067PF6-    F614956   1.741   0.431   4.498  0.5450 -0.6955 -0.0613
 1067PF6-    F714957   1.918   0.685   4.591 -0.2183  0.4641 -0.3140
 1068PF6-    P114958   2.421   0.979   2.529 -0.3725  0.2209  0.0895
 1068PF6-    F214959   2.457   0.925   2.380 -0.0898 -0.6544 -0.0959
 1068PF6-    F314960   2.389   1.032   2.675 -0.0785 -0.4793  0.0939
 1068PF6-    F414961   2.505   1.113   2.506  0.0950  0.0931  0.2221
 1068PF6-    F514962   2.352   0.842   2.567  0.0289  0.1409  0.2975
 1068PF6-    F614963   2.555   0.915   2.590  0.2489  0.1314 -0.0069
 1068PF6-    F714964   2.283   1.044   2.481  0.4060  0.2694  0.1027
 1069PF6-    P114965   3.771   0.323   1.301  0.1406  0.1054  0.3290
 1069PF6-    F214966   3.777   0.454   1.397 -0.1005  0.1750  0.2121
 1069PF6-    F314967   3.758   0.191   1.206 -0.0137 -0.0576  0.2452
 1069PF6-    F414968   3.927   0.288   1.345 -0.3935 -0.0216 -0.1231
 1069PF6-    F514969   3.622   0.353   1.260 -0.1518  0.0895  0.0198
 1069PF6-    F614970   3.826   0.412   1.174  0.1262  0.4670 -0.1165
 1069PF6-    F714971   3.721   0.236   1.428  0.9656  0.5190  0.0043
 1070PF6-    P114972   4.896   0.394   1.703  0.1690  0.2818  0.2371
 1070PF6-    F214973   4.962   0.403   1.852 -0.0055  0.1557  0.5614
 1070PF6-    F314974   4.824   0.387   1.557 -0.1091 -0.3202 -0.6262
 1070PF6-    F414975   4.786   0.296   1.758  0.0274 -0.5920  0.0149
 1070PF6-    F514976   5.004   0.502   1.649 -0.3004 -0.1292 -0.1145
 1070PF6-    F614977   4.996   0.273   1.660 -0.5598  0.2091 -0.6404
 1070PF6-    F714978   4.799   0.511   1.747  0.3278 -0.3418 -0.4213
 1071PF6-    P114979   3.042   1.143   2.224  0.0850  0.0358  0.3130
 1071PF6-    F214980   3.052   1.296   2.201 -0.0462  0.0181  0.0911
 1071PF6-    F314981   3.028   0.988   2.258 -0.0110 -0.1414  0.1052
 1071PF6-    F414982   2.918   1.132   2.126 -0.4711  0.9122 -0.1961
 1071PF6-    F514983   3.162   1.153   2.326  0.3429  0.0595 -0.0843
 1071PF6-    F614984   2.936   1.167   2.342 -0.4359 -0.1373  0.2176
 1071PF6-    F714985   3.143   1.121   2.102  0.1185  0.2022  0.4887
 1072PF6-    P114986   4.319   1.323   0.332  0.0790 -0.1545 -0.1101
 1072PF6-    F214987   4.210   1.271   0.443  0.0394  0.0337  0.6268
 1072PF6-    F314988   4.431   1.383   0.225  0.2753  0.0395  0.5005
 1072PF6-    F414989   4.206   1.399   0.247  0.3256 -0.0327 -0.1294
 1072PF6-    F514990   4.435   1.260   0.421 -0.2420  0.8437  0.4070
 1072PF6-    F614991   4.298   1.186   0.249 -0.2357  0.3459 -0.5770
 1072PF6-    F714992   4.329   1.456   0.420 -0.1391  0.3836 -0.1531
 1073PF6-    P114993   4.961   3.832   0.230  0.2786 -0.2581  0.1594
 1073PF6-    F214994   4.987   3.725   0.115  0.5192 -0.1251 -0.4817
 1073PF6-    F314995   4.939   3.943   0.337 -0.0910  0.0908 -0.1408
 1073PF6-    F414996   4.866   3.733   0.311  0.4640  0.1270  0.2438
 1073PF6-    F514997   5.062   3.932   0.154 -0.6125 -0.7716 -0.0412
 1073PF6-    F614998   4.843   3.886   0.139 -0.2603  0.0443 -0.1738
 1073PF6-    F714999   5.081   3.780   0.320 -0.2490 -0.1313  0.3088
 1074PF6-    P115000   1.512   2.547   1.556 -0.0780 -0.4798  0.0127
 1074PF6-    F215001   1.575   2.615   1.685  0.1004  0.0493 -0.0964
 1074PF6-    F315002   1.450   2.482   1.424 -0.0500  0.1297  0.1471
 1074PF6-    F415003   1.365   2.555   1.617  0.1797  0.0366 -0.4216
 1074PF6-    F515004   1.653   2.544   1.493 -0.1269 -0.4868 -0.4788
 1074PF6-    F615005   1.538   2.404   1.629 -0.1391 -0.1213 -0.8108
 1074PF6-    F715006   1.494   2.687   1.492 -0.2006 -0.1203 -0.4624
 1075PF6-    P115007   1.930   2.691   2.467 -0.0745  0.1296 -0.2237
 1075PF6-    F215008   2.048   2.714   2.574 -0.5003 -0.1470 -0.5406
 1075PF6-    F315009   1.809   2.676   2.368  0.0117 -0.2537  0.2117
 1075PF6-    F415010   1.991   2.555   2.406 -0.3034  0.2130  0.6780
 1075PF6-    F515011   1.870   2.824   2.527  0.7683 -0.1119 -0.6457
 1075PF6-    F615012   2.012   2.767   2.353  0.7229  0.1691 -0.5415
 1075PF6-    F715013   1.847   2.607   2.582 -0.1825  0.4253 -0.2980
 1076PF6-    P115014   4.103   1.112   3.000 -0.3495 -0.0927 -0.2520
 1076PF6-    F215015   3.971   1.102   3.081 -0.2365 -0.2126 -0.4801
 1076PF6-    F315016   4.241   1.131   2.919  0.4160  0.3121  0.1773
 1076PF6-    F415017   4.178   1.042   3.121  0.3186  0.5917 -0.2519
 1076PF6-    F515018   4.026   1.175   2.879  0.3948  0.4919 -0.2389
 1076PF6-    F615019   4.135   1.254   3.058 -0.6050 -0.0125 -0.0209
 1076PF6-    F715020   4.077   0.970   2.931  0.4297  0.5493 -0.4484
 1077PF6-    P115021   3.534   3.264   0.753 -0.1235  0.3386  0.0752
 1077PF6-    F215022   3.672   3.340   0.767 -0.2984  0.3311  0.2384
 1077PF6-    F315023   3.398   3.189   0.727 -0.0394 -0.3269  0.1941
 1077PF6-    F415024   3.624   3.133   0.736 -0.0366 -0.0174  0.0412
 1077PF6-    F515025   3.450   3.394   0.767 -0.0597 -0.6628 -0.1306
 1077PF6-    F615026   3.548   3.294   0.596 -0.2245  0.3681  0.2204
 1077PF6-    F715027   3.525   3.245   0.913 -0.1963  0.1607 -0.2739
 1078PF6-    P115028   4.133   1.734   4.303 -0.8343  0.0581 -0.3906
 1078PF6-    F215029   4.066   1.735   4.448 -0.5125  0.3499 -0.1126
 1078PF6-    F315030   4.208   1.725   4.163 -0.0334  0.0831  0.2991
 1078PF6-    F415031   3.991   1.722   4.236 -0.2563  0.6188 -0.1715
 1078PF6-    F515032   4.280   1.747   4.379 -0.1702 -0.3336 -0.0266
 1078PF6-    F615033   4.150   1.575   4.319 -0.1994  0.0539  0.1053
 1078PF6-    F715034   4.125   1.893   4.285  0.1837  0.3948  0.1402
 1079PF6-    P115035   4.967   4.069   2.891  0.0601  0.2902 -0.2223
 1079PF6-    F215036   4.909   4.119   3.030  0.1304 -0.1718 -0.0384
 1079PF6-    F315037   5.028   4.013   2.751  0.2750 -0.1585  0.2537
 1079PF6-    F415038   5.085   4.185   2.903 -0.1928  1.0635  0.1527
 1079PF6-    F515039   4.854   3.952   2.888 -0.0706 -0.1056  0.1054
 1079PF6-    F615040   4.865   4.168   2.809  0.5153 -0.0441  0.7503
 1079PF6-    F715041   5.068   3.968   2.969  0.5943 -0.3218 -0.0437
 1080PF6-    P115042   0.604   3.128   3.469 -0.3773 -0.0407 -0.1461
 1080PF6-    F215043   0.737   3.164   3.544 -0.0222 -0.6286 -0.7441
 1080PF6-    F315044   0.478   3.087   3.377  0.1463 -0.0611 -0.0858
 1080PF6-    F415045   0.673   2.996   3.423  0.0394  0.2132  0.2925
 1080PF6-    F515046   0.533   3.259   3.519  0.0740  0.2342  0.2634
 1080PF6-    F615047   0.666   3.207   3.346 -0.8590 -0.3433  0.1251
 1080PF6-    F715048   0.543   3.053   3.593 -0.0507  0.2191 -0.0446
 1081PF6-    P115049   1.220   4.509   3.745  0.0498 -0.7862 -0.0032
 1081PF6-    F215050   1.283   4.426   3.626 -0.2752 -0.1703 -0.0801
 1081PF6-    F315051   1.161   4.595   3.870  0.2815  0.5804  0.0920
 1081PF6-    F415052   1.201   4.380   3.836 -0.1969 -0.1508 -0.0936
 1081PF6-    F515053   1.247   4.644   3.667 -0.1182  0.0677  0.3302
 1081PF6-    F615054   1.068   4.495   3.688 -0.3835 -0.2907 -0.3231
 1081PF6-    F715055   1.373   4.532   3.798  0.2598  0.5878 -0.5152
 1082PF6-    P115056   1.938   0.720   0.064  0.6310  0.2201  0.6287
 1082PF6-    F215057   2.066   0.712  -0.030  0.3107 -0.2339  0.3370
 1082PF6-    F315058   1.807   0.719   0.156  0.1341  0.3298 -0.7929
 1082PF6-    F415059   1.919   0.874   0.034  0.0107 -0.2048  0.0302
 1082PF6-    F515060   1.969   0.565   0.098 -0.2428  0.0612  0.3322
 1082PF6-    F615061   2.026   0.763   0.192  0.4024 -0.1013  0.0444
 1082PF6-    F715062   1.850   0.685  -0.060 -0.0082 -0.5969  0.2138
 1083PF6-    P115063   1.171   2.437   4.130 -0.2401  0.3945  0.3829
 1083PF6-    F215064   1.083   2.566   4.122  0.1586 -0.1148 -0.1011
 1083PF6-    F315065   1.262   2.304   4.125  0.0882 -0.2098  0.2667
 1083PF6-    F415066   1.169   2.445   3.969  0.3924 -0.4404  0.9668
 1083PF6-    F515067   1.175   2.444   4.289  0.2371  0.4430  0.0005
 1083PF6-    F615068   1.035   2.351   4.135 -0.1161  0.0644  0.1744
 1083PF6-    F715069   1.305   2.529   4.127 -0.0560  0.1000  0.3276
 1084PF6-    P115070   3.765   1.152   0.862 -0.1310 -0.1928 -0.2977
 1084PF6-    F215071   3.818   1.307   0.879 -0.0722  0.2413 -0.0134
 1084PF6-    F315072   3.714   1.002   0.839  0.2035  0.2749  0.2458
 1084PF6-    F415073   3.821   1.149   0.712 -0.2715 -0.1429  0.0580
 1084PF6-    F515074   3.696   1.154   1.006  0.1713 -0.9853 -0.0174
 1084PF6-    F615075   3.628   1.204   0.803  0.4999 -0.3288 -0.1761
 1084PF6-    F715076   3.899   1.094   0.924  0.1792  0.0250  0.2726
 1085PF6-    P115077   2.538   0.996   4.330  0.1187  0.3500 -0.0515
 1085PF6-    F215078   2.580   1.135   4.260  0.6818  0.3575 -0.3454
 1085PF6-    F315079   2.501   0.860   4.401 -0.2451  0.0435  0.2826
 1085PF6-    F415080   2.603   0.917   4.204  0.3793 -0.0164 -0.1002
 1085PF6-    F515081   2.476   1.066   4.456 -0.2926  0.0565 -0.0098
 1085PF6-    F615082   2.392   1.002   4.263  0.1575 -0.0498 -0.3675
 1085PF6-    F715083   2.676   0.998   4.404 -0.4872  0.6265  0.0573
 1086PF6-    P115084   1.229   0.992   1.240  0.3575 -0.2699  0.1733
 1086PF6-    F215085   1.077   1.041   1.263 -0.4890  0.3414  0.1152
 1086PF6-    F315086   1.375   0.931   1.218 -0.5738 -0.2674  0.1342
 1086PF6-    F415087   1.181   0.859   1.311  0.2403  0.1984 -0.6321
 1086PF6-    F515088   1.277   1.123   1.155 -0.3448  0.1071 -0.1067
 1086PF6-    F615089   1.267   1.063   1.378 -0.3437  0.2068 -0.3399
 1086PF6-    F715090   1.185   0.926   1.107 -0.2706  0.0926 -0.8295
 1087PF6-    P115091   2.982   5.222   0.930 -0.0184 -0.5036 -0.0978
 1087PF6-    F215092   3.087   5.216   1.053 -0.2883 -0.1134 -0.3620
 1087PF6-    F315093   2.869   5.228   0.812  0.4264  0.0777 -0.1924
 1087PF6-    F415094   3.056   5.354   0.872 -0.0361  0.4058  0.3714
 1087PF6-    F515095   2.909   5.092   0.992  0.3758  0.2636  0.0806
 1087PF6-    F615096   2.892   5.320   1.021 -0.1870 -0.1786  0.3517
 1087PF6-    F715097   3.077   5.127   0.843 -0.9758  0.3112  0.0920
 1088PF6-    P115098   1.655   1.469   4.018  0.1311  0.0565 -0.5457
 1088PF6-    F215099   1.709   1.578   3.916  0.0214 -0.1783 -0.3536
 1088PF6-    F315100   1.599   1.352   4.121 -0.5728 -0.1982 -0.6860
 1088PF6-    F415101   1.555   1.574   4.085  0.4529 -0.1894  0.2795
 1088PF6-    F515102   1.749   1.360   3.944 -0.1727  0.3324 -0.4690
 1088PF6-    F615103   1.766   1.515   4.123 -0.7812 -0.0924 -0.0062
 1088PF6-    F715104   1.536   1.430   3.919 -0.5500  0.5177  0.6269
 1089PF6-    P115105   3.271   3.582   1.709 -0.8482 -0.0067 -0.1694
 1089PF6-    F215106   3.384   3.699   1.707 -0.5791  0.3210  0.0403
 1089PF6-    F315107   3.157   3.467   1.713 -0.3073  0.1225  0.0821
 1089PF6-    F415108   3.381   3.474   1.737  0.2793 -0.2043  0.2510
 1089PF6-    F515109   3.157   3.687   1.679  0.1115 -0.1590  0.3197
 1089PF6-    F615110   3.295   3.564   1.557 -0.2865 -0.1082  0.3890
 1089PF6-    F715111   3.248   3.607   1.864  0.3755  0.4585  0.0063
 1090PF6-    P115112   4.555   1.892   1.766 -0.3478  0.2272  0.0688
 1090PF6-    F215113   4.424   1.818   1.831  0.1690  0.7202  0.1933
 1090PF6-    F315114   4.676   1.956   1.696 -0.2849  0.2334 -0.0746
 1090PF6-    F415115   4.652   1.812   1.864  0.0222  0.2798 -0.2767
 1090PF6-    F515116   4.458   1.966   1.669  0.4172  0.2860  0.4247
 1090PF6-    F615117   4.539   2.014   1.874 -0.1798 -0.1596  0.4204
 1090PF6-    F715118   4.568   1.766   1.663 -0.1063 -0.2915 -0.2385
 1091PF6-    P115119   3.528   1.662   3.716  0.1652 -0.2363  0.1900
 1091PF6-    F215120   3.501   1.571   3.846 -0.1475 -0.1621 -0.6259
 1091PF6-    F315121   3.558   1.752   3.587 -0.4699  0.7439 -0.3898
 1091PF6-    F415122   3.489   1.791   3.796  0.0391 -0.4816 -0.7562
 1091PF6-    F515123   3.569   1.535   3.631 -0.3200 -0.2173  0.2935
 1091PF6-    F615124   3.373   1.647   3.666 -0.6134 -0.3638  0.4281
 1091PF6-    F715125   3.679   1.688   3.759 -0.3145  0.1453 -0.1625
 1092PF6-    P115126   1.811   0.322   2.876 -0.4535 -0.2511 -0.0607
 1092PF6-    F215127   1.665   0.267   2.846 -0.1243 -0.1128 -0.1738
 1092PF6-    F315128   1.959   0.385   2.900 -0.0138 -0.3804 -0.7296
 1092PF6-    F415129   1.737   0.453   2.937 -0.0180  0.1151  0.0532
 1092PF6-    F515130   1.871   0.191   2.820 -0.6093 -0.5121  0.6542
 1092PF6-    F615131   1.815   0.385   2.730 -0.0681 -0.5866 -0.4047
 1092PF6-    F715132   1.812   0.258   3.020  0.1074  0.3188 -0.2534
 1093PF6-    P115133   2.719   3.241   1.182 -0.0949  0.2899  0.2496
 1093PF6-    F215134   2.592   3.238   1.285 -0.3067 -0.0804  0.2615
 1093PF6-    F315135   2.839   3.243   1.081  0.0264 -0.6157  0.6532
 1093PF6-    F415136   2.801   3.326   1.287 -0.5173  0.2643  0.1371
 1093PF6-    F515137   2.629   3.159   1.074  0.2780  0.0025  0.6602
 1093PF6-    F615138   2.665   3.375   1.114 -0.4746 -0.1538 -0.5014
 1093PF6-    F715139   2.775   3.110   1.253  0.1723  0.7420  0.3775
 1094PF6-    P115140   1.839   4.394   0.628  0.1564  0.1586 -0.4020
 1094PF6-    F215141   1.777   4.327   0.758  0.4911 -0.2891 -0.3661
 1094PF6-    F315142   1.901   4.460   0.497  0.3977 -0.7828 -0.3058
 1094PF6-    F415143   1.853   4.244   0.568  0.2789  0.5205 -0.0908
 1094PF6-    F515144   1.824   4.539   0.689  0.4231 -0.4497  0.4563
 1094PF6-    F615145   1.981   4.382   0.691  0.2488  0.0747 -0.2074
 1094PF6-    F715146   1.694   4.409   0.568  0.1538 -0.2547  0.3374
 1095PF6-    P115147   4.555   4.283   4.341  0.2422 -0.5499  0.1880
 1095PF6-    F215148   4.534   4.210   4.205  0.0989  0.4285 -0.1606
 1095PF6-    F315149   4.570   4.357   4.486 -0.4589 -0.7742  0.4659
 1095PF6-    F415150   4.457   4.180   4.408  0.2906 -0.1017  0.1870
 1095PF6-    F515151   4.652   4.393   4.278 -0.3749  0.0743  0.1927
 1095PF6-    F615152   4.422   4.381   4.308  0.6913  0.3760 -0.5806
 1095PF6-    F715153   4.682   4.189   4.368  0.2910  0.3189  0.1869
 1096PF6-    P115154   2.141   2.037   3.729 -0.0640  0.0573  0.0159
 1096PF6-    F215155   2.260   2.138   3.685 -0.0118 -0.1137 -0.0991
 1096PF6-    F315156   2.029   1.933   3.763 -0.2679  0.2338  0.3142
 1096PF6-    F415157   2.244   1.936   3.799 -0.0212 -0.1537 -0.0797
 1096PF6-    F515158   2.037   2.139   3.663 -0.6531 -0.1305 -0.1089
 1096PF6-    F615159   2.161   1.961   3.594 -0.2072  0.0850  0.2866
 1096PF6-    F715160   2.132   2.113   3.874  0.2191  0.5019  0.6871
 1097PF6-    P115161   3.874   1.421   4.834  0.4186  0.0427 -0.0537
 1097PF6-    F215162   3.975   1.438   4.711  0.1559 -0.4267 -0.1282
 1097PF6-    F315163   3.772   1.405   4.953 -0.0177 -0.1793 -0.1507
 1097PF6-    F415164   3.859   1.265   4.807 -0.3763 -0.0223 -0.2487
 1097PF6-    F515165   3.883   1.580   4.855 -0.1773  0.7770 -0.2045
 1097PF6-    F615166   3.752   1.449   4.731  0.6712  0.0557  0.3971
 1097PF6-    F715167   3.998   1.393   4.937  0.4400  0.2244  0.4414
 1098PF6-    P115168   0.421   1.610   2.961  0.0448 -0.1526 -0.2379
 1098PF6-    F215169   0.570   1.618   3.005  0.2079 -0.2167 -1.1937
 1098PF6-    F315170   0.267   1.601   2.919  0.3888  0.3503  0.1267
 1098PF6-    F415171   0.434   1.452   2.960  0.3535 -0.0540 -0.2996
 1098PF6-    F515172   0.410   1.773   2.964 -0.2822 -0.1472  0.0453
 1098PF6-    F615173   0.468   1.618   2.805  0.0933  0.2353 -0.1749
 1098PF6-    F715174   0.379   1.602   3.117 -0.4424 -0.1070  0.2634
 1099PF6-    P115175   3.329   0.646   3.829  0.4865 -0.0674 -0.0421
 1099PF6-    F215176   3.221   0.689   3.717 -0.1702 -0.0637  0.1585
 1099PF6-    F315177   3.435   0.610   3.939  0.6166  0.2082  0.1456
 1099PF6-    F415178   3.433   0.600   3.712  0.1389  0.3029 -0.0466
 1099PF6-    F515179   3.228   0.694   3.944  0.1794 -0.4788 -0.0012
 1099PF6-    F615180   3.261   0.498   3.835 -0.0733  0.0173 -0.1260
 1099PF6-    F715181   3.386   0.797   3.818  0.4214  0.1177  0.3361
 1100PF6-    P115182   1.075   1.496   2.288  0.2370 -0.0049 -0.0135
 1100PF6-    F215183   0.955   1.461   2.386 -0.0124  0.2406 -0.2331
 1100PF6-    F315184   1.204   1.519   2.194 -0.0910 -0.4478 -0.2222
 1100PF6-    F415185   1.173   1.421   2.390 -0.0066  0.1121 -0.0271
 1100PF6-    F515186   0.984   1.583   2.189  0.6172 -0.3929  0.1922
 1100PF6-    F615187   1.108   1.630   2.367  0.2646 -0.5198  0.1867
 1100PF6-    F715188   1.033   1.364   2.205  0.4926  0.5589 -0.7208
 1101PF6-    P115189   0.474   1.823   0.452 -0.5524  0.2318  0.2646
 1101PF6-    F215190   0.363   1.701   0.437  0.6938 -0.4452 -0.2850
 1101PF6-    F315191   0.580   1.946   0.476 -0.1569  0.4092 -0.5233
 1101PF6-    F415192   0.386   1.926   0.367  0.5639  0.1544 -0.1469
 1101PF6-    F515193   0.570   1.726   0.536  0.4699  0.1869 -0.0158
 1101PF6-    F615194   0.549   1.783   0.317  0.3075 -0.1736  0.2601
 1101PF6-    F715195   0.399   1.864   0.583  0.6341 -0.1902  0.5593
 1102PF6-    P115196   1.404   3.293   3.405 -0.0995 -0.0513 -0.2579
 1102PF6-    F215197   1.532   3.293   3.503  0.2420  0.5249 -0.2288
 1102PF6-    F315198   1.274   3.310   3.312 -0.5707 -0.3480 -0.4011
 1102PF6-    F415199   1.323   3.370   3.522 -0.8316 -0.5080 -0.1623
 1102PF6-    F515200   1.484   3.214   3.293  0.3915  0.1307  0.2542
 1102PF6-    F615201   1.354   3.151   3.461 -0.0126 -0.1046 -0.9095
 1102PF6-    F715202   1.457   3.432   3.347  0.3085 -0.7488 -0.5553
 1103PF6-    P115203   3.489   1.392   0.477  0.6183 -0.3904  0.5270
 1103PF6-    F215204   3.447   1.547   0.470 -0.4725  0.0002 -0.3348
 1103PF6-    F315205   3.536   1.238   0.481 -0.0055  0.1137 -0.1804
 1103PF6-    F415206   3.620   1.443   0.547  0.2137  0.4092 -0.7927
 1103PF6-    F515207   3.346   1.351   0.403 -0.0725 -0.4124  0.6127
 1103PF6-    F615208   3.551   1.415   0.327 -0.3853 -0.3740 -0.2673
 1103PF6-    F715209   3.413   1.371   0.612 -0.2485  0.2961  0.3157
 1104PF6-    P115210   0.532   2.208   2.115 -0.0554  0.1683 -0.0419
 1104PF6-    F215211   0.530   2.336   2.207 -0.6845 -0.0390  0.0561
 1104PF6-    F315212   0.536   2.074   2.032 -0.9059 -0.2665  0.4524
 1104PF6-    F415213   0.603   2.125   2.231  0.2640 -0.3266 -0.0800
 1104PF6-    F515214   0.459   2.285   2.002  0.5135 -0.1292 -0.1021
 1104PF6-    F615215   0.669   2.254   2.051 -0.4243 -0.1027 -0.2750
 1104PF6-    F715216   0.391   2.158   2.175  0.1169 -0.0944 -0.4313
 1105PF6-    P115217   0.008   5.034   4.347  0.2986  0.2685 -0.2532
 1105PF6-    F215218  -0.106   5.060   4.235 -0.2232  0.4617 -0.5636
 1105PF6-    F315219   0.113   5.007   4.465  0.0558  0.1827  0.6786
 1105PF6-    F415220   0.114   5.124   4.264  0.4514 -0.3791  0.0520
 1105PF6-    F515221  -0.099   4.948   4.429 -0.2764 -0.4848 -0.0131
 1105PF6-    F615222   0.057   4.902   4.275 -0.1198 -0.5229  0.2482
 1105PF6-    F715223  -0.037   5.161   4.424  0.0385  0.1566 -0.3237
 1106PF6-    P115224   2.632   3.031   2.947 -0.1840 -0.1941 -0.0547
 1106PF6-    F215225   2.501   3.040   3.041 -0.3448 -0.3561  0.1725
 1106PF6-    F315226   2.760   3.022   2.847 -0.3482  0.5399 -0.2596
 1106PF6-    F415227   2.715   3.116   3.054 -0.1989  0.0400 -0.1480
 1106PF6-    F515228   2.544   2.942   2.850  0.5564 -0.3083 -0.3476
 1106PF6-    F615229   2.589   3.168   2.872 -0.0840 -0.1695  0.4356
 1106PF6-    F715230   2.676   2.901   3.026  0.0448 -0.1753  0.1690
 1107PF6-    P115231   4.105   1.934   2.619  0.0651 -0.3537 -0.3500
 1107PF6-    F215232   4.261   1.909   2.590 -0.0472  0.1981  0.4499
 1107PF6-    F315233   3.955   1.960   2.648 -0.0450 -0.3195  0.3346
 1107PF6-    F415234   4.134   2.099   2.605  0.0189 -0.1370 -0.1601
 1107PF6-    F515235   4.080   1.777   2.636 -0.1373 -0.4571  0.2131
 1107PF6-    F615236   4.144   1.941   2.774 -0.1207 -0.0749  0.3851
 1107PF6-    F715237   4.072   1.924   2.461 -0.0847  0.5706 -0.0395
 1108PF6-    P115238   4.980   3.066   2.472 -0.0215 -0.2008 -0.3588
 1108PF6-    F215239   4.904   2.955   2.381  1.0813 -0.1582 -0.0875
 1108PF6-    F315240   5.049   3.180   2.564 -0.1261  0.5564 -0.5761
 1108PF6-    F415241   5.115   3.038   2.396  0.3653  0.2225 -0.3510
 1108PF6-    F515242   4.840   3.091   2.552  0.7295 -0.1157 -0.1109
 1108PF6-    F615243   5.015   2.954   2.577 -0.8481  0.1209 -0.2743
 1108PF6-    F715244   4.945   3.180   2.366 -0.0522  0.1308 -0.1087
 1109Na+     N115245   0.131   1.174   1.603  0.0684  0.0911 -0.5493
 1110Na+     N115246   1.411   3.617   3.539 -0.2587  0.0800  0.0127
 1111Na+     N115247   3.785   3.408   4.034 -0.3674 -0.6768  0.0538
 1112Na+     N115248   0.619   4.983   3.932 -0.0516 -0.1957 -0.0334
 1113Na+     N115249   2.606   3.105   4.128  0.2151  0.2190  0.5347
 1114Na+     N115250   5.148   4.540   5.383 -0.4789 -0.4013 -0.2360
 1115Na+     N115251   3.472   3.003   2.479  0.1311  0.1478  0.5881
 1116Na+     N115252   2.613   4.821   4.341 -0.1115 -0.1991  0.3454
 1117Na+     N115253   1.170   0.166   3.479 -0.0024 -0.4571  0.0004
 1118Na+     N115254   3.140   5.119   5.026 -0.0126 -0.1435 -0.1871
 1119Na+     N115255   1.469   0.673   4.060 -0.3573  0.2718 -0.3075
 1120Na+     N115256   1.434   4.754   5.124  0.2214 -0.0751  0.5998
 1121Na+     N115257   3.407   1.999   3.938  0.3988 -0.1922 -0.1053
 1122Na+     N115258   2.297   2.936   5.419  0.1242 -0.5033 -0.0727
 1123Na+     N115259   2.627   2.517   2.271 -0.6530 -0.5806 -0.0468
 1124Na+     N115260   2.088   1.625   2.687 -0.0599  0.0919  0.2296
 1125Na+     N115261   4.037   2.190   2.329  0.0336  0.0381  0.1270
 1126Na+     N115262   1.575   3.693   0.780 -0.5798  0.4102  0.1417
 1127Na+     N115263   1.699   3.635   2.736 -0.0088 -0.1411  0.3462
 1128Na+     N115264   2.498   3.753   1.640 -0.3625  0.1892 -0.4631
 1129Na+     N115265   4.006   0.393   2.928  0.1346 -0.0875  0.4933
 1130Na+     N115266   2.997   2.971   1.297 -0.1230 -0.0998  0.0656
 1131Na+     N115267   4.515   1.019   0.238  0.1524  0.2854 -0.3558
 1132Na+     N115268   0.729   1.059   0.851  0.1022  0.1963  0.2573
 1133Na+     N115269   3.787   4.416   3.685  0.0110  0.0193  0.0158
 1134Na+     N115270   4.343   4.613   4.244  0.2030 -0.0706  0.0577
 1135Na+     N115271   3.643   0.441   3.649  0.2124  0.2079 -0.7588
 1136Na+     N115272   0.094   3.432   2.129  0.3783 -0.5032 -0.1636
 1137Na+     N115273   0.298   3.584   4.662  0.3700 -0.5700  0.1681
 1138Na+     N115274   0.536   4.138   0.407 -0.4385 -0.2276  0.7248
 1139Na+     N115275   4.492   1.291   2.241  0.1961 -0.1098 -0.3627
 1140Na+     N115276   5.294   3.130   0.795  0.1599 -0.0224  0.0997
 1141Na+     N115277   2.877   3.643   0.733  0.0722  0.1802 -0.4948
 1142Na+     N115278   0.657   3.314   1.495 -0.0119 -0.4956 -0.3165
 1143Na+     N115279   4.637   2.366   1.056 -0.1839 -0.3331 -0.1334
 1144Na+     N115280   4.011   1.689   4.679  0.0436 -0.2933  0.1834
 1145Na+     N115281   1.935   4.399   3.355 -0.2535 -0.2129  0.7629
 1146Na+     N115282   2.320   4.127   0.264  0.0087 -0.1405  0.1715
 1147Na+     N115283   2.640   2.310   4.297 -0.2782  0.1909  0.3010
 1148Na+     N115284   5.370   1.904   1.093  0.0451 -0.1477  0.2986
 1149Na+     N115285   1.368   2.905   3.535  0.5076  0.0548 -0.1174
 1150Na+     N115286   0.637   2.507   2.811 -0.1780 -0.2315 -0.4545
 1151Na+     N115287   5.371   2.532   5.066  0.2309  0.4467 -0.3590
 1152Na+     N115288   0.893   4.133   5.331 -0.0055  0.4696  0.4309
 1153Na+     N115289   1.972   1.317   4.540 -0.6591 -0.2050 -0.1408
 1154Na+     N115290   3.678   1.215   2.266  0.1394  0.4685  0.1979
 1155Na+     N115291   3.647   1.819   5.480 -0.3874 -0.2133  0.2088
 1156Na+     N115292   3.592   4.484   4.917  0.5638  0.4507 -0.0449
 1157Na+     N115293   2.705   1.135   2.375 -0.0232 -0.0696  0.3815
 1158Na+     N115294   2.508   0.613   4.452  0.5671 -0.2687  0.3360
 1159Na+     N115295   4.829   0.189   1.995  0.3251 -0.0259  0.0595
 1160Na+     N115296   2.744   3.235   3.309 -0.4968  0.4220  0.3510
 1161Na+     N115297   3.970   0.141   5.036  0.1242  0.0566 -0.0085
 1162Na+     N115298   1.256   0.126   1.744 -0.2145  0.1397 -0.4122
 1163Na+     N115299   0.919   2.136   4.009  0.4216 -0.2307 -0.2290
 1164Na+     N115300   3.857   1.165   4.030 -0.0076 -0.2918  0.4962
 1165Na+     N115301   1.135   2.008   0.300 -0.2141 -0.0466 -0.0974
 1166Na+     N115302   1.884   1.748   3.866 -0.0389 -0.3221  0.0091
 1167Na+     N115303   3.710   1.054   0.525  0.1489 -0.2763  0.0346
 1168Na+     N115304   5.042   3.992   2.029 -0.2580  0.3654 -0.4100
 1169Na+     N115305   4.671   1.041   3.323 -0.1450 -0.0019 -0.4988
 1170Na+     N115306   3.533   3.439   5.400 -0.2071 -0.3950  0.5409
 1171Na+     N115307   4.781   4.657   1.110  0.1966  0.1370 -0.3686
 1172Na+     N115308   2.711   1.490   0.490  0.2898 -0.2482  0.0604
 1173Na+     N115309   1.694   2.782   1.832 -0.0308  0.2174 -0.0288
 1174Na+     N115310   4.295   5.244   3.845  0.2504  0.0239 -0.6211
 1175Na+     N115311   3.783   1.518   0.760  0.4157  0.1045 -0.3201
 1176Na+     N115312   4.888   3.683   1.101  0.0260 -0.4911  0.0101
 1177Na+     N115313   2.136   0.479   2.775 -0.1613  0.4560  0.3661
 1178Na+     N115314   4.401   4.011   4.560 -0.1827  0.3071 -0.2820
 1179Na+     N115315   0.435   1.232   4.985  0.1506 -0.1221 -0.3848
 1180Na+     N115316   1.605   1.207   0.607  0.0357 -0.3922  0.3520
 1181Na+     N115317   5.000   2.774   2.791 -0.1556  0.0225  0.4545
 1182Na+     N115318   2.346   5.448   0.687 -0.5046 -0.1444  0.1651
 1183Na+     N115319   4.238   0.746   1.625 -0.1875 -0.1048  0.5265
 1184Na+     N115320   0.744   3.291   4.117  0.5925 -0.0224 -0.1209
 1185Na+     N115321   2.197   3.714   4.976 -0.1327 -0.2254  0.0102
 1186Na+     N115322   1.962   0.357   0.202  0.1186 -0.4035 -0.1523
 1187Na+     N115323   2.226   2.699   3.245 -0.5593 -0.1693  0.4937
 1188Na+     N115324   4.443   0.839   4.757  0.4442  0.5270  0.4821
 1189Na+     N115325   1.405   1.366   2.439  0.0207  0.5266 -0.3709
 1190Na+     N115326   3.421   4.297   4.302 -0.2679 -0.8187  0.0777
 1191Na+     N115327   1.690   2.768   1.282 -0.1153  0.0133  0.2243
 1192Na+     N115328   3.076   1.758   1.868 -0.1556  0.2008 -0.0905
 1193Na+     N115329   0.061   2.824   2.132  0.6445 -0.1482 -0.0783
 1194Na+     N115330   0.917   1.101   2.846 -0.0619  0.0993 -0.0791
 1195Na+     N115331   1.477   4.025   4.890 -0.2888 -0.3262  0.4082
 1196Na+     N115332   4.193   3.030   0.471 -0.1564  0.2818 -0.2789
 1197Na+     N115333   0.142   1.842   2.852 -0.2185 -0.0533  0.0138
 1198Na+     N115334   3.024   3.993   2.978 -0.7087 -0.1585 -0.1497
 1199Na+     N115335   4.962   5.189   0.564 -0.6648  0.1460  0.4941
 1200Na+     N115336   1.215   1.590   3.458  0.4111 -0.3459 -0.0904
 1201Na+     N115337   0.354   0.052   3.819 -0.0702 -0.2487  0.1512
 1202Na+     N115338   0.533   1.915   1.811  0.0830 -0.1403 -0.2032
 1203Na+     N115339   4.290   1.757   1.625  0.2719  0.2688  0.1348
 1204Na+     N115340   3.564   5.154   0.443  0.0470 -0.4559 -0.2480
 1205Na+     N115341   3.702   3.355   1.307  0.2269 -0.0252 -0.0062
 1206Na+     N115342   5.406   5.429   3.143 -0.1355  0.1718 -0.0711
 1207Na+     N115343   3.842   1.817   3.201  0.1956  0.1619 -0.0795
 1208Na+     N115344   1.774   4.963   3.786 -0.6098 -0.4229  0.2887
   5.50250   5.50250   5.50250
