DG-THF-PF6-Na    Amber RESP
15344
    1DG      C1    1   2.924   4.908   1.107 -0.7935 -0.2639 -0.0092
    1DG      C2    2   3.317   4.590   0.745 -0.1178  0.2390  0.2475
    1DG      H3    3   2.881   4.981   1.176  0.4751  1.2273 -0.7287
    1DG      H4    4   2.896   4.805   1.131 -1.3091  0.0667  0.8640
    1DG      H5    5   2.896   4.935   1.005  1.4297 -1.2014 -0.9304
    1DG      H6    6   3.256   4.636   0.667 -0.5437  0.6864  0.8407
    1DG      H7    7   3.414   4.559   0.707  0.5640 -0.1891  2.2429
    1DG      H8    8   3.262   4.499   0.772 -1.3693  1.0293  0.4338
    1DG      O9    9   3.059   4.915   1.108 -0.0973 -0.0695 -0.4964
    1DG     O10   10   3.310   4.675   0.863  0.2362  0.4758  0.1867
    1DG     C11   11   3.105   5.047   1.073 -0.1887 -0.0676 -0.5136
    1DG     C12   12   3.398   4.780   0.830 -0.4638  0.3395 -0.6287
    1DG     H13   13   3.080   5.126   1.145 -1.5283  0.8021 -1.8720
    1DG     H14   14   3.056   5.078   0.981 -1.6967 -0.2520  0.1885
    1DG     H15   15   3.379   4.812   0.727  0.4343 -0.8606 -1.1893
    1DG     H16   16   3.503   4.751   0.822  0.0948  2.2090 -0.6121
    1DG     C17   17   3.254   5.041   1.052 -0.2767  0.3781  0.2883
    1DG     C18   18   3.404   4.896   0.933  0.2666  1.2776  0.1440
    1DG     O19   19   3.269   4.947   0.951 -0.2590  0.0304  0.2936
    1DG     H20   20   3.315   5.011   1.138 -0.0783 -0.4717 -0.1364
    1DG     H21   21   3.294   5.139   1.027 -2.6371  1.0447 -1.1609
    1DG     H22   22   3.450   4.857   1.024  0.3039 -0.3134 -0.5150
    1DG     H23   23   3.460   4.981   0.894  0.2550  0.2273 -2.3496
    2DG      C1   24   3.882   4.433   4.210  0.4428 -0.0517  0.2934
    2DG      C2   25   3.327   4.343   3.883  0.6498 -0.6063  0.3916
    2DG      H3   26   3.951   4.479   4.281  0.9300 -0.3824  0.0425
    2DG      H4   27   3.926   4.455   4.113  0.2776 -2.0578 -0.2765
    2DG      H5   28   3.903   4.326   4.215  0.1384 -0.0984  0.6072
    2DG      H6   29   3.395   4.332   3.798  0.5395  1.5767 -0.0290
    2DG      H7   30   3.261   4.257   3.877  0.4090 -0.3992  0.0253
    2DG      H8   31   3.263   4.428   3.859 -0.3395 -1.5344 -0.3451
    2DG      O9   32   3.741   4.478   4.213 -0.6329 -0.2684  0.1215
    2DG     O10   33   3.401   4.346   4.000 -0.6290 -0.2446 -0.4756
    2DG     C11   34   3.683   4.473   4.335 -0.6072 -0.0230 -0.4280
    2DG     C12   35   3.315   4.356   4.111 -0.4572  0.4444 -0.0636
    2DG     H13   36   3.741   4.525   4.411 -1.3739 -0.5479  0.5342
    2DG     H14   37   3.683   4.372   4.376  1.6891 -0.0229 -0.2645
    2DG     H15   38   3.256   4.269   4.137 -0.1336  0.5866  1.2306
    2DG     H16   39   3.254   4.446   4.097  1.5362  1.8606 -0.1263
    2DG     C17   40   3.553   4.549   4.324  0.0406 -0.4427  0.0736
    2DG     C18   41   3.411   4.378   4.229  0.7727 -0.0449  0.3458
    2DG     O19   42   3.476   4.507   4.212  0.2461 -0.3982 -0.0188
    2DG     H20   43   3.567   4.657   4.319  0.5142 -0.5017  0.0364
    2DG     H21   44   3.498   4.539   4.417  0.0004 -0.2566  0.0705
    2DG     H22   45   3.365   4.370   4.327  1.9989 -0.7148  0.8955
    2DG     H23   46   3.490   4.302   4.226  1.1892  0.3433  1.2018
    3DG      C1   47   4.095   2.287   4.498  0.3491  1.0697  0.0814
    3DG      C2   48   4.550   2.486   4.905 -0.1007 -0.0949  0.2883
    3DG      H3   49   3.990   2.260   4.486  0.4615 -0.2543  1.7067
    3DG      H4   50   4.138   2.194   4.533 -0.3620  1.2708  1.5955
    3DG      H5   51   4.129   2.329   4.404  0.7829 -2.6690 -1.5810
    3DG      H6   52   4.571   2.385   4.942 -1.8113  0.5621  3.4091
    3DG      H7   53   4.608   2.510   4.816  0.8566  1.1323  1.1998
    3DG      H8   54   4.593   2.543   4.988  0.2306  0.0757  0.0010
    3DG      O9   55   4.116   2.383   4.597 -0.1660  0.3079 -0.6180
    3DG     O10   56   4.412   2.501   4.900 -0.2955  0.0735  0.5271
    3DG     C11   57   4.043   2.498   4.588 -0.2082 -0.6037  0.1066
    3DG     C12   58   4.367   2.642   4.895  0.6351  1.0004 -0.8800
    3DG     H13   59   3.940   2.481   4.556  0.1227  0.6375 -1.8104
    3DG     H14   60   4.070   2.564   4.505 -1.2344  0.8487  0.8922
    3DG     H15   61   4.424   2.690   4.816 -1.7136  1.8250 -2.1975
    3DG     H16   62   4.397   2.695   4.986  1.4720 -0.6405 -0.1606
    3DG     C17   63   4.047   2.574   4.716 -0.7370 -0.4089 -0.9963
    3DG     C18   64   4.211   2.658   4.870 -1.1231 -0.9014 -0.5599
    3DG     O19   65   4.183   2.600   4.746 -0.2529  0.4844 -0.1976
    3DG     H20   66   4.006   2.513   4.796 -0.9926  2.2801  1.0623
    3DG     H21   67   3.989   2.666   4.711 -0.7876 -0.4683 -1.6040
    3DG     H22   68   4.166   2.588   4.940 -0.5963 -1.1888 -0.5019
    3DG     H23   69   4.180   2.761   4.882  0.0325 -0.5152 -0.6906
    4DG      C1   70   2.553   5.125   4.841 -0.2587  0.5528 -0.1842
    4DG      C2   71   3.039   5.351   5.259  0.2045 -0.2770 -0.4135
    4DG      H3   72   2.454   5.169   4.851  0.1979  1.7820 -0.8480
    4DG      H4   73   2.547   5.038   4.776 -4.1970 -0.5578  1.3765
    4DG      H5   74   2.617   5.197   4.790  1.3423  0.3743  1.4577
    4DG      H6   75   3.140   5.324   5.226  0.0629  0.9268 -1.9176
    4DG      H7   76   3.020   5.456   5.239  0.0202 -0.2212  0.0467
    4DG      H8   77   3.045   5.346   5.367  1.4294  0.4209 -0.4246
    4DG      O9   78   2.633   5.086   4.951 -0.4729 -0.0335 -0.2768
    4DG     O10   79   2.936   5.259   5.219  0.4933  0.2465 -0.6758
    4DG     C11   80   2.579   4.977   5.027  0.3565  0.1029 -0.5345
    4DG     C12   81   2.963   5.132   5.275  0.1149  0.1718 -1.0872
    4DG     H13   82   2.555   4.890   4.966  0.2987 -0.2310 -0.0370
    4DG     H14   83   2.487   5.009   5.075 -0.0197  0.7777 -1.6682
    4DG     H15   84   2.938   5.139   5.381  0.9172 -3.0121 -0.6035
    4DG     H16   85   3.069   5.105   5.283  0.1045  0.5672  0.9498
    4DG     C17   86   2.680   4.932   5.130  0.2412  0.4987  0.4158
    4DG     C18   87   2.887   5.019   5.209 -0.0130 -0.1021 -0.3780
    4DG     O19   88   2.756   5.047   5.174  0.2416  0.0290 -0.3321
    4DG     H20   89   2.749   4.870   5.072 -1.2574 -0.5781 -0.2793
    4DG     H21   90   2.634   4.868   5.206 -3.4020 -0.0041 -1.9563
    4DG     H22   91   2.947   4.985   5.124  1.2325  1.4262 -0.1576
    4DG     H23   92   2.887   4.943   5.287  1.4005 -1.0289 -1.2279
    5DG      C1   93   2.191   4.498   1.396 -0.5637  0.4183 -0.1433
    5DG      C2   94   1.581   4.187   1.214  0.7952 -0.2791  0.8079
    5DG      H3   95   2.236   4.588   1.438  1.7220 -1.5826  2.0933
    5DG      H4   96   2.236   4.473   1.300 -0.0525 -0.2136  0.2491
    5DG      H5   97   2.223   4.417   1.462  2.1242  0.8050 -0.8668
    5DG      H6   98   1.569   4.143   1.314 -1.4278 -0.5909  0.4610
    5DG      H7   99   1.481   4.191   1.172 -0.2254 -0.6796  3.0251
    5DG      H8  100   1.638   4.124   1.146  1.0380 -0.2184  0.9534
    5DG      O9  101   2.053   4.530   1.382 -0.3678  0.2513  0.4108
    5DG     O10  102   1.637   4.319   1.221  0.0124  0.2175  0.8385
    5DG     C11  103   1.989   4.550   1.507  0.2936 -1.1498  0.7340
    5DG     C12  104   1.569   4.396   1.319 -0.0865  0.0085  0.0929
    5DG     H13  105   2.040   4.630   1.561 -1.2545 -0.2817  0.9577
    5DG     H14  106   1.998   4.453   1.556 -0.7721 -0.4396  2.4294
    5DG     H15  107   1.570   4.336   1.410  1.5275 -0.9830 -0.5224
    5DG     H16  108   1.463   4.416   1.306  0.4685  1.7017 -2.4910
    5DG     C17  109   1.840   4.587   1.487 -0.3126  0.5332 -0.8709
    5DG     C18  110   1.644   4.521   1.360 -0.4505 -0.1555  0.4840
    5DG     O19  111   1.779   4.488   1.408 -0.5070 -0.9997  0.7782
    5DG     H20  112   1.842   4.685   1.439  1.3669  2.2705  2.4088
    5DG     H21  113   1.792   4.591   1.585  3.0919 -0.9217  1.0539
    5DG     H22  114   1.660   4.594   1.281  2.6334 -0.9621  0.2342
    5DG     H23  115   1.605   4.574   1.447 -0.8350  1.3353 -0.5610
    6DG      C1  116   0.758   1.800   1.192  0.6593  0.8238 -0.7920
    6DG      C2  117   0.574   1.206   1.048 -0.2293 -0.0769 -0.0848
    6DG      H3  118   0.840   1.729   1.204  1.5221  1.6048 -1.9010
    6DG      H4  119   0.725   1.824   1.293 -1.4328 -1.7971 -0.7366
    6DG      H5  120   0.792   1.894   1.150  2.6112 -0.4931 -2.3982
    6DG      H6  121   0.634   1.137   1.107 -2.0174 -1.5713  0.0842
    6DG      H7  122   0.516   1.138   0.985  1.9404 -1.7630 -0.4003
    6DG      H8  123   0.629   1.273   0.981  0.3870  2.7213  2.9362
    6DG      O9  124   0.652   1.755   1.107  0.2724  0.6734  0.2309
    6DG     O10  125   0.502   1.300   1.132  0.2892  0.4316  0.2176
    6DG     C11  126   0.683   1.721   0.973 -0.8263 -0.6263  1.1821
    6DG     C12  127   0.389   1.355   1.070 -0.2896 -0.1137  0.3335
    6DG     H13  128   0.755   1.639   0.974  1.2230  0.9584 -1.8185
    6DG     H14  129   0.708   1.797   0.900 -1.1865 -0.6618  1.0196
    6DG     H15  130   0.341   1.414   1.148 -1.0210  0.2865 -0.3960
    6DG     H16  131   0.306   1.290   1.039 -1.0058 -0.0924  2.1144
    6DG     C17  132   0.558   1.644   0.922 -0.0604 -0.2290  0.1860
    6DG     C18  133   0.414   1.459   0.969 -0.1547 -0.7374  0.1887
    6DG     O19  134   0.520   1.535   1.003  0.0351  0.3839 -0.1216
    6DG     H20  135   0.573   1.616   0.817  1.3288 -0.9424  0.5431
    6DG     H21  136   0.473   1.712   0.920 -0.0861 -0.2602  0.2172
    6DG     H22  137   0.431   1.426   0.866 -2.1114  1.2591 -0.8703
    6DG     H23  138   0.322   1.517   0.960  0.3530 -0.2048 -2.6879
    7DG      C1  139   2.940   5.113   0.182  0.8312  1.0591  0.0213
    7DG      C2  140   3.347   5.395   0.648  0.1509 -0.2565 -1.0326
    7DG      H3  141   2.894   5.066   0.270  3.7750 -2.2039  0.0280
    7DG      H4  142   2.938   5.036   0.106 -0.6004 -2.1523  3.0386
    7DG      H5  143   2.872   5.185   0.137  0.5515  0.4834 -0.4784
    7DG      H6  144   3.322   5.306   0.707 -0.8346 -0.1409 -1.2707
    7DG      H7  145   3.454   5.381   0.629  0.3326 -0.9905  0.3733
    7DG      H8  146   3.314   5.479   0.709 -0.3388 -0.1552 -1.4351
    7DG      O9  147   3.074   5.150   0.214 -0.0828 -0.0858  0.7153
    7DG     O10  148   3.278   5.393   0.529  0.2774  0.3628  0.3051
    7DG     C11  149   3.125   5.213   0.098  1.0824  0.2327 -0.4344
    7DG     C12  150   3.325   5.485   0.433 -0.4925 -0.4621  0.0211
    7DG     H13  151   3.064   5.298   0.068  2.0786  0.7802 -0.9413
    7DG     H14  152   3.142   5.141   0.019  0.8034  0.8545 -1.0722
    7DG     H15  153   3.420   5.534   0.452 -0.6898  0.5800 -1.4152
    7DG     H16  154   3.256   5.569   0.423 -0.4085 -0.4268 -0.2709
    7DG     C17  155   3.255   5.280   0.134 -0.6703 -0.2329  1.0135
    7DG     C18  156   3.352   5.430   0.294  0.1899 -0.4987  0.1016
    7DG     O19  157   3.236   5.355   0.256 -0.3078  0.2869 -0.4471
    7DG     H20  158   3.303   5.341   0.057 -0.7312  1.5914  2.3548
    7DG     H21  159   3.330   5.204   0.154  1.0521  1.4233  1.1849
    7DG     H22  160   3.361   5.513   0.225 -1.9533  0.7032  1.1548
    7DG     H23  161   3.443   5.370   0.292  0.2885 -0.3646  0.5659
    8DG      C1  162   0.446   0.424   1.698  0.4411  0.1044 -0.4471
    8DG      C2  163  -0.029   0.367   2.068  0.5022  0.3447  0.6398
    8DG      H3  164   0.385   0.507   1.661 -0.8880 -0.5689  0.1316
    8DG      H4  165   0.390   0.339   1.658  0.2190  0.2316 -0.4131
    8DG      H5  166   0.545   0.422   1.655  1.0643 -2.5974  0.8622
    8DG      H6  167  -0.039   0.284   1.998  0.2785  1.1517 -0.3096
    8DG      H7  168  -0.089   0.355   2.159 -0.7774 -0.2190 -0.2541
    8DG      H8  169  -0.067   0.453   2.013  0.7383 -1.2093 -2.0851
    8DG      O9  170   0.455   0.437   1.842 -0.1826 -0.2004  0.3254
    8DG     O10  171   0.110   0.395   2.090 -0.1119 -0.5471  0.7588
    8DG     C11  172   0.542   0.336   1.901  0.2433  0.1542  0.4099
    8DG     C12  173   0.163   0.301   2.177  0.2344  0.3475  0.0333
    8DG     H13  174   0.649   0.355   1.894 -0.0756  2.3380  0.7037
    8DG     H14  175   0.511   0.236   1.872 -0.4923  0.4414  0.1845
    8DG     H15  176   0.146   0.197   2.148 -1.1755  0.2298  1.1520
    8DG     H16  177   0.129   0.304   2.281 -1.2987 -1.8733 -0.3437
    8DG     C17  178   0.505   0.346   2.048 -0.4932 -0.0708  0.0702
    8DG     C18  179   0.319   0.316   2.189 -0.6283 -0.2876  0.5206
    8DG     O19  180   0.363   0.323   2.059 -0.2869 -0.1073 -0.2045
    8DG     H20  181   0.539   0.436   2.100  0.6242  0.0441 -0.8329
    8DG     H21  182   0.563   0.269   2.099 -0.0696  1.6207  2.3273
    8DG     H22  183   0.338   0.416   2.228  0.4764 -0.3074  0.0703
    8DG     H23  184   0.365   0.244   2.257  0.4810 -1.3847 -1.3126
    9DG      C1  185   1.862   3.711   1.895 -0.8491  0.0415 -0.1115
    9DG      C2  186   2.353   4.145   1.507 -0.1732 -0.6979  0.3583
    9DG      H3  187   1.921   3.674   1.979  0.4165  0.2748 -0.8666
    9DG      H4  188   1.801   3.630   1.856  1.0973 -0.5789 -2.1013
    9DG      H5  189   1.798   3.793   1.929  3.3107  3.6794 -0.1661
    9DG      H6  190   2.395   4.148   1.406  0.8077  1.2232  0.7781
    9DG      H7  191   2.271   4.216   1.498  0.6767  0.1740 -0.7859
    9DG      H8  192   2.439   4.182   1.563  0.8566 -0.5967 -1.2148
    9DG      O9  193   1.951   3.751   1.791  0.3571 -0.9895 -0.2530
    9DG     O10  194   2.303   4.023   1.542  0.2996 -0.0852 -0.1155
    9DG     C11  195   2.054   3.660   1.770 -0.9162 -0.7805 -0.5600
    9DG     C12  196   2.393   3.917   1.517 -0.0789  0.7356  0.6464
    9DG     H13  197   1.999   3.566   1.770  0.4286 -1.7213  3.0826
    9DG     H14  198   2.127   3.649   1.850 -0.8191 -0.7770 -0.6477
    9DG     H15  199   2.466   3.906   1.598 -0.7532  0.3845  1.2150
    9DG     H16  200   2.450   3.930   1.425  1.0398 -4.4850  0.3167
    9DG     C17  201   2.129   3.676   1.634  0.4450  0.0896 -0.7115
    9DG     C18  202   2.294   3.799   1.511  0.0429  0.5821  0.0802
    9DG     O19  203   2.209   3.796   1.625  0.9645  0.2844 -0.2506
    9DG     H20  204   2.052   3.680   1.557 -1.4761 -1.0066  1.0499
    9DG     H21  205   2.202   3.597   1.619  0.8935  0.3233  0.1861
    9DG     H22  206   2.230   3.809   1.423  0.5431  3.7554 -0.0452
    9DG     H23  207   2.355   3.709   1.503 -1.4688 -0.6139  1.3532
   10DG      C1  208   2.364   5.180   3.961  0.2536  0.7731 -0.6674
   10DG      C2  209   2.217   5.821   3.852  0.0125 -0.5817 -0.6193
   10DG      H3  210   2.421   5.088   3.960  1.7514  1.6532 -2.0568
   10DG      H4  211   2.260   5.149   3.946  0.2536  1.8191 -3.6859
   10DG      H5  212   2.387   5.227   4.057  1.5125 -1.2717  0.0769
   10DG      H6  213   2.247   5.918   3.812 -1.5417 -0.0186 -0.4785
   10DG      H7  214   2.110   5.805   3.840 -0.1526 -2.0431  1.9458
   10DG      H8  215   2.225   5.836   3.959  0.7526  1.2361 -0.8910
   10DG      O9  216   2.391   5.278   3.865 -0.8302 -0.3971  0.1737
   10DG     O10  217   2.314   5.723   3.807 -0.5049  0.3113  0.1693
   10DG     C11  218   2.354   5.247   3.738  0.2943 -0.2063 -0.4438
   10DG     C12  219   2.298   5.701   3.663  0.3862  0.4774  0.5672
   10DG     H13  220   2.246   5.238   3.727 -0.1251  0.0916  2.6681
   10DG     H14  221   2.396   5.150   3.711  0.3274 -0.5062  0.6383
   10DG     H15  222   2.323   5.790   3.605  0.6750  1.1782  1.7363
   10DG     H16  223   2.193   5.678   3.647  0.6628 -0.8848  0.5131
   10DG     C17  224   2.404   5.358   3.647  1.0958 -0.1270  0.0780
   10DG     C18  225   2.392   5.594   3.617  0.2483  0.2647  0.3112
   10DG     O19  226   2.338   5.477   3.682  0.5083 -0.1804 -0.1878
   10DG     H20  227   2.384   5.329   3.544  0.4562 -1.2661  0.5152
   10DG     H21  228   2.513   5.364   3.660  1.0791 -0.8398  0.6235
   10DG     H22  229   2.381   5.587   3.509 -1.1427  3.3653  0.1468
   10DG     H23  230   2.492   5.611   3.657  0.4729 -0.3997  0.0447
   11DG      C1  231   3.609   3.595   4.055  1.1416  0.9545 -0.2242
   11DG      C2  232   3.881   3.955   3.553 -1.4230  0.5365  0.3064
   11DG      H3  233   3.630   3.511   4.121  3.1647  1.9147  0.4364
   11DG      H4  234   3.555   3.565   3.965 -0.0045 -0.2510  0.8137
   11DG      H5  235   3.554   3.678   4.100  0.9004  0.3122  0.7174
   11DG      H6  236   3.773   3.961   3.549 -1.3758  0.6916 -1.9115
   11DG      H7  237   3.920   4.056   3.565 -0.4558  0.0136  2.0545
   11DG      H8  238   3.917   3.906   3.463 -0.0625  1.4828  0.2991
   11DG      O9  239   3.737   3.648   4.015  0.4118 -0.0500  0.1469
   11DG     O10  240   3.907   3.874   3.670  0.3159  0.5306 -0.4409
   11DG     C11  241   3.831   3.555   3.975  0.0186  0.8070  0.7451
   11DG     C12  242   4.044   3.850   3.689  0.5378  0.2335 -0.1472
   11DG     H13  243   3.821   3.528   3.870  0.6989 -0.2817  0.9451
   11DG     H14  244   3.825   3.459   4.027  0.3510  0.2863 -0.1560
   11DG     H15  245   4.097   3.924   3.748 -0.3415 -0.0199  1.0040
   11DG     H16  246   4.112   3.841   3.604  4.6513 -2.1221  3.0180
   11DG     C17  247   3.974   3.611   3.975 -0.3394 -0.1966  0.3878
   11DG     C18  248   4.053   3.724   3.773  0.0722  0.1291 -0.5444
   11DG     O19  249   3.972   3.726   3.890  0.2672  0.3343 -0.0569
   11DG     H20  250   4.052   3.546   3.935 -0.3011  0.2974 -0.3742
   11DG     H21  251   4.006   3.636   4.076  0.2132 -1.1148  0.4507
   11DG     H22  252   4.028   3.643   3.705  0.6755 -1.4724  1.0807
   11DG     H23  253   4.157   3.700   3.795 -0.7869 -0.5674  3.4140
   12DG      C1  254   1.316   5.099   2.000  0.2114  0.5186  0.5731
   12DG      C2  255   0.868   5.175   2.464  0.4098  0.4083  1.1368
   12DG      H3  256   1.363   5.027   2.067 -1.2832 -1.3281 -0.2773
   12DG      H4  257   1.339   5.201   2.029 -1.5184  1.5592 -1.4606
   12DG      H5  258   1.357   5.077   1.902 -0.3053 -1.4910  0.7663
   12DG      H6  259   0.904   5.278   2.467  1.0637  0.2849 -0.8463
   12DG      H7  260   0.778   5.178   2.525 -0.1224  0.6264  0.3462
   12DG      H8  261   0.946   5.110   2.503  1.4135  0.7011 -0.3099
   12DG      O9  262   1.176   5.081   2.023 -0.1374  0.0664  0.1678
   12DG     O10  263   0.827   5.145   2.328 -0.2900 -0.4364 -0.1364
   12DG     C11  264   1.135   4.950   1.996 -0.0177  0.5433  0.8808
   12DG     C12  265   0.789   5.004   2.325  0.2810  0.2322 -0.1785
   12DG     H13  266   1.189   4.886   2.066 -0.4541 -1.2394 -0.3309
   12DG     H14  267   1.151   4.913   1.894  0.6214  1.6791  0.5554
   12DG     H15  268   0.681   4.997   2.339  0.5471  0.1490  2.1546
   12DG     H16  269   0.830   4.937   2.401  2.1737  1.9603  0.4051
   12DG     C17  270   0.985   4.937   2.030  0.3520 -0.5859  0.4992
   12DG     C18  271   0.816   4.954   2.183 -0.2262  0.6396  0.2489
   12DG     O19  272   0.960   4.963   2.169  0.5805  0.3706 -0.1457
   12DG     H20  273   0.948   4.838   2.005  3.3249 -1.4765 -0.8773
   12DG     H21  274   0.926   4.995   1.960  0.7623 -1.5190 -0.6569
   12DG     H22  275   0.782   4.852   2.171  1.8415 -0.1267  0.5587
   12DG     H23  276   0.753   5.019   2.122 -0.2993  1.0364  0.7361
   13DG      C1  277   4.916   0.773   0.656  0.1667 -0.4842 -0.4812
   13DG      C2  278   5.201   0.771   0.094  0.1604 -0.7365 -0.1080
   13DG      H3  279   4.931   0.880   0.669 -0.8092 -0.6470  2.9071
   13DG      H4  280   4.882   0.739   0.753 -2.2482 -1.6117 -1.6425
   13DG      H5  281   4.829   0.751   0.594  0.2169  1.4056 -1.2906
   13DG      H6  282   5.265   0.758   0.007 -0.9196  1.1747 -1.2714
   13DG      H7  283   5.098   0.756   0.060 -0.5871 -0.8685  2.0396
   13DG      H8  284   5.209   0.877   0.119  1.0307 -0.8871  0.2922
   13DG      O9  285   5.028   0.689   0.615 -0.3354 -0.4722  1.0749
   13DG     O10  286   5.235   0.694   0.209 -0.2150  0.1350  0.3448
   13DG     C11  287   5.023   0.551   0.636  0.5109 -0.0968  0.4808
   13DG     C12  288   5.231   0.552   0.203  0.2524  0.4810  0.2764
   13DG     H13  289   4.931   0.498   0.616  0.7341  0.2810 -1.8027
   13DG     H14  290   5.046   0.537   0.742  0.5574  1.0387  0.6383
   13DG     H15  291   5.297   0.518   0.124 -1.9093  1.3475 -2.0433
   13DG     H16  292   5.137   0.536   0.149  0.5593  0.8714 -0.3887
   13DG     C17  293   5.133   0.488   0.557 -0.4971  0.2731  0.4474
   13DG     C18  294   5.243   0.485   0.340  0.4162  1.1502 -0.2404
   13DG     O19  295   5.137   0.538   0.418  0.2780 -0.0998  0.0584
   13DG     H20  296   5.115   0.380   0.555 -0.8177  0.3234 -1.0172
   13DG     H21  297   5.224   0.512   0.611 -0.2003  0.1852 -0.0042
   13DG     H22  298   5.231   0.377   0.331 -3.8244  1.4383 -0.1598
   13DG     H23  299   5.338   0.501   0.392  0.9042  1.0149 -1.0707
   14DG      C1  300   1.101   0.196   3.811  0.3034 -0.5692 -0.4630
   14DG      C2  301   1.039  -0.176   3.276  0.6444 -0.0868 -0.2896
   14DG      H3  302   1.010   0.250   3.786 -0.3904 -0.8494  1.3155
   14DG      H4  303   1.191   0.257   3.803  1.0580 -1.2368  1.9750
   14DG      H5  304   1.101   0.177   3.918  1.9737  1.6745  0.0048
   14DG      H6  305   1.122  -0.198   3.209  0.4937 -0.7676 -0.2525
   14DG      H7  306   0.970  -0.255   3.248  2.1289 -1.5142 -0.0489
   14DG      H8  307   0.998  -0.077   3.253  2.1615  0.6415 -0.0245
   14DG      O9  308   1.108   0.067   3.750  0.1876 -0.0467  0.0223
   14DG     O10  309   1.067  -0.190   3.410  0.3337 -0.5913 -0.1825
   14DG     C11  310   1.231   0.002   3.780  0.5885 -0.1727  0.1466
   14DG     C12  311   1.136  -0.305   3.436  0.2675  0.0338  0.3558
   14DG     H13  312   1.255   0.021   3.885 -1.1254  0.0629  0.5231
   14DG     H14  313   1.309   0.047   3.718 -0.1383 -0.2608 -0.8488
   14DG     H15  314   1.222  -0.314   3.370 -0.0366 -0.3842  0.0139
   14DG     H16  315   1.071  -0.391   3.426 -0.3243  0.6254 -1.1315
   14DG     C17  316   1.233  -0.139   3.746  0.4507 -0.1939 -0.3194
   14DG     C18  317   1.174  -0.297   3.579  0.5342 -0.6209 -0.7278
   14DG     O19  318   1.204  -0.164   3.607 -0.0545  0.2826 -0.1635
   14DG     H20  319   1.161  -0.176   3.818  0.1446  0.5386 -0.2431
   14DG     H21  320   1.331  -0.173   3.781 -0.9322 -1.7543  2.2764
   14DG     H22  321   1.086  -0.323   3.638  0.2844  0.3246 -0.6754
   14DG     H23  322   1.251  -0.368   3.608 -0.3205 -1.0114  0.7009
   15DG      C1  323   3.807   2.292   3.714 -0.2871 -0.9765  0.3031
   15DG      C2  324   3.783   1.644   3.515  0.0437 -0.5548  0.6491
   15DG      H3  325   3.897   2.315   3.657  0.3258 -0.2464  1.5121
   15DG      H4  326   3.837   2.258   3.813  0.9828 -1.7235 -0.3060
   15DG      H5  327   3.753   2.384   3.739 -0.3609  0.5096 -4.4430
   15DG      H6  328   3.744   1.544   3.498  2.0079 -1.1641 -0.5550
   15DG      H7  329   3.843   1.674   3.429 -0.2236 -0.4374  0.5030
   15DG      H8  330   3.852   1.621   3.596  1.9935 -0.4950 -0.9244
   15DG      O9  331   3.718   2.197   3.666 -0.1131 -0.2908  0.0224
   15DG     O10  332   3.685   1.746   3.533 -0.4662  0.4322 -0.1219
   15DG     C11  333   3.602   2.183   3.741  0.8230 -0.1294 -0.1594
   15DG     C12  334   3.586   1.717   3.633  0.1798 -0.0423 -0.3178
   15DG     H13  335   3.541   2.274   3.735 -0.4607 -0.8386  1.3197
   15DG     H14  336   3.620   2.173   3.848 -1.5909  1.5813  0.5033
   15DG     H15  337   3.621   1.691   3.733 -1.0222 -0.5930 -0.0238
   15DG     H16  338   3.515   1.641   3.599 -1.9236  1.4048  0.6977
   15DG     C17  339   3.516   2.073   3.693 -0.5251  0.8118  0.1688
   15DG     C18  340   3.501   1.842   3.649 -0.1400 -0.0170  0.2859
   15DG     O19  341   3.594   1.952   3.677  0.1023 -0.2565 -0.0279
   15DG     H20  342   3.457   2.093   3.603 -0.6911 -1.0506 -0.1612
   15DG     H21  343   3.435   2.052   3.763  0.4385 -0.9134  0.8270
   15DG     H22  344   3.449   1.861   3.555 -0.0690 -2.2964 -0.2676
   15DG     H23  345   3.435   1.824   3.734 -0.2019 -0.7003  0.0962
   16DG      C1  346   4.974   5.330   2.345 -0.1150  0.1035 -0.0152
   16DG      C2  347   4.709   5.903   2.752 -0.0200 -0.3323  0.1785
   16DG      H3  348   5.054   5.295   2.410  0.8783  1.8993 -0.2103
   16DG      H4  349   5.021   5.384   2.263  0.8458 -1.6903 -0.6996
   16DG      H5  350   4.933   5.235   2.310  0.2997 -0.2873  0.5477
   16DG      H6  351   4.703   5.880   2.858 -1.4386 -0.3910  0.1031
   16DG      H7  352   4.816   5.904   2.730  0.0074 -0.0310  0.3226
   16DG      H8  353   4.656   5.997   2.741 -0.1157 -0.3364  0.6080
   16DG      O9  354   4.868   5.399   2.416  0.5454  0.0615 -0.0906
   16DG     O10  355   4.638   5.804   2.684 -0.2254  0.0543 -0.2685
   16DG     C11  356   4.749   5.426   2.335 -0.4075 -0.2859 -0.5619
   16DG     C12  357   4.641   5.821   2.538 -0.3622  0.4280  0.3195
   16DG     H13  358   4.721   5.333   2.286  1.0634  0.4499 -2.9676
   16DG     H14  359   4.769   5.500   2.257 -2.1151  1.1146  0.2577
   16DG     H15  360   4.732   5.861   2.495 -0.1278  1.0941  1.4030
   16DG     H16  361   4.559   5.890   2.516  2.2993  3.7829  0.0319
   16DG     C17  362   4.645   5.468   2.436  0.2471  0.3085 -0.8800
   16DG     C18  363   4.597   5.688   2.472  0.3557 -0.5805 -0.3597
   16DG     O19  364   4.687   5.583   2.506  0.4827 -1.0142  0.1971
   16DG     H20  365   4.625   5.393   2.513 -0.6645  1.6133  0.1946
   16DG     H21  366   4.551   5.482   2.384 -0.7743 -0.4138  0.7092
   16DG     H22  367   4.495   5.667   2.503 -0.4999  0.1032 -2.5520
   16DG     H23  368   4.596   5.701   2.364 -0.5227  0.8797 -0.2007
   17DG      C1  369   4.146   0.414   5.020  1.0062 -0.5232 -0.4393
   17DG      C2  370   3.878  -0.236   5.079 -0.7424 -0.0061 -0.1158
   17DG      H3  371   4.061   0.444   5.081  0.6901 -3.2259  0.6069
   17DG      H4  372   4.150   0.491   4.944  1.7696 -0.1410 -0.0292
   17DG      H5  373   4.238   0.395   5.076  1.8143  1.2916 -1.0816
   17DG      H6  374   3.850  -0.334   5.043 -0.0139 -0.4972  0.6016
   17DG      H7  375   3.934  -0.243   5.173 -0.8396  1.8282  0.1312
   17DG      H8  376   3.788  -0.186   5.115 -1.2862 -0.5065 -0.7698
   17DG      O9  377   4.106   0.292   4.952 -0.0646  0.4672 -0.6570
   17DG     O10  378   3.937  -0.143   4.993 -0.0394 -0.2769 -0.1100
   17DG     C11  379   4.012   0.314   4.845  0.6251  0.3753  0.3926
   17DG     C12  380   3.856  -0.127   4.877  0.1996  0.0877  0.6181
   17DG     H13  381   4.048   0.389   4.775  0.4072 -0.8325 -1.0458
   17DG     H14  382   3.916   0.343   4.888  1.1621  1.1265  1.1252
   17DG     H15  383   3.753  -0.112   4.911 -0.4009 -1.3941 -0.3873
   17DG     H16  384   3.844  -0.228   4.838  0.7733  0.0743  0.4691
   17DG     C17  385   4.003   0.190   4.758  0.1535  0.1585  0.7405
   17DG     C18  386   3.912  -0.038   4.771 -0.4496 -0.0626 -0.1608
   17DG     O19  387   3.942   0.086   4.834  0.1163  0.2839 -0.2583
   17DG     H20  388   4.102   0.163   4.720 -0.1751  1.3874 -1.1143
   17DG     H21  389   3.935   0.211   4.676 -1.3728 -0.0636  1.9181
   17DG     H22  390   3.995  -0.088   4.721 -1.2017 -1.1585 -0.3448
   17DG     H23  391   3.835  -0.021   4.696 -0.1196 -2.0754 -1.0421
   18DG      C1  392   4.857   1.425   3.621  0.2114 -0.7129 -0.1394
   18DG      C2  393   4.803   0.867   4.068  0.2172 -0.5360 -0.9093
   18DG      H3  394   4.859   1.504   3.696 -1.2170  0.5677 -1.4015
   18DG      H4  395   4.752   1.422   3.594  0.1114 -0.2089  0.1782
   18DG      H5  396   4.920   1.451   3.536  1.1627  0.1477  0.7924
   18DG      H6  397   4.700   0.845   4.040 -0.0141  2.2803 -2.6550
   18DG      H7  398   4.857   0.777   4.097 -0.8453 -0.7844  0.3532
   18DG      H8  399   4.804   0.938   4.150 -0.4522  0.6727 -1.9114
   18DG      O9  400   4.890   1.292   3.653  0.0856  0.3049 -0.5268
   18DG     O10  401   4.877   0.923   3.963  0.2529 -0.6216 -0.0456
   18DG     C11  402   5.031   1.272   3.649  0.0253 -0.7920 -0.2407
   18DG     C12  403   5.013   0.953   3.993 -0.0283  0.5958 -0.0514
   18DG     H13  404   5.070   1.343   3.722 -1.4740 -1.3215  1.1457
   18DG     H14  405   5.071   1.308   3.554  1.0660  1.5374  1.0033
   18DG     H15  406   5.051   0.864   4.043 -1.4807  0.5153  0.9625
   18DG     H16  407   5.029   1.045   4.049  1.1124  0.6919 -0.5082
   18DG     C17  408   5.094   1.133   3.680 -0.5200 -0.3270 -0.2679
   18DG     C18  409   5.090   0.981   3.866  0.0975  0.3814 -0.4729
   18DG     O19  410   5.020   1.073   3.782 -0.1320 -0.1430  0.6124
   18DG     H20  411   5.197   1.144   3.713 -0.4847  0.1379 -0.5201
   18DG     H21  412   5.092   1.073   3.589 -0.2976 -0.9917  0.1576
   18DG     H22  413   5.192   1.011   3.888 -0.5826  1.9042  0.8647
   18DG     H23  414   5.095   0.890   3.806  0.2546  0.9123 -1.2873
   19DG      C1  415   2.592   2.272   3.638  0.1351 -0.5099 -0.2995
   19DG      C2  416   2.516   2.769   3.245 -0.5866 -0.1252  0.2718
   19DG      H3  417   2.620   2.321   3.732 -2.2031  0.7270 -0.1922
   19DG      H4  418   2.623   2.167   3.642 -1.5944 -1.0385 -0.1935
   19DG      H5  419   2.484   2.286   3.637  0.1556 -0.3371 -1.8549
   19DG      H6  420   2.479   2.753   3.143 -0.3067 -2.5018  0.4687
   19DG      H7  421   2.422   2.777   3.300 -0.9416 -1.7255 -0.0252
   19DG      H8  422   2.568   2.864   3.257  1.2248 -1.3523  2.9382
   19DG      O9  423   2.654   2.359   3.545 -0.3335 -0.3879 -0.3048
   19DG     O10  424   2.594   2.650   3.276  0.1722 -0.2361 -0.3927
   19DG     C11  425   2.790   2.379   3.574  0.2869 -0.2604 -0.7693
   19DG     C12  426   2.724   2.661   3.215  0.5352  0.1473 -0.3666
   19DG     H13  427   2.839   2.291   3.615  2.4038  1.8528  1.5884
   19DG     H14  428   2.795   2.458   3.649  0.0543 -1.6055  0.7032
   19DG     H15  429   2.774   2.752   3.248  0.5439  0.6055 -1.5984
   19DG     H16  430   2.711   2.674   3.108 -0.9414  1.5989 -0.0406
   19DG     C17  431   2.864   2.399   3.443  0.4611 -0.2318  0.3911
   19DG     C18  432   2.811   2.543   3.249  0.8817 -0.6644  0.1106
   19DG     O19  433   2.800   2.518   3.389 -0.0460 -0.2782 -0.6943
   19DG     H20  434   2.851   2.312   3.380 -0.3845  0.5830 -0.5998
   19DG     H21  435   2.970   2.420   3.462  0.2284  0.1825  1.2830
   19DG     H22  436   2.778   2.453   3.197 -0.4693 -0.9839  1.4514
   19DG     H23  437   2.917   2.560   3.228  0.9133  1.2811  1.6076
   20DG      C1  438   5.252   5.361   1.020 -0.0268 -0.0790 -0.8467
   20DG      C2  439   4.529   5.161   0.630 -0.0384 -0.1054  0.1506
   20DG      H3  440   5.349   5.359   0.970  0.2976 -2.3093 -0.2502
   20DG      H4  441   5.267   5.332   1.124  1.5714  0.0955 -1.0003
   20DG      H5  442   5.212   5.462   1.016  0.6401  0.3464  1.4197
   20DG      H6  443   4.488   5.238   0.695 -0.9894  0.7782 -1.4411
   20DG      H7  444   4.504   5.193   0.529  1.0567 -1.2242 -0.5057
   20DG      H8  445   4.488   5.060   0.641 -0.0143 -0.2900 -1.2443
   20DG      O9  446   5.176   5.266   0.957 -0.7583  0.0835 -0.1960
   20DG     O10  447   4.675   5.168   0.654  0.2814 -0.4462  0.1304
   20DG     C11  448   5.141   5.304   0.824  0.1168 -0.4181  0.7111
   20DG     C12  449   4.709   5.080   0.762  0.3002 -0.3352 -0.3728
   20DG     H13  450   5.232   5.326   0.767 -0.0990 -2.1666 -0.3653
   20DG     H14  451   5.094   5.402   0.811  1.0240 -0.0237  0.2728
   20DG     H15  452   4.679   4.980   0.730 -0.6611 -0.1939  0.0620
   20DG     H16  453   4.664   5.109   0.856 -0.6906 -0.5283 -0.7763
   20DG     C17  454   5.060   5.190   0.756  0.1547 -0.1190  0.0208
   20DG     C18  455   4.867   5.066   0.760  0.2776 -0.4604  0.2822
   20DG     O19  456   4.926   5.192   0.792  0.1846 -0.4177 -0.5109
   20DG     H20  457   5.111   5.097   0.779  0.4760 -0.1299 -0.7251
   20DG     H21  458   5.070   5.190   0.648  1.1781 -3.8777 -0.0296
   20DG     H22  459   4.906   4.992   0.830 -1.8533 -1.5236  0.4310
   20DG     H23  460   4.891   5.047   0.656  2.0116  3.0424 -0.1032
   21DG      C1  461   3.920   4.673   2.925 -0.4128  0.1735 -0.2047
   21DG      C2  462   3.776   4.516   2.384 -0.3458  0.5634  0.4470
   21DG      H3  463   3.903   4.653   3.031  0.3833  1.1535  0.1320
   21DG      H4  464   3.860   4.763   2.915 -0.4724  0.3842  1.6958
   21DG      H5  465   4.025   4.702   2.923 -0.4152  0.1627 -0.4813
   21DG      H6  466   3.752   4.622   2.377 -2.8126 -0.0316 -1.9066
   21DG      H7  467   3.740   4.466   2.294  3.3246 -0.5356 -0.6172
   21DG      H8  468   3.737   4.474   2.476 -0.4140 -1.2726 -0.3861
   21DG      O9  469   3.895   4.560   2.849  0.2266 -0.0526  0.0847
   21DG     O10  470   3.912   4.493   2.402  0.1748 -0.4712 -0.4169
   21DG     C11  471   3.971   4.447   2.883  0.3308  0.6843  0.1667
   21DG     C12  472   3.952   4.359   2.423 -0.6379 -0.2150  0.3694
   21DG     H13  473   3.950   4.416   2.986  0.2322  1.8625  0.5234
   21DG     H14  474   4.077   4.475   2.883 -0.3250  3.5697  1.0307
   21DG     H15  475   4.061   4.356   2.421 -0.5941  0.7867  0.3392
   21DG     H16  476   3.913   4.306   2.336 -4.2495 -1.4035  2.5078
   21DG     C17  477   3.932   4.341   2.779  0.2287  0.4430 -0.1633
   21DG     C18  478   3.907   4.285   2.550  0.5394 -0.2614 -1.0939
   21DG     O19  479   3.940   4.389   2.643  0.6007  0.4681  0.1615
   21DG     H20  480   3.827   4.323   2.799  0.1925  1.1642  0.3585
   21DG     H21  481   3.995   4.254   2.798  0.9114  0.7604 -0.8903
   21DG     H22  482   3.802   4.257   2.536  0.4495 -0.4882 -0.0556
   21DG     H23  483   3.955   4.193   2.581 -1.9602 -1.0123  0.9331
   22DG      C1  484   2.147   4.108   4.984  0.3462  0.1257 -0.0168
   22DG      C2  485   2.252   4.356   4.353 -0.7630  0.0696 -0.0411
   22DG      H3  486   2.047   4.094   5.024  0.6499  0.0494  0.7290
   22DG      H4  487   2.218   4.119   5.066  2.3379  0.5350 -1.7164
   22DG      H5  488   2.167   4.010   4.940 -0.3865 -0.0911  0.1275
   22DG      H6  489   2.255   4.441   4.285 -2.2747  0.1834 -0.0171
   22DG      H7  490   2.343   4.299   4.335  1.0285  1.8560  2.6034
   22DG      H8  491   2.160   4.298   4.338 -0.5706 -0.1445 -0.3975
   22DG      O9  492   2.162   4.216   4.891 -0.4699 -0.6527 -0.4558
   22DG     O10  493   2.251   4.408   4.487 -0.2078 -0.3452 -0.6682
   22DG     C11  494   2.122   4.340   4.954 -0.0517  0.4221 -0.8244
   22DG     C12  495   2.149   4.497   4.508 -0.3307  0.2421  0.3803
   22DG     H13  496   2.153   4.352   5.058 -2.0755  2.6204 -0.3974
   22DG     H14  497   2.015   4.358   4.959 -0.4830 -2.0887  1.2549
   22DG     H15  498   2.067   4.430   4.483  0.2496  0.2604 -1.7575
   22DG     H16  499   2.149   4.575   4.432  2.0091  0.5898  0.6663
   22DG     C17  500   2.182   4.456   4.868  0.0265 -0.4433 -0.4001
   22DG     C18  501   2.155   4.546   4.656 -0.5067  0.1277  0.6694
   22DG     O19  502   2.148   4.430   4.735  0.1403 -0.0037  0.0280
   22DG     H20  503   2.291   4.457   4.870  0.0739 -0.0771 -2.1823
   22DG     H21  504   2.135   4.551   4.896 -0.5839 -1.5973  3.1135
   22DG     H22  505   2.249   4.598   4.676 -1.2059  1.4897  0.5303
   22DG     H23  506   2.074   4.616   4.676 -0.9983 -0.6645  1.5057
   23DG      C1  507   5.260   4.757   3.709  0.3353 -0.2852  0.0904
   23DG      C2  508   5.412   5.143   4.157  0.3668  0.2585  0.1846
   23DG      H3  509   5.213   4.712   3.796 -0.3665  1.4588  0.6528
   23DG      H4  510   5.365   4.729   3.702  0.3238 -0.3238  0.0758
   23DG      H5  511   5.212   4.706   3.625  0.6464 -0.3263 -0.0620
   23DG      H6  512   5.408   5.226   4.227  2.0890 -0.0736  0.7042
   23DG      H7  513   5.368   5.058   4.209  0.0951 -1.1992 -2.2682
   23DG      H8  514   5.515   5.118   4.132 -0.1322  0.4489 -2.3798
   23DG      O9  515   5.233   4.892   3.714  0.0941 -0.2884 -0.3886
   23DG     O10  516   5.357   5.164   4.024 -0.3975 -0.4019 -0.1483
   23DG     C11  517   5.250   4.967   3.596  0.1921  0.0435  0.1881
   23DG     C12  518   5.440   5.247   3.938  0.6163 -1.1952 -0.2523
   23DG     H13  519   5.166   4.950   3.529 -0.4618  2.2885  0.3447
   23DG     H14  520   5.341   4.926   3.552  1.4000  1.1615  1.5324
   23DG     H15  521   5.544   5.215   3.929  1.7289  1.6929  0.8935
   23DG     H16  522   5.440   5.350   3.975  0.5803 -0.6849 -1.6195
   23DG     C17  523   5.269   5.109   3.631  0.1415 -0.9240  0.7435
   23DG     C18  524   5.381   5.251   3.796  0.6965  0.3558 -1.3858
   23DG     O19  525   5.347   5.120   3.754  0.0865 -0.4895 -0.1875
   23DG     H20  526   5.171   5.155   3.645 -0.0438 -1.4768  1.3246
   23DG     H21  527   5.317   5.173   3.557 -0.1154 -3.0402 -1.3802
   23DG     H22  528   5.291   5.311   3.790  0.3205 -0.2245 -1.6836
   23DG     H23  529   5.460   5.299   3.737  1.2585  0.2509 -0.7364
   24DG      C1  530   3.432   1.017   4.447 -0.0502  0.1325  0.3167
   24DG      C2  531   4.057   1.462   4.621  0.5046  0.2795 -0.0418
   24DG      H3  532   3.369   0.965   4.518 -0.7934 -0.0493 -0.4639
   24DG      H4  533   3.466   0.941   4.377  0.3527  1.1338 -0.6168
   24DG      H5  534   3.367   1.093   4.403  0.6432  0.9277  0.6171
   24DG      H6  535   4.133   1.431   4.550 -0.3693 -2.0692 -0.0374
   24DG      H7  536   4.032   1.562   4.586 -0.3319  0.2153  0.3526
   24DG      H8  537   4.102   1.489   4.716 -2.0324  0.3984  1.1965
   24DG      O9  538   3.531   1.071   4.526  0.2464  0.1329  0.5524
   24DG     O10  539   3.954   1.358   4.635 -0.2066 -0.2664 -0.4812
   24DG     C11  540   3.616   1.156   4.462  0.5182 -0.3992 -1.1080
   24DG     C12  541   4.006   1.229   4.657 -1.0143 -0.2090  0.0581
   24DG     H13  542   3.556   1.241   4.429  1.1190  0.2277 -0.6254
   24DG     H14  543   3.661   1.118   4.370  2.1569  0.4135 -0.6817
   24DG     H15  544   4.069   1.241   4.745 -0.1029  0.5254 -0.6754
   24DG     H16  545   4.076   1.194   4.581 -0.8464  0.0993  0.0700
   24DG     C17  546   3.722   1.211   4.550 -0.1245 -0.4691  0.4909
   24DG     C18  547   3.894   1.132   4.690  0.9905  0.5203 -0.0038
   24DG     O19  548   3.806   1.101   4.580  0.1030  0.0545  0.5129
   24DG     H20  549   3.680   1.259   4.638  1.0349 -1.0167  1.3838
   24DG     H21  550   3.779   1.285   4.493 -0.2801 -0.6286  0.1269
   24DG     H22  551   3.951   1.040   4.703  0.4050 -0.2092 -2.1629
   24DG     H23  552   3.841   1.150   4.784  1.2595 -1.3575  0.5453
   25DG      C1  553   4.493   2.101   3.204  0.0492  0.3992 -0.0902
   25DG      C2  554   4.944   2.450   3.301  0.1351 -0.3616  0.3715
   25DG      H3  555   4.408   2.075   3.267  0.1840 -1.5139 -0.6366
   25DG      H4  556   4.578   2.039   3.231  0.6764  0.7358 -1.1915
   25DG      H5  557   4.473   2.060   3.104 -0.3309 -1.7496  0.8040
   25DG      H6  558   4.998   2.407   3.385 -0.7285 -0.8563  0.6854
   25DG      H7  559   4.930   2.378   3.220 -0.8190  0.6978 -0.4430
   25DG      H8  560   5.006   2.533   3.266  0.1682 -0.2617  0.6607
   25DG      O9  561   4.531   2.230   3.219  0.8429  0.0613 -0.2872
   25DG     O10  562   4.819   2.492   3.341  0.0842 -0.0678 -0.3466
   25DG     C11  563   4.426   2.329   3.181 -0.4086 -0.5396 -0.0669
   25DG     C12  564   4.773   2.588   3.251  0.2376  0.2752  0.1048
   25DG     H13  565   4.346   2.321   3.255 -1.3916  3.1221 -0.5401
   25DG     H14  566   4.368   2.303   3.092 -2.2147  0.0552  0.8883
   25DG     H15  567   4.773   2.551   3.148  2.5203  1.1144 -0.2603
   25DG     H16  568   4.838   2.675   3.254 -0.8654  1.1063  1.7362
   25DG     C17  569   4.494   2.467   3.172 -0.4669 -0.4132  0.1401
   25DG     C18  570   4.629   2.629   3.292  0.2985 -0.8279 -0.0405
   25DG     O19  571   4.547   2.510   3.298 -0.1682  0.0507  0.4095
   25DG     H20  572   4.417   2.535   3.137 -0.1136  0.5682  1.2056
   25DG     H21  573   4.575   2.473   3.099 -0.3691  0.4027  0.3085
   25DG     H22  574   4.627   2.686   3.385 -3.5452 -0.5536 -0.1102
   25DG     H23  575   4.594   2.702   3.219  0.5998 -2.1963 -1.6102
   26DG      C1  576   2.537   4.330   2.898 -0.0267  0.1840 -0.2885
   26DG      C2  577   3.145   4.661   2.952  0.4264 -0.3832  0.2772
   26DG      H3  578   2.605   4.247   2.882  0.9702  1.2607 -1.9005
   26DG      H4  579   2.474   4.326   2.809 -1.3257 -1.2567  0.6397
   26DG      H5  580   2.486   4.314   2.993 -2.4298  0.4864 -1.4513
   26DG      H6  581   3.190   4.758   2.935 -3.3648  1.1435 -2.6787
   26DG      H7  582   3.190   4.608   3.036  2.4909  1.2097  0.2469
   26DG      H8  583   3.191   4.592   2.881  0.9345  1.0510 -0.8455
   26DG      O9  584   2.616   4.455   2.905  0.6944  0.1780  0.0176
   26DG     O10  585   3.002   4.673   2.959 -0.1525 -0.3338 -0.3835
   26DG     C11  586   2.547   4.551   2.988  0.7540 -0.6903 -0.9276
   26DG     C12  587   2.956   4.787   3.034  0.5151 -0.6046  0.1558
   26DG     H13  588   2.542   4.525   3.093  2.7533  2.9305  0.2000
   26DG     H14  589   2.441   4.561   2.962  0.8283 -1.3773 -1.5309
   26DG     H15  590   3.021   4.870   3.008  0.6420 -0.7408  0.0400
   26DG     H16  591   2.973   4.775   3.141  2.2356  2.3429  0.3342
   26DG     C17  592   2.603   4.698   2.980 -0.7481  0.3332 -0.7674
   26DG     C18  593   2.809   4.813   2.996  0.0104  0.4239 -0.1162
   26DG     O19  594   2.741   4.687   2.997  0.2406  0.6891  0.2643
   26DG     H20  595   2.577   4.753   3.070 -0.0400 -2.4687  1.2937
   26DG     H21  596   2.561   4.753   2.896 -1.5557  0.8344 -0.0495
   26DG     H22  597   2.762   4.886   3.062 -2.1771 -2.2454  1.4364
   26DG     H23  598   2.804   4.856   2.895 -0.9857  0.0534 -0.2403
   27DG      C1  599   3.970   4.085   1.423 -0.1772 -0.3343 -0.8211
   27DG      C2  600   4.747   4.116   1.278 -0.0261  0.2754  0.0243
   27DG      H3  601   3.862   4.096   1.432 -0.0341  2.0626 -1.4777
   27DG      H4  602   3.989   4.075   1.317  0.2550  0.9750 -0.8862
   27DG      H5  603   3.994   4.190   1.437 -2.3884  0.3223 -1.5155
   27DG      H6  604   4.839   4.146   1.328 -0.4875  0.6287  0.6774
   27DG      H7  605   4.759   4.069   1.181  0.8762 -1.7039  1.0466
   27DG      H8  606   4.712   4.216   1.252  0.7683  1.2968  2.5538
   27DG      O9  607   4.060   3.998   1.497 -0.1351 -0.2522  0.5328
   27DG     O10  608   4.639   4.065   1.349 -0.0918  0.3136 -0.5953
   27DG     C11  609   4.194   4.030   1.469 -0.3085 -0.1255 -0.1252
   27DG     C12  610   4.644   3.932   1.392  0.1754 -0.3925 -0.2088
   27DG     H13  611   4.223   4.126   1.513 -1.9594  0.3299  0.0250
   27DG     H14  612   4.209   4.033   1.361 -0.0655 -1.5593 -0.1477
   27DG     H15  613   4.740   3.919   1.441  0.3638 -0.9049 -0.6988
   27DG     H16  614   4.647   3.869   1.303 -0.7836  1.4437 -1.6065
   27DG     C17  615   4.291   3.920   1.507 -0.6713 -0.1173  0.1654
   27DG     C18  616   4.528   3.902   1.483  0.6499  0.1129  0.0683
   27DG     O19  617   4.405   3.939   1.424  0.2788 -0.4195 -0.2679
   27DG     H20  618   4.239   3.824   1.500 -2.2880  0.5834  1.7588
   27DG     H21  619   4.307   3.935   1.614 -0.0244 -2.1569  0.3914
   27DG     H22  620   4.524   3.794   1.499 -1.2668  0.0294 -0.6708
   27DG     H23  621   4.542   3.944   1.582 -0.2419  0.2598  0.1387
   28DG      C1  622   4.280   2.510   2.306  0.1794  0.1491  0.2894
   28DG      C2  623   4.276   2.030   2.911 -0.2312  0.6543 -0.1882
   28DG      H3  624   4.334   2.523   2.212 -0.6290  1.4290 -0.0223
   28DG      H4  625   4.249   2.614   2.310 -1.1337 -0.1742 -0.8858
   28DG      H5  626   4.196   2.443   2.286  1.8175 -1.7351 -0.5988
   28DG      H6  627   4.279   2.085   3.005 -2.0983 -1.3617  1.1390
   28DG      H7  628   4.179   1.985   2.890  0.0981 -0.5801  0.8088
   28DG      H8  629   4.346   1.947   2.918 -0.7383  0.3425  2.3720
   28DG      O9  630   4.357   2.460   2.405 -0.5110  0.0296 -0.0968
   28DG     O10  631   4.317   2.118   2.810  0.5035  0.3240 -0.7194
   28DG     C11  632   4.337   2.509   2.534  0.2246  0.5862 -0.8285
   28DG     C12  633   4.461   2.121   2.798  0.1653 -0.4696  0.3771
   28DG     H13  634   4.234   2.492   2.566 -0.0909  0.6051 -1.7975
   28DG     H14  635   4.345   2.618   2.529  0.8931  0.5123 -1.5672
   28DG     H15  636   4.484   2.066   2.706 -0.2754 -0.4352  0.2428
   28DG     H16  637   4.524   2.096   2.883  0.0577  0.6525  0.8003
   28DG     C17  638   4.438   2.467   2.644  0.0707  0.5707  0.7867
   28DG     C18  639   4.504   2.271   2.777 -0.4626 -0.0863 -0.5393
   28DG     O19  640   4.432   2.321   2.664 -0.1518  0.1214 -0.1148
   28DG     H20  641   4.416   2.507   2.743  0.7023  1.1771  0.6899
   28DG     H21  642   4.537   2.499   2.613 -0.1415 -0.5077 -1.2326
   28DG     H22  643   4.484   2.327   2.868 -0.2083 -2.5923  1.1584
   28DG     H23  644   4.613   2.274   2.774 -0.3754 -1.1149  0.5691
   29DG      C1  645   1.957   3.631   3.230  0.0348 -0.1877  0.3985
   29DG      C2  646   1.479   3.843   2.779  0.1588  0.1440  0.2123
   29DG      H3  647   1.985   3.603   3.332 -1.7631  0.7759  1.2003
   29DG      H4  648   2.049   3.659   3.179  0.7985  0.3019  1.9596
   29DG      H5  649   1.917   3.540   3.185 -0.9955 -1.0902  2.8980
   29DG      H6  650   1.539   3.877   2.694  1.6709 -0.6001  0.9431
   29DG      H7  651   1.462   3.736   2.769 -0.0443  0.2101 -0.1908
   29DG      H8  652   1.380   3.888   2.785 -0.0582 -0.0706 -1.3477
   29DG      O9  653   1.854   3.725   3.216  0.5930 -0.0282 -0.1450
   29DG     O10  654   1.548   3.860   2.901 -0.8784 -0.5525 -0.7873
   29DG     C11  655   1.891   3.849   3.269  0.5498  0.5079  0.8476
   29DG     C12  656   1.581   3.996   2.933  0.4989 -0.3093  0.2581
   29DG     H13  657   1.971   3.893   3.210 -0.7879  0.1939 -1.3271
   29DG     H14  658   1.914   3.846   3.375 -2.2000  1.4536  1.5593
   29DG     H15  659   1.494   4.058   2.910 -0.0656 -0.0981  2.6536
   29DG     H16  660   1.657   4.021   2.859  0.9827 -1.4563  0.3396
   29DG     C17  661   1.767   3.935   3.254  0.2611 -0.2691  0.2426
   29DG     C18  662   1.621   4.011   3.079 -0.7546 -0.0427  0.1571
   29DG     O19  663   1.740   3.936   3.115 -0.0113 -0.0202 -0.6056
   29DG     H20  664   1.787   4.035   3.293  1.2903  0.1193 -1.2275
   29DG     H21  665   1.690   3.886   3.314 -1.1505  1.4484 -0.0790
   29DG     H22  666   1.643   4.113   3.111  2.8756 -1.3891  2.7114
   29DG     H23  667   1.542   3.967   3.140 -1.0691 -0.2327 -0.3803
   30DG      C1  668   0.399   4.722   0.584 -0.0850  0.3871  0.3878
   30DG      C2  669   0.237   5.114   0.128 -1.0550 -0.0582  0.0198
   30DG      H3  670   0.310   4.694   0.640 -1.3257  1.6332 -0.8757
   30DG      H4  671   0.484   4.675   0.635 -0.7685 -0.1696  1.0312
   30DG      H5  672   0.390   4.672   0.487 -1.1430 -2.3306  1.7686
   30DG      H6  673   0.308   5.031   0.121 -0.1831  0.6891 -0.2642
   30DG      H7  674   0.148   5.076   0.079 -0.6473  1.8090 -2.3749
   30DG      H8  675   0.272   5.190   0.059 -1.2516  0.1079  0.1013
   30DG      O9  676   0.409   4.854   0.550  0.5257  0.7622  0.0734
   30DG     O10  677   0.222   5.156   0.263 -0.4357  0.3360  0.0111
   30DG     C11  678   0.423   4.942   0.657 -0.0420  0.4443  0.2537
   30DG     C12  679   0.340   5.227   0.301  0.4469  0.4648  0.4354
   30DG     H13  680   0.504   4.909   0.723 -1.7764 -0.9499  1.7937
   30DG     H14  681   0.328   4.946   0.709 -1.0559 -1.9137 -1.2419
   30DG     H15  682   0.333   5.328   0.260  1.6262  0.2886 -0.2372
   30DG     H16  683   0.434   5.188   0.261  1.2197  1.9201  0.7450
   30DG     C17  684   0.441   5.082   0.610 -0.2987  0.2395 -0.1686
   30DG     C18  685   0.349   5.240   0.452 -0.4258 -0.2499 -0.0281
   30DG     O19  686   0.334   5.115   0.520  0.0772  0.1669  0.2194
   30DG     H20  687   0.542   5.080   0.569  0.7828  0.1691  2.3356
   30DG     H21  688   0.441   5.146   0.698  0.5968 -0.1249  0.1020
   30DG     H22  689   0.433   5.300   0.487 -0.7279  0.9445 -1.2640
   30DG     H23  690   0.270   5.311   0.476 -0.7810 -0.2100 -1.2700
   31DG      C1  691   3.156   1.371   2.644  0.7121  0.6518 -0.3324
   31DG      C2  692   3.780   1.291   2.397 -0.3421 -0.1182 -0.0429
   31DG      H3  693   3.090   1.449   2.680 -0.7872  0.1597 -1.8962
   31DG      H4  694   3.149   1.281   2.705  0.3222 -0.9664 -2.6518
   31DG      H5  695   3.115   1.342   2.547 -1.2905  0.0712  0.6363
   31DG      H6  696   3.736   1.311   2.299  1.1196 -1.4720 -1.0289
   31DG      H7  697   3.882   1.329   2.399 -0.3783 -0.0197 -0.0575
   31DG      H8  698   3.785   1.184   2.414 -2.0187 -0.4142 -1.1939
   31DG      O9  699   3.290   1.421   2.625  0.3845  0.4183 -0.1153
   31DG     O10  700   3.711   1.365   2.497 -0.6984  0.1830  0.3516
   31DG     C11  701   3.295   1.551   2.568 -1.1164 -0.2624  0.6806
   31DG     C12  702   3.762   1.493   2.523 -0.1103  0.2360  0.8678
   31DG     H13  703   3.217   1.617   2.604 -0.3715  1.2152 -0.3260
   31DG     H14  704   3.279   1.556   2.460 -1.6027 -0.5017  0.7390
   31DG     H15  705   3.762   1.552   2.431 -1.4610 -0.2396  0.5449
   31DG     H16  706   3.868   1.503   2.545  1.3451 -0.5082 -4.3512
   31DG     C17  707   3.425   1.612   2.610  0.0750 -0.4447 -0.1783
   31DG     C18  708   3.666   1.564   2.617 -0.2398  0.2351 -0.6397
   31DG     O19  709   3.535   1.527   2.586  0.2081 -0.4796 -0.1000
   31DG     H20  710   3.431   1.638   2.715  0.4057 -0.2447 -0.2451
   31DG     H21  711   3.441   1.712   2.569  1.4403 -0.6850 -0.2732
   31DG     H22  712   3.692   1.516   2.712 -2.7018  0.6372  0.3137
   31DG     H23  713   3.681   1.672   2.621 -1.4373  0.5192 -2.6544
   32DG      C1  714   3.807   4.107   5.098  0.0023 -0.1927  0.6418
   32DG      C2  715   4.161   4.619   4.964  0.5164  0.6604  0.5083
   32DG      H3  716   3.858   4.143   5.188 -0.1986 -0.7035  0.9625
   32DG      H4  717   3.859   4.024   5.051 -0.4910  1.7391 -3.7152
   32DG      H5  718   3.715   4.071   5.145 -0.6727  0.9094  0.2135
   32DG      H6  719   4.193   4.584   4.866  1.3665  0.7350  0.7470
   32DG      H7  720   4.185   4.725   4.951  1.3462  0.4565  0.3459
   32DG      H8  721   4.224   4.570   5.038 -0.7291 -1.3505  0.2891
   32DG      O9  722   3.794   4.218   5.017 -0.2075 -0.3888  0.0428
   32DG     O10  723   4.016   4.592   4.981 -0.2944  0.4531  0.4128
   32DG     C11  724   3.702   4.311   5.071  0.9911 -0.4448 -0.3624
   32DG     C12  725   3.936   4.637   4.871  0.2471  0.2484 -0.5287
   32DG     H13  726   3.731   4.349   5.169  0.0261  1.8014 -0.8783
   32DG     H14  727   3.604   4.269   5.097  0.5603  1.3837  1.1496
   32DG     H15  728   3.973   4.579   4.787 -0.6716 -0.3973 -0.4976
   32DG     H16  729   3.947   4.745   4.860  1.5273  0.1569 -0.2386
   32DG     C17  730   3.665   4.414   4.973 -0.7275 -0.2855 -0.0036
   32DG     C18  731   3.791   4.595   4.887 -0.2168  0.4542 -0.1153
   32DG     O19  732   3.791   4.466   4.942 -0.0610 -0.2462 -0.2814
   32DG     H20  733   3.607   4.493   5.021  0.1217  0.2548  0.1701
   32DG     H21  734   3.629   4.371   4.881 -0.5556  1.0946 -0.7478
   32DG     H22  735   3.736   4.667   4.946 -0.3181  2.4811 -2.4963
   32DG     H23  736   3.729   4.594   4.797  0.2780 -1.7799 -0.4845
   33DG      C1  737   2.496   2.358   0.727 -0.1911  0.2975 -0.8087
   33DG      C2  738   2.448   1.768   1.105  0.0736 -0.0354 -0.2692
   33DG      H3  739   2.543   2.274   0.676  1.5256  0.7898 -0.1009
   33DG      H4  740   2.569   2.414   0.784 -0.6910  0.0266  0.1146
   33DG      H5  741   2.459   2.423   0.646 -0.6964 -1.1711 -1.7982
   33DG      H6  742   2.385   1.694   1.155 -0.1494  1.2004  1.3759
   33DG      H7  743   2.515   1.714   1.038 -2.3910 -0.9488 -2.1266
   33DG      H8  744   2.490   1.826   1.187 -0.0471  0.4792 -0.5657
   33DG      O9  745   2.391   2.321   0.808  0.3458 -0.2671  0.3832
   33DG     O10  746   2.374   1.859   1.024 -0.2280  0.9823  0.4070
   33DG     C11  747   2.304   2.227   0.756 -0.0119 -0.0608 -0.1733
   33DG     C12  748   2.289   1.934   1.109  0.3413  0.2323 -0.1657
   33DG     H13  749   2.353   2.139   0.714 -0.2444  0.3253 -1.2875
   33DG     H14  750   2.252   2.273   0.672 -0.9100 -2.2319 -0.8601
   33DG     H15  751   2.353   1.995   1.172  1.2172 -2.2153  1.4794
   33DG     H16  752   2.235   1.866   1.175  0.6832  0.9177  0.8440
   33DG     C17  753   2.209   2.185   0.873  0.5500 -0.6240  0.3697
   33DG     C18  754   2.200   2.017   1.025  0.5247  0.0525  0.9094
   33DG     O19  755   2.292   2.104   0.957 -0.1410  0.3863  0.4733
   33DG     H20  756   2.120   2.141   0.828  0.5024 -3.0142  2.5652
   33DG     H21  757   2.180   2.279   0.920  1.6245 -0.6849  1.2014
   33DG     H22  758   2.140   1.953   0.962  1.8299 -1.7310  1.4097
   33DG     H23  759   2.135   2.081   1.084  0.5091  1.1182 -0.2231
   34DG      C1  760   4.232   3.686   2.215 -0.4171  0.5257  0.2051
   34DG      C2  761   3.871   4.178   2.035  0.0515  0.0841 -0.0629
   34DG      H3  762   4.326   3.742   2.219 -0.0244  0.0834 -1.8449
   34DG      H4  763   4.249   3.586   2.255 -1.6419  0.2469  0.0593
   34DG      H5  764   4.167   3.738   2.286  0.3676 -0.0433  1.3888
   34DG      H6  765   3.973   4.202   2.064  0.6389 -1.3570 -0.7983
   34DG      H7  766   3.836   4.253   1.964  0.1814  1.6519  1.4792
   34DG      H8  767   3.813   4.207   2.123  2.1384 -1.0579  1.7820
   34DG      O9  768   4.202   3.696   2.075 -0.2098  0.3735 -0.8699
   34DG     O10  769   3.849   4.042   1.997 -0.2459 -0.3944  0.4907
   34DG     C11  770   4.081   3.628   2.045  0.2012  0.5662  0.9257
   34DG     C12  771   3.890   4.025   1.863  0.3016  0.1934  0.7883
   34DG     H13  772   4.005   3.652   2.119 -1.4482  2.4050 -1.1983
   34DG     H14  773   4.078   3.519   2.053 -1.2120  0.6916  2.7460
   34DG     H15  774   3.988   4.065   1.837  0.7038 -0.8227  0.6798
   34DG     H16  775   3.819   4.068   1.792  0.1849 -0.4139  0.5307
   34DG     C17  776   4.005   3.678   1.921  0.0843 -0.0875  0.6690
   34DG     C18  777   3.900   3.874   1.835 -0.6425 -0.6652 -0.3974
   34DG     O19  778   3.981   3.815   1.938  0.3034  0.2651  0.1180
   34DG     H20  779   3.914   3.618   1.910 -0.2513  0.5748 -0.3147
   34DG     H21  780   4.061   3.657   1.830 -2.5802 -3.3920 -0.4258
   34DG     H22  781   3.799   3.834   1.846  0.1094 -2.7590 -0.6332
   34DG     H23  782   3.939   3.848   1.737 -0.4494 -2.8394  0.1921
   35DG      C1  783   1.514   4.593   4.079 -0.0905  0.2926 -0.8329
   35DG      C2  784   2.064   4.046   3.931  0.7764  0.3470 -0.7355
   35DG      H3  785   1.420   4.539   4.064 -1.2481  1.8224  0.4234
   35DG      H4  786   1.519   4.680   4.013 -1.1092 -1.2416 -3.0434
   35DG      H5  787   1.516   4.640   4.178 -0.9068 -1.6042  0.1335
   35DG      H6  788   2.116   4.097   3.849 -1.6530  2.9753 -0.7955
   35DG      H7  789   2.140   4.013   4.002 -0.8999  1.5980  1.7647
   35DG      H8  790   1.998   3.967   3.897 -1.1152  1.8580 -0.7400
   35DG      O9  791   1.621   4.492   4.076  0.4861 -0.5977  0.3420
   35DG     O10  792   1.980   4.139   4.009  0.8176  0.4209 -0.3492
   35DG     C11  793   1.617   4.394   3.973  0.3821  0.0517  0.0004
   35DG     C12  794   1.908   4.078   4.117 -0.1806 -0.1712 -0.3102
   35DG     H13  795   1.642   4.451   3.883 -0.1571  1.8303  0.9244
   35DG     H14  796   1.520   4.345   3.963  0.5428 -0.9136  2.5457
   35DG     H15  797   1.928   4.127   4.212 -0.8786  0.0461 -0.2715
   35DG     H16  798   1.942   3.974   4.118  1.7727  0.4254 -0.9003
   35DG     C17  799   1.729   4.288   3.987 -0.0087  0.0563  0.6158
   35DG     C18  800   1.754   4.084   4.101 -0.1380  0.0305 -0.4566
   35DG     O19  801   1.708   4.215   4.105  0.3434 -0.1680  0.2954
   35DG     H20  802   1.831   4.324   3.979  0.5346 -1.3640  0.8274
   35DG     H21  803   1.736   4.224   3.899 -0.1199  2.4343 -1.2112
   35DG     H22  804   1.719   4.034   4.011 -1.1496  0.8674 -0.5349
   35DG     H23  805   1.705   4.043   4.189 -0.2176 -3.1156 -1.8277
   36DG      C1  806   3.941   0.798   3.025  0.2063  0.5868 -0.3987
   36DG      C2  807   3.274   0.614   2.971  0.3036 -1.0667 -0.4370
   36DG      H3  808   3.933   0.857   2.934  0.7821  0.7283 -0.3592
   36DG      H4  809   4.033   0.745   3.002 -0.4848  0.1513 -2.3908
   36DG      H5  810   3.932   0.872   3.104  0.3812 -1.6239  1.8416
   36DG      H6  811   3.282   0.656   2.871  0.7140 -0.6896 -0.2491
   36DG      H7  812   3.183   0.555   2.971  0.4480 -1.4674  2.8569
   36DG      H8  813   3.265   0.687   3.052 -0.7990 -2.6125  0.8845
   36DG      O9  814   3.844   0.695   3.033 -0.0563 -0.3421 -0.2754
   36DG     O10  815   3.395   0.551   2.995 -0.5488  0.3809  0.3859
   36DG     C11  816   3.882   0.608   3.142 -0.0828 -0.7684  0.2221
   36DG     C12  817   3.403   0.485   3.121  0.1604  0.1452 -0.8903
   36DG     H13  818   3.889   0.655   3.241 -1.6056  1.8949 -0.8201
   36DG     H14  819   3.979   0.564   3.120  0.9424  1.3880  0.1118
   36DG     H15  820   3.333   0.402   3.109  1.7913 -1.1693 -1.8561
   36DG     H16  821   3.366   0.547   3.202  2.3272 -0.3836  0.5894
   36DG     C17  822   3.776   0.499   3.148  0.2821  0.8748 -0.2537
   36DG     C18  823   3.548   0.432   3.146 -0.3186 -0.0053  0.4393
   36DG     O19  824   3.641   0.544   3.161  0.1260  0.1865 -0.5287
   36DG     H20  825   3.800   0.439   3.236 -1.1162  2.7402  1.4665
   36DG     H21  826   3.775   0.456   3.047 -1.4528  0.6050 -0.1433
   36DG     H22  827   3.552   0.372   3.237  1.2928  0.3786  0.6548
   36DG     H23  828   3.571   0.362   3.066  1.9710  1.7807 -0.5882
   37DG      C1  829   4.316   0.248   2.921  0.7229  0.3029 -0.2906
   37DG      C2  830   4.918   0.111   2.725  0.1229 -0.0854 -0.3085
   37DG      H3  831   4.282   0.317   2.997  1.0456  2.5056 -2.0436
   37DG      H4  832   4.235   0.178   2.899  0.4725  0.6254 -0.4091
   37DG      H5  833   4.318   0.301   2.826  0.1622 -1.6151 -1.4481
   37DG      H6  834   4.907   0.005   2.704  0.8876 -0.5250  1.3535
   37DG      H7  835   4.869   0.169   2.646 -1.3851 -0.3940  0.3558
   37DG      H8  836   5.021   0.144   2.739  0.2167 -0.3714 -0.3202
   37DG      O9  837   4.432   0.180   2.958 -0.3120 -0.3117  0.8398
   37DG     O10  838   4.843   0.145   2.844 -0.3432  0.2291 -0.3801
   37DG     C11  839   4.437   0.150   3.095  0.2561  0.2730 -0.3647
   37DG     C12  840   4.901   0.102   2.969 -0.4957 -0.4535  0.9464
   37DG     H13  841   4.347   0.091   3.113  1.2089 -1.3408 -0.7042
   37DG     H14  842   4.454   0.239   3.154  2.2091 -0.7280  0.6653
   37DG     H15  843   4.929   0.193   3.022  1.5398 -1.9863  2.7235
   37DG     H16  844   4.992   0.043   2.963 -0.4376 -0.2703 -0.1407
   37DG     C17  845   4.561   0.066   3.130  0.2412 -0.2187  0.6849
   37DG     C18  846   4.790   0.037   3.055  0.3154 -0.2470 -0.2815
   37DG     O19  847   4.667   0.105   3.038  0.2454  0.7213  0.0046
   37DG     H20  848   4.539  -0.039   3.110 -0.2017  0.3051 -1.8661
   37DG     H21  849   4.604   0.081   3.229  1.2793  1.8966 -0.0187
   37DG     H22  850   4.775  -0.070   3.044  0.9631 -0.4209  0.4653
   37DG     H23  851   4.819   0.052   3.159 -1.0856 -0.6874  0.2065
   38DG      C1  852   3.390   1.067   1.238 -0.0930  0.3507 -0.1420
   38DG      C2  853   3.907   1.004   0.874  0.4443  0.4560 -0.5565
   38DG      H3  854   3.361   0.966   1.211 -0.9633  0.8099 -0.9962
   38DG      H4  855   3.314   1.127   1.188  1.8569 -0.2199 -4.2398
   38DG      H5  856   3.367   1.076   1.344 -0.7490 -3.5485  0.1987
   38DG      H6  857   3.833   0.924   0.869  1.4936 -0.6548  0.8838
   38DG      H7  858   3.924   1.047   0.775 -1.1586  2.1607 -0.1377
   38DG      H8  859   3.997   0.955   0.911 -1.3554 -0.4691  3.1199
   38DG      O9  860   3.514   1.117   1.189  0.7767 -0.2367 -0.6279
   38DG     O10  861   3.858   1.082   0.983  0.7568  0.5395  0.6540
   38DG     C11  862   3.535   1.251   1.240  0.3246 -0.5426  0.4133
   38DG     C12  863   3.941   1.185   1.021  0.2525 -0.1070 -0.4427
   38DG     H13  864   3.491   1.265   1.339  0.6483 -0.5155  0.5527
   38DG     H14  865   3.502   1.329   1.172 -0.0389 -1.0130  0.0428
   38DG     H15  866   3.946   1.259   0.941 -2.0693 -0.3783 -0.8953
   38DG     H16  867   4.046   1.154   1.027  0.5059  0.9879  1.5628
   38DG     C17  868   3.686   1.269   1.263  0.6466  0.1004  0.9284
   38DG     C18  869   3.888   1.252   1.148  0.0455 -0.2838 -0.2137
   38DG     O19  870   3.749   1.245   1.143  0.4415 -0.1766  0.1275
   38DG     H20  871   3.724   1.202   1.340  0.8265 -1.3081 -0.3550
   38DG     H21  872   3.704   1.374   1.289 -0.5941  0.0875  1.8947
   38DG     H22  873   3.929   1.192   1.229 -0.2350 -0.8488 -0.4896
   38DG     H23  874   3.924   1.355   1.153  1.4450 -0.5584 -2.9005
   39DG      C1  875   3.892   2.582   1.709  0.5664 -0.5474  0.6127
   39DG      C2  876   4.400   2.755   1.294 -0.0158  0.0177 -0.1072
   39DG      H3  877   3.984   2.534   1.741  1.5708 -0.7874 -2.3026
   39DG      H4  878   3.843   2.512   1.641  2.8876  0.9036 -2.8606
   39DG      H5  879   3.830   2.608   1.794  1.1188  2.5177  0.1839
   39DG      H6  880   4.421   2.781   1.191  0.0010 -0.6449 -0.2750
   39DG      H7  881   4.493   2.773   1.348 -0.8100  2.7570  0.5462
   39DG      H8  882   4.372   2.650   1.291 -1.2899  0.3615 -0.8306
   39DG      O9  883   3.933   2.701   1.646 -0.2431 -0.2985  0.0391
   39DG     O10  884   4.293   2.833   1.348  0.0402  0.0696 -0.2427
   39DG     C11  885   3.840   2.738   1.541 -0.2801  0.5800 -0.2270
   39DG     C12  886   4.183   2.841   1.262 -0.0630  0.2008 -0.2934
   39DG     H13  887   3.736   2.742   1.575 -0.4404  1.7961 -0.8131
   39DG     H14  888   3.856   2.659   1.467  1.1422  0.1080  0.5541
   39DG     H15  889   4.148   2.752   1.211 -1.6608  0.9933 -0.6455
   39DG     H16  890   4.217   2.908   1.183 -0.2475  0.2624 -0.3206
   39DG     C17  891   3.880   2.860   1.470 -0.0832 -0.7537 -0.1321
   39DG     C18  892   4.069   2.912   1.334  0.2504 -0.5553  0.4566
   39DG     O19  893   4.013   2.826   1.433  0.1814 -0.1337  0.4313
   39DG     H20  894   3.868   2.947   1.534 -0.1454 -0.5528 -0.4134
   39DG     H21  895   3.813   2.883   1.386  0.9956  0.4547 -0.7017
   39DG     H22  896   4.111   3.000   1.384  2.9769 -0.8897 -1.0154
   39DG     H23  897   4.001   2.939   1.254  0.0425 -1.8435  0.1726
   40DG      C1  898   3.356   2.932   0.443 -0.3386 -0.0859 -0.3077
   40DG      C2  899   3.965   3.177   0.442  0.2664  0.8721 -0.2318
   40DG      H3  900   3.335   2.994   0.357 -2.5650  0.8087  0.8098
   40DG      H4  901   3.312   2.974   0.534 -0.4418 -0.7380 -0.0493
   40DG      H5  902   3.308   2.834   0.442 -0.3962 -0.1501  1.9735
   40DG      H6  903   3.925   3.230   0.528  0.6180 -0.5801  0.8538
   40DG      H7  904   4.074   3.177   0.449  0.5346  1.0130 -3.0636
   40DG      H8  905   3.949   3.241   0.355  1.8589  1.2835 -0.2608
   40DG      O9  906   3.493   2.889   0.443  0.4372  0.2741  0.4657
   40DG     O10  907   3.913   3.047   0.429 -0.3776 -0.4666 -0.1500
   40DG     C11  908   3.519   2.788   0.540  0.0032  0.6076  0.7302
   40DG     C12  909   3.955   2.960   0.530  0.5162  0.0769 -0.2951
   40DG     H13  910   3.467   2.697   0.509  0.5960  1.2749 -2.5955
   40DG     H14  911   3.487   2.809   0.642 -0.5050  0.8944  0.5172
   40DG     H15  912   3.928   3.002   0.627 -1.5889  1.0240 -1.2228
   40DG     H16  913   4.060   2.930   0.539  0.7526  0.8317 -0.4458
   40DG     C17  914   3.659   2.734   0.529 -0.2572 -0.3936 -0.1332
   40DG     C18  915   3.883   2.823   0.525 -0.1109 -0.1321 -0.2703
   40DG     O19  916   3.747   2.850   0.536  0.2073  0.4882  0.2849
   40DG     H20  917   3.670   2.678   0.437  3.1818  0.7250 -0.5420
   40DG     H21  918   3.696   2.664   0.604  1.5618 -0.7867 -1.3271
   40DG     H22  919   3.890   2.783   0.424 -2.3991  1.3420 -1.1027
   40DG     H23  920   3.919   2.752   0.599 -0.4617 -0.4239 -0.3773
   41DG      C1  921   4.703   1.581   0.286 -0.4158 -0.2527  0.0257
   41DG      C2  922   4.407   2.199   0.330  0.4891  0.1053 -0.2916
   41DG      H3  923   4.680   1.479   0.253  0.6363 -0.6335  0.4057
   41DG      H4  924   4.673   1.582   0.391 -1.9534 -0.8650 -0.3868
   41DG      H5  925   4.811   1.583   0.269 -0.7373 -0.3420 -2.2527
   41DG      H6  926   4.441   2.176   0.431 -0.3520 -1.9461 -0.4195
   41DG      H7  927   4.461   2.285   0.290 -0.8139  0.9693 -0.2480
   41DG      H8  928   4.303   2.229   0.333  0.3807 -0.3587  2.6962
   41DG      O9  929   4.626   1.667   0.206  0.7612  0.0659  0.4435
   41DG     O10  930   4.431   2.081   0.251  0.6180  0.1074 -0.4491
   41DG     C11  931   4.671   1.706   0.072 -0.1961  0.1472 -0.0107
   41DG     C12  932   4.394   2.098   0.110  0.2988 -0.4517 -0.2237
   41DG     H13  933   4.691   1.615   0.016 -1.1984  0.2278 -0.5162
   41DG     H14  934   4.763   1.762   0.080 -1.7231  2.9203 -0.6449
   41DG     H15  935   4.468   2.173   0.079  2.3665 -1.4063  2.0704
   41DG     H16  936   4.291   2.130   0.093  0.3040 -0.0861  0.4382
   41DG     C17  937   4.561   1.780  -0.000  0.6296 -0.0201  0.5026
   41DG     C18  938   4.424   1.972   0.028  0.6537 -0.8106  0.4277
   41DG     O19  939   4.528   1.889   0.080  0.1374  0.0249 -0.2115
   41DG     H20  940   4.477   1.712  -0.020 -0.9595  1.4787  1.7816
   41DG     H21  941   4.599   1.815  -0.096  1.8752 -0.6003  0.7741
   41DG     H22  942   4.327   1.922   0.023  0.2965  0.0154 -1.3780
   41DG     H23  943   4.457   1.999  -0.072  1.7727 -1.0781  0.7120
   42DG      C1  944   4.177   4.719   2.345  0.4275 -0.2621  0.5955
   42DG      C2  945   3.579   4.618   2.661 -0.1787  0.0350  0.0513
   42DG      H3  946   4.150   4.770   2.253  2.1103  1.4674  0.9954
   42DG      H4  947   4.169   4.610   2.345 -1.9085 -0.1554 -0.5326
   42DG      H5  948   4.281   4.750   2.356  0.8070 -0.6318 -1.5520
   42DG      H6  949   3.505   4.656   2.732  2.2486  1.3930  2.0439
   42DG      H7  950   3.531   4.593   2.567 -1.6079  2.7076 -0.0284
   42DG      H8  951   3.611   4.522   2.702 -0.3457 -1.1765 -2.4966
   42DG      O9  952   4.100   4.775   2.452  0.1369  0.1601  0.1193
   42DG     O10  953   3.699   4.692   2.644  0.1525 -0.5054 -0.0606
   42DG     C11  954   4.097   4.920   2.446  0.5255 -0.3009 -0.4957
   42DG     C12  955   3.659   4.828   2.622 -0.2087  0.2809  0.6846
   42DG     H13  956   4.057   4.961   2.354  0.0139  1.9624  0.6547
   42DG     H14  957   4.201   4.952   2.450  1.0946 -2.0624  0.0398
   42DG     H15  958   3.587   4.858   2.699  0.2877  0.5473  1.0452
   42DG     H16  959   3.611   4.834   2.524 -1.3850 -2.5091  0.9943
   42DG     C17  960   4.005   4.962   2.568  1.0575  0.5834 -0.0964
   42DG     C18  961   3.777   4.930   2.636  0.0522 -0.3798 -0.8414
   42DG     O19  962   3.895   4.883   2.559  0.1893  0.4746 -0.1038
   42DG     H20  963   3.983   5.068   2.555  1.8009  0.9176  1.1704
   42DG     H21  964   4.051   4.946   2.666  0.3900 -0.0123  0.1241
   42DG     H22  965   3.738   5.028   2.610  1.4885  0.6416  0.6029
   42DG     H23  966   3.811   4.945   2.739  0.0556 -0.8578 -0.7682
   43DG      C1  967   2.001   5.500   3.838  0.3639  0.1268  0.2295
   43DG      C2  968   2.645   5.487   4.028  0.8033 -0.4818 -0.9087
   43DG      H3  969   1.905   5.448   3.839  0.2055  0.4253  0.9045
   43DG      H4  970   2.061   5.479   3.750 -0.2909  1.8763 -0.6617
   43DG      H5  971   1.996   5.608   3.841  0.0756  0.1022  0.8371
   43DG      H6  972   2.686   5.494   3.927  1.1110 -0.5303 -0.7878
   43DG      H7  973   2.705   5.544   4.099 -2.0836  1.5562  0.1257
   43DG      H8  974   2.655   5.382   4.055  1.2182 -0.5465 -1.3090
   43DG      O9  975   2.073   5.450   3.951  0.0940 -0.1395  0.7250
   43DG     O10  976   2.509   5.518   4.052  0.2448 -0.2826 -0.0882
   43DG     C11  977   2.032   5.497   4.078 -0.0594 -0.5734 -0.0025
   43DG     C12  978   2.470   5.517   4.190 -0.1977  0.9169 -0.1243
   43DG     H13  979   1.932   5.474   4.114  0.4563  0.2550  2.1909
   43DG     H14  980   2.038   5.606   4.074 -1.6965 -0.4353  0.4428
   43DG     H15  981   2.532   5.595   4.235 -0.1258  0.0468  1.3336
   43DG     H16  982   2.501   5.420   4.227 -0.3320 -0.3790 -3.1175
   43DG     C17  983   2.120   5.442   4.188 -0.3828  0.4193 -1.0781
   43DG     C18  984   2.327   5.568   4.204 -0.0877  0.9371 -0.2809
   43DG     O19  985   2.256   5.453   4.150 -0.2361  0.3780  0.0407
   43DG     H20  986   2.119   5.333   4.190  2.3817  0.3162  0.7989
   43DG     H21  987   2.101   5.475   4.289 -1.8391  1.3930 -1.6471
   43DG     H22  988   2.312   5.604   4.306  0.5684 -0.2242  0.2469
   43DG     H23  989   2.304   5.656   4.144  0.3342  0.5809 -0.9744
   44DG      C1  990   4.409   0.078   1.243  0.0281  0.4653  0.8372
   44DG      C2  991   3.991  -0.362   1.473  0.5805 -0.0845 -0.2593
   44DG      H3  992   4.454   0.177   1.241  3.0769 -0.7480 -3.2523
   44DG      H4  993   4.373   0.060   1.142  3.4824 -3.9130  0.0796
   44DG      H5  994   4.494   0.010   1.238 -0.6832 -0.5045  1.5802
   44DG      H6  995   4.065  -0.440   1.487  0.4893 -0.3896 -1.4176
   44DG      H7  996   3.917  -0.395   1.546 -0.4403  2.0763 -0.2265
   44DG      H8  997   3.945  -0.356   1.374  1.6175  0.6921 -0.7153
   44DG      O9  998   4.322   0.053   1.347  0.3048  0.2399  0.6094
   44DG     O10  999   4.035  -0.234   1.521  0.1098  0.1814  0.0749
   44DG     C11 1000   4.373   0.100   1.478  0.0571 -0.0212  0.1878
   44DG     C12 1001   4.073  -0.220   1.660  0.5154  0.0088  0.1894
   44DG     H13 1002   4.396   0.206   1.475 -1.1044  0.2439  0.3036
   44DG     H14 1003   4.463   0.049   1.513 -0.6665 -2.2688 -1.0629
   44DG     H15 1004   4.146  -0.299   1.676 -0.5868 -0.8408  1.2767
   44DG     H16 1005   3.992  -0.252   1.727 -0.7129 -1.0976 -1.7147
   44DG     C17 1006   4.273   0.081   1.588  0.0449 -0.0324  0.1640
   44DG     C18 1007   4.132  -0.080   1.690  0.3359 -0.3243  0.4809
   44DG     O19 1008   4.237  -0.061   1.604  0.2488 -0.0396 -0.0468
   44DG     H20 1009   4.179   0.137   1.582 -1.0185 -1.5889  1.3747
   44DG     H21 1010   4.310   0.116   1.684 -0.3302 -4.1838  2.0284
   44DG     H22 1011   4.057  -0.002   1.673  2.7376  2.2827  1.1470
   44DG     H23 1012   4.183  -0.082   1.786  0.8906 -0.0925  0.1912
   45DG      C1 1013   0.350   0.880   3.535  0.6049 -0.8258 -0.8348
   45DG      C2 1014  -0.141   0.671   3.920 -0.1127 -0.7723  0.1929
   45DG      H3 1015   0.306   0.972   3.497  1.4061 -0.7029 -1.5078
   45DG      H4 1016   0.320   0.793   3.478 -0.9804  0.0016 -1.3096
   45DG      H5 1017   0.457   0.902   3.529  0.5793  0.7404  2.0749
   45DG      H6 1018  -0.177   0.646   4.020 -0.5835 -0.1801  0.1762
   45DG      H7 1019  -0.210   0.724   3.855  1.2191 -0.9359 -1.4307
   45DG      H8 1020  -0.130   0.574   3.870 -0.4604 -1.1788  0.8835
   45DG      O9 1021   0.326   0.868   3.679  0.0512 -0.5842  0.3147
   45DG     O10 1022  -0.010   0.736   3.936 -0.0714  0.7369 -0.3150
   45DG     C11 1023   0.382   0.984   3.747 -0.0635  0.2498  0.6410
   45DG     C12 1024  -0.020   0.865   3.978 -0.3609 -0.0445 -1.0811
   45DG     H13 1025   0.332   1.072   3.706  0.6584 -0.7447 -2.6535
   45DG     H14 1026   0.489   1.002   3.739  0.3198 -2.0692 -0.1266
   45DG     H15 1027  -0.081   0.872   4.068  0.7967  0.2629 -0.2985
   45DG     H16 1028  -0.060   0.930   3.900  0.6046  2.1416  0.1292
   45DG     C17 1029   0.335   0.971   3.891  0.3222 -0.1941  0.4289
   45DG     C18 1030   0.134   0.910   4.010 -0.0055  0.0612  0.0514
   45DG     O19 1031   0.203   0.921   3.890  0.3618  0.3755 -0.2073
   45DG     H20 1032   0.335   1.074   3.929  1.2806  0.6461 -1.6742
   45DG     H21 1033   0.401   0.910   3.952  0.7424 -1.1327 -0.9239
   45DG     H22 1034   0.122   1.009   4.054 -1.7973 -0.7411  1.4870
   45DG     H23 1035   0.179   0.838   4.077  0.0063 -1.4002 -1.4628
   46DG      C1 1036   4.750   1.639   2.817  0.2108  0.1565  0.0464
   46DG      C2 1037   4.527   1.369   3.401  0.0437 -0.2721  0.9155
   46DG      H3 1038   4.783   1.740   2.791  1.8563 -0.2761  0.3167
   46DG      H4 1039   4.730   1.589   2.723  1.0417 -1.0790  0.5025
   46DG      H5 1040   4.838   1.587   2.855 -0.0175 -0.0483  0.2931
   46DG      H6 1041   4.498   1.399   3.502 -1.0338 -0.3289  0.6303
   46DG      H7 1042   4.447   1.300   3.376  0.2798  0.9772 -4.4738
   46DG      H8 1043   4.628   1.329   3.397 -0.8233 -2.5427  0.1288
   46DG      O9 1044   4.631   1.626   2.907 -0.1520 -0.4803  0.3783
   46DG     O10 1045   4.510   1.481   3.317  0.2886  0.4852  0.0645
   46DG     C11 1046   4.503   1.650   2.852 -0.3271 -0.0783  0.1223
   46DG     C12 1047   4.371   1.518   3.297 -0.2155 -0.4994  0.3622
   46DG     H13 1048   4.464   1.556   2.814 -1.0089  0.9006 -1.7317
   46DG     H14 1049   4.505   1.726   2.774 -2.5531  0.7545  0.7885
   46DG     H15 1050   4.331   1.553   3.393  1.9807  1.4694  0.6530
   46DG     H16 1051   4.321   1.426   3.264  3.4581 -1.3230 -3.8320
   46DG     C17 1052   4.424   1.694   2.979  0.3165  0.1681  0.1943
   46DG     C18 1053   4.343   1.618   3.186 -0.4597 -0.0965  0.2273
   46DG     O19 1054   4.436   1.596   3.080 -0.1609 -0.0572  0.1965
   46DG     H20 1055   4.320   1.723   2.964  0.4132  0.1360 -0.5586
   46DG     H21 1056   4.465   1.787   3.018 -1.9419  0.8121  1.2211
   46DG     H22 1057   4.238   1.624   3.161 -0.7605 -0.4489  1.3430
   46DG     H23 1058   4.366   1.722   3.212 -0.9967  0.0145  0.2557
   47DG      C1 1059   2.949   1.153   4.032 -0.4265 -0.5702  0.1520
   47DG      C2 1060   2.967   0.690   3.699  0.1761 -0.4022 -0.0403
   47DG      H3 1061   2.914   1.098   4.120 -0.9289  0.0575  0.3580
   47DG      H4 1062   3.001   1.239   4.072 -0.7699 -0.9245  1.4179
   47DG      H5 1063   2.998   1.090   3.958 -3.5090 -0.7237 -1.9484
   47DG      H6 1064   2.906   0.646   3.619  0.4974 -0.2695 -0.3605
   47DG      H7 1065   3.072   0.662   3.696  0.4812  0.7620 -0.8863
   47DG      H8 1066   2.918   0.652   3.789  0.3124  1.8879  1.0719
   47DG      O9 1067   2.816   1.174   3.975 -0.0324 -0.1944 -0.1311
   47DG     O10 1068   2.952   0.833   3.700 -0.7802 -0.2554  0.1125
   47DG     C11 1069   2.832   1.262   3.863  0.8390  0.0989 -0.3952
   47DG     C12 1070   2.915   0.884   3.574 -0.6831  0.2288 -0.2103
   47DG     H13 1071   2.875   1.357   3.896  0.7342  0.3148 -0.8663
   47DG     H14 1072   2.730   1.290   3.834  1.0130  0.9790 -0.1872
   47DG     H15 1073   2.813   0.862   3.545 -0.7202  0.0902  0.0238
   47DG     H16 1074   2.977   0.843   3.494 -0.2265 -0.4311  0.4676
   47DG     C17 1075   2.912   1.216   3.743  0.1993 -0.2940  0.0915
   47DG     C18 1076   2.940   1.041   3.585  0.7091  0.4438 -0.3974
   47DG     O19 1077   2.887   1.083   3.714 -0.0034  0.6494  0.2348
   47DG     H20 1078   3.019   1.232   3.755  0.4076  3.3118 -4.0235
   47DG     H21 1079   2.893   1.267   3.649  1.9975 -0.2561 -0.2923
   47DG     H22 1080   3.048   1.059   3.583  0.8540 -0.2306  0.7731
   47DG     H23 1081   2.904   1.101   3.501  2.9217  2.3943 -0.0748
   48DG      C1 1082   2.855   4.904   1.697  0.3212 -0.1488  0.1058
   48DG      C2 1083   2.626   4.356   2.002  0.5744 -0.8025  0.5561
   48DG      H3 1084   2.898   5.002   1.675  1.8207 -1.1681 -1.8149
   48DG      H4 1085   2.747   4.907   1.681  0.0182 -1.9728  1.4521
   48DG      H5 1086   2.896   4.837   1.621 -0.0705 -0.9316  0.5659
   48DG      H6 1087   2.599   4.295   2.088 -0.7664  0.9056  1.4229
   48DG      H7 1088   2.535   4.390   1.954  0.3629 -1.7546  0.2736
   48DG      H8 1089   2.671   4.290   1.928 -0.0790 -0.2716 -0.3345
   48DG      O9 1090   2.866   4.861   1.836 -0.3791 -0.1271  0.2064
   48DG     O10 1091   2.719   4.467   2.030  0.1632 -0.0951  0.2732
   48DG     C11 1092   2.998   4.820   1.867 -0.9259 -0.0190  0.1915
   48DG     C12 1093   2.847   4.430   2.087  0.4782  0.0211 -0.8123
   48DG     H13 1094   3.070   4.902   1.865 -2.0042  0.9446 -0.3907
   48DG     H14 1095   3.031   4.756   1.786 -1.4332  0.6613 -0.5721
   48DG     H15 1096   2.903   4.363   2.022  0.0698  0.1753 -1.3298
   48DG     H16 1097   2.836   4.385   2.186  2.9399 -2.5112 -1.5511
   48DG     C17 1098   2.990   4.753   1.998  0.4589  0.3348 -0.2007
   48DG     C18 1099   2.913   4.557   2.108  0.1165 -0.3513 -0.1638
   48DG     O19 1100   2.920   4.631   1.987  0.5298 -0.3266 -0.3677
   48DG     H20 1101   2.922   4.814   2.058 -0.6688  0.7149 -1.8090
   48DG     H21 1102   3.091   4.738   2.036  0.1603  0.1340  0.5348
   48DG     H22 1103   2.861   4.627   2.173  1.7854  0.8063 -0.0056
   48DG     H23 1104   3.013   4.537   2.148 -1.1284  0.1038  3.5926
   49DG      C1 1105   2.884   4.992   3.367 -0.1968 -0.1157 -1.2949
   49DG      C2 1106   2.468   5.469   3.260 -0.2224 -0.2502 -0.0480
   49DG      H3 1107   2.791   4.964   3.418 -0.4022  1.7039 -0.5709
   49DG      H4 1108   2.937   5.062   3.432 -0.3884 -0.2787 -0.9582
   49DG      H5 1109   2.939   4.898   3.373 -0.2643 -0.0639  2.3085
   49DG      H6 1110   2.446   5.576   3.260  1.4767  0.2697 -4.2478
   49DG      H7 1111   2.484   5.439   3.157 -2.1124  1.0679 -0.7754
   49DG      H8 1112   2.379   5.414   3.289 -0.8590  0.5711 -0.3999
   49DG      O9 1113   2.862   5.045   3.239  0.2318 -0.1452 -0.2019
   49DG     O10 1114   2.585   5.426   3.328  0.5226  0.2925 -0.3285
   49DG     C11 1115   2.956   5.121   3.170 -0.3112  0.0088  0.6436
   49DG     C12 1116   2.699   5.506   3.319  0.2448 -1.1519  0.6161
   49DG     H13 1117   2.926   5.134   3.066 -0.2626 -0.5547  0.5598
   49DG     H14 1118   3.055   5.076   3.174 -0.0489  0.4035 -0.7323
   49DG     H15 1119   2.687   5.575   3.403  0.7504  0.8194 -0.8631
   49DG     H16 1120   2.702   5.558   3.223  1.8749 -1.9262  0.2178
   49DG     C17 1121   2.974   5.261   3.228  1.1103 -0.3361  0.6681
   49DG     C18 1122   2.823   5.420   3.335  0.5962  0.0016 -0.1581
   49DG     O19 1123   2.839   5.318   3.235 -0.0358  0.0067 -0.0052
   49DG     H20 1124   3.038   5.330   3.174 -1.6841  0.4474 -1.8997
   49DG     H21 1125   3.011   5.260   3.331 -2.0357  3.4039  2.0977
   49DG     H22 1126   2.911   5.484   3.341 -0.1294  0.9707  0.4079
   49DG     H23 1127   2.817   5.381   3.436 -0.0472  0.6620  0.0644
   50DG      C1 1128   0.309   1.380   3.684  0.0163 -0.4326  0.0806
   50DG      C2 1129  -0.281   1.663   3.863 -0.2387 -0.2442  0.3122
   50DG      H3 1130   0.341   1.288   3.733  3.1014 -0.4797 -1.7702
   50DG      H4 1131   0.399   1.434   3.653 -0.6616  1.3084  1.0032
   50DG      H5 1132   0.255   1.355   3.593  1.0352 -1.3746 -0.2876
   50DG      H6 1133  -0.324   1.589   3.931  0.7717 -0.3643  0.8403
   50DG      H7 1134  -0.331   1.760   3.864  2.9880  1.5413  1.1902
   50DG      H8 1135  -0.294   1.620   3.764  1.5711  0.4168 -0.2396
   50DG      O9 1136   0.240   1.483   3.765 -0.1278  0.1546 -0.3612
   50DG     O10 1137  -0.141   1.697   3.878  0.3787 -0.1863  0.0237
   50DG     C11 1138   0.298   1.530   3.891 -0.0534 -0.2945  0.6374
   50DG     C12 1139  -0.110   1.708   4.014 -0.1726  0.1043  0.1645
   50DG     H13 1140   0.402   1.551   3.864 -0.4609  0.5918 -0.2895
   50DG     H14 1141   0.284   1.445   3.959  1.0138 -1.2397 -0.2830
   50DG     H15 1142  -0.122   1.612   4.065 -1.4271  1.2328  2.1030
   50DG     H16 1143  -0.171   1.783   4.063 -0.2824  0.2781 -0.2323
   50DG     C17 1144   0.242   1.660   3.947  0.2602 -0.1001  0.7315
   50DG     C18 1145   0.031   1.739   4.019  0.4559 -0.5617 -0.0592
   50DG     O19 1146   0.096   1.641   3.953 -0.6709 -0.1020  0.6968
   50DG     H20 1147   0.266   1.747   3.887 -2.9368  0.0913 -0.4883
   50DG     H21 1148   0.282   1.664   4.049  1.4818 -1.4281  0.3424
   50DG     H22 1149   0.054   1.825   3.956 -0.8339 -0.4862 -0.4700
   50DG     H23 1150   0.065   1.756   4.121  0.8677  0.2136 -0.3178
   51DG      C1 1151   2.972   2.289   2.170  0.5238 -0.2841 -0.2187
   51DG      C2 1152   2.921   1.784   1.688  0.7670  0.2075 -0.6184
   51DG      H3 1153   2.912   2.369   2.128 -0.6892  0.5147  2.7465
   51DG      H4 1154   3.077   2.288   2.142  1.0762 -2.1766  1.5987
   51DG      H5 1155   2.982   2.319   2.275  0.9881  0.9425 -0.6001
   51DG      H6 1156   3.027   1.807   1.700  0.1319  2.0258  3.0909
   51DG      H7 1157   2.894   1.681   1.666 -0.4940  0.4343 -0.2463
   51DG      H8 1158   2.882   1.837   1.600 -0.5441  0.0315 -0.1732
   51DG      O9 1159   2.914   2.166   2.154 -0.0016  0.4878 -0.1612
   51DG     O10 1160   2.872   1.814   1.821 -0.2572  0.3731  0.5570
   51DG     C11 1161   2.958   2.065   2.239 -0.3394  0.1302 -0.8512
   51DG     C12 1162   2.927   1.714   1.909  0.3781 -0.3655  0.3834
   51DG     H13 1163   2.959   2.094   2.343  0.8175 -1.0786 -0.4872
   51DG     H14 1164   3.067   2.056   2.232 -0.2081  0.5720  0.4397
   51DG     H15 1165   3.035   1.721   1.906  0.3514 -0.0667  0.0076
   51DG     H16 1166   2.896   1.610   1.900  0.9061 -0.5070  0.1834
   51DG     C17 1167   2.886   1.927   2.209  0.6253 -1.3244 -0.5975
   51DG     C18 1168   2.877   1.754   2.048  0.1894 -0.6131 -0.5267
   51DG     O19 1169   2.915   1.885   2.076 -0.3205  0.1470 -0.1295
   51DG     H20 1170   2.780   1.938   2.231  0.7621  0.8006 -0.8533
   51DG     H21 1171   2.920   1.855   2.285  0.2010  0.6730  1.5990
   51DG     H22 1172   2.768   1.749   2.048 -0.2117  1.2530 -6.2766
   51DG     H23 1173   2.918   1.677   2.114 -0.9945 -1.3690 -0.6460
   52DG      C1 1174   5.297   0.851   0.780  0.3551  0.2648 -0.3350
   52DG      C2 1175   5.593   0.616   0.518 -0.0417 -0.2002  0.2626
   52DG      H3 1176   5.398   0.833   0.745  0.7341  1.0179  0.3498
   52DG      H4 1177   5.274   0.744   0.786  0.4856  0.2493 -0.0927
   52DG      H5 1178   5.299   0.901   0.877  0.5686  3.8325 -2.0383
   52DG      H6 1179   5.619   0.643   0.620  1.3519  0.4422 -0.2471
   52DG      H7 1180   5.555   0.514   0.510  0.4615 -0.4024  0.4120
   52DG      H8 1181   5.688   0.607   0.466 -1.0934  0.1409 -1.8049
   52DG      O9 1182   5.209   0.926   0.696  0.0584 -0.2288 -0.1591
   52DG     O10 1183   5.497   0.702   0.472  0.0014 -0.5072  0.2127
   52DG     C11 1184   5.256   1.059   0.671  0.0393  0.1278  0.6285
   52DG     C12 1185   5.552   0.825   0.447  0.6611 -0.0511 -0.5613
   52DG     H13 1186   5.292   1.103   0.764  0.3290 -1.4955  1.3195
   52DG     H14 1187   5.177   1.122   0.630  0.0314  0.1664  0.7022
   52DG     H15 1188   5.632   0.810   0.373 -0.6313  1.0851 -2.2541
   52DG     H16 1189   5.607   0.872   0.529 -0.5351  2.3605 -1.0509
   52DG     C17 1190   5.380   1.046   0.573 -0.5454  0.2843  0.1039
   52DG     C18 1191   5.452   0.932   0.385  0.2050 -0.4428 -1.1526
   52DG     O19 1192   5.344   0.965   0.467 -0.2979  0.0687 -0.0411
   52DG     H20 1193   5.469   1.015   0.628 -0.7736 -0.1063  0.2526
   52DG     H21 1194   5.401   1.145   0.533 -0.6579 -0.1150 -0.9634
   52DG     H22 1195   5.501   1.026   0.362 -0.5379  1.1019  2.7414
   52DG     H23 1196   5.415   0.877   0.299 -0.0709 -0.5515 -0.9667
   53DG      C1 1197   2.785   5.486   4.793 -0.1173  0.1808 -0.2626
   53DG      C2 1198   2.566   5.173   5.418  0.3472 -0.3460  0.0012
   53DG      H3 1199   2.834   5.553   4.722 -1.3924  0.0090 -1.3408
   53DG      H4 1200   2.678   5.505   4.785 -0.0217  1.1438  0.5595
   53DG      H5 1201   2.795   5.389   4.744 -0.3219 -0.9988  1.8936
   53DG      H6 1202   2.649   5.129   5.472 -1.1751 -0.1967  2.6237
   53DG      H7 1203   2.492   5.200   5.493 -0.1357  0.0401 -0.5994
   53DG      H8 1204   2.527   5.087   5.362 -2.3835 -0.4341  1.8566
   53DG      O9 1205   2.843   5.468   4.921  0.2982  0.2840 -0.3472
   53DG     O10 1206   2.608   5.278   5.336  0.3751 -0.4030  0.4355
   53DG     C11 1207   2.831   5.576   5.008 -0.7511 -0.1866 -0.0845
   53DG     C12 1208   2.502   5.319   5.253  0.2220 -0.3485  0.3174
   53DG     H13 1209   2.858   5.668   4.955 -2.4082  0.1343 -0.4315
   53DG     H14 1210   2.899   5.570   5.093 -1.0745  0.5378  0.2355
   53DG     H15 1211   2.402   5.333   5.295  0.4422  0.8317  0.4878
   53DG     H16 1212   2.488   5.249   5.171  1.6283  1.0305 -1.1957
   53DG     C17 1213   2.687   5.593   5.058 -0.1291 -0.6828  0.2395
   53DG     C18 1214   2.521   5.456   5.179  0.1120 -0.0628  0.2753
   53DG     O19 1215   2.652   5.468   5.120 -0.0128  0.0486 -0.1072
   53DG     H20 1216   2.621   5.609   4.973  0.9503 -0.8166 -0.6356
   53DG     H21 1217   2.686   5.679   5.125 -1.1163 -0.1010 -0.5025
   53DG     H22 1218   2.443   5.465   5.103  0.5191 -1.2701 -0.3084
   53DG     H23 1219   2.497   5.536   5.249 -1.1479  1.1015 -1.3937
   54DG      C1 1220   5.483   5.271   0.606 -0.1005  0.1172  0.0741
   54DG      C2 1221   5.646   4.767   0.220  0.2202  0.5325 -0.4822
   54DG      H3 1222   5.572   5.322   0.568 -0.5328 -0.1616 -1.3736
   54DG      H4 1223   5.444   5.326   0.692  0.3970  0.3022  0.1896
   54DG      H5 1224   5.411   5.278   0.525 -0.1908  0.5457  0.1843
   54DG      H6 1225   5.753   4.748   0.217  0.4250  1.5967 -0.1869
   54DG      H7 1226   5.602   4.674   0.182 -2.0977  2.2220 -2.2538
   54DG      H8 1227   5.611   4.851   0.160  0.7944  1.1770  0.0763
   54DG      O9 1228   5.518   5.145   0.643 -0.2997  0.1477  0.3291
   54DG     O10 1229   5.622   4.786   0.358  0.4010  0.1098 -0.0909
   54DG     C11 1230   5.407   5.073   0.701 -0.1781  0.1699 -0.3134
   54DG     C12 1231   5.520   4.711   0.409  0.2969 -0.0506 -0.6222
   54DG     H13 1232   5.310   5.076   0.652 -0.7800  0.7701  0.8733
   54DG     H14 1233   5.391   5.112   0.802  0.8724  1.5974 -0.6603
   54DG     H15 1234   5.549   4.606   0.413  0.4708  0.0243  0.9076
   54DG     H16 1235   5.429   4.725   0.351  0.4480  0.8909 -0.6423
   54DG     C17 1236   5.438   4.927   0.701  0.2424 -0.0277 -0.0063
   54DG     C18 1237   5.502   4.748   0.555  1.0454  0.3004  0.0719
   54DG     O19 1238   5.459   4.883   0.568 -0.5680 -0.0287  0.1324
   54DG     H20 1239   5.370   4.872   0.766  2.7334 -0.9325  2.0194
   54DG     H21 1240   5.527   4.906   0.760 -0.0813 -1.9727 -0.1389
   54DG     H22 1241   5.420   4.684   0.590  0.3245  0.7634 -0.7446
   54DG     H23 1242   5.586   4.727   0.621  1.0268  0.8486  0.2742
   55DG      C1 1243   3.727   0.746   4.673 -0.5794 -0.1708 -0.0607
   55DG      C2 1244   3.403   0.237   4.230  0.1126  0.1224  0.0077
   55DG      H3 1245   3.644   0.800   4.720 -0.3875  0.7852 -0.7994
   55DG      H4 1246   3.752   0.812   4.590 -0.7142  0.9433  0.7508
   55DG      H5 1247   3.805   0.745   4.748 -0.1865 -0.9458 -0.4763
   55DG      H6 1248   3.373   0.134   4.248 -0.1071 -0.2738 -2.2505
   55DG      H7 1249   3.324   0.311   4.244  2.2955  2.6192  0.0164
   55DG      H8 1250   3.426   0.241   4.123 -0.9292 -0.5587 -0.2530
   55DG      O9 1251   3.685   0.612   4.643  0.5191 -0.0712  0.3468
   55DG     O10 1252   3.512   0.257   4.325  0.2474  0.7547  0.3315
   55DG     C11 1253   3.791   0.528   4.621 -0.5333 -0.3333  0.5827
   55DG     C12 1254   3.473   0.215   4.455  0.2460 -0.2302 -0.6403
   55DG     H13 1255   3.835   0.495   4.715 -0.9818 -0.1447  0.8647
   55DG     H14 1256   3.875   0.574   4.568 -0.9497  0.0642  0.2541
   55DG     H15 1257   3.433   0.113   4.452  1.1076 -0.6796  1.1944
   55DG     H16 1258   3.408   0.287   4.504  0.7488 -0.6945  0.7756
   55DG     C17 1259   3.749   0.395   4.537 -0.3263 -0.2012  0.1322
   55DG     C18 1260   3.610   0.208   4.540  0.4967 -0.5758 -0.1483
   55DG     O19 1261   3.645   0.330   4.603  0.1672 -0.2420  0.7821
   55DG     H20 1262   3.830   0.324   4.524 -1.5311 -1.4456 -0.9021
   55DG     H21 1263   3.723   0.421   4.434 -0.3906 -1.4062 -0.1677
   55DG     H22 1264   3.598   0.133   4.618  1.8846 -1.5354 -0.8244
   55DG     H23 1265   3.677   0.157   4.471 -1.8336 -0.7586 -2.4903
   56DG      C1 1266   3.847   0.250   5.211 -0.1270 -0.1850  0.4964
   56DG      C2 1267   4.310  -0.144   4.868  0.8289 -0.0418  0.0943
   56DG      H3 1268   3.770   0.255   5.289 -1.9488 -0.2479 -1.2065
   56DG      H4 1269   3.778   0.215   5.134 -0.6209  1.1324  0.3182
   56DG      H5 1270   3.884   0.348   5.182  0.3422 -0.3715  0.4653
   56DG      H6 1271   4.348  -0.060   4.811  0.4204 -0.1044 -0.2715
   56DG      H7 1272   4.384  -0.224   4.882 -1.4807 -1.9635  2.5183
   56DG      H8 1273   4.220  -0.185   4.822  0.8010  0.8297 -0.6444
   56DG      O9 1274   3.958   0.155   5.233 -0.2656 -0.4384 -0.5649
   56DG     O10 1275   4.265  -0.099   4.995  0.5974  0.2361 -0.0005
   56DG     C11 1276   4.065   0.214   5.311 -0.1752 -0.4161  0.1651
   56DG     C12 1277   4.374  -0.050   5.082  0.6029 -0.4401 -0.4645
   56DG     H13 1278   4.032   0.261   5.404  1.8983 -0.9254  1.2122
   56DG     H14 1279   4.114   0.296   5.259  1.0231 -0.8321  0.6050
   56DG     H15 1280   4.404   0.048   5.046  0.3099 -0.0834  0.2453
   56DG     H16 1281   4.461  -0.116   5.075 -1.2016 -3.1859  0.9421
   56DG     C17 1282   4.173   0.107   5.333 -0.3761  0.7535  0.4020
   56DG     C18 1283   4.331  -0.025   5.229 -1.1729  0.7182 -0.1731
   56DG     O19 1284   4.231   0.072   5.213 -0.0179 -0.2571 -0.2133
   56DG     H20 1285   4.132   0.020   5.383  1.3592 -1.0282 -1.1107
   56DG     H21 1286   4.247   0.158   5.396 -0.3220  1.3453 -0.1266
   56DG     H22 1287   4.276  -0.114   5.262 -2.0444  0.9292 -1.0191
   56DG     H23 1288   4.410  -0.007   5.302  0.1237 -0.5491 -1.2192
   57DG      C1 1289   3.255   4.681   5.131 -0.1616 -0.3762 -0.2789
   57DG      C2 1290   3.571   5.155   4.824  0.2091  0.6821  0.1576
   57DG      H3 1291   3.275   4.740   5.221  0.2172 -0.2139 -0.4662
   57DG      H4 1292   3.249   4.578   5.165 -0.8952 -0.2635 -0.0545
   57DG      H5 1293   3.153   4.697   5.097 -0.0304  0.4706 -0.3052
   57DG      H6 1294   3.610   5.192   4.730 -1.4288 -1.8237 -1.6411
   57DG      H7 1295   3.480   5.207   4.854  0.1261  0.4311  0.3505
   57DG      H8 1296   3.645   5.162   4.904  0.0983  1.3988  0.1978
   57DG      O9 1297   3.353   4.686   5.034 -0.7542 -0.0009  0.2317
   57DG     O10 1298   3.558   5.017   4.809 -0.0223  0.0156  0.2112
   57DG     C11 1299   3.314   4.615   4.923  0.6159 -0.3634 -0.5602
   57DG     C12 1300   3.481   4.985   4.690 -0.0261 -0.4008  0.1759
   57DG     H13 1301   3.210   4.637   4.898 -0.1938 -2.4737  0.6514
   57DG     H14 1302   3.327   4.508   4.938  0.6623 -0.4075 -0.8977
   57DG     H15 1303   3.539   5.020   4.603 -0.8200  0.5723  0.0169
   57DG     H16 1304   3.387   5.040   4.685  0.3921  0.3731  0.4997
   57DG     C17 1305   3.399   4.652   4.805  0.5803 -0.0963  0.4964
   57DG     C18 1306   3.470   4.835   4.679 -0.2391  0.0726  0.3123
   57DG     O19 1307   3.380   4.788   4.785  0.1868 -0.5159 -0.2497
   57DG     H20 1308   3.363   4.605   4.713  0.0142 -1.0998  1.2167
   57DG     H21 1309   3.502   4.618   4.818  0.6488 -0.0354  0.1180
   57DG     H22 1310   3.422   4.805   4.586 -0.9144 -1.4862  1.1118
   57DG     H23 1311   3.565   4.783   4.671 -1.0998 -1.7357  1.1112
   58DG      C1 1312   5.070   2.242   4.061  0.2479 -0.4577 -0.1720
   58DG      C2 1313   5.046   2.964   3.963 -0.1971 -0.1067  0.1585
   58DG      H3 1314   4.962   2.242   4.076 -0.1336  3.0447 -2.0496
   58DG      H4 1315   5.123   2.167   4.121 -0.2469  0.1005  0.9998
   58DG      H5 1316   5.093   2.222   3.957  2.4043  1.0841 -0.0601
   58DG      H6 1317   4.951   2.951   3.911  0.0907 -0.2827 -0.3390
   58DG      H7 1318   5.029   3.055   4.020  0.9911  1.6971 -2.1804
   58DG      H8 1319   5.129   2.992   3.898  1.1828 -1.3360  1.2990
   58DG      O9 1320   5.110   2.369   4.110 -0.0747 -0.4497  0.3168
   58DG     O10 1321   5.075   2.856   4.049 -0.3348 -0.2598 -0.0620
   58DG     C11 1322   5.062   2.408   4.241  0.3197  0.1936  0.0230
   58DG     C12 1323   5.211   2.841   4.087  0.1803 -0.0733 -0.0623
   58DG     H13 1324   5.080   2.334   4.319  2.6759  0.0494 -0.5760
   58DG     H14 1325   4.956   2.427   4.227 -0.1301 -1.6610  0.6185
   58DG     H15 1326   5.263   2.931   4.119  1.9530 -1.1497  0.2403
   58DG     H16 1327   5.260   2.809   3.994  1.0237  1.8117 -0.3183
   58DG     C17 1328   5.156   2.530   4.268  0.3710  0.3072 -0.3137
   58DG     C18 1329   5.231   2.734   4.199  0.1821 -0.3033  0.1284
   58DG     O19 1330   5.146   2.626   4.167  0.3463 -0.4947 -0.0067
   58DG     H20 1331   5.260   2.499   4.272  0.6660  1.2170 -0.6722
   58DG     H21 1332   5.139   2.568   4.369 -0.3377 -0.1528 -0.2553
   58DG     H22 1333   5.337   2.712   4.208 -0.0895 -1.5922  0.3985
   58DG     H23 1334   5.203   2.770   4.298  0.9111  0.1425  0.1845
   59DG      C1 1335   4.828   2.034   0.180  0.1833 -1.2760 -0.1843
   59DG      C2 1336   4.348   1.970   0.681  0.0977 -0.2883 -0.0512
   59DG      H3 1337   4.913   2.101   0.197  0.0357 -0.9124 -0.8578
   59DG      H4 1338   4.755   2.097   0.129  1.4642 -0.0384 -0.5672
   59DG      H5 1339   4.848   1.953   0.111  3.1905  0.5992 -1.7352
   59DG      H6 1340   4.337   1.952   0.788  0.8956  0.2246  0.1257
   59DG      H7 1341   4.321   2.073   0.659  1.3701  0.9790  3.6126
   59DG      H8 1342   4.279   1.905   0.626 -2.2630  2.1951 -0.2611
   59DG      O9 1343   4.786   1.984   0.311 -0.1699 -0.0435  0.2511
   59DG     O10 1344   4.479   1.937   0.638 -0.1681 -0.3779  0.8735
   59DG     C11 1345   4.881   1.883   0.362  0.0656 -0.4754 -0.5490
   59DG     C12 1346   4.513   1.800   0.663  0.1332 -0.0553  0.4528
   59DG     H13 1347   4.980   1.928   0.369 -0.7076  1.1192  1.0017
   59DG     H14 1348   4.881   1.796   0.297 -4.3788  0.3259 -1.9870
   59DG     H15 1349   4.452   1.740   0.594  1.9720  1.0993 -2.3305
   59DG     H16 1350   4.491   1.766   0.764 -0.5513 -0.9202  0.0409
   59DG     C17 1351   4.842   1.836   0.504 -0.4078  0.1178 -0.8785
   59DG     C18 1352   4.664   1.781   0.643 -0.6499  0.1538 -0.2332
   59DG     O19 1353   4.706   1.822   0.511  0.2710 -0.1478  1.0787
   59DG     H20 1354   4.873   1.918   0.568  3.2637 -1.2469 -0.6582
   59DG     H21 1355   4.893   1.747   0.541 -0.0083  1.1181  1.1067
   59DG     H22 1356   4.711   1.838   0.723  0.7602 -2.1372  0.6816
   59DG     H23 1357   4.689   1.681   0.677 -0.4433  0.5536  0.8320
   60DG      C1 1358   1.069   1.051   3.711  0.7434  0.3575 -0.3602
   60DG      C2 1359   1.253   1.452   3.202  0.2579  0.0930  0.0916
   60DG      H3 1360   0.976   1.085   3.757  0.5276  0.2494 -0.7082
   60DG      H4 1361   1.157   1.094   3.758  1.0860 -0.7168  0.0321
   60DG      H5 1362   1.069   0.946   3.742 -3.0897  0.1203 -0.5843
   60DG      H6 1363   1.349   1.428   3.156 -0.9656  0.2695 -2.7851
   60DG      H7 1364   1.212   1.542   3.158  1.4040  1.1910  1.1895
   60DG      H8 1365   1.273   1.491   3.302 -0.8774 -1.8537  1.1488
   60DG      O9 1366   1.070   1.061   3.566  0.2415 -0.2611 -0.0034
   60DG     O10 1367   1.169   1.336   3.236  0.2318  0.1074  0.5286
   60DG     C11 1368   0.973   0.984   3.503  0.1872  0.1488 -0.1297
   60DG     C12 1369   1.092   1.281   3.132 -0.2923  0.2075  0.3387
   60DG     H13 1370   0.870   1.008   3.531  0.1696 -1.6269  1.6309
   60DG     H14 1371   0.971   0.877   3.525 -0.0445 -0.3995 -2.5646
   60DG     H15 1372   1.158   1.277   3.045  0.8338 -0.2643  1.1861
   60DG     H16 1373   1.000   1.328   3.098 -1.2808 -1.5677  0.4661
   60DG     C17 1374   0.993   0.991   3.358 -0.5104 -0.1955  0.9206
   60DG     C18 1375   1.060   1.133   3.175  0.4164  0.4247 -0.6952
   60DG     O19 1376   1.013   1.123   3.310 -0.1819  0.4011  0.0012
   60DG     H20 1377   0.901   0.955   3.312 -0.5576  0.2154  0.6893
   60DG     H21 1378   1.080   0.934   3.327  1.3447  2.9236 -0.0199
   60DG     H22 1379   0.996   1.074   3.109  2.3923 -2.0356 -0.6108
   60DG     H23 1380   1.160   1.088   3.174  0.8116  1.1313  1.5506
   61DG      C1 1381   2.799   3.895   4.247 -0.4640 -0.4217  0.2783
   61DG      C2 1382   2.550   3.986   3.608 -0.5349 -0.1961  0.6935
   61DG      H3 1383   2.879   3.824   4.226  1.7106  0.5152  4.2990
   61DG      H4 1384   2.709   3.836   4.263  0.8061 -2.1188  1.5797
   61DG      H5 1385   2.829   3.945   4.339  1.5367 -0.4077 -0.3417
   61DG      H6 1386   2.519   4.049   3.525 -2.0104 -3.2565 -1.2232
   61DG      H7 1387   2.630   3.919   3.575  0.0771 -0.1510  1.9984
   61DG      H8 1388   2.471   3.913   3.620 -1.9736  0.9527 -1.2338
   61DG      O9 1389   2.767   3.997   4.151  0.6362 -0.1322  0.2747
   61DG     O10 1390   2.585   4.053   3.733 -0.0463 -0.2255  0.2980
   61DG     C11 1391   2.666   4.095   4.203 -0.5441 -0.0897  0.9924
   61DG     C12 1392   2.480   4.135   3.780  0.8663  0.7339 -0.1861
   61DG     H13 1393   2.687   4.138   4.301  3.6332  1.2910 -0.2716
   61DG     H14 1394   2.572   4.043   4.218 -0.0881 -0.2033  4.2648
   61DG     H15 1395   2.402   4.074   3.824  0.0902  1.1719 -0.9064
   61DG     H16 1396   2.439   4.199   3.701 -0.8364  1.5507  1.2992
   61DG     C17 1397   2.647   4.208   4.101 -0.3581 -0.8012  0.7583
   61DG     C18 1398   2.548   4.230   3.883  0.5318  0.3702  0.5151
   61DG     O19 1399   2.608   4.147   3.980  0.4627 -0.2944  0.3258
   61DG     H20 1400   2.745   4.254   4.086 -0.3979 -1.0987 -0.5245
   61DG     H21 1401   2.575   4.280   4.141 -1.9258 -1.1981 -1.1997
   61DG     H22 1402   2.624   4.284   3.827  1.2046 -1.7764 -0.8068
   61DG     H23 1403   2.469   4.290   3.928 -3.4062 -2.4619 -1.9204
   62DG      C1 1404   4.288   4.823   0.712 -0.5905  0.9030 -0.4880
   62DG      C2 1405   3.993   4.373   0.245 -0.0209 -0.0139 -0.2558
   62DG      H3 1406   4.374   4.837   0.647 -1.0685  0.5201 -1.2168
   62DG      H4 1407   4.320   4.869   0.806 -0.9096  0.0101  0.0720
   62DG      H5 1408   4.200   4.871   0.670 -1.2534 -0.2676 -0.5012
   62DG      H6 1409   3.885   4.383   0.245 -0.0546 -0.3542 -0.5280
   62DG      H7 1410   4.028   4.447   0.172 -1.5461 -1.3391 -2.4658
   62DG      H8 1411   4.028   4.275   0.212  2.3834  1.0269 -1.0786
   62DG      O9 1412   4.260   4.678   0.723  0.2867  0.5129 -0.2955
   62DG     O10 1413   4.044   4.402   0.378  0.2303  0.1007 -0.0376
   62DG     C11 1414   4.160   4.637   0.810  0.0265  0.5471  0.6525
   62DG     C12 1415   3.994   4.315   0.481 -1.4398  0.5510  1.1343
   62DG     H13 1416   4.066   4.693   0.806 -0.7499 -0.5051  2.5011
   62DG     H14 1417   4.197   4.645   0.912 -0.8346  2.6778  0.8566
   62DG     H15 1418   3.976   4.211   0.455 -0.5888  0.5694  0.4053
   62DG     H16 1419   3.893   4.350   0.502 -1.3196  0.3754  2.0487
   62DG     C17 1420   4.137   4.485   0.779 -0.2839 -0.0096  0.6981
   62DG     C18 1421   4.076   4.321   0.610  0.0021  0.6268  0.3103
   62DG     O19 1422   4.107   4.455   0.637  0.3511 -0.3979 -0.3509
   62DG     H20 1423   4.059   4.451   0.848 -0.4803 -1.5321 -0.2276
   62DG     H21 1424   4.218   4.417   0.805 -0.8567 -0.7213  0.6470
   62DG     H22 1425   4.017   4.285   0.695  0.5336  1.5331  1.0873
   62DG     H23 1426   4.168   4.262   0.601  0.4526  1.3300  0.1950
   63DG      C1 1427   1.975   5.351   3.016 -0.1752 -0.2313 -0.4262
   63DG      C2 1428   1.511   5.318   3.490 -0.3030 -0.1767 -0.0723
   63DG      H3 1429   1.980   5.255   2.966 -2.0019 -0.5552 -0.0612
   63DG      H4 1430   2.071   5.402   3.023  0.0345 -0.5267 -1.0699
   63DG      H5 1431   1.915   5.413   2.949  1.8597  1.4771 -0.7942
   63DG      H6 1432   1.504   5.209   3.485 -0.0513 -0.2105  0.2184
   63DG      H7 1433   1.471   5.360   3.582 -0.7832 -2.5378  0.8685
   63DG      H8 1434   1.440   5.348   3.414 -0.9934  0.3900  0.7689
   63DG      O9 1435   1.917   5.332   3.148 -0.2488  0.5162  0.0205
   63DG     O10 1436   1.642   5.370   3.476  0.4512 -0.0894 -0.0885
   63DG     C11 1437   2.009   5.241   3.219 -0.4086 -0.2561 -0.0629
   63DG     C12 1438   1.720   5.337   3.584  0.0194  0.0148  0.8540
   63DG     H13 1439   2.112   5.234   3.185 -0.4860 -1.4809 -0.0856
   63DG     H14 1440   1.972   5.139   3.209  0.4110 -0.3516 -3.6062
   63DG     H15 1441   1.699   5.234   3.614  0.5185  0.1795  1.8323
   63DG     H16 1442   1.697   5.395   3.674  1.5040  0.7429  0.7785
   63DG     C17 1443   2.013   5.279   3.372  0.0069 -0.0847  0.7261
   63DG     C18 1444   1.864   5.360   3.538 -0.0183 -0.4782  0.5470
   63DG     O19 1445   1.885   5.273   3.428  0.2316 -0.6588  0.2337
   63DG     H20 1446   2.044   5.383   3.384 -0.4004 -0.1388  2.5600
   63DG     H21 1447   2.082   5.218   3.430 -0.1480 -1.6937 -0.7194
   63DG     H22 1448   1.882   5.459   3.496  1.7068 -1.8896 -2.3768
   63DG     H23 1449   1.938   5.334   3.614  1.6962 -0.0441 -0.9162
   64DG      C1 1450   2.010   4.642   2.329  0.5181  0.0320  0.5534
   64DG      C2 1451   2.011   4.230   2.890  0.1802 -0.2186  0.2659
   64DG      H3 1452   1.981   4.743   2.358  0.6839 -0.3901  2.3389
   64DG      H4 1453   1.983   4.612   2.228 -0.4553  1.2055  0.4449
   64DG      H5 1454   2.115   4.622   2.352  0.7846  0.1062 -0.5395
   64DG      H6 1455   2.104   4.211   2.835  0.1455  2.6787 -0.9791
   64DG      H7 1456   2.043   4.296   2.970 -1.8617 -0.5421  1.4032
   64DG      H8 1457   1.991   4.131   2.932  0.2824  0.0058  0.8434
   64DG      O9 1458   1.932   4.572   2.430 -0.6100 -0.0681 -0.7591
   64DG     O10 1459   1.929   4.283   2.789 -0.1736 -0.2315  0.1321
   64DG     C11 1460   1.795   4.590   2.421  0.8091 -0.3509 -0.5195
   64DG     C12 1461   1.812   4.331   2.842 -0.9505  0.4312 -0.5172
   64DG     H13 1462   1.757   4.576   2.319 -0.0224  0.9491 -0.4167
   64DG     H14 1463   1.765   4.689   2.455  3.0052  1.0460 -2.3516
   64DG     H15 1464   1.831   4.417   2.907  0.9538  1.5443 -2.4316
   64DG     H16 1465   1.758   4.260   2.905 -2.5381  3.0374  1.3081
   64DG     C17 1466   1.726   4.487   2.515  0.4062 -0.2522  0.2764
   64DG     C18 1467   1.723   4.376   2.724  0.8763  0.3938 -0.6800
   64DG     O19 1468   1.794   4.463   2.635 -0.1018  0.2618  0.4508
   64DG     H20 1469   1.708   4.390   2.470  2.0064 -0.0640 -0.8417
   64DG     H21 1470   1.624   4.519   2.541  0.7922  0.5208  0.9007
   64DG     H22 1471   1.683   4.287   2.676  1.5139 -0.9491  1.1673
   64DG     H23 1472   1.634   4.430   2.757  1.6484  1.1962  0.1694
   65DG      C1 1473   1.500   2.693   1.115 -0.0492 -0.0505 -0.5418
   65DG      C2 1474   1.703   2.722   0.490  0.1501 -0.5428 -0.0667
   65DG      H3 1475   1.595   2.641   1.126 -0.0052  0.2014  0.3458
   65DG      H4 1476   1.424   2.620   1.090  0.6437 -0.7571 -0.6116
   65DG      H5 1477   1.482   2.748   1.208  0.5692 -0.8929  0.0901
   65DG      H6 1478   1.661   2.629   0.452 -0.7624  0.1668 -0.8217
   65DG      H7 1479   1.709   2.790   0.405 -0.9284 -1.0920 -0.5986
   65DG      H8 1480   1.805   2.703   0.526  0.1220  2.5913  2.1164
   65DG      O9 1481   1.511   2.795   1.015 -0.1617  0.1517  0.7017
   65DG     O10 1482   1.620   2.772   0.591 -0.5660 -0.0145 -0.1894
   65DG     C11 1483   1.376   2.846   0.997  0.6653  0.0346  0.7171
   65DG     C12 1484   1.510   2.841   0.534  0.1055  0.6670 -0.0399
   65DG     H13 1485   1.357   2.915   1.079 -0.3263 -0.2274  0.7109
   65DG     H14 1486   1.297   2.772   0.987  1.7731 -0.9100 -2.2100
   65DG     H15 1487   1.432   2.772   0.502  0.1103  1.4009 -1.7239
   65DG     H16 1488   1.535   2.904   0.449  3.8445 -1.0662 -0.4420
   65DG     C17 1489   1.378   2.933   0.869 -0.1161  0.2368  0.0297
   65DG     C18 1490   1.457   2.940   0.646  0.6999  0.3015 -0.3103
   65DG     O19 1491   1.435   2.860   0.763  0.7441  0.2279  0.2701
   65DG     H20 1492   1.427   3.028   0.890 -1.0297  0.2550  2.4272
   65DG     H21 1493   1.274   2.947   0.840 -0.6859  0.0292  1.8475
   65DG     H22 1494   1.520   3.023   0.676  0.7479 -0.6811  2.6681
   65DG     H23 1495   1.359   2.980   0.621 -0.0387  0.5713  2.6032
   66DG      C1 1496   2.305   3.526   3.028  0.0179 -0.5348  0.5912
   66DG      C2 1497   2.886   3.350   3.339  0.6089  0.4440 -0.6901
   66DG      H3 1498   2.356   3.622   3.035  1.9028 -1.4629  0.3463
   66DG      H4 1499   2.197   3.536   3.023  0.1854  1.0624 -2.2304
   66DG      H5 1500   2.333   3.475   2.935 -1.8760 -0.1410 -0.2322
   66DG      H6 1501   2.931   3.450   3.337  1.6336  0.0414  0.6258
   66DG      H7 1502   2.932   3.293   3.419  0.7075 -2.6164 -2.7469
   66DG      H8 1503   2.906   3.318   3.236  0.7973  0.5956 -0.7037
   66DG      O9 1504   2.340   3.442   3.137  0.1542  0.2396 -0.4191
   66DG     O10 1505   2.750   3.351   3.350 -0.2669  0.1024  0.3146
   66DG     C11 1506   2.283   3.478   3.259  0.2521  0.0110 -0.2085
   66DG     C12 1507   2.695   3.427   3.457  0.1014  0.4365 -0.2403
   66DG     H13 1508   2.175   3.462   3.258  0.3916 -1.2271  1.2021
   66DG     H14 1509   2.296   3.584   3.277 -2.7394  0.1894  1.6290
   66DG     H15 1510   2.704   3.534   3.438  0.3011  0.4787  0.0819
   66DG     H16 1511   2.738   3.415   3.557 -0.9720  1.1662  0.3208
   66DG     C17 1512   2.348   3.398   3.369  0.3329 -0.1487  0.0927
   66DG     C18 1513   2.553   3.379   3.461 -0.2715 -0.6836 -0.0002
   66DG     O19 1514   2.487   3.424   3.353 -0.1230 -0.4994 -0.2624
   66DG     H20 1515   2.333   3.290   3.368  0.0984 -0.1391  1.4020
   66DG     H21 1516   2.318   3.444   3.462 -0.3501  0.1726 -0.2850
   66DG     H22 1517   2.537   3.271   3.467 -1.2905 -0.5981 -0.9778
   66DG     H23 1518   2.507   3.433   3.544 -2.2396 -1.5429 -0.4727
   67DG      C1 1519   0.175   0.205   1.803 -0.6012  0.0802  0.5014
   67DG      C2 1520   0.466   0.754   1.876  0.1355  0.0328  0.1405
   67DG      H3 1521   0.236   0.186   1.892 -1.1370  0.7347  1.0162
   67DG      H4 1522   0.234   0.162   1.722 -0.0819 -1.8708  1.8505
   67DG      H5 1523   0.087   0.142   1.810  1.9327 -3.8272  0.3195
   67DG      H6 1524   0.530   0.701   1.805  0.0050 -1.4286  1.0653
   67DG      H7 1525   0.496   0.856   1.896  0.5769 -0.3912  1.8148
   67DG      H8 1526   0.482   0.692   1.964 -0.4875 -1.9776 -1.0840
   67DG      O9 1527   0.136   0.344   1.800  0.0549 -0.3177 -0.5631
   67DG     O10 1528   0.333   0.735   1.854  0.0570 -0.3729  0.1603
   67DG     C11 1529   0.075   0.381   1.678 -0.1996  0.8500 -0.0592
   67DG     C12 1530   0.293   0.789   1.728  0.4660 -0.6380 -0.7625
   67DG     H13 1531  -0.012   0.321   1.653  0.1612  0.1522  0.3269
   67DG     H14 1532   0.134   0.351   1.591 -0.9088 -0.1529 -0.2111
   67DG     H15 1533   0.361   0.753   1.650  1.3845  1.6808 -1.1311
   67DG     H16 1534   0.302   0.898   1.733 -3.8434 -0.1901  0.9737
   67DG     C17 1535   0.045   0.530   1.668  0.1225 -0.2508  0.1383
   67DG     C18 1536   0.152   0.735   1.700  0.0412  0.5973 -0.3799
   67DG     O19 1537   0.158   0.593   1.716  0.1869 -0.4743  0.0733
   67DG     H20 1538  -0.042   0.546   1.732 -0.0219  1.1343 -0.3753
   67DG     H21 1539   0.027   0.561   1.565  0.4036 -2.3763 -0.6110
   67DG     H22 1540   0.081   0.774   1.772  1.4985  0.6791  1.0591
   67DG     H23 1541   0.115   0.744   1.597 -1.8522 -1.4113  0.0567
   68DG      C1 1542   2.569   2.043   1.875 -0.4010 -0.6786  0.2823
   68DG      C2 1543   3.249   2.105   1.869  0.1650 -0.0316 -0.8688
   68DG      H3 1544   2.613   1.947   1.903  2.2786  0.9488  1.9533
   68DG      H4 1545   2.478   2.010   1.824 -1.8663  0.4259  2.1012
   68DG      H5 1546   2.562   2.094   1.971 -0.8054  2.3060 -1.2136
   68DG      H6 1547   3.255   2.126   1.976 -0.7861  2.8671 -1.2809
   68DG      H7 1548   3.258   1.998   1.854  0.3515 -0.4245  1.5393
   68DG      H8 1549   3.343   2.146   1.833  0.6391  0.3670  0.7237
   68DG      O9 1550   2.664   2.110   1.789  0.2629  0.1125  0.2354
   68DG     O10 1551   3.136   2.164   1.804 -0.5273 -0.3483 -0.2331
   68DG     C11 1552   2.663   2.048   1.658  0.0845 -0.1286 -0.1091
   68DG     C12 1553   3.137   2.139   1.663  0.3880 -0.3795  0.1544
   68DG     H13 1554   2.562   2.067   1.621 -1.0277 -1.8414  1.7977
   68DG     H14 1555   2.686   1.942   1.656  1.2516  0.1169 -0.5908
   68DG     H15 1556   3.155   2.035   1.638 -1.8395 -0.2192 -2.6380
   68DG     H16 1557   3.226   2.192   1.631  1.1646 -0.9286  1.3190
   68DG     C17 1558   2.772   2.126   1.582  0.1769 -0.2093 -0.2779
   68DG     C18 1559   3.009   2.191   1.603 -0.1452  0.4720 -0.2533
   68DG     O19 1560   2.895   2.124   1.657 -0.3721  0.4482  0.0847
   68DG     H20 1561   2.744   2.231   1.571  1.1298 -0.0704 -1.6673
   68DG     H21 1562   2.774   2.085   1.481  2.2514 -2.5263  0.5974
   68DG     H22 1563   2.999   2.297   1.623  0.0031  0.4967 -0.3128
   68DG     H23 1564   3.021   2.169   1.497  1.0914  0.0888 -0.0582
   69DG      C1 1565   2.617   3.745   0.252 -0.3039 -0.3066  0.3540
   69DG      C2 1566   2.889   3.400  -0.235  0.2514  0.3976  0.1690
   69DG      H3 1567   2.639   3.679   0.336 -1.1265  2.7842  3.1864
   69DG      H4 1568   2.512   3.726   0.229 -0.5322  1.3240 -0.1181
   69DG      H5 1569   2.630   3.851   0.273 -1.3669 -0.3227  1.1678
   69DG      H6 1570   2.781   3.394  -0.218  0.2726  0.8111  0.4898
   69DG      H7 1571   2.913   3.494  -0.285 -0.2721 -1.1290 -3.2487
   69DG      H8 1572   2.922   3.334  -0.315 -0.1481  1.3387 -0.7990
   69DG      O9 1573   2.710   3.724   0.146  0.0979  0.7945 -0.3393
   69DG     O10 1574   2.949   3.376  -0.112 -0.7179  0.0463 -0.5531
   69DG     C11 1575   2.676   3.797   0.025  0.3787 -0.2694 -0.7026
   69DG     C12 1576   2.912   3.462  -0.007  0.1657 -0.1017  0.2654
   69DG     H13 1577   2.650   3.899   0.052 -2.4850 -1.5263  1.8492
   69DG     H14 1578   2.593   3.740  -0.017  0.3075  0.0816 -1.0494
   69DG     H15 1579   2.976   3.420   0.070 -1.4209 -1.2531  1.0213
   69DG     H16 1580   2.807   3.443   0.016 -0.0544 -0.4601 -0.9585
   69DG     C17 1581   2.800   3.797  -0.068  0.0551  0.2048 -0.0438
   69DG     C18 1582   2.937   3.611  -0.033  0.2126 -0.3808 -0.5675
   69DG     O19 1583   2.829   3.665  -0.105  0.0488  0.5388  0.8766
   69DG     H20 1584   2.888   3.848  -0.028  0.3212  0.3990 -0.8556
   69DG     H21 1585   2.773   3.854  -0.158 -2.9293 -1.0227 -0.0599
   69DG     H22 1586   2.950   3.664   0.061 -2.9726  2.1567 -1.3513
   69DG     H23 1587   3.040   3.614  -0.069  1.7988 -1.9036  3.2346
   70DG      C1 1588   2.477   1.773   4.295 -0.0724  0.0846  0.3697
   70DG      C2 1589   3.080   1.889   3.972 -0.0969  0.4705 -0.6298
   70DG      H3 1590   2.518   1.705   4.368 -0.0034 -0.9969 -0.6495
   70DG      H4 1591   2.449   1.716   4.206  1.7866  0.8719 -0.7819
   70DG      H5 1592   2.385   1.820   4.331 -0.9621 -0.5497 -0.9675
   70DG      H6 1593   3.045   1.852   3.875 -0.1082  0.3451 -0.5784
   70DG      H7 1594   3.169   1.950   3.959  0.4795 -0.1962  0.1128
   70DG      H8 1595   3.109   1.802   4.032 -1.0004 -0.0917 -0.9879
   70DG      O9 1596   2.565   1.881   4.262 -0.6260  0.1004 -0.1836
   70DG     O10 1597   2.981   1.973   4.033  0.4296  0.0089 -0.5880
   70DG     C11 1598   2.518   1.964   4.155 -0.0969 -0.3341 -1.2593
   70DG     C12 1599   2.942   2.087   3.959 -0.4365  0.1411  0.0529
   70DG     H13 1600   2.420   1.998   4.189 -0.4508  0.6033 -3.1219
   70DG     H14 1601   2.491   1.916   4.062  0.0751 -0.6850 -1.1319
   70DG     H15 1602   2.920   2.061   3.855 -0.3994 -0.5799  0.2237
   70DG     H16 1603   3.028   2.154   3.962 -0.1765 -0.1175 -1.0744
   70DG     C17 1604   2.613   2.082   4.131 -0.1985  0.4118 -0.4421
   70DG     C18 1605   2.820   2.147   4.030  0.9654  0.9432 -0.7478
   70DG     O19 1606   2.727   2.039   4.074  0.0996  0.0454 -0.0024
   70DG     H20 1607   2.634   2.120   4.231  1.7031 -0.9222 -0.2664
   70DG     H21 1608   2.559   2.162   4.081 -0.9182  1.3170  1.6699
   70DG     H22 1609   2.845   2.207   4.117  0.9916  0.9999 -0.7942
   70DG     H23 1610   2.756   2.210   3.969 -2.4116 -1.8927 -0.4362
   71DG      C1 1611   4.760   0.001   5.096 -0.2616 -0.4849 -1.0716
   71DG      C2 1612   4.811   0.318   4.288 -0.0681 -0.7861  0.9132
   71DG      H3 1613   4.851   0.062   5.101  2.7414 -4.4788 -1.5351
   71DG      H4 1614   4.793  -0.069   5.172  1.2231  1.0301 -0.2420
   71DG      H5 1615   4.667   0.035   5.140  1.4898  1.5172  1.3804
   71DG      H6 1616   4.756   0.272   4.206  1.6965 -2.0894  0.4114
   71DG      H7 1617   4.802   0.426   4.288 -1.0819 -0.8327 -0.9314
   71DG      H8 1618   4.915   0.289   4.275 -0.4566 -1.2218 -1.6848
   71DG      O9 1619   4.740  -0.058   4.966  0.2936 -0.4774  0.1199
   71DG     O10 1620   4.742   0.254   4.399  0.0584  0.0544 -0.4597
   71DG     C11 1621   4.751   0.027   4.861  0.9391 -0.4121 -0.1368
   71DG     C12 1622   4.726   0.113   4.392 -0.1830  0.0331 -0.0465
   71DG     H13 1623   4.857   0.049   4.846  1.0717  0.8917  2.1635
   71DG     H14 1624   4.698   0.120   4.881  0.1254 -0.7004 -0.9424
   71DG     H15 1625   4.828   0.079   4.379 -0.0017  0.7590 -0.6410
   71DG     H16 1626   4.668   0.099   4.300 -2.2110 -2.2639  1.4651
   71DG     C17 1627   4.692  -0.028   4.731  0.7512  0.8908 -0.3369
   71DG     C18 1628   4.652   0.042   4.508 -0.1033 -0.4714  0.2960
   71DG     O19 1629   4.720   0.063   4.626  0.4960 -0.0463 -0.0699
   71DG     H20 1630   4.586  -0.045   4.749  1.0350 -2.3174 -1.0715
   71DG     H21 1631   4.721  -0.131   4.709  2.3424  1.4983 -1.2625
   71DG     H22 1632   4.547   0.068   4.517  0.0240  0.5599 -0.8670
   71DG     H23 1633   4.660  -0.064   4.481  0.8102 -0.6930  1.3822
   72DG      C1 1634   1.071   5.472   2.025  0.8862  0.5794 -0.1722
   72DG      C2 1635   1.183   4.873   2.432 -0.1103  0.5993 -0.0456
   72DG      H3 1636   1.125   5.446   1.934  0.1072  2.3787 -1.1919
   72DG      H4 1637   1.087   5.580   2.027 -1.0084  0.8768  1.0240
   72DG      H5 1638   0.963   5.463   2.015  0.9636  0.7778 -1.2422
   72DG      H6 1639   1.084   4.837   2.405 -0.2906  0.1917  1.1070
   72DG      H7 1640   1.255   4.815   2.374 -0.2741  0.0081  0.3319
   72DG      H8 1641   1.197   4.849   2.538  0.9591  1.3707  0.0073
   72DG      O9 1642   1.107   5.406   2.150 -0.5246 -0.7338 -0.4364
   72DG     O10 1643   1.189   5.016   2.401  0.0135 -0.4087 -0.1218
   72DG     C11 1644   1.229   5.470   2.198  0.0950 -0.3127  0.4494
   72DG     C12 1645   1.317   5.070   2.444  0.3839  0.0035  0.3426
   72DG     H13 1646   1.220   5.578   2.207  2.1504 -0.1908  1.6034
   72DG     H14 1647   1.301   5.444   2.120 -0.5272  2.0627 -1.0215
   72DG     H15 1648   1.389   5.031   2.372 -0.0513  1.7106 -1.0622
   72DG     H16 1649   1.346   5.054   2.548 -0.6136  0.1195  0.6505
   72DG     C17 1650   1.268   5.418   2.334 -0.1122  0.4069  0.1669
   72DG     C18 1651   1.320   5.225   2.449 -0.3327  0.0592  0.2007
   72DG     O19 1652   1.282   5.282   2.328  0.1998  0.2570  0.4394
   72DG     H20 1653   1.197   5.443   2.414 -0.8671 -0.5439 -0.1844
   72DG     H21 1654   1.359   5.468   2.366 -0.1166 -0.5974  1.9037
   72DG     H22 1655   1.255   5.256   2.531 -1.7036 -1.7547 -0.1237
   72DG     H23 1656   1.422   5.256   2.470  0.3503 -0.8937 -1.4592
   73DG      C1 1657   3.922   1.990   0.451 -0.0998  0.5504  0.5681
   73DG      C2 1658   3.652   2.291   0.983 -0.5120 -0.7125  0.0968
   73DG      H3 1659   3.915   2.096   0.427 -1.8142  0.2863 -0.2353
   73DG      H4 1660   3.828   1.950   0.412 -1.1979  3.4579 -0.0213
   73DG      H5 1661   4.007   1.943   0.403  0.5416  1.6962  0.5449
   73DG      H6 1662   3.585   2.304   1.068 -0.6343  2.1501 -0.3319
   73DG      H7 1663   3.683   2.396   0.982  1.4700 -0.9973  4.7103
   73DG      H8 1664   3.595   2.257   0.897  3.2540 -0.0106 -2.9279
   73DG      O9 1665   3.916   1.989   0.595 -0.1740 -0.4522 -0.0403
   73DG     O10 1666   3.764   2.206   1.003  0.0314 -0.6271 -0.5401
   73DG     C11 1667   3.906   1.862   0.647 -0.2215  0.5510 -0.4490
   73DG     C12 1668   3.732   2.077   1.049 -0.8336  0.6020 -0.0349
   73DG     H13 1669   3.990   1.808   0.604 -0.2153  0.5400 -0.4221
   73DG     H14 1670   3.825   1.803   0.604  0.4015 -1.4961  1.0426
   73DG     H15 1671   3.633   2.043   1.019  0.2529 -3.6346  0.5334
   73DG     H16 1672   3.740   2.082   1.158 -0.5215 -0.9682  0.0425
   73DG     C17 1673   3.926   1.867   0.800  0.9615 -0.2074 -0.0594
   73DG     C18 1674   3.847   1.982   0.990 -0.0673  0.5936  0.0921
   73DG     O19 1675   3.823   1.952   0.852  0.0099  0.1259  0.3322
   73DG     H20 1676   4.023   1.914   0.816  1.0760 -0.8291  1.2038
   73DG     H21 1677   3.928   1.768   0.845  0.8695  0.6248  1.8724
   73DG     H22 1678   3.944   2.028   1.008  0.8543 -1.3914  0.4410
   73DG     H23 1679   3.853   1.896   1.057  0.9300  0.2790 -0.3781
   74DG      C1 1680   5.033   2.760   3.041 -0.0525 -0.2991 -0.2791
   74DG      C2 1681   4.950   2.923   2.345 -0.2583 -1.2636 -0.1297
   74DG      H3 1682   5.087   2.769   3.135  0.3437  1.5014 -0.6483
   74DG      H4 1683   5.001   2.656   3.034  0.4450 -0.4491 -0.3784
   74DG      H5 1684   4.945   2.821   3.060  1.5791  2.5344 -1.2698
   74DG      H6 1685   4.994   2.997   2.278  1.6451 -3.3757 -1.3682
   74DG      H7 1686   4.940   2.822   2.304 -1.4966 -1.3859  0.4303
   74DG      H8 1687   4.851   2.967   2.360  0.8787  0.8827  1.6357
   74DG      O9 1688   5.093   2.830   2.930 -1.1451 -0.2813  0.6343
   74DG     O10 1689   5.024   2.925   2.465 -0.0937  0.8404 -0.1089
   74DG     C11 1690   5.231   2.798   2.926 -0.9920 -0.2524 -0.2362
   74DG     C12 1691   5.162   2.929   2.449 -0.2158  0.3654  0.1802
   74DG     H13 1692   5.253   2.693   2.905 -1.6011 -0.1334 -1.5799
   74DG     H14 1693   5.290   2.819   3.015 -2.1416  0.2475  0.4185
   74DG     H15 1694   5.184   3.023   2.400  1.8874 -0.3146 -0.3022
   74DG     H16 1695   5.202   2.842   2.397  0.5930  0.2348  0.9730
   74DG     C17 1696   5.286   2.889   2.809  0.0819 -0.3176 -0.3339
   74DG     C18 1697   5.231   2.970   2.584  0.3993  0.4635  0.2832
   74DG     O19 1698   5.214   2.868   2.684 -0.3433  1.1318 -0.7797
   74DG     H20 1699   5.393   2.872   2.796  0.0046  0.0446 -1.5953
   74DG     H21 1700   5.285   2.992   2.847  0.2507 -1.0879  1.9409
   74DG     H22 1701   5.338   2.988   2.572  0.7659 -1.5436  0.2774
   74DG     H23 1702   5.183   3.059   2.626 -1.4756 -0.1243 -0.5069
   75DG      C1 1703   3.644   0.640   4.995  0.1232  0.5842  0.2662
   75DG      C2 1704   3.351   0.585   4.422 -0.1090  0.0646 -1.0355
   75DG      H3 1705   3.639   0.683   5.095 -1.4798  0.2591  0.3485
   75DG      H4 1706   3.727   0.693   4.949 -0.0483  0.2279 -0.4669
   75DG      H5 1707   3.669   0.534   5.003 -1.9585 -0.0915 -1.1860
   75DG      H6 1708   3.266   0.517   4.434 -0.1293  0.1128 -0.9011
   75DG      H7 1709   3.341   0.657   4.341  0.8839  0.9762 -0.3874
   75DG      H8 1710   3.444   0.528   4.421  0.3329  0.7247  0.3310
   75DG      O9 1711   3.530   0.650   4.918 -0.2864 -0.2619 -0.0627
   75DG     O10 1712   3.356   0.658   4.544  0.6147 -0.3317 -0.1793
   75DG     C11 1713   3.416   0.620   4.998  0.0991  0.7899  0.2915
   75DG     C12 1714   3.228   0.701   4.589 -0.5256 -0.2793 -0.0688
   75DG     H13 1715   3.430   0.651   5.101  0.9933 -1.3121  0.8610
   75DG     H14 1716   3.400   0.512   5.004 -0.5347  0.8264 -0.5489
   75DG     H15 1717   3.149   0.626   4.599  0.5218 -1.3965  0.1180
   75DG     H16 1718   3.176   0.776   4.531 -1.0494  0.6765  1.5596
   75DG     C17 1719   3.302   0.697   4.933  0.1714  0.7404 -0.0747
   75DG     C18 1720   3.246   0.760   4.726 -0.1757 -0.4078  0.5071
   75DG     O19 1721   3.313   0.670   4.798 -0.7577 -0.0524 -0.8853
   75DG     H20 1722   3.314   0.804   4.949  0.6408  0.8457 -1.0408
   75DG     H21 1723   3.207   0.661   4.974  0.0897  1.5883  0.5126
   75DG     H22 1724   3.299   0.855   4.724  0.5290 -0.7102 -3.1112
   75DG     H23 1725   3.143   0.774   4.758 -0.2460 -0.9286  0.5239
   76DG      C1 1726   1.628   0.668   4.315  0.1434 -0.0725  0.0690
   76DG      C2 1727   2.215   0.708   4.669  0.6688  0.1877 -0.1188
   76DG      H3 1728   1.578   0.575   4.290  0.7971 -0.1367 -1.0736
   76DG      H4 1729   1.603   0.726   4.227 -0.2276 -0.2832  0.0368
   76DG      H5 1730   1.609   0.708   4.415  0.0215 -2.8389  1.2607
   76DG      H6 1731   2.207   0.624   4.738  3.4614  1.1709  1.5963
   76DG      H7 1732   2.323   0.717   4.656  1.3333  0.4340  4.0733
   76DG      H8 1733   2.181   0.804   4.708 -0.2282 -0.0496 -0.2983
   76DG      O9 1734   1.764   0.644   4.311  0.0551 -0.5829  0.3462
   76DG     O10 1735   2.149   0.681   4.540 -0.2079 -0.2108 -0.4148
   76DG     C11 1736   1.813   0.570   4.204 -0.3350 -0.0395 -0.0757
   76DG     C12 1737   2.210   0.568   4.469 -0.2310 -0.1509 -0.2523
   76DG     H13 1738   1.792   0.613   4.106  0.7672  0.5782 -0.0530
   76DG     H14 1739   1.768   0.471   4.204  1.2829 -0.8073 -0.1346
   76DG     H15 1740   2.200   0.478   4.529  1.5307 -0.8772 -1.0129
   76DG     H16 1741   2.316   0.591   4.456 -0.2068 -0.1183 -0.0097
   76DG     C17 1742   1.964   0.562   4.196 -0.8445  0.6005  0.1557
   76DG     C18 1743   2.162   0.548   4.333 -0.1376 -0.3890 -1.0599
   76DG     O19 1744   2.016   0.544   4.321 -0.3308 -0.4739 -0.4751
   76DG     H20 1745   2.001   0.657   4.157  0.7252  0.6904  1.7629
   76DG     H21 1746   2.000   0.477   4.139 -1.3702 -1.0017  2.1154
   76DG     H22 1747   2.200   0.626   4.267 -0.4598  0.5724 -0.1232
   76DG     H23 1748   2.211   0.454   4.307 -0.5217 -0.7794 -0.4124
   77DG      C1 1749   1.857   0.165   1.389 -0.8998 -0.2859 -0.0598
   77DG      C2 1750   1.923  -0.530   1.399  0.8923  0.2831  0.2865
   77DG      H3 1751   1.762   0.134   1.346 -0.7498  1.9488 -2.2137
   77DG      H4 1752   1.928   0.176   1.307  0.5921 -0.9274  1.0900
   77DG      H5 1753   1.848   0.258   1.445 -3.6665 -0.0441 -0.7632
   77DG      H6 1754   2.026  -0.558   1.381  1.3808  0.5582  2.4324
   77DG      H7 1755   1.875  -0.614   1.450 -0.2502 -0.2335 -1.5272
   77DG      H8 1756   1.861  -0.513   1.311 -0.2446  0.5611  1.1153
   77DG      O9 1757   1.892   0.048   1.465  0.4784 -0.1175  0.6786
   77DG     O10 1758   1.915  -0.412   1.470  0.0251 -0.7709  0.2210
   77DG     C11 1759   2.026   0.058   1.522  0.2408  0.3627  0.3521
   77DG     C12 1760   2.002  -0.403   1.581 -0.4896 -0.1233 -0.0174
   77DG     H13 1761   2.040   0.156   1.567  0.1444  0.9571 -0.8750
   77DG     H14 1762   2.099   0.035   1.444 -3.5241 -1.5053 -2.9919
   77DG     H15 1763   2.109  -0.411   1.561  0.0617  1.5871  1.8928
   77DG     H16 1764   1.989  -0.485   1.651  1.2024  0.0215  0.5148
   77DG     C17 1765   2.038  -0.046   1.633 -0.1344 -0.0024  0.1009
   77DG     C18 1766   1.995  -0.277   1.664  0.1111  0.1553  0.4108
   77DG     O19 1767   1.997  -0.166   1.576 -0.2341  0.9805 -0.4056
   77DG     H20 1768   1.968  -0.025   1.714 -0.0025  1.5146 -0.1487
   77DG     H21 1769   2.143  -0.046   1.664 -0.0615 -0.3080 -0.1429
   77DG     H22 1770   1.901  -0.280   1.719  0.7211  1.0990  1.5659
   77DG     H23 1771   2.074  -0.279   1.740  0.8889 -2.1455 -0.3558
   78DG      C1 1772   0.298   0.449   3.570  0.1109 -0.5084  0.2645
   78DG      C2 1773   0.043   1.033   3.606 -0.1068  0.2541  0.5293
   78DG      H3 1774   0.385   0.499   3.612 -1.1394  0.6649  1.5677
   78DG      H4 1775   0.318   0.445   3.463  3.7068 -0.7214  0.8265
   78DG      H5 1776   0.286   0.349   3.613 -2.5146  0.6254  2.4403
   78DG      H6 1777  -0.009   1.125   3.583 -0.8007 -0.1238  0.5534
   78DG      H7 1778   0.109   1.040   3.692  0.6207 -2.3873  0.2864
   78DG      H8 1779   0.106   1.017   3.518 -2.0073  0.3151 -0.9164
   78DG      O9 1780   0.171   0.517   3.590 -0.4529  0.4981  0.2117
   78DG     O10 1781  -0.041   0.925   3.617 -0.0270  0.4108  0.5093
   78DG     C11 1782   0.064   0.454   3.522 -0.5560 -0.1463  0.0718
   78DG     C12 1783  -0.115   0.892   3.500  0.5789  0.2631 -0.0219
   78DG     H13 1784   0.053   0.350   3.552  1.4920 -0.3474  0.2434
   78DG     H14 1785   0.092   0.446   3.417  2.0472 -0.8544  0.7454
   78DG     H15 1786  -0.044   0.897   3.418  0.6100 -0.0640 -0.0163
   78DG     H16 1787  -0.194   0.962   3.476 -0.0590 -0.6804 -0.7455
   78DG     C17 1788  -0.072   0.520   3.535 -0.5395 -0.2471  0.2783
   78DG     C18 1789  -0.164   0.742   3.499  0.0698 -0.3893  0.2223
   78DG     O19 1790  -0.052   0.664   3.522  0.0934 -0.3105 -0.4909
   78DG     H20 1791  -0.122   0.505   3.631  0.4059 -0.6942  0.7141
   78DG     H21 1792  -0.136   0.479   3.457 -3.2436  2.4839  0.8476
   78DG     H22 1793  -0.231   0.720   3.582  0.9630  0.4197  1.1864
   78DG     H23 1794  -0.212   0.714   3.405  0.0542 -0.4640  0.2518
   79DG      C1 1795   3.942   3.947   4.194  0.5392  0.1927  0.0543
   79DG      C2 1796   3.552   3.713   3.669  0.0657 -0.4099 -0.0316
   79DG      H3 1797   4.017   3.912   4.123  0.6065 -0.1812  0.3082
   79DG      H4 1798   3.922   3.867   4.265  0.3291 -0.5436 -0.8042
   79DG      H5 1799   3.978   4.025   4.261  0.1912 -1.8010  2.7251
   79DG      H6 1800   3.647   3.685   3.624  0.3323 -0.2379  0.4198
   79DG      H7 1801   3.508   3.626   3.718 -2.3908  0.3538 -0.7395
   79DG      H8 1802   3.486   3.749   3.590 -0.7111  0.8465  1.1440
   79DG      O9 1803   3.820   3.992   4.130 -0.0063 -0.4638  0.5853
   79DG     O10 1804   3.583   3.818   3.761 -0.3877  0.4223 -0.0230
   79DG     C11 1805   3.709   3.993   4.214  0.6657  0.1859 -0.1107
   79DG     C12 1806   3.463   3.848   3.832  0.3511  0.0256  0.4081
   79DG     H13 1807   3.713   4.073   4.289  0.7075  1.4523 -1.4124
   79DG     H14 1808   3.697   3.898   4.266 -0.4746  1.6201  2.4802
   79DG     H15 1809   3.417   3.763   3.882 -0.9229  0.5457  0.1462
   79DG     H16 1810   3.387   3.893   3.768 -2.4289 -0.0799  3.4108
   79DG     C17 1811   3.594   4.021   4.125 -0.0538 -0.3423  0.0425
   79DG     C18 1812   3.482   3.951   3.933  0.0035 -0.0643 -0.1401
   79DG     O19 1813   3.578   3.917   4.034 -0.2196  0.1356  0.1404
   79DG     H20 1814   3.603   4.118   4.077  1.7407  0.2571  1.4767
   79DG     H21 1815   3.507   4.022   4.191 -0.6630  1.5290 -0.7239
   79DG     H22 1816   3.523   4.035   3.877 -0.1209 -0.8980 -1.5235
   79DG     H23 1817   3.386   3.973   3.981  1.0310 -2.5603  3.5217
   80DG      C1 1818   2.754   4.733   0.790 -0.0073  0.0944 -0.0803
   80DG      C2 1819   3.362   4.706   1.356 -0.1742  0.1449  0.3181
   80DG      H3 1820   2.705   4.781   0.874  0.2037 -0.2491  0.2431
   80DG      H4 1821   2.689   4.660   0.741 -0.1402  2.1865 -3.3123
   80DG      H5 1822   2.788   4.807   0.717  4.0983 -1.1942  0.2768
   80DG      H6 1823   3.417   4.774   1.291  2.1844 -0.8861  1.1336
   80DG      H7 1824   3.304   4.767   1.426  0.0967  1.3120 -0.4369
   80DG      H8 1825   3.437   4.655   1.416 -0.2130  0.3774  0.5643
   80DG      O9 1826   2.868   4.670   0.829 -0.1899  0.3208  0.4830
   80DG     O10 1827   3.290   4.609   1.282 -0.0476  0.2878 -0.0294
   80DG     C11 1828   2.846   4.557   0.901  0.6148  0.4770 -0.1521
   80DG     C12 1829   3.200   4.669   1.195  0.5023  0.1277  0.2820
   80DG     H13 1830   2.800   4.479   0.841 -1.4138  1.6172 -0.1947
   80DG     H14 1831   2.782   4.579   0.986  0.0716 -1.0717 -0.1211
   80DG     H15 1832   3.246   4.739   1.125 -3.8784  0.8778 -2.1661
   80DG     H16 1833   3.126   4.714   1.261  1.2015  1.4795  0.1800
   80DG     C17 1834   2.977   4.504   0.948 -0.7216  0.3025  0.1828
   80DG     C18 1835   3.137   4.554   1.112  0.4684  0.3053 -0.6188
   80DG     O19 1836   3.039   4.610   1.017  0.0710  0.8454 -0.5721
   80DG     H20 1837   3.031   4.471   0.859 -1.3270  0.5710 -0.2880
   80DG     H21 1838   2.959   4.424   1.020  1.9134  0.3962  1.0554
   80DG     H22 1839   3.215   4.491   1.068  0.8847  0.3557  0.0353
   80DG     H23 1840   3.080   4.493   1.183  1.2450 -0.9667 -1.0470
   81DG      C1 1841   2.630   0.910   4.762 -0.9348  0.1190 -0.0530
   81DG      C2 1842   2.471   0.361   4.914 -0.3499 -0.1509 -0.3565
   81DG      H3 1843   2.652   0.982   4.683  0.3792 -0.4120 -0.2018
   81DG      H4 1844   2.640   0.966   4.856 -0.3488 -2.3437  1.4255
   81DG      H5 1845   2.532   0.866   4.748  0.0251 -1.6993 -1.4318
   81DG      H6 1846   2.515   0.288   4.982  0.7049  0.4364 -0.3928
   81DG      H7 1847   2.406   0.427   4.970 -1.3992  1.0461 -2.8046
   81DG      H8 1848   2.420   0.297   4.841 -0.1826 -0.6453 -0.0492
   81DG      O9 1849   2.740   0.819   4.755  0.1963  0.5802  0.2434
   81DG     O10 1850   2.586   0.441   4.875  0.1187  0.6405  0.6349
   81DG     C11 1851   2.759   0.759   4.622 -0.3263  0.0549 -0.7612
   81DG     C12 1852   2.678   0.369   4.794  0.8596  0.1563 -0.1766
   81DG     H13 1853   2.821   0.820   4.557 -1.3678  1.4385 -0.4927
   81DG     H14 1854   2.661   0.754   4.575 -1.0858  0.2686  0.7277
   81DG     H15 1855   2.627   0.352   4.699  0.7984  2.3420 -0.5868
   81DG     H16 1856   2.684   0.265   4.826  2.0271 -0.1191 -1.1989
   81DG     C17 1857   2.801   0.611   4.634  0.0601 -0.0523 -0.4535
   81DG     C18 1858   2.821   0.429   4.778  0.4419 -0.3760  0.3441
   81DG     O19 1859   2.799   0.572   4.768 -0.5129 -0.1313 -0.1040
   81DG     H20 1860   2.900   0.604   4.588 -0.9072 -0.5514 -2.5681
   81DG     H21 1861   2.739   0.547   4.571  0.3584 -0.8216  0.0177
   81DG     H22 1862   2.879   0.409   4.868  0.0471 -0.1953  0.6487
   81DG     H23 1863   2.870   0.388   4.690  1.1883 -0.0536  0.6093
   82DG      C1 1864   0.255   3.052   4.313  0.5010  0.1714 -0.1353
   82DG      C2 1865   0.943   2.948   4.599 -1.0144 -0.6228  0.6537
   82DG      H3 1866   0.354   3.005   4.306  1.1077  1.3521  0.2078
   82DG      H4 1867   0.259   3.144   4.256  1.5216 -0.8951 -1.8688
   82DG      H5 1868   0.176   2.984   4.282  0.9288  0.2531 -1.4850
   82DG      H6 1869   1.030   2.884   4.617 -1.0983 -1.1959 -0.8765
   82DG      H7 1870   0.960   2.997   4.504  0.1609 -1.5322  0.3683
   82DG      H8 1871   0.936   3.033   4.667  0.2185  0.9068 -1.0298
   82DG      O9 1872   0.249   3.095   4.452  0.3115 -0.1803 -0.1976
   82DG     O10 1873   0.819   2.887   4.601 -0.0665 -0.3831  0.5069
   82DG     C11 1874   0.229   2.983   4.539  0.0811  0.3133 -0.2854
   82DG     C12 1875   0.700   2.970   4.608 -0.5374 -0.1430 -0.4028
   82DG     H13 1876   0.136   2.934   4.512  0.6908  0.0183 -1.9235
   82DG     H14 1877   0.210   3.024   4.639  0.9931 -2.2798  1.0565
   82DG     H15 1878   0.715   3.047   4.533  3.3305 -0.2228  0.0495
   82DG     H16 1879   0.697   3.016   4.707  1.7067  2.5965 -1.4744
   82DG     C17 1880   0.348   2.890   4.562 -0.8086  0.4615  0.1329
   82DG     C18 1881   0.576   2.884   4.576 -0.2341  0.3836 -0.0551
   82DG     O19 1882   0.464   2.965   4.586  0.3838  0.6108  0.1294
   82DG     H20 1883   0.366   2.825   4.477 -1.1899 -1.1121  1.1930
   82DG     H21 1884   0.328   2.826   4.649 -0.8051  0.4028  0.0904
   82DG     H22 1885   0.595   2.853   4.474  2.8747  1.4748  0.0836
   82DG     H23 1886   0.564   2.799   4.644  0.4521  2.5023  2.9238
   83DG      C1 1887   1.836   0.154   4.866 -0.1780 -0.1374 -0.0197
   83DG      C2 1888   1.206   0.538   5.035  0.3474 -0.3264 -0.1686
   83DG      H3 1889   1.727   0.154   4.862 -0.5659  1.1239  4.5663
   83DG      H4 1890   1.853   0.051   4.836  2.1294  0.9845 -3.1443
   83DG      H5 1891   1.883   0.214   4.788  2.9812 -0.3266  1.6032
   83DG      H6 1892   1.213   0.622   4.966  0.3375 -0.5329 -0.4234
   83DG      H7 1893   1.167   0.446   4.991  3.3832 -1.5301 -0.5909
   83DG      H8 1894   1.130   0.557   5.110  0.6527 -0.2793  0.1306
   83DG      O9 1895   1.889   0.166   4.989  0.3128  0.1268 -0.3964
   83DG     O10 1896   1.330   0.509   5.108  0.3453  0.1375  0.3588
   83DG     C11 1897   1.885   0.299   5.046  0.3303  0.4710  0.8199
   83DG     C12 1898   1.437   0.451   5.036 -0.6458 -0.6408 -0.1731
   83DG     H13 1899   1.883   0.373   4.966 -0.8112 -0.8684 -0.4424
   83DG     H14 1900   1.980   0.326   5.093  0.2238 -0.3348  1.5142
   83DG     H15 1901   1.480   0.522   4.965  0.1044  0.0950  0.9860
   83DG     H16 1902   1.409   0.367   4.973  0.0555 -1.5969  0.7498
   83DG     C17 1903   1.769   0.327   5.144  0.0886  0.2447 -0.6718
   83DG     C18 1904   1.540   0.396   5.141 -0.5020 -0.6477 -0.0780
   83DG     O19 1905   1.647   0.343   5.066 -0.2749  0.3501 -0.3061
   83DG     H20 1906   1.798   0.411   5.207 -0.2941 -1.1905  1.5284
   83DG     H21 1907   1.766   0.246   5.217  1.9491  1.4778  0.8506
   83DG     H22 1908   1.578   0.481   5.199  0.1991 -1.2207  0.3163
   83DG     H23 1909   1.502   0.321   5.210 -0.8883  0.0239  0.4591
   84DG      C1 1910   3.023   1.391   2.143  0.5059 -0.4508 -0.0217
   84DG      C2 1911   3.541   1.687   1.784 -0.2086  0.5789 -0.3573
   84DG      H3 1912   3.059   1.448   2.229  2.7871  0.9071 -1.7575
   84DG      H4 1913   3.050   1.292   2.179  0.0078 -0.2777  0.8805
   84DG      H5 1914   2.914   1.390   2.141  0.4863  0.1067  0.4913
   84DG      H6 1915   3.520   1.765   1.857  1.8660  2.6571 -1.8270
   84DG      H7 1916   3.632   1.637   1.816 -0.6643  0.3073  0.5464
   84DG      H8 1917   3.529   1.735   1.686  1.2970 -0.5137 -1.1143
   84DG      O9 1918   3.084   1.428   2.021  0.3009 -0.7138 -0.2990
   84DG     O10 1919   3.441   1.589   1.785 -0.6587 -0.2141  0.3439
   84DG     C11 1920   3.062   1.332   1.914 -0.0605 -0.2221 -0.2121
   84DG     C12 1921   3.450   1.502   1.675  0.2691 -0.4001 -0.5709
   84DG     H13 1922   2.960   1.292   1.911 -0.0588 -0.4184  1.3531
   84DG     H14 1923   3.134   1.255   1.942  0.8648  0.3588 -0.9346
   84DG     H15 1924   3.519   1.419   1.690  0.9624 -0.0091 -1.4837
   84DG     H16 1925   3.469   1.547   1.578 -0.8423  1.1177 -0.1199
   84DG     C17 1926   3.102   1.395   1.778 -0.1542  0.0324  0.7034
   84DG     C18 1927   3.308   1.450   1.665  0.3090 -0.0155  0.0666
   84DG     O19 1928   3.242   1.428   1.792  0.1315 -0.4646 -0.8482
   84DG     H20 1929   3.045   1.487   1.761  0.4787  0.4898  1.0186
   84DG     H21 1930   3.080   1.320   1.702  1.1031  1.2656 -0.9607
   84DG     H22 1931   3.258   1.526   1.606  2.7225  0.4579 -1.5230
   84DG     H23 1932   3.310   1.363   1.600 -0.6188  1.6966 -2.3967
   85DG      C1 1933   2.662   0.662   3.386 -0.2689 -0.2927 -0.8924
   85DG      C2 1934   2.283   1.115   3.335 -0.1617 -0.0006 -0.8450
   85DG      H3 1935   2.647   0.747   3.452  1.6740  1.5129 -2.6525
   85DG      H4 1936   2.747   0.690   3.324 -0.1888  0.8334 -0.2889
   85DG      H5 1937   2.688   0.570   3.438  2.5863  1.2930  0.7117
   85DG      H6 1938   2.390   1.132   3.327 -0.2075  0.7216 -0.1028
   85DG      H7 1939   2.248   1.182   3.256 -3.6842 -1.4246 -0.6602
   85DG      H8 1940   2.224   1.153   3.419  0.8906  1.9583 -0.9354
   85DG      O9 1941   2.544   0.641   3.314  0.1222 -0.4768 -0.0818
   85DG     O10 1942   2.272   0.968   3.321  0.1791 -0.2546 -0.1313
   85DG     C11 1943   2.456   0.544   3.363  0.5263  0.3189  0.0601
   85DG     C12 1944   2.295   0.887   3.436 -0.3681  0.4141 -0.0928
   85DG     H13 1945   2.444   0.545   3.472  0.3652 -0.0595  0.0477
   85DG     H14 1946   2.493   0.444   3.344 -0.9819 -0.4223  0.8090
   85DG     H15 1947   2.248   0.925   3.527 -0.1412 -1.6027  0.9135
   85DG     H16 1948   2.403   0.894   3.451 -0.3018  2.3988 -1.0952
   85DG     C17 1949   2.327   0.568   3.293 -0.3230 -0.8103  0.3030
   85DG     C18 1950   2.238   0.754   3.413 -0.1823  0.0988 -0.0210
   85DG     O19 1951   2.300   0.710   3.292 -0.6234  0.1730 -0.3864
   85DG     H20 1952   2.237   0.514   3.322 -2.2648  1.2372 -1.4809
   85DG     H21 1953   2.345   0.529   3.193 -0.9448  0.4544 -0.3349
   85DG     H22 1954   2.238   0.682   3.495  1.0952  0.4447  0.3151
   85DG     H23 1955   2.133   0.761   3.386 -0.2187 -1.6222 -0.4995
   86DG      C1 1956   3.632   0.256   0.355 -0.3645 -0.4314  0.1118
   86DG      C2 1957   4.181   0.612   0.310  0.3604 -0.1845  0.7708
   86DG      H3 1958   3.620   0.147   0.360  0.5719 -0.5130  0.5943
   86DG      H4 1959   3.565   0.306   0.284  0.5142  0.6046  0.0016
   86DG      H5 1960   3.611   0.295   0.454  0.5326 -0.8037  0.4554
   86DG      H6 1961   4.169   0.555   0.403  1.1879 -1.3116  0.2115
   86DG      H7 1962   4.286   0.635   0.294  0.4308 -2.0553 -2.3196
   86DG      H8 1963   4.113   0.697   0.315 -1.5187 -1.3496 -2.3096
   86DG      O9 1964   3.770   0.275   0.324  0.1579 -0.1845 -0.0006
   86DG     O10 1965   4.140   0.540   0.192  0.2107  0.1564 -0.0662
   86DG     C11 1966   3.853   0.225   0.430  0.0320 -0.7036 -0.4233
   86DG     C12 1967   4.201   0.413   0.166 -0.2659  0.3164  0.4483
   86DG     H13 1968   3.810   0.134   0.472  0.5173 -1.1076 -0.7806
   86DG     H14 1969   3.870   0.291   0.515  0.2404 -0.8161 -0.3760
   86DG     H15 1970   4.309   0.426   0.170 -0.2916  2.0994 -1.9079
   86DG     H16 1971   4.178   0.384   0.063 -2.6036  1.3779  0.5967
   86DG     C17 1972   3.988   0.185   0.370 -0.4637  0.0218 -0.6797
   86DG     C18 1973   4.167   0.301   0.264 -0.1877  0.1147  0.1669
   86DG     O19 1974   4.029   0.297   0.293  0.2889 -0.3806 -0.1892
   86DG     H20 1975   3.977   0.096   0.308 -4.0904  1.2058 -1.9669
   86DG     H21 1976   4.052   0.146   0.449 -1.3418 -2.1331 -0.9633
   86DG     H22 1977   4.208   0.218   0.208 -0.2564 -0.0869  0.4109
   86DG     H23 1978   4.223   0.309   0.358 -0.5596 -1.1295  0.5091
   87DG      C1 1979   4.827   4.168   0.218 -0.5672  0.3179 -0.3953
   87DG      C2 1980   4.887   3.805   0.845  0.8032 -0.3174 -0.0768
   87DG      H3 1981   4.761   4.082   0.208 -0.8496  0.4036  0.6071
   87DG      H4 1982   4.911   4.150   0.151 -1.0797  2.2057 -1.6361
   87DG      H5 1983   4.778   4.264   0.199 -1.8513 -0.1482  0.4435
   87DG      H6 1984   4.983   3.769   0.882  1.8430  0.8834 -1.4857
   87DG      H7 1985   4.824   3.833   0.929 -2.0702  1.4918 -2.6230
   87DG      H8 1986   4.826   3.722   0.811 -1.7559  1.2409  0.5085
   87DG      O9 1987   4.874   4.157   0.353 -0.0214  0.0376  0.6557
   87DG     O10 1988   4.908   3.922   0.763 -0.2005 -0.7180 -0.5898
   87DG     C11 1989   4.988   4.230   0.386  0.1336 -0.0688 -0.0110
   87DG     C12 1990   4.984   4.030   0.827 -0.3961  0.4109  0.2731
   87DG     H13 1991   4.990   4.321   0.326  0.3128 -0.5288 -0.7149
   87DG     H14 1992   5.076   4.168   0.369 -0.8557 -1.7729  0.8027
   87DG     H15 1993   5.085   3.993   0.845 -1.1440 -0.9251  2.0074
   87DG     H16 1994   4.937   4.053   0.922 -4.7449 -1.5052 -1.1366
   87DG     C17 1995   4.987   4.262   0.539 -0.0664  0.1651  0.5493
   87DG     C18 1996   4.969   4.158   0.749  0.8270 -0.1952  0.3066
   87DG     O19 1997   4.980   4.140   0.607 -0.4262 -0.2367  0.8267
   87DG     H20 1998   4.893   4.313   0.560 -0.9654 -0.5690 -1.4475
   87DG     H21 1999   5.075   4.323   0.562  0.0797  0.3653 -0.4640
   87DG     H22 2000   4.874   4.202   0.779  1.3637  1.1472  0.1001
   87DG     H23 2001   5.046   4.234   0.761  1.7471 -1.0792  0.1759
   88DG      C1 2002   0.982   2.601   3.748 -0.8290  0.1856 -0.7120
   88DG      C2 2003   1.186   2.683   4.406 -0.1392 -0.2628 -0.8544
   88DG      H3 2004   1.040   2.680   3.700 -0.6755 -0.7321 -2.0764
   88DG      H4 2005   0.899   2.583   3.680 -2.2187  1.6959  0.4887
   88DG      H5 2006   1.036   2.506   3.749  0.9637  1.1443  1.0460
   88DG      H6 2007   1.266   2.747   4.370 -0.0117  0.6527  0.9601
   88DG      H7 2008   1.164   2.723   4.505 -1.7601 -0.3938 -1.1195
   88DG      H8 2009   1.222   2.582   4.425  2.2314  0.5875 -0.5178
   88DG      O9 2010   0.936   2.636   3.883 -0.0780 -0.7530 -0.3585
   88DG     O10 2011   1.079   2.683   4.319  0.1280  0.1810 -0.0611
   88DG     C11 2012   0.837   2.541   3.923 -0.2962 -0.3136 -0.5078
   88DG     C12 2013   0.959   2.623   4.380 -0.5082 -0.3963 -0.4913
   88DG     H13 2014   0.888   2.444   3.927  2.4576  1.0455 -0.4750
   88DG     H14 2015   0.758   2.541   3.848 -0.2525  1.9445 -0.6199
   88DG     H15 2016   0.927   2.661   4.477  0.9067  1.0186 -0.5296
   88DG     H16 2017   0.985   2.518   4.393  1.1369 -0.1626 -1.5427
   88DG     C17 2018   0.785   2.591   4.059  0.6395 -0.1722  0.4786
   88DG     C18 2019   0.842   2.631   4.279  0.4664  0.6476 -0.1497
   88DG     O19 2020   0.892   2.586   4.153  0.1222  0.5534  0.1288
   88DG     H20 2021   0.697   2.535   4.092  0.8583 -0.3849  0.6998
   88DG     H21 2022   0.755   2.696   4.062  0.8747 -0.1259  1.8932
   88DG     H22 2023   0.752   2.581   4.315 -1.0185  1.1911 -2.7874
   88DG     H23 2024   0.816   2.737   4.279 -1.9544  0.1247  0.5048
   89DG      C1 2025   3.925   5.472   3.962 -0.1683 -0.2440 -0.2002
   89DG      C2 2026   4.294   6.035   4.051 -0.6347  0.1484  0.6024
   89DG      H3 2027   3.940   5.365   3.946  1.2871  0.0025 -0.6694
   89DG      H4 2028   3.828   5.501   3.922  0.2433  1.2740 -0.1769
   89DG      H5 2029   3.924   5.477   4.071 -1.4582 -1.4017 -0.1288
   89DG      H6 2030   4.252   6.131   4.021 -2.6115 -0.3629  1.5676
   89DG      H7 2031   4.234   6.019   4.141  2.0230 -1.6264  2.1900
   89DG      H8 2032   4.398   6.060   4.070 -0.1799 -0.3865 -1.0156
   89DG      O9 2033   4.032   5.549   3.903 -0.1076  0.7130  0.2230
   89DG     O10 2034   4.269   5.925   3.959 -0.5584  0.3153 -0.0876
   89DG     C11 2035   4.004   5.590   3.768 -0.0871 -0.0071  0.2202
   89DG     C12 2036   4.282   5.962   3.824 -0.1622 -1.0070 -0.0090
   89DG     H13 2037   3.910   5.642   3.752  0.4953  1.3572  1.0928
   89DG     H14 2038   3.973   5.501   3.714 -1.3243  0.8182 -0.4670
   89DG     H15 2039   4.373   6.017   3.800 -0.5511 -0.2852  0.1171
   89DG     H16 2040   4.204   6.033   3.793  0.3462 -0.2449  0.4175
   89DG     C17 2041   4.125   5.660   3.703  0.0056  0.2627 -0.5002
   89DG     C18 2042   4.271   5.841   3.736 -1.0569  0.0540 -0.2724
   89DG     O19 2043   4.146   5.779   3.773 -0.0489 -0.6666  0.1696
   89DG     H20 2044   4.100   5.682   3.599 -2.4194  1.2904  0.2311
   89DG     H21 2045   4.200   5.582   3.689  0.3567  0.6722 -0.9062
   89DG     H22 2046   4.281   5.858   3.629  0.6949  0.4782 -0.0668
   89DG     H23 2047   4.347   5.765   3.753 -0.0570  0.6053 -2.0478
   90DG      C1 2048   4.306   1.658   1.794  0.6371  0.2912  0.4994
   90DG      C2 2049   3.994   1.113   1.969 -0.1448  0.4351  0.2980
   90DG      H3 2050   4.240   1.641   1.709  1.1214  2.1728 -0.2870
   90DG      H4 2051   4.403   1.681   1.750  0.0221  1.7523 -0.1381
   90DG      H5 2052   4.267   1.746   1.845 -0.2062 -0.6515  1.5448
   90DG      H6 2053   3.973   1.117   1.862  0.9275 -0.3446  0.0335
   90DG      H7 2054   3.991   1.005   1.984 -2.0942  0.0341 -2.2259
   90DG      H8 2055   3.910   1.163   2.016 -0.5328  0.4997 -0.4534
   90DG      O9 2056   4.318   1.540   1.879  0.1370 -0.0354 -0.8493
   90DG     O10 2057   4.126   1.165   1.991  0.6701 -0.1491  0.1572
   90DG     C11 2058   4.412   1.553   1.987 -0.0297 -0.5514 -0.6999
   90DG     C12 2059   4.153   1.195   2.129  0.0823 -0.6885  0.0507
   90DG     H13 2060   4.365   1.628   2.052 -1.4320 -1.8400 -0.1723
   90DG     H14 2061   4.508   1.588   1.950  0.5108 -0.4841  0.6964
   90DG     H15 2062   4.147   1.104   2.190 -1.2030 -0.1777  0.7164
   90DG     H16 2063   4.078   1.271   2.148  1.2060  0.6127 -0.5590
   90DG     C17 2064   4.432   1.420   2.060 -0.4885  0.1173  0.3239
   90DG     C18 2065   4.299   1.246   2.144  0.9618  0.4414 -0.0376
   90DG     O19 2066   4.303   1.361   2.070 -0.4360 -0.3143  0.0927
   90DG     H20 2067   4.476   1.430   2.159 -0.7306 -1.5462  0.6344
   90DG     H21 2068   4.497   1.360   1.997 -0.8512 -1.3856  1.3227
   90DG     H22 2069   4.316   1.263   2.251 -1.0963 -0.7603  0.5405
   90DG     H23 2070   4.365   1.165   2.116 -0.4602 -0.3276 -1.3546
   91DG      C1 2071   1.392   3.585   4.551  0.5762 -0.0011 -0.2943
   91DG      C2 2072   1.179   3.830   5.202  0.9223  0.6904 -0.1311
   91DG      H3 2073   1.441   3.611   4.457  0.0179  0.1372 -0.5475
   91DG      H4 2074   1.287   3.598   4.527  0.5863  0.8869  0.0940
   91DG      H5 2075   1.409   3.481   4.577  1.1052  0.2262  0.2933
   91DG      H6 2076   1.114   3.779   5.131  1.4795  0.6904 -0.6449
   91DG      H7 2077   1.188   3.773   5.294  0.2838  0.6661 -0.0741
   91DG      H8 2078   1.134   3.926   5.227 -0.8596 -0.0814 -0.2085
   91DG      O9 2079   1.436   3.670   4.652  0.5000  0.0839  0.0491
   91DG     O10 2080   1.287   3.853   5.116  0.1754 -0.2979 -0.0491
   91DG     C11 2081   1.412   3.809   4.637  0.3318 -0.1688  0.2608
   91DG     C12 2082   1.369   3.740   5.096  0.1502 -0.2758  0.2748
   91DG     H13 2083   1.309   3.837   4.614  0.9324  2.4310  0.4143
   91DG     H14 2084   1.474   3.843   4.553 -1.7888 -1.0768 -1.7915
   91DG     H15 2085   1.306   3.654   5.073 -1.1374  0.8185 -0.3788
   91DG     H16 2086   1.423   3.722   5.189  0.0411 -1.5308  0.1143
   91DG     C17 2087   1.475   3.866   4.770  0.4008  0.9143  0.8808
   91DG     C18 2088   1.466   3.789   4.994  0.4042 -0.0655  0.1911
   91DG     O19 2089   1.389   3.819   4.880  0.1784  0.4376  0.1420
   91DG     H20 2090   1.458   3.973   4.768 -1.0156  0.7179 -1.4157
   91DG     H21 2091   1.581   3.842   4.775  0.2550  0.0439  0.0996
   91DG     H22 2092   1.524   3.863   5.049 -0.6412 -1.5069  3.5086
   91DG     H23 2093   1.544   3.715   4.977  0.4045 -0.0750  0.2316
   92DG      C1 2094   2.011   3.493   2.350 -0.1619 -0.1900  0.3308
   92DG      C2 2095   2.368   2.941   2.306 -0.3309  0.0765  0.2954
   92DG      H3 2096   1.995   3.479   2.243 -1.6893 -0.0881  0.5145
   92DG      H4 2097   1.998   3.594   2.388 -0.9598  0.3760 -1.3212
   92DG      H5 2098   1.920   3.440   2.380 -0.7741 -1.1832 -2.8201
   92DG      H6 2099   2.301   2.880   2.365 -1.9156 -0.1960 -1.6861
   92DG      H7 2100   2.326   2.941   2.205  1.2144  1.6262 -0.4177
   92DG      H8 2101   2.470   2.903   2.301  0.5017  1.8676  2.2201
   92DG      O9 2102   2.138   3.442   2.390 -0.3890  0.0636  0.6298
   92DG     O10 2103   2.385   3.079   2.351  0.1565  0.1375 -0.4243
   92DG     C11 2104   2.154   3.459   2.530 -0.3949  0.0344 -1.0001
   92DG     C12 2105   2.445   3.090   2.479 -0.3496  0.1371  0.1460
   92DG     H13 2106   2.071   3.407   2.577 -1.2780  0.1707 -2.3466
   92DG     H14 2107   2.145   3.561   2.569  0.9823 -1.2730  3.3008
   92DG     H15 2108   2.551   3.066   2.470 -0.5306 -0.7298  0.2006
   92DG     H16 2109   2.385   3.038   2.554  0.5744  1.0002  1.5320
   92DG     C17 2110   2.284   3.401   2.575  0.2591 -0.0157  0.6094
   92DG     C18 2111   2.435   3.239   2.533  0.1547  0.3682 -0.3269
   92DG     O19 2112   2.301   3.277   2.512 -0.0573  0.1774 -0.5020
   92DG     H20 2113   2.272   3.381   2.682  1.4201  1.7608  1.1101
   92DG     H21 2114   2.367   3.471   2.573  1.3338 -1.1997  1.5506
   92DG     H22 2115   2.465   3.243   2.638 -3.1184 -0.2868  0.7583
   92DG     H23 2116   2.500   3.302   2.474  1.1475 -1.5175 -1.3499
   93DG      C1 2117   0.701   5.237   2.805 -0.8835  0.4635 -0.2783
   93DG      C2 2118   0.737   5.881   2.863  0.1749 -0.4010  0.2004
   93DG      H3 2119   0.620   5.228   2.733 -2.0904 -1.6155  1.2346
   93DG      H4 2120   0.695   5.140   2.855 -1.2327  0.6686  0.0828
   93DG      H5 2121   0.792   5.254   2.747 -0.3963 -1.0868 -0.0322
   93DG      H6 2122   0.634   5.917   2.862 -0.2061 -0.8490 -5.2274
   93DG      H7 2123   0.802   5.964   2.889  0.6288 -1.3708  2.4222
   93DG      H8 2124   0.747   5.853   2.758 -4.3670  0.2470 -0.6482
   93DG      O9 2125   0.690   5.351   2.890  0.6863 -0.0569 -0.1346
   93DG     O10 2126   0.750   5.774   2.948  0.2886 -0.4317 -0.1190
   93DG     C11 2127   0.606   5.325   3.006 -0.1341 -0.0363  0.1832
   93DG     C12 2128   0.707   5.783   3.092 -0.2413 -0.6352  0.6434
   93DG     H13 2129   0.612   5.226   3.052  0.2606 -0.0980  0.0017
   93DG     H14 2130   0.500   5.333   2.982  0.0485 -0.3929 -0.7840
   93DG     H15 2131   0.602   5.807   3.109 -0.2536 -0.5214  0.4080
   93DG     H16 2132   0.769   5.859   3.140  0.4352 -0.3579 -0.6346
   93DG     C17 2133   0.661   5.424   3.112  0.3192  0.5603 -0.3889
   93DG     C18 2134   0.726   5.648   3.151  0.2661 -0.1715  0.3000
   93DG     O19 2135   0.665   5.557   3.053 -0.2530 -0.4813 -0.3761
   93DG     H20 2136   0.764   5.404   3.144  0.3754 -0.4738 -1.1904
   93DG     H21 2137   0.589   5.425   3.194 -0.6251  1.7392 -1.1901
   93DG     H22 2138   0.833   5.629   3.154  0.1621 -0.8759 -0.0614
   93DG     H23 2139   0.684   5.655   3.252 -0.2975 -0.0550  0.0597
   94DG      C1 2140   2.604   1.802   0.001 -0.0086 -0.2172 -0.6205
   94DG      C2 2141   2.126   1.744  -0.499 -0.3092  0.1803  0.8225
   94DG      H3 2142   2.627   1.719   0.067 -0.9425  0.8647  1.1488
   94DG      H4 2143   2.595   1.892   0.061 -0.7485 -0.9007  0.3402
   94DG      H5 2144   2.665   1.803  -0.089  1.5786 -1.9190  0.3688
   94DG      H6 2145   2.062   1.667  -0.543  1.1300 -0.6722  0.1288
   94DG      H7 2146   2.071   1.837  -0.485  0.6027  1.0008 -0.7528
   94DG      H8 2147   2.203   1.774  -0.570 -0.4963  0.7913  0.8734
   94DG      O9 2148   2.468   1.789  -0.048 -0.6189  0.0092 -0.5751
   94DG     O10 2149   2.181   1.708  -0.376  0.4658  0.4035  0.1607
   94DG     C11 2150   2.369   1.764   0.061 -0.1165  0.1952  0.0961
   94DG     C12 2151   2.074   1.652  -0.292 -0.6577  0.1641 -0.4482
   94DG     H13 2152   2.318   1.859   0.073  0.0998  0.1057  1.9320
   94DG     H14 2153   2.421   1.749   0.155  1.4142  1.4207 -0.5121
   94DG     H15 2154   2.034   1.563  -0.342  0.9520 -0.3490 -0.8913
   94DG     H16 2155   1.996   1.726  -0.274 -0.6147 -0.1105  0.9571
   94DG     C17 2156   2.274   1.653   0.024 -0.4426  0.2837 -0.2929
   94DG     C18 2157   2.123   1.603  -0.158 -0.2046  0.6322  0.8455
   94DG     O19 2158   2.220   1.691  -0.096  0.4597 -0.3567  0.5558
   94DG     H20 2159   2.205   1.636   0.107 -1.9484 -0.5061 -1.6547
   94DG     H21 2160   2.333   1.564   0.003 -0.1602  0.0973  1.1473
   94DG     H22 2161   2.032   1.591  -0.099  0.3064  0.6813  1.6570
   94DG     H23 2162   2.165   1.503  -0.169  0.7848  0.7252  3.1216
   95DG      C1 2163   0.116   1.176   2.805 -0.4714  0.0372  0.0954
   95DG      C2 2164   0.142   0.723   3.259 -0.3372 -0.4057 -0.3352
   95DG      H3 2165   0.117   1.190   2.696  1.5086 -2.7052 -0.3478
   95DG      H4 2166   0.183   1.240   2.862 -0.6889  0.3923 -0.0438
   95DG      H5 2167   0.016   1.169   2.847 -0.1750 -2.2014  0.5596
   95DG      H6 2168   0.179   0.816   3.302  0.7474 -1.8599  2.1388
   95DG      H7 2169   0.034   0.735   3.259 -0.2521  0.4554 -1.3567
   95DG      H8 2170   0.171   0.634   3.316 -0.5455 -1.8937 -2.4454
   95DG      O9 2171   0.179   1.047   2.818  0.0350 -0.5166 -0.6133
   95DG     O10 2172   0.188   0.731   3.130  0.2069 -0.2033 -0.3294
   95DG     C11 2173   0.317   1.044   2.798 -0.0588 -0.0742  0.3926
   95DG     C12 2174   0.327   0.703   3.118 -0.2532  0.2633  0.4251
   95DG     H13 2175   0.372   1.110   2.865  0.8737 -0.3152 -0.1124
   95DG     H14 2176   0.339   1.072   2.695 -0.5874 -0.1189  0.2683
   95DG     H15 2177   0.347   0.599   3.143 -3.4149 -0.7569 -0.7262
   95DG     H16 2178   0.391   0.766   3.179 -2.7538  0.7699  2.6882
   95DG     C17 2179   0.359   0.894   2.817  0.5794 -0.3662 -0.1311
   95DG     C18 2180   0.366   0.729   2.977 -0.0586 -0.1215 -0.0559
   95DG     O19 2181   0.319   0.859   2.947 -0.2790  0.0072 -0.4049
   95DG     H20 2182   0.468   0.886   2.807  0.3812 -0.5997 -3.1408
   95DG     H21 2183   0.310   0.825   2.748  4.1829 -1.1521 -2.2224
   95DG     H22 2184   0.474   0.716   2.972 -0.1198 -0.5346 -0.4848
   95DG     H23 2185   0.328   0.659   2.902  1.7429 -1.7459  0.4533
   96DG      C1 2186   1.143   0.966   2.293 -0.1817 -0.1914  0.2795
   96DG      C2 2187   1.441   0.501   2.615 -0.5358 -0.3060  0.1586
   96DG      H3 2188   1.064   1.018   2.239  1.3650  0.6123 -1.3038
   96DG      H4 2189   1.242   1.012   2.284  1.2842 -2.1989  4.0853
   96DG      H5 2190   1.122   0.987   2.398 -2.8154  0.9922 -0.4036
   96DG      H6 2191   1.527   0.533   2.556 -1.1018 -3.3737 -2.6177
   96DG      H7 2192   1.425   0.570   2.698 -0.2022  0.5865 -0.4933
   96DG      H8 2193   1.462   0.401   2.651 -1.5597 -0.7815 -0.5327
   96DG      O9 2194   1.128   0.831   2.285 -0.7440 -0.5012  0.0861
   96DG     O10 2195   1.335   0.500   2.525  0.1868  0.5173  0.3214
   96DG     C11 2196   0.995   0.795   2.320  0.6860 -0.0770 -0.4129
   96DG     C12 2197   1.216   0.457   2.590 -0.1747 -0.5140 -0.1433
   96DG     H13 2198   0.920   0.818   2.244  0.4502  3.0477  0.6255
   96DG     H14 2199   0.974   0.846   2.414  0.5678 -1.2874  0.2409
   96DG     H15 2200   1.214   0.514   2.683  1.0631  0.3963 -0.6326
   96DG     H16 2201   1.211   0.354   2.625 -1.8796 -0.1601  0.7567
   96DG     C17 2202   0.986   0.646   2.358  0.1352 -0.4484  0.2417
   96DG     C18 2203   1.094   0.481   2.504 -0.5415  0.9979 -0.3674
   96DG     O19 2204   1.098   0.610   2.442  0.2904 -0.3288 -0.4991
   96DG     H20 2205   0.996   0.587   2.266 -0.4447  0.4788 -0.4275
   96DG     H21 2206   0.888   0.641   2.404  0.0874  1.2629  0.3829
   96DG     H22 2207   1.104   0.403   2.428  2.4669  2.3541 -1.5533
   96DG     H23 2208   1.008   0.462   2.567  2.3073 -0.7937  3.3457
   97DG      C1 2209   2.024   2.602   1.811  0.5598  0.3205  0.0208
   97DG      C2 2210   1.634   2.964   1.409  1.1552  0.3957 -0.0266
   97DG      H3 2211   2.057   2.502   1.840  0.1837  0.2543  0.2329
   97DG      H4 2212   2.011   2.666   1.899  0.4900 -0.8718  0.9109
   97DG      H5 2213   2.110   2.639   1.756  0.7258  1.7795  1.1907
   97DG      H6 2214   1.543   3.023   1.397 -0.8644 -1.5448  3.8169
   97DG      H7 2215   1.720   3.013   1.364 -1.3146  2.8478 -2.4041
   97DG      H8 2216   1.610   2.876   1.350  0.9178  1.5152 -1.6756
   97DG      O9 2217   1.914   2.618   1.721 -0.1272  0.0305 -0.2203
   97DG     O10 2218   1.653   2.937   1.552 -0.0519 -0.0810  0.3418
   97DG     C11 2219   1.791   2.544   1.763 -0.0057 -0.6456  0.2721
   97DG     C12 2220   1.542   2.863   1.607 -0.1434  0.1206 -0.0467
   97DG     H13 2221   1.786   2.512   1.867 -3.1434  0.6022  0.5914
   97DG     H14 2222   1.791   2.464   1.689 -3.2007  0.3281 -0.9431
   97DG     H15 2223   1.524   2.771   1.552  0.5610 -0.0380 -0.0187
   97DG     H16 2224   1.459   2.933   1.598 -1.3956 -1.1685  0.9402
   97DG     C17 2225   1.660   2.626   1.745 -1.0423  0.3344  0.5210
   97DG     C18 2226   1.575   2.845   1.759 -0.6044 -0.1284  0.4092
   97DG     O19 2227   1.692   2.761   1.777  0.4793  0.9612 -0.8388
   97DG     H20 2228   1.582   2.580   1.806  1.3865 -0.2879  3.3916
   97DG     H21 2229   1.633   2.611   1.641 -0.3801  0.0432  0.3856
   97DG     H22 2230   1.584   2.946   1.799 -0.8324  0.7370 -1.5952
   97DG     H23 2231   1.493   2.804   1.818  0.5826 -0.0712  2.1657
   98DG      C1 2232   0.666   4.953   4.320 -0.4277 -0.3818 -0.0040
   98DG      C2 2233   1.142   4.826   3.817  0.4446  0.3537  0.4590
   98DG      H3 2234   0.627   4.905   4.410 -0.9300  1.8678  1.0524
   98DG      H4 2235   0.600   4.919   4.241 -0.1478 -1.0084  0.0226
   98DG      H5 2236   0.668   5.061   4.330  0.8017 -0.1801 -1.9678
   98DG      H6 2237   1.148   4.724   3.780 -0.1988 -0.1426  1.6634
   98DG      H7 2238   1.060   4.862   3.755  0.4357 -1.3990 -0.6095
   98DG      H8 2239   1.229   4.885   3.788 -0.3586  1.1234 -0.5147
   98DG      O9 2240   0.795   4.911   4.281 -0.2325 -0.3538 -0.2037
   98DG     O10 2241   1.100   4.832   3.956 -0.1391  0.4100  0.2564
   98DG     C11 2242   0.896   4.949   4.366 -0.7592  0.6909 -0.3790
   98DG     C12 2243   1.207   4.781   4.033 -0.3782  0.0049 -0.3270
   98DG     H13 2244   0.863   4.945   4.470  2.2040 -0.0746  0.6358
   98DG     H14 2245   0.925   5.049   4.336 -0.8695  0.8226 -0.0437
   98DG     H15 2246   1.281   4.861   4.038 -0.6906  0.2309  1.3210
   98DG     H16 2247   1.252   4.695   3.984  0.8439  1.8135 -2.5956
   98DG     C17 2248   1.018   4.843   4.344 -0.4078 -0.7215  0.4745
   98DG     C18 2249   1.159   4.755   4.173  0.3739 -0.0850  0.1422
   98DG     O19 2250   1.048   4.842   4.204 -0.2361  0.1609 -0.6557
   98DG     H20 2251   0.978   4.743   4.365 -0.3027 -0.4010  2.3550
   98DG     H21 2252   1.109   4.873   4.396  0.6259  0.4073 -1.8559
   98DG     H22 2253   1.127   4.651   4.186 -0.4378 -0.0433 -1.3165
   98DG     H23 2254   1.236   4.782   4.245 -1.1604  1.5888  1.2624
   99DG      C1 2255   0.333   3.038   2.456 -0.2037  0.1592 -0.0390
   99DG      C2 2256   0.309   2.448   2.784 -0.4771  0.2633 -0.4694
   99DG      H3 2257   0.297   3.090   2.545 -1.0964 -0.1450 -0.2104
   99DG      H4 2258   0.326   3.097   2.364 -2.5913 -0.5547 -0.3651
   99DG      H5 2259   0.437   3.004   2.456  0.3544  1.7555 -0.5745
   99DG      H6 2260   0.283   2.478   2.885 -2.9901 -0.5538 -0.8176
   99DG      H7 2261   0.291   2.342   2.769  0.8271 -0.2789  1.4754
   99DG      H8 2262   0.416   2.461   2.767 -0.6002  0.3224 -1.2257
   99DG      O9 2263   0.245   2.920   2.450 -0.4596 -0.8400 -0.6348
   99DG     O10 2264   0.253   2.534   2.684  0.4829  0.3608 -0.7292
   99DG     C11 2265   0.108   2.945   2.455  0.1382  0.0407 -0.1949
   99DG     C12 2266   0.110   2.523   2.685 -0.0930 -0.2948 -0.2824
   99DG     H13 2267   0.067   2.994   2.366 -1.4118  1.0769  1.0229
   99DG     H14 2268   0.071   2.981   2.551 -0.8601 -0.6398 -0.2986
   99DG     H15 2269   0.078   2.560   2.783 -0.2519 -0.0024 -0.4454
   99DG     H16 2270   0.080   2.418   2.686 -1.6262  0.1071 -0.8112
   99DG     C17 2271   0.044   2.803   2.451  0.2609  1.0024 -0.1758
   99DG     C18 2272   0.057   2.595   2.565  0.3311  0.1622  0.3718
   99DG     O19 2273   0.088   2.735   2.567  0.2249 -0.2233 -0.2088
   99DG     H20 2274   0.070   2.754   2.357 -0.0179 -0.0518  0.2800
   99DG     H21 2275  -0.065   2.802   2.457  0.2731 -2.0466  2.5219
   99DG     H22 2276   0.094   2.545   2.475 -3.0375 -2.8884  0.4760
   99DG     H23 2277  -0.051   2.588   2.566 -0.0006  3.6515  1.0919
  100DG      C1 2278   4.918   4.993   4.988  0.0294  0.1534 -0.6701
  100DG      C2 2279   4.459   4.630   5.291 -0.2849  0.3585 -0.1913
  100DG      H3 2280   4.944   5.093   4.953 -0.6121  0.4251 -0.3795
  100DG      H4 2281   4.892   4.929   4.903 -1.0337  0.9795 -1.0019
  100DG      H5 2282   5.011   4.951   5.026  1.7587  1.0386 -3.5871
  100DG      H6 2283   4.360   4.626   5.336  0.0466  1.7822  0.7344
  100DG      H7 2284   4.450   4.577   5.196 -1.9443 -0.5539  0.4277
  100DG      H8 2285   4.524   4.565   5.350 -0.2082  0.4401 -0.1860
  100DG      O9 2286   4.810   5.008   5.085 -0.4873 -0.4584  0.5611
  100DG     O10 2287   4.492   4.768   5.294  0.5196 -0.0118  0.0093
  100DG     C11 2288   4.858   5.058   5.209  0.7982 -0.1152  0.5633
  100DG     C12 2289   4.526   4.814   5.422 -0.0773 -0.4962 -0.1137
  100DG     H13 2290   4.903   5.155   5.190  1.6659  0.0772  3.2102
  100DG     H14 2291   4.931   4.989   5.251  2.4471  0.6642 -0.8830
  100DG     H15 2292   4.622   4.775   5.458 -1.1121 -1.6877  1.4803
  100DG     H16 2293   4.466   4.798   5.512 -0.0478  0.7087  0.1393
  100DG     C17 2294   4.741   5.077   5.307  0.2635 -0.0891 -0.2839
  100DG     C18 2295   4.567   4.962   5.401  0.1387  0.0575 -0.3599
  100DG     O19 2296   4.672   4.959   5.303  0.0007  0.2659 -0.0279
  100DG     H20 2297   4.680   5.162   5.278  2.0059  0.9540 -1.0109
  100DG     H21 2298   4.775   5.110   5.405  0.8421  0.2359 -0.5883
  100DG     H22 2299   4.487   5.027   5.365 -0.7160 -1.1571 -0.6965
  100DG     H23 2300   4.606   5.000   5.495  1.6505  0.2238 -1.0075
  101DG      C1 2301   2.943   1.964   1.255 -0.6723 -0.0292 -0.1757
  101DG      C2 2302   2.977   2.338   0.744 -0.1357 -0.3208 -0.0933
  101DG      H3 2303   2.983   1.968   1.356  2.6509  0.5875 -1.3871
  101DG      H4 2304   2.918   1.862   1.226  0.8336 -0.1827 -1.0358
  101DG      H5 2305   2.851   2.021   1.268  0.6965  2.1048  0.8013
  101DG      H6 2306   3.005   2.420   0.677 -3.1335 -0.5372 -1.8204
  101DG      H7 2307   2.950   2.249   0.687  1.0612 -0.7094 -0.0828
  101DG      H8 2308   2.881   2.379   0.775 -0.6198 -1.4146 -0.0879
  101DG      O9 2309   3.034   2.032   1.172 -0.5045  0.5320  0.6382
  101DG     O10 2310   3.071   2.308   0.843  0.6271 -0.2850 -0.1348
  101DG     C11 2311   3.158   1.962   1.152 -0.1418  0.1685  0.2577
  101DG     C12 2312   3.198   2.264   0.799 -0.2194  0.0589  0.6508
  101DG     H13 2313   3.138   1.893   1.070 -3.2093  1.3612 -0.0994
  101DG     H14 2314   3.195   1.917   1.245 -0.4875  0.0594  0.3427
  101DG     H15 2315   3.258   2.343   0.754 -1.9582  0.5440 -0.9707
  101DG     H16 2316   3.193   2.189   0.720 -0.0930 -0.0957  0.7874
  101DG     C17 2317   3.261   2.052   1.086  0.2529 -0.6751 -0.1038
  101DG     C18 2318   3.275   2.211   0.913  0.4165 -0.5922 -0.3752
  101DG     O19 2319   3.195   2.119   0.979  0.1272 -0.0069 -0.2620
  101DG     H20 2320   3.355   2.002   1.060  1.1197  0.5317  0.6270
  101DG     H21 2321   3.288   2.140   1.145  1.3358  1.0293 -2.9087
  101DG     H22 2322   3.361   2.156   0.875 -0.1458 -2.1237  0.4565
  101DG     H23 2323   3.314   2.295   0.970  0.7348  0.9552 -2.7678
  102DG      C1 2324   5.201   2.158   2.249 -0.5372  0.0689  0.3131
  102DG      C2 2325   5.897   2.021   2.202 -0.2197  0.0961  0.0084
  102DG      H3 2326   5.162   2.067   2.205  0.6561 -0.9240  1.2290
  102DG      H4 2327   5.220   2.228   2.167  1.6641  1.6859  2.0655
  102DG      H5 2328   5.128   2.188   2.324  1.2883  1.4577  1.6334
  102DG      H6 2329   5.923   2.114   2.150  0.4319  0.6459  1.2688
  102DG      H7 2330   5.976   2.009   2.276 -1.1410  0.7904  1.1364
  102DG      H8 2331   5.907   1.934   2.137 -3.2337  0.2996 -0.8930
  102DG      O9 2332   5.327   2.145   2.311  0.1360  1.0861  0.7105
  102DG     O10 2333   5.781   2.015   2.285  0.4303 -0.1209 -0.0238
  102DG     C11 2334   5.315   2.063   2.429 -0.5914  0.1251 -0.2747
  102DG     C12 2335   5.781   2.134   2.364 -0.1740  0.3892 -0.1459
  102DG     H13 2336   5.309   1.955   2.414  0.6331 -0.0918  0.6370
  102DG     H14 2337   5.235   2.097   2.494 -1.9696 -0.6314 -1.4961
  102DG     H15 2338   5.746   2.219   2.305 -3.2023  0.0276  0.9556
  102DG     H16 2339   5.875   2.152   2.418 -0.7088 -0.6479  1.1896
  102DG     C17 2340   5.453   2.083   2.497  0.3217  0.0854 -0.4395
  102DG     C18 2341   5.688   2.096   2.474 -0.5563 -0.3152 -0.1647
  102DG     O19 2342   5.564   2.069   2.406  0.1453 -0.3639 -0.2952
  102DG     H20 2343   5.462   2.013   2.580 -1.5451 -1.3398 -1.3653
  102DG     H21 2344   5.453   2.184   2.539 -1.8756 -0.6052  1.4140
  102DG     H22 2345   5.724   2.015   2.537 -1.4898 -1.1532 -0.6671
  102DG     H23 2346   5.684   2.173   2.550 -0.1956  0.6960 -1.1365
  103DG      C1 2347   1.680   5.055   3.197 -0.2963  0.1130 -0.9082
  103DG      C2 2348   1.649   5.690   3.439 -0.3473  0.2252  0.5808
  103DG      H3 2349   1.752   5.051   3.116  0.3021  1.2137 -0.4553
  103DG      H4 2350   1.602   4.979   3.194 -0.4768  0.2083  0.4664
  103DG      H5 2351   1.731   5.050   3.294  2.2441 -0.5622 -2.1994
  103DG      H6 2352   1.693   5.640   3.526 -0.2973  1.8361  1.5116
  103DG      H7 2353   1.729   5.752   3.400 -1.7251  1.1223 -0.9110
  103DG      H8 2354   1.570   5.755   3.476  0.1236  2.2973 -1.8204
  103DG      O9 2355   1.611   5.177   3.196  0.3466 -0.3475  0.3216
  103DG     O10 2356   1.605   5.600   3.334  0.0197  0.2925  0.0518
  103DG     C11 2357   1.564   5.212   3.068  0.4852  0.5359  0.7643
  103DG     C12 2358   1.598   5.674   3.207  1.0274  0.5059  0.1751
  103DG     H13 2359   1.482   5.145   3.042  0.6806  0.6047 -0.0398
  103DG     H14 2360   1.649   5.207   3.000  0.9372 -2.3549  1.3911
  103DG     H15 2361   1.699   5.695   3.172  2.2022  1.5251  3.7478
  103DG     H16 2362   1.542   5.768   3.210 -0.4723 -0.2570 -1.7368
  103DG     C17 2363   1.494   5.351   3.063 -0.4433 -0.4789 -0.0511
  103DG     C18 2364   1.527   5.587   3.102  0.6115  0.1602 -0.7223
  103DG     O19 2365   1.582   5.457   3.095  0.1650 -0.5254 -0.3481
  103DG     H20 2366   1.407   5.355   3.128 -0.6101 -0.4116 -0.2761
  103DG     H21 2367   1.442   5.369   2.969  0.4839  4.0178  0.0744
  103DG     H22 2368   1.422   5.574   3.128  0.8288  0.1048  0.1709
  103DG     H23 2369   1.539   5.638   3.006  0.0810 -0.6090 -1.2034
  104DG      C1 2370   3.816   2.347   5.228  0.2825 -0.0232 -0.1449
  104DG      C2 2371   3.509   2.954   5.330 -0.4319  0.7814 -0.1176
  104DG      H3 2372   3.771   2.247   5.227 -0.7227  0.4040 -1.8061
  104DG      H4 2373   3.875   2.364   5.318 -0.9709  1.9152  0.3648
  104DG      H5 2374   3.885   2.349   5.144 -0.0054 -0.1393 -0.3872
  104DG      H6 2375   3.438   2.983   5.407 -0.0560  2.2541 -0.3053
  104DG      H7 2376   3.606   2.982   5.369 -0.0115 -1.5452  0.6844
  104DG      H8 2377   3.499   3.025   5.248  0.3299  0.5095 -0.4535
  104DG      O9 2378   3.710   2.443   5.203  0.4331  0.1527  0.2874
  104DG     O10 2379   3.495   2.815   5.292  0.5460 -0.6063  0.0219
  104DG     C11 2380   3.617   2.390   5.112 -0.0272 -0.2193 -0.3050
  104DG     C12 2381   3.423   2.796   5.173 -0.3768 -0.4925  0.1645
  104DG     H13 2382   3.560   2.306   5.152  1.5322 -1.5222 -0.7606
  104DG     H14 2383   3.661   2.360   5.017  0.3814  0.8344 -0.4671
  104DG     H15 2384   3.482   2.825   5.087  1.0740  0.6282  1.4694
  104DG     H16 2385   3.336   2.861   5.170 -0.7260 -0.9903 -0.9666
  104DG     C17 2386   3.526   2.504   5.076 -0.4651 -0.5995 -0.5656
  104DG     C18 2387   3.367   2.648   5.171 -0.4384 -0.2826 -0.2006
  104DG     O19 2388   3.466   2.548   5.199 -0.6377 -0.3866  0.0133
  104DG     H20 2389   3.454   2.475   4.999 -2.5032  2.0571  0.1946
  104DG     H21 2390   3.567   2.592   5.027 -1.0933 -0.9504 -1.7833
  104DG     H22 2391   3.293   2.636   5.251 -0.5092 -1.0492 -0.3699
  104DG     H23 2392   3.310   2.631   5.079 -0.4759  2.6887 -0.8299
  105DG      C1 2393   0.957   3.829   4.809 -0.1090 -0.6586 -0.0374
  105DG      C2 2394   1.454   4.205   5.039  0.1003  0.4653  0.3149
  105DG      H3 2395   0.852   3.815   4.786 -0.1215  1.4383 -1.4644
  105DG      H4 2396   0.970   3.796   4.913 -0.3407 -2.5881 -0.5806
  105DG      H5 2397   1.017   3.773   4.737  0.6476  2.4353 -1.9517
  105DG      H6 2398   1.533   4.148   4.991  0.0276 -0.6706  1.5271
  105DG      H7 2399   1.479   4.307   5.069  0.7003  0.1381  0.9277
  105DG      H8 2400   1.437   4.132   5.117  0.9242  0.1673  0.2186
  105DG      O9 2401   0.995   3.965   4.798  0.1756 -0.0292  0.3963
  105DG     O10 2402   1.339   4.209   4.953  0.4275 -0.3648 -0.3973
  105DG     C11 2403   1.000   4.014   4.670  0.0570 -0.3056  0.7084
  105DG     C12 2404   1.362   4.287   4.839  0.5976  0.5057  0.3844
  105DG     H13 2405   0.905   4.005   4.617  0.7467  0.7840 -0.7791
  105DG     H14 2406   1.079   3.959   4.619 -1.2218 -0.0028 -1.7636
  105DG     H15 2407   1.454   4.257   4.789  0.0026 -1.7727  0.5100
  105DG     H16 2408   1.368   4.393   4.860 -1.0333  0.7454 -0.1856
  105DG     C17 2409   1.055   4.161   4.669  0.5706  0.3812  0.8087
  105DG     C18 2410   1.243   4.280   4.737  0.6188 -0.3315 -0.6097
  105DG     O19 2411   1.165   4.159   4.753 -0.3879  0.4060 -0.5957
  105DG     H20 2412   0.993   4.236   4.717 -1.2401 -0.7186  0.2993
  105DG     H21 2413   1.091   4.182   4.568 -0.1847 -1.1902  0.1688
  105DG     H22 2414   1.183   4.369   4.755  1.1252 -0.3530  1.4236
  105DG     H23 2415   1.284   4.287   4.636 -0.3262 -2.1715 -1.1658
  106DG      C1 2416   4.495   3.844   3.992 -0.4151  0.3300 -0.4178
  106DG      C2 2417   4.931   3.717   3.538  0.4011  0.1976  0.3513
  106DG      H3 2418   4.465   3.832   4.096  0.9478 -0.7051 -0.1185
  106DG      H4 2419   4.455   3.758   3.939  1.0868  0.0346 -1.1277
  106DG      H5 2420   4.450   3.929   3.940  1.5401  0.5529 -1.8598
  106DG      H6 2421   4.875   3.623   3.538 -0.4192  0.6518 -1.1454
  106DG      H7 2422   4.891   3.778   3.456  0.8912 -1.2583 -1.0309
  106DG      H8 2423   5.038   3.715   3.517  0.4327  0.3568  0.4981
  106DG      O9 2424   4.639   3.846   3.990  0.2715 -0.0980 -0.1795
  106DG     O10 2425   4.916   3.780   3.660 -0.4837  0.3493 -0.3154
  106DG     C11 2426   4.703   3.952   4.064 -0.0309 -0.1667 -0.1417
  106DG     C12 2427   4.991   3.905   3.669  0.0487  0.8108 -0.0635
  106DG     H13 2428   4.691   3.942   4.172 -1.8340  3.9227  0.2066
  106DG     H14 2429   4.660   4.045   4.026  2.6330  0.6177 -1.4898
  106DG     H15 2430   4.930   3.974   3.611 -1.5856 -0.5452 -0.0234
  106DG     H16 2431   5.092   3.886   3.635  0.3288 -1.3768  1.7343
  106DG     C17 2432   4.854   3.954   4.022  0.3921  0.3150  0.3454
  106DG     C18 2433   4.986   3.945   3.820 -0.0679  0.4421 -0.4785
  106DG     O19 2434   4.856   3.946   3.877 -0.1670  0.3929  0.9969
  106DG     H20 2435   4.919   3.874   4.059  1.0808 -0.5605 -2.5117
  106DG     H21 2436   4.908   4.046   4.046  2.2195 -0.3666 -0.8857
  106DG     H22 2437   5.046   3.869   3.869 -0.8300  1.5599  2.3446
  106DG     H23 2438   5.033   4.043   3.835 -0.6993  0.8190 -0.9102
  107DG      C1 2439   1.702   3.252   1.659 -0.4724 -0.4598 -0.6163
  107DG      C2 2440   1.874   2.714   1.369 -0.0850 -0.5674  0.2461
  107DG      H3 2441   1.691   3.307   1.565  1.0010 -0.7635 -0.9979
  107DG      H4 2442   1.720   3.316   1.745 -1.0006 -0.0262 -0.8208
  107DG      H5 2443   1.618   3.189   1.687 -2.3980  2.5698  0.9384
  107DG      H6 2444   1.856   2.696   1.263  0.7313 -0.0142  0.0043
  107DG      H7 2445   1.926   2.627   1.408  1.6285 -0.0531 -0.8023
  107DG      H8 2446   1.777   2.722   1.419 -0.3560 -0.7354 -0.2459
  107DG      O9 2447   1.825   3.166   1.654  1.0216 -0.5192 -0.5283
  107DG     O10 2448   1.929   2.837   1.412  0.2095 -0.4326  0.5487
  107DG     C11 2449   1.940   3.234   1.588 -0.2487 -0.2956 -0.0926
  107DG     C12 2450   2.067   2.859   1.378  0.2234  0.4954  0.0432
  107DG     H13 2451   1.952   3.330   1.639 -0.0216 -0.5898  0.4115
  107DG     H14 2452   1.912   3.256   1.485  0.0173  0.9023  0.0706
  107DG     H15 2453   2.076   2.845   1.271  0.4875 -0.1631  0.1506
  107DG     H16 2454   2.130   2.792   1.437 -1.9074 -1.1101  0.6199
  107DG     C17 2455   2.063   3.146   1.613  0.9273  1.0552  0.0670
  107DG     C18 2456   2.096   3.004   1.416  0.0038 -0.0385 -0.1079
  107DG     O19 2457   2.052   3.018   1.551 -0.5593 -0.0694 -0.0169
  107DG     H20 2458   2.077   3.129   1.720 -0.2295  2.1268  0.4138
  107DG     H21 2459   2.155   3.197   1.584  1.1458 -0.2177 -1.5962
  107DG     H22 2460   2.202   3.030   1.410  0.4721 -0.1960  4.1199
  107DG     H23 2461   2.049   3.084   1.360 -0.4058  1.0665  1.7341
  108DG      C1 2462   2.892   1.988   0.828  0.1440 -0.6540 -0.0351
  108DG      C2 2463   2.765   2.607   0.985 -0.5220  0.1010 -0.2650
  108DG      H3 2464   2.864   1.956   0.728  1.8462 -1.0933 -0.3951
  108DG      H4 2465   2.879   1.896   0.884 -1.9596 -0.9110 -0.8430
  108DG      H5 2466   2.998   2.013   0.831  0.3315 -1.5131  1.0451
  108DG      H6 2467   2.675   2.644   0.936 -0.4749 -1.1084 -1.3137
  108DG      H7 2468   2.789   2.679   1.063  2.8216 -0.5622 -0.5013
  108DG      H8 2469   2.836   2.599   0.902 -0.7393  1.9451 -0.6667
  108DG      O9 2470   2.818   2.095   0.881  0.1541 -0.2042  0.3585
  108DG     O10 2471   2.759   2.483   1.061  0.3521  0.4549  0.0240
  108DG     C11 2472   2.685   2.067   0.918  0.3637 -0.0826  0.8016
  108DG     C12 2473   2.640   2.442   1.127 -0.0837  0.4865  0.5361
  108DG     H13 2474   2.662   1.981   0.981 -0.8296  0.0681  0.5807
  108DG     H14 2475   2.626   2.051   0.828 -0.0238 -0.4156  1.1107
  108DG     H15 2476   2.553   2.421   1.065  0.3222  2.1420 -0.6424
  108DG     H16 2477   2.615   2.528   1.188  0.7220  1.7098 -0.8110
  108DG     C17 2478   2.637   2.190   0.996  0.3793  0.1450 -0.5306
  108DG     C18 2479   2.667   2.311   1.205  0.3153  0.3310 -0.4311
  108DG     O19 2480   2.715   2.215   1.111  0.1810  0.0698 -0.0490
  108DG     H20 2481   2.534   2.167   1.021  0.8615 -2.6690 -0.7547
  108DG     H21 2482   2.651   2.277   0.932  0.5059  1.5894  1.3568
  108DG     H22 2483   2.742   2.316   1.284 -0.3941 -2.8285  0.5655
  108DG     H23 2484   2.577   2.280   1.258  0.7885 -0.3717 -0.0362
  109DG      C1 2485   2.149   0.714   2.935  0.0389  0.4796 -0.6813
  109DG      C2 2486   2.697   1.021   3.334 -0.2192  0.7326  0.4906
  109DG      H3 2487   2.211   0.631   2.969 -0.6334  1.3236  3.0823
  109DG      H4 2488   2.121   0.719   2.830  0.0914 -3.6454 -1.0471
  109DG      H5 2489   2.060   0.711   2.998  0.9212  0.5249  0.6329
  109DG      H6 2490   2.788   0.963   3.318 -1.0346 -0.0834 -1.4911
  109DG      H7 2491   2.720   1.125   3.357 -0.0848  1.0955 -1.1379
  109DG      H8 2492   2.648   0.984   3.424 -0.3547  0.7049  0.4062
  109DG      O9 2493   2.239   0.815   2.974 -0.2439 -0.1304 -0.5334
  109DG     O10 2494   2.605   1.001   3.229  0.2371 -0.2455  0.2468
  109DG     C11 2495   2.196   0.949   2.981 -0.5237 -0.3374  0.0994
  109DG     C12 2496   2.645   1.067   3.109 -0.3989  0.3326  0.2963
  109DG     H13 2497   2.151   0.971   3.077  0.5254  0.1492  0.4980
  109DG     H14 2498   2.116   0.966   2.909  1.2139 -1.5213 -2.2949
  109DG     H15 2499   2.702   1.000   3.046 -0.2307  0.4704  0.3021
  109DG     H16 2500   2.715   1.149   3.127 -1.7203  1.6041 -0.1370
  109DG     C17 2501   2.313   1.039   2.940  0.6264 -0.2127  0.2367
  109DG     C18 2502   2.517   1.112   3.048 -0.1395  0.2282  0.7319
  109DG     O19 2503   2.420   1.009   3.027 -0.2098  0.1534  0.0940
  109DG     H20 2504   2.273   1.138   2.957  0.9576  0.0295 -0.3717
  109DG     H21 2505   2.344   1.031   2.836  1.2000  0.3906  0.3620
  109DG     H22 2506   2.477   1.190   3.112 -0.0055 -0.9612  2.3500
  109DG     H23 2507   2.539   1.152   2.949 -0.1303  0.8462  0.9762
  110DG      C1 2508   5.193   4.274   2.779  0.1639 -0.1715 -0.4086
  110DG      C2 2509   4.915   3.692   2.542 -0.3040  0.0469  0.7146
  110DG      H3 2510   5.257   4.328   2.850 -0.6595  1.3563 -0.7916
  110DG      H4 2511   5.097   4.287   2.830 -0.7749  4.2572 -2.7281
  110DG      H5 2512   5.193   4.342   2.694 -0.6762  0.0729 -0.2282
  110DG      H6 2513   4.882   3.742   2.450  0.3713 -0.1182  0.3736
  110DG      H7 2514   4.925   3.587   2.515 -0.0923 -0.2662  1.9878
  110DG      H8 2515   4.843   3.704   2.623  1.1175  0.4733  1.9484
  110DG      O9 2516   5.235   4.142   2.745  0.0497  0.6584  1.0995
  110DG     O10 2517   5.041   3.752   2.588  0.0872  0.6075 -0.4026
  110DG     C11 2518   5.304   4.068   2.841  0.6118  0.1625 -0.6640
  110DG     C12 2519   5.112   3.669   2.686 -0.2716 -0.0811 -0.6303
  110DG     H13 2520   5.248   4.068   2.934 -1.5936  0.6236 -1.9349
  110DG     H14 2521   5.393   4.127   2.865  1.7126 -1.7783  0.3098
  110DG     H15 2522   5.139   3.579   2.631  0.9298 -0.3662  0.3647
  110DG     H16 2523   5.052   3.631   2.769 -0.6218  0.5073 -0.6127
  110DG     C17 2524   5.339   3.929   2.802  0.5691  0.4478  0.6726
  110DG     C18 2525   5.248   3.731   2.734  0.2937 -0.0897  0.2350
  110DG     O19 2526   5.224   3.874   2.755 -0.2410  0.5684  0.0129
  110DG     H20 2527   5.388   3.875   2.882  0.4366 -0.5625  0.0874
  110DG     H21 2528   5.415   3.932   2.724  0.1455 -1.5059  0.1217
  110DG     H22 2529   5.275   3.689   2.831 -0.2112 -2.5634 -0.6169
  110DG     H23 2530   5.328   3.717   2.662 -0.1046  0.8359 -0.4191
  111DG      C1 2531   1.368   4.355   4.361 -0.3078 -0.1782  0.7831
  111DG      C2 2532   2.012   4.523   4.150 -1.3002  0.1244  0.1336
  111DG      H3 2533   1.401   4.264   4.412  0.8897  0.0039  0.3572
  111DG      H4 2534   1.340   4.341   4.257  1.8394  0.6482  0.0508
  111DG      H5 2535   1.279   4.400   4.405 -0.0421 -0.2436  1.4046
  111DG      H6 2536   2.102   4.584   4.163 -1.1885 -0.0281  0.0832
  111DG      H7 2537   2.037   4.417   4.146 -2.3010 -0.0908 -0.9678
  111DG      H8 2538   1.964   4.552   4.057 -0.5818  0.2666 -0.2001
  111DG      O9 2539   1.476   4.441   4.355  0.4636 -0.2286 -0.6285
  111DG     O10 2540   1.924   4.545   4.264  0.1245  0.7815  0.3012
  111DG     C11 2541   1.505   4.483   4.491  0.0581 -0.5669 -0.0047
  111DG     C12 2542   1.880   4.668   4.291  0.5126  0.6928 -0.0286
  111DG     H13 2543   1.536   4.396   4.549 -1.4563 -0.0826  1.6357
  111DG     H14 2544   1.410   4.517   4.534 -0.2859  0.6241 -1.5824
  111DG     H15 2545   1.797   4.688   4.223  0.8483  0.3018 -0.5543
  111DG     H16 2546   1.955   4.745   4.274  0.4337  0.8867  0.4884
  111DG     C17 2547   1.608   4.602   4.505  0.7027  0.7240  0.8464
  111DG     C18 2548   1.812   4.678   4.429  0.6995  0.1292 -0.2770
  111DG     O19 2549   1.713   4.576   4.418  0.0034 -0.1056 -0.0319
  111DG     H20 2550   1.631   4.601   4.612  0.0602 -1.2145  1.0053
  111DG     H21 2551   1.558   4.693   4.472 -2.0744 -1.1737 -0.5688
  111DG     H22 2552   1.885   4.671   4.509  2.1034  0.4058 -1.4758
  111DG     H23 2553   1.771   4.777   4.450  0.2871 -0.1906  0.4433
  112DG      C1 2554   3.722   5.000   1.729 -0.1747 -0.0356  0.1834
  112DG      C2 2555   3.777   4.393   1.606 -0.3670  0.1458  0.1953
  112DG      H3 2556   3.801   4.982   1.802 -1.5176  1.4240  2.0769
  112DG      H4 2557   3.632   4.955   1.770 -0.6489  0.5346 -0.2165
  112DG      H5 2558   3.715   5.108   1.734 -0.4409 -0.0914  1.0494
  112DG      H6 2559   3.844   4.383   1.692 -2.0639  0.9025  1.6767
  112DG      H7 2560   3.682   4.423   1.651  0.2561 -0.7450  2.2101
  112DG      H8 2561   3.758   4.302   1.550  0.8511 -0.0339  0.0578
  112DG      O9 2562   3.758   4.949   1.603  0.4823 -0.0788 -0.2338
  112DG     O10 2563   3.803   4.510   1.531 -0.0009  0.5178  0.5354
  112DG     C11 2564   3.663   4.972   1.496  0.1666 -0.0553  0.2371
  112DG     C12 2565   3.733   4.508   1.404 -0.0607  0.1559 -0.1691
  112DG     H13 2566   3.674   5.075   1.461  0.8077 -0.8804 -2.1748
  112DG     H14 2567   3.562   4.942   1.524  0.2039 -2.7120 -2.1212
  112DG     H15 2568   3.629   4.476   1.412 -1.0498  3.3433  1.7766
  112DG     H16 2569   3.793   4.445   1.339  1.1382  1.7344 -0.6583
  112DG     C17 2570   3.699   4.881   1.381  0.0369 -0.1620 -0.2347
  112DG     C18 2571   3.746   4.647   1.338  0.5523 -0.0746 -0.0175
  112DG     O19 2572   3.709   4.746   1.434  0.1221 -0.2963 -1.1732
  112DG     H20 2573   3.796   4.912   1.343  0.2263  0.8152  0.9898
  112DG     H21 2574   3.628   4.886   1.298 -1.1532 -0.5673  0.7220
  112DG     H22 2575   3.849   4.660   1.305  0.6432  1.2772  0.7276
  112DG     H23 2576   3.685   4.657   1.248  1.4215  0.6639 -0.5395
  113DG      C1 2577   0.363   4.802   5.418 -0.4172 -0.6042  0.3650
  113DG      C2 2578   0.579   5.099   4.817  0.5970 -0.1103  0.3503
  113DG      H3 2579   0.303   4.712   5.419 -0.4298 -0.6246 -0.8641
  113DG      H4 2580   0.292   4.882   5.438 -0.6776 -0.5837 -0.6088
  113DG      H5 2581   0.441   4.782   5.492  1.3746 -2.4195 -1.8804
  113DG      H6 2582   0.502   5.172   4.841  1.3218  0.4392  1.0268
  113DG      H7 2583   0.663   5.166   4.804  0.6336 -0.3304 -0.6308
  113DG      H8 2584   0.547   5.033   4.737 -0.7102 -0.2434  0.9528
  113DG      O9 2585   0.418   4.812   5.291 -0.1993  0.5162  0.0640
  113DG     O10 2586   0.615   5.034   4.941 -0.1687 -0.8464  0.4021
  113DG     C11 2587   0.487   4.692   5.240  0.1017  0.1420 -0.1635
  113DG     C12 2588   0.704   4.927   4.914 -0.4356  0.3666  0.1602
  113DG     H13 2589   0.423   4.672   5.155 -1.0053 -2.7517  1.2133
  113DG     H14 2590   0.481   4.611   5.313  0.2540  0.4141  0.1569
  113DG     H15 2591   0.796   4.957   4.863 -0.5533  0.7019  0.1503
  113DG     H16 2592   0.660   4.862   4.839  0.0464  0.8845 -0.5849
  113DG     C17 2593   0.629   4.726   5.203 -0.2361 -0.4394 -1.2346
  113DG     C18 2594   0.748   4.842   5.038 -0.6879 -0.1084 -0.1238
  113DG     O19 2595   0.631   4.830   5.111  0.1459  0.1307  0.5665
  113DG     H20 2596   0.669   4.639   5.150 -1.4734 -0.6856 -1.8121
  113DG     H21 2597   0.696   4.747   5.286  1.0135  0.8758 -2.5098
  113DG     H22 2598   0.780   4.742   5.008  0.5175  0.3350 -0.3758
  113DG     H23 2599   0.830   4.887   5.093 -0.8006 -2.5436  2.2757
  114DG      C1 2600   0.446   3.730   4.885  0.0326  0.2842  0.0757
  114DG      C2 2601   0.457   3.182   4.799  0.4405  0.3215  0.1029
  114DG      H3 2602   0.508   3.729   4.795 -1.2711  1.6218 -0.8718
  114DG      H4 2603   0.443   3.834   4.917 -0.0561  0.0665  0.7907
  114DG      H5 2604   0.347   3.702   4.849  0.1536  0.1205 -0.1373
  114DG      H6 2605   0.386   3.148   4.724  0.4268  0.8547 -0.1311
  114DG      H7 2606   0.549   3.205   4.745  1.6023 -1.4147  1.2654
  114DG      H8 2607   0.484   3.092   4.855 -0.5993 -0.7344 -1.0508
  114DG      O9 2608   0.496   3.631   4.973 -0.3547 -0.3918 -0.5911
  114DG     O10 2609   0.406   3.294   4.870 -0.3112  0.5827  0.0138
  114DG     C11 2610   0.432   3.647   5.104 -0.5465  0.5129 -0.1395
  114DG     C12 2611   0.306   3.265   4.966  0.8325  0.0850  0.1023
  114DG     H13 2612   0.327   3.674   5.096 -0.5588  0.1726 -1.2607
  114DG     H14 2613   0.481   3.731   5.154 -1.5547  0.1727  1.4814
  114DG     H15 2614   0.324   3.179   5.032 -1.1947 -1.4030 -1.1639
  114DG     H16 2615   0.210   3.261   4.914  0.0789  0.8229  1.3720
  114DG     C17 2616   0.437   3.519   5.183 -0.3023 -0.1003  0.2204
  114DG     C18 2617   0.295   3.386   5.051  1.0195  0.5740  0.1718
  114DG     O19 2618   0.425   3.410   5.090  0.4917 -0.4840  0.6631
  114DG     H20 2619   0.378   3.508   5.274  1.4002 -4.9148  1.0391
  114DG     H21 2620   0.537   3.508   5.224  0.0438  1.6095 -0.1223
  114DG     H22 2621   0.258   3.463   4.984 -1.0890  1.0058  1.7282
  114DG     H23 2622   0.225   3.380   5.135 -1.4657 -1.5673 -1.8691
  115DG      C1 2623   2.534   4.729   1.939 -0.1036 -0.4654  0.4085
  115DG      C2 2624   2.989   4.386   1.698  0.0776 -0.0922 -0.3662
  115DG      H3 2625   2.616   4.725   2.011 -0.9282 -2.3307  1.3104
  115DG      H4 2626   2.476   4.643   1.972  1.1206 -0.3428  3.1597
  115DG      H5 2627   2.459   4.806   1.956 -0.1309 -0.5645  0.7483
  115DG      H6 2628   3.033   4.334   1.613 -2.1123 -0.8695 -1.0984
  115DG      H7 2629   3.057   4.462   1.736 -1.2081  1.1792 -0.5318
  115DG      H8 2630   2.977   4.305   1.770 -0.0335  0.0164 -0.2627
  115DG      O9 2631   2.580   4.721   1.801 -0.0036  0.1652  0.3076
  115DG     O10 2632   2.867   4.457   1.668 -0.0180  0.2341  0.2140
  115DG     C11 2633   2.478   4.696   1.702  0.0166 -0.1625  0.5225
  115DG     C12 2634   2.774   4.385   1.582 -0.7735 -0.2340 -0.5212
  115DG     H13 2635   2.409   4.780   1.702 -0.5558 -0.5906  1.9302
  115DG     H14 2636   2.419   4.607   1.725  0.3546 -0.6730 -0.5297
  115DG     H15 2637   2.758   4.292   1.635 -2.5341  1.2658  1.7471
  115DG     H16 2638   2.809   4.380   1.478  0.1936  0.6970 -0.2577
  115DG     C17 2639   2.538   4.676   1.562 -0.5192 -0.9434 -0.7130
  115DG     C18 2640   2.634   4.453   1.592 -0.2270  0.1979 -0.4696
  115DG     O19 2641   2.655   4.596   1.566 -0.1315  0.1423 -0.4853
  115DG     H20 2642   2.585   4.766   1.520  1.4415 -1.5228  0.1298
  115DG     H21 2643   2.456   4.647   1.496 -0.9487  0.0390 -0.6293
  115DG     H22 2644   2.570   4.403   1.519 -1.1358  0.7617 -0.0732
  115DG     H23 2645   2.593   4.423   1.689 -0.5486  0.0932 -0.6348
  116DG      C1 2646   2.296   3.884   0.854 -0.0808 -0.0580  0.2262
  116DG      C2 2647   2.611   4.370   1.213 -0.2067  0.3012 -0.0822
  116DG      H3 2648   2.298   3.964   0.781  0.2065 -1.4362 -1.3444
  116DG      H4 2649   2.210   3.882   0.921 -2.2347 -1.8058 -2.3816
  116DG      H5 2650   2.309   3.792   0.795 -1.5244 -0.8145  1.0388
  116DG      H6 2651   2.660   4.386   1.309 -0.7656 -0.6432  0.3785
  116DG      H7 2652   2.660   4.413   1.126  0.6890 -0.2147  0.1511
  116DG      H8 2653   2.509   4.409   1.216 -0.1122  0.5415  0.0009
  116DG      O9 2654   2.407   3.907   0.944  0.1273 -0.0557 -0.0551
  116DG     O10 2655   2.591   4.234   1.196  0.2000 -0.3754 -0.1039
  116DG     C11 2656   2.405   3.814   1.054 -0.5549 -0.2697 -0.7305
  116DG     C12 2657   2.719   4.154   1.193  0.1226 -0.0348  0.2308
  116DG     H13 2658   2.400   3.714   1.012 -0.7591  0.3537 -2.2611
  116DG     H14 2659   2.315   3.829   1.115  0.2398  1.0875  0.1638
  116DG     H15 2660   2.798   4.187   1.261 -0.4575 -1.8207  1.8686
  116DG     H16 2661   2.764   4.177   1.097 -0.3464  0.2905  0.0846
  116DG     C17 2662   2.522   3.843   1.146  0.9315 -0.9433  0.0913
  116DG     C18 2663   2.677   4.007   1.197  0.2757 -0.8958  0.2165
  116DG     O19 2664   2.549   3.980   1.148 -0.1362 -0.2524  0.1898
  116DG     H20 2665   2.612   3.794   1.108  1.7309  0.4942  0.0511
  116DG     H21 2666   2.503   3.813   1.249  1.5157  2.5889  1.3835
  116DG     H22 2667   2.747   3.953   1.132  0.9243 -1.2013  1.1454
  116DG     H23 2668   2.671   3.982   1.303 -2.8864  3.9195  1.4541
  117DG      C1 2669   4.887   5.352   0.412  0.4016  0.1663  0.5927
  117DG      C2 2670   4.769   5.350   1.052 -0.4749  0.2801  0.2392
  117DG      H3 2671   4.790   5.305   0.391  1.6516 -1.6592 -1.5446
  117DG      H4 2672   4.958   5.269   0.408 -0.7749 -0.8640  0.0195
  117DG      H5 2673   4.897   5.407   0.318 -2.4699  1.0879  0.7297
  117DG      H6 2674   4.723   5.400   1.137 -2.5896  2.7513 -2.1243
  117DG      H7 2675   4.694   5.282   1.012  2.1088 -1.8841 -1.1746
  117DG      H8 2676   4.860   5.296   1.076  0.3215  0.9937 -1.0258
  117DG      O9 2677   4.872   5.437   0.525  0.2973 -0.2204  0.7196
  117DG     O10 2678   4.784   5.447   0.950  0.2278  0.7928 -0.3979
  117DG     C11 2679   4.983   5.527   0.542  0.3016 -0.1339  0.0668
  117DG     C12 2680   4.862   5.556   0.992 -0.7373 -0.4494 -0.0217
  117DG     H13 2681   5.010   5.571   0.446 -1.5772 -2.2851 -1.5412
  117DG     H14 2682   5.075   5.481   0.578 -0.2131 -0.2565  1.2846
  117DG     H15 2683   4.949   5.510   1.038 -2.1443 -1.4938  1.7409
  117DG     H16 2684   4.815   5.618   1.068  0.4734  0.6043 -0.0918
  117DG     C17 2685   4.948   5.635   0.640 -0.0193 -0.6327  0.0211
  117DG     C18 2686   4.892   5.646   0.868 -0.2521  0.1342 -0.0458
  117DG     O19 2687   4.942   5.568   0.765  0.4496  0.9968 -0.4965
  117DG     H20 2688   4.861   5.696   0.618  0.1118 -0.2797  0.4809
  117DG     H21 2689   5.026   5.711   0.641 -0.9856  0.3861  1.9106
  117DG     H22 2690   4.801   5.696   0.837  0.3841  3.0466  2.3556
  117DG     H23 2691   4.955   5.732   0.888 -1.2393  0.9123 -0.2094
  118DG      C1 2692   2.995   3.686   2.488 -0.3878 -0.0784 -0.3677
  118DG      C2 2693   3.412   3.158   2.709 -0.2520  0.1996 -0.0887
  118DG      H3 2694   2.941   3.616   2.424  0.7133 -1.3198 -0.0085
  118DG      H4 2695   2.972   3.790   2.466 -2.2139 -0.6640 -1.4413
  118DG      H5 2696   2.955   3.683   2.590 -0.6084  3.2600 -0.2607
  118DG      H6 2697   3.325   3.150   2.776 -1.7056  1.9838 -1.6341
  118DG      H7 2698   3.389   3.094   2.624  1.1316 -2.6535  1.5679
  118DG      H8 2699   3.505   3.106   2.732  0.0735  0.2260 -1.2913
  118DG      O9 2700   3.128   3.641   2.507 -0.5353 -1.2017  0.3452
  118DG     O10 2701   3.430   3.293   2.664  0.1621 -0.2637 -0.1176
  118DG     C11 2702   3.209   3.666   2.390  0.0443  0.3374 -0.5356
  118DG     C12 2703   3.501   3.291   2.534 -0.6449  0.2975  0.1352
  118DG     H13 2704   3.218   3.771   2.363  3.1821  0.7128  1.4557
  118DG     H14 2705   3.159   3.617   2.306 -0.1062 -0.5192  0.0442
  118DG     H15 2706   3.475   3.214   2.461 -1.3264  1.1080 -0.4928
  118DG     H16 2707   3.602   3.268   2.569  0.4457 -0.0041 -2.8870
  118DG     C17 2708   3.355   3.612   2.412  0.2213  0.0792 -0.1933
  118DG     C18 2709   3.493   3.433   2.472  0.2504  0.3492  0.6200
  118DG     O19 2710   3.357   3.475   2.459  0.6368 -0.1037 -0.2151
  118DG     H20 2711   3.408   3.672   2.486 -1.7220  1.9479 -0.2127
  118DG     H21 2712   3.410   3.631   2.320  0.0612 -1.5351 -0.6504
  118DG     H22 2713   3.548   3.497   2.541 -1.0131  0.5131  1.4949
  118DG     H23 2714   3.551   3.437   2.380 -0.5462 -0.5589  0.0661
  119DG      C1 2715   4.295   5.497   3.411 -0.5383  0.5741 -0.0125
  119DG      C2 2716   4.876   6.006   3.914  0.5319 -0.4837  0.0973
  119DG      H3 2717   4.234   5.457   3.492 -0.6100  2.1463  0.7435
  119DG      H4 2718   4.350   5.423   3.353 -1.3589 -1.3075  1.5314
  119DG      H5 2719   4.225   5.544   3.342 -0.1413 -0.2647 -1.0038
  119DG      H6 2720   4.830   5.998   4.012  2.2867 -2.8838  0.8346
  119DG      H7 2721   4.981   6.024   3.940  0.2024  0.4313  0.8215
  119DG      H8 2722   4.842   6.097   3.865 -0.2709 -1.6569 -1.6637
  119DG      O9 2723   4.387   5.596   3.462 -0.0303  0.6965  0.0114
  119DG     O10 2724   4.862   5.901   3.817 -0.0421 -0.9224 -0.1910
  119DG     C11 2725   4.476   5.539   3.561  0.1577 -0.6858  0.0389
  119DG     C12 2726   4.730   5.866   3.781  0.3490  0.0711 -0.0099
  119DG     H13 2727   4.500   5.434   3.546 -0.5081 -1.2464  2.4395
  119DG     H14 2728   4.424   5.543   3.657  0.0504 -2.9710  0.1185
  119DG     H15 2729   4.677   5.949   3.734 -2.1873 -1.2277  0.3791
  119DG     H16 2730   4.664   5.829   3.860 -2.1583  1.9338 -1.0769
  119DG     C17 2731   4.615   5.605   3.562 -0.1640  0.3480 -0.1763
  119DG     C18 2732   4.751   5.765   3.673 -0.0102 -0.3965  0.5796
  119DG     O19 2733   4.614   5.714   3.648  0.8789 -0.3469 -0.2178
  119DG     H20 2734   4.643   5.634   3.461  0.3657  0.4437 -0.0029
  119DG     H21 2735   4.683   5.524   3.590 -1.2823 -0.2194  1.0157
  119DG     H22 2736   4.790   5.805   3.580  1.2315  0.7782  1.5777
  119DG     H23 2737   4.813   5.681   3.704  1.8043  0.4769 -0.5449
  120DG      C1 2738   5.424   0.576   3.010  0.4863  0.0441  0.2179
  120DG      C2 2739   5.685   1.103   3.156 -0.5528  0.7270 -0.7775
  120DG      H3 2740   5.367   0.496   2.962  0.1146 -0.2086  1.0626
  120DG      H4 2741   5.426   0.560   3.117  0.6971 -1.8917 -0.0329
  120DG      H5 2742   5.528   0.564   2.981  1.1959  0.8309  2.3247
  120DG      H6 2743   5.708   1.125   3.260 -0.1056 -0.0003 -0.7134
  120DG      H7 2744   5.756   1.021   3.142  0.4162  1.4893 -0.3794
  120DG      H8 2745   5.723   1.186   3.097  3.5269  1.4201  2.3606
  120DG      O9 2746   5.373   0.708   2.971 -0.1437 -0.1140  0.0440
  120DG     O10 2747   5.553   1.053   3.136 -0.7013  0.4120 -0.2784
  120DG     C11 2748   5.240   0.731   3.021 -0.4699 -0.0013 -0.5308
  120DG     C12 2749   5.445   1.122   3.194 -0.5844  0.0284  0.4690
  120DG     H13 2750   5.230   0.694   3.123  0.9753 -0.9127 -0.6855
  120DG     H14 2751   5.160   0.678   2.971 -0.1677 -2.1978  1.1719
  120DG     H15 2752   5.452   1.229   3.175  1.6773 -0.1899 -0.1785
  120DG     H16 2753   5.431   1.118   3.302 -1.5130  1.7829  0.4419
  120DG     C17 2754   5.212   0.882   3.024 -0.8255  0.3036 -0.4527
  120DG     C18 2755   5.311   1.076   3.125 -0.6942 -0.1582  0.1783
  120DG     O19 2756   5.322   0.935   3.095  0.2622 -0.2271  0.3725
  120DG     H20 2757   5.124   0.903   3.086  0.0049  2.2154  0.1391
  120DG     H21 2758   5.218   0.934   2.929  1.6948  0.9857  0.0157
  120DG     H22 2759   5.219   1.097   3.180 -1.3034 -1.8496 -0.1256
  120DG     H23 2760   5.282   1.136   3.039  0.5646  1.0858  0.5907
  121DG      C1 2761   3.104   3.769   0.493  0.0024  0.3689 -0.4242
  121DG      C2 2762   2.960   3.615   1.131 -0.5120  0.4539 -0.0730
  121DG      H3 2763   3.147   3.859   0.537 -2.0268  0.0965  2.4328
  121DG      H4 2764   3.066   3.788   0.393 -1.9700 -1.2737 -0.0600
  121DG      H5 2765   3.185   3.695   0.491  1.4489  1.8244 -3.8502
  121DG      H6 2766   2.892   3.620   1.216 -1.0099 -0.9406 -0.3663
  121DG      H7 2767   3.008   3.520   1.152 -0.0832  0.4243 -1.1619
  121DG      H8 2768   3.031   3.697   1.137 -2.9205  2.8342 -1.5951
  121DG      O9 2769   2.996   3.733   0.577 -0.0607 -0.5679 -0.0249
  121DG     O10 2770   2.898   3.632   1.002 -0.0352  0.4691 -0.4933
  121DG     C11 2771   2.942   3.610   0.533  0.3021  0.7123  0.3397
  121DG     C12 2772   2.794   3.543   0.981 -0.4451  0.1746 -0.1075
  121DG     H13 2773   3.013   3.529   0.541 -1.3927 -0.7400  1.3850
  121DG     H14 2774   2.928   3.619   0.425 -0.1094 -1.4608  0.1716
  121DG     H15 2775   2.721   3.565   1.060  0.5674 -0.1437  0.9354
  121DG     H16 2776   2.827   3.441   0.996  4.2207  1.4214 -0.3725
  121DG     C17 2777   2.807   3.583   0.618 -0.2765  0.1090 -0.1541
  121DG     C18 2778   2.734   3.566   0.841 -0.7383 -0.9539  0.3977
  121DG     O19 2779   2.841   3.562   0.751  0.2771  0.1199  0.3141
  121DG     H20 2780   2.765   3.490   0.580  1.3502 -0.7549  0.0590
  121DG     H21 2781   2.737   3.665   0.606 -0.4321 -0.0766 -0.5373
  121DG     H22 2782   2.666   3.484   0.817 -3.2943  1.3909 -0.9970
  121DG     H23 2783   2.693   3.666   0.835  2.6613  0.4682 -2.1311
  122DG      C1 2784   4.093   1.516   5.423  0.0169 -0.0225 -0.0385
  122DG      C2 2785   3.962   0.849   5.070  0.2711  0.6576  0.4056
  122DG      H3 2786   4.178   1.575   5.457 -0.1049  1.4412 -2.0802
  122DG      H4 2787   4.026   1.469   5.495 -1.8276  0.5910 -1.2797
  122DG      H5 2788   4.038   1.571   5.346  0.0049 -0.4786 -0.3593
  122DG      H6 2789   3.982   0.743   5.085 -1.0134  0.6043  2.0254
  122DG      H7 2790   3.865   0.870   5.115  0.4645 -0.8355  1.5825
  122DG      H8 2791   3.948   0.870   4.964  2.1146 -1.1416 -0.2701
  122DG      O9 2792   4.156   1.423   5.336 -0.6956 -0.7163 -1.1952
  122DG     O10 2793   4.062   0.933   5.106  0.3755  0.3121 -0.1315
  122DG     C11 2794   4.242   1.334   5.409  0.2419 -0.2831 -0.1158
  122DG     C12 2795   4.045   1.075   5.088  0.0379  0.2439 -0.4646
  122DG     H13 2796   4.197   1.282   5.493  1.8610 -2.2832 -0.4226
  122DG     H14 2797   4.330   1.388   5.444 -0.2169  0.5918 -0.2760
  122DG     H15 2798   3.952   1.101   5.139  0.1355 -1.6660  0.7506
  122DG     H16 2799   4.029   1.098   4.982 -0.0128 -0.4538 -0.6153
  122DG     C17 2800   4.294   1.225   5.317  0.3391 -0.1001  0.2094
  122DG     C18 2801   4.172   1.158   5.138 -0.0822 -0.1247  0.0313
  122DG     O19 2802   4.195   1.135   5.273  0.2357 -0.0698  0.3435
  122DG     H20 2803   4.374   1.167   5.362 -0.2853 -1.2885 -0.1800
  122DG     H21 2804   4.345   1.279   5.238  1.1593  0.9214  1.3904
  122DG     H22 2805   4.257   1.126   5.077 -2.0593 -1.7932 -2.0193
  122DG     H23 2806   4.157   1.263   5.114 -0.2533 -0.4013 -1.1321
  123DG      C1 2807   4.938   1.272   4.376  0.1700  0.0666  0.1760
  123DG      C2 2808   5.497   0.885   4.368 -0.6251  0.1774 -0.4642
  123DG      H3 2809   4.947   1.356   4.307  2.0139  0.0344  0.3089
  123DG      H4 2810   4.866   1.290   4.455 -2.1814  1.1642 -2.0855
  123DG      H5 2811   4.905   1.180   4.328  0.3938 -0.3029  0.7133
  123DG      H6 2812   5.435   0.806   4.324  1.4079 -0.5140 -2.2499
  123DG      H7 2813   5.520   0.946   4.280 -0.9886  0.5087 -0.3308
  123DG      H8 2814   5.591   0.847   4.406  0.3596  2.5569 -0.3770
  123DG      O9 2815   5.057   1.242   4.442 -0.2779 -0.1756  0.4308
  123DG     O10 2816   5.426   0.957   4.470 -0.3843 -0.3196 -0.0509
  123DG     C11 2817   5.129   1.351   4.490 -0.3241  0.5702  0.2957
  123DG     C12 2818   5.490   1.075   4.522  0.5041  0.5694 -0.5197
  123DG     H13 2819   5.063   1.432   4.520 -0.2817  0.1911  1.4678
  123DG     H14 2820   5.188   1.387   4.406  0.8472 -0.4677  0.6403
  123DG     H15 2821   5.527   1.133   4.437 -0.1805 -0.1184 -1.3006
  123DG     H16 2822   5.581   1.049   4.576 -0.6103  2.1060  2.2522
  123DG     C17 2823   5.218   1.301   4.606 -0.2402 -0.5650 -0.0798
  123DG     C18 2824   5.415   1.170   4.617  0.2585  0.5491  1.0380
  123DG     O19 2825   5.283   1.184   4.564 -0.6466 -0.1851  0.4725
  123DG     H20 2826   5.154   1.279   4.692  0.0925  0.5528  0.4776
  123DG     H21 2827   5.285   1.386   4.623 -1.9880  1.0176 -0.7123
  123DG     H22 2828   5.407   1.129   4.718 -1.5803  0.7832  1.0273
  123DG     H23 2829   5.472   1.263   4.620  1.0320  0.2209 -1.4444
  124DG      C1 2830   1.992   0.279   4.527  0.7970 -0.3486  0.4763
  124DG      C2 2831   1.864   0.653   4.897  0.2459 -0.0722 -1.0225
  124DG      H3 2832   1.976   0.172   4.526 -2.5146  0.0541 -0.3442
  124DG      H4 2833   2.070   0.294   4.602  0.1923 -0.2487  1.0895
  124DG      H5 2834   2.029   0.325   4.435  0.3988  0.3753  0.6701
  124DG      H6 2835   1.842   0.549   4.874 -0.4048 -0.2662  0.3710
  124DG      H7 2836   1.968   0.653   4.928  1.1861  1.8809 -3.7155
  124DG      H8 2837   1.795   0.693   4.972 -2.2791 -1.9031 -2.1975
  124DG      O9 2838   1.881   0.359   4.581 -0.1779 -0.9428 -0.0223
  124DG     O10 2839   1.856   0.730   4.779 -0.1637 -0.4861 -0.1466
  124DG     C11 2840   1.751   0.354   4.516  0.2553  0.9739  0.2708
  124DG     C12 2841   1.718   0.762   4.749  0.0768 -0.1153  1.0212
  124DG     H13 2842   1.727   0.253   4.483 -0.1049  2.1196 -3.4083
  124DG     H14 2843   1.759   0.396   4.416 -1.9409 -1.2140 -0.9080
  124DG     H15 2844   1.708   0.829   4.664 -0.1958  1.1574  2.0316
  124DG     H16 2845   1.679   0.829   4.825  0.9778  0.5655  0.8925
  124DG     C17 2846   1.648   0.428   4.605  0.4528 -0.3006  0.0111
  124DG     C18 2847   1.634   0.634   4.717  0.7795  0.2678 -0.2278
  124DG     O19 2848   1.698   0.562   4.620  0.5193  0.6275 -0.1171
  124DG     H20 2849   1.607   0.370   4.688 -0.0529 -0.1676 -0.1415
  124DG     H21 2850   1.562   0.450   4.542  1.2544  0.5985 -0.7926
  124DG     H22 2851   1.622   0.572   4.806  1.2667  0.7970  0.2216
  124DG     H23 2852   1.534   0.647   4.676  1.4686  0.1589 -2.0161
  125DG      C1 2853   1.359   1.141   3.416  0.4512 -0.4284 -0.2721
  125DG      C2 2854   0.867   1.598   3.368  1.0015  0.5878 -0.0189
  125DG      H3 2855   1.455   1.178   3.378 -0.7477 -0.2766 -3.4067
  125DG      H4 2856   1.297   1.124   3.328 -0.3710 -1.4157  0.4833
  125DG      H5 2857   1.370   1.055   3.482  0.1383 -0.3273 -0.0902
  125DG      H6 2858   0.897   1.686   3.312 -0.1866  1.1125  0.1317
  125DG      H7 2859   0.853   1.524   3.289 -0.0562  0.7867 -0.0412
  125DG      H8 2860   0.774   1.622   3.420  0.7888  2.0388 -0.9925
  125DG      O9 2861   1.285   1.242   3.500 -0.8168  0.1003  0.9502
  125DG     O10 2862   0.956   1.542   3.462  0.4580  0.3094  0.1529
  125DG     C11 2863   1.359   1.284   3.607  0.1886 -0.4702 -0.2273
  125DG     C12 2864   1.044   1.644   3.516  0.1479  0.7805 -0.1299
  125DG     H13 2865   1.451   1.333   3.575 -1.7463  1.6946 -3.0714
  125DG     H14 2866   1.394   1.204   3.671 -1.6062 -0.1677  1.2200
  125DG     H15 2867   0.980   1.719   3.564 -0.4957  0.3543 -0.3015
  125DG     H16 2868   1.105   1.694   3.441 -1.5154 -1.1508 -2.9933
  125DG     C17 2869   1.270   1.385   3.677 -0.0012 -0.7383  0.1658
  125DG     C18 2870   1.138   1.583   3.619 -0.2815 -0.5043 -0.1757
  125DG     O19 2871   1.206   1.464   3.575 -0.2550  0.4096 -0.2292
  125DG     H20 2872   1.323   1.457   3.740 -0.9625  1.0738 -1.0129
  125DG     H21 2873   1.190   1.346   3.740 -2.1747 -0.0811 -2.0487
  125DG     H22 2874   1.209   1.662   3.645  0.3371 -0.3948 -2.0133
  125DG     H23 2875   1.076   1.554   3.703 -0.6776 -1.3588 -0.7514
  126DG      C1 2876   3.258   3.804   2.739 -0.4678  0.0263  0.2344
  126DG      C2 2877   3.049   3.209   2.914  0.5695 -0.8430 -0.1699
  126DG      H3 2878   3.187   3.790   2.820  0.6191  0.2984  1.2606
  126DG      H4 2879   3.202   3.844   2.655 -0.9271 -0.6244  0.2220
  126DG      H5 2880   3.324   3.884   2.772  1.6760 -0.6953 -1.9599
  126DG      H6 2881   3.131   3.217   2.985 -0.2139 -3.3082  1.1077
  126DG      H7 2882   2.965   3.193   2.982  2.0072 -0.4247  1.7764
  126DG      H8 2883   3.075   3.115   2.866  1.8697 -0.2522 -0.6698
  126DG      O9 2884   3.321   3.681   2.704 -0.1749  0.3658 -0.2327
  126DG     O10 2885   3.033   3.321   2.824 -0.8065 -0.0180 -0.0167
  126DG     C11 2886   3.414   3.627   2.802  0.0519 -0.5229 -0.2675
  126DG     C12 2887   2.991   3.438   2.892 -0.0544 -0.8437 -0.0691
  126DG     H13 2888   3.493   3.694   2.834 -0.2356 -0.4962  0.4117
  126DG     H14 2889   3.460   3.541   2.753  0.1587 -1.2805  1.1046
  126DG     H15 2890   2.906   3.414   2.956  0.4837 -2.9016 -0.0690
  126DG     H16 2891   2.955   3.511   2.818  0.4198  0.8769  1.3323
  126DG     C17 2892   3.331   3.589   2.921  0.0401 -0.4606 -0.5868
  126DG     C18 2893   3.104   3.517   2.963  0.3490 -0.5636 -0.1757
  126DG     O19 2894   3.212   3.540   2.868 -0.2026  0.1044 -0.1550
  126DG     H20 2895   3.318   3.684   2.971  1.2965 -1.4088  1.6813
  126DG     H21 2896   3.377   3.526   2.997  0.7401  2.2822  1.4226
  126DG     H22 2897   3.074   3.615   3.000  1.1714 -1.0044  1.7585
  126DG     H23 2898   3.142   3.459   3.047  1.1671  2.0188  1.3783
  127DG      C1 2899   5.090   0.190   4.565 -0.0667 -0.7921  0.0910
  127DG      C2 2900   4.457   0.332   4.760 -0.6997 -0.2341 -0.5281
  127DG      H3 2901   5.198   0.193   4.560 -0.0612 -2.2123 -3.4103
  127DG      H4 2902   5.066   0.245   4.474  1.8750 -2.7109 -1.6881
  127DG      H5 2903   5.063   0.084   4.557 -2.7153 -0.1310 -0.9371
  127DG      H6 2904   4.396   0.267   4.823 -2.0818  1.2553 -0.2817
  127DG      H7 2905   4.410   0.430   4.763 -1.8884 -0.7882 -0.4510
  127DG      H8 2906   4.437   0.293   4.660 -0.0705  0.0621 -0.7722
  127DG      O9 2907   5.019   0.249   4.677 -0.2061 -0.5521 -0.5006
  127DG     O10 2908   4.597   0.337   4.789  0.6042 -0.4478  0.5401
  127DG     C11 2909   5.066   0.382   4.711 -0.4133  0.4531  0.2204
  127DG     C12 2910   4.623   0.439   4.890 -0.0740  0.1395  0.6403
  127DG     H13 2911   5.058   0.452   4.629 -0.3310 -2.0308 -2.0366
  127DG     H14 2912   5.170   0.379   4.745 -0.3142  2.4700  0.1833
  127DG     H15 2913   4.559   0.411   4.974  0.0241 -1.5935  0.1619
  127DG     H16 2914   4.609   0.543   4.862 -0.9179 -0.1946 -0.2195
  127DG     C17 2915   4.986   0.433   4.833 -0.4797 -0.5328 -0.1602
  127DG     C18 2916   4.773   0.433   4.932 -0.7875 -0.6395 -0.2945
  127DG     O19 2917   4.843   0.448   4.809  0.3767 -0.3011  0.0745
  127DG     H20 2918   5.022   0.531   4.862  2.2997 -1.5547  0.1728
  127DG     H21 2919   5.003   0.360   4.912 -0.3761 -0.4887 -0.1417
  127DG     H22 2920   4.802   0.509   5.004  0.3829 -0.4940 -0.8810
  127DG     H23 2921   4.798   0.335   4.973  1.1520 -0.2605 -0.4626
  128DG      C1 2922   4.351   3.893   1.036  0.9047 -0.0926 -0.0922
  128DG      C2 2923   4.451   3.438   0.710 -0.6096 -0.1348  0.1984
  128DG      H3 2924   4.379   3.911   1.140 -0.8821 -1.0670  0.6116
  128DG      H4 2925   4.350   3.994   0.997 -0.4085  0.3631  1.0453
  128DG      H5 2926   4.426   3.829   0.990  2.5455  0.8212  1.2098
  128DG      H6 2927   4.523   3.356   0.702  0.7645  1.1327 -1.4404
  128DG      H7 2928   4.355   3.410   0.668  0.2166 -2.0556 -0.5140
  128DG      H8 2929   4.495   3.526   0.661 -1.0345  1.5315  2.6436
  128DG      O9 2930   4.231   3.817   0.997  0.1140  0.4511 -0.0773
  128DG     O10 2931   4.439   3.470   0.844 -0.2192  0.9227 -0.7131
  128DG     C11 2932   4.181   3.750   1.116 -0.6339 -0.3670  0.7907
  128DG     C12 2933   4.378   3.366   0.925  0.2279 -0.5207  0.2787
  128DG     H13 2934   4.084   3.712   1.083 -2.2523  1.8963  2.6540
  128DG     H14 2935   4.175   3.810   1.206  1.9312 -0.8365  1.3468
  128DG     H15 2936   4.451   3.285   0.931 -0.2413 -0.9529  0.2257
  128DG     H16 2937   4.296   3.321   0.869 -0.1923  1.8496 -1.1801
  128DG     C17 2938   4.270   3.635   1.151  0.0039  0.1737 -0.4631
  128DG     C18 2939   4.344   3.427   1.061  0.3426 -0.2046 -0.2142
  128DG     O19 2940   4.287   3.559   1.033  0.4474 -0.2345 -0.4643
  128DG     H20 2941   4.227   3.578   1.233  1.7880 -1.3200 -0.5069
  128DG     H21 2942   4.365   3.671   1.190 -1.3554  1.6972  1.6522
  128DG     H22 2943   4.279   3.375   1.131 -1.2771  1.9914  0.0527
  128DG     H23 2944   4.434   3.440   1.120  0.4875 -0.7041 -0.3219
  129DG      C1 2945   1.409   2.589   3.507  0.6822  0.0109 -0.4516
  129DG      C2 2946   1.028   3.011   4.160 -0.1981 -0.4104 -0.6505
  129DG      H3 2947   1.497   2.568   3.446  0.3941 -0.6865 -0.6415
  129DG      H4 2948   1.389   2.692   3.477 -0.3725  0.1643  0.6878
  129DG      H5 2949   1.323   2.527   3.482  0.0449  0.4482  0.6248
  129DG      H6 2950   1.062   3.007   4.263 -1.0305 -2.2390 -0.4022
  129DG      H7 2951   1.025   3.116   4.131 -2.1040 -0.7417 -1.8424
  129DG      H8 2952   0.930   2.965   4.169  0.3014 -1.9763 -2.3861
  129DG      O9 2953   1.451   2.566   3.640  0.0699 -0.2807 -0.0474
  129DG     O10 2954   1.110   2.928   4.082 -0.1342 -0.5159 -0.2128
  129DG     C11 2955   1.353   2.598   3.739 -0.1177  0.0830  0.0057
  129DG     C12 2956   1.077   2.942   3.949 -0.5217 -0.4081  0.7344
  129DG     H13 2957   1.394   2.555   3.830  0.8049 -2.3401 -1.4620
  129DG     H14 2958   1.255   2.552   3.724 -0.8758  1.6066 -0.0104
  129DG     H15 2959   1.048   3.044   3.922 -0.2924 -0.2549  1.0556
  129DG     H16 2960   0.997   2.873   3.924 -0.2831 -0.4721  0.1216
  129DG     C17 2961   1.329   2.751   3.753 -0.5437  0.1075 -0.3510
  129DG     C18 2962   1.201   2.922   3.859 -0.1223  0.3425  0.9470
  129DG     O19 2963   1.232   2.784   3.851  0.0984 -0.0740  0.2397
  129DG     H20 2964   1.313   2.797   3.656  1.5986  0.5047 -0.5577
  129DG     H21 2965   1.424   2.799   3.773 -0.8620  0.2934  0.8489
  129DG     H22 2966   1.177   2.951   3.757  0.1352  1.5896  1.2322
  129DG     H23 2967   1.287   2.982   3.890 -0.8668  1.3065  1.1977
  130DG      C1 2968   3.469   4.701   1.756 -0.2951 -0.5313 -0.1146
  130DG      C2 2969   4.149   4.888   1.770  0.7195 -0.3771  0.0498
  130DG      H3 2970   3.445   4.807   1.761 -0.2109 -0.5535  1.1747
  130DG      H4 2971   3.388   4.649   1.807 -2.3480 -0.6880 -3.2559
  130DG      H5 2972   3.462   4.658   1.656 -0.5809  0.6084 -0.6012
  130DG      H6 2973   4.115   4.955   1.691  0.8316  0.2094  0.4961
  130DG      H7 2974   4.176   4.957   1.850  0.6368  0.5648 -0.7094
  130DG      H8 2975   4.245   4.846   1.741  1.9773  0.5657  2.5410
  130DG      O9 2976   3.606   4.700   1.800 -0.0480  0.4640  0.2162
  130DG     O10 2977   4.039   4.805   1.806 -0.2346 -0.2514  0.1565
  130DG     C11 2978   3.623   4.651   1.933  0.2888 -0.6973 -0.4388
  130DG     C12 2979   4.072   4.723   1.921  1.0610  0.8419  0.3123
  130DG     H13 2980   3.596   4.546   1.940 -0.9385 -0.4332 -1.0331
  130DG     H14 2981   3.559   4.706   2.001  1.3671 -1.7255  1.4862
  130DG     H15 2982   4.040   4.774   2.012  1.3892 -1.3198  1.7117
  130DG     H16 2983   4.177   4.703   1.946  1.3218  2.1308  0.2937
  130DG     C17 2984   3.769   4.665   1.976 -0.2395 -0.5620  0.2383
  130DG     C18 2985   3.993   4.588   1.917  0.1441  0.0530  0.1495
  130DG     O19 2986   3.855   4.606   1.886  0.1593  0.8699  0.3654
  130DG     H20 2987   3.789   4.635   2.079  0.4919 -0.4142  0.1400
  130DG     H21 2988   3.777   4.773   1.963 -0.0382 -0.6286 -0.2096
  130DG     H22 2989   4.033   4.525   1.837 -2.6810 -0.0898 -1.2410
  130DG     H23 2990   4.004   4.529   2.008 -0.1250 -2.2726 -1.2534
  131DG      C1 2991   3.957   3.978   2.322 -0.4845 -0.0875 -0.1068
  131DG      C2 2992   4.528   3.804   1.957  0.3798  0.3150  0.7806
  131DG      H3 2993   3.898   4.000   2.232  1.7126 -0.8802 -1.8319
  131DG      H4 2994   3.916   4.012   2.417  0.3678  2.0585 -0.4363
  131DG      H5 2995   3.972   3.871   2.328 -0.2928  0.0148  1.4612
  131DG      H6 2996   4.628   3.781   1.922 -0.4438 -0.5711 -1.1595
  131DG      H7 2997   4.464   3.722   1.923  0.2601  0.8872 -0.4297
  131DG      H8 2998   4.492   3.891   1.901 -0.0312 -0.6825 -0.5616
  131DG      O9 2999   4.074   4.052   2.299  0.2122 -0.3275 -0.1919
  131DG     O10 3000   4.511   3.824   2.092  0.3078 -0.1078  0.0990
  131DG     C11 3001   4.174   4.020   2.395  0.4807  0.2559  0.6358
  131DG     C12 3002   4.562   3.949   2.146  0.6159  0.5668  0.4520
  131DG     H13 3003   4.175   3.912   2.408 -0.0479  0.4110  2.2286
  131DG     H14 3004   4.146   4.050   2.496  0.7168 -0.9248  1.0691
  131DG     H15 3005   4.537   4.020   2.066 -0.7210 -1.2541 -0.8264
  131DG     H16 3006   4.671   3.950   2.155  0.4890 -0.1955  2.6750
  131DG     C17 3007   4.311   4.064   2.373  0.4460  0.2590 -0.4197
  131DG     C18 3008   4.505   3.982   2.277  0.4899 -0.1866 -0.1721
  131DG     O19 3009   4.359   3.992   2.265 -0.3065  0.3165  0.7304
  131DG     H20 3010   4.362   4.051   2.469 -0.8280  1.8034  0.5037
  131DG     H21 3011   4.317   4.167   2.338  1.3158  0.0831 -0.8123
  131DG     H22 3012   4.533   3.902   2.346  0.1884 -1.0963 -1.0914
  131DG     H23 3013   4.538   4.082   2.306  0.9837 -1.0036  2.4240
  132DG      C1 3014   3.552   3.754   4.630  0.5324 -0.1074  0.0298
  132DG      C2 3015   2.882   3.910   4.713  0.1166 -0.7475  0.2260
  132DG      H3 3016   3.597   3.700   4.547  1.1309  2.3862 -1.3723
  132DG      H4 3017   3.618   3.770   4.716  0.7550  0.2549 -0.2060
  132DG      H5 3018   3.521   3.848   4.585 -0.6411 -0.9555 -1.0425
  132DG      H6 3019   2.891   3.992   4.784  1.4719  1.9308 -2.7792
  132DG      H7 3020   2.897   3.972   4.625  1.1325  0.0542  0.9377
  132DG      H8 3021   2.777   3.882   4.715 -0.9942  2.9139  0.4450
  132DG      O9 3022   3.419   3.707   4.667  0.8520  0.2701  0.1193
  132DG     O10 3023   2.977   3.808   4.713 -0.0265  0.1763 -0.1586
  132DG     C11 3024   3.420   3.586   4.738 -0.2357  0.7866 -0.8539
  132DG     C12 3025   2.954   3.702   4.811 -0.0007  0.1146 -0.2579
  132DG     H13 3026   3.461   3.599   4.838 -1.1449 -0.4815 -0.2917
  132DG     H14 3027   3.485   3.516   4.685 -0.2742  1.4494 -1.8011
  132DG     H15 3028   2.860   3.664   4.773  0.4529 -0.4527 -0.8479
  132DG     H16 3029   2.953   3.753   4.907  1.4467  1.9108 -1.1179
  132DG     C17 3030   3.276   3.528   4.752  0.1633 -0.3990  0.3009
  132DG     C18 3031   3.054   3.590   4.805 -0.4789  0.0256 -0.2693
  132DG     O19 3032   3.186   3.640   4.783  0.3944 -0.1972 -0.0450
  132DG     H20 3033   3.263   3.442   4.818  0.5134  0.5068  1.5909
  132DG     H21 3034   3.254   3.477   4.658  1.1344 -2.7025  1.2455
  132DG     H22 3035   3.056   3.528   4.894  1.7798 -0.5982 -0.6942
  132DG     H23 3036   3.026   3.515   4.731  1.5837 -2.3233  1.1808
  133DG      C1 3037   0.226   3.465   4.057  0.3589  0.3278 -0.6861
  133DG      C2 3038  -0.081   3.502   4.633 -0.8357 -0.7315 -0.3535
  133DG      H3 3039   0.125   3.445   4.019  0.4525 -0.9434 -0.3233
  133DG      H4 3040   0.300   3.415   3.994 -0.3295 -1.1654 -0.3527
  133DG      H5 3041   0.243   3.570   4.033  2.7157  0.2681  0.4545
  133DG      H6 3042  -0.075   3.600   4.680  1.1388 -0.4219 -1.1270
  133DG      H7 3043  -0.152   3.519   4.553 -1.5853 -0.3335  0.3888
  133DG      H8 3044  -0.124   3.431   4.704 -2.0756 -0.7418 -1.0878
  133DG      O9 3045   0.242   3.424   4.196  0.1413  0.4818 -0.2421
  133DG     O10 3046   0.044   3.442   4.582  0.6517  0.0021 -0.4356
  133DG     C11 3047   0.369   3.456   4.240  0.1373  0.3851  0.4867
  133DG     C12 3048   0.156   3.470   4.661  0.4173  0.0794 -1.0393
  133DG     H13 3049   0.388   3.563   4.230  1.2802  0.2056  0.6839
  133DG     H14 3050   0.439   3.409   4.171  0.0548  1.2960 -0.2336
  133DG     H15 3051   0.133   3.424   4.757  2.7397  1.0849  0.0552
  133DG     H16 3052   0.157   3.578   4.666  2.4972  0.0755 -0.8370
  133DG     C17 3053   0.394   3.407   4.387 -0.7954  0.1700  0.5220
  133DG     C18 3054   0.293   3.439   4.603  0.6702 -0.6993 -0.0495
  133DG     O19 3055   0.291   3.466   4.463 -0.2502  0.3855 -0.0550
  133DG     H20 3056   0.485   3.455   4.423 -1.4991  0.6976  1.6422
  133DG     H21 3057   0.397   3.298   4.387  3.1783  0.0950  2.1330
  133DG     H22 3058   0.377   3.479   4.659 -0.3916  0.3776  0.8125
  133DG     H23 3059   0.315   3.334   4.619 -0.2969 -0.6777  1.5701
  134DG      C1 3060   5.055   2.857   0.889 -0.1239 -0.2482  0.6879
  134DG      C2 3061   4.626   2.355   0.619 -0.0273  0.1553  0.4438
  134DG      H3 3062   4.989   2.860   0.802  1.8967 -0.1121 -0.9367
  134DG      H4 3063   5.150   2.856   0.835 -0.0625  0.4376  0.7743
  134DG      H5 3064   5.041   2.949   0.945 -0.6022  0.3074 -0.3151
  134DG      H6 3065   4.576   2.439   0.571  1.9846  0.5767 -1.1112
  134DG      H7 3066   4.700   2.322   0.544  0.0725 -0.0900  0.6478
  134DG      H8 3067   4.559   2.271   0.639 -0.6872  0.3233 -0.9447
  134DG      O9 3068   5.019   2.742   0.962 -0.0404 -0.4661 -0.2994
  134DG     O10 3069   4.696   2.398   0.739  0.3147 -0.1575 -0.1207
  134DG     C11 3070   4.889   2.762   1.014  0.1801  0.3159  0.0681
  134DG     C12 3071   4.610   2.425   0.850  0.1653  0.4310 -0.3660
  134DG     H13 3072   4.814   2.798   0.943  0.7952  0.1622 -0.6699
  134DG     H14 3073   4.888   2.837   1.093 -1.1774  0.4399 -0.0431
  134DG     H15 3074   4.557   2.332   0.872 -1.0581  1.0785 -0.4873
  134DG     H16 3075   4.541   2.504   0.822 -0.8842 -1.2319 -2.7793
  134DG     C17 3076   4.829   2.632   1.063 -0.3023 -0.0174  0.1413
  134DG     C18 3077   4.692   2.456   0.976  0.5211  0.2684  0.0490
  134DG     O19 3078   4.775   2.568   0.950 -0.8312 -0.0103  0.4672
  134DG     H20 3079   4.739   2.657   1.118 -0.1709  1.8566 -0.4428
  134DG     H21 3080   4.893   2.572   1.128 -0.7698 -0.4069  0.2474
  134DG     H22 3081   4.622   2.485   1.055  1.3874 -0.3605  1.0850
  134DG     H23 3082   4.747   2.374   1.023 -0.9107  0.4621  2.2133
  135DG      C1 3083   0.670   2.130   0.956  0.3382  0.3000  0.8650
  135DG      C2 3084   1.005   2.134   1.585 -0.3161 -0.0224  0.4913
  135DG      H3 3085   0.769   2.170   0.936 -1.4381  4.6927 -0.3335
  135DG      H4 3086   0.596   2.195   0.911  1.7678  0.6152 -1.1696
  135DG      H5 3087   0.650   2.028   0.924  0.1173  0.2242  1.2427
  135DG      H6 3088   1.061   2.043   1.564  0.6236  0.4493  0.9186
  135DG      H7 3089   1.066   2.222   1.566  0.3518 -0.3592  1.0321
  135DG      H8 3090   0.980   2.127   1.691  1.2601 -1.6012  0.8016
  135DG      O9 3091   0.664   2.153   1.094 -0.5221 -0.0742 -0.1463
  135DG     O10 3092   0.883   2.144   1.513  1.0315 -0.5231  0.4679
  135DG     C11 3093   0.540   2.102   1.144  0.2631 -0.2083  0.0630
  135DG     C12 3094   0.801   2.032   1.543  0.2862 -0.7279 -0.0526
  135DG     H13 3095   0.538   1.995   1.123 -0.7556 -0.3499  0.7412
  135DG     H14 3096   0.457   2.157   1.098  0.4066  0.7161  0.8775
  135DG     H15 3097   0.803   2.001   1.648 -0.8186  0.1216  0.2448
  135DG     H16 3098   0.842   1.956   1.477  1.2837  0.4410 -0.8267
  135DG     C17 3099   0.530   2.115   1.297 -1.2034  0.0107 -0.3125
  135DG     C18 3100   0.659   2.057   1.484  0.3959 -0.1000 -0.3621
  135DG     O19 3101   0.664   2.094   1.354 -0.2624  0.1857 -0.4785
  135DG     H20 3102   0.452   2.051   1.339 -1.0710 -0.3635 -0.6344
  135DG     H21 3103   0.499   2.215   1.329 -1.8805  0.3184 -1.8468
  135DG     H22 3104   0.595   1.968   1.482 -2.2526  1.7150 -1.1154
  135DG     H23 3105   0.614   2.132   1.548  0.7469  1.2452 -1.6513
  136DG      C1 3106   3.673   0.769   1.265 -0.2913  0.5272  0.0051
  136DG      C2 3107   4.233   0.490   1.534  1.0494 -0.0175 -0.0925
  136DG      H3 3108   3.658   0.746   1.370 -0.4218  1.8224  0.2881
  136DG      H4 3109   3.641   0.679   1.211  0.9059 -0.0404  0.2106
  136DG      H5 3110   3.623   0.863   1.242  1.9287  2.3012  1.9098
  136DG      H6 3111   4.163   0.408   1.545  1.5894 -0.6165 -1.0135
  136DG      H7 3112   4.326   0.459   1.488  0.5948 -0.4018 -0.7561
  136DG      H8 3113   4.252   0.522   1.637 -1.7894 -0.1137  0.5451
  136DG      O9 3114   3.815   0.779   1.248 -0.2230 -0.0898 -0.1678
  136DG     O10 3115   4.179   0.595   1.450  0.1106 -0.3702  0.5058
  136DG     C11 3116   3.867   0.900   1.301  0.0035 -0.0565 -0.6090
  136DG     C12 3117   4.250   0.717   1.460 -0.6306 -0.2512  0.2611
  136DG     H13 3118   3.844   0.914   1.406 -0.0208  0.8513 -0.7264
  136DG     H14 3119   3.814   0.974   1.241  1.5272  0.0695 -1.8645
  136DG     H15 3120   4.356   0.700   1.476 -0.4670  0.0118 -0.4801
  136DG     H16 3121   4.204   0.762   1.548 -1.8538 -0.8519 -0.0433
  136DG     C17 3122   4.008   0.914   1.276  0.0167 -0.6076  0.8698
  136DG     C18 3123   4.208   0.817   1.355  0.0499  0.0729  0.3816
  136DG     O19 3124   4.067   0.825   1.365  0.1092  0.4650 -0.5088
  136DG     H20 3125   4.049   1.013   1.293 -0.3353 -0.3736  0.3660
  136DG     H21 3126   4.038   0.881   1.176 -1.7435 -2.3347  0.8434
  136DG     H22 3127   4.245   0.917   1.378 -2.2237  1.0507  0.0513
  136DG     H23 3128   4.250   0.786   1.260  0.8253 -1.1522  1.1072
  137DG      C1 3129   3.789   1.105   0.536 -0.4628 -0.4685  0.0545
  137DG      C2 3130   3.309   1.263   0.928  0.6302  0.0244  0.4003
  137DG      H3 3131   3.758   1.009   0.577  0.6825 -1.1877 -0.6692
  137DG      H4 3132   3.895   1.103   0.509 -0.0225 -1.1691  1.7199
  137DG      H5 3133   3.733   1.104   0.442 -0.2559  0.8915 -0.0984
  137DG      H6 3134   3.307   1.163   0.970 -0.6749 -0.1804 -0.1135
  137DG      H7 3135   3.265   1.324   1.006 -0.2429 -0.5274  0.3597
  137DG      H8 3136   3.251   1.263   0.835 -1.4895 -1.2660  1.6445
  137DG      O9 3137   3.739   1.204   0.620 -0.3492  0.5766 -0.1825
  137DG     O10 3138   3.442   1.311   0.921  0.7233  0.0162  0.0534
  137DG     C11 3139   3.812   1.321   0.616  0.1026 -0.5752  0.0613
  137DG     C12 3140   3.453   1.446   0.872 -0.6216  0.0283 -0.7470
  137DG     H13 3141   3.816   1.358   0.514  0.1721  2.3090  1.0406
  137DG     H14 3142   3.914   1.299   0.649  1.5371  2.6250 -1.7932
  137DG     H15 3143   3.395   1.527   0.918 -1.4248  0.8391 -3.0184
  137DG     H16 3144   3.431   1.440   0.765 -0.9467  2.1158 -0.8400
  137DG     C17 3145   3.745   1.428   0.699  0.6642 -0.2509 -0.0679
  137DG     C18 3146   3.605   1.481   0.890  0.0403 -0.4504  0.8307
  137DG     O19 3147   3.686   1.384   0.820  0.6993 -0.6030 -0.5694
  137DG     H20 3148   3.657   1.455   0.640 -0.6538 -0.2256  1.8035
  137DG     H21 3149   3.803   1.520   0.715 -0.8230  1.3327 -2.9646
  137DG     H22 3150   3.623   1.585   0.863  0.8739 -0.4602  1.3307
  137DG     H23 3151   3.630   1.483   0.996 -2.1664  1.1000  1.3971
  138DG      C1 3152   4.865   4.667   5.222  0.5135  0.1426 -0.4255
  138DG      C2 3153   4.622   5.088   4.855 -0.1292 -0.6470  0.2093
  138DG      H3 3154   4.951   4.719   5.181  1.8712  0.6780  2.7742
  138DG      H4 3155   4.890   4.562   5.241 -2.6780 -0.9162 -1.5017
  138DG      H5 3156   4.833   4.716   5.314  0.6600  0.7545 -0.6978
  138DG      H6 3157   4.684   5.134   4.932 -1.4515  0.8895  0.4071
  138DG      H7 3158   4.700   5.034   4.802  0.4217 -0.7402  1.0942
  138DG      H8 3159   4.579   5.160   4.786  2.1031  0.4501 -0.1131
  138DG      O9 3160   4.752   4.664   5.139  0.6947  0.0426  0.2887
  138DG     O10 3161   4.522   4.998   4.896  0.2716  0.8539  0.4177
  138DG     C11 3162   4.783   4.625   5.006 -0.4960 -0.3882 -0.0957
  138DG     C12 3163   4.461   4.916   4.790 -0.3699 -0.2305  0.1047
  138DG     H13 3164   4.807   4.519   5.005 -1.4356 -0.6159 -0.5727
  138DG     H14 3165   4.862   4.687   4.965  1.2560 -2.0875  0.6097
  138DG     H15 3166   4.502   4.936   4.691  1.5956 -0.5406  0.8005
  138DG     H16 3167   4.354   4.928   4.777 -0.5712 -1.4447  0.5284
  138DG     C17 3168   4.664   4.634   4.913 -0.3393  0.0728 -0.0349
  138DG     C18 3169   4.483   4.773   4.837 -0.3455  0.4819  0.5628
  138DG     O19 3170   4.623   4.766   4.882  0.1554 -0.3238  0.1171
  138DG     H20 3171   4.580   4.577   4.953 -1.1381  0.6081 -0.9178
  138DG     H21 3172   4.683   4.578   4.822 -1.8234  0.2296 -0.4745
  138DG     H22 3173   4.407   4.727   4.900 -2.1049  0.1117 -1.7311
  138DG     H23 3174   4.480   4.707   4.750  0.4928 -0.4488  1.2158
  139DG      C1 3175   0.889   2.202   0.207  0.1973 -0.3894 -0.1934
  139DG      C2 3176   1.054   1.834   0.727  0.0491  0.0364 -0.3137
  139DG      H3 3177   0.895   2.294   0.149  0.2751 -0.7270 -0.7329
  139DG      H4 3178   0.782   2.181   0.219 -0.5871  2.8408 -0.6704
  139DG      H5 3179   0.932   2.118   0.153  0.4098 -1.9109  2.1887
  139DG      H6 3180   0.976   1.795   0.793 -1.0949 -0.8745 -2.1195
  139DG      H7 3181   1.075   1.753   0.657 -1.0529  0.2512 -0.9150
  139DG      H8 3182   1.140   1.851   0.791 -1.5168  2.1959  1.3601
  139DG      O9 3183   0.935   2.229   0.336  0.0814 -0.4444 -0.2369
  139DG     O10 3184   1.034   1.961   0.670 -0.0019 -0.2196 -0.0719
  139DG     C11 3185   0.862   2.324   0.414  0.0666  0.0977  0.2110
  139DG     C12 3186   1.018   2.073   0.760  0.8791 -0.1147 -1.1300
  139DG     H13 3187   0.766   2.281   0.443  0.7016 -0.6620  1.2854
  139DG     H14 3188   0.839   2.421   0.369  0.3485 -0.4763 -1.2468
  139DG     H15 3189   1.121   2.099   0.786  0.9955 -1.7506  0.1747
  139DG     H16 3190   0.965   2.031   0.845  1.6882 -0.2958 -0.7024
  139DG     C17 3191   0.954   2.351   0.541  0.7239  0.1821  0.1807
  139DG     C18 3192   0.931   2.173   0.686 -0.3848  0.1966  0.5302
  139DG     O19 3193   1.021   2.243   0.595 -0.3936 -0.0864  0.1742
  139DG     H20 3194   0.907   2.411   0.619  0.2909 -1.2157  1.0115
  139DG     H21 3195   1.030   2.424   0.514  2.5835 -1.4136  0.8867
  139DG     H22 3196   0.855   2.113   0.635 -0.0431  0.5729 -0.4475
  139DG     H23 3197   0.872   2.229   0.758  0.4502  0.7265  0.8134
  140DG      C1 3198   1.927   4.570   1.956 -0.0965  0.1539 -0.3907
  140DG      C2 3199   2.466   5.093   1.555  0.7555 -0.1240 -0.0859
  140DG      H3 3200   1.825   4.550   1.987 -0.2088  0.1830 -0.7362
  140DG      H4 3201   1.988   4.501   2.015  1.0351  0.7953 -0.7663
  140DG      H5 3202   1.932   4.543   1.851  0.6936  1.7139 -0.7883
  140DG      H6 3203   2.391   5.146   1.496 -1.0490 -0.3808  1.8689
  140DG      H7 3204   2.542   5.166   1.587  1.5146 -0.9568  0.0506
  140DG      H8 3205   2.510   5.004   1.511  0.8501  0.2512 -0.7546
  140DG      O9 3206   1.972   4.707   1.964 -0.0161  0.8314 -0.3642
  140DG     O10 3207   2.425   5.040   1.683  0.0951 -0.4259 -0.2257
  140DG     C11 3208   2.083   4.753   1.889 -0.0973 -0.5747  0.2696
  140DG     C12 3209   2.349   5.129   1.758  0.1693  0.1942  0.5012
  140DG     H13 3210   2.057   4.752   1.784  2.0407  1.6785 -0.3748
  140DG     H14 3211   2.172   4.690   1.893 -0.6615 -1.5274 -1.2845
  140DG     H15 3212   2.270   5.176   1.699  0.7337 -0.8147 -1.1100
  140DG     H16 3213   2.407   5.215   1.791 -1.0756  0.3809  2.3614
  140DG     C17 3214   2.122   4.903   1.928  0.0704  0.3089  0.2946
  140DG     C18 3215   2.280   5.060   1.872 -0.2293  0.2035  0.3849
  140DG     O19 3216   2.204   4.949   1.823 -0.1193 -0.7036 -1.1133
  140DG     H20 3217   2.174   4.889   2.023  2.4915  0.2542 -0.9494
  140DG     H21 3218   2.039   4.970   1.950  0.5689  1.2763 -0.6644
  140DG     H22 3219   2.357   5.020   1.938  0.5179  0.1041 -0.5256
  140DG     H23 3220   2.219   5.141   1.912 -1.6678 -1.0252  0.7596
  141DG      C1 3221   2.404   3.831   3.995  0.0113 -0.8438 -0.2389
  141DG      C2 3222   3.062   3.947   3.979  0.0138 -0.2803  0.5508
  141DG      H3 3223   2.376   3.859   3.894  0.5436 -1.9148 -0.6989
  141DG      H4 3224   2.400   3.914   4.065 -0.1210 -1.9296  1.0957
  141DG      H5 3225   2.337   3.762   4.048  1.3974 -1.8878  0.2091
  141DG      H6 3226   3.036   4.025   4.050  2.3703 -0.5650  1.8356
  141DG      H7 3227   3.156   3.900   4.008  0.6953 -0.1120 -1.2186
  141DG      H8 3228   3.092   3.987   3.882 -1.6148  0.4697  0.3280
  141DG      O9 3229   2.529   3.776   3.996  0.5222  0.2623  0.1525
  141DG     O10 3230   2.965   3.843   3.965 -0.1410 -0.0728  0.0702
  141DG     C11 3231   2.542   3.655   3.917  0.1848 -0.7508  0.5257
  141DG     C12 3232   2.995   3.758   3.862 -0.3970  0.5742 -0.5570
  141DG     H13 3233   2.527   3.678   3.812  0.3717  0.8809  0.8244
  141DG     H14 3234   2.460   3.585   3.932 -0.2879  0.0805  2.0591
  141DG     H15 3235   3.101   3.735   3.854 -0.4540  0.9042 -2.7968
  141DG     H16 3236   2.966   3.808   3.770 -0.6054 -0.0550 -0.8361
  141DG     C17 3237   2.680   3.598   3.938 -0.0589  0.4376  0.8509
  141DG     C18 3238   2.905   3.636   3.866  0.3819 -0.2023 -0.0660
  141DG     O19 3239   2.779   3.695   3.892 -0.1520  0.0620  0.3388
  141DG     H20 3240   2.687   3.504   3.881  0.1431 -0.6116  2.5440
  141DG     H21 3241   2.700   3.576   4.042 -1.5418  2.1434  1.5341
  141DG     H22 3242   2.910   3.582   3.772  0.5086  0.2166 -0.3014
  141DG     H23 3243   2.942   3.576   3.949  2.0956  1.1182  0.1894
  142DG      C1 3244   5.465   4.156   2.513 -0.5030 -0.3820 -0.2065
  142DG      C2 3245   4.891   4.047   2.675 -0.3595  0.0535 -0.2625
  142DG      H3 3246   5.478   4.081   2.591 -1.7348 -0.8537 -0.4255
  142DG      H4 3247   5.437   4.247   2.565  0.4526  0.7689 -1.6271
  142DG      H5 3248   5.560   4.169   2.461  0.3186 -0.5134  1.2203
  142DG      H6 3249   4.962   4.003   2.746 -0.1982 -0.3213 -0.6498
  142DG      H7 3250   4.852   4.139   2.718 -0.1564  0.8059 -1.6253
  142DG      H8 3251   4.809   3.977   2.660  1.0647 -1.9516  0.8434
  142DG      O9 3252   5.351   4.120   2.437 -0.1420 -0.5373  0.3002
  142DG     O10 3253   4.964   4.071   2.554  0.0225  0.3110  0.0310
  142DG     C11 3254   5.320   4.205   2.331 -0.0986 -0.4551 -0.0115
  142DG     C12 3255   4.889   4.101   2.441  1.1838 -0.5165  0.2721
  142DG     H13 3256   5.404   4.209   2.262 -0.4859  1.1837 -0.4289
  142DG     H14 3257   5.296   4.309   2.354  0.3738 -0.1898 -0.6728
  142DG     H15 3258   4.809   4.170   2.469  0.8963 -0.7317 -0.0080
  142DG     H16 3259   4.832   4.020   2.396 -0.5704  1.4759 -1.3332
  142DG     C17 3260   5.207   4.138   2.257  0.1812 -0.5065 -0.1618
  142DG     C18 3261   4.979   4.163   2.338 -0.3095  0.0249 -0.4769
  142DG     O19 3262   5.099   4.086   2.328  0.3028 -0.6236 -0.3541
  142DG     H20 3263   5.245   4.049   2.207 -1.6134 -1.8749  0.7743
  142DG     H21 3264   5.174   4.215   2.187  3.3330  1.8582  0.6944
  142DG     H22 3265   4.929   4.184   2.244 -1.7521  1.8794  0.6495
  142DG     H23 3266   5.006   4.264   2.367 -1.5647  0.3984 -0.5384
  143DG      C1 3267   3.712   2.937   0.151 -0.3073  0.4813 -0.5753
  143DG      C2 3268   3.474   3.202   0.744 -0.5297  0.1491 -0.4056
  143DG      H3 3269   3.789   2.880   0.203  1.3318  2.6644 -0.4858
  143DG      H4 3270   3.741   2.949   0.047  1.3535  0.7921 -0.1128
  143DG      H5 3271   3.612   2.898   0.170 -0.4040  1.1022  0.2413
  143DG      H6 3272   3.549   3.239   0.815 -0.4614 -0.1899 -0.3012
  143DG      H7 3273   3.385   3.260   0.768 -0.9744 -1.1834  1.3437
  143DG      H8 3274   3.452   3.097   0.760 -1.1878  0.3988  0.3791
  143DG      O9 3275   3.717   3.074   0.209  0.0798  0.6859 -0.2326
  143DG     O10 3276   3.514   3.238   0.613  0.1729  0.4053 -0.0590
  143DG     C11 3277   3.611   3.156   0.170  0.5262 -0.3923  0.3560
  143DG     C12 3278   3.546   3.374   0.586 -0.1407  0.4414 -0.2287
  143DG     H13 3279   3.518   3.101   0.185 -0.0056 -0.3029 -2.0725
  143DG     H14 3280   3.614   3.168   0.061 -1.3894 -0.1822  0.2876
  143DG     H15 3281   3.640   3.401   0.633 -0.5339 -1.1472  1.5561
  143DG     H16 3282   3.478   3.441   0.639 -0.0783  0.1204  0.2665
  143DG     C17 3283   3.603   3.299   0.229 -0.0052 -0.0435  0.2857
  143DG     C18 3284   3.558   3.410   0.434 -0.8785  0.1404 -0.3761
  143DG     O19 3285   3.601   3.291   0.375 -1.0862  0.3364  0.6346
  143DG     H20 3286   3.511   3.338   0.187  1.4902  0.4191 -2.8515
  143DG     H21 3287   3.690   3.356   0.197 -0.9102  0.8435 -0.6376
  143DG     H22 3288   3.463   3.444   0.392 -0.4643  0.1311 -1.3493
  143DG     H23 3289   3.638   3.481   0.416  0.3341 -0.8366  0.9899
  144DG      C1 3290   5.318   2.793   3.730  0.5022  0.4288  0.8621
  144DG      C2 3291   4.785   2.616   4.056 -0.0464  0.5319  0.1367
  144DG      H3 3292   5.336   2.893   3.690 -2.0171 -0.2614 -2.3917
  144DG      H4 3293   5.363   2.717   3.667 -2.5202 -0.0359 -0.9149
  144DG      H5 3294   5.373   2.779   3.823 -0.0787  1.4174  1.3754
  144DG      H6 3295   4.847   2.663   4.132  0.6267  0.1022 -0.1419
  144DG      H7 3296   4.712   2.692   4.029  1.4817  1.4785 -1.5357
  144DG      H8 3297   4.746   2.521   4.094 -1.7955  0.8695 -0.7055
  144DG      O9 3298   5.178   2.757   3.732  0.3683  0.5350 -0.7232
  144DG     O10 3299   4.858   2.593   3.942 -0.4349  0.3603  0.9141
  144DG     C11 3300   5.094   2.770   3.614 -0.2661  0.6164  0.5462
  144DG     C12 3301   4.789   2.501   3.852  0.1430  0.4409 -0.4168
  144DG     H13 3302   5.153   2.801   3.528 -3.0145  1.1104 -1.3107
  144DG     H14 3303   5.019   2.846   3.635  0.3549  1.6563 -0.8350
  144DG     H15 3304   4.683   2.528   3.846  0.3251  1.0202 -1.2844
  144DG     H16 3305   4.794   2.395   3.875  1.2385  0.4320 -0.6824
  144DG     C17 3306   5.007   2.643   3.578 -0.2448  0.3855 -0.7600
  144DG     C18 3307   4.849   2.510   3.711 -0.0398 -0.1338 -0.4401
  144DG     O19 3308   4.934   2.626   3.708  0.2690  0.0724  0.3348
  144DG     H20 3309   5.082   2.567   3.554 -0.0582  0.9577 -2.0254
  144DG     H21 3310   4.936   2.653   3.496 -0.5649 -1.1155 -0.6981
  144DG     H22 3311   4.911   2.423   3.690 -0.0692 -0.3772  0.4397
  144DG     H23 3312   4.770   2.510   3.637 -0.5038  1.2032  0.0336
  145THF     O1 3313   0.621   4.154   5.360  0.2932 -0.3145 -0.1173
  145THF     C2 3314   0.727   4.103   5.445  0.1524  0.1109  0.1577
  145THF     C3 3315   0.652   4.114   5.222 -0.0073 -0.9519 -0.6882
  145THF     H4 3316   0.695   4.101   5.549  1.5893  0.1168  0.6243
  145THF     H5 3317   0.825   4.151   5.444  0.8536 -1.2483  0.4439
  145THF     H6 3318   0.572   4.093   5.151 -0.4995  2.8127 -1.4338
  145THF     H7 3319   0.701   4.204   5.186  1.6574 -1.3382  0.4714
  145THF     C8 3320   0.750   3.995   5.238  0.0191  0.0251 -0.6471
  145THF     C9 3321   0.744   3.958   5.391 -0.7327  0.2440 -0.6694
  145THF    H10 3322   0.850   4.024   5.205  0.4234 -2.2162 -1.5801
  145THF    H11 3323   0.730   3.913   5.169 -1.0473 -0.0247 -0.2949
  145THF    H12 3324   0.660   3.891   5.409 -1.4490  0.4964 -2.7505
  145THF    H13 3325   0.836   3.913   5.428  0.0603  1.5188 -1.0436
  146THF     O1 3326   0.001   5.468   2.444 -0.1565 -0.0855 -0.2581
  146THF     C2 3327   0.079   5.352   2.408  0.6208  0.4770 -0.1112
  146THF     C3 3328  -0.142   5.445   2.435 -0.8606 -0.1617  0.4519
  146THF     H4 3329   0.159   5.346   2.481  1.3912 -1.9315 -1.0367
  146THF     H5 3330   0.139   5.359   2.317  0.9535 -0.0277  0.0644
  146THF     H6 3331  -0.206   5.505   2.500 -2.1652 -0.7822 -0.2142
  146THF     H7 3332  -0.168   5.461   2.330  1.0088 -2.3253 -0.4304
  146THF     C8 3333  -0.138   5.297   2.466  0.1382  0.3726 -0.8446
  146THF     C9 3334  -0.019   5.230   2.398 -0.9098  0.4162  0.0700
  146THF    H10 3335  -0.224   5.238   2.435  0.8424 -0.8180 -0.5883
  146THF    H11 3336  -0.109   5.287   2.570  0.5098 -3.0173 -1.1612
  146THF    H12 3337   0.022   5.135   2.432 -0.7483  0.9102  1.2981
  146THF    H13 3338  -0.032   5.215   2.291 -0.6160 -1.3681  0.2516
  147THF     O1 3339   2.268   3.017   4.337 -0.4391 -0.3471  0.6720
  147THF     C2 3340   2.165   3.087   4.402  0.0399 -0.1772 -0.3761
  147THF     C3 3341   2.244   2.878   4.355 -0.1228  0.3267 -0.0491
  147THF     H4 3342   2.111   3.148   4.330 -0.8093  0.0491  0.4357
  147THF     H5 3343   2.202   3.160   4.474  0.8211  0.6822 -1.6223
  147THF     H6 3344   2.191   2.833   4.271  1.5328 -0.8073 -0.5405
  147THF     H7 3345   2.339   2.825   4.356  0.5315  1.4790 -0.1175
  147THF     C8 3346   2.172   2.864   4.490  0.1569 -0.2434 -0.4382
  147THF     C9 3347   2.079   2.977   4.469 -0.1086 -0.6647 -0.0716
  147THF    H10 3348   2.249   2.896   4.560 -0.7605  1.0910 -0.0212
  147THF    H11 3349   2.135   2.765   4.515 -0.0302 -0.3815 -1.2242
  147THF    H12 3350   2.003   2.947   4.397  0.3994 -0.2357 -0.8083
  147THF    H13 3351   2.031   3.017   4.558  1.1395  1.1538 -0.1484
  148THF     O1 3352   3.997   0.249   2.536  0.1472  0.2371 -0.1352
  148THF     C2 3353   4.008   0.391   2.560  0.0710  0.3920 -0.1554
  148THF     C3 3354   4.126   0.197   2.554  0.3941 -0.5325  0.4414
  148THF     H4 3355   4.018   0.402   2.668 -1.8947 -0.5429  0.1759
  148THF     H5 3356   3.919   0.445   2.527  0.1117  1.4559  1.3590
  148THF     H6 3357   4.129   0.192   2.663 -0.5171  1.1720  0.5928
  148THF     H7 3358   4.151   0.108   2.497 -0.5573 -0.1109 -0.6925
  148THF     C8 3359   4.230   0.306   2.510  0.0508  0.6994 -1.1345
  148THF     C9 3360   4.137   0.429   2.492 -0.2859  1.0091  1.1151
  148THF    H10 3361   4.295   0.278   2.427  3.8934  1.4258  1.3668
  148THF    H11 3362   4.295   0.321   2.596 -1.0326 -2.0249  0.2788
  148THF    H12 3363   4.184   0.521   2.529 -1.3370  2.2190 -0.4294
  148THF    H13 3364   4.133   0.451   2.386  0.1749 -2.6531  0.2181
  149THF     O1 3365   2.421   0.812   2.314 -0.4976  0.0377  0.4928
  149THF     C2 3366   2.362   0.684   2.336 -0.3877 -0.6532  0.3072
  149THF     C3 3367   2.356   0.901   2.404  0.0598 -0.3089  0.1956
  149THF     H4 3368   2.414   0.601   2.287 -1.3810 -2.3502  1.9867
  149THF     H5 3369   2.261   0.670   2.296 -0.9140 -1.0492  1.7023
  149THF     H6 3370   2.399   1.001   2.406 -0.5080 -0.0246 -1.0730
  149THF     H7 3371   2.251   0.912   2.375  0.4058  0.4128 -0.7973
  149THF     C8 3372   2.380   0.829   2.535 -0.0036 -0.3506  0.1069
  149THF     C9 3373   2.375   0.678   2.496  0.2635  0.4266  0.1798
  149THF    H10 3374   2.309   0.837   2.617  0.4018  0.4433  0.3894
  149THF    H11 3375   2.480   0.860   2.564 -0.2149  0.2437  0.2056
  149THF    H12 3376   2.461   0.617   2.524 -1.5098 -3.1135 -1.3651
  149THF    H13 3377   2.290   0.623   2.538 -0.1457  1.1085  0.2698
  150THF     O1 3378   4.099   2.815   4.162  0.2289  0.0770 -0.0708
  150THF     C2 3379   4.156   2.760   4.043  0.0925  0.2591  0.4063
  150THF     C3 3380   4.029   2.713   4.225 -0.3733 -0.2644  0.0605
  150THF     H4 3381   4.260   2.791   4.040  0.0395  0.3542 -1.2361
  150THF     H5 3382   4.116   2.787   3.945  3.6455 -1.6311 -1.7620
  150THF     H6 3383   4.036   2.724   4.333  1.3713  0.0443 -0.0572
  150THF     H7 3384   3.924   2.716   4.196 -0.6772  1.4896  1.2079
  150THF     C8 3385   4.099   2.575   4.195 -0.1720  0.1307  0.0182
  150THF     C9 3386   4.156   2.607   4.061  0.1627 -0.0560 -0.6345
  150THF    H10 3387   4.016   2.508   4.175 -0.5264  0.6520 -0.3009
  150THF    H11 3388   4.165   2.541   4.275  1.2091  2.1960 -0.1489
  150THF    H12 3389   4.251   2.563   4.031  1.1045  2.1650 -1.1048
  150THF    H13 3390   4.083   2.565   3.992  0.3961 -4.1320  1.2970
  151THF     O1 3391   3.566   0.387   1.044  0.4189  0.1889  0.2763
  151THF     C2 3392   3.541   0.254   1.079 -0.5000  1.0317  0.4734
  151THF     C3 3393   3.694   0.402   0.983  0.5996 -0.6463  0.2616
  151THF     H4 3394   3.439   0.232   1.111 -0.4558  0.7017  0.3915
  151THF     H5 3395   3.611   0.213   1.153  1.4853  0.1735 -1.7381
  151THF     H6 3396   3.682   0.496   0.928 -2.5306 -0.4809  1.0598
  151THF     H7 3397   3.771   0.407   1.060  1.3973 -1.8979 -0.4158
  151THF     C8 3398   3.699   0.266   0.904 -0.4962 -0.0615  0.3871
  151THF     C9 3399   3.574   0.189   0.946 -0.3997 -0.4791  0.3100
  151THF    H10 3400   3.795   0.221   0.926  0.7298  2.4556  0.4854
  151THF    H11 3401   3.690   0.298   0.800 -1.4801 -1.1799  0.1031
  151THF    H12 3402   3.486   0.206   0.884 -1.3599 -0.6101  1.5863
  151THF    H13 3403   3.589   0.081   0.946 -0.2652 -0.4605 -0.1209
  152THF     O1 3404   4.257   4.513   4.593 -0.2506  0.0540 -0.2194
  152THF     C2 3405   4.183   4.634   4.573 -0.3628  1.2211  0.8800
  152THF     C3 3406   4.359   4.496   4.493 -0.2138 -0.4134  0.5251
  152THF     H4 3407   4.250   4.701   4.627  2.4599 -0.6278 -0.1000
  152THF     H5 3408   4.082   4.631   4.614 -1.7198  0.6287 -2.2487
  152THF     H6 3409   4.445   4.548   4.536  1.0048 -2.1157  0.2913
  152THF     H7 3410   4.384   4.390   4.480  1.9214  0.1811 -0.7448
  152THF     C8 3411   4.293   4.561   4.370 -0.1071 -0.7212  0.3841
  152THF     C9 3412   4.194   4.663   4.422  0.3325 -0.2107  0.0258
  152THF    H10 3413   4.241   4.482   4.317  0.1737 -0.9914  0.5088
  152THF    H11 3414   4.359   4.605   4.295 -1.5431 -3.1386 -2.5023
  152THF    H12 3415   4.226   4.765   4.400  0.5730 -0.8078 -2.7750
  152THF    H13 3416   4.097   4.657   4.374 -0.2201 -0.8976  1.1859
  153THF     O1 3417   1.297   0.501   2.209 -0.0176 -0.0639 -0.3925
  153THF     C2 3418   1.336   0.539   2.075 -0.0123 -0.4240 -0.2056
  153THF     C3 3419   1.313   0.361   2.237 -0.2189 -0.1941  0.2671
  153THF     H4 3420   1.365   0.644   2.068 -1.2080 -0.0660 -0.0037
  153THF     H5 3421   1.249   0.529   2.010 -0.9812  0.0566  0.9901
  153THF     H6 3422   1.329   0.332   2.341 -1.5401 -2.0562  0.0130
  153THF     H7 3423   1.223   0.308   2.204 -0.1439  0.0748 -0.3695
  153THF     C8 3424   1.438   0.327   2.149 -0.2213  0.0670 -0.4059
  153THF     C9 3425   1.450   0.440   2.041  0.1744 -0.9522  0.2599
  153THF    H10 3426   1.406   0.235   2.099 -1.7471  0.6862 -0.6166
  153THF    H11 3427   1.530   0.316   2.206 -1.9998 -0.1804  2.5988
  153THF    H12 3428   1.547   0.489   2.054  0.0151 -1.3049  3.8643
  153THF    H13 3429   1.440   0.393   1.943 -3.7626  0.2675 -0.0842
  154THF     O1 3430   4.559   2.865   5.254  0.3902  0.4358 -0.2870
  154THF     C2 3431   4.444   2.957   5.257 -0.3935  0.1841  0.2263
  154THF     C3 3432   4.643   2.905   5.359 -0.1413 -0.6537 -0.5161
  154THF     H4 3433   4.366   2.924   5.326 -1.9186  1.2626 -0.9091
  154THF     H5 3434   4.388   2.961   5.164 -1.1324  2.6709  0.7034
  154THF     H6 3435   4.592   2.865   5.447  0.6248 -0.8348 -0.1499
  154THF     H7 3436   4.741   2.859   5.354 -0.5019 -1.4880 -0.1500
  154THF     C8 3437   4.650   3.050   5.351 -0.6538 -0.3411 -0.5509
  154THF     C9 3438   4.515   3.092   5.297 -0.4859 -0.2458  0.2833
  154THF    H10 3439   4.733   3.097   5.298  0.7302 -1.8072  0.2085
  154THF    H11 3440   4.668   3.099   5.447  1.3567  2.0030 -1.9910
  154THF    H12 3441   4.456   3.149   5.368 -1.6663  0.6730 -1.3512
  154THF    H13 3442   4.521   3.159   5.211 -0.2195 -0.7461 -0.0948
  155THF     O1 3443   0.926   1.235   0.233 -0.2799 -0.0749 -0.0198
  155THF     C2 3444   1.065   1.219   0.224 -0.6320 -0.3962  0.6233
  155THF     C3 3445   0.875   1.262   0.101 -0.4114 -0.4677  0.6229
  155THF     H4 3446   1.090   1.126   0.173 -1.0606 -0.6079  0.7911
  155THF     H5 3447   1.121   1.223   0.317  0.7927 -0.1662 -0.2208
  155THF     H6 3448   0.860   1.169   0.046  0.8174 -1.8869  2.5688
  155THF     H7 3449   0.775   1.301   0.120  0.8199  1.5198  3.7025
  155THF     C8 3450   0.984   1.347   0.034  1.1453 -0.2011 -0.6341
  155THF     C9 3451   1.092   1.339   0.137 -0.4614  0.0435 -0.5119
  155THF    H10 3452   0.953   1.448   0.007  1.1031  0.1563  0.6841
  155THF    H11 3453   1.022   1.295  -0.053  2.5615  0.8954 -0.7074
  155THF    H12 3454   1.195   1.334   0.102 -0.7932 -0.4290 -1.4828
  155THF    H13 3455   1.088   1.430   0.197 -0.1528 -1.2772  1.5922
  156THF     O1 3456   1.856   4.276   0.938  0.1094 -0.2915 -0.2778
  156THF     C2 3457   1.965   4.305   0.852  0.2134  0.4517  0.0643
  156THF     C3 3458   1.734   4.281   0.870  0.0330  0.3477 -0.4384
  156THF     H4 3459   2.047   4.249   0.896  0.7077  1.5241  0.5542
  156THF     H5 3460   1.992   4.410   0.867  2.1203  0.2279 -1.3031
  156THF     H6 3461   1.683   4.188   0.894  0.0949 -0.2278 -2.3290
  156THF     H7 3462   1.672   4.366   0.897 -1.1128 -1.0626  1.6608
  156THF     C8 3463   1.770   4.275   0.720  0.1497 -1.0889  0.9098
  156THF     C9 3464   1.918   4.259   0.719 -0.2870 -0.3269 -0.1137
  156THF    H10 3465   1.733   4.367   0.674 -2.3385 -1.3736  2.1646
  156THF    H11 3466   1.711   4.191   0.683  0.3685 -0.9453  0.2189
  156THF    H12 3467   1.934   4.151   0.716 -3.2252 -0.8387 -0.3845
  156THF    H13 3468   1.964   4.315   0.638  1.5898 -2.3739 -0.5462
  157THF     O1 3469   4.025   3.401   3.614  0.1854  0.2859  0.2848
  157THF     C2 3470   3.931   3.395   3.509 -0.3261  0.1410  0.2022
  157THF     C3 3471   4.123   3.301   3.595 -0.1203  0.5294 -0.4223
  157THF     H4 3472   3.872   3.487   3.508 -0.0840  0.3888  2.5027
  157THF     H5 3473   3.864   3.309   3.518 -0.9728  0.5691 -0.3752
  157THF     H6 3474   4.214   3.324   3.650  0.2979 -0.8103 -0.5125
  157THF     H7 3475   4.089   3.206   3.635 -0.3914  1.0500  0.6300
  157THF     C8 3476   4.145   3.294   3.444 -0.2685  0.3155  0.0629
  157THF     C9 3477   4.032   3.372   3.391 -0.1649 -0.1133  0.0902
  157THF    H10 3478   4.142   3.194   3.401 -1.3568  0.2774  0.2059
  157THF    H11 3479   4.242   3.340   3.425  0.6174 -0.9801  1.2595
  157THF    H12 3480   4.066   3.468   3.354  0.8684 -0.7842 -0.7648
  157THF    H13 3481   3.988   3.320   3.306 -1.8682  1.5315 -0.1055
  158THF     O1 3482   4.830   5.209   4.504 -0.1075 -1.0327 -0.4808
  158THF     C2 3483   4.948   5.290   4.518 -0.5221 -0.0914  0.8601
  158THF     C3 3484   4.870   5.075   4.517 -0.1730 -0.0760  0.7176
  158THF     H4 3485   4.968   5.310   4.623  3.3976 -0.5520  0.3677
  158THF     H5 3486   4.945   5.387   4.468 -1.6887 -0.0731  0.9401
  158THF     H6 3487   4.875   5.035   4.618  1.8907  2.9556  1.9482
  158THF     H7 3488   4.815   4.994   4.468 -0.8069  0.6841  0.1375
  158THF     C8 3489   5.000   5.068   4.440 -0.2772  0.1044 -0.2111
  158THF     C9 3490   5.068   5.204   4.471  0.7306 -0.4368  0.5925
  158THF    H10 3491   4.978   5.057   4.334  0.0552 -0.1620 -0.2555
  158THF    H11 3492   5.056   4.978   4.465 -1.3717 -0.5114  0.1006
  158THF    H12 3493   5.143   5.186   4.548  1.2717  1.7511  0.6381
  158THF    H13 3494   5.112   5.230   4.374 -0.7826 -0.4387 -0.1255
  159THF     O1 3495   0.348   3.307   1.546  0.2429  0.0845 -0.4743
  159THF     C2 3496   0.222   3.239   1.554  0.1949 -0.3492  0.0770
  159THF     C3 3497   0.419   3.257   1.433 -0.6051 -0.0028 -0.6683
  159THF     H4 3498   0.155   3.283   1.628  0.9938 -0.4300  0.8737
  159THF     H5 3499   0.235   3.136   1.587 -0.4647 -0.3252  0.4271
  159THF     H6 3500   0.507   3.318   1.413 -1.0174  0.0407 -2.5730
  159THF     H7 3501   0.446   3.152   1.444 -0.2096  0.2386  0.8690
  159THF     C8 3502   0.310   3.272   1.334  0.6358 -0.6063  0.5150
  159THF     C9 3503   0.180   3.261   1.413 -0.6420  0.4391 -0.4909
  159THF    H10 3504   0.328   3.193   1.262 -0.7429  0.4247 -1.0266
  159THF    H11 3505   0.315   3.370   1.287  2.6913 -0.0365  1.7775
  159THF    H12 3506   0.121   3.349   1.387 -0.8311 -0.5446 -3.9062
  159THF    H13 3507   0.123   3.174   1.378 -1.1710 -0.4074  2.2651
  160THF     O1 3508   3.275   0.115   1.370  0.4279  0.0841  0.0378
  160THF     C2 3509   3.225   0.238   1.314 -0.2137 -0.4112  0.4300
  160THF     C3 3510   3.163   0.036   1.392  0.4858  0.3244 -0.0559
  160THF     H4 3511   3.187   0.226   1.213  1.4446  2.8185 -0.7158
  160THF     H5 3512   3.304   0.313   1.310  0.8505 -1.5388 -0.4608
  160THF     H6 3513   3.129  -0.028   1.311  0.4302  2.4206 -1.7616
  160THF     H7 3514   3.193  -0.019   1.481  2.9014  2.0216  0.2833
  160THF     C8 3515   3.048   0.139   1.423 -0.2039 -0.4499  0.5431
  160THF     C9 3516   3.111   0.271   1.408 -0.4041 -0.3904  0.4171
  160THF    H10 3517   2.996   0.122   1.517  1.2072 -2.2623  1.0567
  160THF    H11 3518   2.965   0.146   1.352 -0.1759  0.1063  0.5609
  160THF    H12 3519   3.059   0.357   1.367 -0.2337 -0.9532 -1.0147
  160THF    H13 3520   3.149   0.303   1.505  0.9824  0.2356 -0.2996
  161THF     O1 3521   4.147   1.913   1.653  0.2514  0.0749  0.6826
  161THF     C2 3522   4.027   1.845   1.685 -0.1308 -0.0729  0.0315
  161THF     C3 3523   4.161   1.903   1.508 -0.2956 -0.2138 -0.5206
  161THF     H4 3524   3.969   1.886   1.767 -0.7068 -0.4015 -0.2095
  161THF     H5 3525   4.060   1.748   1.722 -0.6884  0.0238  0.7979
  161THF     H6 3526   4.224   1.984   1.475  1.7129 -1.8295 -0.8546
  161THF     H7 3527   4.214   1.811   1.482 -1.6226 -0.9020 -0.8972
  161THF     C8 3528   4.021   1.918   1.456  0.1513  0.3273  0.3322
  161THF     C9 3529   3.944   1.833   1.554  1.1403  0.3028  0.0044
  161THF    H10 3530   4.018   1.888   1.351 -0.1203  0.0386  0.4236
  161THF    H11 3531   3.998   2.024   1.464  1.0850  0.5738 -0.0139
  161THF    H12 3532   3.846   1.882   1.556  0.8126 -0.3024 -0.8009
  161THF    H13 3533   3.934   1.728   1.526 -1.9420  0.4839  0.0375
  162THF     O1 3534   3.959   0.808   4.422 -0.0079 -0.2989  0.6232
  162THF     C2 3535   3.972   0.702   4.327  0.6063  0.0943 -0.0770
  162THF     C3 3536   3.907   0.910   4.337  0.4646 -0.2629 -0.2895
  162THF     H4 3537   3.873   0.659   4.311  0.3815  0.5968 -0.0500
  162THF     H5 3538   4.034   0.631   4.382  0.7695 -1.8295 -2.5901
  162THF     H6 3539   3.799   0.905   4.342  0.5067 -0.0686  1.3129
  162THF     H7 3540   3.931   1.006   4.382 -1.3312 -0.2617  0.7136
  162THF     C8 3541   3.966   0.896   4.195 -0.0444 -0.6093 -0.8389
  162THF     C9 3542   4.035   0.761   4.201  0.2342 -0.1097 -0.4976
  162THF    H10 3543   4.046   0.969   4.184  0.0194 -0.4811  0.3600
  162THF    H11 3544   3.900   0.911   4.110 -1.0224 -2.7814 -0.5428
  162THF    H12 3545   4.010   0.698   4.115 -0.4364 -0.1585 -0.2690
  162THF    H13 3546   4.143   0.773   4.199  0.3685 -1.2826 -1.8256
  163THF     O1 3547   3.903   1.933   3.757  0.2141  0.3345 -0.1969
  163THF     C2 3548   4.012   1.833   3.758  1.3125 -0.6406  0.5999
  163THF     C3 3549   3.866   1.960   3.894  0.3918 -0.3664 -0.0322
  163THF     H4 3550   4.101   1.888   3.788  0.9356 -0.7600  2.0342
  163THF     H5 3551   4.018   1.774   3.667  1.8286  0.6311 -0.2207
  163THF     H6 3552   3.937   2.032   3.933  0.7723 -0.4426 -0.5742
  163THF     H7 3553   3.769   2.010   3.894  0.4193 -0.2626 -1.6659
  163THF     C8 3554   3.868   1.814   3.951  0.7688 -0.1397 -0.1075
  163THF     C9 3555   3.980   1.744   3.877  0.6812 -0.2535 -0.0371
  163THF    H10 3556   3.778   1.762   3.920  0.4908  0.3667 -0.1715
  163THF    H11 3557   3.884   1.826   4.058  1.7523 -0.9360 -0.1534
  163THF    H12 3558   4.065   1.743   3.946 -1.6289 -2.8029  3.1171
  163THF    H13 3559   3.950   1.645   3.846 -0.1085 -0.0135 -0.0492
  164THF     O1 3560   2.631   0.747   2.989 -0.4675  0.6138 -0.0892
  164THF     C2 3561   2.766   0.715   3.023  0.2854  0.6042  0.1844
  164THF     C3 3562   2.581   0.691   2.872  0.3517 -0.9016  0.0600
  164THF     H4 3563   2.777   0.692   3.129  0.9671 -0.6350 -0.1368
  164THF     H5 3564   2.824   0.800   2.987  0.5543  0.5318  0.4430
  164THF     H6 3565   2.516   0.608   2.901  0.3379 -0.8168  0.2756
  164THF     H7 3566   2.527   0.766   2.814 -0.4017 -1.8950 -0.5474
  164THF     C8 3567   2.698   0.642   2.804  0.2649  0.5524  0.1517
  164THF     C9 3568   2.797   0.608   2.923 -0.3544  0.4008 -0.1134
  164THF    H10 3569   2.738   0.720   2.739 -0.2547  1.0572  0.4306
  164THF    H11 3570   2.679   0.553   2.743 -0.5925  0.0248  1.1573
  164THF    H12 3571   2.771   0.508   2.958  0.5635 -0.6194 -2.1956
  164THF    H13 3572   2.905   0.600   2.906 -0.2315  2.9146 -0.8659
  165THF     O1 3573   3.053   2.346   4.169  0.0140 -0.1499  0.2657
  165THF     C2 3574   3.096   2.388   4.300  0.1227  0.0093  0.7246
  165THF     C3 3575   2.989   2.451   4.100 -0.2816 -0.8475  0.2865
  165THF     H4 3576   3.189   2.445   4.295  0.0815  0.0392  0.2543
  165THF     H5 3577   3.115   2.303   4.365 -0.6222  0.4505  1.5442
  165THF     H6 3578   3.066   2.522   4.069 -1.0979  1.0469  2.2720
  165THF     H7 3579   2.941   2.415   4.009  2.5575 -1.8667 -0.9013
  165THF     C8 3580   2.910   2.513   4.211  0.3463  0.2915 -0.3598
  165THF     C9 3581   2.985   2.491   4.338  0.2582  0.1928 -0.3366
  165THF    H10 3582   2.816   2.458   4.212  0.2447  0.4128  1.6817
  165THF    H11 3583   2.880   2.616   4.192  0.6321  0.2776 -0.9123
  165THF    H12 3584   3.046   2.577   4.365  1.8136 -0.3187 -2.0086
  165THF    H13 3585   2.915   2.475   4.420 -1.2264  1.7875 -1.2451
  166THF     O1 3586   4.401   2.747   0.271  0.0560 -0.2439  0.1195
  166THF     C2 3587   4.323   2.750   0.143  1.0711  0.0134 -0.1246
  166THF     C3 3588   4.330   2.670   0.359  0.0231 -0.5026  0.4840
  166THF     H4 3589   4.373   2.739   0.047  1.3736 -1.1516  0.1535
  166THF     H5 3590   4.284   2.851   0.136  0.3700 -0.1378  1.3253
  166THF     H6 3591   4.397   2.634   0.438  1.4536 -0.0739 -0.4826
  166THF     H7 3592   4.258   2.738   0.403  0.9013 -0.7317  2.3879
  166THF     C8 3593   4.267   2.562   0.273  0.3946 -0.1769  0.0225
  166THF     C9 3594   4.215   2.641   0.157 -0.5642 -0.3070  0.1665
  166THF    H10 3595   4.193   2.507   0.332 -0.8242 -0.5456 -1.7581
  166THF    H11 3596   4.344   2.502   0.225  0.6514 -0.2725  0.5496
  166THF    H12 3597   4.206   2.580   0.067  0.5124 -0.1839 -0.0321
  166THF    H13 3598   4.121   2.694   0.177 -1.5417 -2.1746  0.7457
  167THF     O1 3599   2.961   0.101   4.218 -0.1528  0.0354  0.4649
  167THF     C2 3600   2.929   0.121   4.355  0.1334  0.0471 -0.0937
  167THF     C3 3601   2.965   0.225   4.154  0.1419 -0.1077 -0.7957
  167THF     H4 3602   2.976   0.043   4.415  0.0193 -1.3376 -1.7405
  167THF     H5 3603   2.821   0.114   4.370  0.2275 -2.4724 -0.2247
  167THF     H6 3604   3.070   0.237   4.125  1.2856 -2.5804  1.8817
  167THF     H7 3605   2.889   0.244   4.078 -0.7777  0.8100  0.3135
  167THF     C8 3606   2.939   0.326   4.268 -0.4662 -0.6673  0.5012
  167THF     C9 3607   2.985   0.253   4.393  0.3944  0.8821 -0.2357
  167THF    H10 3608   2.832   0.344   4.266 -0.1443  1.3580 -1.1664
  167THF    H11 3609   2.990   0.417   4.237 -0.0565 -1.5251 -1.5480
  167THF    H12 3610   3.092   0.258   4.408  0.5928  0.3979 -1.3914
  167THF    H13 3611   2.937   0.297   4.480 -0.7331 -2.5545  1.0418
  168THF     O1 3612   1.246   1.663   1.813  0.3349  0.2872 -0.4845
  168THF     C2 3613   1.260   1.796   1.776 -0.1587 -0.2494  0.7513
  168THF     C3 3614   1.179   1.659   1.947 -0.3120 -0.3724  0.3640
  168THF     H4 3615   1.238   1.807   1.670 -0.9808 -1.1483  0.8148
  168THF     H5 3616   1.365   1.824   1.783 -0.6170  1.6163  0.8086
  168THF     H6 3617   1.079   1.618   1.947 -1.2126  1.6821  0.2614
  168THF     H7 3618   1.238   1.598   2.016 -0.3755 -0.8403  0.0089
  168THF     C8 3619   1.183   1.800   1.990  0.1815 -0.4527 -0.0883
  168THF     C9 3620   1.166   1.869   1.862 -0.5522  0.6555 -0.5290
  168THF    H10 3621   1.274   1.838   2.038 -0.6286  0.9007  0.4335
  168THF    H11 3622   1.094   1.821   2.050  1.2460  0.2455  1.3282
  168THF    H12 3623   1.063   1.860   1.829 -0.7407 -1.2721  0.4473
  168THF    H13 3624   1.192   1.975   1.871 -0.6539  0.7091 -0.8694
  169THF     O1 3625   1.231   3.473   3.644 -0.4145  0.1935  0.1324
  169THF     C2 3626   1.186   3.378   3.746  0.2314  0.9268 -0.3716
  169THF     C3 3627   1.258   3.600   3.708 -0.0215 -0.0001  0.1569
  169THF     H4 3628   1.271   3.345   3.806 -1.7702 -4.9482 -0.1238
  169THF     H5 3629   1.120   3.298   3.712  0.6837  1.3251 -2.2995
  169THF     H6 3630   1.352   3.587   3.762  0.3974  1.5012 -0.1833
  169THF     H7 3631   1.267   3.681   3.636 -0.5809 -0.4878 -0.4794
  169THF     C8 3632   1.149   3.607   3.807  0.8979 -0.0959  0.2009
  169THF     C9 3633   1.104   3.468   3.836 -0.5493  0.2533 -0.0654
  169THF    H10 3634   1.063   3.654   3.759  1.4719  0.8389  0.0822
  169THF    H11 3635   1.169   3.659   3.900  0.6178  0.4373 -0.0313
  169THF    H12 3636   1.119   3.449   3.943 -4.9360  0.2734  0.7433
  169THF    H13 3637   0.997   3.459   3.817 -0.5392 -1.3885  0.4944
  170THF     O1 3638   4.592   3.931   3.640 -0.4254  0.6788 -0.4454
  170THF     C2 3639   4.566   3.903   3.502 -0.1529 -0.7745 -0.5469
  170THF     C3 3640   4.580   4.077   3.669 -1.0534 -0.3551  0.4665
  170THF     H4 3641   4.512   3.809   3.496 -0.2367 -0.6414 -2.4588
  170THF     H5 3642   4.655   3.898   3.439  1.1723  2.5991  0.8045
  170THF     H6 3643   4.503   4.088   3.746  0.4755  2.0512  1.7849
  170THF     H7 3644   4.672   4.115   3.715 -0.9419  1.6345 -1.2678
  170THF     C8 3645   4.542   4.142   3.531 -0.0150  0.5411 -0.3091
  170THF     C9 3646   4.483   4.029   3.463  0.0468  0.1387  1.0075
  170THF    H10 3647   4.636   4.170   3.483  0.1445 -1.2029 -1.1153
  170THF    H11 3648   4.469   4.222   3.538 -1.3676 -0.6666 -0.2449
  170THF    H12 3649   4.383   4.007   3.502 -0.5316  0.9746  0.0290
  170THF    H13 3650   4.486   4.033   3.354 -0.6431  0.3794  0.9936
  171THF     O1 3651   1.796   5.460   1.155 -0.1622  0.7512  0.5121
  171THF     C2 3652   1.848   5.515   1.040 -0.6508 -0.3877  0.2968
  171THF     C3 3653   1.653   5.459   1.126  0.1922 -0.0175 -0.2984
  171THF     H4 3654   1.828   5.448   0.957 -0.9992  2.1382 -1.7768
  171THF     H5 3655   1.954   5.531   1.058 -0.9436  1.3590  0.7055
  171THF     H6 3656   1.630   5.382   1.053 -1.6558  1.8478 -1.8168
  171THF     H7 3657   1.598   5.427   1.215  0.0354 -3.5656 -1.5192
  171THF     C8 3658   1.625   5.594   1.064  0.0298  0.6269  0.6659
  171THF     C9 3659   1.766   5.642   1.009 -0.2573  0.9881 -0.5439
  171THF    H10 3660   1.577   5.662   1.135 -0.0419 -0.7158  1.9451
  171THF    H11 3661   1.560   5.596   0.976  1.6217  1.1201 -0.5413
  171THF    H12 3662   1.761   5.676   0.906 -1.7981  0.8894 -0.5348
  171THF    H13 3663   1.802   5.722   1.074 -1.5664  0.2874  1.1334
  172THF     O1 3664   4.430   1.174   1.274  0.1155  0.4805 -0.0502
  172THF     C2 3665   4.320   1.212   1.193 -0.9691 -0.1857 -0.0158
  172THF     C3 3666   4.542   1.136   1.196 -0.3201  0.1601  0.0616
  172THF     H4 3667   4.343   1.307   1.143 -0.2386  0.1655  0.9451
  172THF     H5 3668   4.232   1.221   1.256  1.1831 -0.1667  3.2664
  172THF     H6 3669   4.590   1.229   1.165 -1.5961  1.3652  1.5288
  172THF     H7 3670   4.609   1.070   1.250 -1.8330 -3.1426 -1.7565
  172THF     C8 3671   4.473   1.054   1.084  0.7434 -0.1124  0.4207
  172THF     C9 3672   4.324   1.098   1.086 -0.4221 -1.1981 -0.2577
  172THF    H10 3673   4.492   0.947   1.090  0.1543 -0.3940 -1.9082
  172THF    H11 3674   4.519   1.071   0.986 -0.0287 -0.1975  0.0353
  172THF    H12 3675   4.292   1.133   0.988  0.0225 -1.4742 -0.5043
  172THF    H13 3676   4.252   1.023   1.119 -1.3000  0.5047  1.9665
  173THF     O1 3677   0.755   4.893   2.644  0.0185 -0.3640  0.5075
  173THF     C2 3678   0.631   4.849   2.593  0.2793  0.0921 -0.1328
  173THF     C3 3679   0.829   4.778   2.667  0.0856  0.2600 -0.0849
  173THF     H4 3680   0.603   4.935   2.531 -1.2835  2.6894  3.7659
  173THF     H5 3681   0.559   4.842   2.674  1.4992  0.9260  1.0527
  173THF     H6 3682   0.934   4.802   2.682 -0.2701  1.7025  0.2998
  173THF     H7 3683   0.795   4.731   2.760  0.4717  0.4324  0.1448
  173THF     C8 3684   0.792   4.689   2.554  0.2258 -0.3030  1.1299
  173THF     C9 3685   0.647   4.713   2.518 -0.2016 -0.1959 -0.2350
  173THF    H10 3686   0.810   4.582   2.568  1.7168 -0.0652  1.2182
  173THF    H11 3687   0.852   4.717   2.467 -0.2992 -0.6880  0.6394
  173THF    H12 3688   0.622   4.732   2.414  1.4417  2.8098 -0.1726
  173THF    H13 3689   0.564   4.658   2.563 -0.8731  1.2496  0.3338
  174THF     O1 3690   3.518   2.705   4.561 -0.3894  0.2266 -0.2883
  174THF     C2 3691   3.524   2.704   4.417 -0.5436 -0.1547  0.3904
  174THF     C3 3692   3.600   2.809   4.607 -0.0094 -0.2411  1.0182
  174THF     H4 3693   3.454   2.779   4.380 -0.9789  0.3363  2.1496
  174THF     H5 3694   3.497   2.608   4.371 -1.8408  0.4229 -0.1043
  174THF     H6 3695   3.541   2.890   4.649  0.3924  2.4903 -3.1815
  174THF     H7 3696   3.661   2.776   4.691  1.6295 -1.9551 -0.7491
  174THF     C8 3697   3.684   2.853   4.494 -0.2209 -0.2416  0.1103
  174THF     C9 3698   3.668   2.752   4.379  0.7339  0.0337  0.1844
  174THF    H10 3699   3.786   2.865   4.529 -0.2936  0.2343  0.1579
  174THF    H11 3700   3.635   2.948   4.470  0.2411 -0.6423 -2.9086
  174THF    H12 3701   3.671   2.788   4.276  4.7579 -1.0121 -0.2256
  174THF    H13 3702   3.745   2.675   4.390 -0.9921 -1.4727  2.5581
  175THF     O1 3703   0.891   2.378   1.046  0.0305 -0.1397 -0.2077
  175THF     C2 3704   0.810   2.478   0.980  0.8208 -0.8773 -0.0830
  175THF     C3 3705   1.016   2.382   0.987 -0.7376 -0.4890 -0.3262
  175THF     H4 3706   0.745   2.526   1.053  1.4467  1.1502 -0.8153
  175THF     H5 3707   0.752   2.441   0.895 -0.3302 -1.6078  0.9748
  175THF     H6 3708   1.094   2.342   1.052 -0.8544 -1.3429 -0.7010
  175THF     H7 3709   1.004   2.323   0.896  0.3742 -0.0978 -0.7478
  175THF     C8 3710   1.051   2.528   0.956  0.5738 -0.2774  0.7259
  175THF     C9 3711   0.909   2.587   0.928 -0.2460  0.1066 -0.9623
  175THF    H10 3712   1.120   2.534   0.872 -1.6284  1.2720 -1.1185
  175THF    H11 3713   1.105   2.582   1.033  2.1450  2.5589 -2.1004
  175THF    H12 3714   0.882   2.683   0.972 -2.8952 -2.1984  3.0791
  175THF    H13 3715   0.904   2.609   0.821 -0.3557  0.3563 -0.9062
  176THF     O1 3716   5.472   1.879   4.745  0.2060  0.4365  0.0829
  176THF     C2 3717   5.544   1.987   4.799 -0.2498 -0.8431 -0.3728
  176THF     C3 3718   5.333   1.899   4.760  0.6210  0.2697 -0.8245
  176THF     H4 3719   5.556   2.070   4.730 -0.1130  1.3960  2.1565
  176THF     H5 3720   5.645   1.957   4.827  0.1282  1.7052  1.2840
  176THF     H6 3721   5.301   1.973   4.687 -0.5049  0.9794  0.3582
  176THF     H7 3722   5.278   1.808   4.739  0.1505  0.2662  0.3519
  176THF     C8 3723   5.322   1.957   4.899 -0.1928  0.0876 -0.6953
  176THF     C9 3724   5.462   2.029   4.921 -0.2834 -0.4048  0.3561
  176THF    H10 3725   5.316   1.883   4.979 -0.8733  1.5358  0.6578
  176THF    H11 3726   5.238   2.024   4.918 -1.1765 -1.5731  1.1575
  176THF    H12 3727   5.439   2.135   4.914 -2.7886 -0.9925 -2.2809
  176THF    H13 3728   5.519   2.006   5.011 -0.0767  0.2086  0.3872
  177THF     O1 3729   4.970   4.100   4.331  0.0329  0.3150  0.3693
  177THF     C2 3730   5.098   4.040   4.348  0.7917  0.0398 -0.2882
  177THF     C3 3731   4.995   4.244   4.319 -0.1179 -0.1223 -0.4885
  177THF     H4 3732   5.098   3.931   4.340  1.6049 -0.2164  2.2500
  177THF     H5 3733   5.127   4.069   4.449  1.2607  1.2189 -0.7529
  177THF     H6 3734   4.924   4.310   4.268  1.5721 -0.0591 -2.9471
  177THF     H7 3735   5.006   4.281   4.420  2.2891 -0.2811 -0.6218
  177THF     C8 3736   5.122   4.254   4.243 -0.1884  0.6126  0.0802
  177THF     C9 3737   5.181   4.111   4.241  0.1228  0.1610 -0.0992
  177THF    H10 3738   5.191   4.330   4.277  0.9915 -0.8865  1.1746
  177THF    H11 3739   5.100   4.280   4.139 -0.1010  0.0652 -0.0818
  177THF    H12 3740   5.158   4.074   4.141  1.5623  2.7196 -1.4813
  177THF    H13 3741   5.288   4.117   4.257  0.1760  0.4148 -0.5431
  178THF     O1 3742   0.617   0.963   0.834 -0.0439  0.2070  0.3860
  178THF     C2 3743   0.721   0.908   0.911  0.1486 -0.0386 -0.1992
  178THF     C3 3744   0.611   0.907   0.699 -0.1253  0.9387 -0.6213
  178THF     H4 3745   0.703   0.925   1.017 -0.5217 -0.4652 -0.2387
  178THF     H5 3746   0.811   0.952   0.869 -0.1870  0.1322 -0.7378
  178THF     H6 3747   0.513   0.907   0.652  0.1311 -1.4176 -1.2898
  178THF     H7 3748   0.679   0.966   0.637  0.1610  1.3185  0.0499
  178THF     C8 3749   0.661   0.763   0.717  0.1065 -0.0948 -0.3994
  178THF     C9 3750   0.689   0.762   0.871 -0.0860  0.1675 -0.1415
  178THF    H10 3751   0.754   0.745   0.663  1.5878 -0.8521  2.2500
  178THF    H11 3752   0.585   0.689   0.692 -0.7860  1.3253 -2.1428
  178THF    H12 3753   0.601   0.730   0.927 -0.3100  1.9711  0.6105
  178THF    H13 3754   0.774   0.706   0.907  0.5479  1.8434  1.1280
  179THF     O1 3755   2.722   1.578   4.129 -0.0885 -0.5189 -0.1596
  179THF     C2 3756   2.743   1.473   4.229 -0.5887  0.0602 -0.1863
  179THF     C3 3757   2.620   1.539   4.043 -0.7572  0.6491  0.1555
  179THF     H4 3758   2.738   1.526   4.324 -0.8582 -0.4187  0.0765
  179THF     H5 3759   2.836   1.423   4.202 -0.4459  0.1010  0.2150
  179THF     H6 3760   2.568   1.618   3.987  0.0977  1.0654 -0.0574
  179THF     H7 3761   2.677   1.490   3.964 -1.9422  1.4613 -1.2672
  179THF     C8 3762   2.534   1.434   4.123 -0.2294 -0.0948  0.5225
  179THF     C9 3763   2.631   1.376   4.224  1.1248  0.4975  0.3998
  179THF    H10 3764   2.478   1.367   4.059 -1.8229  0.6358  1.0805
  179THF    H11 3765   2.457   1.483   4.182  0.6427  0.0102  1.6151
  179THF    H12 3766   2.587   1.356   4.322  2.9289 -0.3734  1.0850
  179THF    H13 3767   2.664   1.280   4.184  3.6946  0.4577  2.3205
  180THF     O1 3768   1.309   1.547   0.675 -0.4887 -0.0189  0.0595
  180THF     C2 3769   1.252   1.450   0.586  0.1018  0.4743  0.9874
  180THF     C3 3770   1.433   1.486   0.716  0.1399 -0.2314 -0.4069
  180THF     H4 3771   1.164   1.487   0.534  0.0769  0.3302  0.9261
  180THF     H5 3772   1.218   1.365   0.646 -3.3236  0.8992 -0.1610
  180THF     H6 3773   1.507   1.557   0.752  1.2448 -2.1661  1.4152
  180THF     H7 3774   1.415   1.421   0.802  1.2560 -0.6506 -0.4711
  180THF     C8 3775   1.475   1.407   0.587 -0.6594 -0.2713  0.0427
  180THF     C9 3776   1.368   1.427   0.493  0.1046  0.3723 -0.6330
  180THF    H10 3777   1.468   1.299   0.598 -0.4783 -0.5319 -1.9708
  180THF    H11 3778   1.579   1.428   0.563 -0.0909 -1.3124  1.4813
  180THF    H12 3779   1.379   1.519   0.437 -1.4171  0.1979 -1.2762
  180THF    H13 3780   1.347   1.338   0.433 -1.2845 -1.2352  2.0216
  181THF     O1 3781   0.461   3.294   0.503  0.0306 -0.0506  0.0989
  181THF     C2 3782   0.567   3.367   0.551 -0.5307 -0.5430 -0.4891
  181THF     C3 3783   0.503   3.162   0.477  0.3624  0.5153  0.4650
  181THF     H4 3784   0.559   3.385   0.658  2.5308 -1.8318  0.0734
  181THF     H5 3785   0.561   3.469   0.514  0.3011 -0.4960 -0.5143
  181THF     H6 3786   0.464   3.109   0.564  1.8234 -0.3677  0.6085
  181THF     H7 3787   0.467   3.112   0.387 -0.8363  2.7560 -0.3907
  181THF     C8 3788   0.654   3.155   0.487 -0.1273  0.0219  0.1245
  181THF     C9 3789   0.693   3.304   0.493 -0.2977  0.3297 -0.4089
  181THF    H10 3790   0.696   3.104   0.400 -0.6480  1.0748 -0.7701
  181THF    H11 3791   0.666   3.100   0.580  1.0851  0.8516  0.4749
  181THF    H12 3792   0.776   3.331   0.558  0.5472 -0.8611 -0.9318
  181THF    H13 3793   0.713   3.339   0.392 -0.6289  1.5545 -0.0611
  182THF     O1 3794   2.467   0.335   4.307  0.1780  0.1243  0.2336
  182THF     C2 3795   2.561   0.400   4.390  0.2316 -0.3588 -0.3896
  182THF     C3 3796   2.502   0.375   4.176 -0.8435 -0.1211  0.3975
  182THF     H4 3797   2.642   0.330   4.410  0.6703  0.1545 -0.3300
  182THF     H5 3798   2.496   0.423   4.475  0.0881  1.2806 -0.9034
  182THF     H6 3799   2.586   0.318   4.137 -0.7703  1.2143 -1.5623
  182THF     H7 3800   2.415   0.356   4.114 -2.0594  0.1037  1.9935
  182THF     C8 3801   2.543   0.521   4.185  0.1254 -0.2377  0.5617
  182THF     C9 3802   2.591   0.531   4.327  0.6559  0.4714 -1.0269
  182THF    H10 3803   2.461   0.590   4.168  0.2096 -0.4886 -1.0478
  182THF    H11 3804   2.620   0.548   4.112 -1.1001 -0.7498 -0.9721
  182THF    H12 3805   2.696   0.554   4.342  0.4758  1.8062 -1.6785
  182THF    H13 3806   2.535   0.607   4.381  1.1559 -0.5951  1.0938
  183THF     O1 3807   4.679   3.553   2.304  0.2275 -0.2432  0.2781
  183THF     C2 3808   4.699   3.606   2.180 -0.2338  0.9114  0.0159
  183THF     C3 3809   4.728   3.421   2.303 -0.1768  0.2402 -0.2897
  183THF     H4 3810   4.726   3.711   2.194 -1.6935  1.1938  0.9716
  183THF     H5 3811   4.613   3.598   2.113  0.2143  1.4397 -0.6278
  183THF     H6 3812   4.755   3.387   2.403  0.5145 -0.6832 -0.7778
  183THF     H7 3813   4.643   3.357   2.277 -1.4574  1.1978  1.3059
  183THF     C8 3814   4.844   3.424   2.204  0.6973  0.1433 -0.2295
  183THF     C9 3815   4.820   3.537   2.116  0.2959  0.1143  0.1729
  183THF    H10 3816   4.853   3.333   2.144 -2.9655 -0.2172 -0.4961
  183THF    H11 3817   4.937   3.426   2.261 -0.5318  0.3858  1.9064
  183THF    H12 3818   4.907   3.603   2.115 -0.4672  1.2789  2.5275
  183THF    H13 3819   4.797   3.501   2.016 -1.0625  1.7796 -0.1540
  184THF     O1 3820   0.898   2.126   2.111  0.4679 -0.0291  0.3064
  184THF     C2 3821   0.917   2.167   2.246 -0.0716  0.0305 -0.0851
  184THF     C3 3822   0.996   2.191   2.030  0.4597  0.2219  0.3004
  184THF     H4 3823   0.859   2.104   2.313  0.7964 -0.5850  0.1024
  184THF     H5 3824   0.886   2.270   2.260 -3.1896 -0.9596  1.1551
  184THF     H6 3825   0.997   2.141   1.933  2.6144  0.5896  0.0739
  184THF     H7 3826   0.983   2.299   2.025  2.1164  0.3892 -2.1744
  184THF     C8 3827   1.125   2.163   2.109 -0.3798  0.5563  0.8384
  184THF     C9 3828   1.072   2.135   2.248  0.7673  0.1994 -0.5598
  184THF    H10 3829   1.178   2.258   2.117 -0.8604  0.8981  0.0963
  184THF    H11 3830   1.176   2.076   2.069  0.3404  1.7000 -0.8685
  184THF    H12 3831   1.092   2.030   2.270  1.3784  0.2101 -1.0221
  184THF    H13 3832   1.114   2.204   2.321 -0.4524 -0.6934  1.0458
  185THF     O1 3833   5.068   5.234   3.963  1.1922  0.0788 -0.4951
  185THF     C2 3834   5.014   5.230   4.097  0.0727 -0.1735 -0.5727
  185THF     C3 3835   4.999   5.337   3.893  0.2396 -0.3118  0.2603
  185THF     H4 3836   5.084   5.272   4.168  0.6255 -0.6044 -0.8449
  185THF     H5 3837   4.994   5.126   4.122  2.1279 -0.4090  0.2708
  185THF     H6 3838   5.049   5.431   3.914 -1.9050  0.6885  1.2579
  185THF     H7 3839   4.988   5.327   3.785  0.1413  2.4162 -0.0552
  185THF     C8 3840   4.866   5.339   3.960  0.1821  0.2847 -0.5218
  185THF     C9 3841   4.891   5.312   4.107  0.1175  0.3063  0.0525
  185THF    H10 3842   4.797   5.265   3.920 -0.1331  0.0832  0.3666
  185THF    H11 3843   4.822   5.437   3.944  0.1044  0.6720  1.7360
  185THF    H12 3844   4.910   5.404   4.163 -0.1269 -0.8452  2.1455
  185THF    H13 3845   4.803   5.261   4.147 -0.4575 -0.1501 -1.7012
  186THF     O1 3846   2.577   1.796   5.026 -0.2091 -0.3404 -0.0739
  186THF     C2 3847   2.718   1.837   5.033  0.7646 -0.5940 -0.6830
  186THF     C3 3848   2.517   1.866   4.913 -0.6637  0.0183 -0.1885
  186THF     H4 3849   2.790   1.761   5.002  0.0830 -1.3175 -0.5097
  186THF     H5 3850   2.724   1.864   5.139  1.2180  1.5844 -1.2040
  186THF     H6 3851   2.461   1.802   4.845 -0.8085 -0.6833  0.5743
  186THF     H7 3852   2.445   1.934   4.958 -0.4192 -0.9304  1.7356
  186THF     C8 3853   2.624   1.950   4.838 -0.1438 -0.4212 -0.0705
  186THF     C9 3854   2.731   1.961   4.949  0.8676  0.6967 -0.0431
  186THF    H10 3855   2.580   2.045   4.807 -1.8981 -0.7200  1.3439
  186THF    H11 3856   2.660   1.895   4.752 -1.2553 -0.1225 -0.7438
  186THF    H12 3857   2.828   1.976   4.901  0.2708 -1.4640 -2.1537
  186THF    H13 3858   2.707   2.047   5.011  0.1276  1.5151 -1.4300
  187THF     O1 3859   2.186   3.880   4.226 -0.2778 -0.0887  0.7436
  187THF     C2 3860   2.208   3.975   4.326 -0.1637  0.1915  0.7034
  187THF     C3 3861   2.121   3.768   4.283  0.3921  1.1012 -0.1824
  187THF     H4 3862   2.123   4.042   4.319 -0.3712 -0.2374 -1.3623
  187THF     H5 3863   2.296   4.035   4.300  0.1615  0.1938  1.7426
  187THF     H6 3864   2.018   3.764   4.245  0.5308 -0.7137 -0.4769
  187THF     H7 3865   2.174   3.678   4.253  1.6117  1.8714 -0.3875
  187THF     C8 3866   2.133   3.786   4.433  0.0858 -0.3587 -0.2945
  187THF     C9 3867   2.220   3.903   4.463  0.4360 -0.3983  0.1735
  187THF    H10 3868   2.158   3.695   4.487 -1.2063 -1.1948 -1.0511
  187THF    H11 3869   2.031   3.799   4.470  0.0993  0.1255 -0.4240
  187THF    H12 3870   2.180   3.960   4.547 -1.0912 -1.3044  0.0997
  187THF    H13 3871   2.328   3.889   4.469  0.5067 -0.3765 -0.8871
  188THF     O1 3872   1.292   1.900   4.377 -0.1997  0.3558  0.2588
  188THF     C2 3873   1.161   1.875   4.321 -0.0661 -0.8333  0.3178
  188THF     C3 3874   1.388   1.813   4.317 -0.4052 -0.1171  0.1257
  188THF     H4 3875   1.089   1.952   4.348  1.2481 -0.0320  1.6828
  188THF     H5 3876   1.120   1.782   4.359 -1.6956 -0.4125 -0.3202
  188THF     H6 3877   1.485   1.863   4.318 -1.5952  2.6186 -2.5306
  188THF     H7 3878   1.398   1.713   4.358  0.2960 -1.3190 -2.7345
  188THF     C8 3879   1.339   1.801   4.166 -0.1205  0.3974 -0.1663
  188THF     C9 3880   1.195   1.843   4.173  0.3050 -0.5171 -0.2436
  188THF    H10 3881   1.362   1.703   4.125 -0.9000  0.7391 -1.4464
  188THF    H11 3882   1.402   1.870   4.111 -0.4627  1.7667  1.0892
  188THF    H12 3883   1.192   1.933   4.112  1.0054  0.6005  1.3213
  188THF    H13 3884   1.119   1.777   4.130 -0.2982  0.1771 -0.2551
  189THF     O1 3885   1.591   3.318   2.015  0.3023 -0.1486 -0.0487
  189THF     C2 3886   1.641   3.323   2.148  0.2050 -0.2724  0.5684
  189THF     C3 3887   1.511   3.196   2.001 -0.1646 -0.7379  0.4404
  189THF     H4 3888   1.678   3.422   2.175 -1.9726 -0.2045  3.8451
  189THF     H5 3889   1.721   3.254   2.174 -0.1329  0.1100  2.8319
  189THF     H6 3890   1.431   3.194   1.927 -0.0836 -1.3745  0.3582
  189THF     H7 3891   1.577   3.116   1.966  2.2881  1.6053 -0.6198
  189THF     C8 3892   1.454   3.160   2.137 -0.1507 -0.3932  0.9731
  189THF     C9 3893   1.517   3.273   2.222 -0.4103 -0.4647  0.0148
  189THF    H10 3894   1.499   3.063   2.155  4.7982  1.6844  1.2654
  189THF    H11 3895   1.345   3.160   2.132 -0.1701  2.0432  0.2877
  189THF    H12 3896   1.446   3.354   2.237 -1.6551 -1.5102 -0.0999
  189THF    H13 3897   1.546   3.235   2.320  1.5067 -0.2972 -0.4393
  190THF     O1 3898   3.740   4.929   0.941 -0.3879 -0.1103 -0.3158
  190THF     C2 3899   3.842   5.008   0.874 -0.2983 -0.8978 -0.1845
  190THF     C3 3900   3.808   4.852   1.041  0.4459 -0.3421 -0.3478
  190THF     H4 3901   3.801   5.102   0.836  0.8256  0.2044  1.2588
  190THF     H5 3902   3.884   4.957   0.787 -1.9025 -0.1256 -1.4884
  190THF     H6 3903   3.734   4.848   1.121 -1.4385 -1.3579 -2.0357
  190THF     H7 3904   3.822   4.747   1.015  2.8762 -0.3095  0.5917
  190THF     C8 3905   3.953   4.901   1.058  0.1098  0.5483  0.3143
  190THF     C9 3906   3.955   5.032   0.983 -0.6157  0.2996  0.4646
  190THF    H10 3907   4.025   4.833   1.014 -1.5087  0.0703 -1.7791
  190THF    H11 3908   3.978   4.906   1.164 -0.8298  0.4853  0.5446
  190THF    H12 3909   3.934   5.119   1.044  0.3259  0.7883  0.1124
  190THF    H13 3910   4.043   5.053   0.921  0.1818  0.9272  1.7720
  191THF     O1 3911   2.147   3.874   0.329 -0.3054  0.4417 -0.2073
  191THF     C2 3912   2.073   3.990   0.304  0.0608  0.8658  0.2143
  191THF     C3 3913   2.204   3.889   0.465  1.1554 -0.2339  0.7245
  191THF     H4 3914   2.003   3.974   0.222  0.5077 -2.0394  0.2904
  191THF     H5 3915   2.149   4.060   0.270 -0.4153  0.4216 -1.9260
  191THF     H6 3916   2.204   3.796   0.522 -3.4680 -1.5906 -1.0433
  191THF     H7 3917   2.309   3.917   0.459  1.5463 -0.9528  3.0902
  191THF     C8 3918   2.113   3.990   0.538  1.0169  0.5219 -0.5309
  191THF     C9 3919   2.009   4.031   0.436 -0.0967 -0.0907  0.0222
  191THF    H10 3920   2.186   4.068   0.561 -0.0384  1.3611  0.0669
  191THF    H11 3921   2.061   3.953   0.626 -1.1666  1.4986 -1.3313
  191THF    H12 3922   1.914   3.981   0.453 -1.1440  1.3874 -1.1919
  191THF    H13 3923   1.989   4.138   0.436 -2.4316 -0.4512 -1.4078
  192THF     O1 3924   0.876   3.608   0.651  0.7346 -0.5522  0.5889
  192THF     C2 3925   0.977   3.538   0.714  0.2177  0.2488 -0.1905
  192THF     C3 3926   0.826   3.707   0.746 -0.1969 -0.6644  0.4332
  192THF     H4 3927   1.075   3.548   0.668  0.7043  0.5425  0.8702
  192THF     H5 3928   0.954   3.432   0.720 -2.0646  0.7144  0.1157
  192THF     H6 3929   0.806   3.803   0.697  2.4400  0.1056  0.6994
  192THF     H7 3930   0.732   3.677   0.792  0.4276 -1.2113  1.3942
  192THF     C8 3931   0.928   3.726   0.853  0.2235  0.7115  0.3427
  192THF     C9 3932   0.977   3.585   0.861 -0.2180 -0.0427  0.1008
  192THF    H10 3933   0.887   3.774   0.941 -0.6872  0.2384  0.1839
  192THF    H11 3934   1.015   3.786   0.827  0.5453 -0.2067 -0.8200
  192THF    H12 3935   1.077   3.574   0.901  1.2093  0.4989 -3.0150
  192THF    H13 3936   0.908   3.526   0.921 -1.7589  0.7024 -0.8521
  193THF     O1 3937   1.953   1.883   2.276  0.5535 -0.3001 -0.3027
  193THF     C2 3938   2.028   1.763   2.302  0.6057 -0.2899 -0.5844
  193THF     C3 3939   1.820   1.846   2.293  0.2457 -0.0544  0.0438
  193THF     H4 3940   2.114   1.811   2.349 -1.2965  0.9211  1.8321
  193THF     H5 3941   2.057   1.718   2.207  1.2798  1.9124 -1.4907
  193THF     H6 3942   1.756   1.933   2.310  1.8898  0.8049  2.1905
  193THF     H7 3943   1.779   1.805   2.200 -0.8304  1.7785 -0.3517
  193THF     C8 3944   1.817   1.753   2.413 -0.2823  0.8128  0.3661
  193THF     C9 3945   1.945   1.671   2.393  0.1439  0.0687  0.4211
  193THF    H10 3946   1.721   1.702   2.416  0.6175 -0.9351  0.3586
  193THF    H11 3947   1.820   1.806   2.509  1.3967 -0.2627  0.9528
  193THF    H12 3948   2.005   1.646   2.480  1.4227  1.2265 -0.0880
  193THF    H13 3949   1.931   1.579   2.337 -1.1187 -0.1042  0.9750
  194THF     O1 3950   1.082   0.165   5.470  0.2421 -0.0239 -0.4821
  194THF     C2 3951   1.190   0.229   5.410 -0.3465 -0.2444 -1.0170
  194THF     C3 3952   1.114   0.097   5.593 -0.0873 -0.8061 -0.3128
  194THF     H4 3953   1.167   0.336   5.407  2.5030  0.6266  2.2772
  194THF     H5 3954   1.195   0.186   5.310 -0.3572  0.6240 -1.4019
  194THF     H6 3955   1.082   0.157   5.678  1.8531 -2.2046  1.4998
  194THF     H7 3956   1.065   0.001   5.611 -1.3091 -0.8081 -3.1765
  194THF     C8 3957   1.257   0.073   5.588 -0.0184  0.1136  0.2444
  194THF     C9 3958   1.305   0.192   5.510 -0.2157 -0.5461  0.7491
  194THF    H10 3959   1.272  -0.028   5.548  1.0477  0.2946  0.1560
  194THF    H11 3960   1.309   0.061   5.683  1.6879  2.8563 -0.2385
  194THF    H12 3961   1.320   0.275   5.578  0.2167 -1.3349  1.6341
  194THF    H13 3962   1.391   0.176   5.445 -0.6431 -2.0235  0.5007
  195THF     O1 3963   0.326   5.398   4.737  0.4489 -0.4531 -0.1380
  195THF     C2 3964   0.261   5.485   4.645  0.4737  0.2697  0.5202
  195THF     C3 3965   0.231   5.351   4.827  0.3464  0.0057 -0.1085
  195THF     H4 3966   0.241   5.430   4.553 -0.9857 -0.0408  1.0034
  195THF     H5 3967   0.320   5.573   4.622  0.0629  0.3005 -0.4516
  195THF     H6 3968   0.248   5.246   4.851 -2.9614 -0.4760  0.4736
  195THF     H7 3969   0.229   5.415   4.915  1.6136  2.5139 -1.7520
  195THF     C8 3970   0.097   5.376   4.756  0.3467  0.1741  0.2584
  195THF     C9 3971   0.113   5.511   4.688  0.2320  0.2202 -0.9904
  195THF    H10 3972   0.012   5.365   4.824  1.1691 -2.0501  1.0532
  195THF    H11 3973   0.089   5.296   4.683  0.5597  1.7147 -1.5028
  195THF    H12 3974   0.035   5.530   4.613 -1.6112 -2.0109  0.2402
  195THF    H13 3975   0.108   5.591   4.763 -4.1812 -1.5977  1.0041
  196THF     O1 3976   2.265   2.469   2.844 -0.0536  0.0592  0.1090
  196THF     C2 3977   2.319   2.350   2.889 -0.0993 -0.9422 -0.3286
  196THF     C3 3978   2.157   2.502   2.928 -0.3429  0.5031  0.1688
  196THF     H4 3979   2.380   2.372   2.976  1.0180  0.7741 -1.4776
  196THF     H5 3980   2.374   2.309   2.804 -1.1578  0.0597 -1.5372
  196THF     H6 3981   2.213   2.559   3.001  1.3625 -0.8000 -0.0682
  196THF     H7 3982   2.090   2.573   2.879 -0.1809  0.5192 -0.0312
  196THF     C8 3983   2.093   2.372   2.979  0.2418 -0.1338  0.2847
  196THF     C9 3984   2.199   2.268   2.932  0.4203 -0.3320  0.0270
  196THF    H10 3985   1.993   2.371   2.937  0.7146 -0.8754 -0.8815
  196THF    H11 3986   2.084   2.368   3.088  0.0618  0.3933  0.2897
  196THF    H12 3987   2.224   2.202   3.015 -1.2052  0.0658  0.8647
  196THF    H13 3988   2.159   2.206   2.851 -1.5820  0.2758  0.5095
  197THF     O1 3989   4.816   2.058   4.212  0.2986  0.5970 -0.2976
  197THF     C2 3990   4.734   2.014   4.319 -0.1775  0.2511 -0.0404
  197THF     C3 3991   4.763   1.996   4.092 -0.8820  0.4292  0.4112
  197THF     H4 3992   4.641   2.068   4.335  0.4130  1.4488 -0.5208
  197THF     H5 3993   4.780   2.034   4.417 -0.5114  1.4698 -0.1106
  197THF     H6 3994   4.692   2.065   4.047 -0.5872  0.7155  0.3823
  197THF     H7 3995   4.836   1.963   4.018 -2.1472 -2.1049  0.2045
  197THF     C8 3996   4.688   1.872   4.134 -0.3828 -0.0772 -0.4068
  197THF     C9 3997   4.706   1.870   4.284  0.1619  0.3356 -0.0040
  197THF    H10 3998   4.730   1.786   4.082  1.0990  0.5283 -0.2522
  197THF    H11 3999   4.582   1.882   4.109 -0.9541 -0.6099  1.6109
  197THF    H12 4000   4.618   1.835   4.339  0.1404 -0.8382 -0.7429
  197THF    H13 4001   4.793   1.810   4.310 -0.9386 -0.5291  1.8729
  198THF     O1 4002   2.500   4.253   5.303  0.1827 -0.4843 -0.0275
  198THF     C2 4003   2.444   4.276   5.175  0.0345  0.8908 -0.7196
  198THF     C3 4004   2.639   4.261   5.289 -0.2554 -0.1985  0.3002
  198THF     H4 4005   2.338   4.297   5.188  0.2123  0.6496  1.3764
  198THF     H5 4006   2.449   4.182   5.120 -0.3922  0.7723 -0.5652
  198THF     H6 4007   2.693   4.264   5.383  2.2668  0.6578 -1.0800
  198THF     H7 4008   2.683   4.176   5.237  0.3905  0.4023 -0.1598
  198THF     C8 4009   2.643   4.391   5.209 -0.4186 -0.2620 -0.1380
  198THF     C9 4010   2.523   4.387   5.115 -0.3882 -0.6239 -0.8472
  198THF    H10 4011   2.741   4.394   5.159 -1.3177 -0.1854 -1.9922
  198THF    H11 4012   2.630   4.472   5.280  0.9314  0.5694 -0.7803
  198THF    H12 4013   2.470   4.482   5.120 -0.2114 -0.5744  0.7276
  198THF    H13 4014   2.551   4.368   5.012  0.0428 -1.4302 -0.5968
  199THF     O1 4015   4.137   0.890   4.794  0.1985 -0.0766  0.4384
  199THF     C2 4016   4.273   0.898   4.835  0.1394 -0.7165  0.0620
  199THF     C3 4017   4.140   0.813   4.678 -0.0499  0.7266 -0.3765
  199THF     H4 4018   4.282   0.930   4.939 -1.4465  2.5527 -0.6775
  199THF     H5 4019   4.333   0.965   4.773 -0.1517  1.7501  2.2600
  199THF     H6 4020   4.040   0.773   4.660 -0.7695  2.2525 -0.0129
  199THF     H7 4021   4.153   0.890   4.601  0.0760  2.5641  1.3874
  199THF     C8 4022   4.251   0.712   4.689 -0.9766 -0.4324  0.1352
  199THF     C9 4023   4.320   0.752   4.819 -0.2768  0.1732 -0.9267
  199THF    H10 4024   4.326   0.729   4.612 -1.1478  0.8155  0.2116
  199THF    H11 4025   4.229   0.605   4.690  1.1426 -0.8963  0.6613
  199THF    H12 4026   4.283   0.698   4.906 -0.6990 -0.3499 -1.4211
  199THF    H13 4027   4.428   0.736   4.821 -0.6151 -2.3495  0.1115
  200THF     O1 4028   1.363   1.474   1.321  0.5406 -0.0003  0.1447
  200THF     C2 4029   1.327   1.607   1.286  0.0116 -0.6212 -0.3852
  200THF     C3 4030   1.504   1.470   1.294  0.6249 -0.6986 -0.1661
  200THF     H4 4031   1.232   1.641   1.328  0.8023 -0.6819  1.6030
  200THF     H5 4032   1.313   1.618   1.179  0.1027  0.8196 -0.2639
  200THF     H6 4033   1.536   1.388   1.360 -1.0406  0.3794  2.1232
  200THF     H7 4034   1.525   1.457   1.188  0.8600  1.3024 -0.3913
  200THF     C8 4035   1.553   1.604   1.349  0.3791 -0.4656 -0.2747
  200THF     C9 4036   1.440   1.694   1.331  0.0131  0.1405 -0.0180
  200THF    H10 4037   1.645   1.636   1.300  0.1868 -2.5504 -2.1399
  200THF    H11 4038   1.568   1.591   1.456 -1.6587  0.1827  0.1390
  200THF    H12 4039   1.411   1.756   1.416 -2.3908  1.6062 -1.8034
  200THF    H13 4040   1.462   1.773   1.260 -1.5393 -0.2000 -0.9313
  201THF     O1 4041   0.185   5.198   2.856 -0.5163  0.3871 -0.8056
  201THF     C2 4042   0.080   5.154   2.777 -0.1026 -0.1504  0.3090
  201THF     C3 4043   0.239   5.081   2.927  0.7181  0.1806  0.3085
  201THF     H4 4044   0.052   5.227   2.701  0.5206 -0.4284 -0.1937
  201THF     H5 4045  -0.010   5.141   2.837 -0.1951  0.2530  0.2586
  201THF     H6 4046   0.336   5.094   2.974  0.6608  1.0764  0.1943
  201THF     H7 4047   0.169   5.062   3.009 -0.6410 -0.7521 -1.0124
  201THF     C8 4048   0.234   4.972   2.822 -0.3620 -0.6301 -0.0594
  201THF     C9 4049   0.118   5.011   2.726 -0.0687 -0.6809  0.5879
  201THF    H10 4050   0.232   4.869   2.858 -1.1261 -0.1335  1.3989
  201THF    H11 4051   0.329   4.986   2.772  0.5874 -0.5717  1.6886
  201THF    H12 4052   0.163   5.006   2.626 -2.5156  0.1686 -0.6393
  201THF    H13 4053   0.035   4.942   2.742  0.6142 -1.9766 -1.0668
  202THF     O1 4054   1.022   0.603   3.862  0.1127 -0.2515 -0.5476
  202THF     C2 4055   1.001   0.687   3.970 -0.5651  0.2343  0.4887
  202THF     C3 4056   0.913   0.609   3.773  0.3853  0.1883  0.5706
  202THF     H4 4057   1.054   0.782   3.958  0.6618 -0.3121  1.2981
  202THF     H5 4058   1.056   0.642   4.052  1.9085 -1.6209 -2.0016
  202THF     H6 4059   0.922   0.692   3.703  2.0191  0.7323  1.3759
  202THF     H7 4060   0.914   0.515   3.716  0.4635  1.4597 -1.6526
  202THF     C8 4061   0.794   0.622   3.863 -0.3506  0.2922 -0.7285
  202THF     C9 4062   0.854   0.702   3.978  0.4882  0.7436  0.2864
  202THF    H10 4063   0.785   0.529   3.919 -0.3285  0.5915 -0.2238
  202THF    H11 4064   0.696   0.642   3.819 -0.8029  1.1071  0.5976
  202THF    H12 4065   0.827   0.807   3.966 -1.7558  0.4384  2.0391
  202THF    H13 4066   0.818   0.676   4.077  1.5305  0.3569  0.5782
  203THF     O1 4067   0.055   1.150   1.468 -0.3631 -0.0844 -0.1312
  203THF     C2 4068   0.088   1.026   1.393  0.0383 -0.9421 -0.1796
  203THF     C3 4069   0.184   1.190   1.517  0.3577 -0.3416  0.1882
  203THF     H4 4070   0.015   1.004   1.315  0.2381 -0.9652 -0.3615
  203THF     H5 4071   0.098   0.941   1.460  0.2604 -1.3710 -0.7452
  203THF     H6 4072   0.159   1.289   1.558 -0.0039 -0.2707 -0.2024
  203THF     H7 4073   0.227   1.131   1.598 -0.3860  1.7156  2.2286
  203THF     C8 4074   0.268   1.192   1.392  0.0169  0.7455  0.3564
  203THF     C9 4075   0.211   1.066   1.313 -0.0323  0.3370 -0.2354
  203THF    H10 4076   0.376   1.187   1.411  0.0628  0.3737  0.0249
  203THF    H11 4077   0.257   1.278   1.327 -1.5510 -0.2010 -0.7113
  203THF    H12 4078   0.183   1.093   1.211 -1.8399  2.8827  0.8063
  203THF    H13 4079   0.282   0.985   1.327 -0.5793 -0.2320 -0.7238
  204THF     O1 4080   0.318   4.730   1.270  0.3337  0.2447 -0.1849
  204THF     C2 4081   0.355   4.855   1.312 -0.3332  0.1316 -0.6092
  204THF     C3 4082   0.283   4.636   1.375 -0.7744  0.2469  0.2873
  204THF     H4 4083   0.267   4.920   1.308 -2.3394 -2.3963 -0.5212
  204THF     H5 4084   0.432   4.896   1.247 -1.9398  0.8820 -2.1304
  204THF     H6 4085   0.184   4.590   1.372 -0.7599 -0.1033  2.7161
  204THF     H7 4086   0.371   4.571   1.384 -1.1898 -0.3435  0.1130
  204THF     C8 4087   0.276   4.733   1.498 -0.0200 -0.2246  0.7151
  204THF     C9 4088   0.389   4.831   1.458  0.0191  0.7037 -0.9000
  204THF    H10 4089   0.295   4.693   1.598 -1.2102 -1.3508  0.5255
  204THF    H11 4090   0.177   4.779   1.497 -1.4964 -3.1117 -1.5246
  204THF    H12 4091   0.397   4.916   1.526 -2.0142  0.5518 -0.3985
  204THF    H13 4092   0.485   4.779   1.467 -0.7376 -0.3958  3.0365
  205THF     O1 4093   0.889   3.508   1.380 -0.3098 -0.1565  0.0111
  205THF     C2 4094   1.004   3.480   1.456 -0.1852  0.0885 -0.4684
  205THF     C3 4095   0.824   3.382   1.353 -0.1474 -0.4376 -0.4605
  205THF     H4 4096   1.039   3.566   1.513 -0.2396  0.8502 -1.5592
  205THF     H5 4097   1.074   3.457   1.375 -0.5271 -1.2704 -0.3920
  205THF     H6 4098   0.722   3.400   1.320  0.4810 -0.2595 -2.4280
  205THF     H7 4099   0.870   3.323   1.274 -1.1135  0.0668 -1.4271
  205THF     C8 4100   0.830   3.314   1.486 -0.5602  0.1635  0.2009
  205THF     C9 4101   0.954   3.366   1.548 -0.0822  0.0450 -0.2591
  205THF    H10 4102   0.835   3.206   1.471 -0.1005  0.5085 -2.9089
  205THF    H11 4103   0.745   3.342   1.547 -0.5062  1.4868 -0.2924
  205THF    H12 4104   0.944   3.399   1.651 -0.3331 -0.2514 -0.1868
  205THF    H13 4105   1.040   3.299   1.548  2.0574  2.5951  0.9879
  206THF     O1 4106   0.402   5.311   1.062 -0.1346  0.2350  0.8894
  206THF     C2 4107   0.334   5.426   1.019  1.0964 -0.4498  0.7401
  206THF     C3 4108   0.314   5.197   1.056  0.3680  0.1075 -0.5043
  206THF     H4 4109   0.401   5.510   1.000  0.7117  0.3053  2.5142
  206THF     H5 4110   0.258   5.465   1.086  1.9517  1.4489  0.6606
  206THF     H6 4111   0.380   5.111   1.065 -0.4482 -0.4114  1.0470
  206THF     H7 4112   0.246   5.214   1.140 -0.4845  0.3610 -1.2405
  206THF     C8 4113   0.247   5.220   0.920  0.0234 -0.0830 -0.1361
  206THF     C9 4114   0.287   5.369   0.888 -0.6096  0.2176  0.1139
  206THF    H10 4115   0.141   5.208   0.942 -0.2178  2.5183  0.4642
  206THF    H11 4116   0.268   5.141   0.847 -0.0162  1.2675 -1.6605
  206THF    H12 4117   0.358   5.370   0.804 -0.4837 -2.0107  0.1427
  206THF    H13 4118   0.197   5.422   0.856 -1.1666 -0.1379  1.0538
  207THF     O1 4119   1.081   2.564   1.923 -0.2314  0.3660  0.6751
  207THF     C2 4120   1.108   2.700   1.941  0.2116  0.1460 -0.0374
  207THF     C3 4121   1.196   2.502   1.879 -0.4394 -0.6710 -0.0663
  207THF     H4 4122   1.025   2.749   1.992  0.3089  1.5749 -1.1704
  207THF     H5 4123   1.119   2.748   1.844  1.3191 -0.3627 -0.1830
  207THF     H6 4124   1.192   2.396   1.905 -0.2558 -0.4057  1.0707
  207THF     H7 4125   1.223   2.512   1.774  1.0923  1.2511  0.4472
  207THF     C8 4126   1.300   2.562   1.977 -0.0548 -0.1158  0.3455
  207THF     C9 4127   1.230   2.690   2.027  0.3015 -0.0603 -0.1018
  207THF    H10 4128   1.395   2.581   1.929 -0.3367 -0.0066 -0.1756
  207THF    H11 4129   1.328   2.485   2.049  0.0836  0.0120  0.4271
  207THF    H12 4130   1.191   2.671   2.127 -1.7249  0.1805 -0.7966
  207THF    H13 4131   1.295   2.778   2.034  0.1746  0.0860 -0.6872
  208THF     O1 4132   5.044   3.126   1.271 -0.4226  0.6791 -0.3683
  208THF     C2 4133   5.156   3.200   1.296  0.5722 -1.0399 -0.6556
  208THF     C3 4134   5.067   2.995   1.329  0.2456  0.0798  0.5755
  208THF     H4 4135   5.138   3.307   1.294 -0.3387 -1.1797 -2.7030
  208THF     H5 4136   5.230   3.185   1.218  1.7231 -3.5015  0.8016
  208THF     H6 4137   4.968   2.952   1.340  0.6137 -0.1853  3.7403
  208THF     H7 4138   5.129   2.934   1.263  1.7403  2.2202 -0.1239
  208THF     C8 4139   5.127   3.036   1.462  0.4217  0.5266 -0.1659
  208THF     C9 4140   5.214   3.154   1.430  0.0625 -0.0288 -0.2995
  208THF    H10 4141   5.164   2.952   1.520 -1.0913  1.7897  2.8591
  208THF    H11 4142   5.054   3.067   1.538  0.8686 -0.1371  0.5505
  208THF    H12 4143   5.223   3.225   1.512 -1.2621 -1.6298  1.2892
  208THF    H13 4144   5.317   3.124   1.412 -0.4273 -1.2552 -1.1792
  209THF     O1 4145   4.097   4.657   1.530  0.4744 -0.4756  0.1735
  209THF     C2 4146   4.133   4.523   1.544 -0.4776  0.3591 -0.3586
  209THF     C3 4147   4.170   4.710   1.421 -0.3813  0.9660  0.1418
  209THF     H4 4148   4.064   4.476   1.614 -1.1780  3.5048  1.2786
  209THF     H5 4149   4.233   4.509   1.586 -0.6298  1.4597  0.4282
  209THF     H6 4150   4.129   4.804   1.383  1.0840  0.8784 -1.8391
  209THF     H7 4151   4.275   4.719   1.450  0.0314 -1.3751 -0.4715
  209THF     C8 4152   4.172   4.599   1.314 -0.1686 -0.5919 -0.0103
  209THF     C9 4153   4.129   4.479   1.402 -0.0197  0.1722  0.3649
  209THF    H10 4154   4.269   4.590   1.264 -0.5714  3.2197 -1.8460
  209THF    H11 4155   4.104   4.624   1.232 -0.7922  0.4662  0.8036
  209THF    H12 4156   4.024   4.459   1.384 -0.6307  0.9382  2.6766
  209THF    H13 4157   4.190   4.391   1.384  0.0708 -0.1895  2.2032
  210THF     O1 4158   2.341   2.178   4.032  0.0782  0.2021  0.2305
  210THF     C2 4159   2.298   2.093   3.928  0.3081  0.3600 -0.4378
  210THF     C3 4160   2.330   2.310   3.983 -0.1136 -0.2747 -0.0864
  210THF     H4 4161   2.270   1.995   3.964 -2.1518  1.4318  0.7646
  210THF     H5 4162   2.373   2.091   3.848  1.8991  1.3192  0.9682
  210THF     H6 4163   2.329   2.379   4.067  0.0720  0.7737 -0.9361
  210THF     H7 4164   2.412   2.326   3.914  0.7626 -0.5881  0.8565
  210THF     C8 4165   2.194   2.297   3.912  0.2576 -0.5000  0.5669
  210THF     C9 4166   2.168   2.156   3.880  0.0104 -0.7178 -0.0663
  210THF    H10 4167   2.196   2.353   3.819 -1.6057 -2.0756 -0.5113
  210THF    H11 4168   2.101   2.319   3.965 -1.0692  0.1911 -1.8721
  210THF    H12 4169   2.083   2.120   3.938 -0.3813  0.1405 -0.0845
  210THF    H13 4170   2.139   2.158   3.775  3.3869  1.1928 -1.1154
  211THF     O1 4171   4.019   0.366   1.993 -0.5608 -0.4191  0.1190
  211THF     C2 4172   4.050   0.382   2.131 -0.1746  0.3780 -0.3157
  211THF     C3 4173   4.133   0.304   1.925  0.1738  0.1320  0.4671
  211THF     H4 4174   3.956   0.384   2.186 -0.4199 -0.5526 -0.6883
  211THF     H5 4175   4.115   0.469   2.144  0.4933 -0.3042  1.1474
  211THF     H6 4176   4.104   0.267   1.826  0.0686  0.4698  0.3691
  211THF     H7 4177   4.216   0.374   1.914 -0.1817  0.7010  1.2697
  211THF     C8 4178   4.171   0.200   2.026  0.5166  1.3134 -0.2564
  211THF     C9 4179   4.148   0.264   2.161 -0.0789 -0.0447  0.2150
  211THF    H10 4180   4.274   0.164   2.017  0.3277  0.7624 -0.2871
  211THF    H11 4181   4.108   0.111   2.015  1.0797  1.0140 -1.1861
  211THF    H12 4182   4.118   0.195   2.240 -0.8673 -0.6028 -0.5594
  211THF    H13 4183   4.249   0.296   2.188  0.7323 -1.2717 -1.2088
  212THF     O1 4184   0.154   3.001   1.837 -0.2305  0.6190  0.0175
  212THF     C2 4185   0.172   2.863   1.868  0.8503  0.8534 -0.3134
  212THF     C3 4186   0.247   3.074   1.913 -0.5788 -0.4327 -0.3743
  212THF     H4 4187   0.240   2.813   1.798  0.0496  0.1035 -0.5679
  212THF     H5 4188   0.071   2.824   1.872  1.4553 -0.9240 -0.9683
  212THF     H6 4189   0.348   3.070   1.872  0.0203  0.8511  0.8917
  212THF     H7 4190   0.213   3.178   1.920 -1.6688 -0.8640  1.0629
  212THF     C8 4191   0.231   3.012   2.048 -0.0853  0.3300  0.8281
  212THF     C9 4192   0.229   2.861   2.012 -0.4289  0.0283 -1.0591
  212THF    H10 4193   0.136   3.031   2.097 -0.5970 -1.7336  0.7216
  212THF    H11 4194   0.313   3.038   2.115  0.9599  0.0276 -0.3001
  212THF    H12 4195   0.324   2.808   2.023 -0.1747  0.5632 -0.5963
  212THF    H13 4196   0.155   2.820   2.081 -2.7124  3.9803 -0.8242
  213THF     O1 4197   0.174   2.379   3.285 -0.2996  0.3135 -0.6009
  213THF     C2 4198   0.152   2.300   3.400 -0.1591  0.7744 -0.3828
  213THF     C3 4199   0.283   2.317   3.211  0.4684  0.2552 -0.0975
  213THF     H4 4200   0.072   2.320   3.471  0.4843 -0.8664  0.8365
  213THF     H5 4201   0.240   2.330   3.457 -0.5376 -0.2873  0.8040
  213THF     H6 4202   0.278   2.334   3.104 -0.6223  3.1928  0.3205
  213THF     H7 4203   0.382   2.362   3.220  2.2125 -2.9210 -1.6296
  213THF     C8 4204   0.288   2.170   3.264 -0.4670 -0.1632 -0.6011
  213THF     C9 4205   0.172   2.154   3.359 -0.2595 -0.1362 -0.5412
  213THF    H10 4206   0.383   2.155   3.316 -0.2780 -2.2986 -1.4338
  213THF    H11 4207   0.274   2.089   3.192 -1.8348 -1.0810  0.6104
  213THF    H12 4208   0.081   2.117   3.313 -0.6853 -1.6841  1.3910
  213THF    H13 4209   0.188   2.085   3.442  0.1478 -0.0182 -0.5188
  214THF     O1 4210   4.514   2.297   3.598 -0.0193 -0.7830 -0.1323
  214THF     C2 4211   4.459   2.216   3.704  0.1752  0.2430  0.1483
  214THF     C3 4212   4.406   2.389   3.573  0.3790  0.1757 -0.0088
  214THF     H4 4213   4.461   2.274   3.796  1.7912 -0.7558  0.7843
  214THF     H5 4214   4.522   2.129   3.725 -1.3294 -0.3939  2.4166
  214THF     H6 4215   4.427   2.470   3.643 -0.2643  0.1447  0.2235
  214THF     H7 4216   4.414   2.440   3.476  3.3538  0.5764  0.3500
  214THF     C8 4217   4.276   2.317   3.602 -0.2710  0.0447 -0.4778
  214THF     C9 4218   4.316   2.188   3.667  0.2303  0.0084  1.3333
  214THF    H10 4219   4.237   2.287   3.504 -2.7470  0.9731  0.1456
  214THF    H11 4220   4.206   2.370   3.667  1.3929 -0.6382  2.0085
  214THF    H12 4221   4.269   2.168   3.763 -1.6451 -1.3600  0.1970
  214THF    H13 4222   4.302   2.106   3.598  1.6570  0.1964  0.7838
  215THF     O1 4223   2.977   3.007   5.174  0.0616  0.2574  0.1449
  215THF     C2 4224   2.867   3.015   5.250  0.7456 -0.4182  0.1712
  215THF     C3 4225   3.008   2.868   5.155  0.2002 -0.7485 -0.2036
  215THF     H4 4226   2.777   3.006   5.190 -0.5078  0.0369  1.8945
  215THF     H5 4227   2.852   3.111   5.300  4.6907 -0.6941  2.3384
  215THF     H6 4228   2.951   2.812   5.081  1.3381 -0.6644 -1.1826
  215THF     H7 4229   3.114   2.858   5.130 -0.1490 -0.2262 -2.0341
  215THF     C8 4230   2.990   2.805   5.291 -0.3513 -0.6297 -0.5039
  215THF     C9 4231   2.879   2.896   5.347  0.5809 -0.2049  0.2446
  215THF    H10 4232   3.082   2.818   5.349 -1.0824  2.1213  0.1758
  215THF    H11 4233   2.958   2.702   5.278  1.2791 -1.2914  0.4213
  215THF    H12 4234   2.780   2.852   5.347  1.1707 -1.6449 -1.3112
  215THF    H13 4235   2.908   2.928   5.447  0.9990 -1.0928  0.4201
  216THF     O1 4236   5.115   2.551   1.823  0.0999  0.3726 -0.0280
  216THF     C2 4237   5.087   2.544   1.960 -0.3873 -0.5135 -0.6965
  216THF     C3 4238   5.236   2.631   1.814  0.1639  0.0527  0.6536
  216THF     H4 4239   5.138   2.453   1.990  0.5558 -0.8131 -3.0643
  216THF     H5 4240   4.980   2.532   1.978 -0.3072  1.2458  1.3852
  216THF     H6 4241   5.326   2.574   1.834 -0.0348 -0.3937  0.2897
  216THF     H7 4242   5.246   2.676   1.715  3.0025 -0.2292  0.7424
  216THF     C8 4243   5.223   2.745   1.915 -0.2489 -0.8183  0.2555
  216THF     C9 4244   5.135   2.678   2.016 -0.3225 -0.2461  0.4171
  216THF    H10 4245   5.164   2.821   1.864 -0.2817 -0.1722  1.2316
  216THF    H11 4246   5.314   2.793   1.949 -0.0062 -0.0549 -1.3737
  216THF    H12 4247   5.209   2.659   2.094  0.6191 -2.9193 -1.0039
  216THF    H13 4248   5.056   2.734   2.066  0.7191  0.9022  0.8466
  217THF     O1 4249   0.859   1.589   5.106 -0.1638  0.2604  0.1996
  217THF     C2 4250   0.821   1.627   5.239  0.3134 -0.2796  0.0156
  217THF     C3 4251   0.757   1.639   5.019 -0.3083  0.7315 -0.3439
  217THF     H4 4252   0.830   1.730   5.274 -2.1350 -0.2929  0.8476
  217THF     H5 4253   0.871   1.568   5.316 -0.2259  2.3341  2.5706
  217THF     H6 4254   0.788   1.737   4.984 -1.0959  1.6928  1.5500
  217THF     H7 4255   0.744   1.570   4.935  0.4196  1.2840 -0.9196
  217THF     C8 4256   0.631   1.654   5.103 -0.4475 -0.5746  0.5681
  217THF     C9 4257   0.669   1.598   5.236  0.4654 -0.1139  0.4902
  217THF    H10 4258   0.540   1.610   5.062 -0.1288 -0.9922  0.2986
  217THF    H11 4259   0.612   1.760   5.118  0.9093  0.3690 -3.1704
  217THF    H12 4260   0.615   1.634   5.324  0.7411  2.8560 -0.4514
  217THF    H13 4261   0.661   1.490   5.226  1.5278 -0.2789  1.2322
  218THF     O1 4262   3.013   4.121   2.062  1.2934  0.1660  0.1792
  218THF     C2 4263   3.121   4.048   2.117 -1.0369 -0.4707 -0.4566
  218THF     C3 4264   2.965   4.042   1.952 -0.2223 -0.1198  0.3375
  218THF     H4 4265   3.134   4.085   2.219  0.5472  1.1880 -1.2060
  218THF     H5 4266   3.208   4.076   2.057 -1.2397 -0.6711 -0.8469
  218THF     H6 4267   2.859   4.064   1.937  0.2484  3.2008  1.1567
  218THF     H7 4268   3.018   4.064   1.859 -0.0167 -1.9979 -0.0330
  218THF     C8 4269   2.982   3.902   1.997 -0.7413  0.0512 -0.7881
  218THF     C9 4270   3.102   3.892   2.090 -0.6816 -0.3471  0.8390
  218THF    H10 4271   2.982   3.826   1.919 -0.3612 -1.2503  0.4348
  218THF    H11 4272   2.896   3.878   2.061  0.5122  0.8314  1.3053
  218THF    H12 4273   3.093   3.834   2.182  0.4650  0.2642  1.3576
  218THF    H13 4274   3.194   3.859   2.041 -1.6683 -1.5108 -0.3034
  219THF     O1 4275   0.443   0.239   5.034  0.3469  0.1939  0.0565
  219THF     C2 4276   0.427   0.173   5.160  0.2038  0.2923  0.4673
  219THF     C3 4277   0.488   0.144   4.937 -0.2812 -0.0718  0.0759
  219THF     H4 4278   0.339   0.109   5.160  0.0347  0.4786  2.1531
  219THF     H5 4279   0.417   0.240   5.245  0.4460  1.4020 -0.3536
  219THF     H6 4280   0.403   0.084   4.903 -1.5544  1.3945  0.5732
  219THF     H7 4281   0.547   0.184   4.855 -0.1816  0.8303  0.5813
  219THF     C8 4282   0.575   0.041   5.022  0.7055 -0.4794 -0.3538
  219THF     C9 4283   0.553   0.083   5.167 -0.3076 -0.6979 -0.6172
  219THF    H10 4284   0.680   0.042   4.993  0.8548 -0.6404  0.1781
  219THF    H11 4285   0.544  -0.063   5.011 -0.9165 -0.1603  0.8762
  219THF    H12 4286   0.547   0.006   5.244  1.3509  1.7379  2.1956
  219THF    H13 4287   0.645   0.134   5.195 -1.7236  1.8274 -0.2741
  220THF     O1 4288   4.522   4.898   2.628 -0.0533  0.0025 -0.0116
  220THF     C2 4289   4.643   4.909   2.699  1.0320  0.2162 -0.0750
  220THF     C3 4290   4.549   4.885   2.488 -0.0630  0.6397 -0.6179
  220THF     H4 4291   4.622   4.849   2.788 -0.8775  2.5478  1.1747
  220THF     H5 4292   4.646   5.003   2.754  1.2889 -0.3492  0.9197
  220THF     H6 4293   4.537   4.778   2.471  0.6989  0.0635  2.0794
  220THF     H7 4294   4.477   4.939   2.426 -1.4752 -0.5542 -0.0700
  220THF     C8 4295   4.691   4.931   2.479  0.7612  0.5676  1.0632
  220THF     C9 4296   4.758   4.881   2.604 -0.0639  0.1186 -0.8222
  220THF    H10 4297   4.694   5.038   2.496 -2.5454  0.8541  0.4332
  220THF    H11 4298   4.744   4.908   2.387 -1.7712  0.7076 -0.5134
  220THF    H12 4299   4.786   4.776   2.614 -0.5011  0.0895  0.1774
  220THF    H13 4300   4.850   4.935   2.629  0.2575 -0.6197 -0.3621
  221THF     O1 4301   2.545   0.899   0.207  0.2207  0.0505 -0.2899
  221THF     C2 4302   2.429   0.884   0.128 -0.1090 -0.1181 -0.3184
  221THF     C3 4303   2.550   0.771   0.274 -0.3853  0.5018  0.8184
  221THF     H4 4304   2.424   0.969   0.059  0.6812 -1.3097 -1.9031
  221THF     H5 4305   2.337   0.894   0.187  0.5528  0.5462  0.6337
  221THF     H6 4306   2.648   0.757   0.321  1.0476 -0.9787 -2.3402
  221THF     H7 4307   2.467   0.771   0.345 -1.6782  0.7344 -0.6493
  221THF     C8 4308   2.524   0.677   0.160  0.4141  0.6424 -0.0121
  221THF     C9 4309   2.439   0.749   0.059 -0.4158 -0.0501  0.0669
  221THF    H10 4310   2.473   0.587   0.195  1.0489  0.0834 -0.4908
  221THF    H11 4311   2.613   0.634   0.114  0.2385  0.7242 -0.4275
  221THF    H12 4312   2.496   0.758  -0.033  1.9717  0.3783  1.5056
  221THF    H13 4313   2.344   0.699   0.039 -0.1359 -1.5054  2.1026
  222THF     O1 4314   4.800   4.405   2.303 -0.1941 -0.2533 -0.9580
  222THF     C2 4315   4.748   4.530   2.353  0.2676 -0.9222 -0.1754
  222THF     C3 4316   4.693   4.344   2.238  0.1048  0.2839  0.4797
  222THF     H4 4317   4.729   4.610   2.281 -0.7582 -2.6542 -1.9320
  222THF     H5 4318   4.815   4.565   2.431 -0.4166 -0.8095  0.3793
  222THF     H6 4319   4.696   4.350   2.129  0.3568  1.4441  0.5426
  222THF     H7 4320   4.704   4.238   2.262 -1.1403  0.4142  1.8238
  222THF     C8 4321   4.567   4.395   2.300 -0.2196  0.1788 -0.1168
  222THF     C9 4322   4.609   4.485   2.408 -0.1426 -0.0745 -0.3308
  222THF    H10 4323   4.507   4.312   2.336  1.9840 -0.4298  2.4468
  222THF    H11 4324   4.495   4.446   2.235 -1.0662 -2.5634 -1.4986
  222THF    H12 4325   4.536   4.563   2.432  0.5398  1.1146 -1.9561
  222THF    H13 4326   4.618   4.432   2.503 -1.2667 -0.0239 -0.1806
  223THF     O1 4327   1.194   5.418   0.672  0.1374 -0.4004 -0.1379
  223THF     C2 4328   1.210   5.557   0.680  0.1637 -0.5864 -0.7041
  223THF     C3 4329   1.312   5.361   0.618 -0.6559  0.3931 -0.1896
  223THF     H4 4330   1.138   5.586   0.756 -1.0348 -1.6438 -1.4101
  223THF     H5 4331   1.195   5.589   0.577  2.8189 -1.0184 -1.3186
  223THF     H6 4332   1.313   5.256   0.650  0.7593 -0.0652 -1.5908
  223THF     H7 4333   1.299   5.368   0.510 -0.9255 -1.5796 -0.3283
  223THF     C8 4334   1.429   5.445   0.686  0.7174 -0.6880 -0.1309
  223THF     C9 4335   1.360   5.578   0.716 -0.0959 -0.3682 -0.3499
  223THF    H10 4336   1.511   5.454   0.615 -0.0822 -0.3097 -1.0336
  223THF    H11 4337   1.472   5.401   0.776  2.6794  3.1947  1.0523
  223THF    H12 4338   1.369   5.596   0.823 -2.8250  0.7907 -0.2124
  223THF    H13 4339   1.389   5.655   0.645 -1.0587 -1.1341 -1.6320
  224THF     O1 4340   5.096   3.460   5.139 -0.1277  0.1821  0.3529
  224THF     C2 4341   5.027   3.570   5.064 -0.0418  0.3529  0.2938
  224THF     C3 4342   4.991   3.359   5.156 -0.5715  0.0550  0.1733
  224THF     H4 4343   5.034   3.530   4.963  0.1570  0.0054  0.4436
  224THF     H5 4344   5.073   3.669   5.062 -0.9306  0.7705  0.0456
  224THF     H6 4345   4.971   3.322   5.056 -2.6293  1.2192  0.0857
  224THF     H7 4346   5.020   3.281   5.226  1.4660  1.6776  1.2559
  224THF     C8 4347   4.874   3.441   5.212  0.8184 -0.4111 -0.6359
  224THF     C9 4348   4.881   3.568   5.118 -0.0705 -0.0759  0.6785
  224THF    H10 4349   4.890   3.464   5.317 -0.8427 -1.4776 -0.1153
  224THF    H11 4350   4.780   3.388   5.199 -0.6992  2.1214 -0.7702
  224THF    H12 4351   4.827   3.555   5.025 -2.0411  0.5298  1.6773
  224THF    H13 4352   4.840   3.657   5.166 -2.4125  0.1961 -1.6177
  225THF     O1 4353   4.370   2.938   3.847 -0.0542  0.1932 -0.2092
  225THF     C2 4354   4.466   2.990   3.760 -0.7741  0.3284 -0.3432
  225THF     C3 4355   4.321   3.041   3.928  0.3213  0.2030  0.0399
  225THF     H4 4356   4.411   3.036   3.678 -0.5750  1.0738 -0.0693
  225THF     H5 4357   4.531   2.916   3.714 -0.3202  0.0408  0.7214
  225THF     H6 4358   4.221   3.057   3.890  0.4294 -0.2650 -0.4591
  225THF     H7 4359   4.319   3.016   4.035  2.7426  0.9789  0.3351
  225THF     C8 4360   4.418   3.160   3.918  0.2961  1.1154  0.4439
  225THF     C9 4361   4.537   3.101   3.848 -0.3639  0.3111 -0.5648
  225THF    H10 4362   4.452   3.205   4.012  1.3662  2.4153 -0.5304
  225THF    H11 4363   4.378   3.240   3.855  1.0907  1.8771  0.8698
  225THF    H12 4364   4.599   3.174   3.796  1.2751  1.0180  2.1613
  225THF    H13 4365   4.605   3.050   3.917 -2.4370 -1.5787  0.1902
  226THF     O1 4366   0.015   3.992   4.374 -0.4809 -0.2934 -0.6895
  226THF     C2 4367   0.089   4.016   4.257 -0.1690  0.2663  0.2554
  226THF     C3 4368   0.104   3.918   4.460  0.6897  0.0959  0.5796
  226THF     H4 4369   0.151   4.105   4.270 -0.8341  0.7153  0.3713
  226THF     H5 4370   0.024   4.041   4.173 -2.2242  0.7343  1.9004
  226THF     H6 4371   0.177   3.993   4.491 -2.4154  2.9873  1.5144
  226THF     H7 4372   0.056   3.866   4.543  1.4262 -1.1569  0.2375
  226THF     C8 4373   0.169   3.817   4.367  0.0225  0.8058  0.0440
  226THF     C9 4374   0.147   3.880   4.235 -0.7955  0.6198  0.2734
  226THF    H10 4375   0.116   3.721   4.361  1.4555 -0.1707  1.8622
  226THF    H11 4376   0.276   3.805   4.383  0.3142  1.1199 -1.5625
  226THF    H12 4377   0.241   3.884   4.181 -0.6434  0.7005  0.5425
  226THF    H13 4378   0.079   3.820   4.175 -2.4745 -0.4690  3.0587
  227THF     O1 4379   0.161   3.596   2.189  0.1055 -0.0117 -0.3572
  227THF     C2 4380   0.156   3.478   2.104  0.1937 -0.6374 -0.3972
  227THF     C3 4381   0.266   3.587   2.279  0.1512  0.2972  0.2217
  227THF     H4 4382   0.106   3.496   2.009 -0.2783 -1.6359 -0.3464
  227THF     H5 4383   0.100   3.401   2.157  0.6012 -0.5063  0.2328
  227THF     H6 4384   0.304   3.684   2.310 -1.7615  1.2384 -0.2480
  227THF     H7 4385   0.232   3.541   2.372  0.2349  2.3574  1.3259
  227THF     C8 4386   0.379   3.501   2.210  0.1093  0.0046  0.3528
  227THF     C9 4387   0.305   3.434   2.093 -0.1820 -0.1719  0.6740
  227THF    H10 4388   0.417   3.418   2.271  0.7053 -0.6886 -0.9220
  227THF    H11 4389   0.460   3.567   2.180 -1.3059  1.2516 -0.8565
  227THF    H12 4390   0.358   3.459   2.001  0.5405  0.9372  1.3655
  227THF    H13 4391   0.295   3.325   2.095  1.5501 -0.5255 -2.5324
  228THF     O1 4392   1.089   0.999   1.043 -0.5789 -0.5160 -0.3924
  228THF     C2 4393   1.231   1.039   1.046  0.2828 -0.1316  0.0860
  228THF     C3 4394   1.082   0.857   1.056  0.1234 -0.6104  0.0340
  228THF     H4 4395   1.254   1.066   1.149  2.7182  1.9473 -0.8915
  228THF     H5 4396   1.259   1.117   0.975 -0.8370 -1.5034 -1.9966
  228THF     H6 4397   1.007   0.826   1.129 -0.0515 -0.1020  0.0763
  228THF     H7 4398   1.037   0.811   0.968 -0.3204 -1.0927  0.5087
  228THF     C8 4399   1.217   0.803   1.079 -1.1521  0.3628  0.7577
  228THF     C9 4400   1.305   0.910   1.013  0.1395  0.1070  0.1249
  228THF    H10 4401   1.235   0.708   1.028 -1.3778 -0.1375  1.5997
  228THF    H11 4402   1.232   0.796   1.186 -0.0597  0.1084  0.5993
  228THF    H12 4403   1.408   0.900   1.049  1.2692  2.5369 -2.0910
  228THF    H13 4404   1.306   0.903   0.905 -0.0702 -2.8765  0.2284
  229THF     O1 4405   4.954   4.586   2.867 -0.0115 -0.3859 -1.0192
  229THF     C2 4406   4.887   4.463   2.850  0.1711  0.0442  0.0747
  229THF     C3 4407   4.878   4.679   2.943 -0.8290  0.3402 -0.1304
  229THF     H4 4408   4.906   4.392   2.930  1.6701 -0.7177 -0.8933
  229THF     H5 4409   4.924   4.418   2.757 -0.1872 -2.4039  1.0437
  229THF     H6 4410   4.918   4.711   3.040 -0.0302 -2.3475  0.5008
  229THF     H7 4411   4.863   4.773   2.890 -0.1005  0.7374  0.3381
  229THF     C8 4412   4.754   4.608   2.965 -0.1894  0.0653  0.1051
  229THF     C9 4413   4.739   4.502   2.850  0.4880 -0.6120 -0.3156
  229THF    H10 4414   4.680   4.688   2.962 -1.0824 -0.7545 -1.3546
  229THF    H11 4415   4.746   4.547   3.055  0.0587 -0.7003 -0.3759
  229THF    H12 4416   4.674   4.417   2.873 -1.6787  1.4607  1.8398
  229THF    H13 4417   4.703   4.547   2.758 -1.1168  0.3665  0.7325
  230THF     O1 4418   2.385   3.360   2.199 -0.0151 -0.4722  0.1488
  230THF     C2 4419   2.404   3.492   2.153 -0.2525 -0.3652  0.1365
  230THF     C3 4420   2.470   3.273   2.118  0.7774  0.3230 -0.3027
  230THF     H4 4421   2.500   3.519   2.198  0.6059  1.4708 -2.5637
  230THF     H5 4422   2.327   3.566   2.176 -0.0709 -0.1821  0.1624
  230THF     H6 4423   2.573   3.297   2.143  0.1667  1.2733  1.4120
  230THF     H7 4424   2.445   3.168   2.134  2.2532 -0.0376 -0.1987
  230THF     C8 4425   2.432   3.329   1.982  0.1784 -0.1961  1.2460
  230THF     C9 4426   2.415   3.475   2.001  0.0974 -0.7296 -0.0121
  230THF    H10 4427   2.336   3.284   1.957  0.7808 -1.1706  0.6258
  230THF    H11 4428   2.500   3.301   1.901 -1.1978  0.1983 -0.0857
  230THF    H12 4429   2.499   3.533   1.963 -1.0979  1.8351  1.0691
  230THF    H13 4430   2.324   3.510   1.951  0.2089  1.3968  1.1717
  231THF     O1 4431   2.540   1.489   4.548 -0.5951 -0.3400 -0.5120
  231THF     C2 4432   2.452   1.466   4.660  0.2505 -0.5018  0.5617
  231THF     C3 4433   2.671   1.465   4.585  0.3748 -0.1612 -0.4674
  231THF     H4 4434   2.387   1.382   4.635  0.7077 -0.4607 -0.8323
  231THF     H5 4435   2.399   1.559   4.682  0.0495 -0.6993  0.9215
  231THF     H6 4436   2.697   1.360   4.572  0.5798 -0.1502 -0.1691
  231THF     H7 4437   2.760   1.518   4.550  2.2287 -3.0253 -0.4629
  231THF     C8 4438   2.677   1.506   4.734  0.6618 -0.6381  0.3529
  231THF     C9 4439   2.549   1.428   4.760 -0.4964 -0.6897  0.4267
  231THF    H10 4440   2.660   1.613   4.748 -0.4901 -0.4263 -2.2044
  231THF    H11 4441   2.750   1.463   4.803 -0.1396 -1.0145  0.9843
  231THF    H12 4442   2.567   1.321   4.755  0.7440 -0.4800 -0.0201
  231THF    H13 4443   2.515   1.464   4.857  0.8559  1.6332  0.1320
  232THF     O1 4444   4.657   4.606   1.429  0.2081  0.2254 -0.1616
  232THF     C2 4445   4.589   4.489   1.395 -0.3050 -0.1805 -0.6630
  232THF     C3 4446   4.747   4.567   1.527  0.2082  0.2730  0.1657
  232THF     H4 4447   4.653   4.425   1.335  0.7002  1.9193 -1.9460
  232THF     H5 4448   4.505   4.517   1.330 -0.4474 -0.7448 -0.7253
  232THF     H6 4449   4.825   4.501   1.489  0.1576  0.2699  0.0687
  232THF     H7 4450   4.784   4.655   1.580 -0.0863 -0.4165  1.5788
  232THF     C8 4451   4.641   4.512   1.621  0.2944  0.1511 -0.4567
  232THF     C9 4452   4.559   4.422   1.524  0.3213  0.1747 -0.0305
  232THF    H10 4453   4.580   4.596   1.656 -0.8239 -0.7256 -0.2502
  232THF    H11 4454   4.670   4.457   1.710 -1.8730 -2.9795 -1.5180
  232THF    H12 4455   4.601   4.322   1.532 -1.9691 -1.2268 -3.5383
  232THF    H13 4456   4.454   4.415   1.551  0.6030 -2.8689  0.6359
  233THF     O1 4457   3.527   4.687   3.246 -0.3078 -0.6236 -0.0417
  233THF     C2 4458   3.552   4.653   3.112 -0.1577  0.4135  0.1400
  233THF     C3 4459   3.527   4.826   3.263 -0.2872 -0.1969  0.5059
  233THF     H4 4460   3.497   4.559   3.108 -0.4882  0.6321 -0.7523
  233THF     H5 4461   3.656   4.627   3.089 -0.1882 -0.6567  1.1095
  233THF     H6 4462   3.478   4.854   3.356  1.4774  2.0206  0.8284
  233THF     H7 4463   3.630   4.859   3.257  0.1241 -1.1009  2.1527
  233THF     C8 4464   3.451   4.870   3.138 -0.4924 -0.1813  0.2237
  233THF     C9 4465   3.488   4.767   3.033  0.0872 -0.2644  0.1241
  233THF    H10 4466   3.485   4.971   3.112  0.8138 -0.3223  1.2885
  233THF    H11 4467   3.344   4.862   3.153 -0.5676 -1.5730 -0.8433
  233THF    H12 4468   3.401   4.731   2.976 -1.0193  1.2799  0.7736
  233THF    H13 4469   3.560   4.807   2.962 -1.3128  0.1270 -1.1278
  234THF     O1 4470   3.189   1.415   3.651  0.6661 -0.5684 -0.2538
  234THF     C2 4471   3.084   1.518   3.668 -1.0318 -0.5454  0.1265
  234THF     C3 4472   3.247   1.427   3.521  0.6024 -0.4603  0.4278
  234THF     H4 4473   3.113   1.608   3.722  0.1698 -2.1309  2.2872
  234THF     H5 4474   3.006   1.477   3.732 -0.8253 -0.5491  0.3746
  234THF     H6 4475   3.329   1.499   3.517  0.8399 -0.7717 -1.1183
  234THF     H7 4476   3.292   1.336   3.482  0.7730 -0.4431  0.5845
  234THF     C8 4477   3.132   1.484   3.428 -0.0327  0.1231 -0.7340
  234THF     C9 4478   3.030   1.533   3.527  0.1623 -0.0602  0.3853
  234THF    H10 4479   3.092   1.416   3.353  1.1671 -1.6505  0.1617
  234THF    H11 4480   3.166   1.570   3.370 -1.5561 -0.9680 -3.4533
  234THF    H12 4481   3.003   1.638   3.514  1.6630  0.5613  1.9352
  234THF    H13 4482   2.947   1.464   3.511  1.1110 -1.1952  0.2506
  235THF     O1 4483   3.564   3.200   3.571  0.0261  0.0789 -0.2202
  235THF     C2 4484   3.501   3.155   3.682  0.2684  0.6307  0.6669
  235THF     C3 4485   3.522   3.335   3.541 -0.0262  0.2717  0.0047
  235THF     H4 4486   3.558   3.161   3.775  0.5131  0.9140  0.4985
  235THF     H5 4487   3.475   3.051   3.666 -1.0250  0.9870  0.3076
  235THF     H6 4488   3.597   3.413   3.557 -1.9021  2.0870  0.4436
  235THF     H7 4489   3.509   3.339   3.433  2.9692 -2.3239 -0.5840
  235THF     C8 4490   3.404   3.366   3.631  0.0644  0.4737  0.1608
  235THF     C9 4491   3.376   3.232   3.691 -0.1276 -0.8504 -1.0591
  235THF    H10 4492   3.319   3.406   3.575  0.1354  3.1765  1.7998
  235THF    H11 4493   3.435   3.443   3.703 -0.4130  0.5801  0.2594
  235THF    H12 4494   3.344   3.224   3.794 -0.2310 -0.5446 -1.0657
  235THF    H13 4495   3.302   3.182   3.629  0.6994 -3.1471 -0.2863
  236THF     O1 4496   3.396   4.345   0.031  0.2236  0.4956  0.1802
  236THF     C2 4497   3.499   4.291   0.099 -0.2677 -0.4233 -0.3302
  236THF     C3 4498   3.404   4.479   0.001 -0.2788 -0.2707  0.6626
  236THF     H4 4499   3.572   4.238   0.039 -0.3231 -0.6588 -0.1959
  236THF     H5 4500   3.460   4.222   0.174 -0.0528 -0.0587  0.1214
  236THF     H6 4501   3.468   4.499  -0.086  0.4588 -0.8922  1.0490
  236THF     H7 4502   3.306   4.527   0.001  0.0212  0.3936 -0.7307
  236THF     C8 4503   3.473   4.524   0.127  0.0816  0.8285  0.1128
  236THF     C9 4504   3.564   4.409   0.170 -0.4134 -0.4678 -0.1739
  236THF    H10 4505   3.397   4.540   0.203  0.4802  2.8850  0.1384
  236THF    H11 4506   3.530   4.616   0.120  1.6123 -0.0165  0.9339
  236THF    H12 4507   3.664   4.431   0.133 -1.4149  1.1995 -2.1206
  236THF    H13 4508   3.570   4.395   0.278  0.1011 -1.2890 -0.3005
  237THF     O1 4509   1.619   3.218   4.832 -0.2860  0.0253  0.1820
  237THF     C2 4510   1.642   3.337   4.904 -0.8417 -0.2875  0.0964
  237THF     C3 4511   1.477   3.202   4.811  0.4022 -0.3008 -0.1595
  237THF     H4 4512   1.654   3.409   4.824  1.3821 -0.4552  0.1949
  237THF     H5 4513   1.735   3.351   4.960  0.5246 -2.5634 -1.4333
  237THF     H6 4514   1.435   3.170   4.716  0.1962 -1.6359  0.3625
  237THF     H7 4515   1.455   3.129   4.889  0.1242  1.3515  1.3695
  237THF     C8 4516   1.409   3.326   4.876 -0.0142  0.2286 -0.6843
  237THF     C9 4517   1.515   3.368   4.977  0.5345  0.1129  0.0015
  237THF    H10 4518   1.309   3.322   4.920  0.1573  1.8718 -0.0804
  237THF    H11 4519   1.404   3.403   4.800 -1.9423 -0.8648 -1.7473
  237THF    H12 4520   1.492   3.471   5.005 -3.0491 -0.3597 -0.6461
  237THF    H13 4521   1.509   3.315   5.073 -0.4783  2.1650  1.1363
  238THF     O1 4522   0.035   2.859   0.965 -0.2385  0.6302 -0.6195
  238THF     C2 4523   0.083   2.939   1.072 -0.8023  0.2120  0.7643
  238THF     C3 4524  -0.045   2.952   0.890 -0.7956  0.3429  0.8639
  238THF     H4 4525   0.163   3.003   1.034 -1.1083  0.3883  0.4164
  238THF     H5 4526   0.133   2.881   1.149 -1.4165  0.9607  1.7439
  238THF     H6 4527   0.014   3.009   0.817 -2.6047 -0.3502 -1.2752
  238THF     H7 4528  -0.124   2.901   0.835 -1.6133  2.3067  0.1238
  238THF     C8 4529  -0.113   3.040   1.001 -0.5920 -0.5924 -0.6927
  238THF     C9 4530  -0.025   3.021   1.128 -0.6870 -0.4241  0.5216
  238THF    H10 4531  -0.220   3.024   1.012 -0.7043  0.1580 -0.6359
  238THF    H11 4532  -0.110   3.147   0.979  2.7195 -0.1359  1.2325
  238THF    H12 4533   0.010   3.122   1.151 -1.2101  0.3466 -1.8305
  238THF    H13 4534  -0.085   2.985   1.212 -0.6050 -1.0304  0.3268
  239THF     O1 4535   5.388   1.345   1.269  0.6988 -0.1545  0.2441
  239THF     C2 4536   5.495   1.395   1.186 -0.7420 -0.5198  0.1686
  239THF     C3 4537   5.306   1.276   1.182  0.6075  0.0948  0.5033
  239THF     H4 4538   5.580   1.328   1.173 -1.0155 -1.2113  1.7005
  239THF     H5 4539   5.536   1.482   1.236  2.7833 -2.2925  0.6480
  239THF     H6 4540   5.348   1.187   1.134 -2.6785 -0.4959 -1.6635
  239THF     H7 4541   5.207   1.257   1.224  0.1877  0.6245 -0.1999
  239THF     C8 4542   5.277   1.384   1.078 -0.4652  0.6373 -0.9676
  239THF     C9 4543   5.425   1.431   1.054  0.0042  0.4312 -0.3855
  239THF    H10 4544   5.241   1.479   1.118  5.1146  3.2367 -1.1248
  239THF    H11 4545   5.222   1.357   0.988 -2.9530  1.5353  0.1960
  239THF    H12 4546   5.475   1.367   0.981  0.5793  1.0914 -0.5869
  239THF    H13 4547   5.420   1.537   1.026 -2.0159  0.7815  1.1501
  240THF     O1 4548   4.023   3.788   0.765  0.5549 -0.1591  0.2162
  240THF     C2 4549   3.899   3.765   0.704  0.8782  0.3764 -0.4118
  240THF     C3 4550   4.026   3.922   0.804 -0.0656  0.0508  0.5213
  240THF     H4 4551   3.817   3.769   0.776 -0.6642 -2.4294 -1.8453
  240THF     H5 4552   3.895   3.670   0.651 -0.4670 -0.1199  0.5125
  240THF     H6 4553   3.966   3.938   0.894  0.3293  2.5250  0.4245
  240THF     H7 4554   4.124   3.960   0.832 -0.3927  0.7498  0.7476
  240THF     C8 4555   3.970   3.999   0.681 -0.5158 -0.0585 -0.6066
  240THF     C9 4556   3.899   3.884   0.608 -0.1463  0.2445 -0.6795
  240THF    H10 4557   4.042   4.039   0.610 -2.2321  2.9769 -0.7916
  240THF    H11 4558   3.913   4.085   0.716 -0.5888 -0.7998  1.2283
  240THF    H12 4559   3.808   3.915   0.557 -1.2240  0.5917  1.3439
  240THF    H13 4560   3.962   3.840   0.532  0.0489  0.3519 -0.5815
  241THF     O1 4561   1.884   0.767   5.273 -0.5129  0.0360  0.1623
  241THF     C2 4562   1.917   0.661   5.353 -0.3962  0.5809 -0.3757
  241THF     C3 4563   1.947   0.878   5.325 -0.0973  0.0726 -0.1990
  241THF     H4 4564   1.940   0.567   5.302  0.2560  0.8491 -0.5832
  241THF     H5 4565   1.838   0.659   5.428  0.1314 -0.4392  0.1705
  241THF     H6 4566   1.960   0.960   5.254 -2.2301 -2.2105 -3.4679
  241THF     H7 4567   1.890   0.925   5.405  0.3414 -0.8308  0.6687
  241THF     C8 4568   2.082   0.828   5.377 -0.1937 -0.3099  0.5275
  241THF     C9 4569   2.045   0.696   5.426 -0.1285  0.0049 -0.0959
  241THF    H10 4570   2.120   0.886   5.462 -0.0704  1.3664 -0.6257
  241THF    H11 4571   2.162   0.819   5.304  0.5217  2.0259  0.9370
  241THF    H12 4572   2.119   0.618   5.410  0.8918  1.0919 -0.8938
  241THF    H13 4573   2.029   0.685   5.533  1.0811  1.6152  0.2839
  242THF     O1 4574   1.923   2.113   5.385 -0.0217  0.0353  0.3755
  242THF     C2 4575   1.894   2.231   5.452  0.3472 -0.2581 -0.2588
  242THF     C3 4576   1.835   2.006   5.431  0.6112 -0.1681 -0.5013
  242THF     H4 4577   1.925   2.316   5.390  0.9730  0.3003  0.7807
  242THF     H5 4578   1.948   2.247   5.545  1.0051 -0.2110 -0.6345
  242THF     H6 4579   1.821   1.927   5.358 -0.1940  1.4697 -2.1783
  242THF     H7 4580   1.876   1.960   5.522  1.8613 -0.4666 -1.1938
  242THF     C8 4581   1.700   2.074   5.466 -0.7498  0.1218  0.0727
  242THF     C9 4582   1.744   2.227   5.480 -0.2411 -0.0694  0.0046
  242THF    H10 4583   1.652   2.029   5.554  0.2497 -1.4815 -0.1626
  242THF    H11 4584   1.623   2.077   5.389 -3.2725 -0.1718  2.4088
  242THF    H12 4585   1.688   2.288   5.409 -0.3528  2.3638  2.0225
  242THF    H13 4586   1.720   2.261   5.580  1.4458 -1.9342  1.1239
  243THF     O1 4587   0.687   3.219   5.089  0.0290  0.3302  0.3411
  243THF     C2 4588   0.601   3.154   5.187 -0.2668 -0.0472 -0.1412
  243THF     C3 4589   0.789   3.125   5.043  0.4974  0.2268  0.0210
  243THF     H4 4590   0.499   3.137   5.155 -0.7483  1.4648  0.4869
  243THF     H5 4591   0.571   3.232   5.257 -0.3407  0.6875 -0.9812
  243THF     H6 4592   0.762   3.075   4.950  1.4885  2.3459 -1.4887
  243THF     H7 4593   0.876   3.190   5.031  0.7249  0.0336  0.5842
  243THF     C8 4594   0.808   3.034   5.167 -0.0394 -0.3885 -0.5177
  243THF     C9 4595   0.675   3.032   5.243  0.6573 -0.2673  0.5900
  243THF    H10 4596   0.885   3.066   5.236  0.2211 -3.4380  0.7956
  243THF    H11 4597   0.834   2.934   5.132 -0.3003 -0.3332 -0.8761
  243THF    H12 4598   0.614   2.945   5.220 -0.4414  0.8111 -0.8130
  243THF    H13 4599   0.689   3.053   5.349  0.8959  1.3054  0.2761
  244THF     O1 4600   0.419   3.849   4.607 -0.3223 -0.5587 -0.8644
  244THF     C2 4601   0.416   3.979   4.674  0.3980 -0.3410  0.3410
  244THF     C3 4602   0.524   3.859   4.512 -0.2859 -0.6369  0.0432
  244THF     H4 4603   0.479   3.987   4.762  1.8778  1.1475 -0.7703
  244THF     H5 4604   0.319   4.023   4.696  0.0655 -0.2733 -1.1095
  244THF     H6 4605   0.619   3.850   4.564 -0.6159 -2.5015  0.4044
  244THF     H7 4606   0.536   3.778   4.440  2.4210 -0.6252  0.3911
  244THF     C8 4607   0.506   3.995   4.443  0.0490 -0.2939 -0.0575
  244THF     C9 4608   0.467   4.081   4.566 -0.2952  0.0017  0.4468
  244THF    H10 4609   0.422   3.998   4.373 -0.1579  1.8608  0.2144
  244THF    H11 4610   0.605   4.020   4.406  0.3634 -0.1466  0.8614
  244THF    H12 4611   0.543   4.148   4.606 -0.0341  0.4106 -0.6811
  244THF    H13 4612   0.388   4.150   4.536 -0.3171 -0.6443 -1.1261
  245THF     O1 4613   0.406   4.834   1.850  0.7379 -0.5089  0.0431
  245THF     C2 4614   0.466   4.962   1.825 -0.3246  1.5470  0.0428
  245THF     C3 4615   0.506   4.748   1.892 -0.2987 -0.7633  0.0622
  245THF     H4 4616   0.487   5.019   1.916  4.4587  0.9688 -0.4740
  245THF     H5 4617   0.404   5.025   1.761 -3.3901 -2.4114 -1.3349
  245THF     H6 4618   0.520   4.772   1.998 -0.1269  0.5214 -0.2353
  245THF     H7 4619   0.495   4.640   1.879  2.2740 -1.1069  0.0777
  245THF     C8 4620   0.635   4.792   1.815  0.3646  0.3794 -0.1568
  245THF     C9 4621   0.605   4.934   1.771  0.1157  0.3295  0.3393
  245THF    H10 4622   0.646   4.741   1.719 -0.8934  1.1241 -0.7399
  245THF    H11 4623   0.731   4.793   1.865  0.7662 -1.2452 -0.8346
  245THF    H12 4624   0.676   5.002   1.818  0.8162  1.0500 -1.6432
  245THF    H13 4625   0.612   4.933   1.662  0.6232 -1.4442  0.3536
  246THF     O1 4626   4.093   3.368   0.065  0.3833  0.5289  0.2310
  246THF     C2 4627   3.958   3.404   0.011 -0.1669 -0.0571  0.2370
  246THF     C3 4628   4.090   3.226   0.088 -0.1278  0.3612 -0.1257
  246THF     H4 4629   3.953   3.497  -0.047  2.2925 -0.3121 -0.5026
  246THF     H5 4630   3.904   3.439   0.099  0.4145  0.4054  0.4199
  246THF     H6 4631   4.187   3.177   0.092 -0.2488 -0.0863 -1.7232
  246THF     H7 4632   4.033   3.203   0.178 -0.3027  0.1242 -0.2962
  246THF     C8 4633   4.016   3.169  -0.031 -0.1862 -0.2684  0.5467
  246THF     C9 4634   3.912   3.280  -0.063 -0.3897 -0.3362  0.3272
  246THF    H10 4635   3.977   3.068  -0.015  0.2880 -0.9915 -2.2400
  246THF    H11 4636   4.077   3.165  -0.122 -0.4078  1.0135  0.3298
  246THF    H12 4637   3.918   3.300  -0.170  0.2378  2.5352  0.8265
  246THF    H13 4638   3.807   3.253  -0.047 -1.5784  4.1063  1.3432
  247THF     O1 4639   0.179   0.679   1.014 -0.3336 -0.4503  0.0832
  247THF     C2 4640   0.244   0.610   0.911 -0.1779  0.0092 -0.4262
  247THF     C3 4641   0.055   0.607   1.053 -1.2828 -0.5944 -0.1300
  247THF     H4 4642   0.348   0.641   0.908 -0.1763  0.2754  1.3678
  247THF     H5 4643   0.188   0.625   0.818 -2.4241 -1.6185  0.5482
  247THF     H6 4644   0.011   0.641   1.147 -0.2500  2.1985 -0.5540
  247THF     H7 4645  -0.020   0.612   0.974  0.5880  0.2619 -1.9397
  247THF     C8 4646   0.107   0.473   1.063 -0.5628  0.7968  0.0929
  247THF     C9 4647   0.224   0.468   0.960  0.7797  0.3960  0.3207
  247THF    H10 4648   0.027   0.401   1.046 -1.0116  1.5672 -1.2374
  247THF    H11 4649   0.141   0.448   1.164 -1.9494 -0.3056  0.3183
  247THF    H12 4650   0.316   0.422   0.995  0.3430  0.2994  1.3863
  247THF    H13 4651   0.193   0.408   0.875  0.3486 -2.2216  2.1931
  248THF     O1 4652   2.943   2.214   4.942  0.2631  0.1767 -0.3697
  248THF     C2 4653   3.029   2.218   4.834  0.8497 -0.1641 -0.2996
  248THF     C3 4654   2.851   2.322   4.941  0.0801 -0.3438 -0.0581
  248THF     H4 4655   3.037   2.118   4.791 -2.0294 -0.7045  0.2170
  248THF     H5 4656   3.126   2.266   4.849  1.2242 -1.0990  0.3005
  248THF     H6 4657   2.757   2.266   4.940 -0.4446  0.5198 -0.4056
  248THF     H7 4658   2.840   2.375   5.036  0.7989 -1.1697  0.5067
  248THF     C8 4659   2.881   2.405   4.816 -0.3540 -0.0998  0.0239
  248THF     C9 4660   2.960   2.304   4.731 -0.0287 -0.1138 -0.2409
  248THF    H10 4661   2.945   2.489   4.842  1.3561 -1.7418  1.4429
  248THF    H11 4662   2.787   2.430   4.767 -1.8743 -2.3147  1.5762
  248THF    H12 4663   2.888   2.250   4.669 -0.9266  1.8800 -0.9890
  248THF    H13 4664   3.029   2.354   4.664 -0.2763  1.9985  0.9967
  249THF     O1 4665   3.363   3.110   1.091 -0.1796 -0.3820 -0.5010
  249THF     C2 4666   3.491   3.138   1.142 -0.6874 -0.0638  0.1662
  249THF     C3 4667   3.277   3.177   1.182  0.0295  0.8551  0.0606
  249THF     H4 4668   3.570   3.134   1.067 -2.1608  0.9563 -1.5052
  249THF     H5 4669   3.514   3.073   1.227  1.3397 -1.5334 -1.4045
  249THF     H6 4670   3.180   3.180   1.132  0.1246 -3.1783 -0.6658
  249THF     H7 4671   3.251   3.120   1.271 -1.5252  1.8311  0.2806
  249THF     C8 4672   3.337   3.314   1.213  0.4837  0.2717  0.5191
  249THF     C9 4673   3.489   3.275   1.202 -0.3289  0.5365 -0.6006
  249THF    H10 4674   3.305   3.335   1.315 -0.6495 -2.6844  0.8773
  249THF    H11 4675   3.320   3.392   1.139  5.3561  2.0185  0.8972
  249THF    H12 4676   3.542   3.349   1.143  0.9934  1.9619  2.2255
  249THF    H13 4677   3.532   3.258   1.301  0.7393  0.0882 -1.1252
  250THF     O1 4678   5.449   3.192   4.965 -0.0923 -0.7181 -0.1698
  250THF     C2 4679   5.353   3.296   4.980  0.1012  0.0209  0.5576
  250THF     C3 4680   5.438   3.154   4.827 -0.3348 -0.1231  0.5356
  250THF     H4 4681   5.394   3.396   4.967  0.7527 -0.4281 -1.1603
  250THF     H5 4682   5.325   3.296   5.085  1.1194 -2.0356  0.8875
  250THF     H6 4683   5.484   3.231   4.766  1.1715  0.6946  2.5764
  250THF     H7 4684   5.492   3.064   4.799 -0.0316  0.0974  0.4048
  250THF     C8 4685   5.290   3.163   4.793 -0.5154  0.1036 -0.2262
  250THF     C9 4686   5.239   3.252   4.891  0.1455 -0.8334  0.0642
  250THF    H10 4687   5.231   3.072   4.794 -1.6707  0.7768  2.2098
  250THF    H11 4688   5.270   3.191   4.689  0.3103 -1.2679 -0.7734
  250THF    H12 4689   5.172   3.332   4.861 -2.4590 -2.3863  1.3921
  250THF    H13 4690   5.179   3.190   4.958  2.0510 -2.4054  0.4044
  251THF     O1 4691   0.360   3.846   5.315 -0.1656 -0.2972  0.1816
  251THF     C2 4692   0.311   3.769   5.425  0.0971  0.1536 -0.5593
  251THF     C3 4693   0.286   3.961   5.289  0.2047 -0.4371 -0.0172
  251THF     H4 4694   0.394   3.713   5.467  0.7119  2.3870  1.4342
  251THF     H5 4695   0.237   3.696   5.391  1.0853 -0.4863 -1.3947
  251THF     H6 4696   0.337   4.020   5.212  4.0872 -3.4159 -0.0395
  251THF     H7 4697   0.184   3.928   5.271 -0.2694  0.3781  1.0867
  251THF     C8 4698   0.279   4.011   5.432  0.0639  0.1952 -0.0360
  251THF     C9 4699   0.248   3.880   5.515  0.5721  0.5784 -0.0873
  251THF    H10 4700   0.210   4.092   5.457  0.0708 -0.4274  2.2485
  251THF    H11 4701   0.376   4.054   5.453  0.5967 -1.1481  0.3720
  251THF    H12 4702   0.282   3.887   5.619 -2.0309  2.4435  0.7313
  251THF    H13 4703   0.140   3.872   5.518  0.5193  1.4866  1.0321
  252THF     O1 4704   4.765   0.205   1.339 -0.0872  0.3918  0.0529
  252THF     C2 4705   4.742   0.100   1.435  0.8282 -0.1921 -0.3454
  252THF     C3 4706   4.899   0.249   1.349 -0.5818  0.1456  0.1095
  252THF     H4 4707   4.653   0.045   1.403  2.3224 -2.6405 -0.4956
  252THF     H5 4708   4.716   0.149   1.529  2.4988  1.2409 -0.5728
  252THF     H6 4709   4.929   0.297   1.256  1.8022  1.4200  1.4585
  252THF     H7 4710   4.910   0.311   1.438  0.8633  1.8750 -1.1964
  252THF     C8 4711   4.970   0.110   1.357 -0.1237  0.0781  0.2641
  252THF     C9 4712   4.874   0.017   1.427 -0.2043 -0.2391  0.4994
  252THF    H10 4713   5.067   0.115   1.407 -0.3579  0.5630  0.6831
  252THF    H11 4714   4.978   0.083   1.252 -2.0531  1.0381 -0.1827
  252THF    H12 4715   4.867  -0.074   1.368  0.8945  1.5382 -2.6053
  252THF    H13 4716   4.909   0.002   1.529  2.6161  0.6765 -0.2416
  253THF     O1 4717   0.309   2.785   5.184  0.5614 -0.3709  0.6897
  253THF     C2 4718   0.181   2.857   5.169 -0.2206  0.5220  0.4582
  253THF     C3 4719   0.376   2.773   5.059 -0.6808  0.2305  0.4208
  253THF     H4 4720   0.172   2.954   5.218 -3.7554  0.1441  0.8036
  253THF     H5 4721   0.105   2.787   5.204  1.0044 -1.3215 -0.3927
  253THF     H6 4722   0.483   2.792   5.068 -0.4716 -0.8128  0.3098
  253THF     H7 4723   0.377   2.669   5.025 -0.1217 -0.0663  1.3122
  253THF     C8 4724   0.301   2.871   4.965  0.1601 -0.0853 -0.0590
  253THF     C9 4725   0.160   2.891   5.019  0.1145  0.4591 -0.3561
  253THF    H10 4726   0.302   2.817   4.871 -1.8816 -0.6557  0.2065
  253THF    H11 4727   0.361   2.962   4.966  1.8134 -1.1358  0.5850
  253THF    H12 4728   0.141   2.998   5.010 -0.0927  0.4468 -0.1089
  253THF    H13 4729   0.090   2.830   4.962  0.9443 -0.2120 -0.6737
  254THF     O1 4730   1.763   0.566   2.416  0.3547  0.5718  0.3484
  254THF     C2 4731   1.745   0.417   2.413 -0.3572 -0.6694 -0.7917
  254THF     C3 4732   1.901   0.588   2.399 -0.1532  0.5094  0.0491
  254THF     H4 4733   1.649   0.368   2.396  1.1182 -4.7049  1.2394
  254THF     H5 4734   1.774   0.387   2.513 -1.3362 -2.6670 -1.0585
  254THF     H6 4735   1.926   0.685   2.354  0.7405  0.2112 -0.1182
  254THF     H7 4736   1.942   0.591   2.500 -0.9383 -0.6387  0.4135
  254THF     C8 4737   1.968   0.458   2.339  0.8397 -0.4835  0.1826
  254THF     C9 4738   1.851   0.372   2.307  0.0128  0.1337  0.0653
  254THF    H10 4739   2.033   0.410   2.412 -1.5656 -1.6973  1.6599
  254THF    H11 4740   2.037   0.481   2.258 -0.5276 -0.2797 -0.9669
  254THF    H12 4741   1.814   0.377   2.205 -0.5983 -1.2553  0.2000
  254THF    H13 4742   1.867   0.265   2.321 -0.8962  0.2329  2.1586
  255THF     O1 4743   1.856   5.438   4.416  0.2046  0.4135 -0.0900
  255THF     C2 4744   1.719   5.442   4.377  0.6189 -0.1673  0.0641
  255THF     C3 4745   1.884   5.311   4.474  0.0723 -0.7881  0.0457
  255THF     H4 4746   1.712   5.396   4.279 -0.3114 -1.0798  0.5319
  255THF     H5 4747   1.681   5.544   4.363  0.8169 -0.3120 -1.6434
  255THF     H6 4748   1.916   5.229   4.409  1.0928 -1.8570  1.8043
  255THF     H7 4749   1.964   5.329   4.545 -2.7658  0.6652  3.1384
  255THF     C8 4750   1.753   5.266   4.539 -0.2089  0.7885 -0.0779
  255THF     C9 4751   1.657   5.358   4.487  0.4667 -1.2144  0.9104
  255THF    H10 4752   1.763   5.272   4.647  3.7855  2.6552 -0.3884
  255THF    H11 4753   1.730   5.166   4.501 -0.4417  0.6074  0.5424
  255THF    H12 4754   1.558   5.317   4.468  0.2506 -0.4153  0.2590
  255THF    H13 4755   1.640   5.426   4.570  0.5726  1.5333 -1.1653
  256THF     O1 4756   2.439   1.326   0.458 -0.1211  0.1591 -0.5419
  256THF     C2 4757   2.449   1.220   0.365 -0.2926 -0.3100  0.0544
  256THF     C3 4758   2.448   1.276   0.589  0.1887  0.1960 -0.1360
  256THF     H4 4759   2.553   1.187   0.367  0.3880  1.4062 -2.3612
  256THF     H5 4760   2.437   1.244   0.260  2.2983 -1.1887 -0.5250
  256THF     H6 4761   2.551   1.245   0.605  0.0154 -1.0699 -1.3025
  256THF     H7 4762   2.421   1.345   0.669  1.0617  1.2767 -0.7342
  256THF     C8 4763   2.360   1.148   0.572  0.1278 -0.2455  0.4991
  256THF     C9 4764   2.352   1.114   0.421  0.0922 -0.3438  0.2328
  256THF    H10 4765   2.258   1.160   0.610  0.1049  1.2713  0.0498
  256THF    H11 4766   2.420   1.068   0.616 -0.4548 -0.4090  1.0102
  256THF    H12 4767   2.391   1.015   0.397  0.1851 -0.8654  2.2986
  256THF    H13 4768   2.250   1.117   0.381 -0.4440 -2.0075  1.3556
  257THF     O1 4769   2.149   2.072   1.874  0.1364  0.7295  0.3968
  257THF     C2 4770   2.131   2.145   1.751 -0.4228  0.3579  0.2307
  257THF     C3 4771   2.164   2.166   1.979 -0.8789 -0.4935 -0.5081
  257THF     H4 4772   2.028   2.179   1.749 -1.7538 -3.2027  1.1414
  257THF     H5 4773   2.151   2.096   1.655  0.6335  1.5572 -0.1848
  257THF     H6 4774   2.069   2.191   2.027  0.5468 -1.1131  2.9233
  257THF     H7 4775   2.218   2.126   2.065 -1.5187 -0.6080 -0.1504
  257THF     C8 4776   2.242   2.279   1.914  0.4765 -0.6660  0.0607
  257THF     C9 4777   2.223   2.268   1.763  0.3053 -0.1036  0.5747
  257THF    H10 4778   2.345   2.265   1.946  1.1073  1.5904 -0.7485
  257THF    H11 4779   2.214   2.377   1.954  0.1664 -0.9737  0.6087
  257THF    H12 4780   2.178   2.353   1.712 -0.8089 -1.5165 -0.8959
  257THF    H13 4781   2.320   2.263   1.714  0.4846  1.7322  0.7060
  258THF     O1 4782   0.580   4.068   0.991  0.6903 -0.1260  0.1113
  258THF     C2 4783   0.523   4.170   0.914  0.6866 -0.4093  0.0268
  258THF     C3 4784   0.587   3.952   0.908 -0.1580 -0.1550  0.0599
  258THF     H4 4785   0.547   4.266   0.960 -1.2998  0.3273 -0.3674
  258THF     H5 4786   0.414   4.160   0.906  0.7071 -0.0072 -0.8008
  258THF     H6 4787   0.645   3.873   0.955  0.9909  0.5277 -0.1615
  258THF     H7 4788   0.484   3.917   0.901 -0.1582 -0.3306  0.8166
  258THF     C8 4789   0.651   4.017   0.781  0.0611  0.4624 -0.2032
  258THF     C9 4790   0.606   4.162   0.787  0.3166  1.0143 -0.0258
  258THF    H10 4791   0.611   3.969   0.692 -1.8637 -0.0710  0.8861
  258THF    H11 4792   0.759   4.016   0.768 -0.0907  0.9080 -1.7495
  258THF    H12 4793   0.697   4.222   0.784  1.3266 -0.4126  0.7633
  258THF    H13 4794   0.551   4.202   0.702  0.2982  0.4457 -0.2870
  259THF     O1 4795   4.336   5.204   3.646  0.2912 -0.1532  0.3526
  259THF     C2 4796   4.318   5.127   3.769 -0.0670 -0.0605  0.0101
  259THF     C3 4797   4.423   5.124   3.566  0.5179  0.3561 -0.1601
  259THF     H4 4798   4.231   5.149   3.831  0.0464 -0.4939  0.3318
  259THF     H5 4799   4.409   5.143   3.827 -0.1810  0.6395  0.0008
  259THF     H6 4800   4.411   5.141   3.459  1.8383 -1.3102 -0.6143
  259THF     H7 4801   4.525   5.152   3.592  0.3587 -1.5968  3.1113
  259THF     C8 4802   4.398   4.974   3.605 -0.1951  1.0797  0.4501
  259THF     C9 4803   4.300   4.987   3.727 -0.3795 -0.4882 -0.5489
  259THF    H10 4804   4.488   4.919   3.630  1.2913  2.2867 -1.8659
  259THF    H11 4805   4.353   4.927   3.517 -1.5789  1.1454  1.0939
  259THF    H12 4806   4.199   4.963   3.692 -0.3258 -0.2589 -0.8631
  259THF    H13 4807   4.320   4.915   3.807 -0.0251  0.2045 -0.0090
  260THF     O1 4808   2.795   2.793   3.531  0.2646 -0.0596 -0.7311
  260THF     C2 4809   2.783   2.934   3.509 -0.7435 -0.2667 -0.2070
  260THF     C3 4810   2.929   2.749   3.568 -0.4344 -0.3150 -0.0380
  260THF     H4 4811   2.744   2.987   3.597  0.3707 -2.8578  1.9923
  260THF     H5 4812   2.723   2.953   3.420  0.4065  0.3293 -0.8704
  260THF     H6 4813   2.926   2.694   3.662 -0.8298  1.0801  0.8142
  260THF     H7 4814   2.970   2.686   3.489 -0.2965  1.9370 -1.8678
  260THF     C8 4815   3.006   2.880   3.584  0.4184 -0.0033  0.7138
  260THF     C9 4816   2.930   2.972   3.488 -0.3953  0.5990 -0.1430
  260THF    H10 4817   3.112   2.873   3.559  0.3031 -0.2415  0.2762
  260THF    H11 4818   3.006   2.923   3.684 -2.7149  1.7052  0.0973
  260THF    H12 4819   2.961   3.073   3.517  1.5254 -0.2324  0.8922
  260THF    H13 4820   2.955   2.948   3.385 -0.2532  3.0944 -0.7578
  261THF     O1 4821   4.959   1.639   5.314  0.3807  0.3479 -0.1706
  261THF     C2 4822   5.035   1.670   5.197 -0.0236  0.8016  0.0183
  261THF     C3 4823   5.038   1.636   5.435  0.0882 -0.5452  0.0848
  261THF     H4 4824   4.967   1.706   5.120 -0.9696  0.6136  0.7449
  261THF     H5 4825   5.080   1.576   5.164  0.4913  0.5185  1.4429
  261THF     H6 4826   4.982   1.658   5.526  1.1036 -2.2740  1.1827
  261THF     H7 4827   5.072   1.534   5.449 -2.6228 -1.4820  0.4650
  261THF     C8 4828   5.156   1.728   5.403  0.3406 -0.5032 -0.3906
  261THF     C9 4829   5.136   1.775   5.257  0.1177 -0.0770 -0.2037
  261THF    H10 4830   5.240   1.661   5.419  0.3349 -0.6539 -0.9604
  261THF    H11 4831   5.168   1.811   5.473 -0.4913  0.5784 -1.4824
  261THF    H12 4832   5.085   1.872   5.260 -0.0506 -0.1287 -1.0534
  261THF    H13 4833   5.219   1.777   5.186 -0.8322  1.2115 -1.3358
  262THF     O1 4834   4.604   3.196   4.920  0.1518 -0.1823  0.1199
  262THF     C2 4835   4.698   3.092   4.944 -0.6650 -0.3980 -0.2680
  262THF     C3 4836   4.530   3.160   4.796 -0.3552 -0.7059 -0.5499
  262THF     H4 4837   4.712   3.077   5.051  0.7069  2.8868  0.1322
  262THF     H5 4838   4.796   3.106   4.899 -0.2482 -2.1987  0.0170
  262THF     H6 4839   4.436   3.215   4.791  0.4033  0.7584  0.6946
  262THF     H7 4840   4.590   3.202   4.715 -1.0112 -0.7363 -1.0584
  262THF     C8 4841   4.513   3.006   4.808 -0.0485 -0.3848  0.5805
  262THF     C9 4842   4.644   2.969   4.869 -0.2150  0.6641 -0.2394
  262THF    H10 4843   4.489   2.962   4.711 -3.1623  0.4927  0.8311
  262THF    H11 4844   4.437   2.980   4.882 -0.5460 -2.4090 -0.5509
  262THF    H12 4845   4.632   2.880   4.930  1.9561  0.0502 -0.6553
  262THF    H13 4846   4.724   2.953   4.797  1.1617 -4.4690  1.9898
  263THF     O1 4847   5.264   3.876   3.977  0.2784  0.4105 -0.5196
  263THF     C2 4848   5.237   3.775   4.077  0.2797 -0.2637  0.1826
  263THF     C3 4849   5.390   3.849   3.908  0.5709  0.8952  0.2398
  263THF     H4 4850   5.131   3.754   4.091  0.2892  0.0928  0.8294
  263THF     H5 4851   5.273   3.801   4.176 -2.8725  0.3791  1.2990
  263THF     H6 4852   5.397   3.892   3.809  2.6252 -1.7907 -0.9107
  263THF     H7 4853   5.477   3.878   3.966  1.8915  1.2486 -1.8298
  263THF     C8 4854   5.389   3.693   3.904 -0.5138 -0.0181  0.0564
  263THF     C9 4855   5.328   3.652   4.038  0.3716 -0.0271  0.0577
  263THF    H10 4856   5.492   3.658   3.897  0.0007  1.0171  1.7487
  263THF    H11 4857   5.323   3.661   3.824 -0.2318  2.0553 -1.0788
  263THF    H12 4858   5.272   3.559   4.032 -0.5236  0.5359 -0.4191
  263THF    H13 4859   5.403   3.643   4.117  1.3960  2.3796 -0.5430
  264THF     O1 4860   5.056   4.338   1.132 -0.4175  0.2293 -0.3168
  264THF     C2 4861   5.110   4.466   1.114 -0.0694  0.0612  0.8015
  264THF     C3 4862   5.154   4.258   1.201 -0.9381  0.5061  0.1485
  264THF     H4 4863   5.075   4.529   1.195  0.3551  0.3589  0.7576
  264THF     H5 4864   5.055   4.504   1.028 -0.5461 -1.8036  0.2235
  264THF     H6 4865   5.134   4.296   1.301  0.3204 -1.4462  1.1893
  264THF     H7 4866   5.129   4.152   1.203  0.4586  0.1444 -0.4941
  264THF     C8 4867   5.291   4.294   1.139  0.1609 -0.1740  0.1284
  264THF     C9 4868   5.266   4.441   1.100 -0.5669 -0.2155 -0.6349
  264THF    H10 4869   5.296   4.231   1.051 -2.8541 -1.1400  0.5307
  264THF    H11 4870   5.370   4.277   1.212 -0.8266  2.3376  1.9218
  264THF    H12 4871   5.317   4.503   1.174  1.3365 -4.8701  2.4733
  264THF    H13 4872   5.303   4.475   1.004 -3.2220  2.8825 -0.7600
  265THF     O1 4873   4.426   4.976   3.201  0.2745  0.0934  0.0356
  265THF     C2 4874   4.467   5.105   3.165  0.4378  0.0067 -0.2815
  265THF     C3 4875   4.533   4.886   3.194  0.0883 -0.1928  0.4004
  265THF     H4 4876   4.420   5.171   3.239  0.3746  0.1973 -0.4922
  265THF     H5 4877   4.424   5.137   3.071  0.8097  0.4532 -0.3077
  265THF     H6 4878   4.553   4.838   3.290 -2.5031 -1.6131  0.3057
  265THF     H7 4879   4.515   4.803   3.126  3.0796 -1.9816  1.5513
  265THF     C8 4880   4.659   4.973   3.147 -0.3059 -0.4559 -0.8760
  265THF     C9 4881   4.618   5.114   3.175  0.4296 -0.2580  0.9427
  265THF    H10 4882   4.681   4.947   3.044  0.8401  0.8774 -0.9900
  265THF    H11 4883   4.741   4.938   3.210 -0.9712  0.6918  0.6942
  265THF    H12 4884   4.655   5.148   3.272 -1.1391  0.8768  1.1876
  265THF    H13 4885   4.662   5.178   3.099 -1.2818  0.5166  0.5526
  266THF     O1 4886   0.520   1.734   4.781 -0.1601 -0.0773  0.4242
  266THF     C2 4887   0.625   1.772   4.695  0.4050 -0.6396 -0.0925
  266THF     C3 4888   0.446   1.845   4.829 -0.5396  0.4126 -0.2998
  266THF     H4 4889   0.642   1.696   4.619 -3.0954 -0.5084 -1.1677
  266THF     H5 4890   0.713   1.774   4.760 -1.3533  2.2586  2.5022
  266THF     H6 4891   0.346   1.819   4.862 -0.7107 -1.0071 -1.8407
  266THF     H7 4892   0.499   1.900   4.907  0.3914  0.2057 -0.7733
  266THF     C8 4893   0.444   1.933   4.703 -0.3231 -0.2133 -0.2360
  266THF     C9 4894   0.579   1.907   4.633  0.1410  0.0397  0.4985
  266THF    H10 4895   0.427   2.036   4.735 -1.3672 -1.4935  3.9091
  266THF    H11 4896   0.364   1.905   4.633 -2.0509 -0.3160  1.6955
  266THF    H12 4897   0.577   1.920   4.525 -1.4195  2.4842  0.7626
  266THF    H13 4898   0.653   1.984   4.653 -0.4531  0.9251 -0.6561
  267THF     O1 4899   3.272   0.056   3.077  0.1914  0.6875  0.2539
  267THF     C2 4900   3.314  -0.070   3.021 -0.7761 -0.2103  0.2679
  267THF     C3 4901   3.331   0.079   3.209 -1.0360 -0.0014  0.1692
  267THF     H4 4902   3.314  -0.065   2.912 -3.1507 -2.0964  0.1015
  267THF     H5 4903   3.242  -0.144   3.056 -0.8222  0.9742  2.8954
  267THF     H6 4904   3.328   0.185   3.236  0.4648  0.6318 -1.8929
  267THF     H7 4905   3.294   0.025   3.297  0.9545  1.1584  1.8198
  267THF     C8 4906   3.472   0.036   3.183  0.0781  0.1710 -0.0595
  267THF     C9 4907   3.460  -0.072   3.077  0.9194  0.0108 -0.0685
  267THF    H10 4908   3.521  -0.007   3.271 -1.7601  1.6236  1.7989
  267THF    H11 4909   3.530   0.120   3.143  1.0192 -0.7453 -0.6734
  267THF    H12 4910   3.540  -0.072   3.002  0.6165  1.4268 -0.4165
  267THF    H13 4911   3.476  -0.163   3.135 -0.4318 -0.2251 -0.0433
  268THF     O1 4912   2.994   0.046   0.038 -0.6907 -0.4493 -0.0631
  268THF     C2 4913   2.934   0.124  -0.063 -0.1522  0.3316 -0.1103
  268THF     C3 4914   2.893   0.014   0.134 -0.6803 -0.2510  0.1141
  268THF     H4 4915   2.996   0.131  -0.152 -0.2323  2.4130 -0.0515
  268THF     H5 4916   2.917   0.220  -0.014  1.4764 -0.2744  1.7951
  268THF     H6 4917   2.904  -0.078   0.191  0.1350  0.0707  0.4961
  268THF     H7 4918   2.884   0.090   0.212 -1.9010  0.1849 -0.4243
  268THF     C8 4919   2.759   0.016   0.055  0.1458 -0.0494 -0.3272
  268THF     C9 4920   2.794   0.070  -0.082  0.6223  0.4052  0.1185
  268THF    H10 4921   2.690   0.079   0.112  0.4713 -0.5702  0.6790
  268THF    H11 4922   2.714  -0.083   0.051  0.3264 -0.1344 -0.2554
  268THF    H12 4923   2.809  -0.014  -0.151  0.2102 -1.1995  1.8882
  268THF    H13 4924   2.716   0.132  -0.126 -3.4881 -3.6321  0.8940
  269THF     O1 4925   4.279   3.429   1.438 -0.0654  0.1314 -0.1780
  269THF     C2 4926   4.211   3.520   1.515 -0.5364  0.4467 -0.0588
  269THF     C3 4927   4.280   3.304   1.500 -0.4144 -1.3053  0.2343
  269THF     H4 4928   4.189   3.604   1.448  1.1947  1.5701  0.7035
  269THF     H5 4929   4.268   3.548   1.603  1.4438 -0.9180 -0.8260
  269THF     H6 4930   4.268   3.235   1.416  1.8630 -0.3310 -0.9631
  269THF     H7 4931   4.374   3.296   1.555  1.4492 -0.5418 -2.6444
  269THF     C8 4932   4.153   3.298   1.579 -0.2054 -1.0240 -0.2824
  269THF     C9 4933   4.090   3.442   1.566 -0.3844  0.6771 -0.1156
  269THF    H10 4934   4.179   3.279   1.683 -1.9265  0.3440  0.4383
  269THF    H11 4935   4.079   3.225   1.546 -0.6703 -0.7612  0.1571
  269THF    H12 4936   4.019   3.439   1.483  0.3576  1.3370 -0.7879
  269THF    H13 4937   4.063   3.498   1.656  1.0491  3.6451 -1.3905
  270THF     O1 4938   3.267   1.995   3.434  0.0462 -0.0453 -0.2358
  270THF     C2 4939   3.130   1.994   3.472 -0.3849 -0.2342  0.9362
  270THF     C3 4940   3.286   1.906   3.330  0.1940  0.6196 -0.1891
  270THF     H4 4941   3.104   2.094   3.506  1.5836  0.0783  1.7001
  270THF     H5 4942   3.113   1.938   3.564 -1.5380 -1.0992  0.2187
  270THF     H6 4943   3.375   1.929   3.270 -0.7241  0.3729 -1.7065
  270THF     H7 4944   3.321   1.808   3.364  0.5013  0.6454 -0.4202
  270THF     C8 4945   3.156   1.907   3.252 -0.3543  0.8975  0.6760
  270THF     C9 4946   3.055   1.948   3.347  0.1671  0.2511 -0.0610
  270THF    H10 4947   3.137   1.808   3.210  1.6823  0.6236  0.3011
  270THF    H11 4948   3.149   1.973   3.165 -0.7069  0.2422  0.1957
  270THF    H12 4949   2.990   2.026   3.306 -0.1808  0.3504  0.6707
  270THF    H13 4950   2.989   1.870   3.384 -1.0286  1.5970  0.7381
  271THF     O1 4951   4.360   4.171   2.835  0.5228 -0.4809 -0.3440
  271THF     C2 4952   4.295   4.051   2.821  0.1504  0.1556  0.4796
  271THF     C3 4953   4.492   4.151   2.876 -0.1169  0.5854  0.2562
  271THF     H4 4954   4.318   4.007   2.725 -0.5053 -0.9045  0.8017
  271THF     H5 4955   4.186   4.049   2.825 -0.0697 -1.3990 -3.0230
  271THF     H6 4956   4.541   4.120   2.784  0.3169 -0.3561  0.7862
  271THF     H7 4957   4.546   4.234   2.922  0.3346  0.7043 -0.4727
  271THF     C8 4958   4.477   4.034   2.975 -0.6327 -0.1257 -0.1659
  271THF     C9 4959   4.351   3.956   2.931 -0.0736 -0.6173 -0.0916
  271THF    H10 4960   4.457   4.082   3.071 -1.4827 -0.4585 -0.1709
  271THF    H11 4961   4.569   3.976   2.984  0.4226  1.6750  1.1821
  271THF    H12 4962   4.366   3.855   2.894 -0.6039 -1.2155  1.2939
  271THF    H13 4963   4.292   3.940   3.021  1.2300  0.1378  0.9274
  272THF     O1 4964   0.634   4.450   1.635  0.2030  0.1188 -0.9090
  272THF     C2 4965   0.686   4.326   1.679 -0.6434  0.2457 -0.0320
  272THF     C3 4966   0.697   4.496   1.514 -0.6602  0.0762 -0.7877
  272THF     H4 4967   0.606   4.263   1.720 -0.5759 -0.8269 -1.4494
  272THF     H5 4968   0.763   4.325   1.757 -2.2250 -0.7753  1.6067
  272THF     H6 4969   0.615   4.514   1.445 -2.1990  1.9529  1.3810
  272THF     H7 4970   0.757   4.587   1.516 -0.4603 -0.0574 -0.6878
  272THF     C8 4971   0.804   4.388   1.488 -0.0110 -0.1978  0.5345
  272THF     C9 4972   0.757   4.264   1.561 -0.1867 -0.3840  0.5767
  272THF    H10 4973   0.897   4.421   1.533  0.3650  0.8192 -0.9307
  272THF    H11 4974   0.820   4.387   1.380 -1.3319 -1.7734  0.3065
  272THF    H12 4975   0.690   4.214   1.492  0.4890  0.1398 -0.5016
  272THF    H13 4976   0.832   4.190   1.589  0.8844  1.3089  2.4718
  273THF     O1 4977   1.101   1.941   5.428 -0.6947 -0.2771  0.4758
  273THF     C2 4978   1.176   2.068   5.417 -0.0847  0.1211 -0.0287
  273THF     C3 4979   1.137   1.851   5.327  0.0801 -0.1112 -0.5051
  273THF     H4 4980   1.180   2.121   5.512  1.8836 -0.1982  0.1018
  273THF     H5 4981   1.121   2.138   5.354  1.6949  1.0101 -0.6542
  273THF     H6 4982   1.096   1.750   5.332  0.7805 -0.3651  0.3845
  273THF     H7 4983   1.090   1.895   5.239  2.9876  2.1330 -1.0802
  273THF     C8 4984   1.289   1.861   5.328 -0.3817  0.0697 -0.0534
  273THF     C9 4985   1.307   2.007   5.360 -0.6493  0.8655 -0.1452
  273THF    H10 4986   1.332   1.828   5.233  1.2457 -1.0934  1.0208
  273THF    H11 4987   1.322   1.794   5.408  0.1573 -1.4571 -1.5030
  273THF    H12 4988   1.387   2.023   5.433 -1.3477  0.1225  0.8085
  273THF    H13 4989   1.340   2.049   5.265  1.0551 -1.0010 -0.4562
  274THF     O1 4990   2.661   0.989   1.135 -0.0233 -0.0377  0.8003
  274THF     C2 4991   2.732   1.028   1.023 -0.0749 -0.2369  0.1065
  274THF     C3 4992   2.636   1.099   1.216 -0.4574 -0.2542  0.0146
  274THF     H4 4993   2.727   0.958   0.939 -0.6811  1.5639 -1.4174
  274THF     H5 4994   2.837   1.037   1.051 -0.5542  0.1990  1.8614
  274THF     H6 4995   2.547   1.091   1.278  0.7586 -2.0046  1.6658
  274THF     H7 4996   2.720   1.115   1.284 -0.7586  0.2815  0.2698
  274THF     C8 4997   2.631   1.219   1.122 -0.5834  0.3473 -0.0207
  274THF     C9 4998   2.672   1.164   0.986  0.1889  0.1129 -0.2498
  274THF    H10 4999   2.696   1.302   1.150  0.0244 -0.2064  0.2098
  274THF    H11 5000   2.527   1.252   1.123 -0.1468  1.8214  0.8089
  274THF    H12 5001   2.595   1.136   0.914  0.2807  0.7657 -0.6061
  274THF    H13 5002   2.747   1.221   0.932  1.6091  1.1510  2.6159
  275THF     O1 5003   4.125   2.483   1.353  0.1889 -0.2611  0.5008
  275THF     C2 5004   4.200   2.394   1.273 -0.0892 -0.5161 -0.6657
  275THF     C3 5005   3.985   2.467   1.304  0.8356  0.2595 -0.0377
  275THF     H4 5006   4.301   2.371   1.308  0.4871 -1.6702 -2.8681
  275THF     H5 5007   4.230   2.442   1.180 -1.9760 -0.4922 -1.2957
  275THF     H6 5008   3.914   2.474   1.387 -1.2832  0.1921 -1.7619
  275THF     H7 5009   3.957   2.526   1.217  0.9038 -1.0561 -0.9879
  275THF     C8 5010   3.972   2.322   1.247 -1.2648  0.1797 -0.3481
  275THF     C9 5011   4.111   2.268   1.263  0.2988 -0.6196 -0.8048
  275THF    H10 5012   3.927   2.324   1.148 -1.1478  1.0641 -0.3883
  275THF    H11 5013   3.899   2.257   1.295  0.5924 -1.9722 -0.2440
  275THF    H12 5014   4.120   2.211   1.355 -1.0569  1.8254  0.9795
  275THF    H13 5015   4.131   2.217   1.169 -3.0402  0.5100 -2.3097
  276THF     O1 5016   4.034   2.337   2.736  0.1939  1.1658 -0.0467
  276THF     C2 5017   4.054   2.318   2.886  0.8653 -0.9294  0.1248
  276THF     C3 5018   3.900   2.385   2.713  0.3231 -0.9262 -0.0489
  276THF     H4 5019   4.041   2.417   2.931 -2.9013 -0.9539 -0.5813
  276THF     H5 5020   4.150   2.276   2.917  0.6264 -1.5264  0.0699
  276THF     H6 5021   3.888   2.491   2.738 -1.5234 -0.9775 -0.5098
  276THF     H7 5022   3.862   2.378   2.611 -0.6218 -2.3533  0.3745
  276THF     C8 5023   3.823   2.308   2.817  0.9836 -0.3385  0.8512
  276THF     C9 5024   3.921   2.242   2.919  0.0376  0.1067 -0.2269
  276THF    H10 5025   3.758   2.232   2.774  2.4347 -1.1418  0.0263
  276THF    H11 5026   3.768   2.383   2.874  1.4682  1.4124 -0.8669
  276THF    H12 5027   3.897   2.260   3.023 -1.6366 -0.6422 -0.4488
  276THF    H13 5028   3.926   2.134   2.913  1.5440  0.1205  0.3334
  277THF     O1 5029   1.135   4.357   1.072 -0.3025 -0.2924  0.4662
  277THF     C2 5030   1.076   4.293   0.958  0.0362 -0.1419  0.8215
  277THF     C3 5031   1.035   4.374   1.174  0.5675 -0.1095  0.2973
  277THF     H4 5032   1.156   4.256   0.893 -0.9366 -0.4819 -0.2329
  277THF     H5 5033   1.017   4.349   0.885 -0.8594  0.7483  2.1967
  277THF     H6 5034   1.080   4.380   1.274 -1.4086 -0.3412  1.2379
  277THF     H7 5035   0.958   4.444   1.143 -0.0415 -0.9362 -0.0871
  277THF     C8 5036   0.961   4.243   1.170  0.1633  0.4414  0.7244
  277THF     C9 5037   0.985   4.191   1.031  0.5798 -0.4623 -0.4204
  277THF    H10 5038   0.856   4.250   1.196  0.4592  0.5836  1.9090
  277THF    H11 5039   1.013   4.171   1.234 -0.4973  0.2388  1.0335
  277THF    H12 5040   1.025   4.090   1.035 -2.6026 -1.7978  1.5302
  277THF    H13 5041   0.894   4.169   0.976 -0.0353 -1.8193  1.0702
  278THF     O1 5042   3.491   4.971   0.609  0.1629  0.3955 -0.0110
  278THF     C2 5043   3.465   4.963   0.468 -0.8263 -0.7653  0.5634
  278THF     C3 5044   3.586   5.071   0.634 -0.3870  0.2465 -0.2451
  278THF     H4 5045   3.362   4.933   0.450 -1.3453  1.3066 -0.2105
  278THF     H5 5046   3.539   4.896   0.426 -0.6420 -0.4797  0.4264
  278THF     H6 5047   3.537   5.140   0.703 -0.0118  0.8539 -0.5860
  278THF     H7 5048   3.673   5.028   0.684 -2.2883 -0.6738  2.5251
  278THF     C8 5049   3.604   5.145   0.500  0.0035 -0.5090  0.4936
  278THF     C9 5050   3.483   5.104   0.426 -0.3542  0.2497 -0.1994
  278THF    H10 5051   3.691   5.101   0.451 -1.1532 -4.0331  1.2834
  278THF    H11 5052   3.611   5.253   0.513  0.9670 -0.5594  0.4174
  278THF    H12 5053   3.394   5.161   0.455 -0.3004  1.0249 -1.4843
  278THF    H13 5054   3.486   5.107   0.317 -0.9647 -0.4675 -0.2486
  279THF     O1 5055   2.913   4.538   3.648  0.1442  0.2550  0.4305
  279THF     C2 5056   3.000   4.645   3.602 -0.2987  0.0487  0.2396
  279THF     C3 5057   2.890   4.576   3.781  0.3149  1.0770 -0.0903
  279THF     H4 5058   3.001   4.652   3.493 -2.9682  0.5133  0.1962
  279THF     H5 5059   3.099   4.624   3.642 -0.2687  1.1769  0.8105
  279THF     H6 5060   2.807   4.523   3.828  1.8015  0.5497  2.0972
  279THF     H7 5061   2.984   4.564   3.834  1.3598  3.1164 -1.3759
  279THF     C8 5062   2.864   4.718   3.784 -0.2307  0.4788  0.3073
  279THF     C9 5063   2.952   4.774   3.675  0.0331  0.4444  0.5849
  279THF    H10 5064   2.897   4.758   3.880 -0.7348  1.0857  0.2338
  279THF    H11 5065   2.757   4.734   3.771 -1.0782 -2.1139  2.9421
  279THF    H12 5066   2.898   4.845   3.612  0.5850  0.1884 -0.1959
  279THF    H13 5067   3.044   4.818   3.713  0.1036  1.3345 -0.5498
  280THF     O1 5068   2.484   1.521   5.242  0.4406  0.4333  0.4260
  280THF     C2 5069   2.423   1.393   5.248 -0.5276  0.0697  0.5345
  280THF     C3 5070   2.623   1.489   5.253 -0.4217 -0.3501 -0.2151
  280THF     H4 5071   2.315   1.399   5.232 -0.7617  0.3386  2.0793
  280THF     H5 5072   2.436   1.347   5.346 -1.1999 -2.9363 -0.6745
  280THF     H6 5073   2.675   1.576   5.214  0.1580  0.3787  2.0529
  280THF     H7 5074   2.658   1.471   5.354 -2.9012  1.1551  1.0319
  280THF     C8 5075   2.642   1.375   5.150  0.1489 -0.9625 -0.4170
  280THF     C9 5076   2.506   1.315   5.141  0.2251  0.2355  0.5576
  280THF    H10 5077   2.713   1.300   5.184 -0.5705 -0.2932  2.9960
  280THF    H11 5078   2.686   1.416   5.059  2.8502 -1.2394  0.6801
  280THF    H12 5079   2.471   1.329   5.039  1.6868 -2.3277 -0.3688
  280THF    H13 5080   2.490   1.212   5.173 -2.1438  0.9030  1.7507
  281THF     O1 5081   5.335   4.766   4.842  0.0848 -0.0847 -0.0080
  281THF     C2 5082   5.325   4.734   4.710 -0.9016  0.3551  0.6561
  281THF     C3 5083   5.313   4.910   4.866  0.6177 -0.0472 -0.3331
  281THF     H4 5084   5.228   4.690   4.686 -0.0528 -1.2984  0.0549
  281THF     H5 5085   5.397   4.660   4.674 -1.0356  1.4070 -2.0357
  281THF     H6 5086   5.237   4.929   4.942  1.5843  1.2876  0.3470
  281THF     H7 5087   5.398   4.968   4.902  0.7141  0.3843 -1.2368
  281THF     C8 5088   5.280   4.970   4.726 -0.3785 -0.0515  0.7848
  281THF     C9 5089   5.345   4.870   4.632  0.0418  0.7312  0.6841
  281THF    H10 5090   5.319   5.069   4.699  1.3761 -0.9641 -0.1969
  281THF    H11 5091   5.171   4.972   4.716 -0.3982 -0.0959  0.9856
  281THF    H12 5092   5.307   4.869   4.530 -0.6162 -1.5334  0.8922
  281THF    H13 5093   5.453   4.881   4.634  0.1136  0.0242  0.9213
  282THF     O1 5094   2.603   1.754   1.428 -0.3328 -0.2234  0.4159
  282THF     C2 5095   2.690   1.651   1.376  0.0023 -0.2388 -1.1905
  282THF     C3 5096   2.498   1.689   1.500 -0.1845  0.1019  0.6125
  282THF     H4 5097   2.753   1.639   1.464 -1.6301  1.4058  0.2923
  282THF     H5 5098   2.762   1.681   1.299 -0.4687  1.0439 -1.1634
  282THF     H6 5099   2.521   1.683   1.607  0.3823 -1.1315  0.4317
  282THF     H7 5100   2.408   1.749   1.486  0.1703  0.2312 -1.3171
  282THF     C8 5101   2.479   1.547   1.429 -0.1321 -0.2768  0.0942
  282THF     C9 5102   2.600   1.531   1.336  0.4888 -0.2060 -0.0842
  282THF    H10 5103   2.386   1.544   1.373  0.3483  0.9192 -0.8286
  282THF    H11 5104   2.482   1.479   1.514 -1.1853 -2.3085 -1.4112
  282THF    H12 5105   2.649   1.434   1.344 -0.0503 -0.3891  1.2889
  282THF    H13 5106   2.581   1.549   1.230 -0.4716 -2.5111 -0.3443
  283THF     O1 5107   1.165   0.150   1.002 -0.0957  0.6931  0.3484
  283THF     C2 5108   1.238   0.138   1.123  1.2629 -0.0929  0.2599
  283THF     C3 5109   1.032   0.185   1.029 -0.2003 -0.3260  0.3210
  283THF     H4 5110   1.267   0.235   1.164 -0.1725 -0.1811  1.5740
  283THF     H5 5111   1.320   0.067   1.115  0.5778 -0.9005  0.3051
  283THF     H6 5112   1.041   0.293   1.046 -0.4361  0.0926 -1.9588
  283THF     H7 5113   0.960   0.171   0.949 -2.7517  1.1057  2.1957
  283THF     C8 5114   1.002   0.108   1.160 -0.4111  0.0960 -0.2022
  283THF     C9 5115   1.137   0.086   1.227  0.1685 -0.2883  0.2960
  283THF    H10 5116   0.949   0.014   1.142 -0.0712  0.2457 -2.1991
  283THF    H11 5117   0.945   0.178   1.221  1.5045  0.5568  1.1575
  283THF    H12 5118   1.146   0.147   1.317  0.9075  2.5109 -1.5445
  283THF    H13 5119   1.161  -0.018   1.247 -1.7266 -1.0291 -1.0138
  284THF     O1 5120   0.801   1.553   1.389 -0.2004 -0.7840  0.2788
  284THF     C2 5121   0.908   1.481   1.440 -0.3381 -0.4214  0.5360
  284THF     C3 5122   0.750   1.630   1.498 -0.3535 -0.2857  0.8400
  284THF     H4 5123   0.971   1.460   1.354  0.5535 -1.4559  1.4271
  284THF     H5 5124   0.868   1.393   1.491  0.1601 -0.1675  1.3840
  284THF     H6 5125   0.667   1.693   1.466 -1.3467 -1.4933  0.9808
  284THF     H7 5126   0.702   1.558   1.565  0.0719 -1.7985 -0.4327
  284THF     C8 5127   0.880   1.682   1.559  1.0056  0.4317 -0.1930
  284THF     C9 5128   0.974   1.571   1.542  1.2174  0.6573 -1.0086
  284THF    H10 5129   0.877   1.714   1.663  0.7980  1.8922 -0.6318
  284THF    H11 5130   0.918   1.759   1.493  1.0012 -0.8013 -1.6805
  284THF    H12 5131   1.075   1.607   1.522  1.4838  1.3226  1.2141
  284THF    H13 5132   0.966   1.523   1.640  0.9152 -0.0800 -1.3863
  285THF     O1 5133   1.271   4.732   5.339  0.3602  0.2413 -0.0101
  285THF     C2 5134   1.377   4.806   5.295 -0.5549  0.5369  0.2747
  285THF     C3 5135   1.158   4.809   5.327  0.2772  0.0602 -0.1237
  285THF     H4 5136   1.419   4.756   5.208 -0.0391  0.0148  0.8114
  285THF     H5 5137   1.448   4.786   5.376  0.9540 -0.9843 -1.3501
  285THF     H6 5138   1.104   4.808   5.232 -3.1589 -1.6191  1.6325
  285THF     H7 5139   1.080   4.773   5.394 -0.0689 -0.9982 -1.0640
  285THF     C8 5140   1.202   4.951   5.366  0.0611 -0.2072  0.4865
  285THF     C9 5141   1.332   4.956   5.289 -0.8718 -0.0638 -0.0299
  285THF    H10 5142   1.216   4.948   5.474  2.4401 -0.8313  0.2113
  285THF    H11 5143   1.139   5.031   5.325  0.2934 -1.2070 -2.0350
  285THF    H12 5144   1.318   4.983   5.185  0.7599  1.0180 -0.0060
  285THF    H13 5145   1.410   5.021   5.329  0.1302 -1.9437  1.2558
  286THF     O1 5146   4.414   0.578   2.828  0.0665 -0.1264 -0.0057
  286THF     C2 5147   4.377   0.619   2.958 -0.2406 -0.2442  0.3668
  286THF     C3 5148   4.458   0.694   2.757 -0.4550  0.7644 -0.5064
  286THF     H4 5149   4.372   0.537   3.030 -0.7578 -1.0335 -0.5569
  286THF     H5 5150   4.282   0.671   2.953  0.2056  0.7030  1.3109
  286THF     H6 5151   4.501   0.651   2.666  0.7520  1.6713 -0.3907
  286THF     H7 5152   4.376   0.766   2.749  0.0207  1.2748 -0.9026
  286THF     C8 5153   4.554   0.752   2.858  0.3529 -0.3918 -0.8873
  286THF     C9 5154   4.498   0.713   2.993  0.0825  0.0743  0.1685
  286THF    H10 5155   4.559   0.860   2.849  1.3341 -0.3421  0.0257
  286THF    H11 5156   4.649   0.700   2.846 -0.2134 -1.7029  0.0778
  286THF    H12 5157   4.569   0.671   3.064  0.1754  1.1822  0.7603
  286THF    H13 5158   4.462   0.804   3.041 -3.1407 -1.6048  1.2699
  287THF     O1 5159   4.309   3.615   3.100 -0.0233  0.0084 -0.2210
  287THF     C2 5160   4.169   3.620   3.073  0.1722 -0.4618  0.5364
  287THF     C3 5161   4.333   3.641   3.236  0.7959 -0.1780 -0.8634
  287THF     H4 5162   4.114   3.527   3.086  0.0229 -0.6438 -1.2451
  287THF     H5 5163   4.154   3.629   2.966 -0.6523 -0.5982  0.6363
  287THF     H6 5164   4.307   3.554   3.296  2.6302 -1.0275 -1.2452
  287THF     H7 5165   4.437   3.665   3.255  0.7711 -0.4401 -0.3849
  287THF     C8 5166   4.236   3.759   3.261  0.4553 -0.0778  0.1180
  287THF     C9 5167   4.120   3.736   3.164  1.0384 -0.0466  0.4069
  287THF    H10 5168   4.300   3.839   3.227  0.0891 -0.5282 -1.7536
  287THF    H11 5169   4.208   3.788   3.362  0.8972  0.3577  0.1147
  287THF    H12 5170   4.032   3.705   3.220  0.8943  1.2599  0.9256
  287THF    H13 5171   4.095   3.823   3.104 -0.5633 -1.8038 -1.6182
  288THF     O1 5172   0.976   0.888   2.916  0.5942  0.2957  0.3125
  288THF     C2 5173   0.888   0.931   2.816 -0.4456  0.2681  1.2653
  288THF     C3 5174   0.909   0.805   3.007 -0.2386  0.8162 -0.2155
  288THF     H4 5175   0.883   0.843   2.751  1.1091  0.0823  1.3798
  288THF     H5 5176   0.921   1.017   2.759  3.7734 -2.5363 -1.0343
  288THF     H6 5177   0.896   0.702   2.971  0.8222  1.2766 -2.0451
  288THF     H7 5178   0.944   0.800   3.110 -1.8413  1.2321  0.3685
  288THF     C8 5179   0.772   0.869   3.017 -0.5024  0.6330 -0.1524
  288THF     C9 5180   0.758   0.953   2.893 -0.2864  0.1230  0.3782
  288THF    H10 5181   0.764   0.936   3.102  0.4271 -1.1868  1.4368
  288THF    H11 5182   0.691   0.796   3.028  1.6682 -2.0389 -0.7712
  288THF    H12 5183   0.671   0.927   2.833 -1.0669  2.3195  0.4743
  288THF    H13 5184   0.751   1.059   2.914 -1.2445  0.2358 -0.4320
  289THF     O1 5185   4.914   2.662   5.255  0.1359 -0.2180 -0.5808
  289THF     C2 5186   4.826   2.611   5.148 -0.2173 -1.2501 -0.3859
  289THF     C3 5187   5.023   2.570   5.267 -0.0954 -0.3373  0.6482
  289THF     H4 5188   4.766   2.696   5.116 -0.2016 -1.2333 -0.3706
  289THF     H5 5189   4.757   2.540   5.193 -0.7914 -1.1489 -1.0997
  289THF     H6 5190   5.111   2.619   5.308 -1.0568  0.0069  2.3871
  289THF     H7 5191   4.992   2.480   5.320 -1.3568 -1.0100 -1.1323
  289THF     C8 5192   5.059   2.543   5.119  0.5920 -0.3080 -0.1870
  289THF     C9 5193   4.927   2.544   5.054  0.0199  0.7626  0.4654
  289THF    H10 5194   5.117   2.451   5.108 -1.2718 -1.4958 -0.4419
  289THF    H11 5195   5.124   2.617   5.073 -0.6015  1.9035  1.4583
  289THF    H12 5196   4.945   2.607   4.967 -0.4387  0.8745  0.4516
  289THF    H13 5197   4.900   2.444   5.022  1.3444  0.5551 -0.0799
  290THF     O1 5198   4.856   1.004   0.933  0.5810  0.1028 -0.2907
  290THF     C2 5199   4.923   1.123   0.891 -0.3411 -0.1037 -0.2341
  290THF     C3 5200   4.961   0.908   0.963  0.5601  1.2848 -0.4216
  290THF     H4 5201   4.850   1.201   0.910  0.2003  0.6810 -1.2885
  290THF     H5 5202   4.945   1.122   0.785  1.5031 -0.0383  0.1167
  290THF     H6 5203   4.928   0.822   1.022 -0.0181  2.5919  1.2470
  290THF     H7 5204   5.021   0.886   0.875 -0.0674 -0.5407 -0.4351
  290THF     C8 5205   5.048   0.989   1.048  0.6146 -0.3015  0.4197
  290THF     C9 5206   5.038   1.127   0.981 -0.7499  0.1534  0.1559
  290THF    H10 5207   5.150   0.955   1.069  1.3430  1.9551  0.7958
  290THF    H11 5208   5.003   0.986   1.147  0.5649 -0.7847  0.3872
  290THF    H12 5209   5.035   1.214   1.047  0.8704  0.5662 -0.2531
  290THF    H13 5210   5.133   1.143   0.930 -1.9208  1.4946 -1.7496
  291THF     O1 5211   4.593   4.763   4.433  0.0032 -0.0763  0.3584
  291THF     C2 5212   4.671   4.743   4.314 -0.6715 -0.7082  0.2238
  291THF     C3 5213   4.679   4.737   4.542  0.4062 -0.2712  0.7521
  291THF     H4 5214   4.723   4.832   4.278  0.4584 -0.9957  1.0847
  291THF     H5 5215   4.605   4.696   4.241 -1.0355 -2.0629  1.3851
  291THF     H6 5216   4.701   4.816   4.614 -0.9221 -0.7986  1.7912
  291THF     H7 5217   4.645   4.648   4.595 -0.3925  0.8213  2.1648
  291THF     C8 5218   4.817   4.698   4.483  0.1002 -0.4242  0.0030
  291THF     C9 5219   4.779   4.649   4.351  0.5350 -0.5309  0.2724
  291THF    H10 5220   4.880   4.636   4.546 -0.0041  0.3571  0.8980
  291THF    H11 5221   4.866   4.794   4.466  2.2639 -1.4612  0.0931
  291THF    H12 5222   4.857   4.647   4.274 -0.5668  1.1356 -0.9690
  291THF    H13 5223   4.742   4.548   4.370 -0.0500 -0.2412  0.6796
  292THF     O1 5224   0.501   3.570   3.929  0.8035  0.3880  0.5164
  292THF     C2 5225   0.608   3.526   3.844  0.0177  0.5296 -0.6232
  292THF     C3 5226   0.470   3.702   3.883 -0.3118 -0.2663  0.1596
  292THF     H4 5227   0.645   3.429   3.878 -0.0280  0.7606  0.1168
  292THF     H5 5228   0.695   3.587   3.866 -0.7217  0.8002  1.9250
  292THF     H6 5229   0.374   3.731   3.926  0.6758  0.1418  2.2490
  292THF     H7 5230   0.554   3.763   3.918  1.0483 -2.2372  0.5178
  292THF     C8 5231   0.496   3.683   3.726 -0.2559  0.4753 -0.4288
  292THF     C9 5232   0.555   3.549   3.704 -0.4691  0.0010 -0.0150
  292THF    H10 5233   0.549   3.763   3.675 -1.2822  0.0214 -2.2859
  292THF    H11 5234   0.401   3.692   3.673  0.0114  0.0583 -0.9868
  292THF    H12 5235   0.468   3.488   3.678 -2.5014  2.1612  1.3612
  292THF    H13 5236   0.632   3.538   3.627  1.9030  1.7902  1.9717
  293THF     O1 5237   2.980   4.285   2.842 -0.2522  0.2504  0.0497
  293THF     C2 5238   3.071   4.281   2.724 -0.0190 -0.3464  0.6156
  293THF     C3 5239   2.921   4.159   2.841  0.1326 -0.0213 -0.1062
  293THF     H4 5240   3.150   4.217   2.762 -0.3340 -1.5589 -0.7186
  293THF     H5 5241   3.101   4.382   2.696 -1.0066  0.0104  0.8178
  293THF     H6 5242   2.985   4.091   2.896  0.6563 -0.7414 -1.5581
  293THF     H7 5243   2.830   4.164   2.901  0.8472 -2.4826  1.3396
  293THF     C8 5244   2.898   4.130   2.690 -0.5234  0.7991  0.6171
  293THF     C9 5245   2.994   4.219   2.612  0.7611 -0.3414 -0.1723
  293THF    H10 5246   2.794   4.159   2.674 -0.3873  0.7994 -0.3092
  293THF    H11 5247   2.918   4.028   2.657  0.2381  0.8595  0.8804
  293THF    H12 5248   3.053   4.153   2.549  1.9883  0.8039 -0.2684
  293THF    H13 5249   2.939   4.294   2.555  1.0795 -0.2080 -0.3059
  294THF     O1 5250   0.355   4.838   3.802 -0.0300  0.7504  0.7539
  294THF     C2 5251   0.387   4.974   3.828 -0.1734  0.2772 -0.0861
  294THF     C3 5252   0.214   4.817   3.800 -0.5278 -0.6905 -0.2523
  294THF     H4 5253   0.420   5.027   3.739 -1.2358 -0.6992 -1.0975
  294THF     H5 5254   0.473   4.971   3.894 -0.2964 -0.6071  0.0482
  294THF     H6 5255   0.174   4.857   3.707 -0.2903  1.8928  0.6791
  294THF     H7 5256   0.209   4.708   3.808 -1.1925 -0.5527  2.3706
  294THF     C8 5257   0.173   4.917   3.910  0.2985 -0.4594  0.3232
  294THF     C9 5258   0.262   5.033   3.898 -0.1371 -0.3165 -0.4829
  294THF    H10 5259   0.165   4.871   4.009  0.1484  0.3788  0.7063
  294THF    H11 5260   0.067   4.938   3.898  0.2376 -0.2208  1.2570
  294THF    H12 5261   0.226   5.105   3.825 -2.7593 -0.6656  0.3432
  294THF    H13 5262   0.292   5.085   3.989  1.9030 -0.9479 -0.7499
  295THF     O1 5263   5.439   2.739   0.144  0.7255 -0.0829  0.0955
  295THF     C2 5264   5.386   2.626   0.087  0.0192 -0.0146  0.1745
  295THF     C3 5265   5.557   2.770   0.070  0.3141 -0.0505  0.1902
  295THF     H4 5266   5.294   2.650   0.034 -0.8550 -1.5713  0.9240
  295THF     H5 5267   5.373   2.560   0.173  1.5962  0.5022  0.8491
  295THF     H6 5268   5.527   2.851   0.004  1.4350 -0.3388 -0.7095
  295THF     H7 5269   5.626   2.806   0.146 -0.0606  0.2227  0.4058
  295THF     C8 5270   5.600   2.651  -0.009 -0.2517  0.4852  0.4649
  295THF     C9 5271   5.486   2.559  -0.002  0.0543 -0.4849 -0.0950
  295THF    H10 5272   5.688   2.612   0.043 -1.0142 -0.4124  1.1089
  295THF    H11 5273   5.623   2.684  -0.110  1.9055 -0.8364  0.4663
  295THF    H12 5274   5.454   2.521  -0.100 -1.2775 -1.0010  0.5109
  295THF    H13 5275   5.508   2.462   0.042 -1.1261 -1.1152 -0.8317
  296THF     O1 5276   1.934   1.316   4.999  0.0628  0.3542 -0.3504
  296THF     C2 5277   1.994   1.259   5.112 -0.5745  0.4727 -0.2381
  296THF     C3 5278   1.914   1.209   4.905 -0.0356  0.0986 -0.1140
  296THF     H4 5279   1.923   1.197   5.166  0.2986 -0.7249 -0.4116
  296THF     H5 5280   2.041   1.332   5.178  1.5713 -0.5021 -0.6075
  296THF     H6 5281   1.829   1.149   4.940 -0.7906  0.8155 -0.6843
  296THF     H7 5282   1.903   1.254   4.807 -0.2591 -0.0917 -0.1777
  296THF     C8 5283   2.032   1.113   4.920 -0.0842 -0.2376  0.5637
  296THF     C9 5284   2.102   1.173   5.046  0.3715  0.1459 -0.5176
  296THF    H10 5285   2.088   1.111   4.826 -0.6238  0.6956  0.2058
  296THF    H11 5286   1.994   1.012   4.933  0.9738 -0.7947 -0.5103
  296THF    H12 5287   2.133   1.103   5.124  1.7328  0.0620 -1.1111
  296THF    H13 5288   2.187   1.231   5.012  1.4663 -1.8436 -1.3035
  297THF     O1 5289   2.994   1.043   3.243  0.0607 -0.0892  0.4193
  297THF     C2 5290   3.028   1.000   3.109  0.1972  0.1751  0.0948
  297THF     C3 5291   3.061   1.160   3.258 -0.9358  0.0601 -0.7383
  297THF     H4 5292   2.947   0.937   3.073 -0.3449 -0.2949  1.9896
  297THF     H5 5293   3.123   0.947   3.108 -0.4547 -1.0360  0.8777
  297THF     H6 5294   2.980   1.225   3.292 -1.5943  0.0460 -2.1896
  297THF     H7 5295   3.141   1.142   3.330 -1.5897 -0.1711 -0.0648
  297THF     C8 5296   3.127   1.202   3.124 -0.8902  0.3893 -0.1864
  297THF     C9 5297   3.040   1.127   3.024  0.7526 -0.2700 -0.2813
  297THF    H10 5298   3.228   1.162   3.114 -1.1290  0.1043 -1.6845
  297THF    H11 5299   3.137   1.310   3.110  0.2999  0.4016  0.6923
  297THF    H12 5300   2.946   1.179   3.007  1.6579  0.6767 -2.8788
  297THF    H13 5301   3.090   1.115   2.927  2.8666  1.0127  0.5524
  298THF     O1 5302   0.538   2.709   2.479  0.8323  0.4222  0.2478
  298THF     C2 5303   0.616   2.590   2.495  0.4690 -0.5366 -0.1035
  298THF     C3 5304   0.488   2.698   2.351 -0.8487  0.3877 -0.2108
  298THF     H4 5305   0.615   2.565   2.601  0.3161 -0.3673 -0.0648
  298THF     H5 5306   0.721   2.614   2.485  1.1394 -1.9350  2.7195
  298THF     H6 5307   0.411   2.772   2.330 -0.3492  1.1064  0.3976
  298THF     H7 5308   0.566   2.703   2.276  0.0261 -0.1523  0.6297
  298THF     C8 5309   0.437   2.558   2.350  0.4476  0.4657 -1.1414
  298THF     C9 5310   0.552   2.483   2.408  0.4991  0.3447  0.6336
  298THF    H10 5311   0.406   2.510   2.257 -1.4142 -1.2486  0.2808
  298THF    H11 5312   0.350   2.556   2.415 -0.7839 -0.9323 -2.7395
  298THF    H12 5313   0.519   2.396   2.464 -0.3792  0.1784 -0.1168
  298THF    H13 5314   0.619   2.444   2.331  0.6063  1.4802  0.1373
  299THF     O1 5315   4.414   5.359   0.023 -0.6517  0.1116 -0.4670
  299THF     C2 5316   4.520   5.277   0.069  0.6126 -0.0136 -0.5716
  299THF     C3 5317   4.435   5.495   0.074  0.9209  0.1280  1.0670
  299THF     H4 5318   4.600   5.289  -0.004 -0.0577  2.9976 -0.9662
  299THF     H5 5319   4.489   5.173   0.064  3.3652 -0.8828 -1.1295
  299THF     H6 5320   4.489   5.558   0.003  0.5668 -1.5307 -0.7896
  299THF     H7 5321   4.337   5.539   0.095 -0.0830 -1.4219 -0.1207
  299THF     C8 5322   4.518   5.486   0.194 -0.9088  0.2684 -0.2904
  299THF     C9 5323   4.534   5.335   0.207  0.1989  0.3008 -0.0961
  299THF    H10 5324   4.477   5.534   0.283  0.9844 -0.9787  1.3474
  299THF    H11 5325   4.620   5.520   0.173 -0.5034 -1.0972 -0.6199
  299THF    H12 5326   4.618   5.294   0.264  0.4181 -0.9878 -1.2702
  299THF    H13 5327   4.452   5.293   0.265  0.4310  0.2307  0.1877
  300THF     O1 5328   0.659   1.486   0.548  0.8528 -0.1127  0.7057
  300THF     C2 5329   0.797   1.512   0.542 -1.0632 -0.3724 -0.5922
  300THF     C3 5330   0.639   1.365   0.624  0.1600  0.1970  0.0389
  300THF     H4 5331   0.825   1.613   0.571  1.6166 -1.5232  1.2601
  300THF     H5 5332   0.842   1.503   0.443  0.2486  1.0601 -0.1647
  300THF     H6 5333   0.546   1.380   0.679 -0.7467  0.4361 -1.4998
  300THF     H7 5334   0.637   1.285   0.550 -2.5223  1.2475 -1.1591
  300THF     C8 5335   0.757   1.359   0.717 -0.5396  0.4007  0.0314
  300THF     C9 5336   0.876   1.418   0.642  1.0893  0.0890 -0.6381
  300THF    H10 5337   0.767   1.257   0.755 -0.7506 -0.1627 -1.3709
  300THF    H11 5338   0.751   1.426   0.802 -0.5230 -2.2162  2.2589
  300THF    H12 5339   0.932   1.484   0.709 -0.5261  0.1801  0.7009
  300THF    H13 5340   0.950   1.356   0.591  0.9414  1.4316 -2.6085
  301THF     O1 5341   3.983   2.801   2.077  0.6660  0.2984  0.4822
  301THF     C2 5342   3.860   2.856   2.034 -0.0290  0.9879 -0.3154
  301THF     C3 5343   3.945   2.669   2.124 -0.0562 -0.2029 -0.1573
  301THF     H4 5344   3.841   2.821   1.932 -0.4656 -1.0420  0.4276
  301THF     H5 5345   3.869   2.965   2.032  1.1828  0.9072  0.0760
  301THF     H6 5346   3.909   2.606   2.043  0.4528  1.0957 -1.4227
  301THF     H7 5347   4.016   2.610   2.183 -0.2738  2.0308  2.6012
  301THF     C8 5348   3.822   2.686   2.207  0.1639  0.3374 -0.6329
  301THF     C9 5349   3.755   2.797   2.134  0.1375 -0.3450 -0.1951
  301THF    H10 5350   3.858   2.712   2.307 -1.0325 -2.2380  0.5627
  301THF    H11 5351   3.770   2.590   2.213  0.7520  0.0414 -0.1906
  301THF    H12 5352   3.667   2.761   2.080 -0.3683  0.5168  0.0401
  301THF    H13 5353   3.716   2.871   2.203 -0.8905  0.0135 -1.1246
  302THF     O1 5354   4.294   1.709   3.761 -0.1014  0.2722  0.7761
  302THF     C2 5355   4.362   1.667   3.643 -0.1059  0.1647  0.6049
  302THF     C3 5356   4.379   1.786   3.847  1.0290  0.3374  0.2409
  302THF     H4 5357   4.292   1.689   3.563  1.0717 -1.5499 -0.9954
  302THF     H5 5358   4.383   1.560   3.648  1.1899  0.3500 -0.4908
  302THF     H6 5359   4.346   1.890   3.846  2.6908  0.8942 -0.5978
  302THF     H7 5360   4.391   1.754   3.951 -0.2731 -2.3748 -0.3444
  302THF     C8 5361   4.514   1.777   3.786 -0.6843 -0.7437 -0.7775
  302THF     C9 5362   4.487   1.759   3.637  0.3778  0.1812 -0.3120
  302THF    H10 5363   4.564   1.685   3.816  0.6070 -1.0805 -3.6252
  302THF    H11 5364   4.586   1.857   3.804  0.6104 -1.9130 -0.6089
  302THF    H12 5365   4.465   1.856   3.595  0.1397  0.5161  0.5596
  302THF    H13 5366   4.567   1.722   3.573 -1.1375  0.6871 -2.5878
  303THF     O1 5367   3.598   4.278   3.350 -0.2589  0.2914  0.1090
  303THF     C2 5368   3.528   4.386   3.408 -0.1120 -0.0463 -0.3000
  303THF     C3 5369   3.586   4.174   3.442  0.6848  0.9041 -0.2071
  303THF     H4 5370   3.519   4.471   3.341 -1.8238 -0.8666 -1.1851
  303THF     H5 5371   3.588   4.419   3.493 -1.3769  0.0121  0.6107
  303THF     H6 5372   3.586   4.075   3.398  0.8753 -1.0772  3.8218
  303THF     H7 5373   3.656   4.174   3.526 -0.6925 -1.3408  1.0426
  303THF     C8 5374   3.440   4.194   3.492 -0.3413  0.4526  0.1598
  303THF     C9 5375   3.399   4.330   3.448  0.6443  0.1645 -0.0651
  303THF    H10 5376   3.439   4.195   3.601  3.1326  1.6962  0.2794
  303THF    H11 5377   3.366   4.124   3.452 -2.1490  2.7087 -0.6928
  303THF    H12 5378   3.328   4.325   3.366 -0.3746 -0.6060  0.8370
  303THF    H13 5379   3.353   4.379   3.534 -2.2180 -0.4769 -1.1201
  304THF     O1 5380   1.402   4.135   1.603  0.0413  0.3531 -0.0201
  304THF     C2 5381   1.319   4.250   1.618  0.3197  0.4546  0.2802
  304THF     C3 5382   1.330   4.018   1.640 -0.3296  0.3551 -0.7283
  304THF     H4 5383   1.351   4.327   1.548 -1.8174 -1.3931 -3.0000
  304THF     H5 5384   1.335   4.276   1.723  1.2112  0.5853  0.1203
  304THF     H6 5385   1.358   3.918   1.607 -0.2957 -0.3000  1.2168
  304THF     H7 5386   1.331   4.009   1.748 -0.8994 -0.6241 -0.7853
  304THF     C8 5387   1.183   4.039   1.609  0.1939 -0.1183 -0.1069
  304THF     C9 5388   1.175   4.189   1.597 -1.5868 -0.7004 -0.5283
  304THF    H10 5389   1.114   3.995   1.680  0.8518  0.0492  0.6516
  304THF    H11 5390   1.159   4.009   1.507  1.3004  2.3651 -1.2055
  304THF    H12 5391   1.143   4.216   1.497  1.7021  1.9577 -1.0335
  304THF    H13 5392   1.107   4.232   1.671 -0.4993  0.0898  0.0506
  305THF     O1 5393   1.696   3.807   2.337 -0.1734 -0.4780  0.4378
  305THF     C2 5394   1.720   3.691   2.409  0.8326  0.0330  0.4718
  305THF     C3 5395   1.577   3.790   2.253  0.0216  0.3678 -0.8332
  305THF     H4 5396   1.773   3.736   2.493 -0.3496 -0.2820  1.4105
  305THF     H5 5397   1.775   3.619   2.349 -1.8819 -1.6758 -0.1384
  305THF     H6 5398   1.547   3.892   2.232 -2.2476  0.2619  1.4499
  305THF     H7 5399   1.594   3.732   2.163 -1.2165 -0.4808 -0.5411
  305THF     C8 5400   1.483   3.717   2.356 -0.1914 -0.4140 -0.1904
  305THF     C9 5401   1.579   3.644   2.450 -0.1019  0.3254  0.4892
  305THF    H10 5402   1.428   3.644   2.296  0.1307  0.7202 -1.9687
  305THF    H11 5403   1.418   3.780   2.417  1.1614  0.2804  0.5680
  305THF    H12 5404   1.551   3.676   2.551  0.4486  1.4578  0.2973
  305THF    H13 5405   1.579   3.535   2.450  0.3627  0.3216  0.8833
  306THF     O1 5406   2.375   4.512   3.708  0.4053  0.0002 -0.4380
  306THF     C2 5407   2.348   4.468   3.571 -0.0527 -0.0340 -0.5865
  306THF     C3 5408   2.500   4.570   3.700 -0.5337 -0.0427  0.0504
  306THF     H4 5409   2.280   4.544   3.531  0.4572  1.2801  0.9251
  306THF     H5 5410   2.296   4.376   3.594 -0.5234  0.8541  2.2880
  306THF     H6 5411   2.500   4.678   3.713  1.3598  0.4327 -2.9655
  306THF     H7 5412   2.560   4.535   3.784  0.8664 -0.8293 -1.2324
  306THF     C8 5413   2.567   4.542   3.570  0.4536 -0.4645  0.1657
  306THF     C9 5414   2.477   4.450   3.501  0.2443 -0.3764 -0.5209
  306THF    H10 5415   2.660   4.489   3.590 -0.4555 -2.9449 -1.7103
  306THF    H11 5416   2.594   4.621   3.500 -0.9857 -0.5604 -0.5200
  306THF    H12 5417   2.457   4.467   3.396  1.6498  3.9522 -0.2819
  306THF    H13 5418   2.501   4.345   3.516  0.4319 -0.1772  0.6524
  307THF     O1 5419   5.135   0.126   4.099 -0.2309 -0.2699 -0.2677
  307THF     C2 5420   5.272   0.080   4.093  0.1000 -1.0459 -0.0375
  307THF     C3 5421   5.121   0.259   4.052 -0.0857  0.0014  0.2633
  307THF     H4 5422   5.274  -0.029   4.086  1.1442 -1.1432  1.3315
  307THF     H5 5423   5.337   0.121   4.170 -0.6569  1.5636 -0.6676
  307THF     H6 5424   5.037   0.261   3.983 -0.5384 -0.0326  0.8146
  307THF     H7 5425   5.109   0.332   4.132  1.6943 -0.3991  0.9483
  307THF     C8 5426   5.250   0.288   3.978 -0.5911 -0.6688  0.6181
  307THF     C9 5427   5.310   0.148   3.960 -0.0268  1.0489  0.0707
  307THF    H10 5428   5.299   0.361   4.042 -3.0177  1.8503 -0.1998
  307THF    H11 5429   5.226   0.337   3.883 -0.6063  0.3979  1.1631
  307THF    H12 5430   5.278   0.089   3.874 -0.2118  1.9477 -0.4996
  307THF    H13 5431   5.417   0.159   3.942 -0.2699  0.9965 -1.6033
  308THF     O1 5432   1.567   2.059   4.866  0.3822 -0.7633 -0.6006
  308THF     C2 5433   1.488   2.009   4.981 -0.6443  0.1906  0.3466
  308THF     C3 5434   1.702   2.045   4.900 -0.4551  0.1194 -0.1849
  308THF     H4 5435   1.476   1.902   4.966 -2.5740  0.3098  0.8628
  308THF     H5 5436   1.395   2.065   4.977  0.2015  1.5937 -1.0133
  308THF     H6 5437   1.720   1.938   4.891 -2.5951 -0.4112  1.0883
  308THF     H7 5438   1.768   2.094   4.829  2.0765 -2.2603  0.3378
  308THF     C8 5439   1.711   2.083   5.048 -0.0913 -0.0451 -0.6693
  308THF     C9 5440   1.568   2.049   5.104 -0.9395  0.4327 -0.1023
  308THF    H10 5441   1.753   2.179   5.076 -0.5419 -0.1171  0.2816
  308THF    H11 5442   1.782   2.011   5.090  0.8847 -0.3788 -2.7409
  308THF    H12 5443   1.563   1.968   5.176  0.4685  0.7635  0.4030
  308THF    H13 5444   1.518   2.137   5.146 -0.5632  0.9374 -0.6860
  309THF     O1 5445   5.360   3.063   3.089 -0.5068  0.7623 -0.3541
  309THF     C2 5446   5.374   3.200   3.046  0.0728 -0.1093  0.4382
  309THF     C3 5447   5.277   3.064   3.202 -0.0040  0.2604  0.1740
  309THF     H4 5448   5.367   3.212   2.938 -0.7604  0.3349  0.5279
  309THF     H5 5449   5.471   3.239   3.073  0.3643 -0.1862 -0.4607
  309THF     H6 5450   5.223   2.978   3.241  0.4043  0.8482  2.1597
  309THF     H7 5451   5.346   3.074   3.286  1.1585 -1.8807 -0.4479
  309THF     C8 5452   5.186   3.178   3.193  0.4010  0.7024  0.4375
  309THF     C9 5453   5.255   3.280   3.104 -0.4528  0.3352 -0.0724
  309THF    H10 5454   5.171   3.204   3.298 -1.2127  0.3964  0.3087
  309THF    H11 5455   5.091   3.153   3.146  0.4816  0.0278  0.6307
  309THF    H12 5456   5.190   3.339   3.038 -0.8698  0.0391  0.0698
  309THF    H13 5457   5.279   3.360   3.174  0.5889  0.4313 -0.5292
  310THF     O1 5458   2.190   3.160   0.222 -0.3360  0.6989  0.0494
  310THF     C2 5459   2.166   3.176   0.090  0.1856 -0.6085 -0.4312
  310THF     C3 5460   2.095   3.071   0.287  0.1723 -0.2867  0.1158
  310THF     H4 5461   2.260   3.146   0.043 -1.6395 -3.1558 -2.7538
  310THF     H5 5462   2.139   3.276   0.056  0.2821 -1.3964 -3.0329
  310THF     H6 5463   2.160   2.989   0.318 -1.7661 -1.5669  0.9716
  310THF     H7 5464   2.044   3.113   0.373  0.6945  0.8142 -0.0921
  310THF     C8 5465   1.999   3.024   0.176 -0.4549  0.1077  0.4598
  310THF     C9 5466   2.065   3.071   0.047  0.2515 -0.4024 -0.2577
  310THF    H10 5467   1.908   3.084   0.178 -0.6125 -0.0469 -0.7882
  310THF    H11 5468   1.970   2.919   0.189  1.4908 -0.3898  1.0488
  310THF    H12 5469   2.118   2.982   0.012  2.2995  0.7893 -0.3410
  310THF    H13 5470   1.990   3.115  -0.019 -0.3081 -0.3717  0.3907
  311THF     O1 5471   4.979   0.968   0.403  0.3000  0.0943  0.3541
  311THF     C2 5472   4.931   1.100   0.421 -0.4162 -0.9156  0.3419
  311THF     C3 5473   4.930   0.925   0.278  0.2698  0.2012 -0.3163
  311THF     H4 5474   4.988   1.158   0.493  1.2690 -3.0748  0.8332
  311THF     H5 5475   4.831   1.097   0.465  0.0145  1.4171  1.6562
  311THF     H6 5476   4.991   0.846   0.233  2.9723  1.5098  0.7820
  311THF     H7 5477   4.834   0.877   0.294  1.5352 -2.4983 -0.2202
  311THF     C8 5478   4.920   1.043   0.184  0.5712  0.4766  0.2991
  311THF     C9 5479   4.933   1.159   0.279  0.2324 -0.0606 -0.0410
  311THF    H10 5480   4.820   1.039   0.141  0.5347  0.7141  0.3573
  311THF    H11 5481   4.996   1.046   0.106  0.5083  1.6012  0.2612
  311THF    H12 5482   5.028   1.210   0.265  0.3966  0.6947  3.0975
  311THF    H13 5483   4.862   1.242   0.275  2.1070  1.5717 -1.2019
  312THF     O1 5484   0.193   1.246   0.381  0.3555 -0.0451  0.4546
  312THF     C2 5485   0.200   1.372   0.314  0.0811  0.3752  0.0350
  312THF     C3 5486   0.308   1.172   0.369 -0.2682 -0.2199 -0.4888
  312THF     H4 5487   0.181   1.446   0.391  1.4578  1.4044 -0.5713
  312THF     H5 5488   0.129   1.391   0.233  1.2681  0.8890 -0.9288
  312THF     H6 5489   0.366   1.189   0.460 -0.3138  2.0887 -0.8410
  312THF     H7 5490   0.294   1.065   0.350  0.7100 -0.1454 -1.7987
  312THF     C8 5491   0.377   1.234   0.253  0.2535  0.0682 -0.1641
  312THF     C9 5492   0.335   1.377   0.254  0.4316  0.0878 -0.2685
  312THF    H10 5493   0.333   1.192   0.163  0.2620 -0.9496  0.2926
  312THF    H11 5494   0.486   1.230   0.241  0.3756  0.9591  0.5164
  312THF    H12 5495   0.403   1.437   0.314 -1.6043  0.6013  1.6228
  312THF    H13 5496   0.329   1.412   0.151 -0.8915  0.2961 -0.1350
  313THF     O1 5497   1.241   4.425   0.613 -0.0506 -0.5294 -0.0545
  313THF     C2 5498   1.358   4.481   0.553  0.9833  0.2511  0.8127
  313THF     C3 5499   1.260   4.282   0.613 -0.2962 -0.0937 -0.5741
  313THF     H4 5500   1.425   4.524   0.627  1.0891 -2.8699  2.6701
  313THF     H5 5501   1.308   4.558   0.493  0.5369 -0.4158  0.3021
  313THF     H6 5502   1.338   4.259   0.686 -2.2581  0.9017  2.0159
  313THF     H7 5503   1.161   4.239   0.633 -0.3774  0.7845  1.0671
  313THF     C8 5504   1.317   4.256   0.486 -0.4621 -0.0705  0.2637
  313THF     C9 5505   1.416   4.369   0.469 -0.3309 -0.0406 -0.3418
  313THF    H10 5506   1.238   4.261   0.412 -0.2727 -1.5834 -0.0677
  313THF    H11 5507   1.373   4.163   0.475  1.6173  1.3579 -2.4706
  313THF    H12 5508   1.511   4.348   0.517  0.8082  4.1766 -0.3953
  313THF    H13 5509   1.435   4.388   0.364 -2.6678  0.4621 -0.7420
  314THF     O1 5510   2.268   1.607   1.707 -0.2179  0.0861  0.1125
  314THF     C2 5511   2.292   1.720   1.789  0.0550  0.4037  0.7606
  314THF     C3 5512   2.198   1.507   1.772  0.2757 -0.4628 -0.6082
  314THF     H4 5513   2.311   1.810   1.730  5.1928 -0.3940  0.7612
  314THF     H5 5514   2.387   1.709   1.841  0.6341  1.0040 -0.1494
  314THF     H6 5515   2.135   1.454   1.701  0.8415 -2.2445  0.1406
  314THF     H7 5516   2.264   1.435   1.820 -1.2528 -0.5244  1.5585
  314THF     C8 5517   2.115   1.585   1.884  0.7074 -0.5851 -0.9960
  314THF     C9 5518   2.177   1.730   1.887  0.7615  0.0107  0.2607
  314THF    H10 5519   2.127   1.539   1.981 -0.5848  0.0790 -0.4922
  314THF    H11 5520   2.011   1.598   1.852  0.2582 -0.0541  0.5750
  314THF    H12 5521   2.100   1.802   1.860  0.3468 -0.3531  0.4594
  314THF    H13 5522   2.221   1.765   1.981  1.2959 -2.1578  0.8748
  315THF     O1 5523   0.217   3.961   0.848  0.0784  0.0808  0.1872
  315THF     C2 5524   0.099   3.937   0.779  0.5377  0.5097  0.5239
  315THF     C3 5525   0.208   3.895   0.974 -0.6254 -0.2686 -0.7205
  315THF     H4 5526   0.092   3.830   0.759  0.7045  0.1477  2.2705
  315THF     H5 5527   0.093   3.998   0.689  0.1802  0.2655  0.3823
  315THF     H6 5528   0.259   3.800   0.956 -0.4697 -0.0565 -1.4160
  315THF     H7 5529   0.272   3.956   1.037 -1.5914  0.6240 -0.5847
  315THF     C8 5530   0.056   3.901   1.006 -0.2980  0.3376 -0.3809
  315THF     C9 5531  -0.005   3.974   0.890  0.0980  0.8368 -0.6611
  315THF    H10 5532   0.036   3.945   1.104 -0.9736  2.0764 -1.2546
  315THF    H11 5533   0.016   3.801   1.017  0.7912 -0.0732  0.0207
  315THF    H12 5534  -0.106   3.949   0.860  0.2968  0.1023 -0.7260
  315THF    H13 5535   0.004   4.082   0.902  1.0219  0.7714 -0.6637
  316THF     O1 5536   2.857   0.065   2.707 -0.1654  0.4715  0.3833
  316THF     C2 5537   2.909  -0.071   2.736  0.5980 -0.8573  0.6601
  316THF     C3 5538   2.755   0.078   2.802 -0.6823  0.0774 -0.1294
  316THF     H4 5539   3.008  -0.075   2.689  0.5716  1.5777  0.2686
  316THF     H5 5540   2.856  -0.144   2.675 -0.4877  0.3975  0.0462
  316THF     H6 5541   2.715   0.179   2.807 -1.7740 -0.4042  1.6760
  316THF     H7 5542   2.672   0.014   2.773  1.0835 -2.3489 -0.2015
  316THF     C8 5543   2.809   0.028   2.933 -0.5359 -0.2052 -0.2968
  316THF     C9 5544   2.912  -0.075   2.891  0.4132  0.3346 -0.3285
  316THF    H10 5545   2.727  -0.022   2.985  0.5472 -1.6803  0.0448
  316THF    H11 5546   2.851   0.110   2.991 -0.7390  0.0053 -0.4417
  316THF    H12 5547   3.003  -0.043   2.941 -0.4527  0.4573  1.2542
  316THF    H13 5548   2.881  -0.168   2.939 -0.7042  1.6191  1.5427
  317THF     O1 5549   1.787   1.756   4.700  0.2363 -0.0332  0.2163
  317THF     C2 5550   1.838   1.635   4.653 -0.4843  1.0000 -0.1020
  317THF     C3 5551   1.670   1.788   4.630  0.1784  0.1395  0.5462
  317THF     H4 5552   1.894   1.587   4.734  0.0683 -0.6504 -1.4141
  317THF     H5 5553   1.889   1.651   4.558 -2.2669  0.6567 -1.1522
  317THF     H6 5554   1.601   1.835   4.700  0.1150  0.2416  0.4142
  317THF     H7 5555   1.694   1.852   4.546  0.5236 -0.6052  0.0645
  317THF     C8 5556   1.616   1.663   4.571 -0.3634 -0.0584  0.2310
  317THF     C9 5557   1.713   1.553   4.611 -0.0759  0.5517 -0.0796
  317THF    H10 5558   1.615   1.661   4.463  2.2444  0.7670  0.1292
  317THF    H11 5559   1.519   1.639   4.615  0.5986 -1.3944  1.7572
  317THF    H12 5560   1.670   1.510   4.702  0.4381  1.0275  0.3904
  317THF    H13 5561   1.739   1.482   4.533  1.9894  1.2078 -0.0343
  318THF     O1 5562   5.162   3.865   4.874  0.0170 -0.5581 -0.2762
  318THF     C2 5563   5.243   3.852   4.755  0.2285 -0.3191 -0.6014
  318THF     C3 5564   5.030   3.885   4.834  1.2870  0.0056  0.4407
  318THF     H4 5565   5.343   3.811   4.766  0.9711  1.4443 -0.5249
  318THF     H5 5566   5.255   3.954   4.721  0.2514  0.0057  0.3578
  318THF     H6 5567   4.956   3.855   4.908 -1.5721  1.4458 -1.6151
  318THF     H7 5568   5.017   3.993   4.829 -0.5520 -0.2177 -0.8931
  318THF     C8 5569   5.008   3.819   4.695  0.1651  0.1759  0.9155
  318THF     C9 5570   5.154   3.768   4.658 -0.4201 -0.1808 -0.4236
  318THF    H10 5571   4.966   3.889   4.623 -1.4451  0.6646  2.2666
  318THF    H11 5572   4.942   3.732   4.697  1.7017 -1.0210  1.6384
  318THF    H12 5573   5.168   3.662   4.682  2.3588  0.3007  0.3876
  318THF    H13 5574   5.180   3.787   4.554  2.6262  2.2850  0.6265
  319THF     O1 5575   2.746   0.553   1.318 -0.0408 -0.2490  0.4671
  319THF     C2 5576   2.627   0.474   1.316 -0.4310 -0.4061 -0.2427
  319THF     C3 5577   2.708   0.677   1.251 -0.4272  0.3657 -0.5561
  319THF     H4 5578   2.566   0.507   1.400  1.3530  0.5488  0.7291
  319THF     H5 5579   2.650   0.368   1.323  0.9265 -0.1580 -0.7564
  319THF     H6 5580   2.673   0.760   1.313  0.0983  1.1324 -1.2561
  319THF     H7 5581   2.799   0.726   1.217  1.7859 -1.3119  2.4273
  319THF     C8 5582   2.610   0.635   1.135 -0.2636 -0.5695  0.4420
  319THF     C9 5583   2.546   0.516   1.188  0.1062  0.6246  0.1157
  319THF    H10 5584   2.662   0.599   1.047 -0.7133  0.7623 -0.4061
  319THF    H11 5585   2.536   0.710   1.104  0.5797  0.2577  0.3716
  319THF    H12 5586   2.449   0.557   1.215  0.3020 -0.4430  2.7243
  319THF    H13 5587   2.535   0.440   1.111  0.9763 -0.3183  0.8980
  320THF     O1 5588   0.580   1.890   1.927 -0.0925  0.2029 -0.1383
  320THF     C2 5589   0.635   1.757   1.898 -0.8348 -0.0504 -0.7286
  320THF     C3 5590   0.674   1.968   1.995 -0.5864  0.2339  0.2159
  320THF     H4 5591   0.703   1.794   1.821  0.6649  3.2832  1.9538
  320THF     H5 5592   0.572   1.672   1.870 -0.9807 -0.2611  0.2255
  320THF     H6 5593   0.735   2.006   1.914  0.8615 -2.4871 -0.1065
  320THF     H7 5594   0.630   2.057   2.040 -0.4834  0.9749 -1.1097
  320THF     C8 5595   0.758   1.868   2.074 -0.6581  0.6640  0.7910
  320THF     C9 5596   0.708   1.737   2.030 -0.3572  0.3941  0.3611
  320THF    H10 5597   0.760   1.878   2.182  1.6988  0.4863  0.8013
  320THF    H11 5598   0.861   1.871   2.040 -0.5886  0.2255  0.9694
  320THF    H12 5599   0.769   1.647   2.026 -0.7487  0.1739 -1.7913
  320THF    H13 5600   0.633   1.720   2.107  0.4053 -3.1073  0.5103
  321THF     O1 5601   4.600   2.383   0.096 -0.3058  0.3759  0.3726
  321THF     C2 5602   4.674   2.422   0.213 -0.4135 -0.5886  0.3547
  321THF     C3 5603   4.593   2.500   0.014  0.0991 -0.5423  0.4454
  321THF     H4 5604   4.707   2.334   0.268  0.4303 -0.4113  0.1390
  321THF     H5 5605   4.605   2.484   0.271 -1.9996 -1.5140 -0.4682
  321THF     H6 5606   4.567   2.478  -0.089 -0.7486  1.7610  0.1021
  321THF     H7 5607   4.519   2.575   0.045 -0.2046  0.0939 -1.6331
  321THF     C8 5608   4.736   2.558   0.012  0.3040 -0.0444 -0.2035
  321THF     C9 5609   4.786   2.510   0.155  0.8374  0.1492  0.7352
  321THF    H10 5610   4.740   2.666  -0.007  0.6563 -0.0438 -0.1274
  321THF    H11 5611   4.797   2.511  -0.065  1.4762  2.2313 -0.7766
  321THF    H12 5612   4.868   2.438   0.157  0.4326 -0.3347  0.3196
  321THF    H13 5613   4.804   2.590   0.227 -2.1424  0.8979  0.7755
  322THF     O1 5614   4.737   2.864   0.631 -0.1314 -0.1896  0.4774
  322THF     C2 5615   4.777   2.726   0.641  0.0663  0.2894  0.3430
  322THF     C3 5616   4.683   2.888   0.506  1.1625  0.5778 -0.1894
  322THF     H4 5617   4.693   2.659   0.660 -0.3821  0.6641 -0.2642
  322THF     H5 5618   4.850   2.708   0.719  0.7823  0.2445 -0.3210
  322THF     H6 5619   4.582   2.847   0.500  1.3671  0.0317  0.0898
  322THF     H7 5620   4.682   2.995   0.482  0.2966  0.6053 -0.0543
  322THF     C8 5621   4.758   2.795   0.416 -0.9219 -0.3213 -0.3274
  322THF     C9 5622   4.835   2.695   0.506  0.6432 -0.4979 -0.1946
  322THF    H10 5623   4.826   2.854   0.355  0.3020 -2.1383 -0.8155
  322THF    H11 5624   4.694   2.751   0.339  0.4782  1.2173 -2.4893
  322THF    H12 5625   4.825   2.588   0.485  0.2421 -0.8273  1.4887
  322THF    H13 5626   4.941   2.717   0.501  0.0910  2.2970 -0.9206
  323THF     O1 5627   3.122   3.235   0.813 -0.3930  0.0902 -0.3131
  323THF     C2 5628   3.044   3.267   0.701 -0.2091  0.0271  0.1779
  323THF     C3 5629   3.088   3.104   0.853  0.7594  0.2244 -0.9526
  323THF     H4 5630   3.091   3.239   0.607 -1.7067 -0.5706 -0.4304
  323THF     H5 5631   3.020   3.374   0.698 -1.2971 -0.0839  2.4603
  323THF     H6 5632   3.136   3.035   0.784 -0.2479 -2.5593  0.9687
  323THF     H7 5633   3.115   3.085   0.957 -2.9768  1.4184  0.3860
  323THF     C8 5634   2.938   3.087   0.830  0.1253 -0.1490 -0.0273
  323THF     C9 5635   2.915   3.194   0.718  0.4748 -0.8039 -0.0990
  323THF    H10 5636   2.889   3.122   0.921  2.5514  2.2343  0.5026
  323THF    H11 5637   2.906   2.985   0.807  1.1540  0.0626 -2.8221
  323THF    H12 5638   2.889   3.153   0.620  1.3161 -0.4893 -0.4577
  323THF    H13 5639   2.831   3.261   0.738 -1.6699 -3.7207  1.3938
  324THF     O1 5640   3.147   0.434   2.723  0.1312  0.1477  0.9734
  324THF     C2 5641   3.198   0.386   2.602 -0.2295 -0.5580  0.3415
  324THF     C3 5642   3.102   0.325   2.792 -0.5342 -0.5975 -0.3194
  324THF     H4 5643   3.244   0.461   2.537  1.1650 -1.2579  0.4905
  324THF     H5 5644   3.109   0.362   2.543  0.9971  1.7915 -2.7583
  324THF     H6 5645   3.074   0.340   2.897  3.6682 -0.4733  0.9755
  324THF     H7 5646   3.015   0.287   2.740 -2.1921  1.4759  0.7779
  324THF     C8 5647   3.221   0.233   2.780 -0.3686  0.4327 -0.1291
  324THF     C9 5648   3.290   0.271   2.650 -0.0407  0.3089  0.3850
  324THF    H10 5649   3.205   0.126   2.771 -0.3039  0.4670 -0.7071
  324THF    H11 5650   3.293   0.241   2.862  0.9005  0.3012 -1.1943
  324THF    H12 5651   3.398   0.288   2.655 -0.0833  1.0513 -0.8625
  324THF    H13 5652   3.299   0.194   2.574 -0.1967  0.0599  0.6140
  325THF     O1 5653   0.194   0.247   4.428 -0.2877 -0.0069  0.2137
  325THF     C2 5654   0.074   0.262   4.346 -0.2929  0.1260  0.1187
  325THF     C3 5655   0.235   0.378   4.464  0.0483 -0.6842 -0.1915
  325THF     H4 5656   0.015   0.170   4.356  0.1300 -0.2166 -0.5076
  325THF     H5 5657   0.094   0.280   4.241 -0.3830  0.8915  0.2285
  325THF     H6 5658   0.266   0.391   4.568 -2.5083  0.5016  0.5157
  325THF     H7 5659   0.311   0.420   4.398 -1.1465 -0.3375 -1.3868
  325THF     C8 5660   0.116   0.474   4.438 -0.2219  0.7051  0.0190
  325THF     C9 5661   0.000   0.378   4.420  1.2815 -0.0467  0.2821
  325THF    H10 5662   0.139   0.531   4.349 -2.3366 -0.0719 -1.1024
  325THF    H11 5663   0.082   0.547   4.512  0.3855  0.8381  0.1710
  325THF    H12 5664  -0.055   0.345   4.508 -0.9750 -1.8684 -1.6767
  325THF    H13 5665  -0.079   0.421   4.358 -0.3547 -0.0145  2.3171
  326THF     O1 5666   1.945   0.218   1.810 -0.4098 -0.0996  0.2384
  326THF     C2 5667   1.825   0.285   1.836  0.1735  0.1318 -0.0714
  326THF     C3 5668   2.034   0.276   1.915  0.2362  0.4028  0.4935
  326THF     H4 5669   1.784   0.243   1.928 -1.7488  3.0298  0.5493
  326THF     H5 5670   1.762   0.279   1.748 -0.5118  1.7564  0.2597
  326THF     H6 5671   2.028   0.219   2.008 -0.3152 -1.0015 -0.3740
  326THF     H7 5672   2.137   0.257   1.885  0.3217  2.0327 -0.3375
  326THF     C8 5673   2.011   0.432   1.911 -0.1810  0.1389 -0.0599
  326THF     C9 5674   1.869   0.435   1.852 -0.0568  0.2272 -0.0284
  326THF    H10 5675   2.090   0.475   1.850  1.2656 -2.3593 -0.0960
  326THF    H11 5676   2.018   0.460   2.016  0.4444  1.7603 -0.5164
  326THF    H12 5677   1.794   0.471   1.923 -0.6066 -1.6584  0.4072
  326THF    H13 5678   1.864   0.495   1.761  0.6617  3.1257  1.7050
  327THF     O1 5679   2.909   5.133   4.903 -0.2472  0.3227  0.2044
  327THF     C2 5680   2.921   5.042   4.796 -0.1219 -0.0044 -0.2663
  327THF     C3 5681   3.028   5.215   4.893  0.2028 -0.4161  0.2219
  327THF     H4 5682   2.868   5.077   4.707 -0.8165 -2.6676 -0.9848
  327THF     H5 5683   2.873   4.947   4.821 -2.4893  0.2157 -3.3337
  327THF     H6 5684   3.022   5.283   4.807 -1.6685 -0.7182  0.0724
  327THF     H7 5685   3.042   5.279   4.979 -1.0069 -0.8732  0.7807
  327THF     C8 5686   3.136   5.105   4.881  0.5056  0.9793  1.0819
  327THF     C9 5687   3.066   5.022   4.778  0.1139 -0.0616 -0.2707
  327THF    H10 5688   3.148   5.050   4.975  0.8883 -0.0233  0.4678
  327THF    H11 5689   3.236   5.139   4.855  0.9890 -0.8569  0.3105
  327THF    H12 5690   3.084   5.058   4.677 -1.9046  1.9587 -0.0102
  327THF    H13 5691   3.098   4.918   4.777 -0.0431 -0.1085 -0.7142
  328THF     O1 5692   3.844   0.631   1.601  0.0037  0.1331  0.7193
  328THF     C2 5693   3.710   0.634   1.650  0.3288  0.2320  1.1419
  328THF     C3 5694   3.921   0.737   1.653  0.1444  0.3212  0.4742
  328THF     H4 5695   3.667   0.534   1.638  2.8088 -0.6442 -1.6317
  328THF     H5 5696   3.647   0.705   1.597 -1.3680 -0.8552  1.6198
  328THF     H6 5697   4.027   0.713   1.640 -0.0721 -0.1952 -0.3960
  328THF     H7 5698   3.897   0.828   1.597  1.2952  0.6018  0.4064
  328THF     C8 5699   3.869   0.743   1.796 -0.1827  0.0448  0.3653
  328THF     C9 5700   3.731   0.674   1.802  0.0828  0.1558  0.1505
  328THF    H10 5701   3.867   0.839   1.847 -1.7284 -0.5774  1.5616
  328THF    H11 5702   3.940   0.685   1.856  0.6474  0.6703  0.0000
  328THF    H12 5703   3.742   0.592   1.873  2.6790  1.1249  0.9834
  328THF    H13 5704   3.652   0.733   1.848  0.9790  0.0396  1.9118
  329THF     O1 5705   0.326   1.207   4.821  0.1776  0.4421 -0.0682
  329THF     C2 5706   0.461   1.250   4.835 -0.4677  0.2711  0.7299
  329THF     C3 5707   0.251   1.303   4.754 -0.0931  0.2420  0.5113
  329THF     H4 5708   0.525   1.203   4.760 -1.8046 -1.3718  0.5626
  329THF     H5 5709   0.500   1.218   4.932  0.7294  0.6280  0.3874
  329THF     H6 5710   0.266   1.302   4.646  1.6036  2.0180  0.6780
  329THF     H7 5711   0.146   1.291   4.780 -0.0901 -0.7961  0.1080
  329THF     C8 5712   0.305   1.430   4.806  0.1415 -0.0104 -0.5589
  329THF     C9 5713   0.448   1.403   4.812 -0.0866  0.1010  0.3141
  329THF    H10 5714   0.267   1.447   4.906  2.1359 -0.5164  0.3453
  329THF    H11 5715   0.277   1.508   4.735  2.4587  1.0181 -0.4440
  329THF    H12 5716   0.476   1.428   4.710  1.6018 -0.6405  0.5776
  329THF    H13 5717   0.505   1.468   4.879 -0.5406  1.0635 -0.2145
  330THF     O1 5718   2.627   3.784   2.114 -0.2508 -0.6067 -0.0076
  330THF     C2 5719   2.654   3.818   2.251 -0.1073 -0.1242 -0.0643
  330THF     C3 5720   2.534   3.877   2.063 -0.2986  0.2626  0.3227
  330THF     H4 5721   2.749   3.776   2.285 -0.9107 -0.9760  1.1980
  330THF     H5 5722   2.576   3.776   2.314 -0.0998 -1.0000 -0.6312
  330THF     H6 5723   2.557   3.904   1.960  1.5469 -2.1196  0.0227
  330THF     H7 5724   2.440   3.822   2.071 -0.0647 -0.4383 -1.3383
  330THF     C8 5725   2.535   3.993   2.152  0.4253 -0.3048 -0.5828
  330THF     C9 5726   2.652   3.970   2.242 -1.0038  0.7190  0.0214
  330THF    H10 5727   2.441   3.993   2.208  0.8358 -0.1459  0.1169
  330THF    H11 5728   2.551   4.082   2.092  0.2559 -0.8650 -1.4779
  330THF    H12 5729   2.736   4.012   2.186 -0.4215  1.6965  1.5620
  330THF    H13 5730   2.650   4.022   2.338  1.4571 -1.1106  1.1751
  331THF     O1 5731   3.399   0.018   1.693  0.3547  0.3265 -0.2253
  331THF     C2 5732   3.478  -0.081   1.756  0.3415  0.9790  0.2747
  331THF     C3 5733   3.301   0.052   1.788 -0.0052 -0.0915  0.1042
  331THF     H4 5734   3.561  -0.019   1.789  0.1755  2.0303 -1.1892
  331THF     H5 5735   3.523  -0.152   1.688  1.2576  0.3625  1.4932
  331THF     H6 5736   3.336   0.123   1.864 -1.2506  1.0875 -0.3854
  331THF     H7 5737   3.226   0.105   1.730  1.2380  1.5607 -0.0627
  331THF     C8 5738   3.273  -0.083   1.857  0.3379  0.0048 -0.3652
  331THF     C9 5739   3.402  -0.150   1.876  0.0869 -0.0756 -0.2200
  331THF    H10 5740   3.213  -0.140   1.785  0.1774 -1.0993  0.6167
  331THF    H11 5741   3.212  -0.080   1.947  0.7361  2.1606 -0.1115
  331THF    H12 5742   3.441  -0.132   1.976 -1.9584  0.7713  0.4766
  331THF    H13 5743   3.395  -0.258   1.865 -1.3681 -0.1838  1.4009
  332THF     O1 5744   3.404   0.145   5.487  0.2273 -0.0049  0.2986
  332THF     C2 5745   3.315   0.252   5.516 -0.2998  0.1470  1.0300
  332THF     C3 5746   3.366   0.093   5.359 -0.2564  0.0917  0.1755
  332THF     H4 5747   3.360   0.314   5.594 -1.3216  0.2806  1.5396
  332THF     H5 5748   3.228   0.208   5.564 -0.2042 -0.7357  0.4090
  332THF     H6 5749   3.464   0.058   5.328 -0.5494 -0.0786 -0.5534
  332THF     H7 5750   3.302   0.005   5.366 -0.6097  0.3889  0.8745
  332THF     C8 5751   3.310   0.203   5.266  0.1818 -0.2088 -0.2702
  332THF     C9 5752   3.287   0.311   5.371  0.2680 -0.0452  0.2218
  332THF    H10 5753   3.216   0.179   5.216  0.7151 -0.6536 -1.0952
  332THF    H11 5754   3.384   0.238   5.193 -0.6484  2.0205 -0.1337
  332THF    H12 5755   3.356   0.388   5.338  1.4936 -0.8033  0.9346
  332THF    H13 5756   3.187   0.353   5.361  0.3285 -0.4708 -4.0115
  333THF     O1 5757   3.767   2.848   3.237  0.2897  0.5007  0.2960
  333THF     C2 5758   3.750   2.864   3.379 -0.3175 -0.0338 -0.5103
  333THF     C3 5759   3.878   2.929   3.203 -0.8313 -0.1694  0.5316
  333THF     H4 5760   3.840   2.824   3.426 -0.9545 -1.1203 -0.1869
  333THF     H5 5761   3.663   2.829   3.434 -0.8716 -0.7202 -1.7948
  333THF     H6 5762   3.972   2.874   3.198  0.2297  1.1198  3.6767
  333THF     H7 5763   3.855   2.949   3.099 -0.9903 -1.5887  0.2789
  333THF     C8 5764   3.881   3.050   3.304 -0.0259  0.9986  0.5025
  333THF     C9 5765   3.761   3.015   3.392  0.1488  0.5596  0.4539
  333THF    H10 5766   3.878   3.153   3.269  0.5413  0.7180 -0.4070
  333THF    H11 5767   3.973   3.048   3.362  0.7872  0.7283 -0.7435
  333THF    H12 5768   3.774   3.050   3.495 -1.2905 -1.9972  1.6169
  333THF    H13 5769   3.666   3.053   3.353 -0.1909 -1.3783 -0.6994
  334THF     O1 5770   4.042   2.617   3.214 -0.1499 -0.4960 -0.3706
  334THF     C2 5771   3.917   2.564   3.160 -0.6289  0.3337  0.0436
  334THF     C3 5772   4.073   2.543   3.327  0.1416 -0.5699 -0.4573
  334THF     H4 5773   3.951   2.484   3.094  0.6284  0.5716  0.3632
  334THF     H5 5774   3.868   2.650   3.114 -0.2969  0.3624 -0.2632
  334THF     H6 5775   4.137   2.464   3.288  0.6829  0.3275 -1.4554
  334THF     H7 5776   4.120   2.609   3.400 -3.0718  0.7555  0.5794
  334THF     C8 5777   3.938   2.502   3.390 -0.2423 -0.1407 -0.2348
  334THF     C9 5778   3.838   2.510   3.274  0.1424  0.3896  0.0618
  334THF    H10 5779   3.916   2.567   3.474  1.2941 -1.4852  1.2676
  334THF    H11 5780   3.944   2.403   3.436 -0.2185 -0.8649 -1.7229
  334THF    H12 5781   3.796   2.410   3.264  1.0764 -0.0434  0.3480
  334THF    H13 5782   3.762   2.584   3.300 -0.3330 -1.1368  3.5030
  335THF     O1 5783   1.640   0.072   2.523 -0.1435  0.1156 -0.4745
  335THF     C2 5784   1.697  -0.057   2.512 -0.0838  0.1891  0.1173
  335THF     C3 5785   1.628   0.120   2.656 -0.2591 -0.3082  0.3162
  335THF     H4 5786   1.802  -0.064   2.485 -0.6679 -0.2005 -2.2550
  335THF     H5 5787   1.643  -0.107   2.431  1.0871 -0.9666  0.0079
  335THF     H6 5788   1.718   0.179   2.674 -0.9524  1.4997 -1.7870
  335THF     H7 5789   1.539   0.180   2.677 -0.1622 -0.2318  0.5191
  335THF     C8 5790   1.611  -0.013   2.739  0.5409 -0.2068 -0.6602
  335THF     C9 5791   1.671  -0.118   2.650 -0.2133  0.2234 -0.7478
  335THF    H10 5792   1.504  -0.028   2.750  0.3577  1.1033 -0.4364
  335THF    H11 5793   1.651  -0.009   2.841 -0.0827  0.8107 -0.4379
  335THF    H12 5794   1.768  -0.143   2.692 -1.3790 -0.1242  1.9757
  335THF    H13 5795   1.627  -0.218   2.657  0.9115 -0.2081  0.6909
  336THF     O1 5796   3.141   2.913   3.922  0.2730 -0.2238 -0.6345
  336THF     C2 5797   3.061   2.836   4.008  1.2196 -0.3533 -0.0330
  336THF     C3 5798   3.280   2.890   3.949 -0.3196  0.3053  0.1653
  336THF     H4 5799   3.054   2.734   3.971  1.0960 -0.1515 -0.5728
  336THF     H5 5800   2.960   2.876   4.019  2.0175  1.7033  0.1952
  336THF     H6 5801   3.323   2.803   3.898 -2.4888 -1.9905  1.9899
  336THF     H7 5802   3.341   2.979   3.935 -0.6353  0.5179  0.1371
  336THF     C8 5803   3.280   2.854   4.097 -0.6641  0.1747  0.1858
  336THF     C9 5804   3.134   2.842   4.136 -0.4711 -0.5462 -0.3159
  336THF    H10 5805   3.325   2.937   4.153  1.6274 -0.1326 -1.0890
  336THF    H11 5806   3.329   2.757   4.107  2.2438  1.3475 -1.4274
  336THF    H12 5807   3.113   2.774   4.219  0.2306  1.2073  1.3707
  336THF    H13 5808   3.087   2.930   4.181 -0.4476 -0.8135  0.2402
  337THF     O1 5809   0.881   2.466   2.440 -0.2498  0.0329 -0.1824
  337THF     C2 5810   0.979   2.501   2.348  0.6750 -0.1467  0.0477
  337THF     C3 5811   0.935   2.486   2.565  0.3326  0.0011 -0.2707
  337THF     H4 5812   0.927   2.522   2.255 -4.4316 -1.3924  2.2247
  337THF     H5 5813   1.054   2.423   2.338  2.0866  1.2074 -0.2881
  337THF     H6 5814   0.857   2.482   2.640  1.0568 -0.2126  0.4800
  337THF     H7 5815   1.007   2.409   2.594 -0.9245 -1.8491 -1.7821
  337THF     C8 5816   1.015   2.617   2.554  0.2175 -0.4902  0.3276
  337THF     C9 5817   1.043   2.624   2.405 -0.0092  0.2574  0.3569
  337THF    H10 5818   1.108   2.624   2.610 -0.2723  0.9893  1.0045
  337THF    H11 5819   0.952   2.700   2.586 -0.9137 -0.7769 -1.0920
  337THF    H12 5820   0.979   2.699   2.359 -1.1654  0.2269  1.8724
  337THF    H13 5821   1.143   2.649   2.367 -1.1784  2.6860 -1.3448
  338THF     O1 5822   2.081   3.308   0.990  0.4627 -0.5738  0.0020
  338THF     C2 5823   2.100   3.302   1.124 -0.7054  0.3166 -1.0651
  338THF     C3 5824   2.179   3.396   0.946 -0.4231 -0.6409 -0.9232
  338THF     H4 5825   2.197   3.258   1.148 -0.4536  1.4855  0.1687
  338THF     H5 5826   2.019   3.249   1.174  0.2296 -1.7866 -1.6567
  338THF     H6 5827   2.270   3.341   0.923  1.5780  1.3971  1.5368
  338THF     H7 5828   2.149   3.442   0.852 -2.2684  0.9094  0.3351
  338THF     C8 5829   2.202   3.500   1.059 -0.1853  0.8017  0.2213
  338THF     C9 5830   2.112   3.445   1.160  0.2568 -0.2590 -0.5491
  338THF    H10 5831   2.185   3.606   1.038  0.8707  1.4562  2.3385
  338THF    H11 5832   2.306   3.493   1.089  0.1126  0.9835 -0.7287
  338THF    H12 5833   2.141   3.462   1.263  1.0247 -3.8766 -0.0507
  338THF    H13 5834   2.011   3.486   1.150 -0.7602 -2.3330  0.6057
  339THF     O1 5835   3.489   1.697   4.535 -0.0542  0.3501  0.1182
  339THF     C2 5836   3.504   1.838   4.556  0.1589  0.0033  0.5608
  339THF     C3 5837   3.605   1.637   4.500 -0.0674  0.3163  0.1238
  339THF     H4 5838   3.466   1.872   4.652  0.5166  1.9420  0.0665
  339THF     H5 5839   3.444   1.890   4.482 -0.8215 -1.3095  0.4027
  339THF     H6 5840   3.662   1.609   4.589  3.9651 -2.6200 -3.0135
  339THF     H7 5841   3.590   1.547   4.442  1.7426 -0.8868  1.4010
  339THF     C8 5842   3.701   1.745   4.456  0.3509 -0.5172  0.5582
  339THF     C9 5843   3.653   1.864   4.530 -0.5784 -1.0012 -0.0541
  339THF    H10 5844   3.684   1.751   4.348 -1.1292  0.7529  0.8271
  339THF    H11 5845   3.804   1.716   4.477  0.6324  0.5059  0.6149
  339THF    H12 5846   3.697   1.871   4.630 -1.2135 -0.9439  0.2279
  339THF    H13 5847   3.686   1.960   4.490 -0.7149 -0.8079  0.2900
  340THF     O1 5848   1.680   2.589   2.093  0.3761 -0.2242 -0.4776
  340THF     C2 5849   1.592   2.633   2.203 -0.3190  0.0680 -0.1654
  340THF     C3 5850   1.803   2.547   2.144 -0.2004 -0.3365  0.0461
  340THF     H4 5851   1.568   2.543   2.259  0.6664 -1.1363 -1.6234
  340THF     H5 5852   1.504   2.695   2.187 -1.8078 -1.4966  1.5748
  340THF     H6 5853   1.813   2.440   2.159  2.9657 -0.0194  0.9301
  340THF     H7 5854   1.874   2.567   2.064 -0.9511  1.7761 -0.1691
  340THF     C8 5855   1.830   2.629   2.266 -0.5778  0.5687  0.4318
  340THF     C9 5856   1.692   2.693   2.302 -0.3914 -0.2018  0.5334
  340THF    H10 5857   1.908   2.704   2.251 -1.3529  1.3431  0.2301
  340THF    H11 5858   1.854   2.572   2.356  1.2087  1.2827  0.4639
  340THF    H12 5859   1.669   2.691   2.408 -0.1484 -0.6135  0.5784
  340THF    H13 5860   1.709   2.799   2.283  1.7011 -0.2746  1.7455
  341THF     O1 5861   1.132   1.958   3.619 -0.0282 -0.7993  0.1993
  341THF     C2 5862   1.202   1.987   3.501  0.1684  0.0250  0.4351
  341THF     C3 5863   1.156   2.060   3.713  0.0697 -0.1433  0.0818
  341THF     H4 5864   1.141   2.026   3.419  2.7735 -0.2824 -1.8066
  341THF     H5 5865   1.254   1.895   3.473 -1.0550 -0.5605  0.0179
  341THF     H6 5866   1.093   2.145   3.688  0.4393  0.0956 -0.0553
  341THF     H7 5867   1.138   2.019   3.812  0.2536  1.0337  0.6219
  341THF     C8 5868   1.303   2.103   3.685  0.4492  0.8779 -0.5644
  341THF     C9 5869   1.302   2.095   3.537 -0.6068  0.0771 -0.3612
  341THF    H10 5870   1.371   2.037   3.739 -0.8292  0.0555  0.1150
  341THF    H11 5871   1.321   2.204   3.721  1.8117  0.6601 -0.5727
  341THF    H12 5872   1.258   2.190   3.506 -0.2251  1.0394  1.8981
  341THF    H13 5873   1.400   2.073   3.494 -0.7107  0.6349 -0.9035
  342THF     O1 5874   0.200   1.031   0.718  0.0759  0.3332  0.2824
  342THF     C2 5875   0.202   1.003   0.852  0.0263 -0.5612 -0.4718
  342THF     C3 5876   0.194   1.179   0.701 -0.4514  0.5599  0.2124
  342THF     H4 5877   0.290   1.051   0.895 -1.2589  0.9811  0.5175
  342THF     H5 5878   0.198   0.897   0.880  0.7271 -0.8017 -1.2519
  342THF     H6 5879   0.293   1.224   0.702 -0.3033  0.2386 -0.0444
  342THF     H7 5880   0.138   1.212   0.614  1.6570  0.0873 -1.3988
  342THF     C8 5881   0.105   1.212   0.816 -0.0757 -0.3008  0.6131
  342THF     C9 5882   0.087   1.084   0.904  0.0256 -0.2549  0.2798
  342THF    H10 5883   0.005   1.235   0.781  1.0934  1.2655 -2.0227
  342THF    H11 5884   0.149   1.298   0.868 -0.7009 -0.4720  1.4504
  342THF    H12 5885   0.085   1.120   1.007 -0.7806  1.2024 -0.2096
  342THF    H13 5886  -0.010   1.043   0.877  0.1348 -1.0175  1.0036
  343THF     O1 5887   3.768   3.241   2.175 -0.1053 -0.6302  0.4323
  343THF     C2 5888   3.889   3.326   2.166 -0.1968 -0.8547  0.2215
  343THF     C3 5889   3.774   3.171   2.293  0.6062 -0.3646  0.2846
  343THF     H4 5890   3.892   3.398   2.247 -0.4409 -0.9855  0.3481
  343THF     H5 5891   3.906   3.378   2.072 -1.9392  0.1773  0.4295
  343THF     H6 5892   3.761   3.237   2.379  2.4831 -2.4192  2.3053
  343THF     H7 5893   3.698   3.094   2.279  1.8127 -1.3094 -1.5144
  343THF     C8 5894   3.923   3.120   2.286 -0.0850 -0.0866 -0.0794
  343THF     C9 5895   3.999   3.230   2.206 -0.2629  0.6499  0.5584
  343THF    H10 5896   3.936   3.022   2.241 -0.3530 -0.0923 -0.1439
  343THF    H11 5897   3.972   3.120   2.383 -0.3152  3.4518  0.1841
  343THF    H12 5898   4.066   3.283   2.274  0.0333 -0.2968  1.0265
  343THF    H13 5899   4.059   3.192   2.124 -1.1798 -0.0395  0.1935
  344THF     O1 5900   1.589   4.455   3.058  0.7631  0.6378  0.0159
  344THF     C2 5901   1.614   4.417   3.190 -0.4196 -0.2285 -0.1778
  344THF     C3 5902   1.460   4.513   3.058 -0.1860  1.0983  0.2737
  344THF     H4 5903   1.642   4.505   3.247 -0.5574 -0.3748  0.1172
  344THF     H5 5904   1.691   4.340   3.183 -0.2508 -0.0981  0.2305
  344THF     H6 5905   1.466   4.615   3.095  0.2070  1.6471 -1.2405
  344THF     H7 5906   1.418   4.500   2.958  0.9909 -0.2160 -0.0831
  344THF     C8 5907   1.387   4.422   3.155 -0.2350  0.7195 -0.8577
  344THF     C9 5908   1.487   4.351   3.239 -0.0599  0.1949 -0.6468
  344THF    H10 5909   1.336   4.343   3.100 -2.2242  1.0737  0.3696
  344THF    H11 5910   1.308   4.461   3.218  0.3553 -1.1973  1.2033
  344THF    H12 5911   1.458   4.360   3.344 -0.2754 -1.3678 -0.5463
  344THF    H13 5912   1.491   4.248   3.206  0.6858 -0.0210  0.0805
  345THF     O1 5913   0.403   4.932   2.396  0.1621 -0.6973  0.0254
  345THF     C2 5914   0.381   5.068   2.340 -0.5519  0.3706 -0.8244
  345THF     C3 5915   0.358   4.830   2.303 -0.1539 -0.2342  0.3252
  345THF     H4 5916   0.452   5.145   2.369 -0.4481 -0.1552  0.3842
  345THF     H5 5917   0.285   5.106   2.376  0.0301  1.2603 -0.1840
  345THF     H6 5918   0.438   4.761   2.277  0.1165 -0.4672  1.6770
  345THF     H7 5919   0.288   4.774   2.365 -0.7352  0.1040 -0.0265
  345THF     C8 5920   0.299   4.909   2.187  0.2231 -0.8073 -0.1759
  345THF     C9 5921   0.376   5.040   2.196 -0.5420 -0.0109  0.7829
  345THF    H10 5922   0.192   4.928   2.188  0.4003  0.6268 -2.1204
  345THF    H11 5923   0.324   4.859   2.093 -0.4348 -0.9177 -0.2930
  345THF    H12 5924   0.471   5.019   2.146 -0.2889  2.6591 -0.0006
  345THF    H13 5925   0.325   5.121   2.145 -0.6997 -0.5449  0.0632
  346THF     O1 5926   0.787   5.174   1.295 -0.2790  0.4037 -0.4608
  346THF     C2 5927   0.672   5.122   1.232  0.0583  0.4745 -0.6709
  346THF     C3 5928   0.810   5.296   1.236 -0.2671  0.1863  0.4011
  346THF     H4 5929   0.586   5.177   1.269  1.5628  1.7597  1.0538
  346THF     H5 5930   0.664   5.016   1.255  0.6012  0.7527  0.9124
  346THF     H6 5931   0.762   5.378   1.288 -0.3969  0.2996  0.1044
  346THF     H7 5932   0.919   5.305   1.239  0.0282 -1.6509 -1.8733
  346THF     C8 5933   0.760   5.285   1.092 -0.9156 -0.6931 -0.1404
  346THF     C9 5934   0.698   5.146   1.090  0.2972 -0.0135 -0.0988
  346THF    H10 5935   0.836   5.294   1.015  0.8916 -1.7112  1.4392
  346THF    H11 5936   0.687   5.364   1.070 -0.5900 -0.5183 -0.5950
  346THF    H12 5937   0.613   5.130   1.025 -0.3011  1.0319  0.4046
  346THF    H13 5938   0.775   5.077   1.056 -1.2219 -0.4977 -2.8249
  347THF     O1 5939   1.525   1.668   5.152  0.4505 -0.0144 -0.7396
  347THF     C2 5940   1.664   1.651   5.126  0.1761  0.2585 -0.2259
  347THF     C3 5941   1.444   1.585   5.076  0.1763 -0.2304  1.1412
  347THF     H4 5942   1.728   1.595   5.193  0.2679 -0.0050 -0.5333
  347THF     H5 5943   1.723   1.743   5.117  1.0898 -0.3234 -0.2898
  347THF     H6 5944   1.445   1.485   5.121 -1.1048  0.2455  2.2998
  347THF     H7 5945   1.339   1.610   5.065  0.0671 -0.9656  0.3469
  347THF     C8 5946   1.514   1.571   4.941 -0.5219 -0.3867 -0.1094
  347THF     C9 5947   1.662   1.580   4.985 -0.8119 -0.4679 -0.2018
  347THF    H10 5948   1.491   1.657   4.877 -0.6403 -0.6842 -0.4691
  347THF    H11 5949   1.475   1.485   4.887 -1.2909  0.2021 -0.5192
  347THF    H12 5950   1.701   1.479   5.000  0.8631  0.2223  0.3235
  347THF    H13 5951   1.730   1.624   4.912  0.4442 -0.7231  0.7775
  348THF     O1 5952   5.048   0.978   4.604 -0.5251  0.0536  0.0242
  348THF     C2 5953   4.931   1.005   4.678 -0.0537  0.3368  0.4123
  348THF     C3 5954   5.137   0.906   4.684 -0.4752  0.1696  0.0917
  348THF     H4 5955   4.845   1.003   4.611  2.3849  0.9952 -2.9953
  348THF     H5 5956   4.937   1.104   4.723 -0.7169  0.4712  0.2235
  348THF     H6 5957   5.213   0.861   4.621 -0.3904 -0.0017  0.3145
  348THF     H7 5958   5.197   0.974   4.746  0.2928  0.6744 -1.1713
  348THF     C8 5959   5.047   0.814   4.767 -0.4175 -0.6571 -0.2296
  348THF     C9 5960   4.923   0.901   4.790 -0.1605  0.5688  0.4763
  348THF    H10 5961   5.088   0.773   4.859  1.0552 -1.0468 -1.0265
  348THF    H11 5962   5.018   0.734   4.700  0.4166 -0.5267 -0.7591
  348THF    H12 5963   4.839   0.832   4.787  0.7243 -0.4997 -0.8746
  348THF    H13 5964   4.933   0.952   4.886 -2.4041 -0.5266  1.3798
  349THF     O1 5965   3.315   3.582   1.423 -0.1397 -0.0064 -0.0749
  349THF     C2 5966   3.400   3.693   1.444 -0.3133  0.2505 -0.6130
  349THF     C3 5967   3.226   3.570   1.534 -0.8156 -0.2335 -0.2748
  349THF     H4 5968   3.369   3.784   1.392  0.5801 -0.4015 -2.3753
  349THF     H5 5969   3.500   3.669   1.409 -0.6277 -1.0155 -0.6988
  349THF     H6 5970   3.147   3.642   1.513  1.3244  2.1677 -0.6450
  349THF     H7 5971   3.178   3.473   1.544 -1.2293  0.0372  0.4970
  349THF     C8 5972   3.314   3.615   1.655  0.0330  0.1910  0.1746
  349THF     C9 5973   3.393   3.724   1.601 -0.2174 -0.3365  0.2186
  349THF    H10 5974   3.371   3.530   1.693  0.4676  0.6033  0.4546
  349THF    H11 5975   3.252   3.653   1.737  2.8245  0.9571  2.0692
  349THF    H12 5976   3.346   3.820   1.621  1.5978  0.2844  1.8018
  349THF    H13 5977   3.490   3.715   1.650  0.2375 -2.7991 -0.9553
  350THF     O1 5978   5.371   2.612   4.744 -0.2858  0.6103 -0.4533
  350THF     C2 5979   5.462   2.697   4.668  0.0900  0.3036 -0.2973
  350THF     C3 5980   5.400   2.476   4.701  0.5311 -0.2559  0.4898
  350THF     H4 5981   5.483   2.790   4.720  2.4093  0.6058 -1.6267
  350THF     H5 5982   5.422   2.738   4.575  0.3201  1.0175 -0.0861
  350THF     H6 5983   5.398   2.416   4.792  0.0449 -1.1470 -0.0979
  350THF     H7 5984   5.312   2.447   4.644 -0.3261  3.4929 -0.3784
  350THF     C8 5985   5.536   2.477   4.626 -0.5392 -0.3942  0.3555
  350THF     C9 5986   5.586   2.613   4.662 -0.9576  0.0246 -0.2275
  350THF    H10 5987   5.529   2.475   4.517 -0.2906  1.1347  0.2891
  350THF    H11 5988   5.598   2.398   4.668 -1.8496 -0.6625  1.8706
  350THF    H12 5989   5.641   2.604   4.756  1.3353 -0.0650 -1.5259
  350THF    H13 5990   5.660   2.657   4.596 -0.4777  0.0537  0.3244
  351THF     O1 5991   1.632   4.480   4.878  0.1370  0.4170 -0.0552
  351THF     C2 5992   1.767   4.444   4.921  0.3578  0.0352  0.4233
  351THF     C3 5993   1.616   4.603   4.946  0.1793 -0.3495  0.1167
  351THF     H4 5994   1.846   4.487   4.860  0.9428 -0.5277  0.7648
  351THF     H5 5995   1.774   4.335   4.915  2.0242  0.0536  1.4092
  351THF     H6 5996   1.686   4.679   4.912 -0.3188  0.4810  0.8720
  351THF     H7 5997   1.519   4.650   4.928  0.2126 -0.1460  0.4524
  351THF     C8 5998   1.655   4.573   5.086 -0.8274 -0.4708  0.1917
  351THF     C9 5999   1.785   4.496   5.064 -0.0911 -0.3482 -0.4347
  351THF    H10 6000   1.583   4.508   5.137  0.8261 -1.8376  0.8900
  351THF    H11 6001   1.683   4.665   5.138  1.5634 -0.7401 -0.5014
  351THF    H12 6002   1.873   4.560   5.059 -0.5400  0.2502 -0.8208
  351THF    H13 6003   1.787   4.413   5.135  2.0866  0.3135  0.3321
  352THF     O1 6004   0.306   4.059   2.009 -1.0168 -0.3780  0.1855
  352THF     C2 6005   0.241   3.928   2.010 -0.6873 -0.8339 -0.0184
  352THF     C3 6006   0.436   4.041   1.946 -0.4421  0.1589  0.7592
  352THF     H4 6007   0.193   3.902   1.916 -2.8749 -1.3330  1.1705
  352THF     H5 6008   0.176   3.915   2.096 -0.8995  3.1988  0.6394
  352THF     H6 6009   0.438   4.075   1.842 -2.5689  1.0930  0.9698
  352THF     H7 6010   0.510   4.097   2.003  1.4153  0.9198 -2.1484
  352THF     C8 6011   0.476   3.894   1.951 -0.0586 -0.1132 -0.3160
  352THF     C9 6012   0.363   3.840   2.044 -0.5132  0.4597  0.2378
  352THF    H10 6013   0.577   3.868   1.982 -0.1520  1.7748  1.7945
  352THF    H11 6014   0.453   3.850   1.854  1.3003  0.6501 -1.0070
  352THF    H12 6015   0.332   3.737   2.026 -2.7017  0.7741  1.8154
  352THF    H13 6016   0.386   3.861   2.149 -0.0625  0.8131  0.0701
  353THF     O1 6017   0.108   0.744   0.039  0.4234  0.1110 -0.3952
  353THF     C2 6018   0.201   0.846   0.034 -0.6069 -0.2963 -0.3052
  353THF     C3 6019   0.150   0.644  -0.052  0.4390  0.9229 -0.4562
  353THF     H4 6020   0.284   0.823   0.100 -1.0308 -0.7822  0.0682
  353THF     H5 6021   0.167   0.942   0.074 -0.4792 -0.8181  1.1203
  353THF     H6 6022   0.233   0.580  -0.021  0.0193  1.2855  1.5312
  353THF     H7 6023   0.069   0.581  -0.089 -1.0219  1.3011  1.9253
  353THF     C8 6024   0.193   0.718  -0.172  0.2198  0.2245 -0.0538
  353THF     C9 6025   0.252   0.838  -0.110 -0.0576 -0.4600 -1.0252
  353THF    H10 6026   0.100   0.747  -0.220 -0.6041  0.8007  1.7959
  353THF    H11 6027   0.253   0.660  -0.242  1.5106  0.7570  0.5836
  353THF    H12 6028   0.361   0.850  -0.105 -0.0532 -0.8581  1.7101
  353THF    H13 6029   0.230   0.928  -0.167 -2.6523  0.2396  0.8956
  354THF     O1 6030   5.405   1.179   1.728  0.1193 -0.0135 -0.0779
  354THF     C2 6031   5.422   1.287   1.819 -0.2178  0.2521 -0.0731
  354THF     C3 6032   5.387   1.059   1.799 -0.1002  0.1608  0.0025
  354THF     H4 6033   5.330   1.342   1.841  0.1803  1.3768 -1.0720
  354THF     H5 6034   5.491   1.359   1.775 -1.7491  1.9703  0.1779
  354THF     H6 6035   5.283   1.048   1.829  0.1680  0.8562  1.2763
  354THF     H7 6036   5.422   0.971   1.745  3.2729  1.1929  0.2815
  354THF     C8 6037   5.478   1.075   1.919 -0.3654  0.1886  0.0129
  354THF     C9 6038   5.475   1.222   1.947 -0.2342  0.2477 -0.2712
  354THF    H10 6039   5.572   1.047   1.872  0.8972  2.0166  1.2885
  354THF    H11 6040   5.454   1.002   1.996  1.4857 -1.4577 -0.8669
  354THF    H12 6041   5.400   1.240   2.024 -0.2669 -1.5344  0.1409
  354THF    H13 6042   5.567   1.261   1.990 -1.0772 -0.6391  2.5601
  355THF     O1 6043   3.294   4.053   2.978  0.3848 -0.2806 -0.6679
  355THF     C2 6044   3.372   4.173   2.993  0.2663  0.1223 -0.3296
  355THF     C3 6045   3.239   4.034   3.107  0.1890  0.0734  0.2252
  355THF     H4 6046   3.410   4.212   2.899  2.1036 -1.2466 -0.2114
  355THF     H5 6047   3.458   4.160   3.060  0.1206  0.1536 -0.1362
  355THF     H6 6048   3.170   3.949   3.105  1.0374 -0.7007  1.6541
  355THF     H7 6049   3.317   3.993   3.172  0.3182  0.2616  0.1891
  355THF     C8 6050   3.184   4.163   3.148  0.2142 -0.0905  0.1062
  355THF     C9 6051   3.270   4.265   3.066 -0.9061 -0.4268 -0.5243
  355THF    H10 6052   3.203   4.164   3.255 -1.5245 -1.6052  0.4692
  355THF    H11 6053   3.077   4.177   3.139 -0.0158 -0.8508  1.4704
  355THF    H12 6054   3.206   4.302   2.986  0.6955 -1.0946 -2.1864
  355THF    H13 6055   3.308   4.347   3.127  0.5998 -0.9586 -0.6901
  356THF     O1 6056   3.688   3.102   4.703 -0.3252  0.3887 -0.0413
  356THF     C2 6057   3.737   3.094   4.836 -0.4359 -0.5806  0.3009
  356THF     C3 6058   3.565   3.179   4.716  0.1226  0.3512  0.3720
  356THF     H4 6059   3.793   3.180   4.873 -0.1642 -0.3271 -0.6746
  356THF     H5 6060   3.808   3.013   4.853 -0.6936 -0.4544  2.1482
  356THF     H6 6061   3.591   3.282   4.694  2.6410 -0.2219  0.3981
  356THF     H7 6062   3.493   3.161   4.636  1.1598  0.9965 -0.7233
  356THF     C8 6063   3.497   3.146   4.847 -0.5230 -0.4799 -0.2908
  356THF     C9 6064   3.606   3.073   4.919  0.1413 -0.3623  0.1402
  356THF    H10 6065   3.421   3.069   4.832 -0.1161 -1.2356  1.2657
  356THF    H11 6066   3.462   3.236   4.898  0.2881 -0.4056  0.1535
  356THF    H12 6067   3.593   3.107   5.021 -3.9859 -1.2898  0.1238
  356THF    H13 6068   3.580   2.967   4.928 -1.5112  0.1616  2.2341
  357THF     O1 6069   4.957   4.992   3.873 -0.3966 -0.3419 -0.4790
  357THF     C2 6070   4.901   4.987   3.749 -0.4246 -0.1747 -0.1332
  357THF     C3 6071   4.874   4.904   3.951 -0.4132 -0.2389 -0.1760
  357THF     H4 6072   4.924   4.889   3.707 -1.5668 -1.2289  1.5780
  357THF     H5 6073   4.951   5.064   3.691  1.1649  0.3065  1.7817
  357THF     H6 6074   4.884   4.798   3.928 -2.8139 -0.5744  0.0934
  357THF     H7 6075   4.900   4.915   4.056  0.4655 -1.3732 -0.2545
  357THF     C8 6076   4.732   4.958   3.915 -0.7515  0.5036 -0.4505
  357THF     C9 6077   4.749   4.991   3.769 -0.2952  0.5549 -0.9038
  357THF    H10 6078   4.702   5.046   3.972 -0.8335  2.2386 -3.0461
  357THF    H11 6079   4.665   4.872   3.926 -0.1564  0.0878 -0.0331
  357THF    H12 6080   4.696   4.934   3.692 -0.2455 -1.5905  0.5767
  357THF    H13 6081   4.724   5.096   3.757  2.1878  1.7445  2.7062
  358THF     O1 6082   2.942   4.238   5.495  0.1589  0.3108  0.4844
  358THF     C2 6083   2.872   4.176   5.599  0.0344 -0.1624  0.4959
  358THF     C3 6084   3.073   4.268   5.542 -0.0920 -0.0324 -0.1468
  358THF     H4 6085   2.779   4.129   5.569  1.6612 -3.2651 -0.0725
  358THF     H5 6086   2.841   4.251   5.673  1.1363 -0.5071  1.3365
  358THF     H6 6087   3.144   4.295   5.464 -0.8264  1.8165 -0.2147
  358THF     H7 6088   3.069   4.358   5.603 -1.7602 -2.0251  2.9191
  358THF     C8 6089   3.108   4.156   5.640 -0.0040 -0.3496  0.4428
  358THF     C9 6090   2.976   4.085   5.662 -0.0396  0.2343 -0.6970
  358THF    H10 6091   3.146   4.211   5.726  1.5789  1.1423 -1.1251
  358THF    H11 6092   3.183   4.095   5.590 -2.3092 -1.5132 -1.8214
  358THF    H12 6093   2.980   3.986   5.617 -0.1149  0.2893 -0.8236
  358THF    H13 6094   2.952   4.064   5.767  0.3562 -1.0987 -0.8545
  359THF     O1 6095   1.939   1.061   4.080  0.0305 -0.4025 -0.1069
  359THF     C2 6096   2.034   1.142   4.014 -0.5050  0.8773 -0.5642
  359THF     C3 6097   1.943   0.935   4.018 -0.3811 -0.4424 -0.6401
  359THF     H4 6098   2.062   1.218   4.086 -0.7206 -1.0582  1.7153
  359THF     H5 6099   1.992   1.192   3.927 -1.8551 -0.1023 -0.5141
  359THF     H6 6100   1.891   0.856   4.073 -0.1695  0.0378  0.2477
  359THF     H7 6101   1.899   0.951   3.919 -0.7426  0.5726 -0.3255
  359THF     C8 6102   2.090   0.909   4.020 -0.1708 -0.0813  0.1749
  359THF     C9 6103   2.151   1.045   3.991  0.2699 -0.3572 -0.4236
  359THF    H10 6104   2.116   0.821   3.961 -1.0408  0.5530 -1.2132
  359THF    H11 6105   2.122   0.876   4.118  0.8717 -2.2924 -0.8418
  359THF    H12 6106   2.245   1.064   4.042  1.1839 -3.3501 -0.7981
  359THF    H13 6107   2.166   1.052   3.883  3.4868  0.5588 -0.0356
  360THF     O1 6108   4.534   3.774   2.627  0.1695  0.0992 -0.2348
  360THF     C2 6109   4.430   3.710   2.554 -0.0611  0.3840  0.1840
  360THF     C3 6110   4.570   3.700   2.738 -0.4877 -0.4247 -0.4665
  360THF     H4 6111   4.442   3.725   2.447  0.2670  1.3498  0.3456
  360THF     H5 6112   4.338   3.751   2.596 -0.1200  1.4026 -0.8785
  360THF     H6 6113   4.667   3.727   2.780  0.6572 -1.6663 -2.2055
  360THF     H7 6114   4.496   3.707   2.818 -0.6197  2.7225 -0.7292
  360THF     C8 6115   4.563   3.556   2.681 -0.8250 -0.7646 -0.1943
  360THF     C9 6116   4.437   3.568   2.596  0.3064 -0.0067  0.1980
  360THF    H10 6117   4.551   3.483   2.760 -1.4481 -0.6897 -0.2197
  360THF    H11 6118   4.650   3.529   2.620  0.4347  0.3463  1.0243
  360THF    H12 6119   4.451   3.495   2.517 -0.6584 -1.9455  1.7418
  360THF    H13 6120   4.347   3.544   2.652 -0.1334 -2.9128 -1.5459
  361THF     O1 6121   1.266   4.434   3.897 -0.0738  0.3528  0.3993
  361THF     C2 6122   1.293   4.362   3.781 -0.4612  0.2525  0.0266
  361THF     C3 6123   1.131   4.415   3.919 -0.2424  0.2718 -0.5406
  361THF     H4 6124   1.302   4.257   3.808  3.3993  0.8729  1.8629
  361THF     H5 6125   1.388   4.383   3.733 -0.8163  2.5690  0.2037
  361THF     H6 6126   1.107   4.316   3.958  0.6185  0.4086  0.3998
  361THF     H7 6127   1.086   4.492   3.981  0.7049  0.6995 -0.3680
  361THF     C8 6128   1.071   4.433   3.780  0.6124 -0.2384  0.1367
  361THF     C9 6129   1.177   4.382   3.685 -0.5435  0.0294 -0.3967
  361THF    H10 6130   1.054   4.539   3.761  0.4036 -0.0020  1.5374
  361THF    H11 6131   0.975   4.381   3.775  1.9153 -2.7795 -0.3412
  361THF    H12 6132   1.143   4.292   3.634  0.0387 -0.0769 -0.6026
  361THF    H13 6133   1.205   4.458   3.611  0.5278 -0.1920 -0.2321
  362THF     O1 6134   3.331   2.318   2.211  0.1634 -0.1669 -0.3672
  362THF     C2 6135   3.381   2.248   2.322 -0.0252  0.7620 -1.2775
  362THF     C3 6136   3.427   2.423   2.177  0.2276  0.3871  0.1299
  362THF     H4 6137   3.444   2.170   2.281  1.4045  0.9348  0.4889
  362THF     H5 6138   3.305   2.201   2.384 -0.7064  0.9748 -1.9359
  362THF     H6 6139   3.482   2.388   2.089  1.8653  1.5248  0.6724
  362THF     H7 6140   3.379   2.521   2.170  1.1097  1.0335  2.4257
  362THF     C8 6141   3.535   2.424   2.286 -0.2787  0.6780  0.1289
  362THF     C9 6142   3.474   2.340   2.395 -0.0957 -0.2118 -0.6772
  362THF    H10 6143   3.540   2.526   2.323  0.9031  0.9311 -0.6797
  362THF    H11 6144   3.628   2.379   2.252 -1.8319 -2.7675  0.0730
  362THF    H12 6145   3.549   2.282   2.449 -0.0848  1.0637  0.7423
  362THF    H13 6146   3.429   2.403   2.472  2.3207 -1.1421  1.6357
  363THF     O1 6147   2.025   2.906   2.959  0.2687 -0.2463 -0.4063
  363THF     C2 6148   2.163   2.928   2.940  0.0003  0.4717 -0.2205
  363THF     C3 6149   1.954   3.024   2.953 -0.6900 -0.0490 -0.2887
  363THF     H4 6150   2.204   2.882   2.850  2.6809  2.6693 -0.2518
  363THF     H5 6151   2.230   2.896   3.020 -0.3963  4.0167  1.7134
  363THF     H6 6152   1.912   3.034   2.853 -0.4866 -0.3838 -0.4104
  363THF     H7 6153   1.879   3.022   3.032 -0.2151 -3.2398  0.2265
  363THF     C8 6154   2.055   3.136   2.973  0.1501 -0.4830 -0.7323
  363THF     C9 6155   2.184   3.080   2.920  0.2412  1.1720  0.9455
  363THF    H10 6156   2.067   3.159   3.079  0.4178 -2.4014 -0.3236
  363THF    H11 6157   2.017   3.227   2.927 -1.8010 -0.2490  1.1590
  363THF    H12 6158   2.183   3.112   2.816  1.3845  2.7536  1.3749
  363THF    H13 6159   2.275   3.120   2.964  0.9555  1.5043 -0.7664
  364THF     O1 6160   2.776   3.642   3.036 -0.3847  0.1606  0.4312
  364THF     C2 6161   2.677   3.720   2.964 -1.3311  0.5856 -0.2234
  364THF     C3 6162   2.843   3.719   3.136  0.0714 -0.2046 -0.4037
  364THF     H4 6163   2.583   3.734   3.018 -1.0734  1.7654 -0.0522
  364THF     H5 6164   2.663   3.684   2.862 -1.4936 -2.7392  0.8708
  364THF     H6 6165   2.780   3.701   3.223  1.7062 -4.4559  0.1152
  364THF     H7 6166   2.940   3.677   3.160 -0.8998 -2.2868  0.1196
  364THF     C8 6167   2.835   3.867   3.086  0.2923  0.5072 -0.5927
  364THF     C9 6168   2.738   3.857   2.967 -0.6740  0.7362 -0.5680
  364THF    H10 6169   2.931   3.899   3.045  0.3303 -0.2490 -1.1129
  364THF    H11 6170   2.801   3.938   3.161 -3.8517 -1.9250  0.1361
  364THF    H12 6171   2.656   3.927   2.981 -0.5299  1.7127 -3.7970
  364THF    H13 6172   2.794   3.883   2.877  1.1985  0.6682  0.5156
  365THF     O1 6173   2.475   4.751   2.447  0.1999  0.1112 -0.2660
  365THF     C2 6174   2.466   4.783   2.311 -0.5164  0.2323 -0.1218
  365THF     C3 6175   2.458   4.868   2.520 -0.0592 -0.0642  0.2390
  365THF     H4 6176   2.425   4.704   2.248  0.3783  0.4913 -1.0531
  365THF     H5 6177   2.563   4.801   2.265 -0.1631 -1.5585 -0.1690
  365THF     H6 6178   2.454   4.841   2.625  1.5605  0.5283  0.4816
  365THF     H7 6179   2.555   4.918   2.515  0.3009 -0.5647  1.8363
  365THF     C8 6180   2.343   4.940   2.443  0.3009  0.1627 -0.3768
  365THF     C9 6181   2.382   4.911   2.304 -0.4706 -0.3601 -0.5662
  365THF    H10 6182   2.330   5.045   2.468 -0.0045 -0.4251  2.2412
  365THF    H11 6183   2.254   4.883   2.471 -0.0502  0.3592 -1.0808
  365THF    H12 6184   2.295   4.904   2.239  0.2953 -1.9282 -1.4833
  365THF    H13 6185   2.459   4.978   2.265  0.8635 -0.9615  0.9412
  366THF     O1 6186   2.837   5.405   1.259  0.1554 -0.6804 -0.1865
  366THF     C2 6187   2.716   5.366   1.201 -0.1857 -0.9347  0.3865
  366THF     C3 6188   2.846   5.358   1.392  0.1823  0.5325 -0.1432
  366THF     H4 6189   2.724   5.358   1.092  2.5110 -0.5266  0.4899
  366THF     H5 6190   2.639   5.429   1.245  0.4187 -0.4369  0.7375
  366THF     H6 6191   2.944   5.359   1.438  0.9077 -0.3568 -1.5802
  366THF     H7 6192   2.770   5.402   1.457 -0.7183 -1.7982  0.5018
  366THF     C8 6193   2.800   5.211   1.370  0.3513  0.3175  0.3440
  366THF     C9 6194   2.694   5.224   1.259  0.2555 -0.2590  0.1673
  366THF    H10 6195   2.750   5.155   1.449  1.5196  1.5493  2.0221
  366THF    H11 6196   2.875   5.144   1.326  0.4059 -0.2935  1.3254
  366THF    H12 6197   2.690   5.146   1.182 -0.6756 -2.4807  2.3190
  366THF    H13 6198   2.597   5.211   1.307  1.2690  0.3962  2.5521
  367THF     O1 6199   3.883   4.781   4.020 -0.5699 -0.0082 -0.3138
  367THF     C2 6200   3.829   4.906   3.972 -1.2329  0.1649  0.6874
  367THF     C3 6201   3.999   4.803   4.106 -0.0836  0.2482 -0.1087
  367THF     H4 6202   3.780   4.954   4.057  1.1474 -0.4837  2.5301
  367THF     H5 6203   3.760   4.897   3.888 -0.5895 -0.0248  0.1698
  367THF     H6 6204   3.962   4.839   4.201  0.1198 -1.1958  0.5423
  367THF     H7 6205   4.066   4.720   4.129 -0.8680  0.1421  1.9508
  367THF     C8 6206   4.068   4.913   4.036 -0.3877 -0.1591  0.8874
  367THF     C9 6207   3.965   4.981   3.947  0.0051  0.7517  0.1574
  367THF    H10 6208   4.157   4.881   3.981 -0.3844  0.0453  0.7744
  367THF    H11 6209   4.106   4.989   4.104  2.9355  1.1907 -2.1612
  367THF    H12 6210   3.960   5.089   3.957  4.3240  1.3735 -1.9048
  367THF    H13 6211   4.009   4.981   3.847 -0.0500 -0.9672  0.0973
  368THF     O1 6212   2.246   1.042   0.915 -0.3412  0.3681  0.5670
  368THF     C2 6213   2.121   0.977   0.918  0.1094 -0.1216  0.3788
  368THF     C3 6214   2.337   0.989   1.006 -0.4525 -0.0262  0.6808
  368THF     H4 6215   2.093   0.950   0.816 -0.5548  0.1499  0.4830
  368THF     H5 6216   2.059   1.054   0.965 -0.4587 -0.0206 -0.5137
  368THF     H6 6217   2.444   0.987   0.984 -0.5936 -1.5234  0.0111
  368THF     H7 6218   2.335   1.027   1.108  1.4910  0.3460  0.6113
  368THF     C8 6219   2.291   0.846   1.019  0.6728 -0.2739 -0.3038
  368THF     C9 6220   2.139   0.853   1.013  0.1896  0.2361 -0.0095
  368THF    H10 6221   2.328   0.791   1.105 -1.3512 -1.8209 -0.3425
  368THF    H11 6222   2.325   0.780   0.939  2.4787  0.6576 -0.3538
  368THF    H12 6223   2.110   0.758   0.968  1.0824 -0.4171  0.7614
  368THF    H13 6224   2.096   0.863   1.112 -0.6320 -0.6435 -0.2564
  369THF     O1 6225   0.197   0.684   2.150  0.3883  0.0928  0.0575
  369THF     C2 6226   0.251   0.816   2.156  0.1663 -0.1475  0.1276
  369THF     C3 6227   0.054   0.695   2.152 -0.4383 -0.0831  0.5504
  369THF     H4 6228   0.266   0.863   2.058  0.6296  0.8330  0.6508
  369THF     H5 6229   0.346   0.810   2.207  0.9443 -0.3451 -1.2929
  369THF     H6 6230   0.016   0.727   2.055 -1.3247  0.9308  1.2102
  369THF     H7 6231  -0.009   0.614   2.189 -3.1232  1.9600  0.8069
  369THF     C8 6232   0.025   0.812   2.248 -0.1304 -0.0420 -0.1728
  369THF     C9 6233   0.149   0.898   2.238 -0.3741 -0.1420  1.0993
  369THF    H10 6234   0.030   0.767   2.347  0.2876 -0.5669 -0.4271
  369THF    H11 6235  -0.074   0.855   2.235 -1.1562 -1.0568  3.2989
  369THF    H12 6236   0.116   0.982   2.178 -1.6374 -0.7576  0.9018
  369THF    H13 6237   0.193   0.933   2.331  0.2499 -0.6158  0.9972
  370THF     O1 6238   3.946   4.680   0.492 -0.1166 -0.2773 -0.3476
  370THF     C2 6239   3.869   4.741   0.385  0.6394 -0.3744  0.3170
  370THF     C3 6240   3.845   4.658   0.598  0.5652 -0.1953 -0.1640
  370THF     H4 6241   3.924   4.742   0.291 -0.2153  0.5517 -0.1859
  370THF     H5 6242   3.837   4.843   0.408  0.0736 -0.5689  0.4147
  370THF     H6 6243   3.869   4.577   0.667 -0.2513 -1.4947 -1.3305
  370THF     H7 6244   3.811   4.747   0.651 -1.3935 -0.0119 -1.6105
  370THF     C8 6245   3.719   4.613   0.522 -0.2362 -0.6900 -0.0024
  370THF     C9 6246   3.758   4.645   0.382  0.7313 -0.9237  0.6831
  370THF    H10 6247   3.638   4.679   0.553  0.0974 -0.4331  0.3329
  370THF    H11 6248   3.683   4.512   0.545 -2.0448 -0.2683 -0.7561
  370THF    H12 6249   3.798   4.551   0.345 -0.0835 -0.7526 -0.7445
  370THF    H13 6250   3.675   4.666   0.314  1.3006  0.3687  0.3638
  371THF     O1 6251   1.503   3.648   4.020  0.1188 -0.1633  0.2412
  371THF     C2 6252   1.504   3.508   4.051  0.0359  0.0612  0.3380
  371THF     C3 6253   1.615   3.702   4.073 -0.2025  0.2499  0.1638
  371THF     H4 6254   1.428   3.447   4.002 -0.8454  1.7859 -0.5328
  371THF     H5 6255   1.475   3.505   4.156 -1.5471 -1.6004 -0.0823
  371THF     H6 6256   1.649   3.794   4.026 -0.8267 -0.0504 -0.8999
  371THF     H7 6257   1.592   3.725   4.177  0.3419 -1.8101  0.8052
  371THF     C8 6258   1.721   3.592   4.069  0.1356  0.2020 -1.0282
  371THF     C9 6259   1.649   3.472   4.023 -0.1798  0.1975  0.2466
  371THF    H10 6260   1.763   3.591   4.170 -1.2224  2.8434 -0.3454
  371THF    H11 6261   1.795   3.622   3.994 -0.1220 -0.0670 -1.3957
  371THF    H12 6262   1.682   3.463   3.920  1.7237  0.6978  0.7602
  371THF    H13 6263   1.687   3.390   4.085 -0.6630  0.4514  0.8970
  372THF     O1 6264   4.982   0.492   3.104 -0.0494  1.1157  0.1830
  372THF     C2 6265   4.860   0.493   3.176  0.4484  0.2737 -0.3503
  372THF     C3 6266   5.088   0.450   3.191  0.2449  0.0617 -0.0601
  372THF     H4 6267   4.802   0.407   3.144  1.0980 -0.3665  0.1683
  372THF     H5 6268   4.806   0.587   3.165 -0.2379 -0.1586 -0.7054
  372THF     H6 6269   5.095   0.342   3.186  0.7289  0.1331 -1.0765
  372THF     H7 6270   5.185   0.483   3.155  0.2664 -1.5618 -1.6096
  372THF     C8 6271   5.051   0.514   3.320 -0.7327 -0.2014 -0.3782
  372THF     C9 6272   4.907   0.473   3.326  0.3939 -1.1091  0.2411
  372THF    H10 6273   5.076   0.619   3.306  1.0362 -0.5778 -0.3548
  372THF    H11 6274   5.116   0.489   3.404  0.1980 -0.0473 -1.0328
  372THF    H12 6275   4.901   0.368   3.354  2.2148 -1.2743  0.1206
  372THF    H13 6276   4.853   0.535   3.398 -0.7193  0.1830 -1.6265
  373THF     O1 6277   0.281   3.673   0.228  0.1768 -0.1278 -0.4336
  373THF     C2 6278   0.369   3.626   0.328  0.4720  1.0809  0.0350
  373THF     C3 6279   0.151   3.633   0.272 -0.3267  0.1435  0.0279
  373THF     H4 6280   0.467   3.670   0.313  0.6462  0.8288  0.4335
  373THF     H5 6281   0.383   3.518   0.317  0.9887  1.1151  0.3396
  373THF     H6 6282   0.073   3.685   0.216 -1.5792 -1.2468  0.4239
  373THF     H7 6283   0.136   3.526   0.256 -1.8282  0.5509 -1.5989
  373THF     C8 6284   0.146   3.668   0.426  0.2613  0.1416 -0.0755
  373THF     C9 6285   0.294   3.665   0.456  0.6600  0.2656  0.0136
  373THF    H10 6286   0.088   3.593   0.479 -0.4515  0.4486 -0.4061
  373THF    H11 6287   0.103   3.765   0.451 -1.4988 -0.2152 -1.5103
  373THF    H12 6288   0.312   3.770   0.483 -0.4128  0.4463  0.0669
  373THF    H13 6289   0.307   3.608   0.548 -0.5655 -0.6531 -0.3469
  374THF     O1 6290   3.867   1.597   4.161  0.2467 -0.3268 -0.3449
  374THF     C2 6291   3.778   1.483   4.129  0.6583 -0.2861  0.0182
  374THF     C3 6292   3.999   1.547   4.178 -0.3323  0.0651 -0.2480
  374THF     H4 6293   3.792   1.445   4.027  1.0472  3.1449 -1.3264
  374THF     H5 6294   3.672   1.508   4.131  0.5693 -0.6327 -0.0933
  374THF     H6 6295   4.045   1.545   4.080  1.3681 -1.3575  0.5191
  374THF     H7 6296   4.052   1.623   4.236 -1.4599 -1.1186  2.5020
  374THF     C8 6297   3.976   1.405   4.238  0.5199 -0.2938 -0.6867
  374THF     C9 6298   3.825   1.376   4.222 -0.3312 -0.0248 -0.8012
  374THF    H10 6299   4.000   1.395   4.344  1.3809 -0.4909 -0.8948
  374THF    H11 6300   4.041   1.332   4.191  2.1084  0.2034  0.6323
  374THF    H12 6301   3.792   1.274   4.200  1.8188 -0.7220 -1.0430
  374THF    H13 6302   3.770   1.390   4.316 -0.6320 -2.7983 -0.4549
  375THF     O1 6303   1.545   3.725   1.491 -0.4279  0.4077  0.4050
  375THF     C2 6304   1.564   3.786   1.367  0.3971  0.2171  0.1074
  375THF     C3 6305   1.665   3.727   1.559 -0.7825  0.2483  0.6266
  375THF     H4 6306   1.464   3.821   1.343 -0.2159 -1.9953 -0.8298
  375THF     H5 6307   1.580   3.712   1.289 -0.8937 -0.0448  0.0679
  375THF     H6 6308   1.652   3.756   1.664  1.6956  0.6595  0.8823
  375THF     H7 6309   1.710   3.628   1.555  1.5195  1.2628 -0.6392
  375THF     C8 6310   1.764   3.819   1.491 -0.5982  0.0145  0.7726
  375THF     C9 6311   1.672   3.896   1.392 -0.5239 -0.0755 -0.1317
  375THF    H10 6312   1.832   3.766   1.423 -2.3520 -0.2926 -0.8431
  375THF    H11 6313   1.818   3.883   1.560  2.4121 -1.7040  0.2198
  375THF    H12 6314   1.623   3.979   1.444 -4.4440 -0.9716 -2.0037
  375THF    H13 6315   1.723   3.928   1.301  0.7143 -0.9156  0.2517
  376THF     O1 6316   1.455   1.697   3.545 -0.5256 -0.2452 -0.4492
  376THF     C2 6317   1.522   1.587   3.491 -0.7046 -0.2062 -0.3447
  376THF     C3 6318   1.563   1.786   3.576  0.6678 -0.8082  0.5996
  376THF     H4 6319   1.442   1.536   3.438 -1.0003 -0.6486  0.5190
  376THF     H5 6320   1.557   1.538   3.581  1.5200  0.2990 -0.8827
  376THF     H6 6321   1.527   1.886   3.600  1.9232  0.2715 -1.6778
  376THF     H7 6322   1.617   1.752   3.664  2.7862  3.2329  1.1000
  376THF     C8 6323   1.655   1.783   3.452  0.0610 -0.1092 -0.0174
  376THF     C9 6324   1.642   1.637   3.404  0.5333  0.5074  0.1634
  376THF    H10 6325   1.758   1.809   3.476 -0.2235  0.4898  0.6033
  376THF    H11 6326   1.622   1.863   3.385 -0.4109  1.1120  1.5971
  376THF    H12 6327   1.613   1.636   3.299 -2.2459 -2.6543  0.7949
  376THF    H13 6328   1.736   1.582   3.411  1.7398  2.4339 -0.0919
  377THF     O1 6329   2.642   3.579   4.902  0.5161 -0.3215 -0.1945
  377THF     C2 6330   2.592   3.713   4.909 -0.4215 -0.0713 -0.2075
  377THF     C3 6331   2.662   3.528   5.031 -0.1956 -0.1832 -0.5305
  377THF     H4 6332   2.529   3.741   4.825 -1.9922  0.8458  1.1989
  377THF     H5 6333   2.686   3.769   4.909  0.5332 -1.5519  1.1796
  377THF     H6 6334   2.595   3.442   5.040  0.2164 -0.6521 -1.7336
  377THF     H7 6335   2.765   3.494   5.039  0.0026  0.3251 -0.9302
  377THF     C8 6336   2.617   3.641   5.127 -0.7442 -0.6218  0.0100
  377THF     C9 6337   2.518   3.709   5.039  0.3677  0.7799 -0.4886
  377THF    H10 6338   2.705   3.704   5.143 -1.4563  0.3049  0.4000
  377THF    H11 6339   2.584   3.597   5.221  0.0760  2.8629  2.1041
  377THF    H12 6340   2.432   3.644   5.025  0.4735  0.2282  1.2075
  377THF    H13 6341   2.486   3.806   5.076  1.0045 -0.1767  3.0038
  378THF     O1 6342   1.999   1.490   4.392 -0.4282  0.7159  0.3329
  378THF     C2 6343   2.022   1.513   4.252 -0.4747  0.2854 -0.4919
  378THF     C3 6344   2.125   1.442   4.446 -0.5204 -0.6219  0.5329
  378THF     H4 6345   1.950   1.567   4.190  0.7056  1.0999 -1.2223
  378THF     H5 6346   2.033   1.416   4.204 -2.0901 -0.8031  1.2238
  378THF     H6 6347   2.131   1.465   4.552  1.3188 -0.0837  0.3410
  378THF     H7 6348   2.121   1.338   4.412 -1.8388 -0.2953 -0.3889
  378THF     C8 6349   2.231   1.521   4.367 -0.3751 -0.2406  0.3684
  378THF     C9 6350   2.161   1.583   4.247 -0.5012 -0.5645  0.5199
  378THF    H10 6351   2.320   1.459   4.353 -0.8770 -1.4396  2.1580
  378THF    H11 6352   2.273   1.591   4.440 -0.3768 -0.3436  0.4692
  378THF    H12 6353   2.141   1.687   4.270  1.6556 -0.1959  0.9974
  378THF    H13 6354   2.208   1.565   4.151 -0.9789  0.6851  0.0425
  379THF     O1 6355   1.912   1.317   3.174 -0.0923 -0.0761  0.3409
  379THF     C2 6356   2.030   1.317   3.095 -0.4528  0.3780  0.0203
  379THF     C3 6357   1.919   1.427   3.265 -0.1652 -0.7035 -0.5231
  379THF     H4 6358   2.012   1.351   2.993  1.5937  0.0012 -0.5262
  379THF     H5 6359   2.059   1.212   3.087  1.6011  0.7339  1.8367
  379THF     H6 6360   1.867   1.510   3.218 -1.5567 -0.8194  0.7178
  379THF     H7 6361   1.860   1.408   3.355 -1.0451 -2.6642 -1.4386
  379THF     C8 6362   2.066   1.457   3.289 -0.5914 -0.2083  0.7686
  379THF     C9 6363   2.132   1.416   3.158 -0.2038 -0.6714 -0.7413
  379THF    H10 6364   2.089   1.379   3.362  0.8511 -3.0555 -2.4829
  379THF    H11 6365   2.095   1.551   3.336  1.8236 -0.7092  0.3896
  379THF    H12 6366   2.142   1.508   3.100  2.2479 -1.5737 -1.8466
  379THF    H13 6367   2.235   1.383   3.156  0.0404 -0.2147  1.4283
  380THF     O1 6368   1.693   0.443   1.229  0.4167 -0.0042  0.0702
  380THF     C2 6369   1.699   0.563   1.154  0.4899 -0.5397  0.1560
  380THF     C3 6370   1.560   0.436   1.284 -0.8584 -0.2766 -0.0575
  380THF     H4 6371   1.647   0.549   1.059  3.0356  1.4846 -1.6600
  380THF     H5 6372   1.798   0.595   1.123  0.8802 -0.1629  1.7028
  380THF     H6 6373   1.484   0.419   1.207 -0.1150  1.0974 -1.1379
  380THF     H7 6374   1.559   0.369   1.370 -1.1655  1.0403  0.9976
  380THF     C8 6375   1.548   0.574   1.340  0.2143  0.0691  0.8106
  380THF     C9 6376   1.625   0.665   1.240  0.2331 -0.6654 -0.3862
  380THF    H10 6377   1.589   0.576   1.441  1.0538 -2.2947  0.5604
  380THF    H11 6378   1.441   0.592   1.348  0.3181  1.6050 -0.7106
  380THF    H12 6379   1.563   0.737   1.187  0.3287 -1.0624 -1.0418
  380THF    H13 6380   1.709   0.713   1.290 -0.3790 -0.4827  0.4908
  381THF     O1 6381   0.642   5.360   0.626 -0.2588  0.4146 -0.2071
  381THF     C2 6382   0.763   5.338   0.562 -0.6190 -0.1062  0.8140
  381THF     C3 6383   0.670   5.413   0.756  0.0315 -0.2034  0.7947
  381THF     H4 6384   0.758   5.372   0.458  1.5748  0.4198  0.8145
  381THF     H5 6385   0.790   5.232   0.560 -0.0049  0.0455  0.1768
  381THF     H6 6386   0.581   5.457   0.800  0.3867  0.2910  1.0351
  381THF     H7 6387   0.691   5.331   0.825 -2.6913 -1.6259  0.0559
  381THF     C8 6388   0.776   5.513   0.724  0.2153  0.1818 -0.1187
  381THF     C9 6389   0.865   5.424   0.643 -0.4878 -0.0695  0.0153
  381THF    H10 6390   0.830   5.545   0.813 -0.6411 -0.5556  0.6815
  381THF    H11 6391   0.735   5.600   0.672  0.0269 -0.4998 -1.1346
  381THF    H12 6392   0.928   5.479   0.574  2.0922 -0.8905  1.5824
  381THF    H13 6393   0.935   5.359   0.695  1.2987  1.6020 -0.1668
  382THF     O1 6394   5.223   3.154   1.986  0.1610  0.2981  0.5935
  382THF     C2 6395   5.226   3.182   2.123 -0.1953 -0.1034 -0.5212
  382THF     C3 6396   5.352   3.133   1.943  0.0278  0.7598  0.3750
  382THF     H4 6397   5.251   3.096   2.186  1.8256  1.5559  1.1378
  382THF     H5 6398   5.129   3.223   2.151 -1.9288 -1.9119 -3.4496
  382THF     H6 6399   5.395   3.041   1.983 -0.1827  1.7762  3.1414
  382THF     H7 6400   5.350   3.107   1.838 -2.2855 -3.0018  1.1641
  382THF     C8 6401   5.417   3.255   2.002  0.4816 -0.0784 -0.6878
  382THF     C9 6402   5.345   3.280   2.134 -0.2823 -0.4312  0.1373
  382THF    H10 6403   5.394   3.333   1.930  0.8123  1.3178  0.6700
  382THF    H11 6404   5.525   3.240   2.009  0.7356 -0.4425 -3.7754
  382THF    H12 6405   5.398   3.268   2.228 -1.0368 -0.3789  0.5761
  382THF    H13 6406   5.315   3.384   2.144 -0.1276 -0.5071  1.5877
  383THF     O1 6407   3.876   1.686   2.854  0.1504  0.1160  0.2754
  383THF     C2 6408   4.014   1.686   2.873 -0.2481 -0.3333  0.1588
  383THF     C3 6409   3.826   1.591   2.943 -0.4305 -0.0259 -0.5356
  383THF     H4 6410   4.041   1.729   2.970  3.1011  0.7280 -1.1168
  383THF     H5 6411   4.057   1.751   2.797  1.7742  0.0069  1.5271
  383THF     H6 6412   3.830   1.634   3.043  0.2781  1.7435 -1.2781
  383THF     H7 6413   3.722   1.558   2.936 -0.6474  0.4600  0.2848
  383THF     C8 6414   3.915   1.474   2.914 -0.1982  0.2137  0.1290
  383THF     C9 6415   4.052   1.540   2.879  0.5539  0.1803  0.7360
  383THF    H10 6416   3.879   1.413   2.832 -2.3956 -1.2348  2.0548
  383THF    H11 6417   3.917   1.415   3.006  2.0123  0.4081  0.2622
  383THF    H12 6418   4.131   1.512   2.949  0.6952  0.1379  0.5640
  383THF    H13 6419   4.082   1.499   2.782  1.4994  1.9639  0.2355
  384THF     O1 6420   0.217   4.597   4.118 -0.2288 -0.3203 -0.2884
  384THF     C2 6421   0.116   4.611   4.219  0.0419  0.0318  0.5717
  384THF     C3 6422   0.324   4.533   4.182  0.9748 -0.2134 -0.4429
  384THF     H4 6423   0.023   4.626   4.163 -0.0567  0.9135  0.9715
  384THF     H5 6424   0.149   4.693   4.281 -0.0993 -1.6163  2.9438
  384THF     H6 6425   0.391   4.491   4.107  1.7817  2.6051 -1.4169
  384THF     H7 6426   0.381   4.608   4.238 -2.3038  1.8598  0.3798
  384THF     C8 6427   0.255   4.438   4.278  0.5524  0.3976  0.1817
  384THF     C9 6428   0.118   4.483   4.294 -0.0215 -0.1383 -0.4112
  384THF    H10 6429   0.310   4.417   4.370  0.6777  0.8093  0.2034
  384THF    H11 6430   0.251   4.342   4.227 -1.0338  1.3451 -1.5858
  384THF    H12 6431   0.045   4.409   4.260  0.6348 -1.2828  0.6347
  384THF    H13 6432   0.089   4.506   4.397 -0.3918 -1.0964 -0.2923
  385THF     O1 6433   0.569   0.025   1.659 -0.3130  0.6528  0.0282
  385THF     C2 6434   0.593   0.028   1.523 -0.7444  0.0947 -0.0931
  385THF     C3 6435   0.692   0.035   1.726 -0.3061 -0.1511 -0.0815
  385THF     H4 6436   0.511   0.060   1.458 -0.7346  1.3555  0.4917
  385THF     H5 6437   0.624  -0.074   1.498 -0.4169  0.3728 -0.8558
  385THF     H6 6438   0.690   0.075   1.828 -1.7161  2.6099 -1.1009
  385THF     H7 6439   0.739  -0.063   1.734  1.7070  0.8758  1.6837
  385THF     C8 6440   0.787   0.115   1.640  0.1725  0.3564 -0.2021
  385THF     C9 6441   0.718   0.113   1.502  0.5309  0.0502 -0.4689
  385THF    H10 6442   0.888   0.076   1.623 -0.0485 -0.5286  0.3856
  385THF    H11 6443   0.807   0.210   1.688 -1.0265  0.0047  1.0495
  385THF    H12 6444   0.676   0.211   1.483 -1.9575 -0.3158  2.3958
  385THF    H13 6445   0.777   0.078   1.417  1.0479  1.0568 -0.5393
  386THF     O1 6446   3.891   0.847   2.151 -0.0133 -0.3451 -0.0549
  386THF     C2 6447   3.780   0.908   2.213 -0.4819 -0.0115 -0.5995
  386THF     C3 6448   3.890   0.709   2.201  0.7233  0.1173  0.1727
  386THF     H4 6449   3.753   0.995   2.153 -0.3270  0.7980  0.4766
  386THF     H5 6450   3.785   0.930   2.319  1.1666 -0.8569 -0.4818
  386THF     H6 6451   3.953   0.637   2.148 -0.4408 -0.8019 -0.0140
  386THF     H7 6452   3.923   0.710   2.305  0.7271  1.6787  0.1694
  386THF     C8 6453   3.751   0.671   2.191  0.9020 -0.1966 -0.1613
  386THF     C9 6454   3.673   0.799   2.192  0.5817  0.0713 -0.2889
  386THF    H10 6455   3.715   0.607   2.272 -1.5641 -0.6358 -1.5104
  386THF    H11 6456   3.720   0.617   2.101  0.2140 -0.6128  0.3085
  386THF    H12 6457   3.620   0.816   2.098 -2.9387  2.9662  1.9404
  386THF    H13 6458   3.597   0.800   2.270  1.9208  0.7787  1.0604
  387THF     O1 6459   2.644   1.448   3.197 -0.4527  0.3321 -0.5040
  387THF     C2 6460   2.668   1.480   3.335  0.0628 -0.0691 -0.3683
  387THF     C3 6461   2.517   1.495   3.171 -0.0467  0.1988  0.6707
  387THF     H4 6462   2.771   1.474   3.371  0.4661 -3.3288 -1.6681
  387THF     H5 6463   2.631   1.396   3.394 -1.3678  0.7683 -0.0563
  387THF     H6 6464   2.488   1.507   3.067 -1.9729 -2.3911  0.8042
  387THF     H7 6465   2.445   1.428   3.219  0.9860 -0.6614  1.0850
  387THF     C8 6466   2.506   1.629   3.238 -0.5529 -0.6738 -0.6162
  387THF     C9 6467   2.608   1.617   3.348 -0.3684 -0.4914  0.5964
  387THF    H10 6468   2.410   1.649   3.287  0.4697  0.4262  1.0492
  387THF    H11 6469   2.533   1.709   3.169 -1.4799  0.2174  0.0275
  387THF    H12 6470   2.688   1.692   3.348 -0.9805  0.1755  1.5189
  387THF    H13 6471   2.549   1.623   3.439 -1.6015  0.8554 -0.2537
  388THF     O1 6472   2.074   3.051   2.483  0.5989 -0.2765 -0.1909
  388THF     C2 6473   1.972   3.124   2.552 -0.3111 -0.0828 -0.1729
  388THF     C3 6474   2.054   2.912   2.516  0.2014 -0.4869  0.1614
  388THF     H4 6475   1.953   3.228   2.523 -1.7602  0.9279  3.7330
  388THF     H5 6476   2.022   3.146   2.647  1.1999  2.0580 -1.3857
  388THF     H6 6477   2.051   2.861   2.420 -0.1381 -0.1911  0.0120
  388THF     H7 6478   2.135   2.883   2.582  0.4222 -0.6158 -0.1608
  388THF     C8 6479   1.915   2.903   2.574  0.2408 -0.6921 -0.3989
  388THF     C9 6480   1.852   3.038   2.549 -0.0033  0.3008  0.3704
  388THF    H10 6481   1.922   2.888   2.682 -1.1234 -0.0853 -0.2131
  388THF    H11 6482   1.855   2.819   2.540 -2.0686  0.1549  1.3563
  388THF    H12 6483   1.793   3.045   2.458 -2.5112 -1.4198  1.7617
  388THF    H13 6484   1.775   3.059   2.623 -1.6293 -2.1540 -0.5101
  389THF     O1 6485   4.233   3.135   3.002  0.1202 -0.3365  0.1230
  389THF     C2 6486   4.239   3.256   3.073  0.0459  0.1254 -0.6286
  389THF     C3 6487   4.361   3.091   2.968 -0.0917  0.0144  0.0367
  389THF     H4 6488   4.170   3.248   3.157  0.4843 -1.5798 -0.3917
  389THF     H5 6489   4.204   3.327   2.998 -0.0031 -0.5863 -1.2926
  389THF     H6 6490   4.383   3.011   3.038  1.7239 -0.1554 -0.6723
  389THF     H7 6491   4.358   3.053   2.866 -3.0301  1.0123 -0.3519
  389THF     C8 6492   4.452   3.211   2.981 -0.8146 -0.8238 -0.1328
  389THF     C9 6493   4.386   3.274   3.108 -0.3095 -0.0764  0.8601
  389THF    H10 6494   4.450   3.283   2.900  1.5449  1.2216  1.4765
  389THF    H11 6495   4.557   3.183   2.993 -0.8563 -0.0949  2.7805
  389THF    H12 6496   4.426   3.224   3.196  0.1931  0.3303  0.8633
  389THF    H13 6497   4.408   3.380   3.119  1.7490 -0.0391 -2.1569
  390THF     O1 6498   0.231   1.556   0.705 -0.6245 -0.2414  0.5890
  390THF     C2 6499   0.283   1.647   0.613 -0.0679 -0.6549  0.3418
  390THF     C3 6500   0.089   1.565   0.707  0.2662  0.0566  0.4162
  390THF     H4 6501   0.322   1.578   0.538 -0.9861  0.3433 -1.1107
  390THF     H5 6502   0.355   1.719   0.651 -0.6983  0.2911 -0.1920
  390THF     H6 6503   0.042   1.467   0.704  0.6878 -0.1361 -1.2239
  390THF     H7 6504   0.048   1.605   0.800  0.5808 -1.9712  1.4743
  390THF     C8 6505   0.047   1.645   0.581 -0.0433 -0.2364  0.9381
  390THF     C9 6506   0.166   1.737   0.556 -0.2627  0.1157 -0.2730
  390THF    H10 6507  -0.043   1.704   0.599 -1.8517 -2.3746 -0.5013
  390THF    H11 6508   0.029   1.578   0.497  0.0154 -0.5306  1.1591
  390THF    H12 6509   0.178   1.776   0.456  0.7799  0.2813 -0.0976
  390THF    H13 6510   0.152   1.818   0.628 -2.0456 -0.6764  0.3471
  391THF     O1 6511   5.040   0.795   2.651  0.0892  0.5152  0.3970
  391THF     C2 6512   4.936   0.799   2.741  0.4820 -0.6342  0.3759
  391THF     C3 6513   5.021   0.893   2.551  0.0546 -0.1999  0.1522
  391THF     H4 6514   4.921   0.874   2.818 -0.3481  0.2621 -0.6226
  391THF     H5 6515   4.946   0.723   2.818  2.5251  0.1726  0.9623
  391THF     H6 6516   5.048   0.989   2.594  0.5683 -0.1790 -0.2087
  391THF     H7 6517   5.082   0.877   2.463  0.3007 -1.8736  0.5905
  391THF     C8 6518   4.867   0.885   2.530 -0.5734 -0.0570 -0.0037
  391THF     C9 6519   4.817   0.809   2.649  0.3461 -0.3090 -0.3223
  391THF    H10 6520   4.844   0.824   2.443  2.0441  0.1446 -0.9311
  391THF    H11 6521   4.822   0.982   2.508  3.2168  1.6486 -1.2334
  391THF    H12 6522   4.737   0.866   2.696  1.5202  2.4825 -1.4887
  391THF    H13 6523   4.788   0.706   2.628 -0.8385 -0.2951  1.1643
  392THF     O1 6524   0.534   4.359   3.511  0.5674  0.4511 -0.8236
  392THF     C2 6525   0.517   4.283   3.397  0.3922  0.0084  0.6877
  392THF     C3 6526   0.678   4.363   3.539  0.0596  0.7753 -0.6467
  392THF     H4 6527   0.535   4.344   3.309  0.0660 -1.2910 -0.3179
  392THF     H5 6528   0.427   4.223   3.380 -1.4144  2.0114  2.5382
  392THF     H6 6529   0.728   4.459   3.528  1.8885 -0.0767 -0.1682
  392THF     H7 6530   0.683   4.317   3.637 -2.4487  1.3250 -0.2026
  392THF     C8 6531   0.740   4.258   3.445 -0.0024 -0.7426  0.1260
  392THF     C9 6532   0.621   4.174   3.404  0.1384  0.6865 -0.5775
  392THF    H10 6533   0.819   4.194   3.486 -0.7057 -0.2389  2.3688
  392THF    H11 6534   0.778   4.321   3.364  1.5582  1.3669  2.3444
  392THF    H12 6535   0.638   4.126   3.307  0.2684  0.2275 -0.3312
  392THF    H13 6536   0.609   4.096   3.480 -1.0285 -0.0874 -1.5236
  393THF     O1 6537   2.234   5.327   0.212  0.5495  0.2353 -0.0649
  393THF     C2 6538   2.299   5.237   0.292  0.0921  0.0981  0.4500
  393THF     C3 6539   2.281   5.455   0.245  0.0005  0.5837 -0.3761
  393THF     H4 6540   2.290   5.138   0.248 -2.3064 -0.1420  1.3182
  393THF     H5 6541   2.250   5.253   0.389  1.2627  0.5431  0.9923
  393THF     H6 6542   2.287   5.505   0.148  3.4832  1.0724 -0.0342
  393THF     H7 6543   2.215   5.510   0.312 -0.3978  1.1729 -1.2332
  393THF     C8 6544   2.422   5.444   0.293  0.2226 -0.4867 -0.1206
  393THF     C9 6545   2.437   5.300   0.287 -0.1181  0.6936 -0.7231
  393THF    H10 6546   2.425   5.481   0.396 -1.9801 -0.5364  0.0133
  393THF    H11 6547   2.486   5.500   0.224 -1.3420 -0.2393 -1.4157
  393THF    H12 6548   2.508   5.267   0.211  2.0854  1.0525  1.0756
  393THF    H13 6549   2.478   5.263   0.381  1.5214  1.0400 -1.2666
  394THF     O1 6550   3.667   2.388   1.567  0.3888  1.2010 -0.7574
  394THF     C2 6551   3.556   2.358   1.489 -0.0352 -0.3640  0.1046
  394THF     C3 6552   3.713   2.253   1.618 -0.5053 -0.9099  0.5100
  394THF     H4 6553   3.555   2.449   1.430  2.1714 -0.2021  0.2349
  394THF     H5 6554   3.462   2.357   1.543 -0.0400 -0.5936  0.0926
  394THF     H6 6555   3.821   2.238   1.625 -0.6340 -2.3786 -0.3056
  394THF     H7 6556   3.659   2.238   1.711 -0.8830 -1.5008  0.2000
  394THF     C8 6557   3.675   2.152   1.500  0.1187 -0.2790 -0.0741
  394THF     C9 6558   3.586   2.233   1.408  0.2126  0.1576 -0.2634
  394THF    H10 6559   3.645   2.062   1.553  1.5482 -0.3020  0.7546
  394THF    H11 6560   3.767   2.130   1.446 -0.0349 -0.9591 -0.0634
  394THF    H12 6561   3.635   2.253   1.313  0.3236 -0.4658 -0.3389
  394THF    H13 6562   3.495   2.181   1.380  0.9815 -1.3162 -0.1285
  395THF     O1 6563   1.232   2.828   2.507  0.1941  0.1693  0.1144
  395THF     C2 6564   1.180   2.961   2.527  0.4570 -0.0759  0.0243
  395THF     C3 6565   1.351   2.815   2.578 -0.2701  0.0905 -1.1377
  395THF     H4 6566   1.126   2.973   2.621 -3.2193 -2.1664 -1.5766
  395THF     H5 6567   1.122   2.993   2.440 -0.6129  0.4008  0.8866
  395THF     H6 6568   1.332   2.793   2.683  2.6644 -0.7699 -0.7023
  395THF     H7 6569   1.405   2.725   2.547 -0.5255 -1.0111  1.3945
  395THF     C8 6570   1.425   2.947   2.544  0.2454  0.1424 -0.3323
  395THF     C9 6571   1.312   3.048   2.514  0.9558  0.3455  0.3677
  395THF    H10 6572   1.495   2.930   2.462 -1.1094  2.8259 -2.1927
  395THF    H11 6573   1.486   2.979   2.628 -0.2380 -0.3910  0.2325
  395THF    H12 6574   1.296   3.136   2.576 -0.1768 -0.2667  0.9710
  395THF    H13 6575   1.322   3.081   2.411 -1.7390 -0.0312 -0.0838
  396THF     O1 6576   1.092   4.867   2.855 -0.1485  0.0992  0.3238
  396THF     C2 6577   1.147   4.831   2.977  0.3618 -0.4552  0.2819
  396THF     C3 6578   1.056   5.003   2.852  0.3763 -0.2830 -0.4235
  396THF     H4 6579   1.201   4.738   2.963  0.0777 -0.2810 -2.5868
  396THF     H5 6580   1.059   4.835   3.042 -2.0502 -0.5704 -2.7244
  396THF     H6 6581   1.032   5.039   2.752 -2.5360 -1.2274 -0.1417
  396THF     H7 6582   0.969   5.022   2.915 -0.9197 -1.3061 -1.8424
  396THF     C8 6583   1.181   5.064   2.906  0.4417  0.0364 -0.5272
  396THF     C9 6584   1.234   4.959   2.999  0.3628  0.2487  0.1427
  396THF    H10 6585   1.148   5.154   2.958 -0.0347  0.5866 -1.7493
  396THF    H11 6586   1.249   5.092   2.826  1.0464 -1.1747 -0.4614
  396THF    H12 6587   1.336   4.932   2.972 -0.8658 -1.6972 -3.1931
  396THF    H13 6588   1.220   4.999   3.100 -2.8615  2.2731 -0.9599
  397THF     O1 6589   1.330   0.846   2.576 -0.2177 -0.1498 -0.0096
  397THF     C2 6590   1.410   0.962   2.559 -0.7528 -0.0155 -0.2290
  397THF     C3 6591   1.248   0.858   2.691  0.0693 -0.1318 -0.2091
  397THF     H4 6592   1.376   1.018   2.472 -0.0661 -0.0469 -0.5245
  397THF     H5 6593   1.517   0.941   2.550 -0.4783 -0.8569  3.4570
  397THF     H6 6594   1.148   0.816   2.682 -0.1660  0.5648 -0.9936
  397THF     H7 6595   1.315   0.810   2.762  2.6419  2.0552 -0.9846
  397THF     C8 6596   1.244   1.005   2.716 -0.0932 -0.2607  0.2737
  397THF     C9 6597   1.393   1.041   2.694 -0.0272  0.0775  0.0327
  397THF    H10 6598   1.195   1.036   2.808 -0.8255  0.6597 -0.4011
  397THF    H11 6599   1.192   1.047   2.630  2.7111  1.0329 -0.9209
  397THF    H12 6600   1.411   1.148   2.684 -0.5950  0.1558 -0.1888
  397THF    H13 6601   1.453   1.014   2.781 -1.1755 -2.0244  0.2296
  398THF     O1 6602   1.064   0.116   3.412 -0.7145  0.3172  0.0609
  398THF     C2 6603   1.207   0.130   3.383 -0.2159 -0.4005 -0.4723
  398THF     C3 6604   1.006   0.244   3.401 -0.0832  0.7248  0.6429
  398THF     H4 6605   1.214   0.136   3.274  0.7646 -0.7274 -0.4314
  398THF     H5 6606   1.264   0.043   3.415 -0.1096 -0.2163 -0.1547
  398THF     H6 6607   0.974   0.271   3.300 -0.4546  0.3153  0.6473
  398THF     H7 6608   0.911   0.230   3.451 -1.3623  0.5337 -1.6928
  398THF     C8 6609   1.113   0.343   3.464  0.1885  1.0479  0.1268
  398THF     C9 6610   1.245   0.259   3.459 -0.1700 -0.1623  1.0829
  398THF    H10 6611   1.088   0.360   3.569  0.3759 -0.7731  0.4842
  398THF    H11 6612   1.110   0.440   3.414  2.2171  0.2438 -1.7442
  398THF    H12 6613   1.316   0.316   3.400 -0.9729  0.8813  1.0883
  398THF    H13 6614   1.297   0.255   3.554  2.7144 -2.7828 -0.4184
  399THF     O1 6615   1.165   0.747   4.373  0.5692  0.3656  0.2068
  399THF     C2 6616   1.027   0.731   4.400  0.2006  0.0421 -0.2270
  399THF     C3 6617   1.228   0.748   4.499  0.9827  0.3390 -0.2164
  399THF     H4 6618   0.991   0.685   4.309  1.3082 -2.5542  0.5511
  399THF     H5 6619   0.980   0.826   4.426 -1.2275 -0.1434 -1.9498
  399THF     H6 6620   1.335   0.727   4.492  1.2935 -0.0901  3.5869
  399THF     H7 6621   1.211   0.844   4.548  1.3719 -1.1425  3.0549
  399THF     C8 6622   1.162   0.644   4.593  0.8352  0.3497  0.2075
  399THF     C9 6623   1.021   0.638   4.527  0.2339  0.1318 -0.5549
  399THF    H10 6624   1.170   0.659   4.701  1.0378  0.9470  0.1115
  399THF    H11 6625   1.221   0.554   4.573 -0.8481 -0.6249 -0.5100
  399THF    H12 6626   1.009   0.536   4.490 -2.2858  0.8851 -2.1087
  399THF    H13 6627   0.937   0.664   4.591 -1.4717 -2.0382 -1.7346
  400THF     O1 6628   4.292   2.874   0.670 -0.2233 -0.0514 -0.3302
  400THF     C2 6629   4.280   2.984   0.759 -0.0662  0.5224  1.3511
  400THF     C3 6630   4.303   2.764   0.750  0.5227 -0.0493  0.3233
  400THF     H4 6631   4.175   2.982   0.789 -1.1221  0.6591 -1.9278
  400THF     H5 6632   4.298   3.078   0.707 -0.2456 -0.7601 -1.1875
  400THF     H6 6633   4.207   2.725   0.783  0.1247  2.0249  1.7928
  400THF     H7 6634   4.353   2.678   0.705 -1.2689 -0.0268 -1.8845
  400THF     C8 6635   4.392   2.808   0.866 -0.0026  0.3135  0.1691
  400THF     C9 6636   4.376   2.966   0.874 -0.1881  0.3418  0.4672
  400THF    H10 6637   4.496   2.778   0.853 -0.1852 -0.2653 -0.0082
  400THF    H11 6638   4.371   2.752   0.957 -1.2867  0.9090  0.2611
  400THF    H12 6639   4.333   3.004   0.967 -0.6794  0.9788 -0.0153
  400THF    H13 6640   4.472   2.999   0.835 -1.1062  0.7212 -1.6133
  401THF     O1 6641   4.946   4.873   1.229 -0.5112  0.3822  0.2237
  401THF     C2 6642   4.838   4.784   1.251  0.1988  0.4064 -0.1828
  401THF     C3 6643   4.903   4.976   1.139 -0.2906 -0.4661  0.1557
  401THF     H4 6644   4.838   4.790   1.359  0.9958  1.9315 -0.2445
  401THF     H5 6645   4.862   4.686   1.207  1.5984  0.1894  0.9750
  401THF     H6 6646   4.888   5.071   1.190  2.7902  0.4266 -0.4213
  401THF     H7 6647   4.983   5.002   1.070 -0.2800 -0.8472  0.0192
  401THF     C8 6648   4.771   4.924   1.080  0.6736  0.1706 -0.3378
  401THF     C9 6649   4.720   4.839   1.192 -0.5390  0.3305  0.4310
  401THF    H10 6650   4.789   4.855   0.997 -1.2340  1.7900 -2.2293
  401THF    H11 6651   4.700   5.005   1.064  0.2827 -0.1493 -0.2365
  401THF    H12 6652   4.669   4.901   1.266  1.6717  1.0944  1.3923
  401THF    H13 6653   4.652   4.763   1.152 -0.6536  1.1441 -1.0058
  402THF     O1 6654   4.675   4.419   3.992  0.3723 -0.2744  0.4790
  402THF     C2 6655   4.690   4.315   3.896 -0.1944  0.8012  0.2637
  402THF     C3 6656   4.809   4.470   4.014 -0.6384 -0.1035 -0.3026
  402THF     H4 6657   4.601   4.279   3.843  3.2432 -3.1897 -3.5798
  402THF     H5 6658   4.732   4.230   3.949 -0.9563  0.0555 -0.2975
  402THF     H6 6659   4.810   4.571   4.056  1.1956  0.5945 -1.8511
  402THF     H7 6660   4.855   4.392   4.074  0.9895  0.2195 -1.0666
  402THF     C8 6661   4.872   4.474   3.870 -0.2879  0.4154  0.0763
  402THF     C9 6662   4.792   4.356   3.797  0.3927 -0.4194 -0.0282
  402THF    H10 6663   4.979   4.477   3.850 -0.2353  0.0463  0.2891
  402THF    H11 6664   4.840   4.571   3.833  1.2284  1.7791  2.1575
  402THF    H12 6665   4.739   4.394   3.709  1.3285  1.6730  0.2616
  402THF    H13 6666   4.843   4.263   3.773  0.5346  0.0316 -1.5724
  403THF     O1 6667   4.366   1.518   2.447  0.1410 -0.1310  0.5700
  403THF     C2 6668   4.289   1.633   2.477  0.2305 -0.2227 -0.0835
  403THF     C3 6669   4.294   1.412   2.508 -0.2648  0.9970 -0.4393
  403THF     H4 6670   4.307   1.716   2.408 -2.4928  0.3533 -0.2380
  403THF     H5 6671   4.325   1.661   2.576 -0.0371 -0.0792 -0.0245
  403THF     H6 6672   4.318   1.310   2.479  1.0726  1.5439 -1.3493
  403THF     H7 6673   4.313   1.424   2.614 -2.0442  1.4472 -0.1282
  403THF     C8 6674   4.143   1.442   2.481  0.3981  0.3974  0.2594
  403THF     C9 6675   4.141   1.595   2.481  0.3980 -0.0660 -0.0311
  403THF    H10 6676   4.075   1.403   2.556 -1.4832  2.1523 -0.4434
  403THF    H11 6677   4.124   1.405   2.380  0.4416  0.0532  0.3756
  403THF    H12 6678   4.077   1.629   2.400  0.0810 -1.5547 -0.4402
  403THF    H13 6679   4.108   1.627   2.580 -1.8865 -0.8327 -0.4818
  404THF     O1 6680   3.511   0.986   0.840 -0.2681 -0.1616  0.1371
  404THF     C2 6681   3.510   0.865   0.910 -0.2338  0.5593  0.5356
  404THF     C3 6682   3.436   0.972   0.717 -0.2905 -0.3448 -0.1102
  404THF     H4 6683   3.453   0.881   1.001 -0.4907 -2.4695  0.9935
  404THF     H5 6684   3.612   0.836   0.935  0.2052  0.6349 -1.0391
  404THF     H6 6685   3.375   1.055   0.682  0.1762 -1.0527 -2.8457
  404THF     H7 6686   3.507   0.961   0.636 -0.1424 -0.5003  0.0388
  404THF     C8 6687   3.345   0.852   0.730 -0.7981 -0.9396  0.8164
  404THF     C9 6688   3.447   0.765   0.812  0.8911  0.0925  0.9955
  404THF    H10 6689   3.343   0.807   0.631  0.5484 -1.4919  1.0187
  404THF    H11 6690   3.257   0.873   0.791 -0.1104  0.5367  1.3430
  404THF    H12 6691   3.395   0.683   0.863  0.2931  0.6047  1.2140
  404THF    H13 6692   3.515   0.724   0.737 -0.7816  2.0943 -1.8136
  405THF     O1 6693   4.840   4.000   5.109 -0.2087 -0.4440 -0.4668
  405THF     C2 6694   4.935   3.957   5.210 -0.1163 -1.1539 -0.2659
  405THF     C3 6695   4.718   4.040   5.183  0.0730  0.3237 -0.2532
  405THF     H4 6696   4.990   4.044   5.245 -2.2652 -0.1424  0.7805
  405THF     H5 6697   5.008   3.880   5.183  1.1266 -0.1159  0.0593
  405THF     H6 6698   4.738   4.138   5.225 -1.3709  0.1350  0.9872
  405THF     H7 6699   4.635   4.039   5.112 -0.3045  1.6749  0.1418
  405THF     C8 6700   4.705   3.928   5.293  0.7667 -0.3363  0.4779
  405THF     C9 6701   4.847   3.906   5.324  0.2712 -0.4420  0.1330
  405THF    H10 6702   4.663   3.837   5.251  0.4673  0.0101  0.0080
  405THF    H11 6703   4.648   3.963   5.380  0.2924  2.0089 -0.6686
  405THF    H12 6704   4.874   3.968   5.409 -2.6112  2.1725 -0.6823
  405THF    H13 6705   4.868   3.806   5.362  0.1823 -0.2950  0.5650
  406THF     O1 6706   3.805   4.434   1.068 -0.3127 -0.2828 -0.0793
  406THF     C2 6707   3.701   4.438   0.964 -0.3822 -0.5010  0.1003
  406THF     C3 6708   3.829   4.295   1.105  0.6724 -0.4994 -0.4669
  406THF     H4 6709   3.699   4.534   0.910 -2.3263  0.6782  2.1056
  406THF     H5 6710   3.598   4.424   0.997 -0.7938  0.8912 -0.5081
  406THF     H6 6711   3.921   4.286   1.162  0.3081 -1.8734 -0.0532
  406THF     H7 6712   3.749   4.260   1.170  2.4371  0.7378  2.5579
  406THF     C8 6713   3.835   4.232   0.966  0.3564 -0.1371  0.0793
  406THF     C9 6714   3.741   4.312   0.882  0.5987  0.1019  0.1823
  406THF    H10 6715   3.799   4.130   0.953 -0.6660  0.4077 -1.6367
  406THF    H11 6716   3.936   4.231   0.925 -0.1004  0.7376 -1.1105
  406THF    H12 6717   3.778   4.341   0.783 -4.0794  0.6821 -1.6622
  406THF    H13 6718   3.653   4.250   0.866  0.6028 -0.6223  2.6486
  407THF     O1 6719   4.517   3.169   2.363 -0.2965 -0.6159 -0.2745
  407THF     C2 6720   4.465   3.182   2.497 -0.2205 -0.6241  0.2623
  407THF     C3 6721   4.517   3.033   2.336  0.6097  0.9279 -0.7440
  407THF     H4 6722   4.406   3.273   2.495 -0.1494 -0.5830 -0.4667
  407THF     H5 6723   4.550   3.175   2.565  1.3639  0.6659 -1.4889
  407THF     H6 6724   4.504   3.018   2.229 -0.8642 -0.5914 -0.3847
  407THF     H7 6725   4.603   2.977   2.372 -0.3714  0.7625  1.4827
  407THF     C8 6726   4.394   2.980   2.403 -0.1864 -0.3947  0.2884
  407THF     C9 6727   4.382   3.064   2.524  0.8280 -0.4103  0.1538
  407THF    H10 6728   4.384   2.873   2.421 -1.0535  0.0820  3.1968
  407THF    H11 6729   4.306   2.997   2.342  0.0878  1.6472  0.3932
  407THF    H12 6730   4.277   3.089   2.532  0.7823  0.6429 -2.8309
  407THF    H13 6731   4.419   3.010   2.612 -2.1643  0.0508  1.8217
  408THF     O1 6732   3.498   1.708   0.684 -0.3202 -0.7209 -0.6779
  408THF     C2 6733   3.567   1.836   0.694 -0.4811  0.4137  0.4880
  408THF     C3 6734   3.365   1.747   0.644 -0.4530  0.3886  0.7434
  408THF     H4 6735   3.577   1.883   0.596  0.1540 -1.7365 -0.5212
  408THF     H5 6736   3.662   1.821   0.746 -0.3447 -1.1032 -0.1479
  408THF     H6 6737   3.359   1.784   0.542  0.3337 -2.6499 -0.5345
  408THF     H7 6738   3.309   1.653   0.641  1.5828 -0.9018 -2.0515
  408THF     C8 6739   3.334   1.846   0.756  0.4171 -0.6996  0.2430
  408THF     C9 6740   3.463   1.914   0.767 -0.6993  0.1813 -0.1899
  408THF    H10 6741   3.302   1.787   0.841 -0.4381 -1.2822 -0.4615
  408THF    H11 6742   3.246   1.905   0.732  0.8963  0.2736  0.8282
  408THF    H12 6743   3.468   2.013   0.722  2.8042 -0.2208 -0.9572
  408THF    H13 6744   3.500   1.934   0.868 -0.7165 -1.7815  0.2502
  409THF     O1 6745   3.274   4.777   0.200 -0.4095 -0.4454  0.1030
  409THF     C2 6746   3.332   4.890   0.143  0.1461 -0.4799  0.2096
  409THF     C3 6747   3.145   4.770   0.147 -0.2047  0.2189 -0.0102
  409THF     H4 6748   3.440   4.876   0.153 -0.0322 -2.6763 -0.3464
  409THF     H5 6749   3.310   4.977   0.204  2.1685  0.4955 -0.3540
  409THF     H6 6750   3.110   4.670   0.174  0.7055  0.5272  2.6536
  409THF     H7 6751   3.082   4.840   0.203 -1.2010 -0.8407  0.2243
  409THF     C8 6752   3.159   4.805  -0.003  0.5500  0.2841 -0.4868
  409THF     C9 6753   3.290   4.881  -0.003  0.1927  0.0621  0.1738
  409THF    H10 6754   3.079   4.870  -0.036  2.5555  3.2818  0.1600
  409THF    H11 6755   3.163   4.714  -0.063  0.5103  0.2803 -0.4837
  409THF    H12 6756   3.363   4.821  -0.058 -0.4440 -1.3712  0.8330
  409THF    H13 6757   3.274   4.984  -0.033  2.0714 -0.1638 -1.8938
  410THF     O1 6758   4.323   1.798   5.143  0.3439 -0.5939  0.1060
  410THF     C2 6759   4.354   1.681   5.214  0.7208  0.2802 -0.1092
  410THF     C3 6760   4.387   1.791   5.014 -0.8238 -0.7644 -0.1619
  410THF     H4 6761   4.283   1.667   5.294 -1.0597  0.6075 -1.5666
  410THF     H5 6762   4.456   1.694   5.251  1.1966  0.4897 -1.4149
  410THF     H6 6763   4.340   1.838   4.927 -0.1132 -0.5561 -0.4451
  410THF     H7 6764   4.485   1.839   5.018 -0.3288 -1.6387 -1.1874
  410THF     C8 6765   4.401   1.645   4.985 -0.0225 -0.2431 -0.1066
  410THF     C9 6766   4.349   1.569   5.105  0.4872 -0.1636 -0.4657
  410THF    H10 6767   4.505   1.616   4.970 -0.2276 -0.3141 -1.4910
  410THF    H11 6768   4.339   1.629   4.897 -1.4972  1.5619  0.5272
  410THF    H12 6769   4.243   1.547   5.090 -0.2645  2.4189  0.3650
  410THF    H13 6770   4.402   1.476   5.125  0.9476  0.1424 -0.2376
  411THF     O1 6771   5.321   4.404   0.552  0.0198  0.2287 -0.0998
  411THF     C2 6772   5.446   4.339   0.547  0.1775  0.3323  0.0444
  411THF     C3 6773   5.298   4.439   0.687 -0.2877  0.0279 -0.4168
  411THF     H4 6774   5.523   4.410   0.577 -0.7985  0.5615  2.1508
  411THF     H5 6775   5.460   4.289   0.451 -1.8323  2.0320 -1.2148
  411THF     H6 6776   5.340   4.529   0.732 -0.5801 -0.2470  0.4294
  411THF     H7 6777   5.191   4.445   0.706 -0.5017 -0.4302 -1.4236
  411THF     C8 6778   5.358   4.319   0.756 -0.3900 -0.0943  0.5687
  411THF     C9 6779   5.430   4.240   0.653  0.0319 -0.3255 -1.1159
  411THF    H10 6780   5.276   4.251   0.782 -0.7995 -0.0648 -0.6004
  411THF    H11 6781   5.421   4.340   0.842 -1.9043 -0.5351  1.8408
  411THF    H12 6782   5.524   4.203   0.694 -0.7151  0.9875  2.1527
  411THF    H13 6783   5.367   4.152   0.639 -0.4359 -0.1763 -0.0331
  412THF     O1 6784   2.939   0.415   5.309 -0.5500 -0.1840  0.1857
  412THF     C2 6785   2.967   0.449   5.170 -0.2163  0.3457 -0.3353
  412THF     C3 6786   2.818   0.472   5.348  0.1439  0.5731 -0.4815
  412THF     H4 6787   2.938   0.367   5.104 -3.4179  1.4416 -0.4653
  412THF     H5 6788   3.071   0.473   5.150 -0.6493  1.9236 -0.8687
  412THF     H6 6789   2.732   0.419   5.304 -1.7961  1.9705  1.4208
  412THF     H7 6790   2.804   0.474   5.456 -1.6519 -0.7679 -0.6407
  412THF     C8 6791   2.816   0.605   5.285  0.3604 -0.8786  0.6517
  412THF     C9 6792   2.877   0.573   5.151  0.2558 -0.5023 -0.3417
  412THF    H10 6793   2.873   0.675   5.345  1.9254 -1.6959  0.1875
  412THF    H11 6794   2.711   0.635   5.274 -0.5369 -3.7495  0.4613
  412THF    H12 6795   2.808   0.563   5.068  0.8044 -1.0120 -0.7479
  412THF    H13 6796   2.940   0.655   5.118  0.1218 -0.7021 -1.1047
  413THF     O1 6797   3.632   1.821   1.173  0.5369  0.1032  0.5464
  413THF     C2 6798   3.702   1.819   1.296 -0.1134  0.2432 -0.3724
  413THF     C3 6799   3.498   1.771   1.194 -0.1853 -0.6035 -0.0076
  413THF     H4 6800   3.700   1.920   1.335 -0.1637  0.1107 -0.0277
  413THF     H5 6801   3.805   1.796   1.268 -0.4145  0.5172 -1.8054
  413THF     H6 6802   3.426   1.841   1.235  0.8557  1.1373 -1.0293
  413THF     H7 6803   3.463   1.747   1.094 -2.7932  0.7091  0.5189
  413THF     C8 6804   3.533   1.650   1.284  0.2184 -0.1817  0.5017
  413THF     C9 6805   3.627   1.721   1.382 -0.2776 -0.0481  0.0203
  413THF    H10 6806   3.594   1.579   1.227  0.1343  1.6439 -2.0378
  413THF    H11 6807   3.448   1.602   1.331  0.6727 -0.7765  0.7210
  413THF    H12 6808   3.567   1.772   1.457 -1.9858  0.7683 -1.8135
  413THF    H13 6809   3.693   1.652   1.434 -0.6183  0.5869  1.3334
  414THF     O1 6810   1.170   3.065   5.134  0.5092 -0.3465 -0.0048
  414THF     C2 6811   1.310   3.037   5.160  0.0247 -0.0553 -0.0662
  414THF     C3 6812   1.126   2.988   5.020  0.7804  0.3376 -0.2954
  414THF     H4 6813   1.333   3.057   5.264 -2.2368  4.9607 -0.2422
  414THF     H5 6814   1.384   3.099   5.108  0.6516  0.2772  1.1926
  414THF     H6 6815   1.018   2.984   5.005  0.5988  0.6769  0.8030
  414THF     H7 6816   1.173   3.039   4.936 -0.2995  0.8895 -0.5869
  414THF     C8 6817   1.182   2.852   5.061  0.2870 -0.1485  0.5488
  414THF     C9 6818   1.323   2.889   5.110 -0.2279  0.5043 -0.4449
  414THF    H10 6819   1.172   2.783   4.978 -1.4755  2.0041 -1.1408
  414THF    H11 6820   1.125   2.806   5.142 -0.6046 -2.3115 -1.2223
  414THF    H12 6821   1.346   2.837   5.204  0.1143  0.5113 -0.5233
  414THF    H13 6822   1.405   2.885   5.039 -1.0851 -1.5864 -1.3852
  415THF     O1 6823   3.401   1.076   1.688 -0.5463 -0.2159  0.2146
  415THF     C2 6824   3.528   1.048   1.636 -0.3456  0.0402 -0.3781
  415THF     C3 6825   3.394   1.066   1.831 -0.2360 -0.1959  0.0168
  415THF     H4 6826   3.560   1.118   1.558  0.9525 -0.1308 -0.0261
  415THF     H5 6827   3.533   0.944   1.605  1.6484 -0.3150  0.9399
  415THF     H6 6828   3.378   1.168   1.865  0.2488 -0.7128  1.8858
  415THF     H7 6829   3.307   1.009   1.865 -0.8899  0.5207 -0.4313
  415THF     C8 6830   3.537   1.017   1.869  0.3513 -0.1117 -0.1953
  415THF     C9 6831   3.623   1.065   1.750 -0.4871  0.1927 -0.2218
  415THF    H10 6832   3.537   0.908   1.876 -0.9239 -0.1315 -0.4351
  415THF    H11 6833   3.577   1.054   1.964 -1.2739 -2.0346  1.3174
  415THF    H12 6834   3.645   1.168   1.777  0.1221  0.2730 -1.0044
  415THF    H13 6835   3.715   1.012   1.725 -1.3354 -1.5408  0.1963
  416THF     O1 6836   1.905   4.761   0.030 -0.7415  0.2671  0.1904
  416THF     C2 6837   1.890   4.887   0.093 -0.0952 -0.3329  0.9111
  416THF     C3 6838   1.921   4.786  -0.103 -0.0169 -0.0601  0.3859
  416THF     H4 6839   1.989   4.928   0.113 -0.0776 -0.9625  2.2477
  416THF     H5 6840   1.835   4.884   0.187 -0.0089 -1.1868  0.9409
  416THF     H6 6841   2.028   4.791  -0.124 -0.0178 -3.3305 -0.8461
  416THF     H7 6842   1.888   4.713  -0.177  1.0995 -0.5540  0.3498
  416THF     C8 6843   1.826   4.908  -0.131 -0.2273  0.2738  0.4030
  416THF     C9 6844   1.809   4.972   0.003 -0.0076 -0.5930  0.0269
  416THF    H10 6845   1.733   4.865  -0.169  1.1557  0.1477 -3.2189
  416THF    H11 6846   1.861   4.983  -0.202 -3.4713  1.4319 -0.1332
  416THF    H12 6847   1.838   5.077   0.002 -3.6555  0.5595 -0.4538
  416THF    H13 6848   1.703   4.976   0.028  0.4812 -1.4156  2.4822
  417THF     O1 6849   5.479   2.073   3.616 -0.3566 -0.0111  0.3823
  417THF     C2 6850   5.453   1.951   3.677 -0.4127  0.4315  0.1121
  417THF     C3 6851   5.359   2.122   3.557 -0.5882  0.0660  0.2438
  417THF     H4 6852   5.431   1.948   3.784  0.0730  1.2090  0.2458
  417THF     H5 6853   5.543   1.895   3.651  0.7411  3.0889 -2.1346
  417THF     H6 6854   5.282   2.155   3.627 -0.6423  2.1912 -0.7404
  417THF     H7 6855   5.385   2.195   3.480  5.8933 -2.7965 -0.8967
  417THF     C8 6856   5.300   2.000   3.488 -0.2320  0.6796  0.2011
  417THF     C9 6857   5.333   1.893   3.598  0.0251 -0.4519 -0.4057
  417THF    H10 6858   5.360   1.974   3.401  1.1668 -1.0585  1.5973
  417THF    H11 6859   5.194   1.997   3.464 -0.3586  0.7508  0.7354
  417THF    H12 6860   5.249   1.891   3.667  0.4638 -0.8466  0.1248
  417THF    H13 6861   5.336   1.790   3.563  1.5588 -0.2051 -1.0788
  418THF     O1 6862   0.193   4.343   2.687  0.3797 -0.3651  0.0758
  418THF     C2 6863   0.338   4.380   2.697  0.3108  0.1212 -0.4161
  418THF     C3 6864   0.115   4.457   2.733  0.0192 -0.7089  0.7194
  418THF     H4 6865   0.371   4.406   2.596  0.8875  0.1727 -0.2188
  418THF     H5 6866   0.392   4.304   2.753 -0.3865 -1.3767 -1.6925
  418THF     H6 6867   0.023   4.464   2.677  0.0880 -3.6264  0.1011
  418THF     H7 6868   0.080   4.430   2.833 -0.9509 -2.4953 -0.0589
  418THF     C8 6869   0.209   4.575   2.728 -0.4929 -0.9515  0.1643
  418THF     C9 6870   0.330   4.506   2.772  0.0861 -0.2568  0.4421
  418THF    H10 6871   0.187   4.657   2.796  1.2587  1.2647 -1.7637
  418THF    H11 6872   0.225   4.609   2.626 -1.0313  0.2149  0.4507
  418THF    H12 6873   0.412   4.576   2.760 -0.5328  0.5812  0.9581
  418THF    H13 6874   0.328   4.487   2.880 -0.9444  1.5464  0.7884
  419THF     O1 6875   0.504   3.477   3.077  0.4497  0.5496  0.0293
  419THF     C2 6876   0.363   3.444   3.086  0.7956 -0.2148 -0.4481
  419THF     C3 6877   0.546   3.437   2.946  0.1936  0.6506 -0.4767
  419THF     H4 6878   0.322   3.509   3.163  0.0121 -1.1939 -0.0176
  419THF     H5 6879   0.329   3.341   3.098 -1.4794  0.4897 -0.5442
  419THF     H6 6880   0.642   3.484   2.927  1.7283 -1.7293  0.7672
  419THF     H7 6881   0.554   3.328   2.950 -0.8063  0.5227 -1.5282
  419THF     C8 6882   0.424   3.470   2.858  0.6747  0.0627 -0.4679
  419THF     C9 6883   0.308   3.491   2.954  0.1190 -0.1097 -0.3215
  419THF    H10 6884   0.403   3.382   2.797  1.2923  0.1606 -0.8265
  419THF    H11 6885   0.439   3.565   2.807  0.7992 -0.0987 -0.7313
  419THF    H12 6886   0.285   3.596   2.971  0.5563 -0.2617  1.3541
  419THF    H13 6887   0.214   3.442   2.928 -0.3565  1.0304 -0.8317
  420THF     O1 6888   3.651   1.955   3.298  0.4314  0.1595  0.4705
  420THF     C2 6889   3.623   2.074   3.219 -0.0570 -0.2291 -0.0252
  420THF     C3 6890   3.666   1.841   3.214 -0.1137  0.8207 -0.4673
  420THF     H4 6891   3.703   2.149   3.216  0.6196 -0.9627 -1.3573
  420THF     H5 6892   3.544   2.141   3.253  0.4759  0.9310 -0.9787
  420THF     H6 6893   3.752   1.777   3.236 -1.4222 -1.7413 -2.2187
  420THF     H7 6894   3.574   1.785   3.235  0.5953  0.5196  2.1572
  420THF     C8 6895   3.681   1.904   3.074  0.0449 -0.1483 -0.9550
  420THF     C9 6896   3.604   2.029   3.081  0.0018  0.3443  0.0801
  420THF    H10 6897   3.638   1.841   2.996 -3.0889  2.3853 -1.4703
  420THF    H11 6898   3.788   1.924   3.059  0.5563 -1.8742  0.1242
  420THF    H12 6899   3.643   2.101   3.009  1.2934 -0.6570 -0.2738
  420THF    H13 6900   3.499   2.003   3.070  0.5567 -1.3069 -2.3475
  421THF     O1 6901   5.194   0.279   1.199 -0.1851 -0.5094 -0.2157
  421THF     C2 6902   5.205   0.404   1.273 -0.0634  0.5800  0.2117
  421THF     C3 6903   5.192   0.323   1.061  0.0756  0.9636 -0.1804
  421THF     H4 6904   5.311   0.426   1.278 -0.3128  1.4855  2.1131
  421THF     H5 6905   5.152   0.398   1.368  0.9427 -0.7836  0.7207
  421THF     H6 6906   5.292   0.354   1.030  0.3100 -0.1543 -0.6029
  421THF     H7 6907   5.153   0.251   0.989  0.4513  0.3909  0.1900
  421THF     C8 6908   5.098   0.441   1.057  0.6649 -0.1078 -0.4940
  421THF     C9 6909   5.141   0.510   1.189  0.3786 -0.2484  0.4011
  421THF    H10 6910   4.992   0.416   1.063  0.3228  1.5077  1.7260
  421THF    H11 6911   5.109   0.511   0.975  1.1144 -0.3050 -0.6025
  421THF    H12 6912   5.205   0.596   1.166 -0.0441 -0.6046 -2.5035
  421THF    H13 6913   5.048   0.550   1.230  0.2174  0.7152 -0.8144
  422THF     O1 6914   3.662   0.603   2.798 -0.0399  0.2626 -0.4339
  422THF     C2 6915   3.762   0.663   2.726 -0.5490 -0.1679 -0.1307
  422THF     C3 6916   3.596   0.526   2.697  0.4412  0.0992  0.5306
  422THF     H4 6917   3.848   0.595   2.735  0.0849  0.7476  0.9663
  422THF     H5 6918   3.803   0.758   2.760 -0.9743 -0.1197  0.2500
  422THF     H6 6919   3.654   0.440   2.662 -0.7943  0.0793 -1.6289
  422THF     H7 6920   3.504   0.496   2.747  1.0802  0.7272  2.1760
  422THF     C8 6921   3.578   0.635   2.594  0.8634  0.3878  0.7504
  422THF     C9 6922   3.713   0.703   2.593 -0.0511  0.5078 -0.0702
  422THF    H10 6923   3.505   0.709   2.628  0.1065 -0.0041  0.0112
  422THF    H11 6924   3.543   0.594   2.500 -1.0979  1.4822  0.9398
  422THF    H12 6925   3.771   0.649   2.518 -0.5810 -1.0103  0.5803
  422THF    H13 6926   3.714   0.811   2.579 -0.0924  0.3178 -1.7759
  423THF     O1 6927   0.422   2.786   3.360  0.4482  0.0530 -0.2733
  423THF     C2 6928   0.413   2.780   3.505  0.3696  0.1286 -0.1595
  423THF     C3 6929   0.494   2.666   3.324  0.2534 -0.1930  0.1438
  423THF     H4 6930   0.335   2.706   3.527 -1.6040  2.1459 -0.0442
  423THF     H5 6931   0.400   2.878   3.551  1.0713  0.1794 -0.0586
  423THF     H6 6932   0.427   2.583   3.347 -2.1850  1.7092  0.3009
  423THF     H7 6933   0.526   2.668   3.220 -0.4200  0.4525 -0.0626
  423THF     C8 6934   0.614   2.668   3.419 -0.0501 -0.9460 -0.5025
  423THF     C9 6935   0.550   2.725   3.546  0.3385 -0.3373 -0.1031
  423THF    H10 6936   0.677   2.749   3.381 -0.7436 -0.1757 -0.0572
  423THF    H11 6937   0.676   2.579   3.427  1.3148  0.0729  0.9389
  423THF    H12 6938   0.526   2.642   3.612 -0.6340 -0.2217 -0.3059
  423THF    H13 6939   0.621   2.798   3.587 -1.1228  1.5762 -0.8518
  424THF     O1 6940   2.901   4.710   5.359 -0.1257 -0.0715  0.3255
  424THF     C2 6941   2.909   4.569   5.390 -0.3808 -0.4592 -0.4398
  424THF     C3 6942   2.791   4.759   5.430 -0.5361 -0.1059  0.0698
  424THF     H4 6943   3.013   4.543   5.411 -0.3882  1.0798  1.8572
  424THF     H5 6944   2.890   4.498   5.309  0.5518  1.1989 -2.2183
  424THF     H6 6945   2.796   4.867   5.442 -2.1079 -0.2631  2.7778
  424THF     H7 6946   2.710   4.728   5.364 -0.6702 -0.8267  0.5544
  424THF     C8 6947   2.775   4.683   5.552  0.1158 -0.2862  0.3087
  424THF     C9 6948   2.820   4.544   5.511 -0.3880 -0.5658 -0.5655
  424THF    H10 6949   2.669   4.684   5.578 -0.3054  1.2479 -1.2917
  424THF    H11 6950   2.837   4.722   5.634 -1.5072  0.8902  1.0435
  424THF    H12 6951   2.864   4.478   5.585  0.1831 -1.3910 -1.6077
  424THF    H13 6952   2.732   4.489   5.478 -1.1119 -0.8144  1.6340
  425THF     O1 6953   3.354   1.400   4.887  0.7377  0.0724 -0.1176
  425THF     C2 6954   3.395   1.355   4.762  0.1827  0.4137  0.8041
  425THF     C3 6955   3.311   1.531   4.864  0.6840  0.3385 -0.2353
  425THF     H4 6956   3.411   1.248   4.749  1.2934  0.6116  0.4052
  425THF     H5 6957   3.488   1.405   4.733  0.7884 -1.6615 -1.1865
  425THF     H6 6958   3.247   1.568   4.944 -1.1131  2.8827 -2.6249
  425THF     H7 6959   3.393   1.602   4.854  0.8949  0.3377  1.2719
  425THF     C8 6960   3.222   1.525   4.741  0.5797 -0.2728 -0.6001
  425THF     C9 6961   3.279   1.402   4.673  0.8288  0.5217  0.1915
  425THF    H10 6962   3.239   1.616   4.685  1.9429 -0.9604 -1.3523
  425THF    H11 6963   3.116   1.527   4.767  1.1334 -0.9676  2.1063
  425THF    H12 6964   3.196   1.332   4.684  0.4013  0.9383 -0.3275
  425THF    H13 6965   3.302   1.417   4.567  3.1095 -0.5390  0.4652
  426THF     O1 6966   3.658   4.102   2.386  0.2436  0.2321 -0.4027
  426THF     C2 6967   3.630   4.015   2.501  0.0572  0.1407  1.4939
  426THF     C3 6968   3.545   4.181   2.365 -0.1815  0.4814  0.3554
  426THF     H4 6969   3.721   3.998   2.557  0.7535  0.5051  0.5035
  426THF     H5 6970   3.595   3.919   2.463 -1.8910 -0.2409  4.0023
  426THF     H6 6971   3.566   4.256   2.288 -2.4636  0.8697  0.0359
  426THF     H7 6972   3.472   4.108   2.329  0.4343  0.1468 -0.2536
  426THF     C8 6973   3.508   4.228   2.500 -0.1719  0.3224  0.1959
  426THF     C9 6974   3.525   4.095   2.577  0.1604  0.7047  0.3074
  426THF    H10 6975   3.411   4.277   2.493  0.1481  0.7729 -2.1497
  426THF    H11 6976   3.581   4.301   2.535  1.1064 -0.8377  0.0025
  426THF    H12 6977   3.558   4.111   2.679  0.4650 -0.4792  0.4062
  426THF    H13 6978   3.431   4.042   2.582  1.6565 -2.3531 -1.1798
  427THF     O1 6979   5.059   0.326   2.511 -0.6435 -0.1130  0.3255
  427THF     C2 6980   5.049   0.451   2.446  0.8566  0.6686 -0.1053
  427THF     C3 6981   5.023   0.231   2.404 -0.0119  0.3802  0.3019
  427THF     H4 6982   5.104   0.520   2.511 -1.0423  1.1220  1.1119
  427THF     H5 6983   4.945   0.485   2.445  1.1962  1.7384 -0.4949
  427THF     H6 6984   5.060   0.128   2.412 -0.4233  0.2142  0.0789
  427THF     H7 6985   4.916   0.213   2.407  0.1435 -0.9074 -0.8850
  427THF     C8 6986   5.063   0.298   2.272 -0.5769 -0.1198  0.0148
  427THF     C9 6987   5.095   0.449   2.308 -0.0169  0.1455 -0.6212
  427THF    H10 6988   4.986   0.280   2.197 -2.5867 -0.2509  2.0185
  427THF    H11 6989   5.162   0.262   2.243  0.1549  1.6313  0.2405
  427THF    H12 6990   5.200   0.477   2.298  0.0636  0.5844  1.1551
  427THF    H13 6991   5.030   0.517   2.254 -1.3221 -0.5310  0.0495
  428THF     O1 6992   0.995   3.492   3.264  0.2134  0.3701 -0.5970
  428THF     C2 6993   0.867   3.547   3.224  0.4486  0.0154 -0.0807
  428THF     C3 6994   0.979   3.455   3.400 -0.4595 -0.8085 -0.2630
  428THF     H4 6995   0.794   3.466   3.219  1.1369 -0.6663  0.6323
  428THF     H5 6996   0.866   3.606   3.132 -0.9397 -1.3358 -0.9698
  428THF     H6 6997   0.966   3.348   3.411 -1.0110 -0.6709  0.4315
  428THF     H7 6998   1.077   3.481   3.442 -1.4100 -2.3708  3.3137
  428THF     C8 6999   0.858   3.525   3.459  0.0600 -0.5071  0.5052
  428THF     C9 7000   0.818   3.622   3.351  0.1852 -0.5045  0.1945
  428THF    H10 7001   0.879   3.582   3.550 -0.3887  2.8985 -1.3281
  428THF    H11 7002   0.777   3.459   3.489 -1.1035  1.2081  1.2875
  428THF    H12 7003   0.709   3.632   3.354  0.3216  2.0575 -0.8478
  428THF    H13 7004   0.857   3.724   3.356 -2.4867  0.5438  1.5542
  429THF     O1 7005   2.373   0.827   5.209 -0.1947  0.8018 -0.1095
  429THF     C2 7006   2.507   0.868   5.172 -0.4490  0.1659  0.1453
  429THF     C3 7007   2.302   0.781   5.096  0.2512  0.2381 -0.6900
  429THF     H4 7008   2.582   0.849   5.249 -0.2938  2.8410  0.7265
  429THF     H5 7009   2.513   0.972   5.142  1.2236  0.5835  1.7697
  429THF     H6 7010   2.254   0.686   5.118 -1.7948  1.3269 -0.2380
  429THF     H7 7011   2.213   0.835   5.066 -0.5260  0.0262  1.1070
  429THF     C8 7012   2.408   0.763   4.985 -0.5126  0.1471 -0.9993
  429THF     C9 7013   2.539   0.758   5.065  0.2471 -0.0228  0.4558
  429THF    H10 7014   2.424   0.856   4.930 -0.7541  1.2219  0.6810
  429THF    H11 7015   2.401   0.672   4.925  1.9084 -0.4909 -0.4225
  429THF    H12 7016   2.563   0.663   5.113 -0.1915 -1.1636 -1.4653
  429THF    H13 7017   2.624   0.783   5.001 -0.9303  0.0166 -1.1575
  430THF     O1 7018   3.675   5.286   2.716 -0.1102  0.3537 -0.5517
  430THF     C2 7019   3.787   5.343   2.657 -0.0529  0.0789 -0.0596
  430THF     C3 7020   3.556   5.353   2.673 -0.5010 -0.2757 -0.5962
  430THF     H4 7021   3.842   5.256   2.623 -1.8366 -1.4551  0.7835
  430THF     H5 7022   3.841   5.407   2.727 -1.0701  1.5022 -0.5212
  430THF     H6 7023   3.468   5.291   2.689 -2.2928  1.4320 -3.0749
  430THF     H7 7024   3.549   5.451   2.720 -1.3253 -0.3576 -0.5214
  430THF     C8 7025   3.590   5.373   2.528  0.0011  0.3870  0.6130
  430THF     C9 7026   3.729   5.428   2.550  0.2981 -0.3741 -0.1854
  430THF    H10 7027   3.524   5.448   2.486 -2.1266 -1.4462  0.4694
  430THF    H11 7028   3.581   5.280   2.472  1.3784 -0.1172  1.1710
  430THF    H12 7029   3.793   5.431   2.462 -1.2088  0.4077 -1.2924
  430THF    H13 7030   3.721   5.529   2.589  0.2340 -0.0359 -1.0416
  431THF     O1 7031   3.711   2.869   3.716 -0.3223 -0.5971  0.0188
  431THF     C2 7032   3.615   2.826   3.815 -0.3585  0.7147  0.9287
  431THF     C3 7033   3.842   2.853   3.768 -0.6804  0.4106 -0.3230
  431THF     H4 7034   3.529   2.791   3.758  0.4311  0.5122 -0.1857
  431THF     H5 7035   3.582   2.897   3.889  0.7679  1.6391  0.5735
  431THF     H6 7036   3.927   2.847   3.700  0.2077 -0.3540  0.8183
  431THF     H7 7037   3.859   2.941   3.829 -1.4545 -0.2335  0.8498
  431THF     C8 7038   3.836   2.729   3.867  0.1792  0.4982 -0.3493
  431THF     C9 7039   3.688   2.712   3.891 -0.3248  1.2427  0.2244
  431THF    H10 7040   3.889   2.736   3.962 -1.3799  0.8656  0.5169
  431THF    H11 7041   3.880   2.642   3.818 -0.2569 -0.0300  0.1868
  431THF    H12 7042   3.668   2.616   3.846 -0.9374  1.8287 -0.7888
  431THF    H13 7043   3.655   2.702   3.995  0.6349 -1.5992  0.3215
  432THF     O1 7044   2.226   3.164   4.823 -0.1604 -0.2692  0.0681
  432THF     C2 7045   2.342   3.157   4.746 -0.1593  0.5701 -0.3410
  432THF     C3 7046   2.155   3.285   4.802 -0.5722  0.3061  0.4740
  432THF     H4 7047   2.310   3.111   4.652 -1.0993  0.1192  0.1905
  432THF     H5 7048   2.418   3.103   4.801  0.5442  1.2139 -0.6630
  432THF     H6 7049   2.089   3.274   4.715 -0.5213  2.7110  0.0679
  432THF     H7 7050   2.093   3.301   4.890  0.2361  0.5144  1.0206
  432THF     C8 7051   2.268   3.388   4.777  0.3727  0.5774 -0.0039
  432THF     C9 7052   2.385   3.303   4.727 -0.0222  0.1895  0.0126
  432THF    H10 7053   2.302   3.437   4.868  2.8769 -0.2204 -0.4400
  432THF    H11 7054   2.230   3.454   4.698  2.8164 -0.8373 -2.5408
  432THF    H12 7055   2.393   3.322   4.620 -2.6700 -0.3359 -0.3407
  432THF    H13 7056   2.483   3.315   4.774  0.4663  0.4436 -1.0493
  433THF     O1 7057   4.517   1.222   3.107 -0.4189 -0.6094 -0.4991
  433THF     C2 7058   4.502   1.098   3.161 -0.0146  0.3228  0.3244
  433THF     C3 7059   4.432   1.236   2.992 -0.1454  0.4288 -0.3560
  433THF     H4 7060   4.543   1.099   3.262  0.1550  1.9406  0.2784
  433THF     H5 7061   4.572   1.028   3.115 -0.5505  0.1683 -0.2659
  433THF     H6 7062   4.389   1.332   2.963  3.1742  1.7448 -1.5353
  433THF     H7 7063   4.502   1.211   2.912  0.6977 -0.0714  0.5237
  433THF     C8 7064   4.327   1.130   2.996  0.2488  0.3493  0.1366
  433THF     C9 7065   4.353   1.059   3.131 -0.4880 -0.3341 -0.4715
  433THF    H10 7066   4.350   1.057   2.918  0.9389 -0.0080  0.6636
  433THF    H11 7067   4.224   1.165   2.987 -0.6967 -1.7026  1.9396
  433THF    H12 7068   4.296   1.123   3.198 -0.4107  1.6878 -2.2446
  433THF    H13 7069   4.326   0.953   3.132 -1.3728 -0.1424 -1.5633
  434THF     O1 7070   4.336   3.691   5.301 -0.5558 -0.3624  0.0646
  434THF     C2 7071   4.426   3.600   5.231 -0.4418  0.0837  0.4530
  434THF     C3 7072   4.262   3.602   5.375  0.4460  0.6233 -0.5067
  434THF     H4 7073   4.504   3.653   5.177 -2.6048  2.7659 -0.2728
  434THF     H5 7074   4.381   3.551   5.144 -1.5615  0.3715  0.8553
  434THF     H6 7075   4.206   3.661   5.448 -0.5241  0.6170 -1.2315
  434THF     H7 7076   4.181   3.549   5.325 -2.5487  2.6411  1.7747
  434THF     C8 7077   4.361   3.502   5.438 -0.3382  0.4224  0.2592
  434THF     C9 7078   4.472   3.503   5.338  0.4298 -0.2708  0.2604
  434THF    H10 7079   4.320   3.401   5.439  0.5643 -0.0400 -2.2292
  434THF    H11 7080   4.393   3.525   5.539 -3.0813  1.3491  1.0028
  434THF    H12 7081   4.564   3.548   5.377 -0.3468  0.9198  0.7948
  434THF    H13 7082   4.492   3.403   5.302  1.2993  0.0850 -0.2687
  435THF     O1 7083   0.850   5.416   5.177 -0.1557  0.4343 -0.0073
  435THF     C2 7084   0.973   5.440   5.241 -0.6219  0.2740 -0.3401
  435THF     C3 7085   0.814   5.279   5.181 -0.5193 -0.0473 -0.3221
  435THF     H4 7086   0.969   5.534   5.295  0.2571 -0.7640  1.6314
  435THF     H5 7087   1.048   5.443   5.161 -0.8321 -1.7581 -0.6763
  435THF     H6 7088   0.715   5.266   5.224 -1.1654  1.6736 -1.2208
  435THF     H7 7089   0.815   5.227   5.084  1.7484 -0.5641 -0.0896
  435THF     C8 7090   0.925   5.204   5.259  0.1836 -0.4118 -0.0825
  435THF     C9 7091   1.011   5.323   5.320  0.0990  0.6732  0.4036
  435THF    H10 7092   0.986   5.156   5.182 -0.1304 -1.8488  0.5449
  435THF    H11 7093   0.888   5.134   5.334  0.4121  0.6559  1.0529
  435THF    H12 7094   0.980   5.326   5.424 -1.9572  0.3088 -0.1661
  435THF    H13 7095   1.120   5.311   5.318  0.3654  2.5566  1.4134
  436THF     O1 7096   1.911   3.436   4.563  0.3962 -0.2445  0.3034
  436THF     C2 7097   1.862   3.304   4.556 -0.1145 -0.5891 -0.2735
  436THF     C3 7098   1.843   3.512   4.466  0.3736  1.0378  0.5983
  436THF     H4 7099   1.846   3.274   4.660 -1.0728 -0.7288 -0.4519
  436THF     H5 7100   1.939   3.238   4.516 -0.5398 -1.1907 -0.1109
  436THF     H6 7101   1.841   3.621   4.471 -0.0579  1.0868 -0.4969
  436THF     H7 7102   1.879   3.492   4.365 -0.7769 -0.6117  0.4669
  436THF     C8 7103   1.703   3.455   4.464  0.1048 -0.4406 -0.4445
  436THF     C9 7104   1.730   3.311   4.479 -0.8062 -0.7423 -0.4326
  436THF    H10 7105   1.651   3.493   4.377  1.5670  0.4750 -0.9476
  436THF    H11 7106   1.656   3.485   4.558 -0.1913 -0.9063 -0.4377
  436THF    H12 7107   1.645   3.262   4.528 -3.3270  2.2288 -1.4655
  436THF    H13 7108   1.749   3.263   4.384 -0.3681  0.4070 -0.9452
  437THF     O1 7109   0.160   4.567   5.293  0.2930 -0.7688 -0.0328
  437THF     C2 7110   0.112   4.483   5.190  0.0890 -0.4261 -0.4308
  437THF     C3 7111   0.121   4.517   5.421 -0.3239  0.0335  0.3167
  437THF     H4 7112   0.161   4.511   5.097 -0.6546  1.8184 -0.2103
  437THF     H5 7113   0.006   4.504   5.179 -0.4474 -2.2841  0.6761
  437THF     H6 7114   0.172   4.565   5.504  3.2267 -1.6257 -0.6994
  437THF     H7 7115   0.014   4.533   5.437 -0.5371  0.1812 -1.1203
  437THF     C8 7116   0.158   4.368   5.405  0.5242 -0.3259 -0.1516
  437THF     C9 7117   0.138   4.343   5.253  0.4385 -0.4676  0.2834
  437THF    H10 7118   0.091   4.305   5.464 -0.9444  3.5345  2.7346
  437THF    H11 7119   0.260   4.347   5.438  0.3519 -0.6167  0.2037
  437THF    H12 7120   0.224   4.292   5.212 -0.7770 -1.2003 -1.5042
  437THF    H13 7121   0.052   4.284   5.220  0.5164  0.7330 -2.3697
  438THF     O1 7122   4.868   3.248   1.690 -0.0902 -0.1777  0.4321
  438THF     C2 7123   4.746   3.173   1.677 -0.0798  1.1156 -0.3603
  438THF     C3 7124   4.933   3.200   1.813 -0.3400 -0.1491 -0.4620
  438THF     H4 7125   4.706   3.177   1.575 -2.0810 -1.0842  0.2358
  438THF     H5 7126   4.661   3.210   1.734 -0.9696 -0.5363 -0.5452
  438THF     H6 7127   5.036   3.229   1.833 -0.2728  0.4110 -1.5224
  438THF     H7 7128   4.873   3.222   1.901 -1.1969  1.6801 -1.4430
  438THF     C8 7129   4.924   3.049   1.801 -0.0086  0.1450 -0.1274
  438THF     C9 7130   4.789   3.033   1.721 -0.0104  1.0987 -0.6838
  438THF    H10 7131   4.914   3.002   1.899  2.7425 -1.1668 -0.3749
  438THF    H11 7132   5.000   3.000   1.739 -1.8122 -1.8387 -0.8984
  438THF    H12 7133   4.820   2.978   1.632  1.1419  1.8256 -0.7560
  438THF    H13 7134   4.712   2.986   1.782  0.4460  2.1780  0.7713
  439THF     O1 7135   5.225   3.929   1.410  0.0141 -0.1487  0.0570
  439THF     C2 7136   5.295   3.869   1.304  0.6676 -0.1566  0.1256
  439THF     C3 7137   5.088   3.899   1.390 -0.6698 -0.1823  0.0041
  439THF     H4 7138   5.400   3.860   1.332  0.6548  1.2343  0.6902
  439THF     H5 7139   5.294   3.918   1.207  1.6820  0.4596  0.4186
  439THF     H6 7140   5.031   3.918   1.481  1.3535  0.4861  1.2012
  439THF     H7 7141   5.049   3.952   1.303 -2.3109  1.0104  1.3954
  439THF     C8 7142   5.102   3.749   1.362 -0.6063  0.4389  0.0078
  439THF     C9 7143   5.239   3.728   1.293  0.3673 -0.6730 -0.3336
  439THF    H10 7144   5.021   3.713   1.299  0.4761 -1.2447 -0.4868
  439THF    H11 7145   5.093   3.688   1.452  3.2736  0.4745  0.6023
  439THF    H12 7146   5.297   3.652   1.346 -0.2201  0.8575  2.7340
  439THF    H13 7147   5.236   3.707   1.186  1.4624 -1.9323 -0.1504
  440THF     O1 7148   1.541   3.042   3.775  0.4191 -0.5855 -0.1944
  440THF     C2 7149   1.654   2.986   3.702 -0.0924 -0.6241  0.6148
  440THF     C3 7150   1.571   3.179   3.808 -0.8910  0.4539  0.0266
  440THF     H4 7151   1.666   3.025   3.601  2.0809 -2.0589  0.2624
  440THF     H5 7152   1.651   2.877   3.696  0.0909 -0.5635 -1.3646
  440THF     H6 7153   1.572   3.248   3.723 -0.3884  0.2501 -0.1376
  440THF     H7 7154   1.489   3.216   3.869 -1.8599 -0.1617 -0.8611
  440THF     C8 7155   1.711   3.158   3.867 -0.0546 -0.0222  0.1403
  440THF     C9 7156   1.766   3.042   3.792  0.1451 -0.6641  0.5780
  440THF    H10 7157   1.689   3.134   3.971 -0.2822 -1.1610 -0.1561
  440THF    H11 7158   1.769   3.250   3.858  1.1230 -0.7020  0.6281
  440THF    H12 7159   1.850   3.080   3.733 -2.0630  3.8763 -0.0493
  440THF    H13 7160   1.798   2.960   3.856 -0.1660 -1.1172  0.1590
  441THF     O1 7161   5.203   4.880   5.266 -0.0842 -0.1068  0.1054
  441THF     C2 7162   5.206   4.938   5.393  0.5256  0.4566 -0.4269
  441THF     C3 7163   5.338   4.869   5.224  0.1593  0.5609  0.7114
  441THF     H4 7164   5.124   4.894   5.450  0.4458  1.6284  0.4122
  441THF     H5 7165   5.182   5.044   5.394 -4.8571 -0.4089  2.1029
  441THF     H6 7166   5.347   4.779   5.163  1.4558  1.2804 -0.2117
  441THF     H7 7167   5.366   4.961   5.171 -1.7947  0.3627 -0.8174
  441THF     C8 7168   5.424   4.849   5.347  0.1139  0.4590 -0.4597
  441THF     C9 7169   5.343   4.920   5.459 -0.1583  0.2863  0.4340
  441THF    H10 7170   5.526   4.883   5.330  0.6304 -0.9051 -0.2011
  441THF    H11 7171   5.434   4.747   5.384 -1.1483  1.3368  2.6115
  441THF    H12 7172   5.326   4.853   5.544 -0.7142  2.1426  1.8453
  441THF    H13 7173   5.399   5.010   5.484  0.5494 -0.2232  0.7090
  442THF     O1 7174   4.254   3.334   1.963  0.0081 -0.2424 -0.0947
  442THF     C2 7175   4.345   3.437   1.930 -0.9522  0.2966  0.3304
  442THF     C3 7176   4.318   3.257   2.061 -0.7102 -0.0853 -0.5130
  442THF     H4 7177   4.374   3.510   2.006  0.1848  1.0618 -0.7957
  442THF     H5 7178   4.303   3.486   1.843 -0.5823 -1.9869 -1.2320
  442THF     H6 7179   4.333   3.315   2.152  0.0828 -2.0289  0.6682
  442THF     H7 7180   4.269   3.161   2.075  3.4207 -2.2795  0.5963
  442THF     C8 7181   4.452   3.233   1.991 -0.4408  0.5715 -0.2667
  442THF     C9 7182   4.472   3.356   1.903 -0.9147 -0.0051 -0.0898
  442THF    H10 7183   4.461   3.150   1.921  0.7733  0.4128  0.0421
  442THF    H11 7184   4.539   3.222   2.056 -0.2452 -0.3453 -0.6757
  442THF    H12 7185   4.559   3.417   1.930 -0.0509 -0.8620 -0.8682
  442THF    H13 7186   4.474   3.331   1.797 -0.2341 -3.0724  0.5523
  443THF     O1 7187   4.250   3.618   0.537  0.5522  0.0166 -0.0703
  443THF     C2 7188   4.192   3.493   0.486 -0.8654  0.4215 -0.5025
  443THF     C3 7189   4.269   3.706   0.427  0.2778  0.2591  1.2348
  443THF     H4 7190   4.143   3.432   0.563 -0.0476  0.9933  0.5083
  443THF     H5 7191   4.278   3.437   0.449 -1.1482 -0.9932  0.8565
  443THF     H6 7192   4.267   3.812   0.454 -0.5794  0.2677  1.1653
  443THF     H7 7193   4.367   3.700   0.380 -1.2673 -0.5177 -2.2184
  443THF     C8 7194   4.174   3.649   0.322  0.2669  0.0272 -0.3634
  443THF     C9 7195   4.087   3.542   0.386 -0.4506  0.2680 -0.1068
  443THF    H10 7196   4.232   3.606   0.240  3.1854  1.9586  0.5434
  443THF    H11 7197   4.105   3.726   0.287 -0.2957 -0.1353  0.3602
  443THF    H12 7198   4.000   3.588   0.432 -0.3332 -0.5182  0.9544
  443THF    H13 7199   4.045   3.474   0.312 -0.1886  0.2907 -0.2818
  444THF     O1 7200   4.209   4.130   3.183  0.1782 -0.1774  0.1779
  444THF     C2 7201   4.084   4.165   3.116 -0.1700  0.5558 -0.0233
  444THF     C3 7202   4.193   4.150   3.323 -0.0387 -0.0378 -0.2711
  444THF     H4 7203   4.047   4.095   3.041  0.8946 -0.5369  0.4407
  444THF     H5 7204   4.093   4.265   3.072 -3.3635  2.3464  2.9427
  444THF     H6 7205   4.191   4.052   3.369 -0.8132 -0.3225 -0.8959
  444THF     H7 7206   4.273   4.209   3.369  0.2926 -1.7615  1.5018
  444THF     C8 7207   4.058   4.222   3.337 -0.7828  0.6524  0.0103
  444THF     C9 7208   3.978   4.189   3.221  0.1804 -0.5424  0.4032
  444THF    H10 7209   4.080   4.329   3.338  0.3471  0.4717  2.5333
  444THF    H11 7210   4.007   4.207   3.431 -2.4190  2.1415 -0.5900
  444THF    H12 7211   3.927   4.094   3.239 -1.2999 -0.0798 -1.0616
  444THF    H13 7212   3.906   4.266   3.194 -1.2290 -1.5292  1.1674
  445THF     O1 7213   4.753   1.242   3.939  0.0300 -0.4096  0.4008
  445THF     C2 7214   4.875   1.294   3.992  1.0140 -0.2780  0.1199
  445THF     C3 7215   4.650   1.329   3.980  0.1818 -0.1281 -0.0930
  445THF     H4 7216   4.964   1.266   3.936  1.9916 -0.9796  1.9167
  445THF     H5 7217   4.888   1.237   4.085  0.5971  0.2333  0.4983
  445THF     H6 7218   4.553   1.319   3.931 -0.4939 -0.6834  1.2901
  445THF     H7 7219   4.638   1.333   4.088  1.3632  2.2392  0.0015
  445THF     C8 7220   4.714   1.467   3.959  0.0089 -0.3328  0.1860
  445THF     C9 7221   4.855   1.442   3.995 -0.2887  0.3320  0.3085
  445THF    H10 7222   4.679   1.551   4.019  0.9678  1.6175 -1.8425
  445THF    H11 7223   4.695   1.511   3.861  1.6853  2.6337  1.0464
  445THF    H12 7224   4.931   1.488   3.932 -1.5563  2.7062  0.4016
  445THF    H13 7225   4.880   1.476   4.095  0.9312 -1.8211  0.8081
  446THF     O1 7226   1.794   1.223   0.598  0.7935 -0.3660 -0.1229
  446THF     C2 7227   1.870   1.200   0.482  0.2516  0.0009  0.2164
  446THF     C3 7228   1.838   1.340   0.669 -1.1546  0.5695  0.3331
  446THF     H4 7229   1.810   1.211   0.392  0.2596  1.7122  0.3881
  446THF     H5 7230   1.918   1.102   0.485  3.3322  1.3951 -0.1033
  446THF     H6 7231   1.788   1.431   0.636 -0.6683  1.1573  1.1996
  446THF     H7 7232   1.821   1.328   0.775  0.4685  0.9670  0.6678
  446THF     C8 7233   1.983   1.350   0.632  0.2667 -0.2450 -0.4248
  446THF     C9 7234   1.977   1.310   0.484 -0.1988  0.5523 -0.2692
  446THF    H10 7235   2.045   1.274   0.679  0.6341 -1.6191 -2.9257
  446THF    H11 7236   2.016   1.450   0.659 -1.2647  0.2183 -0.1989
  446THF    H12 7237   1.943   1.389   0.418  1.6513  0.6398 -1.1803
  446THF    H13 7238   2.075   1.277   0.449 -1.2530 -1.5717 -1.3765
  447THF     O1 7239   3.229   3.811   4.484  0.5363 -0.0305 -0.3085
  447THF     C2 7240   3.278   3.901   4.384  0.7180 -0.2746  0.3607
  447THF     C3 7241   3.176   3.691   4.416 -0.1223  0.5938  0.7325
  447THF     H4 7242   3.360   3.956   4.428  0.0749 -1.7708  3.7597
  447THF     H5 7243   3.196   3.956   4.337  0.8774  0.2072  0.6443
  447THF     H6 7244   3.137   3.610   4.479 -2.2869  1.3491  0.4618
  447THF     H7 7245   3.094   3.719   4.349 -0.1602 -2.1107 -0.4950
  447THF     C8 7246   3.299   3.672   4.337 -0.1486 -0.3613  0.0011
  447THF     C9 7247   3.332   3.806   4.276  0.2036  0.1087 -0.1050
  447THF    H10 7248   3.276   3.595   4.264 -0.6408 -1.5172  1.3195
  447THF    H11 7249   3.377   3.639   4.405 -1.8302 -0.0601  2.2014
  447THF    H12 7250   3.438   3.817   4.254  0.0490  1.0594 -0.3753
  447THF    H13 7251   3.277   3.820   4.184  2.0674  2.5016 -0.9548
  448THF     O1 7252   2.317   2.710   2.083  0.1482  0.4935 -0.1317
  448THF     C2 7253   2.451   2.660   2.071 -0.3224 -0.1996  0.1517
  448THF     C3 7254   2.243   2.607   2.145  0.0261 -0.3342 -0.5714
  448THF     H4 7255   2.523   2.740   2.089  0.3645 -1.3035  2.7398
  448THF     H5 7256   2.472   2.626   1.969 -0.6637 -0.8240  0.2851
  448THF     H6 7257   2.140   2.629   2.171 -0.3815 -1.2800 -1.2903
  448THF     H7 7258   2.228   2.532   2.067  0.3924 -1.1644  0.1315
  448THF     C8 7259   2.331   2.545   2.252 -0.1379  0.2651 -0.2261
  448THF     C9 7260   2.468   2.551   2.178 -0.3306 -0.1188  0.2281
  448THF    H10 7261   2.291   2.452   2.293  0.9402  0.1726  0.6750
  448THF    H11 7262   2.338   2.613   2.337  0.8137  1.4961 -1.2541
  448THF    H12 7263   2.556   2.564   2.241 -0.3861 -2.9452  1.0183
  448THF    H13 7264   2.484   2.464   2.114  0.3972  0.6371 -0.6581
  449THF     O1 7265   5.436   0.106   2.982  0.1088 -0.3766  0.1627
  449THF     C2 7266   5.330   0.079   3.071 -0.1062 -0.3939  0.4727
  449THF     C3 7267   5.389   0.107   2.846  0.2549  0.6250  0.1840
  449THF     H4 7268   5.254   0.157   3.077 -0.0481 -0.3806  1.0394
  449THF     H5 7269   5.371   0.061   3.170  2.5668  2.3775 -0.0119
  449THF     H6 7270   5.340   0.201   2.822 -1.9519  0.1368  2.3769
  449THF     H7 7271   5.462   0.082   2.768 -0.2992 -3.5888  0.8228
  449THF     C8 7272   5.302  -0.019   2.851  0.0063  0.1337 -0.4313
  449THF     C9 7273   5.278  -0.043   3.001  0.2804 -0.0681  0.8985
  449THF    H10 7274   5.363  -0.098   2.807 -0.2390 -1.7416  2.3864
  449THF    H11 7275   5.217   0.006   2.787  1.5114 -1.4795 -3.2835
  449THF    H12 7276   5.170  -0.052   3.008  0.0776  1.5885  0.2919
  449THF    H13 7277   5.334  -0.131   3.033 -0.0042 -0.8289 -0.6326
  450THF     O1 7278   0.554   1.898   0.683  0.3988 -0.3294  0.5045
  450THF     C2 7279   0.452   1.997   0.687 -0.4771 -0.2979 -0.6090
  450THF     C3 7280   0.630   1.909   0.566 -0.0005  0.6366 -0.1179
  450THF     H4 7281   0.485   2.078   0.752  3.9327 -1.6669 -0.8197
  450THF     H5 7282   0.358   1.963   0.730 -1.6186  0.4617 -2.3960
  450THF     H6 7283   0.731   1.931   0.601  0.4970  1.7242 -2.1158
  450THF     H7 7284   0.625   1.820   0.503  1.3705 -0.6513  1.4832
  450THF     C8 7285   0.569   2.022   0.480  0.0509  0.4932 -0.1959
  450THF     C9 7286   0.441   2.055   0.551 -0.3706  0.2339  0.4910
  450THF    H10 7287   0.557   2.004   0.373 -0.4223 -0.0310 -0.0603
  450THF    H11 7288   0.641   2.104   0.483  1.5472 -0.7486 -0.5299
  450THF    H12 7289   0.425   2.163   0.545  1.7431  0.5708  0.0134
  450THF    H13 7290   0.357   2.001   0.508  0.5835 -0.5345 -0.4530
  451THF     O1 7291   0.751   4.784   3.925  0.0488 -0.2884  0.5765
  451THF     C2 7292   0.714   4.722   3.803 -0.7726  0.0050  0.6879
  451THF     C3 7293   0.781   4.684   4.020 -0.0432  0.1236  0.5101
  451THF     H4 7294   0.795   4.695   3.735 -0.1724 -1.0525  1.7878
  451THF     H5 7295   0.655   4.793   3.745 -0.6966 -1.0385 -0.7198
  451THF     H6 7296   0.870   4.627   3.995 -0.9164 -1.3062  0.5612
  451THF     H7 7297   0.778   4.740   4.114 -0.2731  0.6782  0.1766
  451THF     C8 7298   0.666   4.588   4.007  0.1603  0.7135 -0.7894
  451THF     C9 7299   0.638   4.600   3.855  0.3146  0.1371  0.1163
  451THF    H10 7300   0.574   4.611   4.060  0.1721 -0.3524 -0.2732
  451THF    H11 7301   0.702   4.491   4.042  1.8300  1.2759 -0.8316
  451THF    H12 7302   0.660   4.507   3.803 -1.3988 -1.3945  1.9475
  451THF    H13 7303   0.529   4.606   3.845  0.4084  0.6652 -0.7115
  452THF     O1 7304   1.985   1.824   2.981 -0.3071 -0.0910  0.2880
  452THF     C2 7305   2.073   1.732   2.916 -0.2075  0.0374 -0.1137
  452THF     C3 7306   1.997   1.957   2.933  0.7734  0.4284  0.7960
  452THF     H4 7307   2.031   1.632   2.927  1.1585 -0.3132  2.7217
  452THF     H5 7308   2.174   1.733   2.957 -0.4000 -0.5156  0.3887
  452THF     H6 7309   1.920   2.028   2.962  0.6498  0.4811  0.3452
  452THF     H7 7310   2.094   1.999   2.962  0.1174  2.0293  0.8003
  452THF     C8 7311   2.007   1.928   2.779 -0.0527 -1.0449  0.2688
  452THF     C9 7312   2.062   1.781   2.774  0.0426 -0.8564  0.0946
  452THF    H10 7313   2.071   1.999   2.727 -1.9333  0.4774 -0.0501
  452THF    H11 7314   1.903   1.924   2.746  0.2212 -2.5512 -0.5364
  452THF    H12 7315   1.990   1.712   2.730 -0.7022 -0.9049  1.3282
  452THF    H13 7316   2.155   1.763   2.722 -0.6596 -1.9600 -0.8123
  453THF     O1 7317   3.195   4.770   4.130  0.0689  0.6534 -0.8392
  453THF     C2 7318   3.274   4.771   4.256 -0.4588 -0.3568 -0.0407
  453THF     C3 7319   3.053   4.767   4.166  0.0715  0.4016  0.1066
  453THF     H4 7320   3.368   4.825   4.240 -1.0491  0.4747 -0.8351
  453THF     H5 7321   3.284   4.669   4.291  2.9715  0.2278  1.0695
  453THF     H6 7322   2.986   4.804   4.088 -0.3522  2.2827  1.2904
  453THF     H7 7323   3.021   4.668   4.198 -1.1379  0.0903 -1.8937
  453THF     C8 7324   3.049   4.852   4.287  0.0119  0.3225  0.1339
  453THF     C9 7325   3.184   4.842   4.353 -0.7684 -0.5973 -0.8162
  453THF    H10 7326   2.970   4.824   4.357  1.5396  1.9329  2.7015
  453THF    H11 7327   3.020   4.954   4.264 -0.5436  0.8519  2.7592
  453THF    H12 7328   3.225   4.940   4.377 -2.5760 -0.3004  1.2950
  453THF    H13 7329   3.180   4.796   4.452 -0.9508  3.3210  1.1701
  454THF     O1 7330   4.378   4.624   3.788  0.2667 -0.2059  0.2700
  454THF     C2 7331   4.269   4.605   3.881 -0.0767  0.3406  0.6990
  454THF     C3 7332   4.377   4.530   3.678  0.2509 -0.2224  0.3580
  454THF     H4 7333   4.199   4.685   3.859 -0.9168 -1.4024 -4.2888
  454THF     H5 7334   4.315   4.608   3.980  2.3713 -3.0998 -0.1354
  454THF     H6 7335   4.298   4.561   3.610 -0.7459 -2.0471  0.6149
  454THF     H7 7336   4.475   4.519   3.632  1.0978 -0.8365  2.2229
  454THF     C8 7337   4.317   4.408   3.753 -0.9149  0.3577  0.1802
  454THF     C9 7338   4.211   4.463   3.848  0.0248  0.0152 -0.0785
  454THF    H10 7339   4.396   4.365   3.814  0.2015  0.6759 -1.0111
  454THF    H11 7340   4.286   4.327   3.687 -0.5509 -0.4481  0.9670
  454THF    H12 7341   4.116   4.459   3.795 -0.1744  0.5368  0.2297
  454THF    H13 7342   4.194   4.396   3.932 -0.6148  0.4968  0.1848
  455THF     O1 7343   0.036   1.863   0.280 -0.5049 -0.4386  0.1026
  455THF     C2 7344  -0.020   1.735   0.237 -0.6822  0.1626  0.3209
  455THF     C3 7345  -0.065   1.944   0.345 -0.4532  0.8675 -0.0725
  455THF     H4 7346   0.017   1.644   0.286 -2.0136 -0.4520  0.2500
  455THF     H5 7347  -0.015   1.728   0.128  1.0613  0.2075  0.3734
  455THF     H6 7348  -0.078   1.907   0.446 -1.7375  3.0506  0.6264
  455THF     H7 7349  -0.046   2.051   0.346  1.9877  0.5685 -2.1464
  455THF     C8 7350  -0.188   1.902   0.273 -0.1070 -0.3276  0.2568
  455THF     C9 7351  -0.166   1.753   0.264 -0.1575 -0.7897 -0.2702
  455THF    H10 7352  -0.203   1.945   0.174 -4.1410  2.7636  1.9067
  455THF    H11 7353  -0.275   1.931   0.333 -2.0236  2.4905 -3.4556
  455THF    H12 7354  -0.194   1.689   0.348  0.8566 -1.3056 -0.3009
  455THF    H13 7355  -0.230   1.717   0.183 -1.5983  2.2292 -0.5948
  456THF     O1 7356   1.983   2.781   3.535 -0.0215  0.5935 -0.5235
  456THF     C2 7357   1.866   2.689   3.535 -0.1283  0.4659  0.1440
  456THF     C3 7358   2.020   2.821   3.403 -0.1691  0.5626 -0.5398
  456THF     H4 7359   1.810   2.694   3.628 -0.9975 -2.3030 -0.1266
  456THF     H5 7360   1.910   2.589   3.525 -2.0300 -0.2923 -1.4431
  456THF     H6 7361   2.022   2.930   3.399  0.8955  0.7283  1.9473
  456THF     H7 7362   2.120   2.786   3.375 -0.6393  0.5979 -2.3797
  456THF     C8 7363   1.919   2.755   3.312  0.6621 -0.2358  0.8142
  456THF     C9 7364   1.803   2.730   3.403 -0.5606 -0.1492 -0.0299
  456THF    H10 7365   1.949   2.658   3.272 -0.8565 -0.7263  0.7743
  456THF    H11 7366   1.884   2.824   3.235 -1.2955  0.5147  2.2789
  456THF    H12 7367   1.754   2.827   3.414  1.9376  1.1507  0.3727
  456THF    H13 7368   1.741   2.662   3.345 -0.2488 -0.1593 -0.3576
  457THF     O1 7369   3.244   3.717   0.837 -0.5338  0.3033  0.1254
  457THF     C2 7370   3.353   3.802   0.798 -0.0968  0.5499  0.2372
  457THF     C3 7371   3.287   3.600   0.904 -0.1095  0.4432  0.1055
  457THF     H4 7372   3.323   3.905   0.778 -1.3394 -0.1450 -1.7637
  457THF     H5 7373   3.404   3.757   0.713  1.2129  0.2321  1.1589
  457THF     H6 7374   3.214   3.563   0.976 -0.8863  0.9166 -0.4149
  457THF     H7 7375   3.312   3.526   0.828  2.4302  1.3510 -0.0390
  457THF     C8 7376   3.415   3.641   0.972 -0.6158 -0.6596 -0.0350
  457THF     C9 7377   3.443   3.784   0.924  0.8460  0.3871  0.1466
  457THF    H10 7378   3.499   3.572   0.963 -1.3569 -1.7441  1.0525
  457THF    H11 7379   3.405   3.638   1.080 -1.1032 -1.6981 -0.0973
  457THF    H12 7380   3.417   3.862   0.996 -1.4087 -2.4974  2.7589
  457THF    H13 7381   3.548   3.786   0.897  1.1868  0.1186  1.4019
  458THF     O1 7382   5.493   3.077   0.310 -0.1697  0.5958 -0.4350
  458THF     C2 7383   5.403   3.183   0.328  0.3422  0.3063 -0.0108
  458THF     C3 7384   5.621   3.123   0.363 -0.2986  0.1639  0.0508
  458THF     H4 7385   5.308   3.131   0.339  0.3589  0.1995 -0.3892
  458THF     H5 7386   5.417   3.243   0.238 -0.1248  0.6183  0.1198
  458THF     H6 7387   5.675   3.028   0.370 -0.8791 -0.0567  2.6790
  458THF     H7 7388   5.664   3.189   0.287  1.7982 -0.6684  0.4637
  458THF     C8 7389   5.589   3.190   0.494  0.5575 -0.1801  0.7083
  458THF     C9 7390   5.447   3.251   0.460  0.1621 -0.2259 -0.7947
  458THF    H10 7391   5.639   3.284   0.519 -1.7700  0.8723  1.7635
  458THF    H11 7392   5.584   3.120   0.577 -1.5554 -0.5401  0.3291
  458THF    H12 7393   5.369   3.237   0.535  1.1173  0.2569  0.3210
  458THF    H13 7394   5.460   3.357   0.437 -1.2869  0.3131  0.6414
  459THF     O1 7395   1.302   3.233   4.174  0.3638 -0.1493  0.3300
  459THF     C2 7396   1.285   3.264   4.310  0.0162 -0.8986 -0.4972
  459THF     C3 7397   1.397   3.132   4.153  0.1433  0.7440 -1.3137
  459THF     H4 7398   1.199   3.205   4.341 -0.4299 -0.9918 -1.8204
  459THF     H5 7399   1.254   3.368   4.322 -0.7278 -0.8583 -2.4262
  459THF     H6 7400   1.347   3.041   4.186 -0.2098  1.6250  0.7261
  459THF     H7 7401   1.442   3.136   4.053  0.1166  0.6872 -1.3281
  459THF     C8 7402   1.498   3.165   4.264  0.0543 -0.6327 -0.0755
  459THF     C9 7403   1.412   3.228   4.375 -0.5325  0.8283 -0.2391
  459THF    H10 7404   1.571   3.235   4.223 -0.7250 -0.9911 -2.1974
  459THF    H11 7405   1.562   3.083   4.295  0.1083 -0.6615 -0.2614
  459THF    H12 7406   1.395   3.158   4.457  0.8214  0.0385 -0.5897
  459THF    H13 7407   1.451   3.315   4.428  0.5941  0.7593 -0.9123
  460THF     O1 7408   0.921   2.153   3.536  0.3722  0.1619  0.0477
  460THF     C2 7409   0.784   2.138   3.544 -0.1158  0.2194 -0.2674
  460THF     C3 7410   0.950   2.282   3.492 -0.5350 -0.6297 -0.4137
  460THF     H4 7411   0.749   2.195   3.630 -0.4546 -1.0623  0.4642
  460THF     H5 7412   0.743   2.037   3.543 -3.0266  1.2828  1.2933
  460THF     H6 7413   0.935   2.360   3.567 -2.0775  1.6800 -2.9163
  460THF     H7 7414   1.049   2.292   3.447 -0.5465  0.0175 -0.3035
  460THF     C8 7415   0.840   2.315   3.385 -0.5564  0.2623 -0.2900
  460THF     C9 7416   0.737   2.208   3.419  0.3989 -0.4560 -0.0535
  460THF    H10 7417   0.871   2.312   3.281 -1.1498  0.9411 -0.4938
  460THF    H11 7418   0.814   2.421   3.394  1.8116  0.9417 -0.5760
  460THF    H12 7419   0.637   2.247   3.438  0.9010  0.7516  0.1949
  460THF    H13 7420   0.731   2.137   3.336  0.6695  2.1170 -2.4270
  461THF     O1 7421   3.674   4.771   5.166  0.2117 -0.2855 -0.0231
  461THF     C2 7422   3.809   4.810   5.195  0.7951  0.1274 -0.3586
  461THF     C3 7423   3.633   4.702   5.277 -0.5515 -0.0703 -0.2907
  461THF     H4 7424   3.835   4.899   5.138 -1.5100  1.2286  0.1768
  461THF     H5 7425   3.875   4.726   5.177 -0.5812 -1.3994  1.3134
  461THF     H6 7426   3.524   4.698   5.287 -0.9532  1.8254 -2.8697
  461THF     H7 7427   3.673   4.601   5.270 -0.4177 -0.4798  3.9145
  461THF     C8 7428   3.691   4.774   5.397 -0.2964 -0.4125 -0.1985
  461THF     C9 7429   3.815   4.838   5.340 -0.1876 -0.1092 -0.2914
  461THF    H10 7430   3.715   4.701   5.473 -0.3025  0.3617  0.5610
  461THF    H11 7431   3.626   4.850   5.440 -1.1051 -1.0655 -0.2578
  461THF    H12 7432   3.826   4.942   5.372 -0.8708  0.3400 -1.4472
  461THF    H13 7433   3.896   4.780   5.384 -0.4341  0.0426  0.3711
  462THF     O1 7434   0.119   1.260   5.330 -0.5895  0.3980  1.0955
  462THF     C2 7435   0.189   1.263   5.212 -0.2470 -0.3551 -0.0030
  462THF     C3 7436   0.201   1.292   5.441 -0.0141 -0.0827  0.7657
  462THF     H4 7437   0.128   1.301   5.130 -1.8529 -3.2801 -0.2820
  462THF     H5 7438   0.214   1.162   5.180  2.0277  0.1005  0.1960
  462THF     H6 7439   0.169   1.382   5.494  0.1421 -0.6576  1.8610
  462THF     H7 7440   0.189   1.204   5.504 -0.4671 -1.6274 -1.3523
  462THF     C8 7441   0.344   1.316   5.385  0.2478 -0.2972 -0.1213
  462THF     C9 7442   0.313   1.341   5.240 -0.6919 -0.3869  0.2985
  462THF    H10 7443   0.400   1.223   5.397 -0.1600 -0.5864 -0.3983
  462THF    H11 7444   0.404   1.386   5.442 -0.6497  1.1005 -0.8562
  462THF    H12 7445   0.283   1.444   5.220  1.5400  0.1246 -0.6698
  462THF    H13 7446   0.390   1.323   5.166 -0.7925 -3.5710  0.8413
  463THF     O1 7447   4.863   1.532   1.077  0.4144  0.9081  0.3579
  463THF     C2 7448   4.944   1.619   1.009  0.1406  0.0064  0.4205
  463THF     C3 7449   4.861   1.549   1.212  0.2935 -0.8011 -0.7193
  463THF     H4 7450   4.898   1.640   0.912 -0.9094  0.4611  0.9986
  463THF     H5 7451   5.043   1.576   1.000  0.1740 -0.5388  2.7597
  463THF     H6 7452   4.766   1.534   1.262 -0.2006  2.1866 -0.5695
  463THF     H7 7453   4.939   1.488   1.257  0.0053 -1.4682 -1.0939
  463THF     C8 7454   4.884   1.697   1.221  0.0841 -0.6005 -0.3009
  463THF     C9 7455   4.938   1.747   1.090 -0.2330  0.5306 -0.0705
  463THF    H10 7456   4.960   1.722   1.296  0.8616 -0.9622 -0.9514
  463THF    H11 7457   4.802   1.754   1.264 -1.8697 -2.5664 -1.1975
  463THF    H12 7458   4.859   1.803   1.039 -0.5951  0.1357  0.0519
  463THF    H13 7459   5.036   1.794   1.098 -0.3605  0.5817  1.2976
  464THF     O1 7460   3.883   2.325   1.894  0.2474  0.3241 -0.0700
  464THF     C2 7461   3.786   2.328   1.996  0.3662 -0.4799 -0.1559
  464THF     C3 7462   3.939   2.197   1.882  0.2674 -0.2203  0.2634
  464THF     H4 7463   3.700   2.390   1.972  0.7155  0.1618  0.2057
  464THF     H5 7464   3.827   2.370   2.088 -2.4917 -1.6892  1.8027
  464THF     H6 7465   3.995   2.193   1.789  1.2875  2.5405  0.6503
  464THF     H7 7466   4.023   2.179   1.949  1.8605 -4.0673 -2.4080
  464THF     C8 7467   3.826   2.109   1.911 -0.2126  0.9526  0.5339
  464THF     C9 7468   3.758   2.180   2.023 -1.4602 -0.2819  0.2244
  464THF    H10 7469   3.862   2.012   1.945 -1.2480  0.0290 -0.8653
  464THF    H11 7470   3.778   2.086   1.816 -0.9943 -3.8434  1.8028
  464THF    H12 7471   3.653   2.163   2.045 -1.3975 -3.3317 -1.2180
  464THF    H13 7472   3.807   2.153   2.116  0.3231  0.3978 -0.4642
  465THF     O1 7473   4.361   3.218   0.380  0.4265  0.4232  0.5275
  465THF     C2 7474   4.359   3.088   0.320 -0.3196 -0.4188 -0.6626
  465THF     C3 7475   4.493   3.266   0.399  0.4142  0.8083 -0.9687
  465THF     H4 7476   4.266   3.075   0.265 -1.7877  0.0544  1.5818
  465THF     H5 7477   4.366   3.006   0.391  1.1599 -1.0492 -1.4919
  465THF     H6 7478   4.489   3.375   0.397  1.8563  0.8964 -0.5415
  465THF     H7 7479   4.545   3.221   0.483 -0.8125  1.0385 -0.0679
  465THF     C8 7480   4.563   3.205   0.267  1.1495 -0.4745 -1.0364
  465THF     C9 7481   4.480   3.087   0.219  0.2733  0.8458 -0.7780
  465THF    H10 7482   4.663   3.162   0.280  1.2041 -0.0143  0.1985
  465THF    H11 7483   4.571   3.275   0.184 -0.7739  2.2498  0.9107
  465THF    H12 7484   4.439   3.101   0.119 -0.7495  0.0237 -0.4917
  465THF    H13 7485   4.520   2.987   0.232  0.2061  0.7982 -0.9444
  466THF     O1 7486   1.036   2.407   5.132  0.1174  0.3834  0.1022
  466THF     C2 7487   1.137   2.322   5.075  0.1718 -0.2469 -0.2098
  466THF     C3 7488   1.061   2.436   5.272  1.2293 -0.1265  0.5781
  466THF     H4 7489   1.146   2.347   4.969  2.9505  0.1637  0.0401
  466THF     H5 7490   1.103   2.220   5.091 -0.9561  0.2081  0.4342
  466THF     H6 7491   1.021   2.530   5.310  0.6401 -0.8215  1.7579
  466THF     H7 7492   1.003   2.358   5.322  2.1389 -0.8666  0.5010
  466THF     C8 7493   1.211   2.411   5.284  0.3280  0.0887 -0.1756
  466THF     C9 7494   1.261   2.358   5.150  0.3236 -0.6848 -0.0464
  466THF    H10 7495   1.234   2.336   5.360  0.4978  0.7806  0.4726
  466THF    H11 7496   1.266   2.503   5.305  0.8481  0.5603 -3.1300
  466THF    H12 7497   1.312   2.441   5.101 -0.2327  0.5494  1.3658
  466THF    H13 7498   1.344   2.287   5.157 -0.9594 -2.4286 -1.6780
  467THF     O1 7499   2.689   2.106   3.087 -0.1650 -0.2168  0.5176
  467THF     C2 7500   2.768   2.054   3.192  0.6344  0.6299 -0.3958
  467THF     C3 7501   2.584   2.186   3.137  0.1481 -0.4788 -0.1728
  467THF     H4 7502   2.834   2.136   3.222 -0.8744  2.6904 -2.3032
  467THF     H5 7503   2.829   1.970   3.160 -1.1589 -1.5840  1.5861
  467THF     H6 7504   2.612   2.291   3.133 -0.5297 -0.2629  0.5082
  467THF     H7 7505   2.493   2.176   3.077  0.7699 -0.9826 -1.0645
  467THF     C8 7506   2.556   2.140   3.282  0.7046 -0.5985  0.0244
  467THF     C9 7507   2.656   2.026   3.295 -0.2928  0.2483  0.1217
  467THF    H10 7508   2.453   2.107   3.299  0.6681  0.4259  2.2391
  467THF    H11 7509   2.573   2.221   3.354  0.2009 -1.7183  1.4578
  467THF    H12 7510   2.691   2.025   3.398 -1.8383 -1.8553  0.6742
  467THF    H13 7511   2.594   1.938   3.280  0.6017 -0.2684 -0.6586
  468THF     O1 7512   5.396   4.387   3.078  1.1439 -0.3325 -0.4001
  468THF     C2 7513   5.513   4.312   3.072  0.4259  0.1855 -0.1915
  468THF     C3 7514   5.372   4.407   3.216 -0.9269 -0.3807 -0.5416
  468THF     H4 7515   5.595   4.380   3.096 -1.2492  1.4573  2.3798
  468THF     H5 7516   5.531   4.259   2.979 -0.9001  0.8183 -0.8269
  468THF     H6 7517   5.437   4.486   3.253  0.8373 -2.5747  1.3632
  468THF     H7 7518   5.273   4.435   3.252  0.4437  1.0462  2.4498
  468THF     C8 7519   5.409   4.282   3.293 -0.3084  1.2907 -0.8106
  468THF     C9 7520   5.500   4.211   3.189  0.0990  0.3255 -0.2591
  468THF    H10 7521   5.330   4.208   3.310  2.9434 -2.3970 -0.1297
  468THF    H11 7522   5.466   4.313   3.381  0.9078 -1.9077 -0.3129
  468THF    H12 7523   5.601   4.194   3.225  0.1476  1.3801  0.1566
  468THF    H13 7524   5.460   4.114   3.159 -2.5543  0.7252  1.5507
  469THF     O1 7525   3.790   0.385   3.505  0.5458  0.0352 -0.2179
  469THF     C2 7526   3.669   0.452   3.505  0.1180 -0.0817  0.2022
  469THF     C3 7527   3.768   0.258   3.461  0.0959  0.1599 -0.6269
  469THF     H4 7528   3.641   0.477   3.403 -1.8919 -1.5127  0.3374
  469THF     H5 7529   3.669   0.549   3.554  0.6833 -0.4660  0.9920
  469THF     H6 7530   3.764   0.265   3.353 -0.3080  0.6262 -0.5862
  469THF     H7 7531   3.856   0.199   3.490 -0.9605 -0.5175  1.4318
  469THF     C8 7532   3.641   0.210   3.532  0.2759 -0.1120 -0.0354
  469THF     C9 7533   3.582   0.346   3.569 -0.8620 -0.3894 -0.6935
  469THF    H10 7534   3.671   0.144   3.613 -0.9087  0.4507  0.8731
  469THF    H11 7535   3.589   0.151   3.456 -0.9011  0.7066  0.1235
  469THF    H12 7536   3.482   0.345   3.525 -0.5547 -0.7716 -1.4137
  469THF    H13 7537   3.590   0.362   3.676  0.9132 -1.7385 -0.5862
  470THF     O1 7538   3.112   0.650   1.465 -0.0072 -0.5965 -0.5799
  470THF     C2 7539   3.152   0.622   1.600  0.1183  0.5553  0.1109
  470THF     C3 7540   3.224   0.689   1.390 -0.2349 -0.4557  0.6405
  470THF     H4 7541   3.209   0.530   1.612  0.3263  0.4751 -1.3512
  470THF     H5 7542   3.063   0.617   1.662 -1.2644 -0.6009 -1.8797
  470THF     H6 7543   3.267   0.595   1.355  0.9117 -0.5228  2.1252
  470THF     H7 7544   3.206   0.759   1.309  3.3316 -0.0591  0.0261
  470THF     C8 7545   3.321   0.741   1.498 -0.0582  0.2941 -0.0066
  470THF     C9 7546   3.242   0.744   1.627 -0.0377  0.7933  0.1607
  470THF    H10 7547   3.357   0.839   1.466  3.1094 -1.0043 -0.7690
  470THF    H11 7548   3.412   0.681   1.497 -0.3439 -0.3546 -3.9563
  470THF    H12 7549   3.298   0.727   1.719 -0.1577  0.8890  0.2509
  470THF    H13 7550   3.180   0.834   1.630 -1.3118 -0.0661  0.1292
  471THF     O1 7551   2.492   5.245   0.669  0.1947 -0.2270  0.4700
  471THF     C2 7552   2.595   5.206   0.759 -0.2099 -0.5376  0.1252
  471THF     C3 7553   2.362   5.195   0.709  0.0505  0.2102 -0.3998
  471THF     H4 7554   2.629   5.297   0.807 -1.1644  0.1014 -0.3899
  471THF     H5 7555   2.679   5.162   0.706  1.9373  2.2403  1.0186
  471THF     H6 7556   2.302   5.263   0.770 -1.4915 -2.3541  1.1443
  471THF     H7 7557   2.307   5.176   0.617  0.5988  0.1320 -0.7124
  471THF     C8 7558   2.395   5.064   0.787  0.4136 -0.7154 -0.5350
  471THF     C9 7559   2.525   5.101   0.848  0.1351  0.5137 -0.2488
  471THF    H10 7560   2.408   4.975   0.726  0.5211 -0.6242 -0.6444
  471THF    H11 7561   2.318   5.040   0.860 -1.1529 -0.5985 -2.1081
  471THF    H12 7562   2.509   5.152   0.943  1.2058  0.0890  0.1804
  471THF    H13 7563   2.588   5.013   0.865  0.5892  1.2676  2.5953
  472THF     O1 7564   3.793   0.155   3.071  0.5956 -0.2106  0.0304
  472THF     C2 7565   3.805   0.115   2.933 -0.2427 -0.0435  0.2782
  472THF     C3 7566   3.896   0.078   3.134 -0.0621 -0.4700 -0.1534
  472THF     H4 7567   3.755   0.181   2.862 -0.4981  0.1260  0.6127
  472THF     H5 7568   3.752   0.020   2.932  0.1082 -0.3838  3.2513
  472THF     H6 7569   3.907   0.133   3.228  0.5465 -0.5874 -0.1494
  472THF     H7 7570   3.854  -0.019   3.159 -2.7699  1.2566  2.6281
  472THF     C8 7571   4.019   0.089   3.040 -0.2274 -0.0231  0.3959
  472THF     C9 7572   3.957   0.101   2.907 -0.3837  1.0950  0.9279
  472THF    H10 7573   4.094   0.011   3.041 -0.1488  0.0538  1.0031
  472THF    H11 7574   4.080   0.177   3.062 -0.1310 -0.1710  0.7113
  472THF    H12 7575   4.002   0.188   2.859  0.4409  0.4670  0.5447
  472THF    H13 7576   3.989   0.026   2.835 -0.0599  2.6438 -0.5993
  473THF     O1 7577   2.447   4.765   5.297  0.7058 -0.1579 -0.2867
  473THF     C2 7578   2.389   4.656   5.369  0.3353  0.0247  0.5318
  473THF     C3 7579   2.345   4.865   5.308 -1.2279  0.6923 -0.7855
  473THF     H4 7580   2.468   4.586   5.395  1.5225  1.3391  0.5462
  473THF     H5 7581   2.318   4.600   5.308  0.2712 -1.0802  1.5803
  473THF     H6 7582   2.370   4.968   5.281  0.0243  0.6811  0.2317
  473THF     H7 7583   2.253   4.836   5.256 -2.3164  1.1215  0.8296
  473THF     C8 7584   2.317   4.875   5.458  0.2222  0.9940 -0.1478
  473THF     C9 7585   2.337   4.728   5.496 -0.0122  0.0503  0.0436
  473THF    H10 7586   2.215   4.909   5.475  0.5332  1.2970  1.2771
  473THF    H11 7587   2.381   4.940   5.518 -0.1326 -0.4314  1.8710
  473THF    H12 7588   2.404   4.715   5.581 -1.1145 -3.5802  0.5303
  473THF    H13 7589   2.247   4.682   5.538 -0.1484  0.6443  0.4058
  474THF     O1 7590   1.583   0.783   0.329 -0.5053  0.1361  0.0521
  474THF     C2 7591   1.643   0.743   0.212  0.0333 -0.2738 -0.1502
  474THF     C3 7592   1.502   0.905   0.311  0.1644  0.2899 -0.7603
  474THF     H4 7593   1.573   0.696   0.144 -2.8025  1.2621  1.5125
  474THF     H5 7594   1.727   0.674   0.219 -0.3444 -0.7964 -0.6938
  474THF     H6 7595   1.397   0.877   0.320  0.2691  0.4333  1.4142
  474THF     H7 7596   1.520   0.969   0.397  1.9725 -0.9796 -0.1291
  474THF     C8 7597   1.563   0.969   0.189  0.3135 -0.5211  0.3685
  474THF     C9 7598   1.689   0.886   0.166  0.5064 -0.1668 -0.7075
  474THF    H10 7599   1.584   1.076   0.193  1.6857 -0.6043 -2.4514
  474THF    H11 7600   1.510   0.942   0.098 -1.2417  2.2390  0.3534
  474THF    H12 7601   1.707   0.895   0.059  0.9908  2.6411 -0.4781
  474THF    H13 7602   1.777   0.921   0.218  0.2615  1.1021 -1.1006
  475THF     O1 7603   0.909   3.801   3.674 -0.1695 -0.4507  0.4994
  475THF     C2 7604   1.003   3.879   3.601  0.2238  0.3793 -0.7102
  475THF     C3 7605   0.834   3.880   3.755 -0.0121  0.0091 -0.4083
  475THF     H4 7606   0.957   3.910   3.506 -0.5959 -1.1485 -0.8413
  475THF     H5 7607   1.092   3.828   3.565  0.7546 -0.5587  1.7604
  475THF     H6 7608   0.729   3.887   3.728 -0.0330  1.0759 -0.1011
  475THF     H7 7609   0.841   3.830   3.852  1.9832  1.2635  0.1664
  475THF     C8 7610   0.917   4.015   3.769  0.4706 -0.7717  0.2174
  475THF     C9 7611   1.042   3.989   3.704  0.5890 -0.0730  0.0056
  475THF    H10 7612   0.946   4.053   3.867  0.6550  2.6776 -1.0668
  475THF    H11 7613   0.874   4.096   3.710 -1.3235 -1.8921 -0.1177
  475THF    H12 7614   1.100   4.072   3.664  0.9772 -0.2442  0.2113
  475THF    H13 7615   1.104   3.958   3.789 -0.5249  1.6826  1.5446
  476THF     O1 7616   3.258   2.456   3.332 -0.8799  0.2690 -0.1581
  476THF     C2 7617   3.343   2.569   3.375  0.1020 -0.5099  0.4713
  476THF     C3 7618   3.305   2.335   3.398 -0.4447 -0.5344  0.3462
  476THF     H4 7619   3.290   2.645   3.431 -1.5661 -1.9348  0.9414
  476THF     H5 7620   3.384   2.615   3.285 -1.2020  0.2485  0.2304
  476THF     H6 7621   3.252   2.321   3.492 -0.7204  2.2858  0.7096
  476THF     H7 7622   3.295   2.240   3.345  1.1995 -1.1207  0.9991
  476THF     C8 7623   3.451   2.365   3.429 -0.7574 -0.2987  0.2305
  476THF     C9 7624   3.459   2.509   3.458 -0.5916  0.1837  0.3227
  476THF    H10 7625   3.504   2.334   3.338  0.0111  0.8107  0.2826
  476THF    H11 7626   3.496   2.307   3.510  1.1652  1.4557  0.4883
  476THF    H12 7627   3.448   2.528   3.565 -1.1346 -0.5248  0.3912
  476THF    H13 7628   3.557   2.555   3.441  0.0343 -1.0336  0.5084
  477THF     O1 7629   2.873   4.552   2.690 -0.7050 -0.6195 -0.1009
  477THF     C2 7630   2.960   4.642   2.626  0.0846  0.3779  0.0447
  477THF     C3 7631   2.754   4.542   2.616 -0.2821 -0.3047 -0.4481
  477THF     H4 7632   3.061   4.619   2.659  0.0372 -0.0214 -0.0933
  477THF     H5 7633   2.943   4.748   2.650 -2.0846  0.7451 -2.6350
  477THF     H6 7634   2.705   4.449   2.643 -1.7480  0.8713  1.2069
  477THF     H7 7635   2.681   4.620   2.640  0.1474  0.2583 -0.9669
  477THF     C8 7636   2.796   4.559   2.474  0.5412  0.5120 -0.4576
  477THF     C9 7637   2.931   4.618   2.479  0.2339  0.2287  0.5293
  477THF    H10 7638   2.724   4.619   2.418  0.4089  1.5383  0.7685
  477THF    H11 7639   2.799   4.462   2.425 -0.5756  0.6380 -0.7906
  477THF    H12 7640   2.997   4.538   2.445 -1.6253 -1.1063 -0.0762
  477THF    H13 7641   2.951   4.703   2.414 -1.2467 -1.1824 -1.8892
  478THF     O1 7642   3.401   0.396   0.527 -0.5715 -0.3834 -0.0997
  478THF     C2 7643   3.282   0.475   0.544 -0.1907  0.2909 -0.2455
  478THF     C3 7644   3.413   0.330   0.653  0.2816 -0.0035 -0.3095
  478THF     H4 7645   3.234   0.502   0.450 -1.4932  2.0637  0.8671
  478THF     H5 7646   3.299   0.556   0.614  1.1801 -1.3663  1.4241
  478THF     H6 7647   3.490   0.253   0.655  1.4195  1.1152  0.1755
  478THF     H7 7648   3.445   0.392   0.737 -0.7381 -2.8511  2.3901
  478THF     C8 7649   3.277   0.266   0.673 -0.0438  0.2890 -0.5049
  478THF     C9 7650   3.187   0.370   0.606 -0.0452  0.5605  0.1480
  478THF    H10 7651   3.257   0.235   0.776  1.5597 -1.6280 -0.7050
  478THF    H11 7652   3.276   0.169   0.624  0.9736  0.0948 -0.1817
  478THF    H12 7653   3.140   0.322   0.520 -0.0084  1.4270 -0.3645
  478THF    H13 7654   3.102   0.412   0.659 -1.1803 -1.5197  0.1165
  479THF     O1 7655   2.397   4.145   3.303  0.0101  0.5885 -0.1891
  479THF     C2 7656   2.381   4.000   3.294  0.6871  0.7315 -0.5323
  479THF     C3 7657   2.269   4.204   3.263  0.2943 -0.4025  0.4275
  479THF     H4 7658   2.343   3.960   3.389 -0.5901 -0.0198 -1.3352
  479THF     H5 7659   2.467   3.937   3.270 -1.9224 -3.8612  0.8200
  479THF     H6 7660   2.200   4.223   3.345  0.9074  0.0106  0.8640
  479THF     H7 7661   2.298   4.306   3.235 -0.7806 -0.0574  0.5112
  479THF     C8 7662   2.214   4.112   3.163  0.0961 -0.0321  0.8424
  479THF     C9 7663   2.259   3.975   3.209 -0.2500  0.3241  0.1435
  479THF    H10 7664   2.261   4.144   3.070 -0.1230  0.3183  0.8492
  479THF    H11 7665   2.107   4.113   3.140  0.1280 -2.8402  0.1247
  479THF    H12 7666   2.184   3.927   3.271  0.2312 -0.0115  0.4794
  479THF    H13 7667   2.279   3.902   3.130  0.6848 -1.0813  1.6016
  480THF     O1 7668   0.410   1.642   3.306 -0.1995  0.2969  0.5604
  480THF     C2 7669   0.475   1.745   3.378  0.5284 -0.2623 -0.4478
  480THF     C3 7670   0.286   1.602   3.359  0.0116 -0.5295 -0.1653
  480THF     H4 7671   0.524   1.820   3.315  2.8197 -1.0096  0.3206
  480THF     H5 7672   0.553   1.700   3.440  0.3533 -0.0244 -0.0554
  480THF     H6 7673   0.204   1.624   3.290 -0.5165 -1.5926  0.0958
  480THF     H7 7674   0.275   1.493   3.365  0.6641 -0.5110  2.1909
  480THF     C8 7675   0.269   1.686   3.486 -0.3240  0.7430 -0.0523
  480THF     C9 7676   0.361   1.802   3.463 -0.3829 -0.4456  0.4300
  480THF    H10 7677   0.308   1.645   3.580  0.9287  0.8828 -0.4966
  480THF    H11 7678   0.163   1.709   3.497 -1.9479 -3.8566 -2.9061
  480THF    H12 7679   0.314   1.884   3.410 -3.3470  0.0279  3.4648
  480THF    H13 7680   0.403   1.835   3.558  1.1690  0.0870 -0.4118
  481THF     O1 7681   5.001   2.957   5.494 -0.1164  0.2236  0.0168
  481THF     C2 7682   5.010   2.833   5.569 -0.1218  0.2101 -0.3740
  481THF     C3 7683   4.997   3.064   5.581  0.3610  0.0664 -0.5610
  481THF     H4 7684   5.067   2.758   5.514  1.8978  2.2514 -1.2021
  481THF     H5 7685   4.913   2.795   5.600 -0.4005  0.9635 -0.2969
  481THF     H6 7686   5.022   3.156   5.530 -2.0847  2.0050  1.4424
  481THF     H7 7687   4.898   3.058   5.626  1.4940 -1.1196  2.0013
  481THF     C8 7688   5.107   3.029   5.680  0.2956  0.0934 -0.3410
  481THF     C9 7689   5.103   2.874   5.680  0.0190 -0.1264 -0.1694
  481THF    H10 7690   5.092   3.086   5.772 -1.1978  0.1427 -0.5765
  481THF    H11 7691   5.205   3.057   5.644 -0.6074  2.4452 -1.1555
  481THF    H12 7692   5.204   2.838   5.662  0.3692  1.1704 -0.9254
  481THF    H13 7693   5.076   2.828   5.775 -0.9655 -0.7522 -0.7402
  482THF     O1 7694   2.900   5.471   0.444 -0.7116  0.6245  0.1804
  482THF     C2 7695   2.786   5.436   0.525 -0.0911  0.0189  0.5767
  482THF     C3 7696   2.941   5.604   0.470 -0.2874 -0.2710 -0.0200
  482THF     H4 7697   2.826   5.401   0.620 -1.4781  3.0785  2.4739
  482THF     H5 7698   2.727   5.360   0.475  3.1064 -2.8724  0.8498
  482THF     H6 7699   2.996   5.606   0.564  1.9547  0.7398 -1.2698
  482THF     H7 7700   3.003   5.637   0.386 -0.9549  0.5823 -0.1890
  482THF     C8 7701   2.812   5.683   0.492 -0.1821  0.7396 -1.2122
  482THF     C9 7702   2.709   5.579   0.535  0.5952 -0.5411  0.1751
  482THF    H10 7703   2.764   5.736   0.409 -2.6250  1.8583  0.7566
  482THF    H11 7704   2.822   5.752   0.577 -1.0232 -0.8167  0.2117
  482THF    H12 7705   2.663   5.602   0.631 -1.0202 -1.1735 -0.4025
  482THF    H13 7706   2.630   5.582   0.460  0.7566  2.1121  0.0221
  483THF     O1 7707   2.728   5.269   3.746 -0.1254 -0.0294 -0.8466
  483THF     C2 7708   2.860   5.266   3.705 -0.2948 -0.2299 -0.1369
  483THF     C3 7709   2.710   5.158   3.837 -0.1440 -0.2282  0.8828
  483THF     H4 7710   2.898   5.360   3.666  0.3936 -0.1585  0.6853
  483THF     H5 7711   2.867   5.185   3.631 -1.0197  1.3533 -2.0227
  483THF     H6 7712   2.628   5.182   3.906  3.1710  1.5114  4.6165
  483THF     H7 7713   2.703   5.065   3.781 -0.4244  0.8793 -1.0127
  483THF     C8 7714   2.842   5.152   3.917  0.8515  0.3802  0.2241
  483THF     C9 7715   2.941   5.237   3.833 -0.1147  0.3275 -0.5647
  483THF    H10 7716   2.872   5.048   3.926 -0.7720 -0.1403 -0.0481
  483THF    H11 7717   2.824   5.179   4.021  1.3399 -0.1624  0.4578
  483THF    H12 7718   2.981   5.324   3.885  0.0254 -0.8494  1.4154
  483THF    H13 7719   3.030   5.178   3.811 -0.1388 -0.6499  1.6496
  484THF     O1 7720   3.030   3.363   2.526 -0.1913  0.6526  0.1868
  484THF     C2 7721   3.065   3.285   2.412 -0.9554  0.1806  0.6358
  484THF     C3 7722   2.902   3.315   2.567  0.3272  0.4558  0.3322
  484THF     H4 7723   3.120   3.199   2.450  0.8548  0.4204 -1.2360
  484THF     H5 7724   3.138   3.335   2.348  0.1029 -0.4543  1.3184
  484THF     H6 7725   2.912   3.211   2.597  1.6367  0.3257 -0.5220
  484THF     H7 7726   2.848   3.371   2.644 -0.6142 -0.4818  0.3794
  484THF     C8 7727   2.824   3.318   2.430 -0.4247 -0.2757 -0.5844
  484THF     C9 7728   2.933   3.249   2.339 -0.0514  0.3811 -0.4625
  484THF    H10 7729   2.800   3.417   2.391 -0.7166  0.3771  1.1840
  484THF    H11 7730   2.728   3.268   2.425 -1.4004  1.2099  1.5495
  484THF    H12 7731   2.925   3.140   2.346  0.6796  0.3229 -0.4884
  484THF    H13 7732   2.928   3.286   2.237 -0.4648  4.8139  0.9810
  485THF     O1 7733   2.725   1.471   1.948 -0.0827 -0.0409 -0.0055
  485THF     C2 7734   2.640   1.528   1.851  0.0120  0.5807 -0.3673
  485THF     C3 7735   2.665   1.344   1.980  0.4077 -0.2865  0.1576
  485THF     H4 7736   2.710   1.593   1.798 -0.9922  1.7267 -0.3216
  485THF     H5 7737   2.561   1.580   1.905  1.3356  0.3701  1.8980
  485THF     H6 7738   2.740   1.284   2.031  0.6565  1.0878  1.4663
  485THF     H7 7739   2.582   1.362   2.048  1.0347 -0.9016  1.0996
  485THF     C8 7740   2.617   1.284   1.846  0.2795 -0.3118 -0.1324
  485THF     C9 7741   2.594   1.410   1.761 -0.5143 -0.0468 -0.0107
  485THF    H10 7742   2.524   1.229   1.858 -0.0283  0.6629  2.7314
  485THF    H11 7743   2.681   1.213   1.795 -0.3610 -0.2531 -1.0443
  485THF    H12 7744   2.658   1.402   1.673 -0.7553  1.4873 -0.3664
  485THF    H13 7745   2.492   1.419   1.723 -1.5562  1.3425  2.8428
  486THF     O1 7746   0.390   4.586   3.254  0.1837  0.1525 -0.1291
  486THF     C2 7747   0.322   4.689   3.180 -0.8149 -0.0120 -0.2428
  486THF     C3 7748   0.370   4.606   3.393  0.6881 -0.3249  0.3683
  486THF     H4 7749   0.294   4.666   3.078 -0.0256  0.2374 -0.5186
  486THF     H5 7750   0.387   4.776   3.191  0.2899 -1.0341  1.7743
  486THF     H6 7751   0.344   4.509   3.436  2.7100 -0.9393  0.3071
  486THF     H7 7752   0.465   4.638   3.436 -0.1661  1.3908  1.0713
  486THF     C8 7753   0.262   4.718   3.393  0.6839 -0.7393 -0.1517
  486THF     C9 7754   0.196   4.707   3.266  0.0433 -0.2684 -0.3117
  486THF    H10 7755   0.308   4.814   3.413 -0.8505  0.3912 -1.8319
  486THF    H11 7756   0.192   4.695   3.475 -1.5838 -0.8418 -2.0076
  486THF    H12 7757   0.124   4.625   3.258  0.7673 -0.9852  0.2376
  486THF    H13 7758   0.144   4.800   3.245 -1.5378 -0.9056  0.5708
  487THF     O1 7759   1.731   3.335   3.337 -0.1398  0.1244 -0.1383
  487THF     C2 7760   1.741   3.282   3.467  0.6462  0.0377 -0.1963
  487THF     C3 7761   1.832   3.271   3.262 -0.6531 -0.4241 -0.5435
  487THF     H4 7762   1.698   3.183   3.472  0.2849  0.0782 -1.8347
  487THF     H5 7763   1.687   3.350   3.533  0.3917 -1.6932  1.4624
  487THF     H6 7764   1.809   3.171   3.225 -1.1112 -0.0397 -1.3104
  487THF     H7 7765   1.856   3.331   3.174  0.8159 -1.5058 -0.9126
  487THF     C8 7766   1.948   3.266   3.358 -0.4958 -0.1698  0.3772
  487THF     C9 7767   1.886   3.288   3.497 -0.0136  0.3758  0.3803
  487THF    H10 7768   2.028   3.340   3.350  2.0246 -2.7946 -0.4462
  487THF    H11 7769   1.992   3.167   3.354  3.4514  1.1023  4.3594
  487THF    H12 7770   1.918   3.210   3.567 -0.5175 -0.2445 -0.0603
  487THF    H13 7771   1.926   3.386   3.522  4.0712 -0.5992 -1.4552
  488THF     O1 7772   3.929   4.625   3.297 -0.1834 -0.3041  0.7517
  488THF     C2 7773   3.851   4.537   3.372  0.0093  0.3002 -0.1136
  488THF     C3 7774   3.937   4.758   3.357  0.3244  0.5236 -0.3185
  488THF     H4 7775   3.872   4.434   3.345  0.9706  0.1767  1.0252
  488THF     H5 7776   3.745   4.558   3.352  0.3589  2.5736  0.1630
  488THF     H6 7777   4.036   4.794   3.332  1.4872 -1.3691  1.2644
  488THF     H7 7778   3.862   4.829   3.324  0.3797  1.1316  0.8123
  488THF     C8 7779   3.925   4.714   3.506  0.3244 -0.6153 -0.2609
  488THF     C9 7780   3.900   4.563   3.512 -0.2106 -0.8049  0.1039
  488THF    H10 7781   3.850   4.773   3.559  0.6597 -0.6998  0.3165
  488THF    H11 7782   4.020   4.726   3.559  0.6661 -2.8409 -0.2629
  488THF    H12 7783   3.993   4.517   3.543 -0.8227 -2.2997 -0.2139
  488THF    H13 7784   3.833   4.537   3.594  1.2585  2.3548  2.5565
  489THF     O1 7785   3.731   1.586   5.090 -0.4288 -0.7042  0.4306
  489THF     C2 7786   3.858   1.522   5.120  0.2103 -0.3888  0.0165
  489THF     C3 7787   3.679   1.543   4.963  0.2393 -0.1351 -0.5500
  489THF     H4 7788   3.864   1.480   5.221 -0.8747  0.5782  0.5036
  489THF     H5 7789   3.927   1.606   5.106 -0.7100  0.3793 -0.0073
  489THF     H6 7790   3.608   1.461   4.959 -0.0662  0.1571 -1.3016
  489THF     H7 7791   3.625   1.626   4.917 -0.2497  0.9306  1.8019
  489THF     C8 7792   3.793   1.487   4.882 -0.1378 -0.1347 -0.7055
  489THF     C9 7793   3.857   1.415   5.007  0.8697  0.1561 -0.1594
  489THF    H10 7794   3.854   1.570   4.847  0.1518 -0.1044 -0.1345
  489THF    H11 7795   3.750   1.423   4.805 -1.7935 -0.3606  0.3374
  489THF    H12 7796   3.800   1.330   5.045  1.2971  0.9639  2.5101
  489THF    H13 7797   3.958   1.380   4.987  1.0294  0.5274  0.0030
  490THF     O1 7798   5.059   5.498   5.316 -1.0731  0.4740 -0.6296
  490THF     C2 7799   4.975   5.515   5.428 -0.3083  0.1465  0.8259
  490THF     C3 7800   5.191   5.542   5.341  0.5108  0.1764 -0.0546
  490THF     H4 7801   4.961   5.424   5.487 -3.3111  0.1941  0.3594
  490THF     H5 7802   4.879   5.554   5.393 -0.5854  0.1351  1.5467
  490THF     H6 7803   5.266   5.464   5.327  1.1624  1.0381 -1.7038
  490THF     H7 7804   5.221   5.627   5.279  0.8505  1.5779  1.9368
  490THF     C8 7805   5.185   5.588   5.488 -0.0553  0.6246 -0.0686
  490THF     C9 7806   5.040   5.618   5.517 -0.3412 -0.5349 -0.0742
  490THF    H10 7807   5.246   5.673   5.518 -0.1809  0.2769  1.2428
  490THF    H11 7808   5.219   5.502   5.547 -3.5392  0.4473  1.9714
  490THF    H12 7809   5.016   5.608   5.623  1.0130 -2.3454  0.1152
  490THF    H13 7810   5.008   5.718   5.488  1.3378  0.6822  1.9917
  491THF     O1 7811   1.762   0.776   0.734  0.5024 -0.5468 -0.4910
  491THF     C2 7812   1.679   0.833   0.629 -0.1049  1.1317 -0.0016
  491THF     C3 7813   1.792   0.877   0.831  0.5069  0.2570  0.4341
  491THF     H4 7814   1.628   0.751   0.581 -0.2237  2.0988 -1.5914
  491THF     H5 7815   1.740   0.882   0.553  3.0817 -0.4997  1.2752
  491THF     H6 7816   1.808   0.837   0.931 -1.3702 -0.4269  0.5094
  491THF     H7 7817   1.875   0.942   0.804  0.9838 -0.0706  1.0990
  491THF     C8 7818   1.674   0.971   0.837  0.0254  0.1833 -0.3437
  491THF     C9 7819   1.594   0.929   0.711 -0.2691 -0.2206 -0.0127
  491THF    H10 7820   1.689   1.079   0.838 -0.7917  0.3067  0.0955
  491THF    H11 7821   1.603   0.949   0.918 -2.4902  1.9657 -1.9245
  491THF    H12 7822   1.495   0.893   0.740 -0.4789  1.2944  1.2585
  491THF    H13 7823   1.575   1.021   0.656  0.7190 -0.4150 -0.7054
  492THF     O1 7824   4.435   2.097   1.259 -0.6502 -0.2065  0.1234
  492THF     C2 7825   4.496   1.973   1.272 -1.1317 -0.8001 -0.0782
  492THF     C3 7826   4.422   2.120   1.123 -0.5932 -0.7980 -0.5032
  492THF     H4 7827   4.418   1.897   1.268 -0.3585 -1.5796 -0.6081
  492THF     H5 7828   4.551   1.966   1.367  1.0184  0.1445 -1.1755
  492THF     H6 7829   4.321   2.082   1.105 -0.9246 -1.2651  1.9181
  492THF     H7 7830   4.417   2.226   1.098  1.5418  0.3734  3.2440
  492THF     C8 7831   4.534   2.047   1.047 -0.1271 -0.3613  0.0492
  492THF     C9 7832   4.598   1.966   1.157  0.8127 -0.4666  0.0401
  492THF    H10 7833   4.605   2.117   1.003  1.1740 -3.2552 -2.8744
  492THF    H11 7834   4.495   1.983   0.968 -0.0268 -1.5165  0.9097
  492THF    H12 7835   4.618   1.861   1.137 -0.6112 -0.1852 -3.6277
  492THF    H13 7836   4.693   2.006   1.191  0.2260 -0.0581  1.2796
  493THF     O1 7837   0.775   0.495   0.011  0.3870 -0.3058 -0.0331
  493THF     C2 7838   0.686   0.390   0.018 -0.1338  0.2335 -0.0028
  493THF     C3 7839   0.856   0.486  -0.097 -0.6958 -0.5532  0.3684
  493THF     H4 7840   0.596   0.401   0.078 -0.6287 -0.0432 -0.6766
  493THF     H5 7841   0.735   0.300   0.054 -0.5936 -0.6016 -1.3647
  493THF     H6 7842   0.898   0.581  -0.130 -0.0565 -0.0396  2.5249
  493THF     H7 7843   0.940   0.423  -0.067  0.0896  0.1668 -0.2957
  493THF     C8 7844   0.769   0.424  -0.206  0.0673 -0.0923 -0.0904
  493THF     C9 7845   0.647   0.379  -0.128 -0.4974  0.4498  0.4187
  493THF    H10 7846   0.811   0.337  -0.256 -0.9771 -1.0429  0.6175
  493THF    H11 7847   0.747   0.504  -0.277 -1.1510 -0.3023  0.0125
  493THF    H12 7848   0.560   0.439  -0.155  0.4566  1.4201 -0.5988
  493THF    H13 7849   0.614   0.277  -0.149 -0.1567  0.1973  1.0795
  494THF     O1 7850   0.552   2.870   2.758  0.3517 -0.3567  0.3431
  494THF     C2 7851   0.690   2.850   2.750 -0.0602 -0.0315  0.3220
  494THF     C3 7852   0.521   3.005   2.764 -0.4179  0.4636 -0.5989
  494THF     H4 7853   0.734   2.853   2.650 -0.8884 -0.2430 -0.0567
  494THF     H5 7854   0.707   2.748   2.783  0.4899  0.6665  2.3543
  494THF     H6 7855   0.526   3.044   2.662  0.5224  0.7222 -0.4576
  494THF     H7 7856   0.416   3.017   2.794 -0.4191  0.2188 -0.5032
  494THF     C8 7857   0.631   3.060   2.854 -0.3858 -0.1291 -0.1511
  494THF     C9 7858   0.741   2.957   2.846  0.3670  0.3864 -0.1124
  494THF    H10 7859   0.588   3.059   2.954 -1.6228  0.0215 -0.6611
  494THF    H11 7860   0.675   3.156   2.828 -2.5628  1.2724  1.0785
  494THF    H12 7861   0.831   3.002   2.804 -0.0392  0.7500 -0.6087
  494THF    H13 7862   0.755   2.904   2.940  0.8777 -2.0591 -1.4716
  495THF     O1 7863   1.254   3.614   1.743  0.3525 -0.2776  0.1212
  495THF     C2 7864   1.373   3.665   1.799 -1.1732 -0.1296  0.5282
  495THF     C3 7865   1.277   3.497   1.669  0.6762  0.4293  0.2014
  495THF     H4 7866   1.362   3.714   1.896 -3.1312  0.2331  0.1812
  495THF     H5 7867   1.416   3.720   1.715 -0.1627  0.4718  1.4204
  495THF     H6 7868   1.193   3.431   1.686  1.5914 -0.7940  0.1501
  495THF     H7 7869   1.277   3.527   1.564 -0.4165  0.5321  0.2241
  495THF     C8 7870   1.417   3.443   1.706 -0.5923 -0.6190 -0.2965
  495THF     C9 7871   1.464   3.545   1.815 -0.5668 -0.1212 -0.3179
  495THF    H10 7872   1.485   3.436   1.621  0.2562 -1.1207  0.4102
  495THF    H11 7873   1.405   3.340   1.741 -0.2574 -1.0955 -1.5292
  495THF    H12 7874   1.434   3.490   1.904  0.4626  0.7202  0.5781
  495THF    H13 7875   1.571   3.568   1.811 -0.4569 -0.4324  0.5969
  496THF     O1 7876   0.585   3.537   1.963  0.5390 -0.8185 -0.0716
  496THF     C2 7877   0.611   3.516   1.829 -0.4989  0.1497 -0.1317
  496THF     C3 7878   0.698   3.581   2.037  0.2976  0.1771  0.3464
  496THF     H4 7879   0.528   3.541   1.762  0.4489  0.9135 -1.0511
  496THF     H5 7880   0.645   3.415   1.809 -0.3705  0.1255  0.2045
  496THF     H6 7881   0.681   3.680   2.079  3.1792  1.1694 -0.5970
  496THF     H7 7882   0.727   3.515   2.119  0.3522  0.6131  0.6839
  496THF     C8 7883   0.806   3.580   1.929 -0.4575  0.0747  0.4371
  496THF     C9 7884   0.726   3.602   1.807  0.2921  0.5317  0.8335
  496THF    H10 7885   0.840   3.477   1.919 -0.4788 -0.0590  1.5980
  496THF    H11 7886   0.891   3.647   1.938  0.0996 -0.5047 -0.3271
  496THF    H12 7887   0.696   3.707   1.801  2.3049  1.1851  1.3863
  496THF    H13 7888   0.776   3.573   1.714 -2.7686  0.6470 -0.9845
  497THF     O1 7889   4.669   2.778   2.235 -0.2508  0.1333 -0.1197
  497THF     C2 7890   4.609   2.764   2.108 -0.5902 -0.1548 -0.3244
  497THF     C3 7891   4.671   2.646   2.290 -0.4059 -0.5192 -0.4738
  497THF     H4 7892   4.672   2.823   2.041 -1.4667 -1.5936 -2.5139
  497THF     H5 7893   4.520   2.824   2.131 -0.6707  0.0744 -1.1825
  497THF     H6 7894   4.754   2.640   2.361  1.2158 -0.9839 -2.3164
  497THF     H7 7895   4.578   2.631   2.344 -1.4498  0.1005 -2.0321
  497THF     C8 7896   4.682   2.552   2.169  0.2915 -0.9072 -0.0310
  497THF     C9 7897   4.605   2.624   2.070  0.3391  0.3772  0.3106
  497THF    H10 7898   4.646   2.456   2.207  2.6550 -1.4501  1.0103
  497THF    H11 7899   4.787   2.542   2.142  1.3524  4.5413  1.0286
  497THF    H12 7900   4.659   2.606   1.977 -0.0528  0.9979 -0.0472
  497THF    H13 7901   4.508   2.574   2.073  1.3998 -1.8055  0.1835
  498THF     O1 7902   2.018   3.654   5.397  0.4507 -0.0364  0.2459
  498THF     C2 7903   2.137   3.649   5.320  0.3564 -0.2202  0.1060
  498THF     C3 7904   2.038   3.573   5.507 -0.2739 -0.2614 -0.1826
  498THF     H4 7905   2.156   3.741   5.264  0.6095  0.2857  1.0093
  498THF     H5 7906   2.137   3.562   5.255 -2.9682  0.3485 -0.8903
  498THF     H6 7907   1.959   3.591   5.579  0.7241  0.0816  0.8656
  498THF     H7 7908   2.036   3.468   5.481 -0.8171 -0.5661  1.0155
  498THF     C8 7909   2.177   3.615   5.555  0.0007 -0.1273 -0.1567
  498THF     C9 7910   2.252   3.636   5.420  0.0268 -0.3669  0.3301
  498THF    H10 7911   2.229   3.548   5.623 -2.2530  0.5259  2.3909
  498THF    H11 7912   2.163   3.709   5.608 -0.4609  0.3742 -1.1505
  498THF    H12 7913   2.325   3.717   5.420 -0.0385 -0.2761 -1.0743
  498THF    H13 7914   2.297   3.538   5.405 -1.1129 -0.7729 -0.6461
  499THF     O1 7915   2.379   5.409   4.750 -0.4798  0.0613  0.0029
  499THF     C2 7916   2.371   5.418   4.608  0.5590  0.5571  0.7902
  499THF     C3 7917   2.244   5.409   4.791  0.9141 -0.2311 -0.6647
  499THF     H4 7918   2.337   5.323   4.568 -0.3759  0.1524  2.4422
  499THF     H5 7919   2.465   5.446   4.560  1.3184 -0.8522  1.3952
  499THF     H6 7920   2.184   5.319   4.779  2.0717 -1.4971  2.2145
  499THF     H7 7921   2.238   5.411   4.899  0.7480 -1.3271 -0.6426
  499THF     C8 7922   2.182   5.530   4.713  1.0822  0.2028 -0.3782
  499THF     C9 7923   2.258   5.520   4.582 -0.1374  0.3765 -0.1983
  499THF    H10 7924   2.203   5.621   4.767  1.0269  0.0646 -0.1237
  499THF    H11 7925   2.074   5.526   4.701  1.1732  0.6463 -1.4964
  499THF    H12 7926   2.199   5.491   4.495 -1.0180  1.9822 -0.1805
  499THF    H13 7927   2.296   5.617   4.550  0.4267  0.0564 -0.5001
  500THF     O1 7928   5.417   4.818   1.649  0.7073  0.3099 -0.6808
  500THF     C2 7929   5.471   4.718   1.739  0.0670 -0.5229 -0.5769
  500THF     C3 7930   5.297   4.757   1.604  0.1475 -0.5230 -0.0171
  500THF     H4 7931   5.413   4.726   1.831 -0.5461  1.7315 -1.1069
  500THF     H5 7932   5.575   4.735   1.765 -0.0169 -1.6973  0.6202
  500THF     H6 7933   5.215   4.761   1.676 -0.2999  0.2630 -0.5522
  500THF     H7 7934   5.251   4.794   1.512  0.6374  1.8798  0.6256
  500THF     C8 7935   5.329   4.609   1.589 -0.0464 -0.6302 -0.3170
  500THF     C9 7936   5.455   4.591   1.666  0.8768  0.2971  0.6842
  500THF    H10 7937   5.329   4.567   1.488 -0.6543 -0.3006 -0.4634
  500THF    H11 7938   5.252   4.555   1.644 -0.6981  1.2721  0.7538
  500THF    H12 7939   5.455   4.506   1.734  2.4962 -1.0926 -0.9534
  500THF    H13 7940   5.532   4.558   1.596  1.1763 -1.6316  1.8567
  501THF     O1 7941   3.261   3.890   4.993 -0.5573 -0.7454 -0.5801
  501THF     C2 7942   3.385   3.948   5.033  0.5247 -0.2129  0.0929
  501THF     C3 7943   3.244   3.773   5.074 -0.0748 -0.1477  0.1266
  501THF     H4 7944   3.377   4.057   5.029 -1.2347 -0.2625  1.4450
  501THF     H5 7945   3.469   3.914   4.972  1.2663  1.1049  0.3239
  501THF     H6 7946   3.140   3.741   5.067 -0.0633 -0.0889 -0.3231
  501THF     H7 7947   3.312   3.693   5.044  0.8752  0.7669 -0.2106
  501THF     C8 7948   3.279   3.819   5.213 -0.1463 -0.1305 -0.0180
  501THF     C9 7949   3.396   3.909   5.183 -0.3571  0.6010 -0.4222
  501THF    H10 7950   3.304   3.740   5.284 -0.9971  0.9040  1.5029
  501THF    H11 7951   3.197   3.878   5.255 -1.3153 -1.0925 -0.8680
  501THF    H12 7952   3.390   4.003   5.239 -3.5741 -0.6459  1.5885
  501THF    H13 7953   3.487   3.855   5.210 -1.0772 -0.7802 -0.6742
  502THF     O1 7954   4.437   0.666   1.964  0.6542  0.3403  0.3475
  502THF     C2 7955   4.304   0.672   1.895 -0.2191  0.0453  0.1327
  502THF     C3 7956   4.489   0.784   2.010 -0.6080  0.5416 -0.1962
  502THF     H4 7957   4.234   0.591   1.914 -1.2748 -0.4288 -4.5856
  502THF     H5 7958   4.311   0.690   1.788  1.0349  0.4859  0.2635
  502THF     H6 7959   4.541   0.777   2.105 -0.6777 -1.6990 -0.2575
  502THF     H7 7960   4.542   0.830   1.927  0.3104 -1.2808 -0.6622
  502THF     C8 7961   4.359   0.862   2.025  0.7961  0.3298 -0.2046
  502THF     C9 7962   4.240   0.786   1.973 -0.0212  0.0692  0.3336
  502THF    H10 7963   4.367   0.961   1.981  1.1139  0.3439 -0.1155
  502THF    H11 7964   4.340   0.876   2.132 -0.3364  0.9701 -0.4675
  502THF    H12 7965   4.172   0.751   2.051  0.5686 -0.5696  0.5732
  502THF    H13 7966   4.178   0.850   1.910 -0.1621  0.1432  0.5432
  503THF     O1 7967   3.096   1.012   4.950 -0.0446 -0.8660 -0.0812
  503THF     C2 7968   2.981   0.956   5.006  0.0766  0.1654  0.0283
  503THF     C3 7969   3.122   1.130   5.022 -0.3950 -0.2556  0.2893
  503THF     H4 7970   2.985   0.921   5.109 -0.0730 -1.7240 -0.5601
  503THF     H5 7971   2.936   0.881   4.941  1.3976  0.8239 -1.7400
  503THF     H6 7972   3.168   1.098   5.115 -0.1399 -0.7174  0.0058
  503THF     H7 7973   3.183   1.196   4.960 -0.4128 -0.3220  0.2004
  503THF     C8 7974   2.985   1.187   5.055 -0.0997  0.3020 -0.2145
  503THF     C9 7975   2.893   1.083   4.996  0.5768 -0.1981 -1.0909
  503THF    H10 7976   2.960   1.283   5.011 -0.7634  0.1672 -0.1357
  503THF    H11 7977   2.975   1.199   5.163 -0.1458 -0.3697 -0.1384
  503THF    H12 7978   2.796   1.081   5.045  1.4349  2.3730  0.8941
  503THF    H13 7979   2.878   1.107   4.891  0.8737 -1.2470 -1.3912
  504THF     O1 7980   4.198   4.557   2.634  0.6747 -0.2449 -0.1901
  504THF     C2 7981   4.275   4.436   2.630  0.5992 -0.8825 -0.0294
  504THF     C3 7982   4.280   4.663   2.682 -0.4362  0.1274 -0.6362
  504THF     H4 7983   4.331   4.434   2.537  0.4309 -1.6920 -0.1230
  504THF     H5 7984   4.219   4.343   2.633  0.3478 -0.7212  0.2949
  504THF     H6 7985   4.315   4.704   2.587 -1.6340 -1.1798 -1.6999
  504THF     H7 7986   4.227   4.740   2.738 -0.3177 -0.8011  0.8025
  504THF     C8 7987   4.401   4.598   2.754  0.1012  0.0978  0.4399
  504THF     C9 7988   4.368   4.453   2.751  0.3968 -0.5995 -0.5412
  504THF    H10 7989   4.415   4.647   2.850  4.9426 -0.9194  0.5305
  504THF    H11 7990   4.491   4.622   2.697  1.5463  1.3177  3.0549
  504THF    H12 7991   4.462   4.399   2.733  1.0878  0.8619 -1.5300
  504THF    H13 7992   4.324   4.437   2.849 -0.7234  2.0220 -0.5287
  505THF     O1 7993   0.037   3.444   3.618 -0.1498 -0.0452 -0.1982
  505THF     C2 7994   0.174   3.418   3.634 -0.5527  0.3368  0.6254
  505THF     C3 7995  -0.015   3.409   3.493  0.3111  0.4605  0.3985
  505THF     H4 7996   0.197   3.352   3.718  1.8365 -0.7273 -0.7624
  505THF     H5 7997   0.218   3.514   3.664 -3.5386  1.6583  1.0920
  505THF     H6 7998  -0.035   3.302   3.491  0.0244  0.4966 -2.5069
  505THF     H7 7999  -0.102   3.471   3.472 -0.2738 -1.0180 -1.8289
  505THF     C8 8000   0.109   3.414   3.400 -0.1446 -0.6549  0.4494
  505THF     C9 8001   0.224   3.377   3.497 -0.6275 -0.7419 -0.4433
  505THF    H10 8002   0.137   3.515   3.368  3.8523 -1.0202  2.1599
  505THF    H11 8003   0.102   3.360   3.306 -2.4177 -2.1591  1.4020
  505THF    H12 8004   0.250   3.272   3.485  2.4028 -0.3934  1.8265
  505THF    H13 8005   0.319   3.422   3.468 -0.3720 -0.1721  1.1566
  506THF     O1 8006   3.164   4.410   0.509  0.4016  0.7165  0.2180
  506THF     C2 8007   3.044   4.335   0.545 -0.3345  0.4429  0.2103
  506THF     C3 8008   3.139   4.468   0.380  0.8261  0.3009 -0.5830
  506THF     H4 8009   3.030   4.312   0.650  1.9713  0.3922  0.5513
  506THF     H5 8010   3.049   4.234   0.504 -2.9549 -0.0229  0.8374
  506THF     H6 8011   3.206   4.554   0.382  0.3473  0.6777 -0.4821
  506THF     H7 8012   3.173   4.402   0.301  0.2469 -1.3236  0.4655
  506THF     C8 8013   2.991   4.498   0.374 -0.6859  0.4175 -0.5320
  506THF     C9 8014   2.934   4.432   0.505  0.2649  0.4658 -0.1146
  506THF    H10 8015   2.941   4.436   0.301  0.0688 -0.0605 -0.6565
  506THF    H11 8016   2.969   4.604   0.358 -1.6253  0.2567 -0.3664
  506THF    H12 8017   2.912   4.495   0.592  0.7748 -0.7401  0.9282
  506THF    H13 8018   2.850   4.368   0.477  2.2686 -1.8308 -1.2059
  507THF     O1 8019   1.569   0.864   3.232  0.2126 -0.4451  0.3449
  507THF     C2 8020   1.546   0.951   3.119  0.0305  0.5589  0.0611
  507THF     C3 8021   1.664   0.931   3.310 -0.2676  0.2688 -0.1158
  507THF     H4 8022   1.469   1.024   3.143  0.6169  0.5648  2.1948
  507THF     H5 8023   1.493   0.892   3.044  0.5748 -1.8207  1.4190
  507THF     H6 8024   1.632   1.018   3.367  0.0316 -0.6230  1.4817
  507THF     H7 8025   1.705   0.867   3.389 -0.4787  0.7849  0.4148
  507THF     C8 8026   1.764   0.962   3.201 -0.0710 -0.2048 -0.1247
  507THF     C9 8027   1.686   1.003   3.081  0.8898  0.3738  0.4209
  507THF    H10 8028   1.823   0.873   3.177  0.5554  0.2870 -0.4357
  507THF    H11 8029   1.837   1.035   3.236 -0.8372  0.1709  0.7358
  507THF    H12 8030   1.669   1.111   3.072 -0.1714  0.4729  2.8478
  507THF    H13 8031   1.726   0.961   2.989  0.5568 -1.5426  1.1007
  508THF     O1 8032   2.867   1.666   0.744  0.5385  0.2406  0.2004
  508THF     C2 8033   2.788   1.557   0.803  0.0949  0.9686  0.3394
  508THF     C3 8034   2.992   1.657   0.806  0.1528  0.5176  0.3974
  508THF     H4 8035   2.703   1.535   0.739  0.6493  1.9210 -0.7556
  508THF     H5 8036   2.739   1.596   0.892 -1.9468  2.0599 -1.1836
  508THF     H6 8037   3.073   1.711   0.759 -0.1765 -0.2718 -1.1433
  508THF     H7 8038   3.001   1.677   0.913 -0.0069  1.4460  0.2461
  508THF     C8 8039   3.014   1.506   0.785  0.2761 -0.3774  0.7585
  508THF     C9 8040   2.883   1.440   0.813  0.0920  0.3391 -0.1680
  508THF    H10 8041   3.101   1.462   0.833  0.4470  1.7828  2.6035
  508THF    H11 8042   3.039   1.491   0.680  0.0585  1.6514  0.3763
  508THF    H12 8043   2.859   1.364   0.739  0.8874  0.1702 -0.2658
  508THF    H13 8044   2.882   1.396   0.913 -0.0681 -0.3860 -0.4806
  509THF     O1 8045   1.107   2.430   4.623  0.1128  0.4675 -0.4299
  509THF     C2 8046   1.002   2.333   4.647 -0.1879 -1.3316  0.3345
  509THF     C3 8047   1.230   2.363   4.653  0.4298 -0.6555  0.3021
  509THF     H4 8048   0.907   2.363   4.603  0.3092  0.5066  0.4398
  509THF     H5 8049   0.984   2.321   4.754  0.6505 -0.2662  0.6238
  509THF     H6 8050   1.312   2.423   4.612 -0.9458  0.6279 -0.6990
  509THF     H7 8051   1.240   2.339   4.759  1.7156  1.8446  0.8366
  509THF     C8 8052   1.204   2.235   4.576  0.5233 -0.2832 -0.6520
  509THF     C9 8053   1.057   2.204   4.584 -0.5013 -0.0690 -0.3968
  509THF    H10 8054   1.245   2.144   4.620 -0.5657  0.9120  3.3047
  509THF    H11 8055   1.236   2.241   4.472  0.5232  0.1709 -0.6286
  509THF    H12 8056   1.010   2.190   4.486  1.2043  2.1193 -1.6314
  509THF    H13 8057   1.039   2.121   4.652  1.4817  0.8008  1.2631
  510THF     O1 8058   3.209   1.390   0.416  0.6380  0.3184 -0.3147
  510THF     C2 8059   3.334   1.384   0.477 -0.4376  0.5516 -0.3968
  510THF     C3 8060   3.215   1.362   0.273  0.3495 -0.3702 -0.2403
  510THF     H4 8061   3.318   1.324   0.566 -1.6520  0.3960 -0.7030
  510THF     H5 8062   3.383   1.480   0.488  0.1569  0.1579  0.4749
  510THF     H6 8063   3.120   1.324   0.237 -0.2843  1.9936 -1.2473
  510THF     H7 8064   3.231   1.457   0.222 -0.6346 -0.9316 -1.6205
  510THF     C8 8065   3.345   1.272   0.269 -0.5985 -0.5162 -0.4436
  510THF     C9 8066   3.433   1.304   0.387  0.2679  0.4254  0.3349
  510THF    H10 8067   3.402   1.266   0.177  2.1361  0.1774  1.0996
  510THF    H11 8068   3.320   1.166   0.276 -1.4573 -0.4388 -1.9556
  510THF    H12 8069   3.479   1.213   0.424  0.9740  0.6375  0.0112
  510THF    H13 8070   3.512   1.374   0.360 -1.0743  1.7766 -0.2570
  511THF     O1 8071   1.077   2.939   0.647  0.4145  0.1864 -0.2217
  511THF     C2 8072   0.988   3.016   0.558  0.7593  0.2435 -0.1704
  511THF     C3 8073   1.095   2.812   0.591 -0.7436  0.3882 -0.2977
  511THF     H4 8074   1.035   3.035   0.461  0.5513 -0.5136 -0.4243
  511THF     H5 8075   0.973   3.110   0.612  1.6249  0.8107 -0.8958
  511THF     H6 8076   1.172   2.817   0.514 -0.5573  0.2527 -0.1210
  511THF     H7 8077   1.135   2.741   0.662 -1.9080  1.3083  1.3619
  511THF     C8 8078   0.946   2.777   0.552  0.1885 -0.0604  0.4747
  511THF     C9 8079   0.875   2.911   0.547  0.5398 -0.1758  0.1318
  511THF    H10 8080   0.896   2.709   0.622  0.8786  0.1716  1.2063
  511THF    H11 8081   0.952   2.726   0.456 -0.3440  1.9043 -0.6672
  511THF    H12 8082   0.820   2.931   0.455 -0.7295 -1.0009  0.6902
  511THF    H13 8083   0.812   2.918   0.635 -1.1359  2.1285 -1.1555
  512THF     O1 8084   1.600   1.103   4.639  0.1030  0.3414  0.2226
  512THF     C2 8085   1.581   1.229   4.693 -0.7613 -0.0597  0.2175
  512THF     C3 8086   1.471   1.047   4.622 -0.5584  0.2592  0.5962
  512THF     H4 8087   1.669   1.290   4.714 -0.7259  0.4017 -1.1566
  512THF     H5 8088   1.524   1.217   4.785 -0.9764  0.3840  0.1454
  512THF     H6 8089   1.479   0.957   4.561 -0.9372 -0.4987  1.6388
  512THF     H7 8090   1.423   1.014   4.715 -2.2745 -1.5698 -0.8416
  512THF     C8 8091   1.416   1.166   4.536 -0.4192 -0.4651 -0.1357
  512THF     C9 8092   1.484   1.292   4.604 -0.0515 -0.0915  0.6704
  512THF    H10 8093   1.307   1.175   4.533 -0.5058 -1.5463 -1.1033
  512THF    H11 8094   1.455   1.155   4.435  1.7499 -0.9814  0.7079
  512THF    H12 8095   1.536   1.349   4.527 -2.3918 -1.4087 -2.0753
  512THF    H13 8096   1.412   1.351   4.659  0.4306  0.3183  0.8705
  513THF     O1 8097   4.610   0.496   4.530 -0.8207 -0.4851  0.5216
  513THF     C2 8098   4.488   0.518   4.465  0.3698  0.5313  0.2672
  513THF     C3 8099   4.658   0.630   4.581 -0.5250  0.3415 -0.3425
  513THF     H4 8100   4.409   0.528   4.540 -1.0133  2.7239 -1.3394
  513THF     H5 8101   4.454   0.438   4.400 -1.1157  1.2985  0.0448
  513THF     H6 8102   4.608   0.675   4.667  1.6644  3.2535 -0.4594
  513THF     H7 8103   4.765   0.619   4.598 -0.9129 -3.9045  0.4200
  513THF     C8 8104   4.620   0.719   4.457 -0.0867  0.2009 -0.3897
  513THF     C9 8105   4.498   0.653   4.394 -0.0174 -0.3883 -0.0434
  513THF    H10 8106   4.708   0.724   4.394  0.2403 -0.0587  0.0430
  513THF    H11 8107   4.591   0.822   4.477  0.4851  0.0046  1.7264
  513THF    H12 8108   4.414   0.722   4.395  0.7773  0.7211 -2.3828
  513THF    H13 8109   4.514   0.623   4.291 -1.5472 -0.7821 -0.1940
  514THF     O1 8110   2.874   0.309   1.692  0.5401 -0.3706  0.0159
  514THF     C2 8111   2.836   0.437   1.740 -0.4652  0.4068  0.0821
  514THF     C3 8112   2.937   0.230   1.786 -0.4740 -0.1506  0.2897
  514THF     H4 8113   2.728   0.447   1.743 -0.6073 -0.7210 -0.7098
  514THF     H5 8114   2.872   0.511   1.668  1.3102  1.2327  1.7179
  514THF     H6 8115   2.916   0.124   1.777  2.0672 -0.6509 -0.6293
  514THF     H7 8116   3.045   0.243   1.774 -0.4365 -1.7545 -1.6388
  514THF     C8 8117   2.920   0.294   1.925 -0.6526  0.6332  0.0411
  514THF     C9 8118   2.900   0.433   1.884  0.1162 -0.7821 -0.3785
  514THF    H10 8119   3.009   0.282   1.988  0.6205  1.8971 -1.4205
  514THF    H11 8120   2.834   0.239   1.962  1.9576 -1.2693  3.9681
  514THF    H12 8121   2.837   0.485   1.956 -0.0423 -1.6097  0.0963
  514THF    H13 8122   2.990   0.494   1.888  0.5252 -1.4125  2.6359
  515THF     O1 8123   4.278   2.297   3.998 -0.0793  0.1115 -0.2106
  515THF     C2 8124   4.387   2.229   4.063 -0.0366 -0.5306  0.3121
  515THF     C3 8125   4.166   2.209   4.026  0.2654  0.3315  0.1824
  515THF     H4 8126   4.478   2.284   4.083  0.5796 -1.4062 -0.0367
  515THF     H5 8127   4.412   2.149   3.992  0.0796  0.0604 -0.3205
  515THF     H6 8128   4.073   2.264   4.038  0.8776  1.5865 -0.6425
  515THF     H7 8129   4.147   2.142   3.942 -1.7939  2.2637 -0.9725
  515THF     C8 8130   4.196   2.136   4.155  0.0255 -0.5389 -0.4778
  515THF     C9 8131   4.336   2.163   4.192 -0.3060 -0.3377 -0.1893
  515THF    H10 8132   4.186   2.029   4.135  3.4292 -1.3519  1.3439
  515THF    H11 8133   4.125   2.162   4.234  0.0341  1.4200 -1.0560
  515THF    H12 8134   4.337   2.226   4.280 -0.6384 -1.8777  0.9685
  515THF    H13 8135   4.383   2.072   4.230 -0.4342  0.3295  1.6639
  516THF     O1 8136   0.023   2.012   4.351 -0.0423 -0.1234 -0.0187
  516THF     C2 8137   0.069   2.071   4.225  0.1903 -0.2225 -0.2320
  516THF     C3 8138   0.000   2.130   4.432  0.2055 -0.2518  0.2236
  516THF     H4 8139   0.044   2.003   4.144 -0.7010 -1.4729  1.0422
  516THF     H5 8140   0.175   2.095   4.232  0.1424 -0.3431  1.5300
  516THF     H6 8141  -0.056   2.104   4.522  1.0087 -0.6196  0.6365
  516THF     H7 8142   0.099   2.163   4.464 -0.6599 -0.0432  2.9187
  516THF     C8 8143  -0.073   2.224   4.336 -0.4788 -0.5529 -0.6437
  516THF     C9 8144  -0.012   2.193   4.201  0.3251 -0.1335  0.5705
  516THF    H10 8145  -0.069   2.328   4.367  2.1525 -1.2111  1.5750
  516THF    H11 8146  -0.180   2.202   4.328 -1.1376  2.5617 -1.7165
  516THF    H12 8147  -0.078   2.198   4.115  0.8719  0.5703  0.1734
  516THF    H13 8148   0.058   2.271   4.170  2.0365 -1.6771  0.3311
  517THF     O1 8149   3.931   0.789   3.445  0.5658 -0.0632  0.2511
  517THF     C2 8150   3.926   0.917   3.515  0.5560  0.3582 -0.1081
  517THF     C3 8151   4.027   0.708   3.513 -0.1038  0.2251 -0.4593
  517THF     H4 8152   3.831   0.967   3.496 -0.1069 -0.8172  0.0402
  517THF     H5 8153   4.009   0.982   3.485  0.2620  0.4542 -0.7242
  517THF     H6 8154   3.999   0.603   3.510 -1.6777  0.5642  0.7792
  517THF     H7 8155   4.124   0.739   3.474 -0.2231 -0.2131 -1.1131
  517THF     C8 8156   4.009   0.766   3.661 -0.2498  0.0550  0.6545
  517THF     C9 8157   3.920   0.880   3.662 -0.1669 -0.3491 -0.6190
  517THF    H10 8158   4.107   0.788   3.704  0.4480 -0.0963 -0.7851
  517THF    H11 8159   3.966   0.692   3.729  3.1474 -0.9305  1.9312
  517THF    H12 8160   3.818   0.860   3.695 -0.2153  1.2661  0.2854
  517THF    H13 8161   3.951   0.965   3.722 -1.9427 -0.9783  1.2997
  518THF     O1 8162   1.041   5.064   4.856  0.1920  0.0679 -0.1128
  518THF     C2 8163   1.141   5.160   4.897 -0.1341  0.5303 -0.1980
  518THF     C3 8164   0.982   5.112   4.737  0.1801  0.0621 -0.1659
  518THF     H4 8165   1.218   5.116   4.959  0.7595  0.4520 -1.3383
  518THF     H5 8166   1.099   5.238   4.960  0.0808  0.0922  0.4882
  518THF     H6 8167   0.932   5.027   4.688  0.5131 -0.1669 -0.1121
  518THF     H7 8168   0.901   5.181   4.761 -1.6213 -2.2205  0.7243
  518THF     C8 8169   1.094   5.179   4.667 -0.0425 -0.3729 -0.3709
  518THF     C9 8170   1.199   5.211   4.773 -0.4825 -0.2814 -0.3794
  518THF    H10 8171   1.054   5.266   4.615  0.4872 -0.5420 -1.0673
  518THF    H11 8172   1.137   5.113   4.592  1.1172  0.3227 -0.3400
  518THF    H12 8173   1.288   5.151   4.753 -0.9779 -1.1177 -0.1468
  518THF    H13 8174   1.223   5.317   4.783 -0.6868 -0.1953 -0.8141
  519THF     O1 8175   0.746   4.593   2.185  0.2045  0.2835 -0.3955
  519THF     C2 8176   0.886   4.604   2.210  0.3509 -0.4426 -1.2209
  519THF     C3 8177   0.722   4.488   2.089 -1.0726  0.3733 -0.0271
  519THF     H4 8178   0.890   4.553   2.306 -0.8816  0.3898 -0.6986
  519THF     H5 8179   0.933   4.702   2.220  0.6463 -0.3993 -2.8190
  519THF     H6 8180   0.643   4.416   2.113  0.0838 -1.0477 -0.3714
  519THF     H7 8181   0.710   4.522   1.986 -1.2371 -2.3333 -0.9949
  519THF     C8 8182   0.854   4.404   2.092 -0.0672  0.5048 -0.5082
  519THF     C9 8183   0.954   4.521   2.104  0.0389 -1.2550  0.1197
  519THF    H10 8184   0.879   4.336   2.011  1.0249  0.8136 -0.4536
  519THF    H11 8185   0.863   4.347   2.185 -1.0954 -0.6637 -1.0989
  519THF    H12 8186   1.053   4.485   2.132  0.1204 -0.5558  0.7728
  519THF    H13 8187   0.966   4.580   2.012 -3.9333 -1.4252 -0.6784
  520THF     O1 8188   4.029   4.183   4.708 -0.2496  0.1725  0.0619
  520THF     C2 8189   3.914   4.252   4.669 -0.2950 -0.2227  0.1535
  520THF     C3 8190   4.011   4.041   4.693 -0.0250 -0.4340  0.0462
  520THF     H4 8191   3.937   4.356   4.649 -1.5592 -0.0464 -0.4882
  520THF     H5 8192   3.834   4.250   4.743  0.4086 -3.3091  0.9670
  520THF     H6 8193   4.105   3.993   4.665  1.0360  1.2820  0.5194
  520THF     H7 8194   3.968   3.981   4.773 -1.5874 -0.2188 -0.5974
  520THF     C8 8195   3.914   4.036   4.576 -0.5420 -0.0035 -0.3655
  520THF     C9 8196   3.880   4.180   4.544  0.0198  0.3303  0.9220
  520THF    H10 8197   3.820   3.995   4.611 -0.4026 -0.4377 -0.4942
  520THF    H11 8198   3.957   3.981   4.492 -0.0386 -0.1227 -0.0323
  520THF    H12 8199   3.943   4.215   4.461  2.2286  0.2238  2.4624
  520THF    H13 8200   3.775   4.198   4.522  0.6386  1.4564 -1.4478
  521THF     O1 8201   1.188   1.654   4.838  0.0410 -0.1951 -0.3687
  521THF     C2 8202   1.196   1.771   4.921 -0.2725  0.2987  0.0589
  521THF     C3 8203   1.192   1.716   4.713 -0.6270  0.7671  0.3993
  521THF     H4 8204   1.289   1.827   4.919 -1.9932  3.3225 -1.0546
  521THF     H5 8205   1.179   1.755   5.028  0.2536  3.5941  0.7500
  521THF     H6 8206   1.287   1.763   4.690  1.3603 -1.7460  2.8941
  521THF     H7 8207   1.167   1.654   4.626  2.1866  0.0989 -0.0227
  521THF     C8 8208   1.085   1.824   4.726  0.2633  0.5566  0.9591
  521THF     C9 8209   1.095   1.870   4.867 -0.0017 -0.3128  0.5866
  521THF    H10 8210   0.989   1.772   4.726  0.7557 -0.4105  2.6591
  521THF    H11 8211   1.091   1.910   4.658  0.0088  1.7351  2.3829
  521THF    H12 8212   1.133   1.972   4.867 -0.9305  0.0462  1.2493
  521THF    H13 8213   0.999   1.870   4.918 -0.2650  1.3872  0.1422
  522THF     O1 8214   5.361   2.664   0.660 -0.0448 -0.1732  0.5637
  522THF     C2 8215   5.335   2.787   0.591 -0.4767 -0.0443  0.1638
  522THF     C3 8216   5.468   2.604   0.580 -0.0591 -0.4831 -0.2025
  522THF     H4 8217   5.275   2.848   0.658 -1.1459 -0.9607  0.4361
  522THF     H5 8218   5.273   2.765   0.504 -2.7043  0.3592  1.5703
  522THF     H6 8219   5.533   2.560   0.656  1.4903  1.3453 -0.3915
  522THF     H7 8220   5.441   2.531   0.505 -0.3879  0.4123 -0.9765
  522THF     C8 8221   5.538   2.718   0.501  0.4533 -0.4035  0.2855
  522THF     C9 8222   5.467   2.843   0.554  0.1049  0.0525  0.3167
  522THF    H10 8223   5.513   2.712   0.396 -0.2491  0.7511  0.3754
  522THF    H11 8224   5.647   2.718   0.502  0.5039 -2.4654  1.5385
  522THF    H12 8225   5.523   2.870   0.643  0.5237 -0.1390  0.1164
  522THF    H13 8226   5.475   2.919   0.476 -0.0551 -1.5842 -1.3645
  523THF     O1 8227   4.461   2.876   3.432  0.1922  0.3796  0.1196
  523THF     C2 8228   4.420   2.976   3.333 -0.2705 -0.8370  0.7011
  523THF     C3 8229   4.352   2.819   3.500  0.4669 -0.2553  0.4004
  523THF     H4 8230   4.486   2.981   3.247 -1.4046 -2.3237 -0.2890
  523THF     H5 8231   4.421   3.076   3.378 -0.9257  0.2713 -1.5931
  523THF     H6 8232   4.362   2.714   3.469 -0.1021 -0.5873  1.3059
  523THF     H7 8233   4.354   2.819   3.609 -1.4504 -1.7176  0.4900
  523THF     C8 8234   4.226   2.887   3.433 -0.1663  0.5382 -0.1586
  523THF     C9 8235   4.278   2.930   3.294 -0.8084  0.5296  1.0112
  523THF    H10 8236   4.194   2.976   3.486 -0.2166  0.6396 -0.3585
  523THF    H11 8237   4.140   2.821   3.426 -0.0106  0.5096 -3.3999
  523THF    H12 8238   4.284   2.853   3.218 -0.1201  1.2722  0.3076
  523THF    H13 8239   4.204   3.003   3.259 -0.9416  0.0807  0.3564
  524THF     O1 8240   1.608   2.506   0.812 -0.2238 -0.5768 -0.3744
  524THF     C2 8241   1.495   2.498   0.725  0.0150 -0.8646 -0.2000
  524THF     C3 8242   1.615   2.376   0.879 -0.0874  0.6313  0.0113
  524THF     H4 8243   1.529   2.429   0.648  0.6091  1.5787 -2.2410
  524THF     H5 8244   1.469   2.594   0.681 -1.7627 -0.7173  1.0788
  524THF     H6 8245   1.670   2.320   0.803  1.5469  1.4073  0.5722
  524THF     H7 8246   1.668   2.371   0.974  0.3902 -0.4712 -0.2938
  524THF     C8 8247   1.474   2.324   0.885 -0.5481  0.5174  0.0514
  524THF     C9 8248   1.388   2.428   0.813 -0.2756  0.1876  0.4443
  524THF    H10 8249   1.433   2.304   0.984 -0.7925 -0.0225 -0.1550
  524THF    H11 8250   1.474   2.229   0.831 -2.6463 -0.1596  1.1424
  524THF    H12 8251   1.312   2.376   0.754  0.8444 -2.7424  1.3837
  524THF    H13 8252   1.345   2.501   0.882 -2.6261 -0.6122 -0.0779
  525THF     O1 8253   1.690   1.683   0.852 -0.1431 -0.5697  0.7511
  525THF     C2 8254   1.827   1.718   0.821 -0.0294 -0.4638  0.2652
  525THF     C3 8255   1.650   1.759   0.964  0.0266 -0.0360  0.6986
  525THF     H4 8256   1.848   1.680   0.722  0.3561 -1.4441  0.7114
  525THF     H5 8257   1.891   1.678   0.900  0.3468  0.7416  0.5969
  525THF     H6 8258   1.544   1.768   0.939  0.1765  0.9204  0.3589
  525THF     H7 8259   1.660   1.701   1.056 -1.5876 -0.8588  0.3949
  525THF     C8 8260   1.725   1.888   0.948 -0.6783 -0.3005 -0.3661
  525THF     C9 8261   1.820   1.867   0.828 -0.5682  0.4224  0.0897
  525THF    H10 8262   1.783   1.901   1.039  0.0395  1.4763 -1.0360
  525THF    H11 8263   1.662   1.977   0.940 -2.2638 -1.2885  0.5989
  525THF    H12 8264   1.774   1.904   0.737  0.9810  0.9101 -0.5097
  525THF    H13 8265   1.922   1.900   0.844  0.2694 -2.1635  0.6124
  526THF     O1 8266   0.673   5.175   3.380  0.0998 -0.1906 -0.2163
  526THF     C2 8267   0.680   5.133   3.515  0.0584  0.7144 -0.0577
  526THF     C3 8268   0.702   5.062   3.291 -0.0394 -0.7522 -0.4494
  526THF     H4 8269   0.599   5.174   3.575  0.4660 -0.5062  1.3749
  526THF     H5 8270   0.777   5.166   3.553 -0.6793  0.2625  2.3757
  526THF     H6 8271   0.670   5.064   3.187 -0.7473  0.9961 -0.2272
  526THF     H7 8272   0.810   5.062   3.280 -0.0336 -0.4061 -0.4040
  526THF     C8 8273   0.652   4.935   3.369 -0.4594 -0.4397  0.0094
  526THF     C9 8274   0.674   4.978   3.515 -0.5133  0.1923 -0.3254
  526THF    H10 8275   0.695   4.841   3.336 -1.0313 -0.6091 -0.2499
  526THF    H11 8276   0.544   4.933   3.356 -0.8572  2.1507  1.9337
  526THF    H12 8277   0.598   4.930   3.577 -1.9021  1.4323 -1.0239
  526THF    H13 8278   0.771   4.940   3.548  0.5462  2.5847 -0.4855
  527THF     O1 8279   3.100   4.388   5.068 -0.2657  0.0739  0.1176
  527THF     C2 8280   3.099   4.307   5.185 -0.0709 -0.8410  0.2689
  527THF     C3 8281   3.081   4.301   4.957 -0.0538  0.0858  0.1207
  527THF     H4 8282   3.063   4.368   5.268  1.9908  0.1002  0.5218
  527THF     H5 8283   3.196   4.280   5.227  0.7741  1.0901 -0.3570
  527THF     H6 8284   3.053   4.351   4.864 -0.9286 -1.2892 -0.3774
  527THF     H7 8285   3.182   4.263   4.944  0.3984  1.4879 -0.6768
  527THF     C8 8286   2.992   4.191   5.009 -0.8654  0.4062 -0.0847
  527THF     C9 8287   3.010   4.185   5.161 -0.0661  0.0076  0.1644
  527THF    H10 8288   3.016   4.093   4.969 -1.9593  0.2862 -0.4637
  527THF    H11 8289   2.890   4.220   4.985 -0.9825 -0.2878 -0.4480
  527THF    H12 8290   2.916   4.196   5.215 -0.0262 -1.8815  0.6763
  527THF    H13 8291   3.078   4.107   5.197  0.2476 -0.8713 -2.1794
  528THF     O1 8292   4.434   1.653   1.356  0.7721  0.6510  0.3463
  528THF     C2 8293   4.536   1.679   1.449 -0.1443  0.2202  0.0349
  528THF     C3 8294   4.356   1.552   1.423  0.1564 -0.1243  1.3612
  528THF     H4 8295   4.490   1.750   1.517 -1.3467  1.5918 -2.0874
  528THF     H5 8296   4.625   1.727   1.410  0.6578 -0.6640  0.7189
  528THF     H6 8297   4.278   1.603   1.480  1.8168  3.3797  0.7545
  528THF     H7 8298   4.308   1.489   1.349 -1.7162  0.9981  1.5746
  528THF     C8 8299   4.444   1.474   1.518 -0.2414 -0.5080 -0.8929
  528THF     C9 8300   4.574   1.550   1.525  0.2248  0.2307 -0.3968
  528THF    H10 8301   4.466   1.371   1.491  0.2564 -1.0730  1.3949
  528THF    H11 8302   4.405   1.479   1.620 -1.8833  0.1628 -1.5293
  528THF    H12 8303   4.613   1.548   1.627 -2.0056 -1.2613  0.5013
  528THF    H13 8304   4.655   1.504   1.469  0.1988  0.2594 -0.4589
  529THF     O1 8305   0.543   3.649   2.612 -0.5498  0.3366 -0.1206
  529THF     C2 8306   0.640   3.756   2.597  0.1021 -0.3680  0.1019
  529THF     C3 8307   0.609   3.533   2.563 -0.1603  0.2902  0.1402
  529THF     H4 8308   0.709   3.745   2.681  1.5970 -0.4805 -1.0956
  529THF     H5 8309   0.588   3.851   2.612 -0.3618 -0.7754  1.2120
  529THF     H6 8310   0.678   3.491   2.635  0.8390 -1.3870 -1.6922
  529THF     H7 8311   0.537   3.453   2.542  2.6826 -2.0633 -1.4818
  529THF     C8 8312   0.690   3.582   2.441 -0.0304  0.6940  0.2815
  529THF     C9 8313   0.713   3.732   2.464  0.4787  0.8519 -0.3324
  529THF    H10 8314   0.643   3.565   2.345 -1.6073  1.8851  0.7990
  529THF    H11 8315   0.783   3.524   2.442  1.5344  2.7655 -3.3907
  529THF    H12 8316   0.821   3.749   2.469  1.1318 -0.4321 -4.9859
  529THF    H13 8317   0.666   3.784   2.381 -1.9657 -0.3423  0.2360
  530THF     O1 8318   4.839   5.105   2.842 -0.0907 -0.0188 -0.2073
  530THF     C2 8319   4.839   5.207   2.752  0.1603 -0.0388 -0.1433
  530THF     C3 8320   4.964   5.092   2.910 -0.4579 -0.0958 -0.3072
  530THF     H4 8321   4.826   5.304   2.801  2.7288  1.0503 -1.4293
  530THF     H5 8322   4.759   5.186   2.682  0.7139  0.8129 -1.0573
  530THF     H6 8323   4.956   5.150   3.002  2.4148  1.1112 -0.7002
  530THF     H7 8324   4.997   4.990   2.930  1.5682  0.4893 -0.4342
  530THF     C8 8325   5.066   5.162   2.828 -0.3725 -0.4102  0.9235
  530THF     C9 8326   4.984   5.206   2.702 -0.0247  0.5177 -0.1664
  530THF    H10 8327   5.148   5.097   2.800  1.3581  2.0265  0.0080
  530THF    H11 8328   5.105   5.248   2.883  1.4095 -0.0523 -0.8076
  530THF    H12 8329   5.021   5.297   2.655  0.1788  0.0559 -0.9202
  530THF    H13 8330   4.983   5.133   2.620 -2.8218  2.5137 -2.0801
  531THF     O1 8331   5.136   3.060   0.606  0.3198  0.4285  0.0978
  531THF     C2 8332   5.005   3.035   0.541 -0.6810  0.1153 -0.9365
  531THF     C3 8333   5.103   3.161   0.702 -0.1513  0.5479  0.9278
  531THF     H4 8334   4.945   2.987   0.618  0.3122 -0.1543 -0.3062
  531THF     H5 8335   5.023   2.974   0.452  1.7967  1.3639 -1.4013
  531THF     H6 8336   5.039   3.138   0.787 -0.6140  2.7786  1.2378
  531THF     H7 8337   5.194   3.193   0.753 -1.0169 -0.3919  3.1679
  531THF     C8 8338   5.029   3.261   0.609 -0.1167 -0.2315 -0.3927
  531THF     C9 8339   4.958   3.174   0.505  0.1655 -0.1443 -0.7616
  531THF    H10 8340   5.100   3.333   0.569  0.6611 -0.2479  0.8929
  531THF    H11 8341   4.956   3.330   0.651  0.8293  0.6994 -0.2468
  531THF    H12 8342   4.855   3.208   0.495  0.9263  2.4685 -0.5988
  531THF    H13 8343   4.993   3.218   0.411 -0.1297  2.1818  0.1433
  532THF     O1 8344   0.657   4.404   0.532 -0.4321  0.6243  0.4489
  532THF     C2 8345   0.766   4.348   0.456 -0.5071 -0.4949 -0.2318
  532THF     C3 8346   0.718   4.508   0.606 -0.1046 -0.1519  0.0790
  532THF     H4 8347   0.788   4.417   0.374  0.0817 -0.6424 -0.1985
  532THF     H5 8348   0.740   4.258   0.400 -0.5946  0.6928 -2.1954
  532THF     H6 8349   0.725   4.597   0.543  1.5867  0.0923  0.5643
  532THF     H7 8350   0.645   4.515   0.686 -1.1155  0.5257 -0.8700
  532THF     C8 8351   0.851   4.445   0.657 -0.4863  0.2771 -0.5084
  532THF     C9 8352   0.875   4.334   0.559 -0.6223  0.0356 -0.5156
  532THF    H10 8353   0.832   4.399   0.754 -1.2233  0.8506 -0.3703
  532THF    H11 8354   0.938   4.510   0.671  0.1619 -0.7974  0.6419
  532THF    H12 8355   0.976   4.335   0.519  0.3610 -0.2903  1.7614
  532THF    H13 8356   0.875   4.238   0.610  0.8249 -0.1192 -0.7653
  533THF     O1 8357   2.529   2.663   2.513  0.1971 -0.3668 -0.0734
  533THF     C2 8358   2.657   2.716   2.548 -0.0651 -0.4404 -0.6637
  533THF     C3 8359   2.487   2.585   2.623  0.0797 -0.3453 -0.2399
  533THF     H4 8360   2.699   2.789   2.479 -0.0763 -0.7437 -0.9919
  533THF     H5 8361   2.723   2.629   2.549 -1.4798 -1.5984  2.1417
  533THF     H6 8362   2.381   2.565   2.607  0.2864 -0.7395 -1.2016
  533THF     H7 8363   2.541   2.491   2.635  0.7227  0.0568  0.0480
  533THF     C8 8364   2.516   2.684   2.738 -0.5609 -0.2638  0.3573
  533THF     C9 8365   2.639   2.770   2.693 -0.0242  0.4363 -0.5291
  533THF    H10 8366   2.541   2.633   2.831 -0.7655  0.3144  0.7366
  533THF    H11 8367   2.432   2.752   2.753  1.2713  1.8085  2.0036
  533THF    H12 8368   2.612   2.875   2.702  1.2300  0.6394  1.4737
  533THF    H13 8369   2.728   2.750   2.753 -1.4749 -0.2413  1.5210
  534THF     O1 8370   1.262   0.798   0.135 -0.5103 -0.0612  0.5320
  534THF     C2 8371   1.135   0.853   0.113  0.4451  0.9818 -0.3729
  534THF     C3 8372   1.260   0.667   0.183  0.1338  0.4326  0.2357
  534THF     H4 8373   1.138   0.922   0.029 -1.1409 -0.3016 -1.5598
  534THF     H5 8374   1.110   0.905   0.205  1.5665  0.2889  0.3455
  534THF     H6 8375   1.354   0.612   0.172  0.6851  1.4870 -0.5135
  534THF     H7 8376   1.232   0.665   0.288  0.7875 -0.1495  0.4076
  534THF     C8 8377   1.143   0.610   0.098  0.5896 -0.8732  0.9460
  534THF     C9 8378   1.048   0.731   0.081  0.0537  0.2902 -0.2939
  534THF    H10 8379   1.096   0.521   0.138  0.2126 -1.0653  0.0996
  534THF    H11 8380   1.178   0.576   0.000 -1.7050 -0.6415 -0.0238
  534THF    H12 8381   1.013   0.727  -0.022 -0.0993  0.6248 -0.2580
  534THF    H13 8382   0.964   0.724   0.151 -0.8447  0.8579 -1.2837
  535THF     O1 8383   2.611   5.239   2.000 -0.0219  0.0948  0.2509
  535THF     C2 8384   2.695   5.313   2.084 -0.5295  0.1078  0.2248
  535THF     C3 8385   2.690   5.151   1.921 -0.2109 -0.3032 -0.6544
  535THF     H4 8386   2.704   5.261   2.179  1.8181  1.4750  0.8038
  535THF     H5 8387   2.634   5.402   2.102 -1.7710 -0.8174  0.7523
  535THF     H6 8388   2.716   5.059   1.974 -0.6189  0.5204  1.0355
  535THF     H7 8389   2.649   5.112   1.828  0.8047 -0.0495 -1.2213
  535THF     C8 8390   2.818   5.239   1.900 -0.2053  0.2581  0.9257
  535THF     C9 8391   2.818   5.337   2.009 -0.8277 -0.5414 -0.1955
  535THF    H10 8392   2.810   5.289   1.803 -0.3248 -0.5223  0.5273
  535THF    H11 8393   2.911   5.183   1.906 -0.1565  0.4214  1.9658
  535THF    H12 8394   2.894   5.330   2.086 -0.7679  5.0618  0.6746
  535THF    H13 8395   2.825   5.439   1.971 -0.6778 -0.6344 -0.4237
  536THF     O1 8396   3.873   5.110   2.237  0.4271  0.4479 -0.1759
  536THF     C2 8397   3.854   5.241   2.275  0.2611  0.0637 -0.0177
  536THF     C3 8398   3.949   5.101   2.120 -0.5824  0.2877  0.5375
  536THF     H4 8399   3.922   5.254   2.360 -0.1936  1.5676  0.1513
  536THF     H5 8400   3.750   5.244   2.307  0.0987 -0.2631 -0.5130
  536THF     H6 8401   4.056   5.088   2.139 -0.4296  2.1571  1.1545
  536THF     H7 8402   3.926   5.012   2.060 -0.5207  1.5594 -1.4737
  536THF     C8 8403   3.933   5.222   2.039 -0.4313  0.0238 -0.0413
  536THF     C9 8404   3.901   5.321   2.146 -0.0912 -0.2354  0.2570
  536THF    H10 8405   3.861   5.225   1.958  2.7360  1.8880 -3.0230
  536THF    H11 8406   4.022   5.255   1.986 -0.1333 -0.6898 -0.0063
  536THF    H12 8407   3.987   5.382   2.172 -1.4656  0.9525  2.2383
  536THF    H13 8408   3.815   5.383   2.121 -2.0426 -2.4394  1.1306
  537THF     O1 8409   1.578   4.976   2.631 -0.1399 -0.7828 -0.3269
  537THF     C2 8410   1.642   5.024   2.748 -0.1369 -0.2879 -1.0905
  537THF     C3 8411   1.512   4.856   2.659 -1.0106 -0.1940 -0.7690
  537THF     H4 8412   1.578   5.100   2.792  2.4136  2.0038 -1.0710
  537THF     H5 8413   1.733   5.080   2.728 -0.9101  0.5982 -2.2592
  537THF     H6 8414   1.410   4.867   2.696 -0.5144 -0.9909  0.9233
  537THF     H7 8415   1.512   4.783   2.578  1.4533 -0.5038 -0.5545
  537THF     C8 8416   1.598   4.794   2.771  0.4596 -0.1173 -0.0499
  537THF     C9 8417   1.658   4.910   2.845 -0.6915  0.0878 -0.3442
  537THF    H10 8418   1.684   4.739   2.731  1.6263 -0.3308  2.5554
  537THF    H11 8419   1.533   4.722   2.821  0.6639 -0.9042 -0.8892
  537THF    H12 8420   1.614   4.906   2.945  1.1547  0.1593  0.5239
  537THF    H13 8421   1.763   4.891   2.869 -0.4910  0.6613 -0.7693
  538THF     O1 8422   0.571   4.321   2.365 -0.3422  0.0684 -0.6008
  538THF     C2 8423   0.507   4.206   2.307  0.0129 -0.2471 -0.7907
  538THF     C3 8424   0.651   4.280   2.473 -0.0088  0.7562  0.2408
  538THF     H4 8425   0.483   4.219   2.201 -0.5096  0.3613 -0.6070
  538THF     H5 8426   0.416   4.192   2.365 -0.6934  3.0198 -0.8977
  538THF     H6 8427   0.719   4.366   2.473 -1.4986  2.0371 -1.5539
  538THF     H7 8428   0.597   4.279   2.568  2.1556 -2.2814  1.5626
  538THF     C8 8429   0.700   4.142   2.445 -0.4946  0.2015 -0.1431
  538THF     C9 8430   0.604   4.094   2.336  0.5100  0.4704  0.6489
  538THF    H10 8431   0.696   4.089   2.540 -1.4684 -1.1385 -0.9068
  538THF    H11 8432   0.802   4.154   2.409 -0.1391 -0.2010  0.6991
  538THF    H12 8433   0.657   4.080   2.241 -1.1182  0.7200 -0.3399
  538THF    H13 8434   0.564   3.996   2.363  1.1928 -0.3635 -1.1972
  539THF     O1 8435   1.926   1.555   3.691  0.2350 -0.1923  0.4968
  539THF     C2 8436   1.906   1.681   3.765  0.6732  0.1198  1.0168
  539THF     C3 8437   1.980   1.462   3.781 -0.0787 -0.1749 -0.0668
  539THF     H4 8438   1.801   1.712   3.757  0.9567  1.1590  1.1387
  539THF     H5 8439   1.947   1.768   3.714 -1.5894  0.6342 -0.0681
  539THF     H6 8440   1.900   1.401   3.824 -0.0819 -0.6754 -0.7688
  539THF     H7 8441   2.053   1.390   3.745  1.8222 -0.5111  3.9714
  539THF     C8 8442   2.047   1.544   3.883  0.1429  0.3488  0.5547
  539THF     C9 8443   1.945   1.652   3.906  0.1162  0.2341 -0.1828
  539THF    H10 8444   2.141   1.583   3.845  2.3232 -2.6520  2.3969
  539THF    H11 8445   2.061   1.498   3.981  0.1541 -0.9534 -0.0377
  539THF    H12 8446   1.853   1.612   3.948  0.3861 -0.8042 -0.5510
  539THF    H13 8447   1.980   1.748   3.947 -1.6984  0.9522 -0.2293
  540THF     O1 8448   0.158   1.840   0.948  0.1351 -0.0662  0.1893
  540THF     C2 8449   0.170   1.743   1.046 -0.6140  0.5124  0.0937
  540THF     C3 8450   0.179   1.959   1.015 -0.5804  0.2738  0.2099
  540THF     H4 8451   0.273   1.717   1.071 -1.3455 -2.5869  0.2693
  540THF     H5 8452   0.120   1.656   1.004 -1.2111  1.5841 -1.5242
  540THF     H6 8453   0.285   1.959   1.042 -0.6282 -0.7445  0.4131
  540THF     H7 8454   0.160   2.046   0.951 -0.8814  0.0555  0.0025
  540THF     C8 8455   0.085   1.952   1.135 -0.2602 -0.0913 -0.1503
  540THF     C9 8456   0.084   1.798   1.159 -0.0117 -0.8500  0.4052
  540THF    H10 8457  -0.012   1.994   1.110 -0.1845 -0.1859 -0.6084
  540THF    H11 8458   0.129   2.010   1.216  0.9935  1.8462 -2.0803
  540THF    H12 8459   0.131   1.774   1.254 -0.1830  0.9234  0.9764
  540THF    H13 8460  -0.017   1.759   1.147 -0.1315  0.0229 -2.2497
  541THF     O1 8461   1.062   1.190   1.465 -0.4766  0.0322  0.4548
  541THF     C2 8462   1.108   1.072   1.400  0.0429  0.1076  0.3381
  541THF     C3 8463   1.173   1.280   1.476 -0.6749 -0.4764  0.4204
  541THF     H4 8464   1.107   1.101   1.295  0.6192  2.8470  1.0137
  541THF     H5 8465   1.037   0.990   1.415 -0.1307  0.0728 -0.5947
  541THF     H6 8466   1.170   1.369   1.414  2.4010 -0.3542  0.3003
  541THF     H7 8467   1.166   1.312   1.580  0.1972 -0.9555  0.6329
  541THF     C8 8468   1.301   1.198   1.447  0.4760  0.3620  0.1895
  541THF     C9 8469   1.249   1.053   1.455  0.1615  0.5248  0.0825
  541THF    H10 8470   1.392   1.205   1.506  1.6052 -2.1922 -1.0760
  541THF    H11 8471   1.330   1.214   1.343 -1.3321 -0.4808 -0.4890
  541THF    H12 8472   1.307   0.978   1.401 -0.5977 -0.6443  0.8525
  541THF    H13 8473   1.242   1.015   1.557  2.5311 -1.4573 -0.3898
  542THF     O1 8474   2.475   2.920   1.112  0.1406 -0.1649 -0.0200
  542THF     C2 8475   2.413   2.876   0.984  0.6984 -0.3389 -0.5050
  542THF     C3 8476   2.588   3.003   1.083  0.1363 -0.2261  0.0493
  542THF     H4 8477   2.307   2.858   1.001  0.5104  0.6329 -0.6203
  542THF     H5 8478   2.451   2.784   0.938  0.7420 -0.6929  0.2223
  542THF     H6 8479   2.621   3.066   1.165  0.0554 -0.4438  0.2504
  542THF     H7 8480   2.668   2.935   1.053 -2.0518 -3.3584  0.7981
  542THF     C8 8481   2.555   3.076   0.958  0.5280  0.0769 -0.9438
  542THF     C9 8482   2.442   2.995   0.890  0.1212  0.4309 -0.6294
  542THF    H10 8483   2.641   3.077   0.890 -0.2675 -0.7722 -1.9965
  542THF    H11 8484   2.528   3.177   0.986  0.4810  0.0654 -0.9472
  542THF    H12 8485   2.348   3.049   0.878 -1.4632 -1.6625  1.4375
  542THF    H13 8486   2.476   2.957   0.794  0.2527 -0.3491 -0.2839
  543THF     O1 8487   1.419   2.298   1.479  0.2337  0.1393 -0.3352
  543THF     C2 8488   1.397   2.269   1.345  0.7838 -0.7877  1.3449
  543THF     C3 8489   1.315   2.373   1.530 -0.2075 -0.4848  0.2518
  543THF     H4 8490   1.308   2.207   1.336  0.4649 -0.0718 -1.5636
  543THF     H5 8491   1.488   2.231   1.297  0.1006 -0.1513 -0.5324
  543THF     H6 8492   1.243   2.305   1.576 -0.4676 -1.1586 -1.0835
  543THF     H7 8493   1.349   2.443   1.605 -0.6141  1.0044 -0.9095
  543THF     C8 8494   1.266   2.448   1.406  0.2042  0.6877  0.5573
  543THF     C9 8495   1.349   2.402   1.289  0.1708  0.7015 -0.0694
  543THF    H10 8496   1.267   2.556   1.421  0.5148  0.5085  1.9511
  543THF    H11 8497   1.163   2.419   1.386  0.4101 -0.1671  0.6862
  543THF    H12 8498   1.291   2.394   1.197 -0.7064  0.1361  0.5177
  543THF    H13 8499   1.426   2.477   1.272 -0.1351  0.5625 -2.3214
  544THF     O1 8500   2.771   3.414   1.937 -0.1589 -0.5052  0.0215
  544THF     C2 8501   2.734   3.418   1.802 -0.2646  0.0424 -0.3003
  544THF     C3 8502   2.854   3.530   1.961 -0.0664  0.4298 -0.2611
  544THF     H4 8503   2.653   3.488   1.779 -0.6146 -0.2071  0.1717
  544THF     H5 8504   2.699   3.327   1.753 -0.6498  1.0259 -1.9290
  544THF     H6 8505   2.782   3.611   1.957  0.4994  0.9271 -3.2471
  544THF     H7 8506   2.915   3.525   2.051 -1.2405  0.4367  0.5525
  544THF     C8 8507   2.948   3.521   1.844 -0.1761 -0.0721  0.4951
  544THF     C9 8508   2.857   3.471   1.732 -0.0383 -0.4292  0.3513
  544THF    H10 8509   3.027   3.451   1.868  1.2530  1.8548  1.6951
  544THF    H11 8510   2.989   3.618   1.815  0.0139 -0.8431 -2.0275
  544THF    H12 8511   2.838   3.534   1.645  1.3459 -0.5249 -0.0474
  544THF    H13 8512   2.908   3.387   1.684 -0.2681  0.2930 -1.2207
  545THF     O1 8513   4.768   3.770   0.384 -0.2919  0.6261  0.1033
  545THF     C2 8514   4.718   3.666   0.465 -0.5006 -0.2660 -0.0218
  545THF     C3 8515   4.809   3.706   0.262  1.0136  0.2201 -0.3335
  545THF     H4 8516   4.618   3.660   0.424  0.1134  2.0259 -2.1224
  545THF     H5 8517   4.728   3.705   0.567  0.4571 -0.7754  0.0947
  545THF     H6 8518   4.716   3.716   0.205  0.1950  1.1919  1.1020
  545THF     H7 8519   4.887   3.765   0.214  1.5218  0.2449  0.5024
  545THF     C8 8520   4.862   3.565   0.303 -0.4517  0.1995  0.2700
  545THF     C9 8521   4.809   3.541   0.441 -0.6193  0.7886 -0.7230
  545THF    H10 8522   4.970   3.560   0.322  0.0784  0.9728 -2.1452
  545THF    H11 8523   4.843   3.485   0.231  0.3910  0.7010 -0.5337
  545THF    H12 8524   4.754   3.447   0.445  0.1429  0.2879 -1.5055
  545THF    H13 8525   4.892   3.538   0.512 -0.0686 -0.4295 -1.3759
  546THF     O1 8526   1.074   3.516   2.635  0.1726  0.3724 -1.0086
  546THF     C2 8527   1.102   3.574   2.762 -0.6969 -0.4204 -0.3270
  546THF     C3 8528   1.150   3.586   2.539  0.5873  0.1045  0.4980
  546THF     H4 8529   1.207   3.559   2.786 -0.4207  0.8583 -0.6562
  546THF     H5 8530   1.028   3.548   2.837 -1.8281  1.2309 -0.8237
  546THF     H6 8531   1.246   3.535   2.543  1.2669  1.2920 -0.1262
  546THF     H7 8532   1.102   3.568   2.442  0.9596  0.4410  0.2490
  546THF     C8 8533   1.147   3.728   2.599 -0.1485  0.2587  0.2694
  546THF     C9 8534   1.095   3.722   2.737  0.5943 -0.3988 -0.3702
  546THF    H10 8535   1.076   3.785   2.539 -1.6545 -3.3150 -1.5776
  546THF    H11 8536   1.246   3.774   2.589 -0.3673  0.4760 -1.1196
  546THF    H12 8537   1.150   3.776   2.815 -0.8744  0.7868 -0.0883
  546THF    H13 8538   0.991   3.755   2.741  1.3587  2.1072  1.8341
  547THF     O1 8539   1.791   1.838   0.254  0.7118  0.2828 -0.6260
  547THF     C2 8540   1.914   1.806   0.316  0.1144 -0.4844  0.0971
  547THF     C3 8541   1.715   1.722   0.210 -0.4851 -0.0344  0.2476
  547THF     H4 8542   1.895   1.811   0.424 -1.6074  0.1233 -0.1934
  547THF     H5 8543   1.989   1.879   0.286 -1.4446  0.9829 -0.4221
  547THF     H6 8544   1.609   1.722   0.234 -1.0982  1.3926 -2.1365
  547THF     H7 8545   1.729   1.731   0.103 -2.7283 -0.1333 -0.0924
  547THF     C8 8546   1.795   1.609   0.283  0.1371  0.1200  0.4954
  547THF     C9 8547   1.941   1.667   0.277 -0.0438 -0.1791 -0.0498
  547THF    H10 8548   1.781   1.508   0.245  1.6323 -0.6437  1.8444
  547THF    H11 8549   1.769   1.604   0.389 -0.9504 -0.7360  0.2104
  547THF    H12 8550   2.022   1.622   0.334  1.3782  2.1657 -0.1094
  547THF    H13 8551   1.969   1.662   0.172 -0.9717  0.1536 -0.3305
  548THF     O1 8552   0.303   2.369   0.557 -0.4987  0.1401 -0.7893
  548THF     C2 8553   0.292   2.371   0.700  0.9782 -0.4238  0.5021
  548THF     C3 8554   0.199   2.309   0.493 -0.2164 -0.0320  0.2944
  548THF     H4 8555   0.247   2.468   0.723  0.9353  0.0392 -1.3853
  548THF     H5 8556   0.390   2.367   0.747  1.5514 -1.7251 -0.7450
  548THF     H6 8557   0.168   2.375   0.412  1.1762  0.2336 -0.0401
  548THF     H7 8558   0.231   2.218   0.442 -2.4174 -1.0963  0.6484
  548THF     C8 8559   0.098   2.264   0.604  0.1311 -0.0875  0.1549
  548THF     C9 8560   0.185   2.261   0.722  0.0787  0.0169  0.5240
  548THF    H10 8561   0.051   2.168   0.585 -0.5599 -0.2897  2.5595
  548THF    H11 8562   0.016   2.336   0.612 -1.8444 -2.0407 -1.1873
  548THF    H12 8563   0.126   2.268   0.814 -1.1918 -1.0971 -0.1762
  548THF    H13 8564   0.235   2.165   0.716 -1.9705 -1.0833  0.2977
  549THF     O1 8565   5.441   5.432   2.026 -0.4204 -0.0462  0.2986
  549THF     C2 8566   5.326   5.444   1.943 -0.0414 -1.0922  0.8372
  549THF     C3 8567   5.479   5.297   2.009 -0.0970 -0.2062  0.1573
  549THF     H4 8568   5.367   5.438   1.842  1.0936 -1.0817  1.2825
  549THF     H5 8569   5.283   5.543   1.960  0.3565 -0.4783 -1.3999
  549THF     H6 8570   5.542   5.289   1.920 -0.2834 -0.3000  0.0306
  549THF     H7 8571   5.540   5.262   2.092 -1.1366  0.3583  1.1866
  549THF     C8 8572   5.347   5.220   1.991  0.0231 -0.0729 -0.4864
  549THF     C9 8573   5.239   5.328   1.971 -0.3874  0.6163 -0.3233
  549THF    H10 8574   5.335   5.163   2.083  1.3472 -1.3800 -1.0775
  549THF    H11 8575   5.366   5.155   1.905 -1.4974 -1.7229  0.3656
  549THF    H12 8576   5.164   5.301   1.896 -0.6122 -1.1497  0.4848
  549THF    H13 8577   5.191   5.348   2.067  0.1118  0.1836  0.0234
  550THF     O1 8578   4.247   3.595   4.241  0.1236  0.0337 -0.3751
  550THF     C2 8579   4.287   3.710   4.318  0.0248 -0.5262 -0.3932
  550THF     C3 8580   4.359   3.533   4.180 -0.5346 -0.2897  0.1571
  550THF     H4 8581   4.223   3.726   4.405  2.2635  2.6226  0.8436
  550THF     H5 8582   4.291   3.803   4.260  2.6187 -0.9861 -1.0763
  550THF     H6 8583   4.331   3.435   4.142 -1.0185  0.3643 -1.2407
  550THF     H7 8584   4.388   3.594   4.094 -0.7254  1.6618  1.4180
  550THF     C8 8585   4.455   3.551   4.295 -0.3454  0.3558 -0.2942
  550THF     C9 8586   4.432   3.686   4.358  0.1224  0.3469 -0.3982
  550THF    H10 8587   4.551   3.529   4.248 -2.6938 -3.0400 -4.1134
  550THF    H11 8588   4.425   3.477   4.370 -1.6592  2.7113  1.6396
  550THF    H12 8589   4.446   3.688   4.466 -0.1938  3.2970 -0.3257
  550THF    H13 8590   4.500   3.759   4.314 -0.7006  0.2189 -1.9602
  551THF     O1 8591   4.799   0.985   3.551 -0.5263  0.2413 -0.1745
  551THF     C2 8592   4.816   1.058   3.429 -0.1982 -0.3957  0.4826
  551THF     C3 8593   4.746   0.856   3.521 -0.1954 -0.7687  1.3119
  551THF     H4 8594   4.890   1.138   3.431 -1.5331  0.9012 -0.1893
  551THF     H5 8595   4.726   1.107   3.393  1.1417  0.6961 -1.5697
  551THF     H6 8596   4.817   0.791   3.573 -0.3052 -1.1676  0.9636
  551THF     H7 8597   4.643   0.853   3.557 -0.2816 -0.6199  1.0789
  551THF     C8 8598   4.747   0.844   3.367 -0.5429 -0.7022 -0.3296
  551THF     C9 8599   4.848   0.943   3.331 -0.1639  0.4173  0.0107
  551THF    H10 8600   4.653   0.884   3.329  0.3631  0.7005 -1.1751
  551THF    H11 8601   4.772   0.741   3.341  1.0826 -0.5804  0.6319
  551THF    H12 8602   4.954   0.924   3.350  0.0030  1.2484 -0.0384
  551THF    H13 8603   4.833   0.973   3.227  0.4785 -1.1106 -0.5539
  552THF     O1 8604   3.486   4.981   2.016  0.3468  0.3760 -0.2790
  552THF     C2 8605   3.498   5.064   2.130  0.0265  0.1121  0.1514
  552THF     C3 8606   3.347   4.947   2.007  0.0601 -0.7078 -0.2927
  552THF     H4 8607   3.511   5.157   2.073  1.0502 -0.4109 -0.4956
  552THF     H5 8608   3.585   5.029   2.186  0.9170  0.9740 -0.6568
  552THF     H6 8609   3.320   4.924   1.904 -3.7497  0.8677  0.1854
  552THF     H7 8610   3.339   4.850   2.058 -0.6728  0.2853  1.5865
  552THF     C8 8611   3.272   5.053   2.091  0.3396  0.3821 -0.2702
  552THF     C9 8612   3.368   5.066   2.207 -0.1698  1.0103  0.0429
  552THF    H10 8613   3.172   5.022   2.122  0.0361  1.5816  0.0085
  552THF    H11 8614   3.270   5.152   2.046 -1.4512 -0.3471 -1.9675
  552THF    H12 8615   3.352   5.153   2.272  0.8748  3.6034 -2.9017
  552THF    H13 8616   3.378   4.973   2.262  0.5048  0.0979 -1.5767
  553THF     O1 8617   0.580   1.458   4.454 -0.2625 -0.6149 -0.3711
  553THF     C2 8618   0.486   1.549   4.397 -0.7477  0.5846 -0.7615
  553THF     C3 8619   0.563   1.334   4.381  0.2792 -0.0519 -0.7501
  553THF     H4 8620   0.537   1.646   4.399 -1.3210  0.8954  1.1736
  553THF     H5 8621   0.386   1.564   4.438 -0.7786  2.4814 -1.3874
  553THF     H6 8622   0.654   1.276   4.398 -0.2587 -0.0572  3.1381
  553THF     H7 8623   0.481   1.277   4.424  0.6179  1.5258  2.2451
  553THF     C8 8624   0.549   1.375   4.231  0.5466  0.2547  0.0029
  553THF     C9 8625   0.474   1.507   4.246 -0.5998  0.2887 -0.5814
  553THF    H10 8626   0.489   1.305   4.174 -0.3843  1.2550 -0.2678
  553THF    H11 8627   0.648   1.396   4.190  0.8293  2.7487  1.7026
  553THF    H12 8628   0.525   1.577   4.178  0.7336 -1.0895 -1.0570
  553THF    H13 8629   0.372   1.488   4.214 -1.0989 -0.1455  1.1929
  554THF     O1 8630   0.805   0.909   1.470 -0.0768 -0.2292 -0.4141
  554THF     C2 8631   0.811   0.951   1.601 -0.3596 -0.4330 -0.8754
  554THF     C3 8632   0.761   1.019   1.396  0.5037  0.6564  0.2698
  554THF     H4 8633   0.900   1.007   1.631  1.0785 -3.8234  1.9391
  554THF     H5 8634   0.800   0.864   1.666 -2.0153  0.8576  0.6821
  554THF     H6 8635   0.839   1.085   1.358  0.3806 -0.4948 -2.1627
  554THF     H7 8636   0.720   0.977   1.304 -0.1380 -1.6741  1.5476
  554THF     C8 8637   0.654   1.076   1.486 -0.0094  0.2572 -0.3497
  554THF     C9 8638   0.691   1.039   1.623  0.0035  0.0129  0.1320
  554THF    H10 8639   0.554   1.041   1.462  0.6187 -1.3587 -0.7440
  554THF    H11 8640   0.646   1.184   1.473 -1.2774  0.2641  0.3410
  554THF    H12 8641   0.702   1.129   1.684  0.6840  0.4159 -0.5694
  554THF    H13 8642   0.616   0.972   1.666 -1.5025  1.6103  0.1530
  555THF     O1 8643   4.647   4.738   2.086  0.1353 -0.4504 -0.0780
  555THF     C2 8644   4.535   4.772   2.155  0.8035  0.5412 -0.5316
  555THF     C3 8645   4.608   4.699   1.951  0.1856 -0.6911 -0.0931
  555THF     H4 8646   4.543   4.825   2.250 -0.3170 -0.4217  0.1230
  555THF     H5 8647   4.481   4.680   2.178  1.6647  0.1857  0.1325
  555THF     H6 8648   4.685   4.736   1.884 -1.0994  1.8351 -0.3220
  555THF     H7 8649   4.606   4.590   1.942  0.4647 -0.7685  0.7514
  555THF     C8 8650   4.474   4.768   1.924 -0.3294  0.2649 -0.3442
  555THF     C9 8651   4.436   4.847   2.056 -0.8621  0.1725  0.1921
  555THF    H10 8652   4.404   4.686   1.914 -0.5778  0.4131  0.1387
  555THF    H11 8653   4.479   4.838   1.841  2.4199  2.5394  1.5002
  555THF    H12 8654   4.464   4.952   2.056 -3.1314  0.8212 -0.0085
  555THF    H13 8655   4.332   4.835   2.085 -0.6410  0.6725  1.2073
  556THF     O1 8656   4.230   2.445   1.659 -0.5495 -0.5976 -0.4949
  556THF     C2 8657   4.259   2.431   1.804  1.1563 -0.1024 -0.3297
  556THF     C3 8658   4.328   2.377   1.589 -0.4973  0.2286  0.3586
  556THF     H4 8659   4.200   2.353   1.852  2.5652 -1.3926 -0.6147
  556THF     H5 8660   4.239   2.524   1.857  2.2631 -0.7031  1.2139
  556THF     H6 8661   4.289   2.289   1.538 -1.0695  0.9874 -0.5458
  556THF     H7 8662   4.369   2.450   1.519  1.4419 -0.0055  1.1864
  556THF     C8 8663   4.434   2.325   1.687  0.3830  0.7110  0.5740
  556THF     C9 8664   4.410   2.400   1.815  1.0253  0.0821 -0.0585
  556THF    H10 8665   4.537   2.341   1.654 -0.1871  0.2018 -1.6093
  556THF    H11 8666   4.420   2.219   1.707 -2.9292  0.9165 -0.0412
  556THF    H12 8667   4.431   2.336   1.900  0.3112 -0.6284 -0.4061
  556THF    H13 8668   4.459   2.497   1.818  0.1546  0.5198  0.5376
  557THF     O1 8669   4.197   1.366   3.549  0.4326 -0.2221  0.0002
  557THF     C2 8670   4.207   1.240   3.611 -0.3412 -0.0992  0.1051
  557THF     C3 8671   4.082   1.439   3.589  0.3454  0.2754  0.3805
  557THF     H4 8672   4.301   1.234   3.665  0.8504 -0.9128 -1.9385
  557THF     H5 8673   4.190   1.156   3.544  0.6741 -1.1646  1.1360
  557THF     H6 8674   4.111   1.543   3.602 -0.9307  0.5375  1.3050
  557THF     H7 8675   3.998   1.433   3.521 -1.0997  0.3947  2.0913
  557THF     C8 8676   4.053   1.377   3.723 -0.0166 -0.5321  0.1346
  557THF     C9 8677   4.091   1.234   3.705  0.2386 -0.0222 -0.1102
  557THF    H10 8678   3.952   1.388   3.762  0.7027 -3.0864  3.1920
  557THF    H11 8679   4.116   1.417   3.802  0.3186 -1.9969  0.6457
  557THF    H12 8680   4.107   1.184   3.801  1.1619  1.1535  0.3708
  557THF    H13 8681   4.000   1.193   3.660 -1.0485  2.2288  0.3197
  558THF     O1 8682   0.550   1.151   1.919 -0.1873  0.5247  0.6581
  558THF     C2 8683   0.412   1.153   1.938 -0.2716 -0.2857  0.3862
  558THF     C3 8684   0.602   1.274   1.973  0.0601  0.4317  0.1951
  558THF     H4 8685   0.380   1.110   2.033 -0.9387 -0.2218  0.1981
  558THF     H5 8686   0.350   1.108   1.861  0.1083 -1.1872  0.5983
  558THF     H6 8687   0.685   1.243   2.038  0.4561 -0.3593 -0.6582
  558THF     H7 8688   0.644   1.321   1.884  2.1422  0.4001  1.0886
  558THF     C8 8689   0.487   1.345   2.042  0.1992 -0.5451 -0.1090
  558THF     C9 8690   0.378   1.301   1.942  0.2728 -0.1535  0.1857
  558THF    H10 8691   0.494   1.454   2.047 -0.6221 -0.5252  0.8074
  558THF    H11 8692   0.467   1.307   2.142 -0.1047 -0.4584 -0.1372
  558THF    H12 8693   0.279   1.315   1.985  0.2555  1.8354 -0.4132
  558THF    H13 8694   0.386   1.350   1.845 -1.9025 -1.8795 -0.9633
  559THF     O1 8695   4.818   3.606   3.909 -0.3376  0.1758  0.2268
  559THF     C2 8696   4.947   3.556   3.946  0.0522  0.0828  0.0275
  559THF     C3 8697   4.727   3.537   3.979  0.0545  0.3321 -0.0427
  559THF     H4 8698   5.036   3.616   3.924  1.5427 -2.6097 -1.8112
  559THF     H5 8699   4.969   3.461   3.897  0.3380  0.7043 -1.0899
  559THF     H6 8700   4.632   3.588   3.997  0.0985  0.5975 -0.5574
  559THF     H7 8701   4.699   3.442   3.933  2.9543 -0.8842  0.5200
  559THF     C8 8702   4.785   3.517   4.117 -0.0200  0.7225  0.6346
  559THF     C9 8703   4.933   3.532   4.095 -0.5796 -0.0048  0.6966
  559THF    H10 8704   4.751   3.426   4.165  0.8681  1.2720  2.3662
  559THF    H11 8705   4.753   3.598   4.182  0.7709  0.8414  0.8802
  559THF    H12 8706   4.947   3.620   4.158 -1.6760  0.1579  0.7222
  559THF    H13 8707   5.000   3.451   4.126  0.5427  1.0357  1.0744
  560THF     O1 8708   3.285   2.660   1.926  0.1829 -0.4627 -0.9476
  560THF     C2 8709   3.184   2.713   1.842  0.1792  0.5249 -0.0013
  560THF     C3 8710   3.363   2.578   1.846  0.0073 -0.6461 -0.4834
  560THF     H4 8711   3.222   2.779   1.764 -0.3510 -0.2103 -0.9077
  560THF     H5 8712   3.125   2.775   1.909  0.3679  1.2466 -0.5013
  560THF     H6 8713   3.414   2.639   1.772  0.3773  2.0872  1.8172
  560THF     H7 8714   3.438   2.513   1.890 -0.0165 -0.7392 -0.5793
  560THF     C8 8715   3.253   2.505   1.770  0.0621 -0.2405  0.3467
  560THF     C9 8716   3.133   2.588   1.782  0.2996 -0.2111  0.2612
  560THF    H10 8717   3.247   2.416   1.832 -0.5645 -0.3342  0.1546
  560THF    H11 8718   3.277   2.475   1.668  2.4481 -1.7629  1.2710
  560THF    H12 8719   3.073   2.599   1.691  0.4071 -0.2202  0.1888
  560THF    H13 8720   3.068   2.541   1.854 -0.5905 -0.1434 -0.4778
  561THF     O1 8721   5.364   2.071   2.862  0.5191 -0.4459 -0.1868
  561THF     C2 8722   5.445   2.172   2.915 -0.5045 -0.1437 -0.6484
  561THF     C3 8723   5.410   1.949   2.914 -0.1126  0.3071  0.3127
  561THF     H4 8724   5.418   2.274   2.892  1.4805  0.4575 -0.5187
  561THF     H5 8725   5.548   2.166   2.880 -0.0746 -1.3105  0.7109
  561THF     H6 8726   5.333   1.872   2.907 -1.6382  1.6821  1.2019
  561THF     H7 8727   5.502   1.922   2.864 -1.4334  0.4380 -2.3808
  561THF     C8 8728   5.434   1.986   3.060 -0.5444 -0.9241  0.5224
  561THF     C9 8729   5.452   2.139   3.057  0.4368 -0.0544 -0.0464
  561THF    H10 8730   5.510   1.930   3.113  0.4381  0.3483  0.5234
  561THF    H11 8731   5.349   1.967   3.126 -2.3839  0.5580 -1.2869
  561THF    H12 8732   5.359   2.171   3.105  0.0744  0.6650 -1.1910
  561THF    H13 8733   5.543   2.178   3.102  1.2915 -0.0102 -1.7422
  562THF     O1 8734   2.887   0.399   2.422 -0.1851 -0.2192 -0.5854
  562THF     C2 8735   2.845   0.430   2.289 -0.1962 -0.5101 -0.0302
  562THF     C3 8736   2.861   0.515   2.510 -0.0198 -0.2174 -0.3726
  562THF     H4 8737   2.795   0.343   2.246 -1.8327 -0.2843  1.3328
  562THF     H5 8738   2.934   0.457   2.232 -0.4815 -0.0780 -0.2789
  562THF     H6 8739   2.787   0.476   2.580 -2.0725  1.0152 -1.7292
  562THF     H7 8740   2.954   0.553   2.551 -0.9329  4.6115 -2.1832
  562THF     C8 8741   2.805   0.618   2.415  0.4561 -0.3512 -0.1389
  562THF     C9 8742   2.743   0.540   2.302 -0.0784 -0.5135 -0.4071
  562THF    H10 8743   2.889   0.677   2.378  0.3827 -0.6697 -0.8328
  562THF    H11 8744   2.738   0.681   2.473 -0.0566 -0.7478 -0.2942
  562THF    H12 8745   2.644   0.503   2.330 -1.0354  1.7195 -0.6245
  562THF    H13 8746   2.733   0.617   2.225  2.2504  1.0791  0.7767
  563THF     O1 8747   1.782   3.481   0.250  0.0915  0.1256 -0.2008
  563THF     C2 8748   1.700   3.544   0.351  0.5120  0.0838  0.9163
  563THF     C3 8749   1.896   3.424   0.317  0.5892  0.7975  0.6226
  563THF     H4 8750   1.610   3.486   0.371  0.9690 -0.8636  0.3190
  563THF     H5 8751   1.669   3.645   0.325 -2.5586 -1.1574 -0.8888
  563THF     H6 8752   1.875   3.318   0.333  0.0752  0.8322  0.2177
  563THF     H7 8753   1.985   3.437   0.256 -0.3415  0.1136 -0.9174
  563THF     C8 8754   1.904   3.490   0.452 -0.2977  0.0732 -0.5251
  563THF     C9 8755   1.765   3.529   0.483  0.1452  0.3799  0.6455
  563THF    H10 8756   1.976   3.571   0.444  0.1976 -0.2113  0.8542
  563THF    H11 8757   1.941   3.410   0.517  1.1965  1.7560  0.7800
  563THF    H12 8758   1.716   3.465   0.557  1.9700  0.2759  1.8346
  563THF    H13 8759   1.774   3.630   0.523  1.6310  0.5433 -0.0332
  564THF     O1 8760   0.869   0.639   4.993  0.3036 -0.3991  0.0774
  564THF     C2 8761   0.867   0.771   4.934 -0.4490 -0.7748 -0.3232
  564THF     C3 8762   0.825   0.559   4.887  0.3485  0.3669  0.3888
  564THF     H4 8763   0.948   0.774   4.861  0.2438 -3.2262  0.2333
  564THF     H5 8764   0.874   0.851   5.007 -1.7174 -2.2160  1.5043
  564THF     H6 8765   0.908   0.538   4.819 -0.2436 -0.0817 -0.2072
  564THF     H7 8766   0.794   0.456   4.906 -0.6791  0.3137 -1.3473
  564THF     C8 8767   0.701   0.630   4.838  0.1942 -0.2888  0.8459
  564THF     C9 8768   0.733   0.784   4.858 -0.3720  0.1310  0.2128
  564THF    H10 8769   0.604   0.607   4.883 -0.4667  1.2385  0.2685
  564THF    H11 8770   0.687   0.608   4.732 -2.1284  0.3455  0.9665
  564THF    H12 8771   0.746   0.842   4.766  0.1753 -1.9034 -1.0443
  564THF    H13 8772   0.666   0.835   4.928  1.6228  0.8609  1.6608
  565THF     O1 8773   4.780   3.004   4.154  0.6965 -0.6488 -1.2152
  565THF     C2 8774   4.697   2.930   4.239 -0.1457 -0.2314  0.3217
  565THF     C3 8775   4.842   3.110   4.229 -0.2332 -0.2760  0.1455
  565THF     H4 8776   4.762   2.853   4.281  0.7125  0.5149  0.3679
  565THF     H5 8777   4.613   2.902   4.174 -0.2224  3.1491 -1.2609
  565THF     H6 8778   4.922   3.068   4.290  0.6817  0.0148 -0.8233
  565THF     H7 8779   4.874   3.187   4.160  0.9068 -2.3252 -1.7529
  565THF     C8 8780   4.723   3.163   4.310  0.4449 -0.0017  0.0833
  565THF     C9 8781   4.636   3.035   4.329  0.1664 -0.6833  0.5086
  565THF    H10 8782   4.673   3.229   4.240  0.2016 -0.2504  0.0224
  565THF    H11 8783   4.739   3.225   4.398  0.8438 -0.2351  0.1780
  565THF    H12 8784   4.619   3.001   4.431  0.4112  2.1012  1.5554
  565THF    H13 8785   4.534   3.043   4.289  0.3284  2.2352  0.4468
  566THF     O1 8786   1.646   2.643   3.100  0.4311  0.1008 -0.0467
  566THF     C2 8787   1.751   2.646   3.001 -0.1761 -0.0024  0.2484
  566THF     C3 8788   1.529   2.675   3.034  0.0339 -0.1653 -0.1276
  566THF     H4 8789   1.835   2.606   3.058 -0.8269 -1.8674 -0.0309
  566THF     H5 8790   1.786   2.745   2.975 -0.0647  0.3252  1.5630
  566THF     H6 8791   1.436   2.657   3.089 -0.3150  0.4083 -0.5165
  566THF     H7 8792   1.526   2.780   3.006 -0.6002 -0.4469 -1.1694
  566THF     C8 8793   1.540   2.581   2.916 -0.1137 -0.3912  0.5041
  566THF     C9 8794   1.693   2.572   2.879 -0.1518  0.2095 -0.2710
  566THF    H10 8795   1.484   2.634   2.839 -1.0092  0.8436  1.9465
  566THF    H11 8796   1.475   2.493   2.910 -1.6775  0.7072  0.6681
  566THF    H12 8797   1.719   2.466   2.881 -1.3753 -0.1167  1.4782
  566THF    H13 8798   1.706   2.625   2.785 -1.1794 -0.4292 -0.7887
  567THF     O1 8799   4.621   0.046   0.718 -0.4340 -0.8315 -0.2593
  567THF     C2 8800   4.590   0.063   0.575 -0.0608  0.4361  0.1874
  567THF     C3 8801   4.518   0.104   0.796  0.2442 -0.2675 -0.0403
  567THF     H4 8802   4.604  -0.024   0.512  1.2388  1.2562 -0.7025
  567THF     H5 8803   4.652   0.144   0.535  0.9429 -1.0442 -1.3760
  567THF     H6 8804   4.464   0.028   0.851 -0.8329 -0.2380 -1.0205
  567THF     H7 8805   4.557   0.178   0.866 -0.0232 -1.0266  0.9156
  567THF     C8 8806   4.426   0.172   0.697  0.1949 -0.4048 -0.8356
  567THF     C9 8807   4.440   0.111   0.564 -0.7277  0.4885 -0.4159
  567THF    H10 8808   4.443   0.278   0.679  2.5022 -0.7215 -0.8131
  567THF    H11 8809   4.324   0.166   0.736 -0.0587  0.3499 -1.3553
  567THF    H12 8810   4.374   0.024   0.563 -0.1491  0.0452 -0.5218
  567THF    H13 8811   4.423   0.182   0.483 -1.1949  0.1971 -0.5783
  568THF     O1 8812   0.861   3.737   4.168 -0.2816 -0.0349  0.6332
  568THF     C2 8813   0.808   3.719   4.299 -0.1352  0.6690  0.4471
  568THF     C3 8814   0.902   3.607   4.121  0.2533  0.3505  0.8836
  568THF     H4 8815   0.745   3.803   4.328  1.8232  1.7714  1.7964
  568THF     H5 8816   0.875   3.696   4.383  0.9060  0.2538 -0.4715
  568THF     H6 8817   0.896   3.613   4.012 -1.3383  1.5122  1.0015
  568THF     H7 8818   1.005   3.582   4.146  0.3350  0.5005  0.6975
  568THF     C8 8819   0.804   3.507   4.175 -0.4810  0.3542 -0.2994
  568THF     C9 8820   0.721   3.592   4.260  0.4008  0.5293  0.0921
  568THF    H10 8821   0.844   3.429   4.240 -0.1474  0.1527 -0.7452
  568THF    H11 8822   0.752   3.441   4.106 -0.9979 -0.5459  0.8958
  568THF    H12 8823   0.633   3.622   4.204 -0.6403  0.7506  1.7698
  568THF    H13 8824   0.686   3.546   4.353  1.2115 -2.7955 -1.1101
  569THF     O1 8825   2.900   1.008   1.586  0.7447 -0.3443  0.0562
  569THF     C2 8826   2.888   0.887   1.506 -0.1507 -0.0194 -0.1740
  569THF     C3 8827   2.971   1.108   1.509 -0.0294 -0.3239 -0.1685
  569THF     H4 8828   2.791   0.837   1.508  0.7461 -1.8356  0.6957
  569THF     H5 8829   2.953   0.811   1.551 -2.5655 -1.0445  1.8480
  569THF     H6 8830   2.910   1.196   1.492 -0.0196 -0.3264 -0.2144
  569THF     H7 8831   3.046   1.136   1.583 -0.4576 -1.3843  0.6989
  569THF     C8 8832   3.023   1.044   1.384 -0.5402 -0.5828  0.9006
  569THF     C9 8833   2.937   0.921   1.365 -0.1881  0.2885 -0.0297
  569THF    H10 8834   3.129   1.029   1.408 -0.2801  0.9395  0.8027
  569THF    H11 8835   3.020   1.108   1.296 -0.0450  1.6954  2.4473
  569THF    H12 8836   2.858   0.945   1.294 -0.0618 -0.5289 -0.4657
  569THF    H13 8837   2.987   0.837   1.315 -2.7117  0.8117 -3.8406
  570THF     O1 8838   0.217   2.400   4.920  0.3754 -0.8485 -0.1084
  570THF     C2 8839   0.100   2.407   4.999  0.6322  0.1852  0.8347
  570THF     C3 8840   0.290   2.292   4.968  0.4439 -0.5821 -0.2931
  570THF     H4 8841   0.024   2.335   4.967  0.1595  1.2850 -0.6361
  570THF     H5 8842   0.045   2.501   4.991 -0.8885 -0.6941  0.5441
  570THF     H6 8843   0.266   2.213   4.897  0.3423  0.8285 -1.8815
  570THF     H7 8844   0.397   2.314   4.963  0.4759  0.1685  2.1930
  570THF     C8 8845   0.245   2.274   5.113  0.5827 -0.1658 -0.8794
  570THF     C9 8846   0.144   2.376   5.141 -0.6822 -0.4820 -0.2239
  570THF    H10 8847   0.325   2.286   5.185 -0.7540 -0.0071  0.6373
  570THF    H11 8848   0.200   2.174   5.115 -2.1973  0.9392 -2.4012
  570THF    H12 8849   0.069   2.326   5.201 -0.4567 -1.5961 -0.8441
  570THF    H13 8850   0.174   2.463   5.199  0.4019 -0.5636 -0.6358
  571THF     O1 8851   3.843   5.238   0.126 -0.2625  0.7970 -0.3581
  571THF     C2 8852   3.704   5.261   0.126  0.8591 -0.7173 -0.3196
  571THF     C3 8853   3.887   5.261  -0.011 -0.0843  0.1728  0.5727
  571THF     H4 8854   3.663   5.256   0.226  1.2117 -3.6099 -0.2565
  571THF     H5 8855   3.643   5.186   0.075 -0.8472  1.1991 -1.2498
  571THF     H6 8856   3.990   5.293   0.005 -0.2656  0.4736  1.1957
  571THF     H7 8857   3.878   5.173  -0.075  2.2333 -0.7698  1.4338
  571THF     C8 8858   3.807   5.389  -0.047 -0.0353 -0.8394 -0.5012
  571THF     C9 8859   3.686   5.389   0.045 -0.5148  0.6391  0.6433
  571THF    H10 8860   3.784   5.395  -0.153 -0.3371  1.0571 -0.3562
  571THF    H11 8861   3.862   5.479  -0.020 -0.8692 -0.4383 -0.1104
  571THF    H12 8862   3.679   5.479   0.106 -0.5975  1.0409  0.0564
  571THF    H13 8863   3.596   5.383  -0.017  0.4018 -2.6971 -0.5921
  572THF     O1 8864   2.194   0.668   0.367 -0.2429 -0.3156  0.7188
  572THF     C2 8865   2.070   0.735   0.386 -0.2645  0.5090  0.2305
  572THF     C3 8866   2.253   0.650   0.493 -0.2578 -0.2382  0.5586
  572THF     H4 8867   1.997   0.662   0.422  2.8532 -2.8191  0.3643
  572THF     H5 8868   2.044   0.787   0.294  0.9880  2.2788  0.8218
  572THF     H6 8869   2.215   0.558   0.537 -0.0678 -1.1315 -1.0268
  572THF     H7 8870   2.362   0.653   0.487 -0.2231  4.2863 -0.2273
  572THF     C8 8871   2.212   0.778   0.564 -0.3280  0.3900  0.0921
  572THF     C9 8872   2.082   0.830   0.506 -0.8212 -0.0709 -0.0905
  572THF    H10 8873   2.284   0.857   0.544  0.4140 -0.6992 -1.9012
  572THF    H11 8874   2.211   0.764   0.672  1.1273 -1.2561 -0.0737
  572THF    H12 8875   1.999   0.830   0.576 -1.7438  0.8234 -1.1572
  572THF    H13 8876   2.096   0.933   0.472 -0.2727 -0.5392 -1.3687
  573THF     O1 8877   5.187   2.110   5.231  0.6932 -0.0445  0.0555
  573THF     C2 8878   5.324   2.101   5.227 -0.4874  0.4358  0.3721
  573THF     C3 8879   5.152   2.131   5.367 -0.3711  0.2768 -0.5797
  573THF     H4 8880   5.359   2.179   5.160 -1.2846  1.6294  1.2976
  573THF     H5 8881   5.356   2.001   5.198  1.6301  1.8636 -2.7679
  573THF     H6 8882   5.056   2.182   5.371 -0.1928  0.5716  0.2838
  573THF     H7 8883   5.153   2.036   5.422 -1.9113  0.6022  0.0713
  573THF     C8 8884   5.262   2.213   5.436  0.5618  0.4704  0.3791
  573THF     C9 8885   5.379   2.136   5.371  0.1862 -0.0977  0.1130
  573THF    H10 8886   5.262   2.218   5.545  0.1224  1.2334  0.3476
  573THF    H11 8887   5.268   2.311   5.390 -0.4649  0.8060  0.9414
  573THF    H12 8888   5.473   2.191   5.371 -0.1843  0.7247  3.0865
  573THF    H13 8889   5.388   2.043   5.428 -0.9114 -0.9696 -1.0917
  574THF     O1 8890   0.681   1.143   3.203 -0.3410 -0.4070  0.1298
  574THF     C2 8891   0.716   1.274   3.265  0.1023  0.1393 -0.2173
  574THF     C3 8892   0.587   1.090   3.296  0.0579 -0.3074 -0.0650
  574THF     H4 8893   0.751   1.346   3.191 -1.8720 -1.8454 -3.3383
  574THF     H5 8894   0.801   1.250   3.329  0.9537  0.9706 -1.0121
  574THF     H6 8895   0.533   0.997   3.276 -0.3551 -0.0443 -0.1731
  574THF     H7 8896   0.639   1.078   3.391  2.6259  0.7943 -1.2502
  574THF     C8 8897   0.499   1.211   3.326 -0.0957  0.6520 -0.3780
  574THF     C9 8898   0.586   1.324   3.329 -0.4306  0.0245  0.7754
  574THF    H10 8899   0.428   1.208   3.409 -1.1289 -1.7034 -1.2650
  574THF    H11 8900   0.440   1.219   3.235  0.5153  0.4905 -0.7993
  574THF    H12 8901   0.539   1.405   3.274 -2.4909 -1.1273  0.7484
  574THF    H13 8902   0.602   1.367   3.428 -0.8474  1.8218  0.0895
  575THF     O1 8903   0.574   4.938   0.157  0.2398 -0.0735  0.3209
  575THF     C2 8904   0.640   4.987   0.269  0.3407 -0.1266  0.1938
  575THF     C3 8905   0.606   5.006   0.031  0.1631 -0.3814  0.5178
  575THF     H4 8906   0.694   4.910   0.325  0.6092  0.5389  0.8616
  575THF     H5 8907   0.569   5.035   0.336 -0.7151 -2.1305  0.5872
  575THF     H6 8908   0.679   4.953  -0.030  2.0679  2.3535  0.2084
  575THF     H7 8909   0.521   5.029  -0.033  1.2435  1.2372 -0.3919
  575THF     C8 8910   0.675   5.134   0.067 -0.6899 -0.2777  0.1038
  575THF     C9 8911   0.726   5.100   0.205  0.6617  0.2090  0.3790
  575THF    H10 8912   0.588   5.199   0.073 -0.4178  0.0481  0.6099
  575THF    H11 8913   0.754   5.183   0.010  1.4927 -1.5114  1.8708
  575THF    H12 8914   0.827   5.059   0.200  0.8405  0.7952 -1.2723
  575THF    H13 8915   0.734   5.193   0.262  1.3721  0.9386 -0.8772
  576THF     O1 8916   1.410   2.672   4.122 -0.0810  0.1084 -0.2800
  576THF     C2 8917   1.469   2.801   4.105 -0.1469  0.5705  0.5057
  576THF     C3 8918   1.507   2.593   4.191 -0.0790  0.3475  0.5656
  576THF     H4 8919   1.491   2.858   4.195  1.9488  1.7347 -0.6602
  576THF     H5 8920   1.410   2.855   4.032 -3.0655 -3.5845 -0.5906
  576THF     H6 8921   1.508   2.599   4.300  1.3564  0.4158  0.5696
  576THF     H7 8922   1.482   2.493   4.155  0.9515  0.2426  0.0935
  576THF     C8 8923   1.639   2.652   4.145 -0.2077  0.3746 -0.4641
  576THF     C9 8924   1.604   2.759   4.043  0.0947 -0.8426  0.2746
  576THF    H10 8925   1.699   2.584   4.083 -2.3109 -1.6340 -0.4422
  576THF    H11 8926   1.695   2.686   4.232 -1.4633 -0.4523  0.7071
  576THF    H12 8927   1.675   2.841   4.032 -0.0162 -0.8293 -0.3804
  576THF    H13 8928   1.586   2.723   3.941  0.6372  1.4349 -0.6969
  577THF     O1 8929   4.209   2.211   5.374 -0.5954  0.2124 -0.1937
  577THF     C2 8930   4.251   2.343   5.363 -0.3379  0.6454 -0.7211
  577THF     C3 8931   4.208   2.159   5.238 -0.2333 -0.0768 -0.2649
  577THF     H4 8932   4.280   2.395   5.454  0.4235  0.2467 -0.7346
  577THF     H5 8933   4.171   2.402   5.316 -1.8812  1.0343  2.1787
  577THF     H6 8934   4.221   2.052   5.225  0.1720 -0.0605 -0.0084
  577THF     H7 8935   4.118   2.189   5.184  0.7078  1.0853 -1.2434
  577THF     C8 8936   4.322   2.220   5.166  0.0670  0.2886  0.5829
  577THF     C9 8937   4.362   2.335   5.258 -0.6355  0.0570  0.0864
  577THF    H10 8938   4.292   2.253   5.066 -0.0985 -0.5717  0.3466
  577THF    H11 8939   4.403   2.148   5.155 -0.4697 -0.3912  0.9810
  577THF    H12 8940   4.453   2.300   5.308 -0.9943 -0.0428  0.6797
  577THF    H13 8941   4.379   2.429   5.205 -1.0813  0.5969  0.8862
  578THF     O1 8942   5.373   3.527   1.085  0.2354  0.4470  0.2435
  578THF     C2 8943   5.493   3.450   1.070 -0.0364  0.4600 -0.2188
  578THF     C3 8944   5.319   3.552   0.960 -0.2147 -0.1254  0.6992
  578THF     H4 8945   5.457   3.348   1.064 -0.5448  0.7142 -2.0843
  578THF     H5 8946   5.558   3.465   1.156 -0.5829  1.1333  0.0859
  578THF     H6 8947   5.213   3.530   0.948 -0.3264  1.6177 -2.9982
  578THF     H7 8948   5.317   3.661   0.952 -1.8855 -0.1740  0.2428
  578THF     C8 8949   5.415   3.489   0.858  0.0951 -0.3111  0.3433
  578THF     C9 8950   5.550   3.479   0.929  1.0047 -0.8473  0.0602
  578THF    H10 8951   5.410   3.541   0.763 -1.2199  0.3617  0.7532
  578THF    H11 8952   5.377   3.390   0.833 -1.4236  0.4852 -0.6667
  578THF    H12 8953   5.613   3.401   0.886 -0.7150 -0.8151 -2.7825
  578THF    H13 8954   5.606   3.573   0.931  0.9023 -0.7922  1.9375
  579THF     O1 8955   3.069   0.200   3.721 -0.3038 -0.1554  0.1344
  579THF     C2 8956   3.108   0.091   3.643 -0.5357 -0.9367  0.3076
  579THF     C3 8957   3.151   0.196   3.834  1.1863 -0.4765 -0.3638
  579THF     H4 8958   3.071   0.081   3.541  1.5810 -0.1787 -0.5698
  579THF     H5 8959   3.067   0.004   3.694 -1.4246 -0.9999 -0.4827
  579THF     H6 8960   3.135   0.282   3.899 -0.4177 -0.6359 -0.5276
  579THF     H7 8961   3.108   0.116   3.895 -1.6098  0.0410 -1.5399
  579THF     C8 8962   3.287   0.159   3.788 -0.2718  0.9405 -0.0492
  579THF     C9 8963   3.263   0.101   3.652 -0.2855  0.3819  0.5441
  579THF    H10 8964   3.319   0.098   3.872 -1.6031 -0.2190 -0.3551
  579THF    H11 8965   3.345   0.252   3.785 -2.0792  2.3300  2.8580
  579THF    H12 8966   3.312   0.148   3.567 -0.9903 -0.0725 -0.1275
  579THF    H13 8967   3.312   0.004   3.657  1.4826  1.1451 -0.8547
  580THF     O1 8968   2.239   2.776   0.447  0.6287 -0.4008 -0.2537
  580THF     C2 8969   2.136   2.689   0.495 -0.2921  0.2464 -0.1381
  580THF     C3 8970   2.318   2.814   0.560  0.4053  0.5140 -0.5921
  580THF     H4 8971   2.099   2.631   0.410  2.2234 -0.3932 -0.8646
  580THF     H5 8972   2.058   2.741   0.551 -0.2973  1.8838 -1.5538
  580THF     H6 8973   2.413   2.826   0.508  0.5798  1.1622 -0.1441
  580THF     H7 8974   2.280   2.906   0.606 -0.1995  2.0154 -3.8093
  580THF     C8 8975   2.309   2.693   0.659  0.3556 -0.2046  0.3692
  580THF     C9 8976   2.208   2.596   0.590 -0.0876 -0.5500  0.5159
  580THF    H10 8977   2.279   2.727   0.758 -0.5672 -0.1946  0.0952
  580THF    H11 8978   2.403   2.638   0.654  0.3389 -0.2691  0.7510
  580THF    H12 8979   2.274   2.525   0.540  0.6976 -1.7128  3.0209
  580THF    H13 8980   2.144   2.531   0.649 -1.9029  0.8885  0.2034
  581THF     O1 8981   0.570   5.448   2.143  0.3281 -0.0651 -0.1051
  581THF     C2 8982   0.430   5.426   2.160  0.1913 -1.1209 -1.0246
  581THF     C3 8983   0.625   5.332   2.085  0.3111  0.1060  0.3742
  581THF     H4 8984   0.380   5.519   2.186  1.9494 -0.4629  0.1693
  581THF     H5 8985   0.402   5.350   2.234  1.1113 -1.7985 -1.3614
  581THF     H6 8986   0.728   5.340   2.050 -0.8348  0.9879 -3.1607
  581THF     H7 8987   0.618   5.248   2.154 -1.0492  0.7795  1.1051
  581THF     C8 8988   0.525   5.319   1.969  0.6615  0.2093  0.3273
  581THF     C9 8989   0.392   5.373   2.021 -0.0421  0.4028  0.1801
  581THF    H10 8990   0.510   5.217   1.935  3.8154  0.1183 -1.1848
  581THF    H11 8991   0.573   5.377   1.890  1.5726 -0.9228  0.0151
  581THF    H12 8992   0.356   5.460   1.966 -0.1719  1.9355  2.5470
  581THF    H13 8993   0.317   5.296   2.037  1.5270 -0.8741  1.7610
  582THF     O1 8994   1.550   1.292   1.884  0.3263  0.5759  0.0502
  582THF     C2 8995   1.512   1.424   1.925 -0.0582 -0.3837  0.3112
  582THF     C3 8996   1.662   1.285   1.800 -0.3499 -0.3708  1.1997
  582THF     H4 8997   1.510   1.455   2.029 -1.3312 -0.0919  0.2160
  582THF     H5 8998   1.406   1.420   1.897 -0.3693 -1.8070  1.5684
  582THF     H6 8999   1.756   1.296   1.854 -0.8647  1.7946  1.7578
  582THF     H7 9000   1.649   1.200   1.734  0.5755  0.4094 -0.0265
  582THF     C8 9001   1.629   1.412   1.720 -0.5440  0.3826 -0.3097
  582THF     C9 9002   1.582   1.506   1.824 -0.5309 -0.6048  0.0192
  582THF    H10 9003   1.547   1.380   1.656 -0.1080 -0.8724 -0.2722
  582THF    H11 9004   1.720   1.437   1.665  1.3919 -1.7510  1.7204
  582THF    H12 9005   1.661   1.563   1.873 -0.3590  0.6650 -1.6274
  582THF    H13 9006   1.531   1.595   1.785  0.6019  0.1219  0.1702
  583THF     O1 9007   4.324   0.623   3.373 -0.0651  0.3276  0.3655
  583THF     C2 9008   4.307   0.485   3.354  0.0524  0.0518 -0.4013
  583THF     C3 9009   4.415   0.645   3.479  0.2233  0.1040  0.2290
  583THF     H4 9010   4.275   0.464   3.252  0.2662 -1.6852 -0.1386
  583THF     H5 9011   4.231   0.453   3.425 -0.2717  0.1044 -0.7223
  583THF     H6 9012   4.466   0.741   3.470  1.6724 -0.8003 -1.6480
  583THF     H7 9013   4.377   0.633   3.581  1.9437 -0.2597  0.8633
  583THF     C8 9014   4.521   0.542   3.438 -0.6832  0.7284  0.0097
  583THF     C9 9015   4.443   0.430   3.380  0.1221  0.5473 -0.2725
  583THF    H10 9016   4.580   0.515   3.526 -1.8674  1.7837  1.1838
  583THF    H11 9017   4.593   0.584   3.368 -1.2499 -1.5073 -2.0603
  583THF    H12 9018   4.496   0.391   3.293 -0.5477  2.3837 -1.5788
  583THF    H13 9019   4.442   0.344   3.446 -1.7464  0.5693 -0.2154
  584THF     O1 9020   3.338   3.112   2.117  0.4288  0.4182 -0.2385
  584THF     C2 9021   3.423   3.016   2.066  0.4073 -0.2985  0.0046
  584THF     C3 9022   3.414   3.238   2.107  0.4545  0.9501 -0.2849
  584THF     H4 9023   3.375   2.919   2.049  0.4710 -0.3607  0.1719
  584THF     H5 9024   3.492   2.980   2.142  0.1449  0.1141  0.4385
  584THF     H6 9025   3.351   3.327   2.110 -1.0921 -0.1475  1.4398
  584THF     H7 9026   3.486   3.248   2.189  0.1606 -1.0802  0.2621
  584THF     C8 9027   3.475   3.222   1.967 -0.7468 -0.0688 -0.2982
  584THF     C9 9028   3.489   3.074   1.942 -0.3016  0.2374 -0.2588
  584THF    H10 9029   3.570   3.275   1.966  0.4421 -2.0872  0.5616
  584THF    H11 9030   3.399   3.257   1.897 -2.0296  0.9937  1.5213
  584THF    H12 9031   3.434   3.053   1.850  0.1215  0.7063 -0.6224
  584THF    H13 9032   3.593   3.042   1.935  1.0138  4.0543 -0.1409
  585THF     O1 9033   1.656   5.243   0.308  0.2441  0.3265  0.1819
  585THF     C2 9034   1.518   5.268   0.304 -0.4290  0.0685  0.3976
  585THF     C3 9035   1.719   5.296   0.196 -0.0535 -0.1618  0.1414
  585THF     H4 9036   1.496   5.373   0.323 -1.0054  0.5439 -2.3811
  585THF     H5 9037   1.455   5.203   0.364 -0.8303 -1.1336 -1.2492
  585THF     H6 9038   1.756   5.394   0.225 -1.7004 -0.0924  2.2498
  585THF     H7 9039   1.797   5.226   0.167  0.9503  1.5443 -1.4703
  585THF     C8 9040   1.618   5.291   0.079  0.3187 -0.3921 -0.9048
  585THF     C9 9041   1.498   5.228   0.154 -0.9362  0.3426 -0.0306
  585THF    H10 9042   1.654   5.235  -0.007  1.9323 -0.5652 -0.1592
  585THF    H11 9043   1.575   5.383   0.041 -3.7188 -1.3494  0.7311
  585THF    H12 9044   1.405   5.251   0.101 -1.8569 -1.3969  0.7101
  585THF    H13 9045   1.511   5.123   0.129  0.4461  0.8573 -1.5732
  586THF     O1 9046   3.522   2.911   1.455 -0.2540  0.0101  0.4120
  586THF     C2 9047   3.447   2.982   1.551  0.4880 -0.0343  0.0751
  586THF     C3 9048   3.461   2.785   1.440  0.2504  0.2300  0.5608
  586THF     H4 9049   3.468   3.088   1.537 -0.7441  0.0536 -1.3995
  586THF     H5 9050   3.480   2.949   1.650 -0.4824  0.9379  0.7523
  586THF     H6 9051   3.488   2.742   1.343 -0.7561  2.1438 -0.6352
  586THF     H7 9052   3.478   2.717   1.524  0.0145  0.3115  0.6777
  586THF     C8 9053   3.307   2.832   1.436 -0.2874  0.1501  0.0779
  586THF     C9 9054   3.301   2.954   1.521 -0.0646 -0.5955 -0.2089
  586THF    H10 9055   3.243   2.753   1.475 -0.0188  1.1741  2.8117
  586THF    H11 9056   3.277   2.847   1.332  1.8303 -1.4539 -0.8504
  586THF    H12 9057   3.263   3.040   1.466  1.9355  0.8340  0.5067
  586THF    H13 9058   3.230   2.942   1.603 -0.8895  2.3108 -0.3750
  587THF     O1 9059   3.246   3.171   0.217 -0.0780  0.5861 -0.0627
  587THF     C2 9060   3.250   3.217   0.085  0.6912  0.4305  0.3667
  587THF     C3 9061   3.109   3.146   0.246 -0.5666  0.2624  0.7894
  587THF     H4 9062   3.350   3.207   0.045  0.7070  0.9593  0.2778
  587THF     H5 9063   3.210   3.317   0.074 -1.5080 -0.5851 -2.1089
  587THF     H6 9064   3.091   3.076   0.328 -3.8025  2.2151  1.9401
  587THF     H7 9065   3.064   3.238   0.283  0.3712  2.4171 -2.9432
  587THF     C8 9066   3.047   3.112   0.115  0.2520  0.5743  0.1804
  587THF     C9 9067   3.145   3.128   0.010 -0.3171 -0.7412 -0.0402
  587THF    H10 9068   2.961   3.179   0.115  0.9917  1.5541  1.2471
  587THF    H11 9069   3.019   3.006   0.117  1.1114  0.3014 -0.8361
  587THF    H12 9070   3.190   3.033  -0.020 -0.2988 -0.9104  0.5011
  587THF    H13 9071   3.106   3.178  -0.078  1.4290  1.8855  0.5784
  588THF     O1 9072   5.453   3.014   3.910  1.1681  0.3591  0.0050
  588THF     C2 9073   5.540   2.944   4.000 -0.3763 -0.0048  0.2819
  588THF     C3 9074   5.509   3.140   3.876 -0.1345 -0.3501 -0.0105
  588THF     H4 9075   5.529   2.836   4.010  1.1825 -0.0619  1.8253
  588THF     H5 9076   5.531   2.974   4.105  1.1268 -2.4332  1.1786
  588THF     H6 9077   5.488   3.164   3.772  2.3308 -0.9995 -0.7123
  588THF     H7 9078   5.463   3.209   3.947  1.2295 -0.5744  1.1516
  588THF     C8 9079   5.660   3.134   3.903 -0.8169 -0.0148 -0.4040
  588THF     C9 9080   5.677   2.996   3.964  0.0490  0.1114 -0.2769
  588THF    H10 9081   5.684   3.216   3.970 -1.9306  1.0390 -1.2305
  588THF    H11 9082   5.731   3.144   3.821  0.5603 -3.3352  0.1966
  588THF    H12 9083   5.717   2.942   3.878  1.8124 -0.8047  1.0515
  588THF    H13 9084   5.745   2.990   4.049 -0.3711 -1.6160 -0.0303
  589THF     O1 9085   4.923   3.012   3.286  0.2199 -0.2594 -0.1337
  589THF     C2 9086   4.812   3.079   3.216 -0.7298  0.3222  0.4523
  589THF     C3 9087   4.884   2.982   3.419 -0.3167 -0.2845 -0.4829
  589THF     H4 9088   4.732   3.007   3.196 -0.6015 -0.2020  1.7142
  589THF     H5 9089   4.842   3.110   3.116 -0.0867  0.4248  0.6790
  589THF     H6 9090   4.847   2.881   3.435  0.1057 -0.0232  2.8886
  589THF     H7 9091   4.974   2.992   3.480  0.8172 -1.5471 -1.8697
  589THF     C8 9092   4.770   3.080   3.443 -0.4324 -0.4349  0.8272
  589THF     C9 9093   4.769   3.174   3.319  0.0839  0.3069  0.2777
  589THF    H10 9094   4.774   3.135   3.537  0.4310  1.4359 -0.2322
  589THF    H11 9095   4.675   3.027   3.444  0.1943 -1.5995  2.2568
  589THF    H12 9096   4.669   3.215   3.304 -0.1835 -0.4069  0.0472
  589THF    H13 9097   4.841   3.253   3.340  0.1724 -0.4341  3.1969
  590THF     O1 9098   5.354   3.936   5.430 -0.5300  0.4963 -0.0499
  590THF     C2 9099   5.240   3.888   5.490  0.0196  0.5356 -0.0702
  590THF     C3 9100   5.380   4.066   5.481  0.5659  0.5312 -0.9801
  590THF     H4 9101   5.238   3.779   5.479 -0.3709  0.0830  3.3746
  590THF     H5 9102   5.159   3.918   5.424  2.2475  1.2916 -2.6841
  590THF     H6 9103   5.487   4.073   5.504  0.2768 -0.0672  0.6812
  590THF     H7 9104   5.350   4.138   5.405 -0.6735 -0.7063 -1.6997
  590THF     C8 9105   5.287   4.093   5.603 -0.1426  0.4437  0.6150
  590THF     C9 9106   5.238   3.950   5.630 -0.6452 -0.2046 -0.4068
  590THF    H10 9107   5.214   4.167   5.572  2.4767  2.4538 -1.1135
  590THF    H11 9108   5.330   4.135   5.694 -2.1478  1.6956  1.0480
  590THF    H12 9109   5.315   3.897   5.686  0.4800 -0.5349 -2.2053
  590THF    H13 9110   5.138   3.945   5.673 -1.2540  1.7795 -1.4625
  591THF     O1 9111   1.138   5.050   0.979 -0.2447  0.2590 -0.3902
  591THF     C2 9112   1.208   5.172   0.954  0.1515 -0.0581  0.0348
  591THF     C3 9113   1.095   5.057   1.109 -0.5087  0.1653 -0.6173
  591THF     H4 9114   1.143   5.246   0.908 -2.1461 -0.9965  1.5571
  591THF     H5 9115   1.283   5.162   0.876 -0.8270 -0.3275 -0.8983
  591THF     H6 9116   0.992   5.091   1.117 -1.6764 -3.1292  0.1226
  591THF     H7 9117   1.093   4.950   1.133 -0.8723 -0.3805 -2.9182
  591THF     C8 9118   1.198   5.133   1.191 -0.5742  0.0405  0.7920
  591THF     C9 9119   1.277   5.208   1.087 -0.4067 -0.5760 -0.7359
  591THF    H10 9120   1.272   5.063   1.230  0.8224  1.9933  1.8360
  591THF    H11 9121   1.165   5.196   1.274  0.1271  1.8995 -0.2753
  591THF    H12 9122   1.279   5.316   1.102 -1.3093 -0.6864  0.3240
  591THF    H13 9123   1.380   5.174   1.095 -0.1176  0.4173 -0.0838
  592THF     O1 9124   2.883   2.280   5.395  0.2691  0.5281  0.4394
  592THF     C2 9125   3.004   2.281   5.320 -0.3169 -0.1410  0.0427
  592THF     C3 9126   2.876   2.159   5.474 -0.3932 -0.3868 -0.8010
  592THF     H4 9127   3.070   2.296   5.405 -0.1924 -0.8935  0.0910
  592THF     H5 9128   3.016   2.359   5.245  0.2810 -0.4228 -0.1644
  592THF     H6 9129   2.912   2.179   5.575  0.2369  1.0575 -1.2806
  592THF     H7 9130   2.777   2.114   5.484  0.3128 -2.3491 -1.9485
  592THF     C8 9131   2.965   2.061   5.396  0.7719 -0.0742 -0.1719
  592THF     C9 9132   3.010   2.135   5.274  0.5790  0.8284 -0.0185
  592THF    H10 9133   2.916   1.971   5.360  2.0454 -1.4757  1.4279
  592THF    H11 9134   3.052   2.023   5.450  0.4085 -1.3491 -0.4462
  592THF    H12 9135   3.107   2.100   5.238 -0.4519 -0.9099 -1.2680
  592THF    H13 9136   2.935   2.113   5.198 -1.4747 -2.1505  2.5974
  593THF     O1 9137   4.810   1.522   3.299 -0.9555  0.4800 -0.7355
  593THF     C2 9138   4.942   1.489   3.245  0.5348  0.9469  0.3548
  593THF     C3 9139   4.803   1.660   3.324 -0.0600 -0.1135  0.0943
  593THF     H4 9140   4.924   1.437   3.151  2.8421  1.9642 -0.7265
  593THF     H5 9141   5.003   1.424   3.307 -0.1667 -0.9004 -0.7961
  593THF     H6 9142   4.743   1.712   3.250  0.2325 -0.6032 -0.4886
  593THF     H7 9143   4.756   1.676   3.421  0.3881 -1.8796  0.6393
  593THF     C8 9144   4.945   1.707   3.329  0.3917  0.2992 -0.1481
  593THF     C9 9145   5.014   1.620   3.226  0.4406 -0.0341 -0.0877
  593THF    H10 9146   4.970   1.681   3.432 -2.0024  0.4581  0.5442
  593THF    H11 9147   4.975   1.811   3.315  1.7912 -0.1633 -0.6840
  593THF    H12 9148   4.994   1.660   3.127 -0.1855 -0.2799 -0.0690
  593THF    H13 9149   5.122   1.616   3.242  0.6059  0.1302 -1.1027
  594THF     O1 9150   0.143   4.223   0.270  0.3332  0.3302 -0.5343
  594THF     C2 9151   0.232   4.334   0.257  0.3665 -0.2542  0.1714
  594THF     C3 9152   0.197   4.133   0.368 -1.0465 -0.0356 -0.0167
  594THF     H4 9153   0.191   4.425   0.212  1.0612 -0.8319 -1.7692
  594THF     H5 9154   0.315   4.296   0.196  0.1388  1.5006 -1.3022
  594THF     H6 9155   0.126   4.072   0.423 -2.1941  1.3830  0.1311
  594THF     H7 9156   0.252   4.067   0.300 -1.1380 -0.7671  0.6180
  594THF     C8 9157   0.290   4.221   0.458 -0.0035  0.5009 -0.5480
  594THF     C9 9158   0.291   4.359   0.395 -0.3410 -1.1300 -0.0602
  594THF    H10 9159   0.387   4.172   0.469 -1.0242 -1.7883 -0.9728
  594THF    H11 9160   0.248   4.231   0.558  1.2534 -1.3565  0.2276
  594THF    H12 9161   0.229   4.422   0.458  0.8016 -0.5705  0.5386
  594THF    H13 9162   0.389   4.406   0.387 -1.2605  0.8714 -0.5353
  595THF     O1 9163   1.266   3.068   3.463 -0.4417 -0.4288  0.3682
  595THF     C2 9164   1.188   3.178   3.427 -0.1281  0.6484 -0.0723
  595THF     C3 9165   1.400   3.103   3.463  0.1285 -0.0532  0.0621
  595THF     H4 9166   1.160   3.240   3.512  0.4646  0.4416  0.2780
  595THF     H5 9167   1.103   3.149   3.366  0.6282 -0.8958 -0.4407
  595THF     H6 9168   1.432   3.168   3.544 -1.8791  1.0393  0.0475
  595THF     H7 9169   1.452   3.008   3.455 -1.4449 -1.0669  1.1629
  595THF     C8 9170   1.403   3.187   3.336 -0.2040  0.0743 -0.0998
  595THF     C9 9171   1.274   3.259   3.333 -0.5390 -0.1825  0.1545
  595THF    H10 9172   1.429   3.116   3.257  0.1430  1.3808 -1.1940
  595THF    H11 9173   1.487   3.256   3.342  0.2931 -0.5061 -0.2145
  595THF    H12 9174   1.292   3.359   3.373  0.4950 -0.1999 -0.2247
  595THF    H13 9175   1.238   3.267   3.230 -0.2940  1.0010  0.1417
  596THF     O1 9176   1.990   3.701   4.999  0.3898  0.1376 -0.0277
  596THF     C2 9177   1.919   3.759   4.890  0.2098  0.0710  0.6375
  596THF     C3 9178   2.128   3.676   4.954  0.4115 -0.1067 -0.2605
  596THF     H4 9179   1.925   3.867   4.901  1.1024  0.3693 -2.0026
  596THF     H5 9180   1.811   3.740   4.896 -0.5586  2.8790 -1.9388
  596THF     H6 9181   2.189   3.739   5.020  0.5759 -0.3965 -0.1342
  596THF     H7 9182   2.144   3.571   4.976 -1.1266 -0.2421  0.3179
  596THF     C8 9183   2.132   3.716   4.806 -0.4118 -0.1568  0.0425
  596THF     C9 9184   1.990   3.699   4.765  0.0086 -0.2244 -0.0557
  596THF    H10 9185   2.201   3.656   4.746 -0.3276 -0.6269  0.6042
  596THF    H11 9186   2.161   3.821   4.796 -1.1512  0.0144 -0.3607
  596THF    H12 9187   1.961   3.759   4.679 -0.9543  0.3234  0.6252
  596THF    H13 9188   1.958   3.597   4.748  0.2091 -0.1886 -0.6928
  597THF     O1 9189   3.269   0.473   1.991  0.3638 -0.2131  0.1512
  597THF     C2 9190   3.277   0.408   2.115 -0.6128 -0.7208 -0.0519
  597THF     C3 9191   3.232   0.604   2.012  0.2688 -0.8081  0.0138
  597THF     H4 9192   3.339   0.319   2.108 -0.7306 -1.0345  2.3224
  597THF     H5 9193   3.181   0.371   2.152  0.1291 -2.2109  0.4520
  597THF     H6 9194   3.240   0.667   1.923 -2.4079  0.2950  0.4602
  597THF     H7 9195   3.130   0.608   2.049  0.8645 -0.5887  1.7277
  597THF     C8 9196   3.325   0.654   2.123 -0.2822 -0.1143 -0.0521
  597THF     C9 9197   3.344   0.520   2.199 -0.0598  0.6027  0.1746
  597THF    H10 9198   3.276   0.735   2.177  0.8919  0.8071 -0.3153
  597THF    H11 9199   3.411   0.694   2.070  0.0387  0.8145  1.1192
  597THF    H12 9200   3.451   0.500   2.195 -0.0110  1.0124 -0.7289
  597THF    H13 9201   3.300   0.510   2.299  0.6831 -1.2931  0.3694
  598THF     O1 9202   2.771   2.618   5.429 -0.2967 -0.1613 -1.1312
  598THF     C2 9203   2.679   2.523   5.405  0.7208  0.2098 -0.0386
  598THF     C3 9204   2.835   2.602   5.565 -0.3047 -0.2059  0.3685
  598THF     H4 9205   2.728   2.441   5.352  1.6335 -0.5604  1.9047
  598THF     H5 9206   2.605   2.583   5.352  0.6633  0.4498  0.3089
  598THF     H6 9207   2.908   2.524   5.543  0.0409  0.3105 -0.3826
  598THF     H7 9208   2.881   2.691   5.608  1.3743 -0.4733 -0.7600
  598THF     C8 9209   2.715   2.559   5.644  0.0107  0.3077  0.0969
  598THF     C9 9210   2.638   2.474   5.541 -1.0153  0.6667 -0.5247
  598THF    H10 9211   2.655   2.647   5.666  1.0322  0.6784  1.6132
  598THF    H11 9212   2.739   2.499   5.732  0.4094 -1.4450 -1.1451
  598THF    H12 9213   2.676   2.373   5.558 -2.0510  0.5418  1.3671
  598THF    H13 9214   2.530   2.466   5.553 -0.8152  1.1642  2.4811
  599THF     O1 9215   4.709   0.597   0.992 -0.8276  1.1921  0.3956
  599THF     C2 9216   4.641   0.478   0.957  0.1130  0.2078  0.2336
  599THF     C3 9217   4.684   0.628   1.128 -0.5254  0.4757 -0.1323
  599THF     H4 9218   4.683   0.435   0.866  1.3501 -0.5638  1.1381
  599THF     H5 9219   4.537   0.507   0.938  0.3877  1.8055  0.9434
  599THF     H6 9220   4.758   0.692   1.177 -0.9455  0.9268 -0.0798
  599THF     H7 9221   4.587   0.678   1.128 -1.1491 -0.6261 -1.8039
  599THF     C8 9222   4.681   0.489   1.191  0.5159  0.2286  0.0218
  599THF     C9 9223   4.675   0.388   1.076 -0.0551 -0.4543  0.2291
  599THF    H10 9224   4.596   0.467   1.256  0.1762 -0.5498 -0.6717
  599THF    H11 9225   4.777   0.473   1.241  0.4446  1.2125  0.4897
  599THF    H12 9226   4.771   0.339   1.059 -0.0227 -0.7073  1.0898
  599THF    H13 9227   4.598   0.311   1.088 -1.0667 -0.3097 -3.8392
  600THF     O1 9228   5.172   2.096   1.523  0.9940 -0.2335 -0.1019
  600THF     C2 9229   5.154   2.079   1.662 -0.2573  0.4599  0.6078
  600THF     C3 9230   5.266   2.202   1.504  0.0139  0.9105  0.1631
  600THF     H4 9231   5.228   2.010   1.704 -1.3556 -0.9617  0.3133
  600THF     H5 9232   5.055   2.035   1.678  0.8575 -2.0877  1.1041
  600THF     H6 9233   5.359   2.166   1.459  1.0044  1.8261  1.3883
  600THF     H7 9234   5.225   2.256   1.418  1.9846  0.0948 -1.3728
  600THF     C8 9235   5.273   2.278   1.630 -0.5515  0.1761 -0.3895
  600THF     C9 9236   5.167   2.217   1.718  0.4705  0.3664 -0.1046
  600THF    H10 9237   5.262   2.384   1.608  0.3500  0.5478  0.8866
  600THF    H11 9238   5.373   2.266   1.671 -0.9682 -2.9455 -0.0592
  600THF    H12 9239   5.194   2.222   1.824 -0.2552 -0.6971  0.1530
  600THF    H13 9240   5.072   2.267   1.703  0.6785  0.2875 -1.8419
  601THF     O1 9241   1.988   2.155   0.457  0.1760  0.0801  0.8108
  601THF     C2 9242   1.903   2.176   0.347 -0.4843 -0.5255  0.7393
  601THF     C3 9243   1.938   2.224   0.573 -0.6351  0.4469  1.0967
  601THF     H4 9244   1.830   2.096   0.340  0.4923 -1.3076 -2.5703
  601THF     H5 9245   1.963   2.173   0.256 -0.1437 -0.9064  0.9720
  601THF     H6 9246   1.863   2.154   0.611  0.4188 -1.9858 -1.0018
  601THF     H7 9247   2.012   2.237   0.652  0.9207  1.9528 -0.5010
  601THF     C8 9248   1.879   2.350   0.517 -0.1803 -0.5154 -0.2307
  601THF     C9 9249   1.843   2.316   0.374 -0.2682  0.1353  0.2040
  601THF    H10 9250   1.949   2.434   0.516 -1.3109  0.4914 -2.3993
  601THF    H11 9251   1.784   2.380   0.562  1.0884  2.1308  0.9239
  601THF    H12 9252   1.736   2.308   0.353  0.3134 -1.6667 -2.5444
  601THF    H13 9253   1.871   2.384   0.294 -2.4265  0.1413 -0.6212
  602THF     O1 9254   1.786   5.113   2.258  0.1802 -0.0991  0.0395
  602THF     C2 9255   1.834   4.984   2.224  0.9438 -0.8968 -0.2162
  602THF     C3 9256   1.649   5.094   2.285  0.3129  0.4337 -0.2259
  602THF     H4 9257   1.916   4.951   2.287  0.9111 -0.2119  0.1982
  602THF     H5 9258   1.878   4.998   2.125  2.1346 -3.2921 -0.1085
  602THF     H6 9259   1.642   5.063   2.389  1.2078  1.2735  0.0940
  602THF     H7 9260   1.589   5.185   2.278  1.3928  1.5090  2.9078
  602THF     C8 9261   1.595   4.978   2.204  0.4676  0.0320  0.1311
  602THF     C9 9262   1.710   4.886   2.221 -0.0087 -0.4362 -0.4812
  602THF    H10 9263   1.575   5.007   2.101  0.6493 -0.2255  0.0218
  602THF    H11 9264   1.508   4.930   2.248  0.2266  0.8481  0.5603
  602THF    H12 9265   1.706   4.852   2.324  0.2014 -0.1055 -0.3634
  602THF    H13 9266   1.728   4.809   2.146 -0.1815  0.6996 -1.7253
  603THF     O1 9267   2.426   1.997   5.215  0.1353  0.3958  0.2689
  603THF     C2 9268   2.286   2.036   5.217  0.0955  0.1672  0.3710
  603THF     C3 9269   2.500   2.105   5.265 -0.3512 -0.4243 -0.2157
  603THF     H4 9270   2.226   1.947   5.204 -2.3946  1.9981 -1.5567
  603THF     H5 9271   2.273   2.087   5.121 -2.9127  2.2120  1.7093
  603THF     H6 9272   2.575   2.059   5.329 -0.4891 -1.5695 -0.8458
  603THF     H7 9273   2.541   2.163   5.182 -0.4126 -0.7166 -0.4511
  603THF     C8 9274   2.406   2.189   5.358 -0.0862  0.1061 -0.0178
  603THF     C9 9275   2.265   2.136   5.334 -0.1335 -0.3521  0.2808
  603THF    H10 9276   2.409   2.296   5.339 -0.6734 -0.2091 -2.1745
  603THF    H11 9277   2.441   2.177   5.460 -1.7763 -0.7692  0.4969
  603THF    H12 9278   2.227   2.079   5.419 -1.1401 -0.0323  0.0559
  603THF    H13 9279   2.193   2.213   5.309  0.8550  0.3189 -0.5930
  604THF     O1 9280   1.133   1.927   0.281  0.3718 -0.1881  0.1531
  604THF     C2 9281   1.000   1.881   0.241 -0.2647  0.0048 -0.0627
  604THF     C3 9282   1.236   1.851   0.212  0.3487  0.3619 -0.1805
  604THF     H4 9283   0.973   1.923   0.144 -2.2658 -0.3663  0.2740
  604THF     H5 9284   0.933   1.912   0.321  3.6723  2.0401  2.7651
  604THF     H6 9285   1.271   1.897   0.120  0.5541 -0.1129 -0.3407
  604THF     H7 9286   1.316   1.841   0.285  0.6820  0.2537 -0.5610
  604THF     C8 9287   1.167   1.713   0.188  0.0895  0.3006 -0.4238
  604THF     C9 9288   1.030   1.734   0.251 -0.1781 -0.1228 -0.2371
  604THF    H10 9289   1.219   1.629   0.234 -0.7268 -0.4049 -0.7422
  604THF    H11 9290   1.163   1.698   0.080 -1.6936 -0.5505 -0.2855
  604THF    H12 9291   0.950   1.672   0.211 -0.5447  1.0805 -1.4236
  604THF    H13 9292   1.028   1.710   0.357 -1.9987 -2.4219 -0.7108
  605THF     O1 9293   5.324   1.994   0.678 -0.7054  0.4951  0.0169
  605THF     C2 9294   5.214   1.902   0.680 -0.0671 -0.1037 -0.4685
  605THF     C3 9295   5.399   1.963   0.794 -0.0807 -0.2938  0.0591
  605THF     H4 9296   5.245   1.812   0.627  4.5930  1.1742 -0.4211
  605THF     H5 9297   5.121   1.934   0.635  0.0647  1.1789  0.1209
  605THF     H6 9298   5.482   1.898   0.764  1.4356  0.7808  1.7247
  605THF     H7 9299   5.433   2.059   0.833 -1.4340  0.5314 -0.7110
  605THF     C8 9300   5.308   1.897   0.898  0.2692  0.0094 -0.7912
  605THF     C9 9301   5.173   1.889   0.825 -0.1053  0.1145 -0.6291
  605THF    H10 9302   5.299   1.934   1.000  0.0678 -1.1533 -0.3759
  605THF    H11 9303   5.345   1.797   0.919 -0.9413 -0.1757  0.5816
  605THF    H12 9304   5.103   1.810   0.849  1.1344 -0.8544 -0.0795
  605THF    H13 9305   5.122   1.982   0.852 -0.3904  0.1833 -1.3674
  606THF     O1 9306   1.915   4.853   3.131  0.1009 -0.0580  0.0933
  606THF     C2 9307   1.828   4.736   3.165 -0.2332 -0.1067 -0.3698
  606THF     C3 9308   2.037   4.832   3.191 -1.1345  0.5887 -0.1060
  606THF     H4 9309   1.854   4.654   3.099  0.5229  1.1783 -1.7218
  606THF     H5 9310   1.728   4.778   3.159  0.0454  0.4907 -0.9798
  606THF     H6 9311   2.086   4.744   3.150 -0.3207 -0.2550  2.4868
  606THF     H7 9312   2.106   4.916   3.191 -1.0946  0.6173  1.9893
  606THF     C8 9313   1.997   4.794   3.328 -0.2444  0.7732 -0.2129
  606THF     C9 9314   1.869   4.706   3.309 -0.2955  0.1292 -0.6990
  606THF    H10 9315   1.971   4.886   3.380  1.3779  2.5661 -2.3570
  606THF    H11 9316   2.069   4.747   3.396  0.2754 -0.7091 -1.6972
  606THF    H12 9317   1.870   4.598   3.328 -0.6146  0.4042  1.1042
  606THF    H13 9318   1.783   4.750   3.361 -0.4325 -1.7907  0.7973
  607THF     O1 9319   2.848   2.826   0.595 -0.5217 -0.1009 -0.8751
  607THF     C2 9320   2.964   2.764   0.537  0.3302 -0.2674  0.5827
  607THF     C3 9321   2.750   2.727   0.608  0.2664 -0.4624  0.0741
  607THF     H4 9322   3.030   2.721   0.612 -2.2425 -1.3721  2.3767
  607THF     H5 9323   3.031   2.830   0.482 -0.9437  0.5294 -0.0684
  607THF     H6 9324   2.763   2.657   0.690  1.1952 -2.4607 -1.6703
  607THF     H7 9325   2.654   2.777   0.621  1.6085  1.8639  1.5994
  607THF     C8 9326   2.748   2.643   0.478 -0.1538 -0.0594  0.1036
  607THF     C9 9327   2.901   2.646   0.456 -0.0779  0.5708 -0.9359
  607THF    H10 9328   2.693   2.694   0.398 -0.1134 -0.3397 -0.1058
  607THF    H11 9329   2.712   2.541   0.494  1.2551 -0.8820 -1.6855
  607THF    H12 9330   2.942   2.549   0.483  1.4884  1.7110  1.0769
  607THF    H13 9331   2.928   2.651   0.351  2.1819  1.9198 -0.3707
  608THF     O1 9332   2.989   0.460   0.350 -0.1233  0.7529 -0.1496
  608THF     C2 9333   2.909   0.580   0.325 -0.2192  0.1981 -0.9403
  608THF     C3 9334   3.023   0.401   0.228 -0.0473  0.9652 -0.9043
  608THF     H4 9335   2.921   0.644   0.412  1.7828 -2.7006  1.1073
  608THF     H5 9336   2.814   0.535   0.297  0.0997 -0.8104 -0.4605
  608THF     H6 9337   3.114   0.341   0.233  0.3517  1.5004 -1.4559
  608THF     H7 9338   2.943   0.339   0.189  1.8870 -2.3587  0.0475
  608THF     C8 9339   3.041   0.532   0.142  0.3135 -0.1122 -0.1349
  608THF     C9 9340   2.965   0.643   0.203 -0.3668 -0.0082 -0.1351
  608THF    H10 9341   3.036   0.528   0.033 -1.6210  0.6728 -0.1052
  608THF    H11 9342   3.146   0.552   0.163 -0.5730  3.9554  1.4215
  608THF    H12 9343   3.035   0.722   0.230 -0.4052  0.1850 -0.5941
  608THF    H13 9344   2.885   0.693   0.149 -0.2439  1.4665  0.9696
  609THF     O1 9345   2.059   0.217   2.709  0.2174  0.0479  0.5395
  609THF     C2 9346   2.193   0.209   2.663 -0.1543  0.3492  0.0595
  609THF     C3 9347   2.066   0.175   2.846 -0.6443 -0.3347  0.4013
  609THF     H4 9348   2.193   0.273   2.575 -4.9830  0.0232 -0.4452
  609THF     H5 9349   2.206   0.102   2.646 -0.1101  0.4007 -0.2329
  609THF     H6 9350   1.971   0.207   2.890 -1.1077  0.4648 -1.1204
  609THF     H7 9351   2.067   0.066   2.852 -2.8013 -0.4069  0.2287
  609THF     C8 9352   2.195   0.236   2.900  0.2333  0.2853  0.5540
  609THF     C9 9353   2.279   0.266   2.778  0.5505 -0.0123  0.6458
  609THF    H10 9354   2.230   0.183   2.988 -2.5569 -1.4899  0.7152
  609THF    H11 9355   2.158   0.333   2.935 -1.0383  0.8849 -2.1557
  609THF    H12 9356   2.298   0.372   2.762 -0.9302  0.6358  2.7166
  609THF    H13 9357   2.376   0.216   2.785  0.1914 -0.7920  0.2389
  610THF     O1 9358   0.402   2.433   1.618  0.4185 -0.0608 -0.6241
  610THF     C2 9359   0.358   2.566   1.617 -0.4043  0.0280 -0.2648
  610THF     C3 9360   0.299   2.349   1.671  0.3181  0.0578 -0.3331
  610THF     H4 9361   0.426   2.630   1.561 -1.6426  1.2869 -0.4056
  610THF     H5 9362   0.366   2.600   1.720 -0.8816 -2.1973  0.5560
  610THF     H6 9363   0.307   2.247   1.633  1.0534  0.7734 -2.2208
  610THF     H7 9364   0.299   2.349   1.780  1.1034 -0.0672 -0.3269
  610THF     C8 9365   0.177   2.402   1.600  0.7437 -0.2821 -0.0065
  610THF     C9 9366   0.215   2.547   1.579  0.0526  0.0570  0.1749
  610THF    H10 9367   0.087   2.383   1.659 -0.1540  0.1836 -1.1794
  610THF    H11 9368   0.171   2.357   1.501  0.8575  0.2965 -0.2806
  610THF    H12 9369   0.213   2.573   1.473 -0.0915  3.6929  0.9420
  610THF    H13 9370   0.145   2.620   1.621 -1.5748 -0.1987 -1.9160
  611THF     O1 9371   0.297   0.048   4.150  0.4224 -0.5331  0.2279
  611THF     C2 9372   0.262  -0.026   4.262 -0.3415 -0.0245  0.4658
  611THF     C3 9373   0.405  -0.021   4.082  0.3161 -0.5977  0.1300
  611THF     H4 9374   0.168   0.011   4.303 -0.6219  0.8849 -0.9319
  611THF     H5 9375   0.345  -0.013   4.330  0.9077  0.0788 -1.0278
  611THF     H6 9376   0.432   0.022   3.986  0.2159 -0.7265  0.0437
  611THF     H7 9377   0.492  -0.017   4.147  0.4355 -0.9762 -0.0081
  611THF     C8 9378   0.353  -0.164   4.079 -0.2877  0.8781 -0.3523
  611THF     C9 9379   0.265  -0.166   4.201  0.1895  0.2583  0.3706
  611THF    H10 9380   0.435  -0.234   4.060  0.1424  1.6075 -1.3065
  611THF    H11 9381   0.300  -0.167   3.984  1.3234  0.7541 -1.2881
  611THF    H12 9382   0.159  -0.191   4.191  0.4404 -2.2154  2.6582
  611THF    H13 9383   0.314  -0.240   4.264 -1.5208 -0.4313  0.9419
  612THF     O1 9384   2.251   1.826   0.422  0.2803 -0.1767 -0.0850
  612THF     C2 9385   2.308   1.695   0.422  0.5285  0.3881 -0.0460
  612THF     C3 9386   2.202   1.848   0.553 -0.3186 -0.2045 -0.1614
  612THF     H4 9387   2.415   1.694   0.443  0.4313  0.1301  0.4609
  612THF     H5 9388   2.290   1.661   0.320  1.9918  0.8487 -0.4860
  612THF     H6 9389   2.291   1.860   0.616  0.7395 -0.8126 -1.4787
  612THF     H7 9390   2.141   1.935   0.573  0.2223 -0.3841  2.7871
  612THF     C8 9391   2.133   1.714   0.582  0.3607  0.0469 -0.0685
  612THF     C9 9392   2.224   1.615   0.521  0.0873  0.6292 -0.2889
  612THF    H10 9393   2.032   1.703   0.544  0.4670  0.0861 -0.3657
  612THF    H11 9394   2.120   1.691   0.688 -1.7133 -0.4458 -0.3999
  612THF    H12 9395   2.295   1.583   0.597  0.6308  0.1373 -0.9856
  612THF    H13 9396   2.175   1.527   0.480 -0.1903  1.1047 -1.0000
  613THF     O1 9397   0.946   1.173   1.911  0.0340  0.4036 -0.2237
  613THF     C2 9398   1.031   1.062   1.911  0.6064  0.1540 -0.0274
  613THF     C3 9399   1.008   1.267   1.836  0.0371  0.2153 -0.0779
  613THF     H4 9400   1.037   1.010   1.816 -0.1221  1.3146 -0.7354
  613THF     H5 9401   1.007   0.980   1.979  1.8486 -2.3431 -2.3892
  613THF     H6 9402   0.991   1.239   1.732  2.0286 -0.8540 -0.1689
  613THF     H7 9403   0.955   1.361   1.849 -2.8903 -1.2823 -0.5327
  613THF     C8 9404   1.156   1.270   1.883  0.5755  0.4102 -0.2489
  613THF     C9 9405   1.174   1.131   1.929 -0.3642 -0.3188 -0.8674
  613THF    H10 9406   1.180   1.343   1.960  1.0499 -1.0865  1.0778
  613THF    H11 9407   1.222   1.277   1.797 -0.6909 -1.2928 -1.4372
  613THF    H12 9408   1.257   1.076   1.886  0.6832  1.7445 -1.6145
  613THF    H13 9409   1.200   1.139   2.034  1.4809 -1.6225 -1.1753
  614THF     O1 9410   5.424   4.827   2.308 -0.2432 -0.0754 -0.2381
  614THF     C2 9411   5.397   4.704   2.247  0.5041  0.2913 -0.1182
  614THF     C3 9412   5.385   4.924   2.212 -0.3886  0.5972  0.0866
  614THF     H4 9413   5.296   4.669   2.272  0.6450  0.8487  1.3837
  614THF     H5 9414   5.463   4.628   2.287 -0.2036 -0.2764 -0.0097
  614THF     H6 9415   5.283   4.954   2.235 -0.2868 -0.1265  1.6247
  614THF     H7 9416   5.452   5.006   2.235  1.0387 -0.4659 -0.1553
  614THF     C8 9417   5.404   4.869   2.068  0.3540 -0.1408  0.6525
  614THF     C9 9418   5.431   4.725   2.095  0.1767  0.1152 -0.8023
  614THF    H10 9419   5.482   4.917   2.009 -0.9527  2.5331  0.9068
  614THF    H11 9420   5.311   4.890   2.014  0.5403  0.6426  0.6138
  614THF    H12 9421   5.376   4.649   2.039  0.4873 -1.2000  0.6032
  614THF    H13 9422   5.538   4.704   2.087 -0.2505 -2.6487 -0.3015
  615THF     O1 9423   5.154   1.720   4.431 -0.6920  0.2977 -0.1249
  615THF     C2 9424   5.122   1.707   4.298  0.7711 -0.3539 -0.5270
  615THF     C3 9425   5.192   1.858   4.450 -0.0626  0.4499  0.0172
  615THF     H4 9426   5.043   1.634   4.277 -1.6989  1.9637  0.1331
  615THF     H5 9427   5.215   1.663   4.261  0.7420 -1.3783  0.5467
  615THF     H6 9428   5.131   1.896   4.532  1.0859 -1.8773  2.0713
  615THF     H7 9429   5.292   1.853   4.492 -0.1314 -1.5767  0.0563
  615THF     C8 9430   5.185   1.932   4.312 -1.1339 -0.4586  0.0565
  615THF     C9 9431   5.097   1.842   4.232 -0.3998 -0.3033 -0.1902
  615THF    H10 9432   5.282   1.928   4.262 -1.4026  0.7229 -0.6032
  615THF    H11 9433   5.159   2.037   4.328 -0.6259 -0.3576  0.2525
  615THF    H12 9434   4.998   1.885   4.240 -1.7887 -2.8170 -2.2055
  615THF    H13 9435   5.118   1.844   4.125 -2.3481  1.8827 -0.5976
  616THF     O1 9436   1.955   0.899   2.497  0.2746  0.2084 -0.4392
  616THF     C2 9437   2.023   1.019   2.508 -0.3905 -0.0955  0.4989
  616THF     C3 9438   1.876   0.879   2.612 -0.7601  0.6284  1.1273
  616THF     H4 9439   2.024   1.070   2.412 -0.0036 -0.3105  0.3886
  616THF     H5 9440   2.125   1.008   2.544 -0.3650 -0.6420  0.2762
  616THF     H6 9441   1.792   0.810   2.602  0.1847 -0.4358  0.3904
  616THF     H7 9442   1.936   0.838   2.693  0.2851  1.1001  0.6070
  616THF     C8 9443   1.826   1.016   2.639 -0.3683 -0.0441  0.7393
  616THF     C9 9444   1.944   1.097   2.602 -0.3871 -0.0883 -0.5909
  616THF    H10 9445   1.790   1.014   2.741  1.0852 -0.3666  1.2721
  616THF    H11 9446   1.739   1.034   2.575  0.3818 -0.7777 -0.5469
  616THF    H12 9447   1.913   1.197   2.571  0.7302  0.3151 -0.4250
  616THF    H13 9448   1.996   1.111   2.696 -2.0552  0.8351  0.2544
  617THF     O1 9449   3.335   0.932   5.498  0.2323  0.2678  0.6905
  617THF     C2 9450   3.259   0.837   5.572  0.1185 -0.2675  0.0995
  617THF     C3 9451   3.466   0.892   5.505 -0.5787 -0.0434 -0.2296
  617THF     H4 9452   3.254   0.744   5.516  0.1088  1.9871 -3.9999
  617THF     H5 9453   3.155   0.860   5.595  0.4470  0.2598  1.1438
  617THF     H6 9454   3.497   0.803   5.450  0.7156 -0.4164  1.0300
  617THF     H7 9455   3.527   0.979   5.482 -0.9760  0.9750  2.3271
  617THF     C8 9456   3.482   0.863   5.654  0.3554 -0.0049  0.7122
  617THF     C9 9457   3.342   0.822   5.699  0.3085  0.1287  0.2295
  617THF    H10 9458   3.516   0.955   5.702 -1.2806 -0.5514  3.0810
  617THF    H11 9459   3.551   0.787   5.692 -1.0067 -1.7719 -0.1857
  617THF    H12 9460   3.340   0.717   5.729 -0.9789 -0.3721 -1.4836
  617THF    H13 9461   3.298   0.880   5.780 -0.5504  0.7454 -0.6726
  618THF     O1 9462   0.065   4.450   2.071  0.8528  0.3311  0.1659
  618THF     C2 9463   0.056   4.336   1.985  1.0088  0.0021  0.4474
  618THF     C3 9464   0.199   4.462   2.121  0.1401 -0.2848 -0.2243
  618THF     H4 9465  -0.031   4.327   1.919  1.1722 -2.4684  0.4996
  618THF     H5 9466   0.053   4.242   2.039  0.2151  0.5027  1.2995
  618THF     H6 9467   0.226   4.560   2.162 -1.8508  0.2017  0.0045
  618THF     H7 9468   0.217   4.397   2.207 -1.5233  0.4458  0.7215
  618THF     C8 9469   0.287   4.417   2.003 -0.2860  0.0068  0.7726
  618THF     C9 9470   0.190   4.355   1.902  0.2625  0.0215 -0.3138
  618THF    H10 9471   0.354   4.340   2.040 -1.3193 -0.6027  1.4207
  618THF    H11 9472   0.342   4.503   1.964  0.6390 -1.1484 -0.5607
  618THF    H12 9473   0.160   4.419   1.819  0.3525 -0.6389 -0.8657
  618THF    H13 9474   0.227   4.260   1.863  1.8412 -0.4440  2.1126
  619THF     O1 9475   1.517   5.471   5.277 -0.1407  0.5174 -0.0807
  619THF     C2 9476   1.388   5.422   5.249 -0.2156 -0.4669  0.3434
  619THF     C3 9477   1.597   5.458   5.163  0.3404 -0.2954 -0.2164
  619THF     H4 9478   1.316   5.451   5.326  0.7068 -0.1116  1.0945
  619THF     H5 9479   1.394   5.313   5.243  2.1476 -0.3008 -2.4755
  619THF     H6 9480   1.689   5.516   5.174  1.7447 -2.3613 -0.5063
  619THF     H7 9481   1.627   5.353   5.172  2.6351  0.2981 -0.2943
  619THF     C8 9482   1.503   5.490   5.046  0.0561 -0.1546 -0.1441
  619THF     C9 9483   1.370   5.494   5.112  0.1076  0.4311  0.0581
  619THF    H10 9484   1.496   5.415   4.967 -1.7917 -1.3200  1.0434
  619THF    H11 9485   1.532   5.589   5.011 -1.4292 -0.1534 -1.5350
  619THF    H12 9486   1.333   5.596   5.120 -1.8485 -0.0782 -1.5449
  619THF    H13 9487   1.296   5.440   5.053  1.6675 -0.5956 -1.0065
  620THF     O1 9488   5.311   3.483   1.700 -0.4705 -0.2681 -0.1543
  620THF     C2 9489   5.171   3.461   1.665 -0.1596  0.2780  0.5177
  620THF     C3 9490   5.323   3.607   1.763 -0.4438  0.4349  0.0153
  620THF     H4 9491   5.148   3.357   1.691  0.7963  0.0548  0.5287
  620THF     H5 9492   5.142   3.472   1.561 -1.0512  0.3516  0.7646
  620THF     H6 9493   5.410   3.621   1.828  1.2273  0.2843 -2.0620
  620THF     H7 9494   5.329   3.682   1.684  0.1885  0.3097 -0.0624
  620THF     C8 9495   5.195   3.605   1.853 -0.1281  0.3347  0.6420
  620THF     C9 9496   5.093   3.554   1.760  0.4224 -0.3521 -0.3866
  620THF    H10 9497   5.172   3.708   1.881 -0.0530  0.1926  1.2358
  620THF    H11 9498   5.209   3.544   1.942  3.5402 -0.4457 -0.3242
  620THF    H12 9499   5.011   3.505   1.813 -0.4436 -1.4774 -2.6501
  620THF    H13 9500   5.065   3.643   1.703  1.2255  1.5955  2.0603
  621THF     O1 9501   1.546   1.553   2.887  0.3631 -0.4518 -0.7257
  621THF     C2 9502   1.616   1.533   2.768 -0.1002 -0.1475  0.4647
  621THF     C3 9503   1.624   1.492   2.992 -0.0306  0.3450  0.1264
  621THF     H4 9504   1.702   1.600   2.774  0.1569 -0.3664 -0.5539
  621THF     H5 9505   1.560   1.561   2.679  0.4070  1.2765  0.5742
  621THF     H6 9506   1.709   1.552   3.025  0.8471 -0.7840  0.0101
  621THF     H7 9507   1.576   1.460   3.084  2.7224 -0.7258  1.3140
  621THF     C8 9508   1.664   1.361   2.932  0.1666 -0.1736  0.1465
  621THF     C9 9509   1.675   1.388   2.783 -0.1969  0.0383  0.2849
  621THF    H10 9510   1.579   1.293   2.937 -1.1947  1.1876 -2.3949
  621THF    H11 9511   1.761   1.327   2.968  0.5327 -0.2666 -0.8752
  621THF    H12 9512   1.778   1.384   2.747 -1.0056  1.4119 -2.4709
  621THF    H13 9513   1.622   1.310   2.728  1.8706 -0.3544 -1.2862
  622THF     O1 9514   1.345   2.329   2.710 -0.0377 -0.6460 -0.1963
  622THF     C2 9515   1.356   2.305   2.573  0.0155 -0.1282  0.4896
  622THF     C3 9516   1.424   2.234   2.780  0.3426 -0.2024  0.1525
  622THF     H4 9517   1.343   2.393   2.510  1.7339 -0.6839 -0.7012
  622THF     H5 9518   1.283   2.228   2.547  0.1125 -0.9768  2.5650
  622THF     H6 9519   1.446   2.264   2.882  0.0039  0.8834 -0.0826
  622THF     H7 9520   1.387   2.131   2.785  0.5793 -0.2565  0.9057
  622THF     C8 9521   1.547   2.244   2.697  0.6661 -0.3740  0.3183
  622THF     C9 9522   1.494   2.244   2.557 -0.2595 -0.2712  0.6550
  622THF    H10 9523   1.620   2.165   2.717 -0.3639 -1.7745 -1.1727
  622THF    H11 9524   1.589   2.343   2.711  0.8841 -0.3501 -0.5120
  622THF    H12 9525   1.563   2.298   2.493  0.9456 -0.6131  1.6319
  622THF    H13 9526   1.487   2.146   2.511 -1.4301 -0.7754  1.8197
  623THF     O1 9527   2.883   2.865   1.862  0.4792 -0.1476 -0.2440
  623THF     C2 9528   2.840   2.814   1.987 -0.4559 -0.4089 -0.0220
  623THF     C3 9529   2.925   3.001   1.875 -0.3700 -0.1861 -0.3860
  623THF     H4 9530   2.920   2.757   2.033  1.2510  2.6694  1.1473
  623THF     H5 9531   2.760   2.741   1.979 -3.4575  2.6951 -0.9737
  623THF     H6 9532   3.032   3.012   1.894 -0.3468  1.4207 -1.2429
  623THF     H7 9533   2.921   3.054   1.779  2.6772 -1.5245 -1.3762
  623THF     C8 9534   2.835   3.053   1.988  0.5589  0.1158 -0.4304
  623THF     C9 9535   2.816   2.932   2.085 -0.4597 -0.0345  0.3436
  623THF    H10 9536   2.742   3.071   1.933  0.7891  4.3785  0.2673
  623THF    H11 9537   2.853   3.156   2.017 -1.3437  0.0195  1.3130
  623THF    H12 9538   2.894   2.930   2.161  0.4827  1.0311 -0.5574
  623THF    H13 9539   2.715   2.936   2.125  0.0889  1.5010  1.6992
  624THF     O1 9540   3.585   5.382   1.307  0.2492  0.2449 -0.4043
  624THF     C2 9541   3.706   5.397   1.232  0.0034 -0.0826 -0.1043
  624THF     C3 9542   3.481   5.337   1.216 -0.1161  0.0433 -0.0950
  624THF     H4 9543   3.792   5.411   1.298 -0.7344 -1.6294  1.2501
  624THF     H5 9544   3.708   5.480   1.162 -0.4185  0.9095  1.0181
  624THF     H6 9545   3.409   5.283   1.277 -0.1971 -1.2110 -1.2764
  624THF     H7 9546   3.431   5.415   1.159 -2.2783 -1.2046 -0.0021
  624THF     C8 9547   3.562   5.235   1.132 -0.2697  0.3676  0.3235
  624THF     C9 9548   3.704   5.274   1.144 -0.5813  0.1772 -0.3851
  624THF    H10 9549   3.525   5.230   1.029  1.1294  0.6045 -0.2152
  624THF    H11 9550   3.554   5.132   1.166 -1.8192  0.4662  0.3516
  624THF    H12 9551   3.776   5.204   1.187 -1.2743 -0.6405 -0.5471
  624THF    H13 9552   3.736   5.294   1.042 -1.7182 -0.8376 -0.9658
  625THF     O1 9553   5.293   2.379   0.940  0.5659  0.1811  0.7632
  625THF     C2 9554   5.203   2.359   0.831  0.2972  0.5643 -0.1527
  625THF     C3 9555   5.286   2.275   1.024 -0.6119  0.1539  0.4050
  625THF     H4 9556   5.249   2.299   0.752 -0.0536 -0.8216  0.6526
  625THF     H5 9557   5.170   2.449   0.780 -1.0634 -1.2729 -2.7868
  625THF     H6 9558   5.343   2.190   0.986 -1.2255  0.7443 -2.0182
  625THF     H7 9559   5.348   2.285   1.114 -0.4585 -2.1708  0.6180
  625THF     C8 9560   5.140   2.256   1.041  1.1505  0.1046  0.2952
  625THF     C9 9561   5.082   2.282   0.898  0.4308  0.1289 -0.2503
  625THF    H10 9562   5.103   2.330   1.112 -0.7259  1.3821 -1.8549
  625THF    H11 9563   5.110   2.156   1.072 -0.1335  1.2333  3.0598
  625THF    H12 9564   5.066   2.186   0.848 -0.0029 -0.0051  0.1434
  625THF    H13 9565   4.993   2.344   0.910  0.5311 -0.1811  3.1821
  626THF     O1 9566   0.565   3.275   3.392 -0.2089 -0.2473  0.1264
  626THF     C2 9567   0.559   3.209   3.511 -0.2976 -0.3360 -0.5039
  626THF     C3 9568   0.568   3.178   3.289 -0.6504  0.2675  0.0503
  626THF     H4 9569   0.462   3.161   3.524  0.7826 -2.9515 -1.4169
  626THF     H5 9570   0.581   3.280   3.590 -0.5309 -1.2446  0.3984
  626THF     H6 9571   0.469   3.132   3.294 -0.2316 -0.5476  1.1821
  626THF     H7 9572   0.595   3.202   3.186 -0.9074  0.7695  0.0964
  626THF     C8 9573   0.666   3.073   3.337 -0.0113 -0.2505  0.3313
  626THF     C9 9574   0.671   3.106   3.489 -0.2668  0.0422  0.0315
  626THF    H10 9575   0.757   3.082   3.277 -0.5665  0.3965 -0.4304
  626THF    H11 9576   0.621   2.975   3.319 -1.5141  0.3440  0.6913
  626THF    H12 9577   0.645   3.021   3.553  2.9635  0.8809  2.7785
  626THF    H13 9578   0.774   3.136   3.511 -0.4243  0.9561 -0.4302
  627THF     O1 9579   0.774   2.423   2.010  0.5311 -0.2273  0.2359
  627THF     C2 9580   0.656   2.349   2.010  0.6237 -0.2709 -0.6063
  627THF     C3 9581   0.731   2.563   2.030 -0.0932  0.1096 -0.5395
  627THF     H4 9582   0.625   2.341   2.114  0.6258 -0.6210 -0.6324
  627THF     H5 9583   0.680   2.247   1.980  0.3461 -0.8234  0.9727
  627THF     H6 9584   0.723   2.583   2.136 -0.3629 -3.0541  0.1260
  627THF     H7 9585   0.801   2.629   1.978 -2.2958  1.4214 -2.0334
  627THF     C8 9586   0.597   2.572   1.965 -0.2088  0.2022  0.2377
  627THF     C9 9587   0.564   2.425   1.917  0.5983 -0.8137 -0.9381
  627THF    H10 9588   0.595   2.631   1.873 -0.6319  1.3273  0.9516
  627THF    H11 9589   0.521   2.611   2.033 -3.0683 -0.8365 -2.1827
  627THF    H12 9590   0.461   2.401   1.943  0.9030  0.2300  1.5074
  627THF    H13 9591   0.586   2.412   1.811  2.6442  1.4220 -0.8837
  628THF     O1 9592   1.728   3.263   5.228  0.3055 -0.2072  0.7157
  628THF     C2 9593   1.775   3.134   5.197 -0.0598  0.3269 -0.8021
  628THF     C3 9594   1.831   3.343   5.269 -0.1046  0.2336 -0.1350
  628THF     H4 9595   1.705   3.084   5.131 -0.1794 -1.9820  0.9337
  628THF     H5 9596   1.783   3.078   5.290  0.8086  1.4088 -0.1979
  628THF     H6 9597   1.808   3.448   5.252  0.6380  0.3488 -0.4572
  628THF     H7 9598   1.836   3.323   5.376 -0.8269 -1.6687 -0.4233
  628THF     C8 9599   1.958   3.291   5.192 -0.4126  0.6477 -0.7288
  628THF     C9 9600   1.910   3.156   5.137  0.3080  0.5627  0.1506
  628THF    H10 9601   2.044   3.293   5.259 -0.5304  0.9983 -0.5869
  628THF    H11 9602   1.972   3.362   5.110 -1.0563 -1.4829 -2.8044
  628THF    H12 9603   1.907   3.164   5.028 -0.8312 -1.0365  0.0288
  628THF    H13 9604   1.972   3.069   5.159  0.7632  0.7834 -0.2381
  629THF     O1 9605   0.842   3.186   0.997 -0.0251  0.4052  0.1484
  629THF     C2 9606   0.982   3.213   0.983  0.0702  0.2563  0.7818
  629THF     C3 9607   0.827   3.068   1.076 -0.6223  0.3467 -0.4102
  629THF     H4 9608   1.022   3.275   1.063  2.2771 -1.0057  0.7105
  629THF     H5 9609   0.998   3.251   0.882 -2.7021 -0.3797 -0.0083
  629THF     H6 9610   0.848   3.087   1.182 -1.8233 -1.0861  0.1223
  629THF     H7 9611   0.721   3.044   1.072 -0.7346  0.8331 -0.4808
  629THF     C8 9612   0.928   2.969   1.014  0.0296 -0.1747  0.0955
  629THF     C9 9613   1.044   3.067   0.992  0.1387  0.0834 -0.3452
  629THF    H10 9614   0.884   2.919   0.927 -0.4097  2.0712 -1.0563
  629THF    H11 9615   0.966   2.890   1.079  2.5406  0.5535 -0.3704
  629THF    H12 9616   1.113   3.071   1.076 -2.3042 -0.1916  1.8048
  629THF    H13 9617   1.084   3.042   0.894  1.2619  2.0252 -0.4277
  630THF     O1 9618   0.874   2.476   1.401  0.3939 -0.2217 -0.4828
  630THF     C2 9619   0.751   2.449   1.463 -0.1436  0.0273 -0.5848
  630THF     C3 9620   0.936   2.573   1.485  0.1667  0.1359  0.2155
  630THF     H4 9621   0.720   2.350   1.429 -0.0882 -0.0191 -0.4990
  630THF     H5 9622   0.672   2.518   1.433 -1.0089 -0.9752 -0.6585
  630THF     H6 9623   1.039   2.603   1.464  0.6227 -0.9252  0.9076
  630THF     H7 9624   0.882   2.668   1.484 -0.1586 -0.0495  0.0550
  630THF     C8 9625   0.918   2.519   1.625  0.8607  0.5298 -0.3084
  630THF     C9 9626   0.780   2.459   1.610  0.7560  0.0179  0.0831
  630THF    H10 9627   0.910   2.600   1.697  0.3570  0.4281 -0.2469
  630THF    H11 9628   0.991   2.447   1.662 -0.2153 -0.7690 -0.6086
  630THF    H12 9629   0.789   2.358   1.648 -0.1420 -0.2526 -0.3921
  630THF    H13 9630   0.701   2.519   1.656  2.7362  0.5210  3.0931
  631THF     O1 9631   0.953   1.907   2.611 -1.1850 -0.0554  0.0717
  631THF     C2 9632   1.008   2.037   2.625  0.3788  0.2554  1.0750
  631THF     C3 9633   0.822   1.911   2.560 -0.1791 -0.7213 -0.5699
  631THF     H4 9634   1.045   2.081   2.532  2.1797  0.4086  1.8240
  631THF     H5 9635   1.082   2.035   2.705 -0.3957  1.4595  1.8583
  631THF     H6 9636   0.821   1.940   2.454 -0.4477  1.2668 -0.0697
  631THF     H7 9637   0.767   1.818   2.569 -1.3896  0.0805  0.7139
  631THF     C8 9638   0.764   2.028   2.642 -0.2327 -0.6837 -0.4748
  631THF     C9 9639   0.881   2.123   2.668 -0.0883  0.6074  0.0475
  631THF    H10 9640   0.733   1.983   2.736  0.5443 -0.9396 -0.3377
  631THF    H11 9641   0.682   2.078   2.590  0.0992 -0.3588 -0.6949
  631THF    H12 9642   0.872   2.216   2.612  0.7771  0.3264 -0.5936
  631THF    H13 9643   0.894   2.142   2.775  2.4846 -2.9592  0.5906
  632THF     O1 9644   4.059   3.271   4.924 -0.4052  0.7116 -0.1690
  632THF     C2 9645   4.069   3.140   4.984 -0.1233  0.1566 -0.0311
  632THF     C3 9646   4.131   3.367   5.004  0.7823  0.8822  0.4703
  632THF     H4 9647   4.047   3.063   4.910 -3.1095  0.4975  0.3464
  632THF     H5 9648   3.983   3.124   5.049 -0.9126  0.5483 -0.9418
  632THF     H6 9649   4.141   3.455   4.940 -0.8474  0.6047 -0.2381
  632THF     H7 9650   4.063   3.378   5.089 -0.4318 -1.0869 -0.1700
  632THF     C8 9651   4.257   3.290   5.031  0.0962 -0.0664  0.7900
  632THF     C9 9652   4.209   3.143   5.053 -0.2829 -0.5728  0.3528
  632THF    H10 9653   4.309   3.323   5.120 -1.3726 -1.7566  2.3429
  632THF    H11 9654   4.326   3.299   4.947  1.0754 -0.0252  1.5814
  632THF    H12 9655   4.279   3.072   5.009 -0.4450 -0.0109 -0.8442
  632THF    H13 9656   4.201   3.115   5.158 -0.2302 -0.0789  0.4912
  633THF     O1 9657   0.346   2.700   0.296  0.1431 -0.0573  0.2105
  633THF     C2 9658   0.428   2.821   0.273 -0.5249  0.8997  0.1580
  633THF     C3 9659   0.410   2.629   0.402  0.0525 -0.0153  0.1972
  633THF     H4 9660   0.379   2.912   0.306 -0.6588  0.7909  0.2583
  633THF     H5 9661   0.450   2.835   0.167 -1.3802 -1.6208 -0.4097
  633THF     H6 9662   0.383   2.672   0.499 -0.5830 -1.0906  0.5116
  633THF     H7 9663   0.382   2.524   0.405 -1.9269  0.4875  0.6192
  633THF     C8 9664   0.557   2.648   0.384 -0.0177 -0.1965  0.2579
  633THF     C9 9665   0.569   2.786   0.327 -0.3293  0.1193  0.4663
  633THF    H10 9666   0.617   2.578   0.326  0.6066  0.4806  0.0787
  633THF    H11 9667   0.601   2.652   0.484  1.0832 -1.7734 -0.1227
  633THF    H12 9668   0.594   2.859   0.404  1.6984  1.7435 -1.5983
  633THF    H13 9669   0.653   2.789   0.258  0.5761  1.8166  1.5858
  634THF     O1 9670   0.594   2.981   1.306  0.3310  0.5286 -0.1050
  634THF     C2 9671   0.508   2.893   1.233 -0.2762  0.3640  0.0285
  634THF     C3 9672   0.689   2.901   1.376  0.2120 -0.6676  0.3705
  634THF     H4 9673   0.454   2.959   1.165 -1.7488 -1.2941 -0.4922
  634THF     H5 9674   0.438   2.844   1.301  0.9044  1.5644  2.1954
  634THF     H6 9675   0.779   2.951   1.411 -0.4928 -0.3191  1.7375
  634THF     H7 9676   0.646   2.846   1.460 -1.1482  1.5345  1.1814
  634THF     C8 9677   0.717   2.799   1.271  0.0857 -0.3503 -0.3701
  634THF     C9 9678   0.603   2.799   1.169 -0.5170  0.3490 -0.2653
  634THF    H10 9679   0.733   2.700   1.313  1.5399 -0.5388 -1.3059
  634THF    H11 9680   0.811   2.824   1.222  1.0165  0.1483  1.5825
  634THF    H12 9681   0.650   2.838   1.079  0.7938 -0.3094  0.1023
  634THF    H13 9682   0.566   2.696   1.159 -0.9535  0.5471 -0.7527
  635THF     O1 9683   2.068   2.054   4.542 -0.2042  0.1755 -0.1336
  635THF     C2 9684   2.147   1.935   4.546  0.6393  0.3430  0.5581
  635THF     C3 9685   2.052   2.089   4.680 -0.2992  0.3049  0.3426
  635THF     H4 9686   2.183   1.893   4.452 -0.2358 -1.4167  0.9543
  635THF     H5 9687   2.080   1.855   4.579 -1.8032  1.5613 -1.1322
  635THF     H6 9688   2.016   2.192   4.689 -2.0754 -0.4191  2.2630
  635THF     H7 9689   1.981   2.030   4.738  1.3707 -0.9334  1.1816
  635THF     C8 9690   2.191   2.075   4.735 -0.5542 -0.3301 -0.4915
  635THF     C9 9691   2.254   1.968   4.651  0.0043 -0.0237  0.6249
  635THF    H10 9692   2.180   2.046   4.839  0.8974  0.4653 -0.0901
  635THF    H11 9693   2.243   2.171   4.735 -2.9806  1.0749  0.2044
  635THF    H12 9694   2.347   2.009   4.612 -0.6375 -0.2700 -1.2653
  635THF    H13 9695   2.264   1.881   4.715  0.3401  0.4966  1.2970
  636THF     O1 9696   0.691   4.590   0.024 -0.2914  0.3921 -0.0023
  636THF     C2 9697   0.651   4.457   0.012  0.3953 -0.0601  0.4908
  636THF     C3 9698   0.685   4.627   0.161  0.1872 -0.0367  0.1374
  636THF     H4 9699   0.728   4.390   0.048  0.4342 -0.0112  0.4984
  636THF     H5 9700   0.615   4.443  -0.090 -0.7480  2.1603  0.5268
  636THF     H6 9701   0.775   4.594   0.213  0.7565  0.4437 -0.5274
  636THF     H7 9702   0.681   4.735   0.174 -1.3567 -0.2740  2.2729
  636THF     C8 9703   0.551   4.564   0.211  0.2710 -0.9189  0.4070
  636THF     C9 9704   0.542   4.446   0.110  0.5291  0.1527  0.8086
  636THF    H10 9705   0.466   4.632   0.200 -0.4505 -1.7723  0.6151
  636THF    H11 9706   0.550   4.540   0.317 -0.0335 -1.5459  0.2658
  636THF    H12 9707   0.535   4.345   0.151 -0.8198  0.5239  1.5637
  636THF    H13 9708   0.450   4.460   0.053  0.5014 -0.0983  0.7887
  637THF     O1 9709   0.981   1.260   4.683  0.8459 -0.2871 -0.4472
  637THF     C2 9710   1.034   1.390   4.670 -0.0924  0.1233  0.1674
  637THF     C3 9711   0.839   1.261   4.653 -0.7946 -0.1267  0.4154
  637THF     H4 9712   1.037   1.412   4.564 -2.7902 -1.4142 -0.3329
  637THF     H5 9713   1.128   1.403   4.724  0.8567 -1.1131 -1.1178
  637THF     H6 9714   0.844   1.268   4.544 -0.0995  2.4182  0.5455
  637THF     H7 9715   0.789   1.169   4.681 -0.3875 -0.2470  0.7537
  637THF     C8 9716   0.799   1.385   4.728  0.5788 -0.5083 -0.0856
  637THF     C9 9717   0.928   1.468   4.745 -0.2849 -0.1210  0.9637
  637THF    H10 9718   0.755   1.361   4.824  1.3794  2.1327  1.0313
  637THF    H11 9719   0.732   1.449   4.671  2.8765  0.6301 -1.7103
  637THF    H12 9720   0.921   1.564   4.694  0.5745 -0.5996 -0.0842
  637THF    H13 9721   0.963   1.472   4.848  0.0284 -0.7616  0.8901
  638THF     O1 9722   2.737   3.319   4.007  0.7426 -0.3741  0.2734
  638THF     C2 9723   2.798   3.264   3.891  0.2749  0.0684 -0.1910
  638THF     C3 9724   2.615   3.244   4.012  0.4039  0.0387  0.7909
  638THF     H4 9725   2.905   3.276   3.907  0.1221 -0.4340  1.3287
  638THF     H5 9726   2.772   3.321   3.801 -1.4829 -1.5958 -0.8236
  638THF     H6 9727   2.575   3.263   4.111  0.6891  2.0130  0.5748
  638THF     H7 9728   2.546   3.286   3.938  1.2405  0.1932  0.0801
  638THF     C8 9729   2.643   3.100   3.966  0.6414  0.3008  0.3361
  638THF     C9 9730   2.765   3.113   3.878  0.2082  0.3559  0.0293
  638THF    H10 9731   2.551   3.067   3.917  0.5468 -0.0881  0.7728
  638THF    H11 9732   2.657   3.043   4.058  1.2370 -0.3021 -0.1162
  638THF    H12 9733   2.851   3.063   3.922  0.7247  2.6246  1.7676
  638THF    H13 9734   2.749   3.098   3.771  2.4450 -0.6843 -0.2194
  639THF     O1 9735   1.523   3.723   3.679  0.0564 -0.4103  0.8256
  639THF     C2 9736   1.508   3.854   3.726  0.3759  0.5966 -0.1619
  639THF     C3 9737   1.659   3.683   3.673 -1.0416 -0.4131  0.0419
  639THF     H4 9738   1.532   3.843   3.832  2.0796 -0.1118 -0.5803
  639THF     H5 9739   1.406   3.887   3.709 -0.6116 -2.7067 -1.4098
  639THF     H6 9740   1.698   3.631   3.760 -0.3277 -0.2940 -0.2019
  639THF     H7 9741   1.698   3.634   3.583  1.0557  1.0129  0.1040
  639THF     C8 9742   1.729   3.819   3.644  0.0014 -0.0456  0.6278
  639THF     C9 9743   1.617   3.921   3.648 -0.4230 -1.0371 -0.1068
  639THF    H10 9744   1.774   3.821   3.545 -1.1364 -1.0431  0.0520
  639THF    H11 9745   1.804   3.833   3.722  0.9369 -1.7763  0.0988
  639THF    H12 9746   1.643   4.011   3.703 -2.3667  0.6180 -1.6962
  639THF    H13 9747   1.570   3.946   3.552  2.2735  1.8410 -0.8345
  640THF     O1 9748   1.688   5.122   3.985  0.3162  0.2837  0.3719
  640THF     C2 9749   1.690   5.094   4.126  0.2218 -0.7677 -0.0739
  640THF     C3 9750   1.806   5.199   3.969  0.0158  0.5079  0.4936
  640THF     H4 9751   1.615   5.020   4.155  0.0828  0.3057  2.6416
  640THF     H5 9752   1.671   5.184   4.183  0.1996 -1.7016  1.4607
  640THF     H6 9753   1.833   5.217   3.865 -1.6117  2.7088  0.3690
  640THF     H7 9754   1.785   5.300   4.004 -1.9332  1.1244 -2.1396
  640THF     C8 9755   1.912   5.127   4.052  0.1472 -0.7459 -0.0506
  640THF     C9 9756   1.827   5.043   4.150 -0.6721 -0.0010  0.5951
  640THF    H10 9757   1.981   5.200   4.092  0.9670 -0.1680 -2.3544
  640THF    H11 9758   1.968   5.067   3.980 -0.2931  1.1795 -2.0985
  640THF    H12 9759   1.831   4.937   4.125 -0.4234  0.2815 -0.6625
  640THF    H13 9760   1.842   5.053   4.257  0.9246 -2.2885  0.6576
  641THF     O1 9761   0.526   2.220   3.700  0.1791  0.0570 -0.2266
  641THF     C2 9762   0.530   2.353   3.653  0.7894 -0.0696  0.1198
  641THF     C3 9763   0.509   2.226   3.844  0.1786 -0.1929 -0.2124
  641THF     H4 9764   0.514   2.384   3.550  0.1695  0.9289  0.4992
  641THF     H5 9765   0.631   2.389   3.671  0.2274  1.7231 -0.1165
  641THF     H6 9766   0.490   2.141   3.909 -0.4770  1.5829  2.0727
  641THF     H7 9767   0.600   2.268   3.886 -0.2712  1.1925 -0.5518
  641THF     C8 9768   0.402   2.336   3.856 -0.3273 -0.1480 -0.7355
  641THF     C9 9769   0.429   2.426   3.735  0.1216  0.2264 -0.6098
  641THF    H10 9770   0.415   2.405   3.939  2.1382  0.3621 -1.4668
  641THF    H11 9771   0.302   2.292   3.867  0.6346 -2.1812  0.6065
  641THF    H12 9772   0.338   2.444   3.679  0.8605  0.5813 -1.7368
  641THF    H13 9773   0.470   2.521   3.768  0.2808  0.2251 -0.7991
  642THF     O1 9774   3.820   3.427   1.732  0.3268 -0.2236  0.4407
  642THF     C2 9775   3.823   3.292   1.764 -0.3660  0.3765  0.1032
  642THF     C3 9776   3.705   3.461   1.657 -0.0177 -0.3250  0.1735
  642THF     H4 9777   3.818   3.286   1.873  1.5074  1.1534  0.2798
  642THF     H5 9778   3.921   3.245   1.756 -1.5256 -2.5361  1.4175
  642THF     H6 9779   3.670   3.549   1.711 -1.3029 -1.2622  0.9506
  642THF     H7 9780   3.725   3.511   1.563 -0.1891  0.9409  0.7833
  642THF     C8 9781   3.613   3.342   1.656 -0.0943  0.1941  0.1997
  642THF     C9 9782   3.711   3.225   1.683 -0.3324  0.4769 -0.7867
  642THF    H10 9783   3.549   3.331   1.569  0.0533 -2.0040  0.2928
  642THF    H11 9784   3.544   3.353   1.740 -1.0517 -1.2066 -0.3729
  642THF    H12 9785   3.662   3.144   1.737 -0.6279  0.0809 -1.6439
  642THF    H13 9786   3.748   3.178   1.592  1.7657  0.0827  0.2099
  643THF     O1 9787   3.717   2.484   0.054 -0.2510 -0.1183  0.0832
  643THF     C2 9788   3.805   2.379   0.088 -0.6466  0.0711 -0.7909
  643THF     C3 9789   3.717   2.573   0.168  0.3334 -0.0747  0.2222
  643THF     H4 9790   3.828   2.311   0.006 -0.3110  0.9146 -1.4074
  643THF     H5 9791   3.743   2.320   0.156  0.5400 -0.3047 -0.0026
  643THF     H6 9792   3.681   2.668   0.129  0.3023 -1.0675 -2.3610
  643THF     H7 9793   3.649   2.530   0.241  1.1618  0.3990  1.2992
  643THF     C8 9794   3.870   2.577   0.212 -0.2400 -0.0295  0.5708
  643THF     C9 9795   3.930   2.448   0.157 -0.1242  0.3499  0.4145
  643THF    H10 9796   3.882   2.593   0.319  1.3797 -0.3486  0.4520
  643THF    H11 9797   3.906   2.663   0.155 -1.8019 -0.1390 -0.6441
  643THF    H12 9798   4.003   2.484   0.085  0.0484  1.8437  1.2821
  643THF    H13 9799   3.987   2.389   0.229 -1.2321  0.4396  1.4090
  644THF     O1 9800   0.289   3.859   1.470 -0.5977 -0.5254 -0.2331
  644THF     C2 9801   0.205   3.758   1.427 -0.4055 -0.2105  1.0000
  644THF     C3 9802   0.328   3.832   1.605 -0.1623 -0.0401 -0.1609
  644THF     H4 9803   0.255   3.674   1.378 -1.1770 -0.2148  0.1965
  644THF     H5 9804   0.146   3.800   1.346  0.7523  0.5471  0.5271
  644THF     H6 9805   0.433   3.804   1.616 -0.2380  0.2321  1.4369
  644THF     H7 9806   0.307   3.923   1.660  1.0542 -0.2722  0.7205
  644THF     C8 9807   0.233   3.723   1.657  0.5584 -0.2082  0.5204
  644THF     C9 9808   0.122   3.712   1.543 -0.4480  0.2093 -0.7704
  644THF    H10 9809   0.184   3.750   1.751  0.8999  2.0173  0.1105
  644THF    H11 9810   0.282   3.629   1.680 -0.1015 -0.4694  0.8973
  644THF    H12 9811   0.080   3.612   1.530 -0.5515  0.3662 -1.6951
  644THF    H13 9812   0.042   3.785   1.558  0.6181  1.0466  1.2623
  645THF     O1 9813   2.006   3.369   4.062  0.2490 -0.2545 -0.6265
  645THF     C2 9814   2.108   3.468   4.022 -0.4428 -0.5168 -0.2237
  645THF     C3 9815   2.068   3.239   4.044  0.4079  0.5925  0.3007
  645THF     H4 9816   2.122   3.552   4.091  0.6556 -0.1875 -0.8319
  645THF     H5 9817   2.078   3.505   3.924 -1.1321 -1.6124 -0.4493
  645THF     H6 9818   2.031   3.162   4.112 -0.9086  1.3857  0.4973
  645THF     H7 9819   2.058   3.199   3.944  1.2435  1.6450 -0.2243
  645THF     C8 9820   2.224   3.253   4.067  0.2732  0.6637 -0.4579
  645THF     C9 9821   2.244   3.392   4.018 -0.5705 -0.9077 -0.2370
  645THF    H10 9822   2.279   3.174   4.016 -0.9008  1.4696 -3.1232
  645THF    H11 9823   2.242   3.239   4.174 -1.4034  1.3268 -0.0570
  645THF    H12 9824   2.323   3.449   4.066 -0.6615 -0.9776 -0.0057
  645THF    H13 9825   2.271   3.391   3.912 -1.1665  0.9823 -0.4520
  646THF     O1 9826   0.956   3.066   3.044  0.5441 -0.0172 -0.1766
  646THF     C2 9827   1.095   3.063   2.998  0.2046  0.0390  0.4198
  646THF     C3 9828   0.903   3.198   3.036  0.1275  0.4683 -0.4744
  646THF     H4 9829   1.101   2.997   2.912  0.3681 -0.6737  0.9688
  646THF     H5 9830   1.151   3.020   3.081 -1.0546  1.6410  2.1959
  646THF     H6 9831   0.798   3.207   3.011  0.5734  1.6912 -2.1269
  646THF     H7 9832   0.932   3.252   3.126  0.8484 -1.5777  0.5976
  646THF     C8 9833   0.988   3.249   2.917  0.2081 -0.0638  0.1069
  646THF     C9 9834   1.131   3.202   2.952  0.1233 -0.2531 -0.2400
  646THF    H10 9835   1.004   3.357   2.911  2.0141 -0.3691 -1.3918
  646THF    H11 9836   0.960   3.212   2.818 -0.3906  0.9745 -0.1203
  646THF    H12 9837   1.197   3.200   2.866 -0.7707 -1.5663 -0.9286
  646THF    H13 9838   1.173   3.270   3.026  1.9118 -1.6931  0.1448
  647THF     O1 9839   1.483   1.960   3.065  0.2169 -0.0393  0.3836
  647THF     C2 9840   1.399   1.870   3.127  0.4911  0.5152  0.5857
  647THF     C3 9841   1.543   1.883   2.963  0.7064  0.0628 -0.6703
  647THF     H4 9842   1.321   1.930   3.176  0.6240  1.2876 -0.1286
  647THF     H5 9843   1.458   1.813   3.199  1.4533  1.3820  0.5075
  647THF     H6 9844   1.607   1.941   2.897  0.7247  0.8155  0.0060
  647THF     H7 9845   1.615   1.821   3.015 -1.0273 -0.5289  1.1668
  647THF     C8 9846   1.421   1.824   2.898  0.0326  0.4571  0.1784
  647THF     C9 9847   1.336   1.782   3.020 -0.0862 -0.0522  0.4017
  647THF    H10 9848   1.448   1.743   2.831 -0.1832  0.3988  0.1603
  647THF    H11 9849   1.375   1.904   2.839  0.9354  2.2188  1.7564
  647THF    H12 9850   1.231   1.793   2.995  0.4058  1.1693 -1.2881
  647THF    H13 9851   1.350   1.675   3.035 -1.2909 -0.8828 -3.3555
  648THF     O1 9852   3.959   5.018   3.151  0.5740 -0.3414  0.0493
  648THF     C2 9853   4.068   5.044   3.057  0.2778  0.1007 -0.8671
  648THF     C3 9854   3.834   5.052   3.089  0.3773 -0.2877  0.3803
  648THF     H4 9855   4.076   4.962   2.985  0.9760 -2.0473  1.4896
  648THF     H5 9856   4.162   5.053   3.111  2.2141 -0.7249 -3.8592
  648THF     H6 9857   3.804   4.977   3.015 -2.5100  2.5828 -1.6514
  648THF     H7 9858   3.756   5.078   3.161  2.1895  1.1042  1.9374
  648THF     C8 9859   3.865   5.185   3.016  0.9343  0.2820 -0.0964
  648THF     C9 9860   4.014   5.182   3.004  0.0330 -0.2909 -0.5507
  648THF    H10 9861   3.834   5.270   3.077 -2.0697  0.3807 -1.5939
  648THF    H11 9862   3.813   5.198   2.921  0.1855  2.5691  0.5470
  648THF    H12 9863   4.042   5.225   2.908 -0.7696  0.7783 -0.3198
  648THF    H13 9864   4.062   5.262   3.059 -2.0644  0.3600  0.4393
  649THF     O1 9865   4.476   1.240   4.365 -0.6164 -0.0994 -0.1608
  649THF     C2 9866   4.357   1.253   4.300  0.0731  0.1652  0.4268
  649THF     C3 9867   4.538   1.113   4.328 -0.2093  0.0224  0.3830
  649THF     H4 9868   4.368   1.288   4.197  0.5572 -1.2946 -0.0507
  649THF     H5 9869   4.300   1.319   4.364  0.0703  0.2472  0.3404
  649THF     H6 9870   4.568   1.100   4.224  2.3188 -1.8529  1.2310
  649THF     H7 9871   4.616   1.089   4.401  1.4711  0.6822 -1.1195
  649THF     C8 9872   4.423   1.020   4.349 -0.0412  0.4823  0.2946
  649THF     C9 9873   4.313   1.112   4.302  0.1441  0.3976 -1.0381
  649THF    H10 9874   4.415   1.006   4.457  1.2608 -0.1181  0.3318
  649THF    H11 9875   4.419   0.933   4.284  0.1247  0.9603 -0.3681
  649THF    H12 9876   4.275   1.093   4.202 -1.6028  4.0140 -1.2012
  649THF    H13 9877   4.226   1.091   4.364 -0.1265  2.1162 -0.7967
  650THF     O1 9878   1.675   1.108   3.567 -0.1881  0.0439  0.2998
  650THF     C2 9879   1.749   1.047   3.670 -0.0947 -0.3496  0.5317
  650THF     C3 9880   1.746   1.221   3.532  0.1379 -0.3886 -0.3312
  650THF     H4 9881   1.720   0.943   3.688 -1.1090 -0.2505 -0.4099
  650THF     H5 9882   1.729   1.109   3.757  0.1605  1.3721 -0.5957
  650THF     H6 9883   1.721   1.264   3.435  0.9494  1.1992  0.1305
  650THF     H7 9884   1.723   1.292   3.611  1.9031  0.1029 -0.2143
  650THF     C8 9885   1.891   1.183   3.534 -0.4242 -0.1429 -0.7780
  650THF     C9 9886   1.894   1.054   3.609  0.6423 -0.5557 -0.3074
  650THF    H10 9887   1.953   1.256   3.586 -2.4567  0.9313  0.2733
  650THF    H11 9888   1.929   1.175   3.432 -0.6101  2.4653 -1.1408
  650THF    H12 9889   1.903   0.976   3.533  0.0565 -1.0612  0.1224
  650THF    H13 9890   1.979   1.043   3.677  1.7268  1.9463 -1.1561
  651THF     O1 9891   5.262   5.294   4.835  0.0968 -0.4829  0.1674
  651THF     C2 9892   5.229   5.431   4.815  0.0278  0.2306 -0.0225
  651THF     C3 9893   5.228   5.248   4.970 -0.8483 -0.0486  0.6342
  651THF     H4 9894   5.150   5.435   4.740  1.5166 -0.0712 -1.6706
  651THF     H5 9895   5.317   5.473   4.766 -0.7182  0.4869 -1.1740
  651THF     H6 9896   5.185   5.148   4.967  0.5413 -0.6334 -0.8417
  651THF     H7 9897   5.316   5.249   5.033 -1.1953  0.4394  1.1314
  651THF     C8 9898   5.128   5.357   5.012 -0.8008 -0.5769  0.1592
  651THF     C9 9899   5.188   5.480   4.951  0.2055 -0.4516 -0.1083
  651THF    H10 9900   5.119   5.345   5.120 -2.2126 -1.5971 -0.0457
  651THF    H11 9901   5.034   5.330   4.964 -0.9410 -2.5391  1.4438
  651THF    H12 9902   5.115   5.560   4.951 -0.8870 -1.4212  0.1468
  651THF    H13 9903   5.273   5.502   5.016 -0.1471 -1.7934  0.8476
  652THF     O1 9904   1.481   0.517   3.557  0.4397  0.3878 -0.3889
  652THF     C2 9905   1.492   0.632   3.478 -0.0052  0.1641 -0.0028
  652THF     C3 9906   1.429   0.560   3.686 -0.3479 -0.3195 -0.4702
  652THF     H4 9907   1.514   0.612   3.373  1.3788 -1.2318  0.5057
  652THF     H5 9908   1.583   0.679   3.516 -0.1810 -0.2231  0.9337
  652THF     H6 9909   1.365   0.478   3.719 -0.2803 -1.0332 -2.0271
  652THF     H7 9910   1.514   0.578   3.752 -0.7003  1.1637 -0.3663
  652THF     C8 9911   1.362   0.698   3.669 -0.1798  0.4155 -0.1830
  652THF     C9 9912   1.378   0.717   3.521 -0.0232 -0.2487 -0.5994
  652THF    H10 9913   1.409   0.782   3.720  1.0613 -0.1145 -0.4101
  652THF    H11 9914   1.260   0.701   3.708  0.7730  2.0853  2.4665
  652THF    H12 9915   1.283   0.690   3.476  0.6073  0.4425 -2.4611
  652THF    H13 9916   1.391   0.823   3.502 -3.5496  0.2451 -0.8801
  653THF     O1 9917   0.829   2.061   5.021  0.3433  0.2986  0.5706
  653THF     C2 9918   0.838   2.044   5.159  0.9474  0.0851  0.3569
  653THF     C3 9919   0.760   2.180   5.000  0.8942 -0.8044  0.2180
  653THF     H4 9920   0.931   2.072   5.209  0.3374  0.5556  1.2462
  653THF     H5 9921   0.828   1.938   5.181  0.3997  0.1983  0.6506
  653THF     H6 9922   0.829   2.264   5.006  1.5483 -1.4535  2.9626
  653THF     H7 9923   0.711   2.183   4.903 -0.0351  0.8563  0.7056
  653THF     C8 9924   0.656   2.181   5.110 -0.0878 -0.0349  0.7408
  653THF     C9 9925   0.734   2.130   5.220  0.2483 -0.0206  0.4846
  653THF    H10 9926   0.577   2.108   5.092 -0.2111  0.6650 -1.9363
  653THF    H11 9927   0.618   2.281   5.131 -3.4074 -0.8069 -0.8924
  653THF    H12 9928   0.775   2.222   5.262 -0.6661 -0.4581  2.4985
  653THF    H13 9929   0.679   2.065   5.288  2.0324  0.4953  2.5474
  654THF     O1 9930   4.794   2.005   1.742 -0.3746  0.7069 -0.4011
  654THF     C2 9931   4.664   1.948   1.779  0.1673  0.0806  0.3035
  654THF     C3 9932   4.799   2.133   1.807  0.2951 -0.3745  0.4711
  654THF     H4 9933   4.657   1.843   1.749  4.4161  0.4591 -3.0011
  654THF     H5 9934   4.586   1.998   1.721 -0.2352  0.7565  1.4065
  654THF     H6 9935   4.905   2.160   1.810  0.0307  0.6562  2.2722
  654THF     H7 9936   4.754   2.212   1.747 -1.5103 -1.4248  0.4037
  654THF     C8 9937   4.724   2.111   1.945 -0.3410 -0.1982 -0.3179
  654THF     C9 9938   4.642   1.984   1.930 -0.5543 -0.1886  0.0363
  654THF    H10 9939   4.658   2.193   1.973 -0.3008  0.0793 -1.0107
  654THF    H11 9940   4.790   2.088   2.029 -1.6559 -0.6412  0.6349
  654THF    H12 9941   4.685   1.914   2.002  0.1250  0.0917 -0.0909
  654THF    H13 9942   4.537   1.996   1.955 -0.4564  1.1139 -0.1004
  655THF     O1 9943   0.274   4.792   4.955  0.2339  0.4959  0.4803
  655THF     C2 9944   0.138   4.759   4.908 -0.3785 -0.5905 -0.0917
  655THF     C3 9945   0.361   4.748   4.856 -0.2311 -1.1454 -0.0294
  655THF     H4 9946   0.097   4.852   4.870 -1.6969 -1.0924  0.0606
  655THF     H5 9947   0.073   4.733   4.992  1.2888 -0.3436  1.3303
  655THF     H6 9948   0.369   4.828   4.782 -1.2191 -0.6637  0.3668
  655THF     H7 9949   0.462   4.731   4.893  0.1475  0.0937 -0.4389
  655THF     C8 9950   0.301   4.630   4.789 -0.6919  0.2440 -0.1571
  655THF     C9 9951   0.153   4.652   4.802 -0.0793  0.5607  0.5660
  655THF    H10 9952   0.325   4.542   4.850 -1.7368  0.3096  0.3764
  655THF    H11 9953   0.333   4.615   4.686 -0.5136  1.4599 -0.2914
  655THF    H12 9954   0.118   4.691   4.706  0.2304  0.2812  0.3372
  655THF    H13 9955   0.104   4.556   4.818  0.6771 -0.2459 -1.5186
  656THF     O1 9956   0.371   3.327   5.497 -0.0564 -0.3440  0.6224
  656THF     C2 9957   0.231   3.362   5.504  0.2661 -0.1652 -0.2012
  656THF     C3 9958   0.384   3.192   5.527 -0.5519  1.0835 -0.3618
  656THF     H4 9959   0.216   3.453   5.445 -0.3399 -1.2918 -1.8604
  656THF     H5 9960   0.199   3.381   5.606 -0.0364 -0.9905 -0.1381
  656THF     H6 9961   0.482   3.150   5.500  0.0360 -0.1611  3.1254
  656THF     H7 9962   0.380   3.150   5.627  1.7809  0.0292 -0.6388
  656THF     C8 9963   0.270   3.131   5.448 -0.6811 -0.2799  0.1348
  656THF     C9 9964   0.158   3.237   5.462 -0.3377 -0.0379 -0.0956
  656THF    H10 9965   0.262   3.030   5.488  3.2037 -0.3775  1.0687
  656THF    H11 9966   0.303   3.123   5.344  1.7980  1.6304  0.6886
  656THF    H12 9967   0.113   3.242   5.363 -1.4637  0.8318  0.4397
  656THF    H13 9968   0.086   3.199   5.534  1.5725 -1.2715  1.2679
  657THF     O1 9969   0.550   3.547   0.957  0.1364  0.2072  0.2794
  657THF     C2 9970   0.411   3.544   0.941  0.3103  0.6059  0.6282
  657THF     C3 9971   0.588   3.434   1.032  0.2649 -0.2149 -0.5637
  657THF     H4 9972   0.380   3.591   0.847  0.5441 -2.2966 -1.0023
  657THF     H5 9973   0.372   3.600   1.026 -1.0569  2.3999 -1.0786
  657THF     H6 9974   0.697   3.435   1.033  0.3290  2.5858 -0.8008
  657THF     H7 9975   0.558   3.451   1.135  1.8014  2.8844 -0.5095
  657THF     C8 9976   0.510   3.326   0.973  0.6389  0.0250  0.9832
  657THF     C9 9977   0.379   3.394   0.934  0.4607 -0.0585  0.1036
  657THF    H10 9978   0.495   3.246   1.046 -2.4709 -0.5865 -0.1705
  657THF    H11 9979   0.539   3.290   0.874 -0.1381  0.8047  0.4635
  657THF    H12 9980   0.353   3.359   0.834 -0.3337 -0.1297  0.3267
  657THF    H13 9981   0.299   3.362   1.001 -0.1722  0.3867 -0.4278
  658THF     O1 9982   1.630   4.846   1.588  0.1221  1.0889  0.5419
  658THF     C2 9983   1.502   4.829   1.639 -0.1983  0.1305  0.6315
  658THF     C3 9984   1.709   4.896   1.694  0.4031  0.2001 -0.2523
  658THF     H4 9985   1.439   4.765   1.576 -0.5146 -3.1339  3.9315
  658THF     H5 9986   1.456   4.927   1.653 -1.6767 -0.0423 -2.2000
  658THF     H6 9987   1.813   4.865   1.683  0.6031  0.4747  0.7455
  658THF     H7 9988   1.714   5.005   1.704 -0.2536  0.1293  1.0906
  658THF     C8 9989   1.650   4.833   1.821  0.7983  0.2932 -0.6927
  658THF     C9 9990   1.523   4.765   1.778  0.2395 -0.3893 -0.2300
  658THF    H10 9991   1.636   4.901   1.905  2.0213  2.1567 -1.9288
  658THF    H11 9992   1.701   4.746   1.862 -3.5809 -2.2772 -0.1271
  658THF    H12 9993   1.525   4.656   1.775  1.2525 -0.4170  0.7466
  658THF    H13 9994   1.442   4.789   1.847  2.2959  1.0159  1.8349
  659THF     O1 9995   1.567   4.690   3.726 -0.9239  0.1966  0.6209
  659THF     C2 9996   1.625   4.824   3.731  0.5870 -0.1286 -0.2793
  659THF     C3 9997   1.465   4.673   3.620 -0.2051  0.0993 -0.2699
  659THF     H4 9998   1.732   4.810   3.723  0.3938 -1.2826 -1.2202
  659THF     H5 9999   1.596   4.862   3.829 -1.9166 -2.3822 -0.0106
  659THF     H610000   1.468   4.575   3.573 -0.7623 -0.1759  0.2517
  659THF     H710001   1.368   4.680   3.670  0.2012  2.3791  0.3104
  659THF     C810002   1.507   4.791   3.522  0.3451  0.0976  0.0696
  659THF     C910003   1.560   4.899   3.613 -0.7166 -0.3820 -0.7079
  659THF    H1010004   1.425   4.838   3.469 -0.0515 -0.7741 -0.1145
  659THF    H1110005   1.580   4.751   3.451 -0.9049 -1.4298 -0.4195
  659THF    H1210006   1.635   4.962   3.565  0.9005 -1.1935  0.6521
  659THF    H1310007   1.478   4.959   3.653 -1.8359 -2.1904 -0.1884
  660THF     O110008   5.157   2.195   0.387  0.1079  0.2590  0.6768
  660THF     C210009   5.202   2.314   0.339  0.3500  0.5661 -0.0361
  660THF     C310010   5.067   2.221   0.491  0.1129  0.2131  0.1476
  660THF     H410011   5.207   2.318   0.230  1.8172 -0.0089 -0.0209
  660THF     H510012   5.302   2.326   0.383 -1.1972  1.3312  3.6303
  660THF     H610013   5.007   2.133   0.516  3.0801 -1.8989  0.4130
  660THF     H710014   5.120   2.245   0.583  1.7437  0.3993 -0.7899
  660THF     C810015   4.997   2.347   0.447  0.0353  0.0218 -0.2871
  660THF     C910016   5.116   2.419   0.396  0.2113 -0.3555  0.3890
  660THF    H1010017   4.941   2.400   0.524 -0.2764 -0.0548 -0.4577
  660THF    H1110018   4.924   2.319   0.370 -0.9485 -0.7318  0.8797
  660THF    H1210019   5.096   2.496   0.321 -0.4527 -2.9945 -2.3373
  660THF    H1310020   5.171   2.466   0.477  1.8472  0.0914 -0.9086
  661THF     O110021   1.309   3.882   0.426 -0.8141 -0.0932 -0.8079
  661THF     C210022   1.428   3.822   0.386  0.1736  0.0853 -0.0093
  661THF     C310023   1.318   3.866   0.573 -0.0480  0.0507  0.1226
  661THF     H410024   1.446   3.850   0.282  0.1495  1.2324  0.2743
  661THF     H510025   1.417   3.714   0.387 -0.2793  0.1076 -1.3731
  661THF     H610026   1.261   3.944   0.623  1.2485  0.4680  1.0180
  661THF     H710027   1.285   3.766   0.601 -0.6972  0.5639  1.2690
  661THF     C810028   1.464   3.866   0.613 -0.4521  0.6202 -0.6024
  661THF     C910029   1.538   3.873   0.481 -0.2248  0.9770  0.3736
  661THF    H1010030   1.492   3.777   0.669  2.5959  1.0604 -1.2538
  661THF    H1110031   1.494   3.956   0.666 -0.8835  0.7096 -0.5044
  661THF    H1210032   1.562   3.978   0.464  1.6874  0.6090  0.6182
  661THF    H1310033   1.626   3.810   0.466 -1.6852 -1.7157  2.3990
  662THF     O110034   3.322   4.903   2.711 -0.0051 -0.1457 -0.0566
  662THF     C210035   3.339   5.016   2.800 -0.2494  0.5007  0.2249
  662THF     C310036   3.303   4.953   2.578 -0.0067  0.9239 -0.0927
  662THF     H410037   3.440   5.057   2.805 -0.7773  2.2595 -1.7276
  662THF     H510038   3.327   4.991   2.905  2.8044 -2.8096 -0.0038
  662THF     H610039   3.398   4.953   2.523  0.5455 -1.1155  0.7928
  662THF     H710040   3.227   4.901   2.520 -1.6800  1.9597  1.0679
  662THF     C810041   3.245   5.096   2.601 -0.5363 -0.6925 -0.4519
  662THF     C910042   3.236   5.111   2.746  1.1582 -0.3006  0.9506
  662THF    H1010043   3.160   5.124   2.538  0.3041 -0.5561 -1.5662
  662THF    H1110044   3.321   5.161   2.557 -1.5429  0.1832 -0.9619
  662THF    H1210045   3.245   5.214   2.781 -0.2932  0.2266 -0.0928
  662THF    H1310046   3.138   5.081   2.784 -0.3005  0.8207 -1.6377
  663THF     O110047   4.423   0.793   0.523  0.1025 -0.2365  0.4565
  663THF     C210048   4.282   0.799   0.561 -0.1972 -0.1775 -0.4393
  663THF     C310049   4.497   0.803   0.639  0.3835  0.0068 -0.5423
  663THF     H410050   4.223   0.708   0.550 -3.1272  1.4071  0.9130
  663THF     H510051   4.223   0.867   0.500 -0.6360 -0.8386 -0.7639
  663THF     H610052   4.492   0.701   0.678 -3.3753  0.2854  0.0541
  663THF     H710053   4.602   0.832   0.638  0.8954 -1.7085 -0.0388
  663THF     C810054   4.413   0.903   0.720  0.2331  0.1451 -0.4589
  663THF     C910055   4.279   0.850   0.701  0.5246 -0.7108  0.0625
  663THF    H1010056   4.414   1.005   0.682 -1.2591 -0.1285 -1.3383
  663THF    H1110057   4.444   0.898   0.824 -1.7922 -2.0995  0.1558
  663THF    H1210058   4.247   0.776   0.775  0.6257 -0.5837  0.2354
  663THF    H1310059   4.198   0.922   0.714 -0.5759 -1.9240  0.1216
  664THF     O110060   4.713   2.036   5.314  0.2546  0.4240 -0.0727
  664THF     C210061   4.753   2.168   5.299 -0.1395 -0.0572 -0.2805
  664THF     C310062   4.790   1.960   5.222  0.2682 -0.7435  0.1438
  664THF     H410063   4.834   2.193   5.367 -0.9779 -2.9704  1.9745
  664THF     H510064   4.665   2.230   5.319 -0.8119 -1.3546  0.8948
  664THF     H610065   4.892   1.955   5.260  1.5386  2.4225 -2.3695
  664THF     H710066   4.741   1.864   5.211 -0.2898 -0.5257  0.7170
  664THF     C810067   4.780   2.051   5.099 -0.0591 -0.1616 -0.0596
  664THF     C910068   4.796   2.192   5.156  0.5810 -0.8850 -0.3258
  664THF    H1010069   4.685   2.035   5.049 -0.3491 -1.4326  0.8383
  664THF    H1110070   4.868   2.026   5.039  2.1181  0.3967  2.7029
  664THF    H1210071   4.904   2.206   5.160  0.6783 -1.3719 -1.0891
  664THF    H1310072   4.731   2.268   5.112 -1.3238 -0.8743  2.2653
  665THF     O110073   4.793   1.649   2.493  0.2415  0.1103  0.3211
  665THF     C210074   4.879   1.554   2.437  0.3999  0.2100  0.5043
  665THF     C310075   4.667   1.652   2.419  0.7200 -0.0177 -0.0591
  665THF     H410076   4.871   1.459   2.489  0.9186 -0.4708 -0.6286
  665THF     H510077   4.979   1.595   2.449 -1.0582  4.2598  0.4244
  665THF     H610078   4.594   1.596   2.478  1.6130 -0.3685  0.7424
  665THF     H710079   4.623   1.750   2.403 -0.5936 -0.7554 -1.2391
  665THF     C810080   4.694   1.570   2.291 -0.7647 -0.0539  0.0559
  665THF     C910081   4.841   1.539   2.295 -0.0845  0.0121  0.2533
  665THF    H1010082   4.670   1.617   2.195 -0.9701 -0.3202 -0.0238
  665THF    H1110083   4.643   1.474   2.291 -0.2010 -0.4117 -2.1106
  665THF    H1210084   4.883   1.447   2.255  1.4177  0.4328  0.7840
  665THF    H1310085   4.897   1.612   2.236  2.0039 -1.0193  0.8317
  666THF     O110086   4.316   4.930   5.095 -0.2133 -0.0907 -0.2232
  666THF     C210087   4.186   4.894   5.134 -0.1736  0.2715 -0.3524
  666THF     C310088   4.310   5.072   5.090 -0.2106 -0.2164  0.5491
  666THF     H410089   4.183   4.787   5.159 -0.6601  0.3414 -0.1085
  666THF     H510090   4.126   4.911   5.045 -0.0948  0.2147 -0.4171
  666THF     H610091   4.407   5.122   5.096 -0.3944  0.1123  0.8327
  666THF     H710092   4.253   5.103   5.003 -1.0424 -2.9476  0.0345
  666THF     C810093   4.224   5.110   5.217  0.0477 -0.1928  0.8635
  666THF     C910094   4.154   4.978   5.251  0.1268 -0.0390  0.3953
  666THF    H1010095   4.145   5.179   5.187 -0.2820 -0.8512  0.1919
  666THF    H1110096   4.285   5.153   5.297 -0.9542  0.7112  1.1693
  666THF    H1210097   4.201   4.955   5.346 -0.7942  0.6361  1.0298
  666THF    H1310098   4.050   4.989   5.280  0.3658  1.0708  0.9034
  667THF     O110099   1.973   2.808   4.017 -0.4644  0.2839 -0.1297
  667THF     C210100   1.974   2.708   3.915 -0.0664  0.5601 -0.2564
  667THF     C310101   2.092   2.880   4.005  0.4872 -0.5872 -0.8331
  667THF     H410102   1.925   2.757   3.830  1.1154  2.3634  0.0502
  667THF     H510103   1.917   2.624   3.955  0.1777  0.6620  0.3064
  667THF     H610104   2.090   2.955   3.926 -2.8684 -2.0730 -2.3693
  667THF     H710105   2.105   2.919   4.106 -1.2062 -2.0110 -0.0179
  667THF     C810106   2.195   2.770   3.978  0.0633 -0.5651  0.3302
  667THF     C910107   2.118   2.669   3.884  0.0186 -0.2527  0.4903
  667THF    H1010108   2.235   2.723   4.067 -0.4279 -2.5003 -0.4326
  667THF    H1110109   2.285   2.815   3.935 -1.3751  1.0107 -1.2247
  667THF    H1210110   2.141   2.699   3.782  1.0013  0.1652  0.8203
  667THF    H1310111   2.152   2.567   3.902  0.9677 -0.1542 -0.5786
  668THF     O110112   1.541   3.402   1.145  0.7688  0.1051  0.0179
  668THF     C210113   1.531   3.414   1.287  0.1799  0.3327 -0.0325
  668THF     C310114   1.461   3.285   1.112 -0.2647 -0.1551 -0.4039
  668THF     H410115   1.581   3.498   1.335  1.5578 -0.3571 -0.1972
  668THF     H510116   1.576   3.321   1.324 -0.1133  0.7560  1.4256
  668THF     H610117   1.421   3.272   1.012  1.6988  1.9899 -1.5604
  668THF     H710118   1.515   3.194   1.134 -1.1711 -0.4662  0.6217
  668THF     C810119   1.339   3.303   1.202 -0.6425  0.6465 -0.1680
  668THF     C910120   1.384   3.380   1.323  0.6998 -0.1358  0.4986
  668THF    H1010121   1.304   3.205   1.233  1.2118 -0.1300 -0.3782
  668THF    H1110122   1.254   3.351   1.154 -0.2117  2.0985  0.4679
  668THF    H1210123   1.316   3.465   1.332  0.4811 -0.1519 -0.8270
  668THF    H1310124   1.380   3.313   1.409 -0.1616 -0.2857  0.3483
  669THF     O110125   2.083   2.657   4.988  0.1330  0.0406 -0.5010
  669THF     C210126   2.140   2.776   5.053  0.2866  0.7215  0.3501
  669THF     C310127   2.097   2.669   4.851  1.0915  0.2640 -0.2420
  669THF     H410128   2.243   2.745   5.074 -0.2826 -2.7381 -1.1742
  669THF     H510129   2.091   2.791   5.149  0.7262  1.9145  0.4046
  669THF     H610130   2.164   2.591   4.814  0.2638 -0.6940  0.2136
  669THF     H710131   1.999   2.649   4.809  0.4072  0.3993  1.2445
  669THF     C810132   2.133   2.811   4.828 -0.6263  0.3727 -0.5014
  669THF     C910133   2.114   2.887   4.951  0.0868 -0.1232  0.0940
  669THF    H1010134   2.067   2.859   4.755  0.7834  0.8675 -1.4829
  669THF    H1110135   2.237   2.817   4.798 -0.5714  0.2761 -0.3278
  669THF    H1210136   2.184   2.970   4.962  1.0434 -0.8000 -0.7817
  669THF    H1310137   2.013   2.926   4.963  0.4090  1.3836 -1.6968
  670THF     O110138   3.451   3.216   4.217  0.1086 -0.3019 -0.3761
  670THF     C210139   3.395   3.211   4.345  0.2123 -0.2846  0.6169
  670THF     C310140   3.357   3.292   4.137 -0.1054  0.3310 -0.0127
  670THF     H410141   3.432   3.281   4.421 -0.6118  0.0372  0.7302
  670THF     H510142   3.432   3.117   4.386 -1.6154 -0.6727  1.4743
  670THF     H610143   3.389   3.396   4.140  0.2944  0.2755 -1.4728
  670THF     H710144   3.350   3.255   4.035 -2.9060  1.0374 -0.1594
  670THF     C810145   3.220   3.283   4.209 -0.4633 -0.3396 -0.1106
  670THF     C910146   3.247   3.203   4.333 -0.2281 -0.7022  0.5263
  670THF    H1010147   3.142   3.225   4.160 -0.1418 -0.1472 -0.8745
  670THF    H1110148   3.187   3.382   4.241  1.0662 -0.3801  1.7432
  670THF    H1210149   3.189   3.245   4.415  0.7433  0.1063  0.8135
  670THF    H1310150   3.209   3.103   4.311 -1.6864  0.1241 -0.9760
  671THF     O110151   2.380   3.148   3.597 -0.1833 -0.3145 -1.1041
  671THF     C210152   2.405   3.023   3.653  0.0481  0.1394  0.2577
  671THF     C310153   2.248   3.188   3.646 -0.5591 -0.3190  0.5666
  671THF     H410154   2.433   3.028   3.758 -1.5770 -0.8630  0.7834
  671THF     H510155   2.478   2.965   3.595 -0.8217 -1.5334  0.7582
  671THF     H610156   2.268   3.233   3.743  1.7261 -1.4874  0.7267
  671THF     H710157   2.211   3.274   3.590 -3.8334 -1.7264  0.3792
  671THF     C810158   2.163   3.060   3.642 -0.2450  0.1022 -0.1658
  671THF     C910159   2.267   2.947   3.632 -0.5091  0.3665 -0.0817
  671THF    H1010160   2.106   3.071   3.550  0.8974  0.7060 -0.8174
  671THF    H1110161   2.099   3.051   3.730 -0.9969  2.9973 -0.3158
  671THF    H1210162   2.256   2.869   3.707 -1.1013 -0.5415 -1.0820
  671THF    H1310163   2.282   2.898   3.536 -0.1442  0.0791  0.1200
  672THF     O110164   0.937   3.283   2.110 -0.6738  0.1285  0.9748
  672THF     C210165   1.034   3.285   1.997 -0.4091 -0.2859 -0.1720
  672THF     C310166   0.989   3.359   2.213 -0.1183 -0.6649 -0.2887
  672THF     H410167   0.989   3.281   1.898 -2.2896 -2.0580  0.6926
  672THF     H510168   1.100   3.199   2.003 -0.4885 -0.4143 -1.0322
  672THF     H610169   0.937   3.453   2.227 -1.2417 -1.7450  4.3875
  672THF     H710170   0.979   3.318   2.314 -1.0160  0.0057 -0.0989
  672THF     C810171   1.132   3.389   2.176 -0.2765 -0.7073 -0.5120
  672THF     C910172   1.120   3.411   2.027  0.1268  0.8002 -0.0205
  672THF    H1010173   1.189   3.298   2.197 -0.2596 -1.2013 -2.5447
  672THF    H1110174   1.172   3.473   2.234 -1.4719  0.9067 -1.9472
  672THF    H1210175   1.074   3.503   1.990 -0.2277  0.2179 -1.0788
  672THF    H1310176   1.220   3.402   1.985 -0.0164 -1.6161 -0.0088
  673THF     O110177   1.693   3.818   5.286  0.1547 -0.1738 -0.5587
  673THF     C210178   1.822   3.833   5.224  0.2846 -0.0677  0.7843
  673THF     C310179   1.715   3.775   5.420  0.3690  0.0762  0.5417
  673THF     H410180   1.799   3.890   5.134 -2.4597 -0.7849  0.9553
  673THF     H510181   1.881   3.743   5.204 -0.2161 -0.6963  2.0338
  673THF     H610182   1.627   3.797   5.482  0.5130  3.1079 -0.1707
  673THF     H710183   1.738   3.669   5.426  0.0588 -0.0618 -0.5864
  673THF     C810184   1.832   3.870   5.463  0.7742 -0.1880  0.0700
  673THF     C910185   1.902   3.903   5.338  0.1237 -0.4375  0.4822
  673THF    H1010186   1.892   3.820   5.540  0.1397  0.6358  1.1378
  673THF    H1110187   1.793   3.966   5.497  0.5548  0.0059 -0.7156
  673THF    H1210188   1.893   4.011   5.332 -0.4209 -0.5182 -0.3027
  673THF    H1310189   2.011   3.894   5.335  0.1779 -0.8628  2.4241
  674THF     O110190   2.059   0.558   0.759  0.1471  0.3023  0.2081
  674THF     C210191   1.936   0.515   0.702  0.1047  0.3185  0.4066
  674THF     C310192   2.092   0.469   0.862 -0.1519 -0.1270 -0.1128
  674THF     H410193   1.952   0.437   0.628  0.3081 -0.3114  1.1015
  674THF     H510194   1.865   0.584   0.655  0.0474  0.6341  0.9422
  674THF     H610195   2.198   0.446   0.858 -0.2453 -0.4910 -0.7010
  674THF     H710196   2.068   0.527   0.951  0.3375 -1.0592  0.6456
  674THF     C810197   1.997   0.353   0.854 -0.0792  0.2108 -0.4373
  674THF     C910198   1.871   0.426   0.810 -0.3130 -0.1318  0.9118
  674THF    H1010199   1.985   0.314   0.955 -2.9992 -1.3556 -1.2717
  674THF    H1110200   2.037   0.279   0.785 -0.4584 -0.4599  0.0580
  674THF    H1210201   1.790   0.359   0.782  0.0120 -0.3963  0.5938
  674THF    H1310202   1.820   0.472   0.894  2.5252  1.5577  1.8493
  675THF     O110203   5.056   1.220   1.496 -0.3531  0.3094 -0.3820
  675THF     C210204   5.019   1.190   1.633 -0.7788  0.4724  0.1024
  675THF     C310205   4.954   1.189   1.400  0.4171  0.1202 -0.4857
  675THF     H410206   5.035   1.275   1.700 -0.2557 -0.3649  1.0574
  675THF     H510207   5.082   1.111   1.674 -1.0029  0.1848 -0.1020
  675THF     H610208   4.942   1.250   1.311 -0.6151 -1.7672 -1.7064
  675THF     H710209   4.967   1.088   1.361  1.6400  0.0754 -0.0227
  675THF     C810210   4.828   1.179   1.483  0.2376 -0.1394 -0.0674
  675THF     C910211   4.871   1.153   1.630 -0.1002  0.1887  0.7154
  675THF    H1010212   4.763   1.104   1.439 -0.6761  0.9426 -0.6051
  675THF    H1110213   4.772   1.273   1.486  1.4821  0.6076  1.5559
  675THF    H1210214   4.807   1.220   1.686 -0.1293  1.3190 -0.6248
  675THF    H1310215   4.855   1.046   1.645  0.3283 -0.0445 -0.3922
  676THF     O110216   2.869   2.444   2.536  0.0183  0.3709 -0.2230
  676THF     C210217   2.849   2.314   2.584 -0.2585 -0.1947 -0.2135
  676THF     C310218   2.962   2.507   2.627  0.5963 -0.2856  0.4103
  676THF     H410219   2.942   2.265   2.557  0.3142  1.1804 -0.8852
  676THF     H510220   2.763   2.271   2.532  0.0059 -0.0883 -0.7491
  676THF     H610221   3.065   2.478   2.611 -0.5944 -4.3039 -1.0681
  676THF     H710222   2.947   2.615   2.635 -1.3924 -0.4657 -0.2075
  676THF     C810223   2.911   2.454   2.761  0.1312 -0.1067  0.3209
  676THF     C910224   2.833   2.324   2.732  0.1988 -0.1192  0.1444
  676THF    H1010225   2.847   2.528   2.810  0.7615  0.7927 -0.1881
  676THF    H1110226   2.991   2.438   2.833  0.6143  1.6887  0.2267
  676THF    H1210227   2.873   2.237   2.784 -0.6356 -0.9859 -0.6130
  676THF    H1310228   2.728   2.330   2.760 -0.2360 -0.8479 -1.2388
  677THF     O110229   0.257   0.559   3.854  0.3209 -0.2869 -0.4190
  677THF     C210230   0.396   0.581   3.866 -0.6053  0.0918 -1.1530
  677THF     C310231   0.227   0.465   3.952 -0.1179  0.3746 -0.3476
  677THF     H410232   0.421   0.668   3.806 -0.3055 -0.2792 -1.5688
  677THF     H510233   0.447   0.489   3.839  0.2702 -0.2699  1.4120
  677THF     H610234   0.122   0.443   3.969  0.0575 -0.5146 -0.3900
  677THF     H710235   0.281   0.375   3.924  2.2859  1.7904 -0.6068
  677THF     C810236   0.289   0.531   4.078 -0.1339  0.5177 -0.2664
  677THF     C910237   0.407   0.606   4.020  0.6939  0.2683  0.7832
  677THF    H1010238   0.310   0.462   4.159 -1.7277  1.5410  1.0851
  677THF    H1110239   0.214   0.596   4.123 -0.2265  0.9442 -1.0110
  677THF    H1210240   0.419   0.713   4.037 -1.6884  0.5259  1.2119
  677THF    H1310241   0.505   0.574   4.054  1.0330 -2.0915 -2.0656
  678THF     O110242   4.706   2.955   1.226  0.0172  0.0008  0.0426
  678THF     C210243   4.685   3.019   1.347  0.8786 -0.5456 -0.5432
  678THF     C310244   4.661   3.042   1.124 -0.1385  0.7420  0.6622
  678THF     H410245   4.782   3.061   1.372  1.7835 -1.8573 -1.7278
  678THF     H510246   4.664   2.943   1.422 -0.2530 -0.5692 -0.8705
  678THF     H610247   4.732   3.123   1.108 -0.7752  1.2751  0.5175
  678THF     H710248   4.650   2.990   1.028  0.4131  2.6484 -0.4891
  678THF     C810249   4.530   3.095   1.173 -0.6075 -0.1007 -1.0978
  678THF     C910250   4.569   3.109   1.318  0.3055 -0.3580 -0.6648
  678THF    H1010251   4.443   3.030   1.168 -1.7321  1.0647  1.5318
  678THF    H1110252   4.502   3.188   1.124 -1.9345 -0.4330 -0.9896
  678THF    H1210253   4.588   3.216   1.332  0.3865 -0.6226  1.7908
  678THF    H1310254   4.485   3.099   1.387  0.8028  0.8580  0.1697
  679THF     O110255   5.385   1.432   0.111  0.1602  0.0941 -0.0945
  679THF     C210256   5.339   1.338   0.020 -0.1060 -0.0641 -0.2706
  679THF     C310257   5.331   1.391   0.238 -0.5104 -0.3777  0.0817
  679THF     H410258   5.397   1.340  -0.072 -0.1118 -0.8422 -0.2975
  679THF     H510259   5.238   1.358  -0.017 -0.1689 -1.5174 -0.9605
  679THF     H610260   5.383   1.431   0.325  1.2269 -1.8837 -0.1894
  679THF     H710261   5.225   1.415   0.231  0.0121  1.6011 -2.3978
  679THF     C810262   5.358   1.241   0.236 -0.1291 -0.1062  0.3586
  679THF     C910263   5.349   1.206   0.091 -0.2248  0.0823  0.0143
  679THF    H1010264   5.295   1.188   0.307 -0.6890 -0.2738 -0.2555
  679THF    H1110265   5.463   1.231   0.265  0.3023  1.7519 -0.3830
  679THF    H1210266   5.430   1.142   0.056  0.6232 -0.1069  2.1977
  679THF    H1310267   5.256   1.152   0.073 -0.9096  0.7194  1.4628
  680THF     O110268   1.280   3.359   0.780  0.5096 -0.0528  0.4155
  680THF     C210269   1.356   3.476   0.784  0.3939 -0.0590  0.4243
  680THF     C310270   1.345   3.274   0.691 -0.2310 -0.2019  0.0922
  680THF     H410271   1.431   3.460   0.862  1.4202  0.7394 -0.3715
  680THF     H510272   1.289   3.562   0.797  0.7622  0.4895 -1.0990
  680THF     H610273   1.435   3.239   0.743  0.7491 -0.2884 -1.5659
  680THF     H710274   1.285   3.189   0.660  1.0971 -0.1963 -2.8292
  680THF     C810275   1.390   3.364   0.579  0.2040 -0.1124  0.4866
  680THF     C910276   1.411   3.494   0.642 -0.2151 -0.7247 -0.8934
  680THF    H1010277   1.303   3.366   0.513  0.1852 -1.9681  0.4032
  680THF    H1110278   1.480   3.325   0.531  0.4787  2.5550 -1.3607
  680THF    H1210279   1.516   3.524   0.640  0.1196 -1.7699 -0.1724
  680THF    H1310280   1.342   3.563   0.594 -0.8114 -1.2626 -0.8143
  681THF     O110281   5.161   4.885   2.482  0.1558 -0.0942 -0.5842
  681THF     C210282   5.060   4.798   2.433  0.6558 -0.5448  0.1859
  681THF     C310283   5.255   4.820   2.576 -0.6925 -0.2095 -0.3208
  681THF     H410284   5.087   4.777   2.330 -0.0619 -0.1383 -0.0953
  681THF     H510285   4.957   4.835   2.438  0.5629 -0.8117  0.2868
  681THF     H610286   5.355   4.854   2.551 -0.2354 -1.6914 -0.6011
  681THF     H710287   5.222   4.847   2.676 -1.5940 -0.0241 -0.6513
  681THF     C810288   5.223   4.670   2.558  0.3267  0.2278  0.1992
  681THF     C910289   5.081   4.669   2.514 -0.0447  0.6555 -0.9329
  681THF    H1010290   5.247   4.603   2.641 -0.2784 -1.7348 -1.1198
  681THF    H1110291   5.282   4.642   2.471  1.3216  1.9032  0.3047
  681THF    H1210292   5.066   4.568   2.475  1.6250 -0.8182  1.8516
  681THF    H1310293   5.027   4.681   2.608 -0.0794 -0.7540 -0.7558
  682THF     O110294   3.189   3.195   4.764 -0.9389  0.5038  0.1223
  682THF     C210295   3.149   3.134   4.887 -0.1441 -0.1298 -0.4726
  682THF     C310296   3.071   3.200   4.685  0.3157 -0.0552 -0.3100
  682THF     H410297   3.221   3.148   4.968 -1.3952  2.1580  0.3323
  682THF     H510298   3.127   3.030   4.862 -0.6227 -0.1724  0.0977
  682THF     H610299   3.070   3.292   4.627 -3.4491 -1.0058 -2.1072
  682THF     H710300   3.051   3.115   4.620 -2.3353 -0.4656  0.9022
  682THF     C810301   2.951   3.212   4.787 -0.0840 -0.3455  0.4680
  682THF     C910302   3.009   3.189   4.928 -0.0925 -0.3547 -0.2778
  682THF    H1010303   2.883   3.130   4.763 -1.8257  1.0433  0.4855
  682THF    H1110304   2.895   3.305   4.779  1.8643  0.9396  0.9753
  682THF    H1210305   3.023   3.284   4.980 -1.2220  0.0602 -0.7099
  682THF    H1310306   2.953   3.117   4.987 -0.6255  0.2980  0.0232
  683THF     O110307   0.213   2.880   2.840 -0.0622  0.3294  0.6197
  683THF     C210308   0.230   2.802   2.961 -0.4445  0.4538  0.1411
  683THF     C310309   0.155   3.004   2.878 -0.5152 -0.3994  0.3636
  683THF     H410310   0.323   2.747   2.956 -0.5139  0.2701  0.8244
  683THF     H510311   0.150   2.729   2.974 -1.2571  0.4534 -3.7812
  683THF     H610312   0.189   3.076   2.804  1.2126 -2.5568 -1.0818
  683THF     H710313   0.046   3.000   2.888 -0.4947  1.0422  1.4675
  683THF     C810314   0.219   3.038   3.008 -0.0595 -0.6352 -0.1575
  683THF     C910315   0.235   2.902   3.077 -0.0972 -0.2418  0.2460
  683THF    H1010316   0.151   3.102   3.066  1.0040  3.2780 -2.8003
  683THF    H1110317   0.315   3.086   2.992  0.3046 -0.9813  0.8972
  683THF    H1210318   0.330   2.900   3.131  0.2779  1.2536 -0.2982
  683THF    H1310319   0.147   2.881   3.137 -0.8728  0.2132 -0.7105
  684THF     O110320   4.466   5.180   4.210 -0.0339 -0.0035  0.1477
  684THF     C210321   4.478   5.258   4.329  0.3791  0.0819 -0.6985
  684THF     C310322   4.371   5.079   4.242 -0.0109  0.0024  0.0438
  684THF     H410323   4.505   5.360   4.302 -1.2454  0.9015  0.6061
  684THF     H510324   4.564   5.219   4.384  0.1214  1.2382  0.5730
  684THF     H610325   4.329   5.025   4.157 -1.4152  0.1151  0.6330
  684THF     H710326   4.420   5.005   4.305  0.9783  0.0393 -0.6567
  684THF     C810327   4.264   5.157   4.320 -0.0102  0.1164  0.3836
  684THF     C910328   4.348   5.242   4.405  0.4692 -0.3051  0.8552
  684THF    H1010329   4.204   5.081   4.371  0.9734 -0.9775 -0.0467
  684THF    H1110330   4.198   5.218   4.258 -0.9043 -1.1164  0.0788
  684THF    H1210331   4.294   5.336   4.412 -0.4836 -0.7933  0.2370
  684THF    H1310332   4.362   5.195   4.502 -2.9554 -2.0305  0.6396
  685THF     O110333   3.077   0.154   0.968 -0.3925  0.6160 -0.2239
  685THF     C210334   3.082   0.017   1.012  0.1925 -0.6397 -0.0652
  685THF     C310335   2.940   0.183   0.929  0.1366  0.5905 -0.0671
  685THF     H410336   3.030   0.021   1.108  1.0261 -0.8563  0.4093
  685THF     H510337   3.188  -0.007   1.020  0.1353 -0.9532 -0.2342
  685THF     H610338   2.886   0.226   1.013  1.2390 -0.7934  1.4062
  685THF     H710339   2.933   0.250   0.843  0.9356 -0.5581 -1.0653
  685THF     C810340   2.883   0.047   0.883  0.1435  0.9291  0.3928
  685THF     C910341   3.003  -0.048   0.899  0.0880 -0.7357 -0.5958
  685THF    H1010342   2.829   0.041   0.788 -1.3526 -1.1966  1.3092
  685THF    H1110343   2.807   0.022   0.956 -1.5987  1.0790 -1.2794
  685THF    H1210344   2.981  -0.150   0.931 -1.6104 -0.0342  0.6162
  685THF    H1310345   3.071  -0.043   0.814  0.9163 -0.3503  0.0771
  686THF     O110346   1.625   2.094   2.014  0.2379 -0.3014  0.3352
  686THF     C210347   1.486   2.142   2.026 -0.6391  0.5610 -1.0792
  686THF     C310348   1.688   2.171   1.906  0.2304  0.1201 -0.1728
  686THF     H410349   1.466   2.207   2.111  0.2495 -0.8133  0.2324
  686THF     H510350   1.429   2.049   2.030 -0.9550  0.7732 -0.5199
  686THF     H610351   1.720   2.265   1.951 -1.3229  0.4257  0.3808
  686THF     H710352   1.774   2.124   1.859  0.8833  0.5023  0.6067
  686THF     C810353   1.580   2.178   1.804  0.2237 -0.1800  0.2072
  686THF     C910354   1.469   2.209   1.892  0.0321  0.0815  0.5630
  686THF    H1010355   1.569   2.083   1.751 -0.0485 -0.0069 -0.0510
  686THF    H1110356   1.586   2.264   1.737 -1.0691 -0.5365 -0.4065
  686THF    H1210357   1.468   2.316   1.914  0.5039  0.1039  0.4876
  686THF    H1310358   1.369   2.196   1.850  0.8690 -1.6347 -1.0345
  687THF     O110359   3.284   3.692   0.230 -0.3377 -0.0149  0.5020
  687THF     C210360   3.324   3.637   0.107 -0.0985 -0.1628  0.2557
  687THF     C310361   3.310   3.835   0.220 -0.1244 -0.0922 -0.0966
  687THF     H410362   3.244   3.652   0.034 -0.0353  1.4326  0.4810
  687THF     H510363   3.332   3.529   0.121  0.7445 -0.2797 -1.0089
  687THF     H610364   3.242   3.872   0.143 -1.6257 -2.5920 -0.0960
  687THF     H710365   3.317   3.888   0.315 -0.8376  0.4266 -0.3239
  687THF     C810366   3.449   3.826   0.166 -0.3713 -0.2108 -0.2295
  687THF     C910367   3.445   3.713   0.062 -0.8740 -0.0653 -0.3545
  687THF    H1010368   3.516   3.798   0.248  1.3765 -0.0451 -1.5384
  687THF    H1110369   3.495   3.914   0.121 -0.3565  0.6171  1.3609
  687THF    H1210370   3.421   3.756  -0.035 -0.0924 -0.9904 -0.9775
  687THF    H1310371   3.532   3.647   0.059 -0.2985  0.5787  1.1852
  688THF     O110372   0.932   2.798   0.102 -0.2346  0.3340 -0.2964
  688THF     C210373   0.939   2.939   0.066  0.5227  0.2442 -0.1430
  688THF     C310374   1.063   2.744   0.085 -0.2206  0.5221 -0.4829
  688THF     H410375   0.945   2.998   0.158  0.5753  1.0853 -0.6856
  688THF     H510376   0.852   2.964   0.006  0.5063 -1.3338 -0.8327
  688THF     H610377   1.127   2.768   0.170 -0.6537 -0.6251  0.1871
  688THF     H710378   1.054   2.636   0.075  1.1509  0.5381 -2.2169
  688THF     C810379   1.096   2.801  -0.057 -0.9977 -0.0894 -0.9407
  688THF     C910380   1.072   2.949  -0.021  0.6788 -0.3705 -0.0847
  688THF    H1010381   1.020   2.777  -0.131 -0.6001 -0.1953 -1.3129
  688THF    H1110382   1.197   2.775  -0.087 -0.6950  0.6173 -0.5786
  688THF    H1210383   1.147   3.003   0.037 -2.1748  0.7724  2.8168
  688THF    H1310384   1.048   3.009  -0.109  2.4307  0.1857 -0.2149
  689THF     O110385   4.064   5.353   0.397  0.2493 -0.0986  0.3737
  689THF     C210386   3.967   5.264   0.455 -0.6655  0.5245  0.2666
  689THF     C310387   4.191   5.288   0.402  0.0927 -0.2620 -0.0924
  689THF     H410388   3.945   5.200   0.369 -1.2060 -2.2200  2.2844
  689THF     H510389   3.870   5.308   0.480 -0.2426  0.6667  1.7165
  689THF     H610390   4.190   5.236   0.306  0.2146 -0.8233  0.2049
  689THF     H710391   4.269   5.362   0.385 -2.4380  2.3752 -0.9302
  689THF     C810392   4.191   5.220   0.532  0.0651  0.2105 -0.1385
  689THF     C910393   4.045   5.190   0.563 -0.2849 -0.0874 -0.4183
  689THF    H1010394   4.229   5.279   0.616  1.6620 -2.1778  0.9168
  689THF    H1110395   4.252   5.130   0.534 -0.5498 -0.1899  0.7549
  689THF    H1210396   4.015   5.085   0.569  0.8616 -0.3681  1.0072
  689THF    H1310397   4.026   5.240   0.658 -0.2275  1.1445 -1.0404
  690THF     O110398   4.347   0.093   3.960  1.0470  0.4207  0.7671
  690THF     C210399   4.348  -0.044   3.989 -0.5922  0.0689 -0.2104
  690THF     C310400   4.469   0.151   4.017  0.1757  0.1136 -0.0578
  690THF     H410401   4.271  -0.102   3.938 -1.0627 -0.5598  1.1767
  690THF     H510402   4.333  -0.063   4.095 -1.2488  0.0387 -0.3065
  690THF     H610403   4.494   0.249   3.977 -1.1484  0.5492  0.1209
  690THF     H710404   4.454   0.156   4.125  2.0825 -0.9406  0.2918
  690THF     C810405   4.576   0.053   3.980  0.1136  0.3846 -0.7572
  690THF     C910406   4.493  -0.075   3.951 -0.3165 -0.0123 -0.3874
  690THF    H1010407   4.647   0.031   4.061 -1.5041 -0.7375  0.4487
  690THF    H1110408   4.636   0.086   3.895  0.9048 -0.0635 -0.3899
  690THF    H1210409   4.504  -0.102   3.846  2.8313 -1.8958  0.3202
  690THF    H1310410   4.533  -0.162   4.002 -0.5486  0.9055  1.4697
  691THF     O110411   3.227   3.217   3.205 -0.3953 -0.0690 -0.6391
  691THF     C210412   3.242   3.129   3.306  0.5247 -0.0703 -0.3983
  691THF     C310413   3.345   3.299   3.193  0.4596  0.5316 -0.1111
  691THF     H410414   3.167   3.052   3.289  1.1268 -0.6173 -0.5960
  691THF     H510415   3.224   3.181   3.400  0.0474  0.7277 -0.9164
  691THF     H610416   3.340   3.333   3.090  2.2994  0.1325 -0.3549
  691THF     H710417   3.346   3.375   3.271 -0.9843 -0.4687  0.9622
  691THF     C810418   3.459   3.192   3.200  0.1388  0.4335  0.1873
  691THF     C910419   3.384   3.077   3.275 -0.3371 -0.8596 -0.1042
  691THF    H1010420   3.543   3.231   3.258  0.2730 -0.3045  0.4962
  691THF    H1110421   3.490   3.147   3.106 -1.6259 -0.3048 -0.0652
  691THF    H1210422   3.387   2.991   3.208  0.6609 -1.2766  0.4505
  691THF    H1310423   3.443   3.035   3.356  1.0173 -0.7327 -0.9912
  692THF     O110424   4.370   4.419   3.357 -0.0316  0.1004 -0.1774
  692THF     C210425   4.301   4.540   3.329 -0.3804  0.2890  0.3174
  692THF     C310426   4.473   4.395   3.254  0.3953 -0.1751 -0.2614
  692THF     H410427   4.359   4.632   3.334 -0.7473  0.8947 -3.6506
  692THF     H510428   4.205   4.566   3.374 -1.1878  2.7226 -2.5388
  692THF     H610429   4.565   4.437   3.295  1.5895 -1.2356 -1.7294
  692THF     H710430   4.487   4.288   3.240 -0.2275 -0.2262 -0.5294
  692THF     C810431   4.420   4.477   3.138  0.6004  0.1352 -0.1801
  692THF     C910432   4.282   4.523   3.177 -0.7023 -1.0860 -0.4076
  692THF    H1010433   4.427   4.423   3.044  0.8478  0.6946 -0.4889
  692THF    H1110434   4.487   4.563   3.129 -0.6183  1.4541  2.3396
  692THF    H1210435   4.249   4.607   3.117  0.8847 -1.2658 -1.5988
  692THF    H1310436   4.203   4.449   3.167 -3.1603  1.5706 -2.2241
  693THF     O110437   5.326   2.684   1.176  0.3144 -0.3921 -0.7988
  693THF     C210438   5.384   2.713   1.301  0.1769 -1.2268 -0.1551
  693THF     C310439   5.214   2.605   1.214  0.1663  1.2183 -0.1671
  693THF     H410440   5.385   2.819   1.326  0.9098 -1.2524 -0.0451
  693THF     H510441   5.490   2.686   1.296  0.6546 -0.4187  3.1556
  693THF     H610442   5.129   2.667   1.242 -1.0663 -0.3374 -0.3214
  693THF     H710443   5.190   2.520   1.149  1.8423  1.1479 -0.7268
  693THF     C810444   5.260   2.530   1.338  0.0452  0.4100  0.1273
  693THF     C910445   5.323   2.639   1.417  0.6880  0.3144  0.1326
  693THF    H1010446   5.327   2.444   1.329 -2.1259 -1.2171 -2.5006
  693THF    H1110447   5.169   2.495   1.387  0.1141  2.6631  1.9897
  693THF    H1210448   5.259   2.703   1.477 -1.0222  1.3740 -2.6539
  693THF    H1310449   5.403   2.610   1.485  0.2575  0.2866  0.6313
  694THF     O110450   5.253   3.798   2.389 -0.1908  0.1804 -0.5454
  694THF     C210451   5.158   3.772   2.288 -0.5254 -0.0244 -0.1304
  694THF     C310452   5.366   3.712   2.360  0.5253  0.1254 -0.3923
  694THF     H410453   5.085   3.853   2.287 -0.2659  0.2112  0.2691
  694THF     H510454   5.105   3.682   2.321 -0.5332 -0.0602 -0.2383
  694THF     H610455   5.448   3.748   2.421 -0.6329 -0.8384  1.8381
  694THF     H710456   5.349   3.608   2.389  0.8097  0.3499  0.6156
  694THF     C810457   5.386   3.732   2.209  0.3622 -0.1988 -0.3941
  694THF     C910458   5.243   3.760   2.156  0.6561  0.2400 -0.1688
  694THF    H1010459   5.422   3.637   2.170  3.5620  0.6658  0.2237
  694THF    H1110460   5.455   3.815   2.194 -1.0423  0.8122 -1.6198
  694THF    H1210461   5.241   3.851   2.096 -1.0954 -1.6889 -3.3375
  694THF    H1310462   5.209   3.672   2.102  4.2351 -1.7853  0.5532
  695THF     O110463   1.775   1.788   4.158  0.2847 -0.2584  0.2057
  695THF     C210464   1.752   1.903   4.081  0.0557  0.4051 -0.4281
  695THF     C310465   1.841   1.841   4.271 -0.3412  0.1916  0.0880
  695THF     H410466   1.665   1.963   4.110 -0.2654 -0.1129 -0.3085
  695THF     H510467   1.737   1.877   3.977  0.1724 -0.5108 -0.2205
  695THF     H610468   1.772   1.902   4.329 -1.0673  0.6893 -1.2503
  695THF     H710469   1.887   1.762   4.330  0.5136 -0.2640 -1.1347
  695THF     C810470   1.943   1.936   4.212 -1.0516  0.0185 -0.6963
  695THF     C910471   1.872   1.987   4.089 -0.0886 -0.3106 -0.4861
  695THF    H1010472   2.035   1.891   4.174 -1.0453 -0.1962 -0.4318
  695THF    H1110473   1.973   2.013   4.283 -0.8717  0.3571 -1.1302
  695THF    H1210474   1.861   2.095   4.098  1.8158 -0.2138  1.4276
  695THF    H1310475   1.932   1.956   4.004  0.9652 -1.4533  0.6269
  696THF     O110476   1.501   2.652   4.842  0.2309 -0.3787 -0.3041
  696THF     C210477   1.478   2.715   4.717  0.5988 -0.0121  0.0071
  696THF     C310478   1.644   2.661   4.861 -0.5510  0.1840  1.1427
  696THF     H410479   1.378   2.757   4.714 -0.3619 -2.1811 -0.6557
  696THF     H510480   1.494   2.648   4.632  2.9556 -1.3828  1.4070
  696THF     H610481   1.681   2.628   4.959 -0.1550  0.0531  0.9518
  696THF     H710482   1.699   2.596   4.793 -0.6589  1.6262 -0.3725
  696THF     C810483   1.675   2.801   4.823 -0.5700  0.3447 -0.1545
  696THF     C910484   1.577   2.835   4.713  0.0090  0.3507  0.1019
  696THF    H1010485   1.780   2.823   4.802 -0.4547  1.2620  1.2742
  696THF    H1110486   1.649   2.863   4.909  0.8305  0.6563  0.0694
  696THF    H1210487   1.522   2.927   4.732 -1.4356 -0.7828  1.6790
  696THF    H1310488   1.614   2.851   4.611  0.6333  0.1117  0.2838
  697THF     O110489   2.140   4.873   4.507 -0.3644  0.4555  0.0887
  697THF     C210490   2.114   5.012   4.491 -0.2011  0.0328  0.3063
  697THF     C310491   2.264   4.857   4.440 -0.0314  0.2526 -0.8861
  697THF     H410492   2.184   5.061   4.559  4.1552  0.6623 -4.0175
  697THF     H510493   2.007   5.032   4.504 -0.7009 -1.8224 -0.6953
  697THF     H610494   2.353   4.897   4.488 -0.9021 -1.6133  2.5449
  697THF     H710495   2.281   4.750   4.426  3.1602  0.5685  0.0046
  697THF     C810496   2.239   4.929   4.306 -0.1103  0.2953 -0.8189
  697THF     C910497   2.153   5.052   4.352  0.3934  0.0788 -0.1584
  697THF    H1010498   2.173   4.873   4.239 -1.3933  0.8281 -0.0480
  697THF    H1110499   2.334   4.966   4.267  0.2859 -0.2511 -0.3726
  697THF    H1210500   2.214   5.143   4.350  2.9729 -1.5557 -0.8027
  697THF    H1310501   2.070   5.070   4.284  0.1501 -0.3177  0.0330
  698THF     O110502   1.650   5.284   1.411  0.0645 -0.1797  0.2141
  698THF     C210503   1.558   5.176   1.413  0.2136  0.3039  0.3922
  698THF     C310504   1.612   5.361   1.523 -0.4016 -0.3857  0.3000
  698THF     H410505   1.583   5.103   1.491  0.7014 -1.0931 -0.9999
  698THF     H510506   1.557   5.127   1.315 -0.0370  3.4101 -1.2639
  698THF     H610507   1.638   5.314   1.618  1.2744  1.2140  0.6971
  698THF     H710508   1.656   5.461   1.529  0.4170 -0.5900 -1.5962
  698THF     C810509   1.463   5.375   1.512  0.9890  0.0587 -0.3584
  698THF     C910510   1.420   5.243   1.446  0.3446 -0.9976 -0.6823
  698THF    H1010511   1.429   5.460   1.452  1.5336  1.2545  0.9530
  698THF    H1110512   1.417   5.384   1.611  1.8835 -0.6137  0.1289
  698THF    H1210513   1.371   5.175   1.516  2.0601 -0.3162  1.2916
  698THF    H1310514   1.356   5.260   1.359 -0.0287  0.6687 -0.1147
  699THF     O110515   4.282   1.120   1.763  0.4947  0.1602  0.7468
  699THF     C210516   4.414   1.172   1.782  0.1380  0.1883 -0.3758
  699THF     C310517   4.273   1.092   1.623  0.2757 -0.7875  0.0788
  699THF     H410518   4.435   1.171   1.889 -0.5171  2.0532 -0.1859
  699THF     H510519   4.421   1.276   1.749  1.0632  0.0031 -0.8066
  699THF     H610520   4.191   1.024   1.600 -0.5009 -0.8714  2.7059
  699THF     H710521   4.275   1.179   1.558  0.7683 -0.3291  0.6977
  699THF     C810522   4.399   1.009   1.606  0.3659 -0.5958 -0.0886
  699THF     C910523   4.497   1.079   1.696 -0.5123  0.3742  0.3602
  699THF    H1010524   4.433   1.014   1.502 -0.9852 -1.1853 -0.5909
  699THF    H1110525   4.382   0.907   1.640  0.5779 -0.3458  0.7730
  699THF    H1210526   4.553   1.012   1.762  1.0509  1.2131 -0.0934
  699THF    H1310527   4.576   1.120   1.633 -0.3777 -0.7500 -0.2250
  700THF     O110528   3.816   1.871   0.073  0.2882  0.1416 -0.2658
  700THF     C210529   3.774   1.825  -0.063  0.5526  0.3321 -0.1427
  700THF     C310530   3.951   1.914   0.065 -0.0777 -0.0616  0.0911
  700THF     H410531   3.678   1.875  -0.072  1.3662  1.7208 -1.5677
  700THF     H510532   3.760   1.718  -0.048  2.1406  0.4585  3.1017
  700THF     H610533   3.973   2.005   0.121  0.3811  0.6315 -1.1511
  700THF     H710534   4.005   1.834   0.114 -2.5515 -2.5897 -1.0438
  700THF     C810535   3.997   1.924  -0.084  0.3228  0.4912 -0.2526
  700THF     C910536   3.892   1.851  -0.160 -0.1070  0.5632 -0.2924
  700THF    H1010537   4.094   1.883  -0.112 -0.2292 -0.2018 -1.2002
  700THF    H1110538   3.995   2.029  -0.113  0.0270  0.2334 -1.1871
  700THF    H1210539   3.847   1.908  -0.242 -0.0521 -2.3243 -2.5017
  700THF    H1310540   3.933   1.758  -0.200 -1.2556  0.0012 -0.2123
  701THF     O110541   1.023   5.247   0.193  0.5072 -0.0139  0.2205
  701THF     C210542   1.091   5.128   0.142 -0.2673 -0.3094 -0.3511
  701THF     C310543   1.092   5.281   0.315 -0.1950  0.0072  0.1489
  701THF     H410544   1.185   5.166   0.101  1.0705 -0.5560  2.3038
  701THF     H510545   1.036   5.072   0.066  0.5376 -0.5412 -0.7714
  701THF     H610546   1.170   5.349   0.284  2.2586 -1.7165  2.0900
  701THF     H710547   1.026   5.339   0.381 -0.8583 -1.3093  0.6798
  701THF     C810548   1.152   5.154   0.379  0.3615 -0.0757 -0.0261
  701THF     C910549   1.128   5.048   0.272  0.3487 -0.1983 -0.1205
  701THF    H1010550   1.108   5.147   0.479 -1.1424 -0.7129 -0.7056
  701THF    H1110551   1.259   5.176   0.381  0.6236 -1.3200  0.4407
  701THF    H1210552   1.213   4.984   0.247  0.1835  0.1659 -1.7234
  701THF    H1310553   1.042   4.991   0.307 -0.4435 -0.8706 -2.9293
  702THF     O110554   1.915   4.597   1.030 -0.3014  0.4176  0.3234
  702THF     C210555   1.806   4.674   0.990 -0.4730 -0.2968  0.2386
  702THF     C310556   2.035   4.647   0.977  0.1334 -0.2253  0.5011
  702THF     H410557   1.721   4.662   1.057  0.5005 -0.2740  1.5257
  702THF     H510558   1.777   4.659   0.886  0.6035 -0.6713 -0.0230
  702THF     H610559   2.117   4.616   1.042  0.4168  1.7440  1.1225
  702THF     H710560   2.050   4.625   0.871 -1.4846  3.0075 -0.5230
  702THF     C810561   2.015   4.795   0.998  0.8324  0.1735  0.1237
  702THF     C910562   1.865   4.813   0.994  0.1454 -0.1303 -0.1435
  702THF    H1010563   2.078   4.862   0.940  1.4617 -0.2073  0.3597
  702THF    H1110564   2.046   4.802   1.102  2.7105  2.1372 -0.4936
  702THF    H1210565   1.822   4.871   1.076 -0.0305 -1.1981  0.5287
  702THF    H1310566   1.837   4.871   0.905 -2.0323 -0.8730 -0.0141
  703THF     O110567   2.827   4.028   1.632 -0.0429 -0.2158 -0.3985
  703THF     C210568   2.936   4.066   1.549 -0.1631  0.3666  0.2659
  703THF     C310569   2.785   3.894   1.590  0.1769 -0.4592 -1.2442
  703THF     H410570   3.026   4.068   1.611 -1.2999  2.4166  1.9640
  703THF     H510571   2.921   4.165   1.507 -0.4296  0.4182  0.4882
  703THF     H610572   2.781   3.830   1.679  1.7684  0.7954 -0.2131
  703THF     H710573   2.691   3.899   1.535  1.5379 -1.4067 -3.7863
  703THF     C810574   2.902   3.838   1.506 -0.0152 -1.2478 -0.6181
  703THF     C910575   2.963   3.963   1.443 -0.2199 -0.3561  0.7980
  703THF    H1010576   2.869   3.770   1.427 -3.0324 -0.3068 -0.2868
  703THF    H1110577   2.973   3.803   1.581  0.7000 -1.0981 -1.2079
  703THF    H1210578   3.066   3.931   1.424  0.0944  1.3655 -0.8204
  703THF    H1310579   2.934   3.993   1.342  1.0539 -0.3608  0.4112
  704THF     O110580   0.210   5.036   3.290  0.1029 -0.3890  0.2624
  704THF     C210581   0.078   5.084   3.292  0.6915 -0.4846  0.0907
  704THF     C310582   0.293   5.133   3.355 -0.5747  0.4253 -0.7356
  704THF     H410583   0.037   5.068   3.391 -2.0234  0.5700 -0.7662
  704THF     H510584   0.011   5.037   3.220  1.0268  1.1691 -1.3847
  704THF     H610585   0.320   5.097   3.454 -3.5313 -2.0371 -0.7043
  704THF     H710586   0.390   5.151   3.306 -0.2312 -1.6052 -0.8850
  704THF     C810587   0.203   5.261   3.367 -0.7590 -0.4288 -0.3353
  704THF     C910588   0.092   5.236   3.262 -0.7832 -0.0944 -0.2235
  704THF    H1010589   0.266   5.349   3.352  0.3148 -1.3787 -1.5959
  704THF    H1110590   0.156   5.288   3.462 -0.8921  0.3415 -0.6123
  704THF    H1210591   0.002   5.298   3.271 -0.7556 -0.0506 -0.2490
  704THF    H1310592   0.126   5.253   3.160 -0.4949  3.1394  0.3067
  705THF     O110593   1.024   1.464   2.738  0.2926  0.2570 -0.1952
  705THF     C210594   1.099   1.356   2.695  0.0918 -0.2645 -0.0278
  705THF     C310595   1.112   1.569   2.743 -0.0672  0.0882  0.2810
  705THF     H410596   1.076   1.353   2.588 -1.2484 -0.8613  0.2545
  705THF     H510597   1.068   1.266   2.747  0.3336 -0.6896 -0.6049
  705THF     H610598   1.122   1.604   2.641 -0.9588  0.4663  0.3101
  705THF     H710599   1.080   1.649   2.810 -3.8176  1.0779 -2.3421
  705THF     C810600   1.247   1.512   2.784 -0.1191  0.3279  0.4238
  705THF     C910601   1.241   1.382   2.714 -0.5970 -0.1054 -0.0354
  705THF    H1010602   1.259   1.480   2.887 -0.4851 -0.7134  0.1539
  705THF    H1110603   1.334   1.571   2.756  0.3722 -1.4473 -2.0690
  705THF    H1210604   1.294   1.390   2.619 -0.1204  1.1815  0.3171
  705THF    H1310605   1.290   1.299   2.764 -2.5622  0.5132  3.1590
  706THF     O110606   0.546   2.392   5.371 -0.4503  0.0746  0.5020
  706THF     C210607   0.669   2.445   5.419  0.0377 -0.7884  0.3299
  706THF     C310608   0.461   2.509   5.342 -0.6303 -0.0809  0.2117
  706THF     H410609   0.737   2.465   5.335 -1.9595  2.5604 -0.7050
  706THF     H510610   0.717   2.385   5.495 -0.8561 -0.1893  1.3945
  706THF     H610611   0.446   2.516   5.234 -0.7951 -0.7212  0.1858
  706THF     H710612   0.363   2.493   5.387 -1.6780 -0.1350 -1.9736
  706THF     C810613   0.528   2.633   5.389 -0.0125 -0.2614  0.0291
  706THF     C910614   0.637   2.579   5.481 -0.0916 -0.0260 -0.1329
  706THF    H1010615   0.460   2.707   5.432 -0.7534 -0.2559 -1.1165
  706THF    H1110616   0.574   2.675   5.300 -0.6887  1.0850  0.2812
  706THF    H1210617   0.728   2.638   5.494  0.8650 -0.8088 -2.6548
  706THF    H1310618   0.593   2.554   5.578  0.9878 -1.9117 -0.0919
  707THF     O110619   4.245   4.774   0.294  0.1437  0.1678  0.2664
  707THF     C210620   4.239   4.903   0.240  0.0572 -0.2823 -0.0050
  707THF     C310621   4.233   4.681   0.188  0.0725 -0.5204  0.2989
  707THF     H410622   4.337   4.923   0.196 -1.3809  0.3057 -3.2113
  707THF     H510623   4.218   4.975   0.319  0.4203  0.7715 -0.8488
  707THF     H610624   4.332   4.659   0.149  0.5804  1.4065  0.3950
  707THF     H710625   4.190   4.589   0.227  0.4443 -0.9036 -0.1977
  707THF     C810626   4.139   4.746   0.089  1.0919  0.1008  0.0766
  707THF     C910627   4.127   4.892   0.135  0.1497 -0.5167 -0.3280
  707THF    H1010628   4.045   4.691   0.093  1.0182  0.1732 -0.5774
  707THF    H1110629   4.170   4.738  -0.016 -2.3764 -0.5450 -1.0068
  707THF    H1210630   4.137   4.963   0.053 -1.2466 -0.6195 -0.6043
  707THF    H1310631   4.023   4.913   0.159 -0.0157  1.3959 -2.4261
  708THF     O110632   2.932   2.014   0.297  0.3344  0.2302  0.1687
  708THF     C210633   2.972   2.057   0.427  0.4635  0.5097 -0.0497
  708THF     C310634   3.026   1.915   0.262 -0.2631  0.3453  0.2136
  708THF     H410635   2.886   2.109   0.468 -1.2395 -3.2446  1.6217
  708THF     H510636   3.060   2.121   0.423  0.6068  0.2747 -2.8211
  708THF     H610637   2.970   1.851   0.195 -1.1915  1.4149 -0.0550
  708THF     H710638   3.106   1.953   0.197  0.3303 -2.3659 -0.7813
  708THF     C810639   3.066   1.835   0.389  0.1007  0.1453  1.3012
  708THF     C910640   3.007   1.928   0.496  0.1843  0.0596 -0.1525
  708THF    H1010641   3.173   1.845   0.408  0.4393 -1.3756  0.3975
  708THF    H1110642   3.030   1.733   0.403  0.6248 -0.2461  0.0123
  708THF    H1210643   2.918   1.889   0.545  0.1978  0.9802  0.6451
  708THF    H1310644   3.073   1.942   0.582  1.0557  0.1450 -0.8253
  709THF     O110645   2.448   3.185   5.337  0.0070 -0.0293  0.0781
  709THF     C210646   2.493   3.294   5.250 -0.7761  0.1028 -0.5964
  709THF     C310647   2.421   3.071   5.246 -1.1999 -0.9549 -0.7997
  709THF     H410648   2.598   3.275   5.224 -0.4536 -0.4009  0.9888
  709THF     H510649   2.489   3.393   5.297 -1.5159 -0.2633  0.1150
  709THF     H610650   2.510   3.014   5.222  0.6680  0.9285  1.1860
  709THF     H710651   2.355   3.006   5.303 -1.2015 -0.9733 -0.8226
  709THF     C810652   2.363   3.139   5.123  0.2146  0.4990 -0.4257
  709THF     C910653   2.399   3.286   5.137 -0.2534 -0.1265 -1.7326
  709THF    H1010654   2.256   3.124   5.114  0.3304 -2.0450  1.4249
  709THF    H1110655   2.402   3.097   5.030 -1.9776 -0.2784 -1.0415
  709THF    H1210656   2.442   3.324   5.044  0.8647 -0.5139 -1.3801
  709THF    H1310657   2.307   3.343   5.154 -0.1099  0.0921 -1.6918
  710THF     O110658   0.347   2.055   0.074 -0.0409 -0.3912  0.1112
  710THF     C210659   0.279   2.081   0.192  0.1341  0.0226 -0.1955
  710THF     C310660   0.352   2.181   0.006  0.5767  0.9610  0.7255
  710THF     H410661   0.329   2.138   0.270  1.6186 -2.2501  0.5951
  710THF     H510662   0.257   1.982   0.230 -1.2697  0.9830  1.6932
  710THF     H610663   0.456   2.212   0.017  0.9290 -0.3889  1.4085
  710THF     H710664   0.336   2.155  -0.098  1.5597 -0.1946  0.8513
  710THF     C810665   0.230   2.258   0.051  0.2290 -0.3883 -0.2679
  710THF     C910666   0.162   2.162   0.148 -0.3764 -0.5206  0.0830
  710THF    H1010667   0.161   2.288  -0.028  0.3848 -1.2821 -0.7629
  710THF    H1110668   0.254   2.356   0.092 -0.7179 -0.7962  1.3773
  710THF    H1210669   0.097   2.216   0.217 -2.8748 -0.7553 -1.9360
  710THF    H1310670   0.102   2.094   0.088 -2.7636 -0.7421  2.5497
  711THF     O110671   4.235   5.301   2.163  0.0376  0.3140 -0.0446
  711THF     C210672   4.275   5.303   2.302  0.0686 -0.5635  0.2059
  711THF     C310673   4.348   5.286   2.082  0.0633  0.1394  0.1865
  711THF     H410674   4.199   5.260   2.368 -1.4047 -0.6812 -1.4891
  711THF     H510675   4.294   5.404   2.338 -2.4430 -0.0104  0.1810
  711THF     H610676   4.327   5.221   1.997  1.9940  0.2830 -0.4643
  711THF     H710677   4.372   5.384   2.040 -0.7591 -0.2132 -1.1875
  711THF     C810678   4.460   5.233   2.175  0.5110 -1.0721  0.0793
  711THF     C910679   4.397   5.216   2.307 -0.4534  0.2343  0.5647
  711THF    H1010680   4.536   5.310   2.184 -0.0672 -0.6132  1.2181
  711THF    H1110681   4.504   5.139   2.141 -1.4213 -1.7778 -0.6440
  711THF    H1210682   4.366   5.113   2.328  2.4531 -0.5664  1.4550
  711THF    H1310683   4.470   5.239   2.385  0.3678 -1.0486  0.2175
  712THF     O110684   1.847   3.687   0.789 -0.2090 -0.2004  0.4756
  712THF     C210685   1.873   3.829   0.804 -0.5888  0.1285  0.3873
  712THF     C310686   1.777   3.646   0.904  0.1542  0.3214  0.9059
  712THF     H410687   1.862   3.875   0.706 -0.9632  1.9180  1.2361
  712THF     H510688   1.976   3.836   0.840 -0.6646 -2.4097  1.2948
  712THF     H610689   1.729   3.549   0.894  1.4106 -0.2187 -0.1380
  712THF     H710690   1.855   3.645   0.980  0.5603  0.0754  0.4880
  712THF     C810691   1.692   3.771   0.927 -0.1687 -0.6284  1.0182
  712THF     C910692   1.779   3.886   0.902 -0.3396 -0.8732  0.0011
  712THF    H1010693   1.649   3.780   1.027 -1.8830 -0.4777  0.3115
  712THF    H1110694   1.616   3.763   0.850  0.6724  1.0129 -0.0266
  712THF    H1210695   1.721   3.973   0.871  1.0270 -0.2677 -0.9235
  712THF    H1310696   1.815   3.910   1.002 -2.0600 -0.4617  0.5674
  713THF     O110697   4.984   5.069   1.584  0.3627 -0.5867 -0.2741
  713THF     C210698   5.067   5.133   1.679 -0.0862 -0.4233 -0.5152
  713THF     C310699   5.045   5.075   1.450  0.4758 -0.9331  0.3721
  713THF     H410700   5.078   5.080   1.774 -0.8421 -1.0095 -0.7412
  713THF     H510701   5.026   5.231   1.702 -1.8094 -1.3334  0.5426
  713THF     H610702   5.055   4.972   1.417  1.5737 -0.7085 -0.0340
  713THF     H710703   4.981   5.123   1.377  1.9922 -2.0859 -1.8128
  713THF     C810704   5.179   5.138   1.464 -0.0627 -0.0449 -0.4517
  713THF     C910705   5.207   5.136   1.618  0.6109 -0.0271  0.1554
  713THF    H1010706   5.181   5.238   1.422 -1.5361 -0.3199 -1.2422
  713THF    H1110707   5.263   5.087   1.418 -0.9823 -2.0961  0.0219
  713THF    H1210708   5.264   5.049   1.650  1.1271 -0.0920 -0.8821
  713THF    H1310709   5.273   5.217   1.651  1.5954 -1.6575  2.4236
  714THF     O110710   2.739   1.602   0.241  0.1680  0.1893  0.2465
  714THF     C210711   2.740   1.593   0.391  0.1042 -0.0742 -0.0960
  714THF     C310712   2.751   1.467   0.195  0.5210 -0.9298 -0.3724
  714THF     H410713   2.636   1.590   0.425  0.1825 -0.1227  0.1396
  714THF     H510714   2.780   1.686   0.433  0.2541  0.9844 -2.4323
  714THF     H610715   2.663   1.407   0.216  0.4059  0.0258  2.1964
  714THF     H710716   2.780   1.466   0.089  0.9049  1.0765 -0.3316
  714THF     C810717   2.866   1.422   0.284  0.1823  1.2183 -0.6389
  714THF     C910718   2.833   1.478   0.419  0.4530  0.3449  0.1206
  714THF    H1010719   2.963   1.462   0.255  0.5444 -0.0115 -1.2041
  714THF    H1110720   2.876   1.314   0.290  0.0985  1.2724  0.9445
  714THF    H1210721   2.771   1.406   0.471 -3.6038  2.6210 -1.1280
  714THF    H1310722   2.925   1.508   0.468  0.8759 -0.2933 -0.2650
  715THF     O110723   4.687   1.270   1.931  0.7613  0.2033  0.4378
  715THF     C210724   4.803   1.347   1.920 -0.4302 -0.2055 -0.2239
  715THF     C310725   4.706   1.167   2.032  0.6988 -0.1678 -0.1311
  715THF     H410726   4.799   1.427   1.994 -0.8766 -0.2309 -0.2126
  715THF     H510727   4.805   1.394   1.822 -0.1242 -1.2845 -0.7579
  715THF     H610728   4.683   1.208   2.131  0.7638 -0.5217  0.0311
  715THF     H710729   4.639   1.084   2.010 -1.7196  2.2712 -2.8495
  715THF     C810730   4.854   1.136   2.017  0.2025  0.6633  0.5015
  715THF     C910731   4.924   1.261   1.968  0.5954  0.3278 -0.1664
  715THF    H1010732   4.850   1.057   1.942  0.6304 -0.0492  1.2147
  715THF    H1110733   4.902   1.100   2.107 -1.7568  0.6456  1.5853
  715THF    H1210734   4.981   1.302   2.052 -0.7537 -1.1105  1.5277
  715THF    H1310735   4.998   1.242   1.890  0.5027 -2.0983  0.2528
  716THF     O110736   2.569   0.047   2.349  0.1465 -0.4068 -0.1317
  716THF     C210737   2.540  -0.059   2.441 -0.0342  0.0067 -0.2469
  716THF     C310738   2.590   0.171   2.404 -0.3718 -0.2775 -0.3007
  716THF     H410739   2.627  -0.099   2.493 -0.2955 -1.3360 -0.7930
  716THF     H510740   2.491  -0.146   2.396  2.2056 -1.2051 -0.5106
  716THF     H610741   2.697   0.190   2.409 -0.5180  0.6093 -0.4274
  716THF     H710742   2.550   0.251   2.343 -0.9992 -0.5520 -0.2642
  716THF     C810743   2.518   0.165   2.539  0.3042  0.4230  0.0188
  716THF     C910744   2.456   0.026   2.537 -0.2199  0.0170  0.2047
  716THF    H1010745   2.453   0.252   2.544  1.2281  1.5420 -4.0375
  716THF    H1110746   2.595   0.174   2.616  1.2667  0.0943 -0.8799
  716THF    H1210747   2.454  -0.018   2.637  0.6996  1.0592  0.7084
  716THF    H1310748   2.355   0.035   2.497  1.0438  2.3078 -2.8250
  717THF     O110749   3.867   3.176   3.998  0.4423 -0.1899  0.1920
  717THF     C210750   3.987   3.133   4.055 -0.3321  0.3639  0.1964
  717THF     C310751   3.767   3.093   4.064  0.3589  0.2010 -0.3125
  717THF     H410752   4.062   3.212   4.048 -0.8049  0.9498  1.4374
  717THF     H510753   4.035   3.041   4.021 -0.2210  0.0868  1.0643
  717THF     H610754   3.667   3.128   4.039  1.1339  2.4038 -0.5564
  717THF     H710755   3.772   2.989   4.031 -1.0360  0.3212 -0.9805
  717THF     C810756   3.799   3.106   4.208  0.1968  0.4313 -0.0582
  717THF     C910757   3.954   3.118   4.203  0.1704  0.4304  0.0537
  717THF    H1010758   3.770   3.025   4.274 -0.8687  0.2078 -0.7806
  717THF    H1110759   3.740   3.188   4.249 -1.6376 -1.8174  2.0860
  717THF    H1210760   3.998   3.208   4.245  1.1312 -0.5654  1.2462
  717THF    H1310761   4.001   3.030   4.248 -0.3888  0.0683 -0.0642
  718THF     O110762   3.462   1.851   4.957  0.3223 -0.0548  0.2112
  718THF     C210763   3.597   1.903   4.974 -0.0646  0.1130  0.2750
  718THF     C310764   3.372   1.949   5.013  0.4152  0.1863 -0.5491
  718THF     H410765   3.663   1.890   4.888  0.4588  0.3758  0.6270
  718THF     H510766   3.655   1.849   5.049  0.6131 -1.1178 -1.0996
  718THF     H610767   3.274   1.947   4.966 -0.0978  1.8767  0.3386
  718THF     H710768   3.353   1.933   5.119  2.4192  0.9021 -0.0169
  718THF     C810769   3.435   2.085   4.989 -0.1613 -0.5681 -0.1890
  718THF     C910770   3.585   2.053   5.017  0.4042  0.2016 -0.7523
  718THF    H1010771   3.392   2.160   5.055  0.5479 -0.5986  0.3261
  718THF    H1110772   3.418   2.118   4.887  0.4318  0.2196 -0.0416
  718THF    H1210773   3.651   2.121   4.963  1.2025  2.7023  2.9671
  718THF    H1310774   3.629   2.062   5.116 -0.4838 -0.8881 -0.2435
  719THF     O110775   2.947   5.165   2.287  0.0594 -0.0661 -0.1958
  719THF     C210776   2.892   5.191   2.419  0.4568 -0.5828  0.2597
  719THF     C310777   2.929   5.024   2.266  0.5774 -0.1953 -0.2251
  719THF     H410778   2.853   5.292   2.412  0.8023 -0.5312 -1.1021
  719THF     H510779   2.966   5.184   2.498  0.6892  0.9124  0.1918
  719THF     H610780   2.951   4.993   2.163 -0.5120  1.2034 -0.9132
  719THF     H710781   2.994   4.958   2.323  0.2272 -1.1079 -0.8523
  719THF     C810782   2.782   4.998   2.307 -0.1306  0.1951  0.0846
  719THF     C910783   2.771   5.094   2.427 -0.4365 -1.0331  0.0229
  719THF    H1010784   2.779   4.892   2.332 -0.9624  0.4229  1.0026
  719THF    H1110785   2.712   5.023   2.227  3.1936  1.6292 -2.6165
  719THF    H1210786   2.678   5.150   2.431  0.0049 -0.2523 -0.5387
  719THF    H1310787   2.774   5.046   2.525 -0.6261  2.3333  1.7949
  720THF     O110788   1.698   2.372   4.413  0.7915 -0.4841 -0.0340
  720THF     C210789   1.657   2.258   4.342 -0.2928 -0.5732 -0.0525
  720THF     C310790   1.645   2.360   4.546  0.4626  0.1704  0.0618
  720THF     H410791   1.709   2.245   4.247  1.1572  1.6180  0.3711
  720THF     H510792   1.553   2.281   4.319  0.8492  0.9417 -4.7310
  720THF     H610793   1.690   2.432   4.615 -0.0872 -0.9843  1.6677
  720THF     H710794   1.542   2.394   4.536  0.5878  0.8370  0.8929
  720THF     C810795   1.658   2.211   4.580 -0.2426  0.3137  0.1370
  720THF     C910796   1.675   2.147   4.440  0.4517  0.5177 -0.1891
  720THF    H1010797   1.573   2.174   4.639 -0.4398  1.5730  0.6638
  720THF    H1110798   1.747   2.210   4.643 -0.3946  0.6203  0.3588
  720THF    H1210799   1.777   2.107   4.444 -0.0640 -0.7245  2.3210
  720THF    H1310800   1.598   2.074   4.419  2.2898 -1.0067 -2.0970
  721THF     O110801   4.438   2.576   4.535 -0.7796 -0.5213 -0.0003
  721THF     C210802   4.432   2.497   4.415  0.3824  0.4840 -0.0636
  721THF     C310803   4.385   2.705   4.508 -0.1010  0.5793  0.1764
  721THF     H410804   4.330   2.466   4.394  0.5152 -1.9230  2.2534
  721THF     H510805   4.497   2.410   4.421  1.1693  1.0545 -0.1230
  721THF     H610806   4.277   2.712   4.491 -0.0785  1.6220  0.3485
  721THF     H710807   4.419   2.779   4.580  3.6205  1.2751 -2.0509
  721THF     C810808   4.458   2.738   4.381 -0.0193 -0.2872 -0.3039
  721THF     C910809   4.464   2.606   4.303  0.1439  0.2108 -0.6874
  721THF    H1010810   4.562   2.753   4.409 -0.2131 -1.7822  1.4081
  721THF    H1110811   4.418   2.828   4.334  2.6913  0.9782 -0.4222
  721THF    H1210812   4.390   2.603   4.222 -0.4798 -0.7791 -0.0936
  721THF    H1310813   4.562   2.591   4.256 -0.6055 -1.1492 -1.9040
  722THF     O110814   4.492   4.107   0.093 -0.0903 -0.2480  0.1454
  722THF     C210815   4.363   4.111   0.027 -0.3316 -0.5923  0.1584
  722THF     C310816   4.474   3.991   0.173 -0.7693 -0.5368 -0.2570
  722THF     H410817   4.363   4.168  -0.066  1.8778 -0.6019  0.0967
  722THF     H510818   4.296   4.160   0.097  1.2168  1.2304  0.4394
  722THF     H610819   4.567   3.964   0.223 -1.8044 -1.8965  1.0358
  722THF     H710820   4.408   4.013   0.257 -1.1540  2.0732 -1.1540
  722THF     C810821   4.404   3.886   0.086  0.1840  0.2742 -0.4779
  722THF     C910822   4.327   3.975  -0.008 -0.2465  0.5733  0.3480
  722THF    H1010823   4.348   3.822   0.154  1.0458 -2.8200 -2.4699
  722THF    H1110824   4.477   3.824   0.035  2.1368 -1.8221  4.2647
  722THF    H1210825   4.374   3.949  -0.102 -0.1080 -0.7249  0.7528
  722THF    H1310826   4.220   3.952  -0.005  0.0046 -0.5655  1.4932
  723THF     O110827   4.015   1.537   2.018  0.3925 -0.9494 -0.0814
  723THF     C210828   3.880   1.537   1.989 -0.1330  0.4430  1.1469
  723THF     C310829   4.046   1.659   2.082  0.5662  0.5346 -0.5285
  723THF     H410830   3.847   1.434   1.977  0.9703 -0.2800  3.6218
  723THF     H510831   3.870   1.600   1.900  0.0270 -1.6322 -0.3994
  723THF     H610832   4.110   1.627   2.165  2.0108  0.7593 -1.5231
  723THF     H710833   4.081   1.736   2.014 -1.2278  0.9464 -1.0429
  723THF     C810834   3.910   1.714   2.139 -0.1807 -0.7176  0.1715
  723THF     C910835   3.811   1.603   2.111  0.8310  0.4119 -0.1442
  723THF    H1010836   3.883   1.810   2.094  0.8270  0.7194  2.4616
  723THF    H1110837   3.924   1.733   2.245  2.4840  0.1089 -0.2459
  723THF    H1210838   3.810   1.523   2.186 -1.5376  1.6180  1.2216
  723THF    H1310839   3.711   1.629   2.076  0.5954 -1.7719 -1.2557
  724THF     O110840   4.151   1.526   1.110  0.2262  0.1584  0.2450
  724THF     C210841   4.252   1.588   1.032 -0.4999 -0.5926 -0.4121
  724THF     C310842   4.077   1.632   1.179  0.2891 -1.0209  0.4533
  724THF     H410843   4.245   1.547   0.931  1.4192  0.2439 -0.9187
  724THF     H510844   4.351   1.559   1.066 -0.5591 -2.5906 -1.7157
  724THF     H610845   3.979   1.647   1.135  1.4965 -0.8603 -2.3675
  724THF     H710846   4.067   1.595   1.281 -1.0319  0.4243  0.8855
  724THF     C810847   4.150   1.757   1.166  0.3133 -0.7786  0.3631
  724THF     C910848   4.223   1.739   1.034 -0.3778  0.2967  0.3572
  724THF    H1010849   4.219   1.769   1.250 -0.0397 -0.0313  0.5558
  724THF    H1110850   4.087   1.845   1.156  2.6624  1.0950  1.0444
  724THF    H1210851   4.160   1.762   0.948  0.0334 -0.0437 -0.0413
  724THF    H1310852   4.316   1.796   1.036 -0.2085 -0.0018  1.7983
  725THF     O110853   2.237   4.348   2.467  0.1224 -0.3749  0.1795
  725THF     C210854   2.242   4.294   2.339 -0.2444  0.4904  0.4118
  725THF     C310855   2.371   4.343   2.510  0.4427 -0.3304  0.3813
  725THF     H410856   2.163   4.337   2.277 -0.7296 -1.0647 -0.0960
  725THF     H510857   2.224   4.187   2.344 -2.7678  0.6736 -1.9939
  725THF     H610858   2.379   4.413   2.593  0.2977  0.8682 -0.5799
  725THF     H710859   2.395   4.243   2.547 -1.3673 -1.1525 -0.5527
  725THF     C810860   2.449   4.393   2.393 -0.2350 -0.1006 -0.1762
  725THF     C910861   2.378   4.335   2.276  0.6477 -0.0265 -0.0675
  725THF    H1010862   2.555   4.365   2.386  0.2248  0.9103  1.9437
  725THF    H1110863   2.440   4.501   2.380 -1.8192 -0.0650  0.9368
  725THF    H1210864   2.360   4.411   2.200  3.1713 -0.2678 -1.0001
  725THF    H1310865   2.425   4.255   2.220  0.6552  0.9762 -1.5558
  726THF     O110866   1.100   0.622   1.325  0.5329 -0.1685 -0.4393
  726THF     C210867   1.116   0.486   1.367  0.3574 -0.1681  0.0774
  726THF     C310868   1.003   0.677   1.409 -0.3544  0.1947  0.2451
  726THF     H410869   1.169   0.478   1.462 -0.0103 -1.0902  0.2154
  726THF     H510870   1.173   0.415   1.307  1.5488  0.1764  0.7799
  726THF     H610871   1.068   0.699   1.493  0.1061 -0.5008  0.0810
  726THF     H710872   0.975   0.765   1.350  1.6927  0.8474  0.1643
  726THF     C810873   0.901   0.568   1.442 -0.3156  0.3961 -0.0852
  726THF     C910874   0.968   0.443   1.387 -0.4412  0.1172 -0.1420
  726THF    H1010875   0.805   0.590   1.395  1.0635  0.6093 -3.0313
  726THF    H1110876   0.884   0.544   1.547 -0.5558  1.0763  0.0355
  726THF    H1210877   0.967   0.352   1.446  2.3913  0.0357 -0.0863
  726THF    H1310878   0.925   0.412   1.292  2.0485 -2.1447 -0.6634
  727THF     O110879   1.285   3.692   1.087 -0.0498 -0.1058 -0.0191
  727THF     C210880   1.236   3.736   1.212  0.6471  1.1047 -0.4227
  727THF     C310881   1.353   3.804   1.036  0.2361 -0.0254 -0.3999
  727THF     H410882   1.293   3.711   1.301 -0.0630 -0.9285 -0.4985
  727THF     H510883   1.140   3.687   1.230  1.4712 -0.0484  0.9798
  727THF     H610884   1.454   3.809   1.077  0.1431 -3.7370  0.6404
  727THF     H710885   1.351   3.782   0.930  1.2608 -1.3229 -0.1648
  727THF     C810886   1.269   3.920   1.080  0.0393  1.0857 -0.7820
  727THF     C910887   1.220   3.886   1.214 -0.6199 -0.0404 -1.0035
  727THF    H1010888   1.178   3.916   1.021  0.5511  0.9236 -1.5792
  727THF    H1110889   1.318   4.017   1.066  3.1383 -0.3802 -0.9741
  727THF    H1210890   1.287   3.929   1.289 -0.3282 -2.0562 -0.0441
  727THF    H1310891   1.118   3.918   1.238  0.4082  2.7086  0.1209
  728THF     O110892   5.059   2.322   4.618  0.5914  0.5745  0.7038
  728THF     C210893   5.118   2.210   4.680 -0.2865 -0.1226  0.4739
  728THF     C310894   4.918   2.309   4.631  0.6725 -0.1820  0.2014
  728THF     H410895   5.222   2.228   4.708 -0.1824 -0.9429  0.6373
  728THF     H510896   5.119   2.123   4.614 -1.1871 -0.8408  1.3742
  728THF     H610897   4.872   2.409   4.635 -0.0007 -0.3583 -1.9814
  728THF     H710898   4.884   2.256   4.542  0.0582  1.7607 -0.7879
  728THF     C810899   4.892   2.234   4.766  0.1670 -0.4610  0.0767
  728THF     C910900   5.028   2.179   4.799 -0.2146  0.0557  0.1789
  728THF    H1010901   4.814   2.159   4.750 -0.2268  0.1464 -0.9779
  728THF    H1110902   4.866   2.310   4.839  2.1941  0.7984 -0.4388
  728THF    H1210903   5.077   2.234   4.879  1.2017  0.8019 -1.1413
  728THF    H1310904   5.025   2.072   4.821  0.8947 -0.1939 -0.8115
  729THF     O110905   1.402   3.513   5.352  0.4326  0.5133  0.3540
  729THF     C210906   1.425   3.559   5.488 -0.1452 -0.3483 -0.3483
  729THF     C310907   1.394   3.370   5.364 -0.2971  0.0892 -0.2285
  729THF     H410908   1.384   3.660   5.486  1.4841  0.3606  0.5259
  729THF     H510909   1.533   3.549   5.499 -0.0389 -0.7597 -1.6263
  729THF     H610910   1.345   3.341   5.271 -1.2785 -0.9384  0.5854
  729THF     H710911   1.494   3.330   5.384 -0.5546  0.1965  1.3882
  729THF     C810912   1.299   3.354   5.482 -0.3755 -0.2646  1.1201
  729THF     C910913   1.337   3.465   5.579 -0.4180 -0.5622  0.3765
  729THF    H1010914   1.298   3.250   5.515 -1.1489 -0.6325  0.0129
  729THF    H1110915   1.192   3.366   5.463 -0.5565  0.6964  2.5857
  729THF    H1210916   1.248   3.522   5.607 -2.8390 -1.0732 -4.9616
  729THF    H1310917   1.391   3.432   5.667  0.1227  0.8983  0.6169
  730THF     O110918   4.194   3.046   4.574 -0.5761  0.0131  0.0848
  730THF     C210919   4.189   3.171   4.640  0.3538 -0.2162 -0.0106
  730THF     C310920   4.250   3.052   4.443  0.4791 -0.6349 -0.1539
  730THF     H410921   4.227   3.155   4.741 -1.0650  0.1961  0.6062
  730THF     H510922   4.087   3.209   4.642  0.5730  0.6017 -1.7728
  730THF     H610923   4.353   3.022   4.462  1.4359  2.7935  0.7161
  730THF     H710924   4.192   2.993   4.371 -0.5074  0.8168 -0.5756
  730THF     C810925   4.259   3.201   4.413 -0.1530  0.3058  0.4119
  730THF     C910926   4.288   3.264   4.551 -0.0791  0.5606  0.2120
  730THF    H1010927   4.169   3.228   4.357  1.3055 -1.4188 -3.0728
  730THF    H1110928   4.338   3.213   4.339 -0.7049  3.7825  0.2355
  730THF    H1210929   4.392   3.246   4.577 -0.2878  0.2683  0.8677
  730THF    H1310930   4.267   3.371   4.557  0.7310  0.7614 -0.3570
  731THF     O110931   3.298   2.756   0.790 -0.1725 -1.0766 -0.2220
  731THF     C210932   3.302   2.819   0.918 -0.6868  0.2496  0.6476
  731THF     C310933   3.325   2.623   0.813 -0.1250  0.6123  0.2702
  731THF     H410934   3.210   2.795   0.971 -3.9004  0.1119 -4.3004
  731THF     H510935   3.303   2.926   0.898  0.7627  0.0428 -0.6270
  731THF     H610936   3.246   2.582   0.876  1.2293 -0.8825  1.0680
  731THF     H710937   3.336   2.555   0.728 -0.3711  0.8506  0.0459
  731THF     C810938   3.447   2.627   0.908 -0.6670 -0.0276 -0.3458
  731THF     C910939   3.428   2.760   0.973 -0.1129  0.1384  0.0951
  731THF    H1010940   3.540   2.625   0.852 -2.0924 -4.1154 -3.0870
  731THF    H1110941   3.440   2.551   0.985  0.7462  1.1714  1.0276
  731THF    H1210942   3.421   2.766   1.081  2.3690  3.0751  0.2239
  731THF    H1310943   3.514   2.825   0.957  0.2345  0.6354  3.4046
  732THF     O110944   5.317   4.244   1.753  0.1983 -0.7249 -0.2858
  732THF     C210945   5.245   4.131   1.792  0.7933  0.1126  0.4495
  732THF     C310946   5.407   4.209   1.651  0.2427 -0.1882 -0.0669
  732THF     H410947   5.155   4.134   1.730  0.5205 -1.2034  0.7342
  732THF     H510948   5.212   4.122   1.896  1.3659  2.1105  0.8346
  732THF     H610949   5.354   4.210   1.556  2.3876 -1.5399 -1.3529
  732THF     H710950   5.494   4.274   1.641  0.3059 -0.6844 -4.4459
  732THF     C810951   5.453   4.073   1.694 -0.5143 -0.0549 -0.0674
  732THF     C910952   5.330   4.015   1.760 -0.5392 -0.4629 -0.2665
  732THF    H1010953   5.545   4.085   1.751  0.9177 -2.4682 -1.6699
  732THF    H1110954   5.484   4.012   1.609 -0.1210  1.1251 -0.7915
  732THF    H1210955   5.268   3.957   1.692 -2.7456  2.6612 -1.1306
  732THF    H1310956   5.334   3.969   1.859  0.5429  0.2674  0.0383
  733THF     O110957   3.330   2.252   4.685 -0.2060  0.1834 -0.6464
  733THF     C210958   3.370   2.164   4.586  0.3861 -0.4275  0.4849
  733THF     C310959   3.402   2.371   4.669 -0.2629 -0.4729 -0.4948
  733THF     H410960   3.335   2.191   4.486  1.5916  2.4251  0.7409
  733THF     H510961   3.332   2.063   4.606 -1.6793  0.1683 -0.2093
  733THF     H610962   3.348   2.426   4.592  0.7737 -0.2723 -1.0980
  733THF     H710963   3.410   2.430   4.760  0.1542  0.0199 -0.8425
  733THF     C810964   3.540   2.321   4.628  0.2705  0.6599 -0.7152
  733THF     C910965   3.522   2.177   4.581 -0.1999 -0.9957  0.3590
  733THF    H1010966   3.613   2.329   4.708  0.5625 -1.3641 -0.7250
  733THF    H1110967   3.585   2.383   4.550  0.5875  0.7266 -0.4802
  733THF    H1210968   3.554   2.154   4.480 -3.3348 -2.7000 -0.3829
  733THF    H1310969   3.550   2.112   4.665  1.1134 -0.3190  0.4638
  734THF     O110970   1.173   1.007   0.607 -0.2380  0.4904 -0.5107
  734THF     C210971   1.079   0.990   0.710  1.1182 -0.1802 -0.2352
  734THF     C310972   1.114   0.941   0.493 -0.7875 -0.4936  0.4369
  734THF     H410973   0.992   1.053   0.695  1.7076  1.2066  1.7590
  734THF     H510974   1.119   1.032   0.803 -2.3706  2.4352  0.2766
  734THF     H610975   1.038   0.999   0.442  0.1928 -0.2690 -0.8030
  734THF     H710976   1.199   0.929   0.426  0.1590  1.3016  1.2454
  734THF     C810977   1.065   0.808   0.552 -0.7488 -0.0757  0.4096
  734THF     C910978   1.061   0.835   0.699  0.0250 -0.5902 -0.2281
  734THF    H1010979   1.139   0.734   0.520 -0.9166  0.2582 -0.8186
  734THF    H1110980   0.971   0.782   0.502 -1.3020  1.3107  0.6670
  734THF    H1210981   0.974   0.790   0.746  0.8714 -1.3298  0.6620
  734THF    H1310982   1.142   0.781   0.749  0.7525  1.0485  0.4446
  735THF     O110983   3.770   4.038   0.200  0.3098  0.2478  0.1635
  735THF     C210984   3.814   3.903   0.211 -0.2187  0.0553 -0.1666
  735THF     C310985   3.850   4.084   0.090 -0.5368  0.0212  0.4426
  735THF     H410986   3.738   3.844   0.264  0.3524 -2.5965 -2.0653
  735THF     H510987   3.911   3.902   0.260  0.1533  2.1494 -0.7731
  735THF     H610988   3.829   4.180   0.044  1.1979 -0.8810 -2.5138
  735THF     H710989   3.955   4.094   0.119  0.3418 -1.2811 -1.9442
  735THF     C810990   3.853   3.978  -0.018 -0.0273  1.0561 -0.5725
  735THF     C910991   3.820   3.852   0.069 -0.7603  0.3936  0.2633
  735THF    H1010992   3.948   3.971  -0.071  1.0284 -0.3849  1.3760
  735THF    H1110993   3.782   3.991  -0.099 -1.2074 -0.3512  0.1997
  735THF    H1210994   3.720   3.814   0.045 -0.2323 -0.1651 -1.2312
  735THF    H1310995   3.885   3.765   0.054  2.0505  1.6504  3.7335
  736THF     O110996   1.795   4.288   3.588 -0.1631  0.8251  0.0899
  736THF     C210997   1.922   4.283   3.641  0.4151  0.1352  0.7933
  736THF     C310998   1.771   4.409   3.517 -0.3329 -0.7470 -0.4914
  736THF     H410999   1.984   4.221   3.577  1.6429 -0.5598  2.5736
  736THF     H511000   1.923   4.223   3.732 -4.0011 -0.3874  0.7431
  736THF     H611001   1.807   4.404   3.415 -1.2564  1.4622 -0.9728
  736THF     H711002   1.666   4.434   3.503  0.1396  0.2295 -2.6875
  736THF     C811003   1.840   4.511   3.609  0.0677 -1.0243  0.2032
  736THF     C911004   1.959   4.430   3.658 -0.7651  0.7054  0.0424
  736THF    H1011005   1.780   4.537   3.697 -1.9122 -1.7997 -0.8391
  736THF    H1111006   1.872   4.608   3.574 -0.2363 -0.4693  1.3963
  736THF    H1211007   2.052   4.444   3.602 -0.4005  2.7643  1.0783
  736THF    H1311008   1.983   4.448   3.762 -0.1430 -1.6345  0.3486
  737THF     O111009   3.922   5.456   0.920  0.0385  0.2651  0.0771
  737THF     C211010   4.045   5.483   0.982 -0.5050  0.5900 -0.7122
  737THF     C311011   3.920   5.488   0.783 -0.0022  0.3123 -0.2800
  737THF     H411012   4.107   5.396   0.960  0.8114  0.9849  1.1934
  737THF     H511013   4.038   5.496   1.090 -1.4935  0.2638 -0.7274
  737THF     H611014   3.917   5.400   0.719  0.6488  0.1117 -0.0524
  737THF     H711015   3.833   5.547   0.758  0.8061  1.3130 -0.7879
  737THF     C811016   4.049   5.567   0.767 -0.0748 -0.3500  0.5083
  737THF     C911017   4.093   5.604   0.905  0.1348 -0.0562 -0.3430
  737THF    H1011018   4.035   5.651   0.700  1.6906  1.5605  2.3670
  737THF    H1111019   4.117   5.506   0.708 -0.5871  1.0918 -1.6841
  737THF    H1211020   4.199   5.622   0.926 -0.0977  1.9090 -0.6963
  737THF    H1311021   4.048   5.698   0.937  0.0594 -0.3621  0.4787
  738THF     O111022   5.470   1.398   4.891  0.2909  0.0748 -0.3569
  738THF     C211023   5.470   1.535   4.932 -0.2495 -0.6286 -0.4502
  738THF     C311024   5.377   1.323   4.973 -0.6202 -0.1232 -0.3499
  738THF     H411025   5.383   1.588   4.895  0.7983 -0.0760 -2.2420
  738THF     H511026   5.564   1.581   4.902 -0.5988 -1.1348 -2.4633
  738THF     H611027   5.281   1.309   4.923 -0.1382  1.8774 -1.9683
  738THF     H711028   5.400   1.218   4.995 -1.9868 -0.4542 -0.3927
  738THF     C811029   5.368   1.402   5.106  0.5916 -0.3159 -0.2651
  738THF     C911030   5.454   1.528   5.079 -0.7096  0.6832 -0.3792
  738THF    H1011031   5.400   1.339   5.189 -0.3345 -2.7527 -1.6517
  738THF    H1111032   5.263   1.427   5.118  0.8123  0.7058 -0.3851
  738THF    H1211033   5.409   1.622   5.113 -2.3713 -0.4704  0.8090
  738THF    H1311034   5.547   1.515   5.133 -0.9446  0.7506  0.0497
  739THF     O111035   3.570   5.473   3.871  0.0874 -0.0456  0.6677
  739THF     C211036   3.534   5.417   3.996  0.2517 -0.3979 -0.2744
  739THF     C311037   3.585   5.368   3.779 -0.1005  0.1226 -0.7496
  739THF     H411038   3.456   5.476   4.044 -1.4129 -0.4292 -2.7230
  739THF     H511039   3.606   5.419   4.077 -0.7912  0.9344  0.6577
  739THF     H611040   3.564   5.415   3.682  0.2696  1.2812 -0.2888
  739THF     H711041   3.682   5.321   3.792  0.5608  2.0087  2.0618
  739THF     C811042   3.487   5.266   3.809 -0.2268 -0.3263 -0.2065
  739THF     C911043   3.500   5.270   3.961  0.2455 -0.1522  0.9530
  739THF    H1011044   3.512   5.166   3.773 -1.1913 -1.0907  1.1394
  739THF    H1111045   3.386   5.289   3.775  0.9193  2.0842 -2.2685
  739THF    H1211046   3.404   5.244   4.005  0.4790 -0.4846  1.2706
  739THF    H1311047   3.582   5.210   4.000  0.4946 -0.6966 -0.3343
  740THF     O111048   2.493   3.506   4.373  0.1507  0.2579 -0.2744
  740THF     C211049   2.511   3.642   4.423  0.0999 -0.0873  0.6732
  740THF     C311050   2.618   3.440   4.400  0.0261 -0.7939 -0.8785
  740THF     H411051   2.416   3.690   4.448  0.0181  0.3259 -0.3734
  740THF     H511052   2.546   3.713   4.348 -0.9880 -0.1060  0.1223
  740THF     H611053   2.605   3.332   4.409  0.0230 -0.8601 -1.6262
  740THF     H711054   2.692   3.459   4.321  0.5603  0.0626 -0.1876
  740THF     C811055   2.677   3.496   4.527 -0.1032  0.0862  0.3686
  740THF     C911056   2.607   3.632   4.540 -0.2803  0.5485  0.1103
  740THF    H1011057   2.785   3.504   4.511 -0.4408  0.4406 -2.2049
  740THF    H1111058   2.668   3.435   4.617  1.5134 -1.5952 -0.5309
  740THF    H1211059   2.544   3.626   4.629 -0.8979 -1.8909 -0.4378
  740THF    H1311060   2.665   3.724   4.550  0.0064  0.5238 -1.1882
  741THF     O111061   1.501   1.490   4.153  0.0162 -0.0132 -0.0899
  741THF     C211062   1.468   1.414   4.034  0.5032 -0.1722  0.3433
  741THF     C311063   1.613   1.434   4.219  0.5939  0.5808 -0.3999
  741THF     H411064   1.425   1.474   3.954 -2.3451  0.1830  2.0245
  741THF     H511065   1.392   1.339   4.055  0.5893 -0.8629 -1.5706
  741THF     H611066   1.692   1.508   4.225  2.0754 -1.0325  4.6633
  741THF     H711067   1.580   1.399   4.317  0.8855 -0.9720 -0.8165
  741THF     C811068   1.656   1.317   4.134  0.0681 -0.1163 -0.9203
  741THF     C911069   1.593   1.339   4.005  0.2205 -0.0966 -0.0604
  741THF    H1011070   1.613   1.225   4.174  0.9578 -1.1113 -2.1708
  741THF    H1111071   1.765   1.320   4.129  0.3015 -0.5738  2.2355
  741THF    H1211072   1.657   1.397   3.939  1.3108  0.0924  1.1150
  741THF    H1311073   1.559   1.250   3.951  0.4099 -0.9307  1.1495
  742THF     O111074   0.168   0.233   3.319 -0.3493 -0.4855  0.0559
  742THF     C211075   0.132   0.286   3.191 -0.2731 -0.4236  0.8467
  742THF     C311076   0.306   0.194   3.310  0.1130 -0.2045 -1.1090
  742THF     H411077   0.155   0.392   3.198  0.0309 -0.0844 -2.9201
  742THF     H511078   0.027   0.274   3.166 -0.0351  0.2737 -0.5929
  742THF     H611079   0.368   0.279   3.338 -1.4224  0.3627  0.8607
  742THF     H711080   0.338   0.117   3.380 -0.9232  0.0964 -0.2641
  742THF     C811081   0.329   0.147   3.166  0.1691 -0.1242 -0.2038
  742THF     C911082   0.236   0.230   3.088  0.3438 -0.0802 -0.4524
  742THF    H1011083   0.300   0.042   3.159  0.8764 -0.3442  0.0861
  742THF    H1111084   0.434   0.149   3.139  0.5002  2.0032  1.0134
  742THF    H1211085   0.289   0.319   3.054 -3.2912  2.4753 -0.0072
  742THF    H1311086   0.187   0.192   2.999  1.2825 -1.3753 -0.4476
  743THF     O111087   2.691   2.941   4.521  0.0895  0.7733 -0.5380
  743THF     C211088   2.562   2.936   4.456 -0.2711 -0.0095 -0.0741
  743THF     C311089   2.790   2.925   4.426 -0.3909  1.0764  0.4885
  743THF     H411090   2.499   2.981   4.533 -1.2333 -3.1527  1.1611
  743THF     H511091   2.538   2.830   4.449 -0.6408  0.0809 -0.1998
  743THF     H611092   2.881   2.983   4.437  0.7455 -0.7280  1.0993
  743THF     H711093   2.820   2.824   4.454 -1.5724  0.5069 -0.2048
  743THF     C811094   2.721   2.934   4.284  0.2805 -0.2596 -0.9088
  743THF     C911095   2.598   3.006   4.325  0.4582 -0.1194 -0.1272
  743THF    H1011096   2.690   2.838   4.244  0.3011 -1.1296  1.0836
  743THF    H1111097   2.794   2.986   4.223  0.6898 -0.5539 -0.6724
  743THF    H1211098   2.627   3.107   4.355  2.2494 -0.8906  0.8447
  743THF    H1311099   2.513   2.992   4.258  1.4419 -0.6759 -1.2941
  744THF     O111100   2.460   2.299   4.598 -0.0285 -0.2386 -0.2399
  744THF     C211101   2.457   2.281   4.458  0.6858  0.5889 -0.8233
  744THF     C311102   2.471   2.439   4.629  0.5277  0.8124  0.2427
  744THF     H411103   2.367   2.230   4.424  3.0737 -4.7160 -0.1795
  744THF     H511104   2.535   2.211   4.430  1.0634  0.6548  0.0274
  744THF     H611105   2.385   2.451   4.695  0.5350  0.6900  0.2735
  744THF     H711106   2.569   2.448   4.675 -0.2448  0.4988  2.0486
  744THF     C811107   2.467   2.515   4.498 -0.1290 -0.1785 -0.2697
  744THF     C911108   2.481   2.409   4.396 -0.3214 -0.3238 -0.1217
  744THF    H1011109   2.549   2.586   4.493 -1.9619  1.9957 -4.3178
  744THF    H1111110   2.371   2.567   4.495 -0.4200 -0.7134 -0.4878
  744THF    H1211111   2.418   2.427   4.309  1.5861 -0.3517 -1.5472
  744THF    H1311112   2.578   2.405   4.348  0.3953  0.7462  1.1624
  745THF     O111113   1.467   1.688   2.366  0.0425 -0.3268  0.1350
  745THF     C211114   1.390   1.713   2.482 -0.0639 -0.1415 -0.3879
  745THF     C311115   1.449   1.795   2.275  0.2630  0.0774 -0.1014
  745THF     H411116   1.427   1.657   2.568 -0.4403 -0.0253 -0.1491
  745THF     H511117   1.288   1.683   2.457 -0.9310  1.3973  1.0884
  745THF     H611118   1.524   1.781   2.197  0.8344  1.0767  0.2446
  745THF     H711119   1.352   1.776   2.229 -0.9927  1.0948  1.9396
  745THF     C811120   1.438   1.922   2.361 -0.5023  0.1284  0.6086
  745THF     C911121   1.419   1.858   2.503 -0.1024  0.1150  0.2820
  745THF    H1011122   1.345   1.970   2.331 -1.6902 -1.3663  1.7582
  745THF    H1111123   1.519   1.994   2.345  0.3381 -1.1341 -1.1934
  745THF    H1211124   1.508   1.872   2.564  0.3852 -1.1500 -0.1007
  745THF    H1311125   1.338   1.911   2.553  0.5009  3.5940 -2.0499
  746THF     O111126   2.069   1.664   1.337 -0.4547  0.1242 -0.0900
  746THF     C211127   2.028   1.758   1.433  0.4408  0.5259  0.8357
  746THF     C311128   1.968   1.558   1.328  0.1080 -0.4140  0.0343
  746THF     H411129   1.980   1.850   1.401  2.1317  0.4507 -2.2617
  746THF     H511130   2.120   1.780   1.488  0.1252  1.3928  1.0272
  746THF     H611131   1.895   1.596   1.256  1.7630 -0.7828 -1.9432
  746THF     H711132   1.998   1.468   1.274  0.8836 -0.1249 -0.0269
  746THF     C811133   1.918   1.544   1.462 -0.0607 -0.6352 -0.2285
  746THF     C911134   1.920   1.687   1.517  0.6065  0.1591 -0.0597
  746THF    H1011135   1.977   1.474   1.519  0.0434  1.2991  2.2080
  746THF    H1111136   1.812   1.519   1.460 -0.0967 -0.4662 -0.9384
  746THF    H1211137   1.823   1.737   1.505  0.5187 -0.2991 -1.3313
  746THF    H1311138   1.945   1.684   1.623 -2.3896 -0.2153  0.7185
  747THF     O111139   4.492   1.425   0.756 -0.5115  0.8595 -0.1109
  747THF     C211140   4.481   1.294   0.700 -0.2892  0.0596 -0.2935
  747THF     C311141   4.619   1.434   0.824  0.0218 -0.4152 -0.2072
  747THF     H411142   4.422   1.299   0.609 -0.4885 -1.2302 -0.2562
  747THF     H511143   4.412   1.239   0.765 -2.7317 -0.7870 -3.3503
  747THF     H611144   4.660   1.534   0.836 -0.7939 -0.0383 -0.5193
  747THF     H711145   4.618   1.396   0.927  0.0933  0.8494  0.2822
  747THF     C811146   4.709   1.362   0.715  0.6698 -0.0143  0.0397
  747THF     C911147   4.623   1.239   0.685 -0.7245 -0.2251  0.2921
  747THF    H1011148   4.810   1.330   0.740  0.5456 -1.7204 -1.4757
  747THF    H1111149   4.724   1.427   0.629  2.2717  0.3841  0.5805
  747THF    H1211150   4.640   1.190   0.589  0.7384 -2.9132  1.8128
  747THF    H1311151   4.655   1.169   0.762  0.8931  0.3167  0.1500
  748THF     O111152   0.020   5.482   1.186 -0.3270 -0.1446 -0.1957
  748THF     C211153  -0.035   5.486   1.311  0.2155  0.1378  0.2350
  748THF     C311154   0.042   5.616   1.141 -0.0122 -0.1511  0.3400
  748THF     H411155  -0.013   5.396   1.369 -0.4250  1.1718  2.1936
  748THF     H511156  -0.143   5.495   1.302 -0.1847 -2.4494  1.4461
  748THF     H611157   0.113   5.611   1.059  0.0629 -1.3375  0.4546
  748THF     H711158  -0.055   5.648   1.104 -0.2612  0.9047  1.8012
  748THF     C811159   0.063   5.705   1.261 -0.1487  0.2020  0.6437
  748THF     C911160   0.040   5.606   1.372  0.3620 -0.1526  0.5018
  748THF    H1011161  -0.012   5.783   1.267 -1.4830 -0.7889 -1.6161
  748THF    H1111162   0.166   5.738   1.271 -0.2230 -0.0003  2.3825
  748THF    H1211163   0.120   5.576   1.439  1.3681 -2.9188 -1.7192
  748THF    H1311164  -0.035   5.648   1.439  0.8862 -3.2877  3.3317
  749THF     O111165   5.411   0.484   4.767 -0.1145 -0.0079  0.5717
  749THF     C211166   5.514   0.391   4.775  0.2281  0.1900 -0.8643
  749THF     C311167   5.461   0.602   4.837  0.4487  0.1514  0.1464
  749THF     H411168   5.598   0.417   4.711 -0.2073  0.5402 -1.2988
  749THF     H511169   5.460   0.299   4.753 -0.4563  0.5369 -0.6567
  749THF     H611170   5.531   0.646   4.766  0.1658  3.0770  1.5430
  749THF     H711171   5.381   0.674   4.848 -0.7737 -1.2519  0.8846
  749THF     C811172   5.525   0.549   4.959  0.3548 -0.5554  0.0266
  749THF     C911173   5.547   0.403   4.926  0.7643 -0.5297 -0.4297
  749THF    H1011174   5.456   0.561   5.042 -0.1827 -1.8544 -0.2116
  749THF    H1111175   5.614   0.612   4.969 -0.4476  0.5191  0.7029
  749THF    H1211176   5.653   0.382   4.941  0.2100 -1.8978  2.2088
  749THF    H1311177   5.488   0.340   4.993  1.3403 -0.2744  0.3311
  750THF     O111178   4.817   4.148   1.984  0.2536 -0.0174 -0.4524
  750THF     C211179   4.803   4.225   1.869 -0.0374  0.4745 -0.7905
  750THF     C311180   4.906   4.044   1.950 -0.1019 -0.4078  0.4788
  750THF     H411181   4.856   4.319   1.887 -0.3735  0.6891 -0.9013
  750THF     H511182   4.699   4.255   1.858 -0.7401 -0.1930  2.8611
  750THF     H611183   5.009   4.079   1.950 -0.7154  1.5267  1.4293
  750THF     H711184   4.894   3.961   2.020 -0.8505  0.3330  1.2481
  750THF     C811185   4.870   4.000   1.817  0.4416 -0.7380 -0.2561
  750THF     C911186   4.845   4.140   1.752 -0.7638 -0.0108  0.1681
  750THF    H1011187   4.773   3.953   1.800  0.6954 -1.6838  0.8032
  750THF    H1111188   4.952   3.940   1.778 -0.8320 -1.7676 -1.4387
  750THF    H1211189   4.935   4.171   1.699 -0.6080 -0.0904  0.3873
  750THF    H1311190   4.761   4.141   1.683 -0.6379  1.2393  0.0168
  751THF     O111191   1.276   0.541   2.942 -0.3816  1.2315 -0.8802
  751THF     C211192   1.288   0.626   3.051 -0.1888 -0.1385 -0.0758
  751THF     C311193   1.164   0.457   2.960  0.1939 -0.0096 -0.6747
  751THF     H411194   1.225   0.714   3.040 -1.2867 -1.0160 -1.2410
  751THF     H511195   1.393   0.654   3.051 -0.3541  0.4927 -0.5466
  751THF     H611196   1.066   0.498   2.936  0.2382  0.4688 -0.0511
  751THF     H711197   1.192   0.363   2.912 -1.0437 -1.1299  0.6754
  751THF     C811198   1.150   0.432   3.115 -0.3988 -0.0509  0.2930
  751THF     C911199   1.245   0.531   3.175 -0.6183  0.3532  0.1572
  751THF    H1011200   1.169   0.327   3.138 -0.2844 -0.2207 -0.5460
  751THF    H1111201   1.049   0.449   3.154 -0.0977 -0.1325  1.1381
  751THF    H1211202   1.209   0.578   3.266 -3.2926  0.3669 -0.8301
  751THF    H1311203   1.338   0.480   3.203  1.0757  4.3093  2.6981
  752THF     O111204   1.073   1.586   2.224 -0.0033 -0.2476 -0.3968
  752THF     C211205   0.984   1.645   2.318 -0.0048 -0.5792  0.2379
  752THF     C311206   1.090   1.450   2.269  0.0421  0.1707 -0.4514
  752THF     H411207   0.942   1.731   2.267  1.3152 -0.8248 -1.3193
  752THF     H511208   1.022   1.666   2.418 -0.4757  0.9375  0.1108
  752THF     H611209   1.144   1.389   2.197  0.9949  1.2462 -0.6862
  752THF     H711210   1.138   1.447   2.366  0.1011  1.4959 -0.4158
  752THF     C811211   0.945   1.406   2.279  0.2851  0.0776  0.0985
  752THF     C911212   0.872   1.534   2.311 -0.0366 -0.1693 -0.0620
  752THF    H1011213   0.943   1.332   2.359  1.1847  1.3329  1.3408
  752THF    H1111214   0.912   1.359   2.186  1.8550 -0.7082 -0.0962
  752THF    H1211215   0.798   1.557   2.235  0.0526 -0.0173 -0.1039
  752THF    H1311216   0.815   1.528   2.404  1.1411  0.7437  0.7595
  753THF     O111217   3.826   4.044   2.878 -0.5867  0.2095 -0.2969
  753THF     C211218   3.700   4.039   2.949  0.4349  0.3573 -0.2919
  753THF     C311219   3.858   3.910   2.846  0.0244  0.6951 -0.4233
  753THF     H411220   3.645   4.132   2.948 -1.9083 -0.6972  4.2058
  753THF     H511221   3.729   4.039   3.054  1.0693  0.4275 -0.4611
  753THF     H611222   3.918   3.902   2.755 -1.2706 -0.5756 -1.2027
  753THF     H711223   3.915   3.882   2.935 -1.3548  1.6766  0.8091
  753THF     C811224   3.722   3.849   2.825 -0.0580  0.2364  0.3794
  753THF     C911225   3.620   3.918   2.905 -0.4726 -0.1916  0.2827
  753THF    H1011226   3.732   3.744   2.850  0.6585 -0.0744 -1.1217
  753THF    H1111227   3.696   3.857   2.719 -0.6556 -0.4973  0.4644
  753THF    H1211228   3.530   3.942   2.847 -0.5978 -0.3128  0.4244
  753THF    H1311229   3.576   3.859   2.986 -2.1742 -0.8136 -1.0110
  754THF     O111230   3.608   0.757   3.969  0.3855  0.5022  0.3182
  754THF     C211231   3.483   0.815   3.916  0.1852  0.6960 -0.1569
  754THF     C311232   3.578   0.698   4.095  0.3422  0.0264  0.3511
  754THF     H411233   3.485   0.813   3.807 -1.2351 -0.8552 -0.1994
  754THF     H511234   3.466   0.918   3.946  2.0639  1.4036 -1.2940
  754THF     H611235   3.659   0.635   4.133  1.0296  1.4982  1.4285
  754THF     H711236   3.554   0.773   4.170 -0.7750 -0.8510  0.8986
  754THF     C811237   3.448   0.624   4.063  0.3879 -0.6614 -0.0691
  754THF     C911238   3.373   0.725   3.982 -0.1447 -0.1516 -0.2620
  754THF    H1011239   3.390   0.579   4.144  0.0711  1.6758  1.0816
  754THF    H1111240   3.466   0.543   3.993  0.8164 -1.5771  1.0675
  754THF    H1211241   3.314   0.682   3.901 -0.9182  2.1288 -1.0042
  754THF    H1311242   3.303   0.783   4.043  1.3235  1.5146 -0.0692
  755THF     O111243   2.570   2.252   0.336  0.0811  0.3367 -0.3366
  755THF     C211244   2.426   2.255   0.332  0.5655  0.1287  0.0718
  755THF     C311245   2.615   2.126   0.297  0.3011 -0.0019 -0.0196
  755THF     H411246   2.393   2.243   0.229 -0.1565 -0.4152  0.3602
  755THF     H511247   2.389   2.346   0.379 -1.6400 -1.1806  1.0066
  755THF     H611248   2.601   2.107   0.190  1.1405 -0.9333  0.0192
  755THF     H711249   2.722   2.125   0.317  0.5255  0.0506 -1.1436
  755THF     C811250   2.509   2.038   0.370 -0.2412  0.5838 -0.0410
  755THF     C911251   2.381   2.121   0.387 -0.0321 -0.4078 -0.1524
  755THF    H1011252   2.545   2.023   0.472  1.2521  0.3967 -0.5728
  755THF    H1111253   2.491   1.934   0.343 -0.0900  0.7448 -0.7730
  755THF    H1211254   2.299   2.082   0.327  1.8806 -0.6840 -2.7794
  755THF    H1311255   2.362   2.128   0.494  0.9110 -1.9327  0.1392
  756THF     O111256   2.604   4.660   4.777 -0.5982  0.7113  0.4298
  756THF     C211257   2.627   4.765   4.689  1.1661 -0.2483 -0.0543
  756THF     C311258   2.719   4.576   4.765  0.2294  0.1243 -0.0272
  756THF     H411259   2.712   4.824   4.724  0.3341  1.7752 -1.2680
  756THF     H511260   2.537   4.823   4.672  0.9957 -0.5589 -0.2043
  756THF     H611261   2.796   4.621   4.827 -0.3549  0.7780  0.2414
  756THF     H711262   2.699   4.478   4.807  1.0338  0.8144  2.0853
  756THF     C811263   2.750   4.579   4.616 -0.4556  0.3938  0.6250
  756THF     C911264   2.666   4.695   4.560 -0.0958 -0.0845 -0.1208
  756THF    H1011265   2.710   4.487   4.574  0.1851 -0.4763  1.8725
  756THF    H1111266   2.856   4.578   4.590 -1.2822 -1.2782 -3.3973
  756THF    H1211267   2.718   4.765   4.495 -0.2906 -1.0986 -1.3933
  756THF    H1311268   2.584   4.645   4.509 -1.1329 -0.1868  1.5722
  757THF     O111269   3.016   0.859   2.545  0.6291  0.0552 -0.4290
  757THF     C211270   3.071   0.860   2.676 -0.0623  0.3816  0.3399
  757THF     C311271   3.113   0.831   2.447 -0.1385 -0.6850 -0.2933
  757THF     H411272   3.007   0.814   2.751 -0.5991  0.6447  0.0471
  757THF     H511273   3.075   0.967   2.698 -1.8723  0.3782  0.8282
  757THF     H611274   3.086   0.729   2.421 -2.5688 -0.2406  0.2577
  757THF     H711275   3.094   0.901   2.365  1.3184  2.0508  1.5218
  757THF     C811276   3.252   0.847   2.521  0.7653 -0.3063  0.1266
  757THF     C911277   3.207   0.796   2.664 -0.1973 -0.3439 -0.2229
  757THF    H1011278   3.276   0.953   2.521 -3.6463  0.8797 -1.7511
  757THF    H1111279   3.332   0.801   2.463  1.1077 -0.8087  0.9768
  757THF    H1211280   3.200   0.687   2.666  0.5838 -0.4415 -1.6721
  757THF    H1311281   3.268   0.834   2.745 -2.1777 -2.2373  2.3547
  758THF     O111282   0.577   1.522   2.786 -0.0832  0.2700 -0.0287
  758THF     C211283   0.699   1.478   2.728 -0.8540  0.0746  0.0684
  758THF     C311284   0.505   1.407   2.837 -0.0682 -0.1011  0.4232
  758THF     H411285   0.776   1.556   2.728  0.8016 -1.4050 -2.4681
  758THF     H511286   0.695   1.445   2.624 -0.7175  2.6528 -0.8454
  758THF     H611287   0.441   1.436   2.920  0.0564 -2.1620  1.3036
  758THF     H711288   0.442   1.379   2.752  2.3603  0.5921 -1.7282
  758THF     C811289   0.614   1.311   2.874 -0.1005 -0.8613 -0.4599
  758THF     C911290   0.739   1.363   2.818 -0.0080  0.1503  0.5940
  758THF    H1011291   0.604   1.206   2.846 -0.4373 -0.8598 -0.3447
  758THF    H1111292   0.610   1.309   2.983 -0.0900 -0.5877 -0.4534
  758THF    H1211293   0.798   1.397   2.903  0.4726  1.3522 -0.1770
  758THF    H1311294   0.802   1.289   2.768 -0.1518  0.2470  0.2637
  759THF     O111295   1.535   3.651   3.145  0.4672 -0.3038  0.1413
  759THF     C211296   1.393   3.650   3.114 -0.8403 -0.2122 -0.3264
  759THF     C311297   1.546   3.568   3.249  0.1177  0.8954  0.1751
  759THF     H411298   1.364   3.571   3.044 -2.0218  0.1409 -0.2442
  759THF     H511299   1.350   3.741   3.072 -0.0952  0.2816 -0.0385
  759THF     H611300   1.525   3.465   3.220  1.6665  0.0084  1.9499
  759THF     H711301   1.643   3.551   3.296  0.1764  1.7029  0.3584
  759THF     C811302   1.437   3.613   3.346 -0.1891 -0.4528 -0.2806
  759THF     C911303   1.322   3.637   3.252 -0.0903  0.2637 -0.0189
  759THF    H1011304   1.462   3.708   3.394 -0.6722  0.3816 -1.6264
  759THF    H1111305   1.415   3.532   3.415  1.3687 -0.1082  0.6790
  759THF    H1211306   1.245   3.561   3.241 -0.9381  1.0089  0.6602
  759THF    H1311307   1.279   3.727   3.295  0.7018  0.4155  0.4797
  760THF     O111308   2.625   2.495   1.548  0.1207 -0.0560  0.1463
  760THF     C211309   2.601   2.501   1.687 -0.9126 -0.1478 -0.5602
  760THF     C311310   2.754   2.544   1.518  0.1039  0.1197  0.4427
  760THF     H411311   2.631   2.404   1.726 -0.0104 -0.0012 -0.8647
  760THF     H511312   2.498   2.520   1.719 -0.8362  0.1607 -0.4965
  760THF     H611313   2.828   2.467   1.543 -0.9944 -0.7450  1.1343
  760THF     H711314   2.767   2.588   1.419 -1.9936 -2.6721 -1.2166
  760THF     C811315   2.777   2.655   1.621  0.2109 -0.5716 -0.2248
  760THF     C911316   2.700   2.606   1.746 -0.8476 -0.6791 -0.2211
  760THF    H1011317   2.741   2.757   1.604  1.9421  0.9607  3.9275
  760THF    H1111318   2.883   2.669   1.641  0.1220 -0.2809  0.0655
  760THF    H1211319   2.767   2.574   1.825 -0.3937  2.1590  0.6456
  760THF    H1311320   2.647   2.691   1.788  0.4534 -0.4884  1.1178
  761THF     O111321   0.603   0.289   0.966 -0.3607  0.3559  0.0586
  761THF     C211322   0.644   0.221   1.079  0.0196  0.0082  0.6892
  761THF     C311323   0.664   0.417   0.981 -0.4253 -0.9987 -0.1184
  761THF     H411324   0.749   0.200   1.063  0.3826  1.5767  0.7993
  761THF     H511325   0.602   0.124   1.106  0.7072 -0.5166 -0.0791
  761THF     H611326   0.761   0.423   0.932 -1.0632 -1.7248 -1.5170
  761THF     H711327   0.602   0.494   0.934  1.8811  0.4075 -0.9905
  761THF     C811328   0.670   0.450   1.133 -0.3877  0.0931  0.2725
  761THF     C911329   0.617   0.326   1.189  0.5136 -0.0581 -0.0339
  761THF    H1011330   0.602   0.532   1.157 -0.4303  0.3580 -0.7127
  761THF    H1111331   0.774   0.477   1.151 -0.9677  2.5417  0.3336
  761THF    H1211332   0.645   0.301   1.292  0.6551  1.5258  0.3286
  761THF    H1311333   0.508   0.329   1.190  0.4911  0.7730 -1.7731
  762THF     O111334   2.028   5.226   2.610 -0.4153  0.4763 -0.1901
  762THF     C211335   2.152   5.297   2.601 -0.4524  0.6800  0.6872
  762THF     C311336   2.024   5.149   2.492  0.1255  0.1888 -0.2102
  762THF     H411337   2.235   5.230   2.625  0.9145  0.5741 -3.5170
  762THF     H511338   2.146   5.384   2.667 -1.7609  1.9669 -1.0301
  762THF     H611339   2.087   5.061   2.504  1.7672  1.3838  0.2257
  762THF     H711340   1.924   5.113   2.466  1.1776 -2.1073 -1.3521
  762THF     C811341   2.070   5.244   2.385  0.0639 -0.1907  0.2210
  762THF     C911342   2.169   5.337   2.456 -0.4337 -0.3024  1.1784
  762THF    H1011343   1.988   5.302   2.343  0.7127  0.2645 -0.4605
  762THF    H1111344   2.098   5.184   2.299 -0.9942  0.5304 -0.6411
  762THF    H1211345   2.271   5.320   2.420 -1.5381 -1.3575 -1.7460
  762THF    H1311346   2.143   5.439   2.427  1.2027  0.0911  0.9507
  763THF     O111347   1.919   0.890   4.511 -0.2892 -0.3341  0.0181
  763THF     C211348   1.913   0.962   4.385  0.5150 -0.1336  0.3322
  763THF     C311349   1.914   0.991   4.613  0.2092 -0.0364  0.2638
  763THF     H411350   1.822   0.927   4.337  1.3052 -0.1494 -1.2340
  763THF     H511351   1.990   0.934   4.312 -0.1308 -0.3040 -0.2978
  763THF     H611352   1.814   1.010   4.652 -0.5438 -1.2108 -0.9781
  763THF     H711353   1.963   0.948   4.701 -0.3368 -2.4721 -0.5263
  763THF     C811354   1.958   1.126   4.553  0.3039 -0.4932  0.3223
  763THF     C911355   1.896   1.115   4.408 -0.0690 -0.4752  0.6837
  763THF    H1011356   2.067   1.127   4.553  0.3318  1.3247 -0.7694
  763THF    H1111357   1.913   1.213   4.602 -1.4030 -2.5142  2.5756
  763THF    H1211358   1.790   1.141   4.405  0.1007  0.1550 -0.9974
  763THF    H1311359   1.949   1.177   4.336 -1.9903  2.7531  1.8459
  764THF     O111360   0.518   4.193   4.926 -0.2271  0.0646 -0.1512
  764THF     C211361   0.626   4.277   4.897  0.3603 -0.4046  0.2398
  764THF     C311362   0.399   4.258   4.955 -0.2042  0.2883  0.2260
  764THF     H411363   0.631   4.314   4.795  0.5003 -0.0162  0.3839
  764THF     H511364   0.720   4.226   4.918  0.2983 -0.3458  0.6663
  764THF     H611365   0.358   4.300   4.864 -1.4627 -2.3420 -0.4986
  764THF     H711366   0.325   4.194   5.002 -0.3409 -0.1070 -0.5270
  764THF     C811367   0.453   4.359   5.044 -0.0463 -0.2057  0.0288
  764THF     C911368   0.595   4.393   4.988  0.2115 -0.5598 -0.2129
  764THF    H1011369   0.471   4.306   5.137 -0.9097 -1.6707 -0.6171
  764THF    H1111370   0.388   4.446   5.056  0.5177  0.1554  0.5475
  764THF    H1211371   0.604   4.492   4.946 -0.1545  0.2195  1.4589
  764THF    H1311372   0.672   4.402   5.065  0.6139 -0.6950 -0.5990
  765THF     O111373   3.535   2.775   2.470  0.2714 -0.2354  0.2097
  765THF     C211374   3.653   2.825   2.522  0.9291  0.3487  0.2550
  765THF     C311375   3.477   2.697   2.576  0.0732 -0.5052  0.8640
  765THF     H411376   3.639   2.924   2.566 -4.8976  0.3349 -0.8151
  765THF     H511377   3.728   2.834   2.443  1.2177 -0.6583  0.4048
  765THF     H611378   3.432   2.755   2.656  0.4767  3.1199 -1.3221
  765THF     H711379   3.400   2.633   2.534  0.9156 -1.0647  0.1423
  765THF     C811380   3.593   2.624   2.634 -0.7303 -0.2299  0.0912
  765THF     C911381   3.703   2.728   2.632 -0.5588  0.3996 -0.6510
  765THF    H1011382   3.620   2.545   2.564  1.1230 -0.8474  1.4385
  765THF    H1111383   3.567   2.576   2.728  1.6762  0.8587  1.3948
  765THF    H1211384   3.728   2.774   2.728 -0.1462 -2.5497  0.8065
  765THF    H1311385   3.798   2.678   2.610  0.4288  1.4208  1.0761
  766THF     O111386   2.081   4.578   2.753 -0.0343 -0.0128 -0.1713
  766THF     C211387   2.197   4.635   2.830  1.2317  0.1699 -0.1724
  766THF     C311388   1.977   4.678   2.784  0.3543  0.0808  0.0663
  766THF     H411389   2.290   4.596   2.788  1.3325 -1.3074  1.3376
  766THF     H511390   2.183   4.608   2.934  2.3033 -0.6929 -0.2382
  766THF     H611391   1.899   4.667   2.708  0.7860 -2.9432 -0.0729
  766THF     H711392   1.925   4.671   2.880  0.1213 -1.8027 -0.1583
  766THF     C811393   2.048   4.804   2.751  0.3704  0.2675 -0.1074
  766THF     C911394   2.184   4.788   2.815 -0.5851  0.1977  0.1286
  766THF    H1011395   2.000   4.896   2.782  1.9086  2.1998 -3.0206
  766THF    H1111396   2.067   4.810   2.644 -2.1089  1.6434 -0.5250
  766THF    H1211397   2.259   4.832   2.749  0.6608 -0.9943  0.6887
  766THF    H1311398   2.192   4.844   2.908  0.1709  1.1829 -0.5071
  767THF     O111399   1.795   2.172   3.885  0.2444 -0.3810  0.4554
  767THF     C211400   1.711   2.286   3.917  0.3258  0.2066 -0.0447
  767THF     C311401   1.774   2.153   3.749 -0.1132 -0.0465 -0.2588
  767THF     H411402   1.764   2.380   3.918 -0.3959  0.6665  2.6044
  767THF     H511403   1.687   2.293   4.023  1.7794 -2.4771  0.5639
  767THF     H611404   1.862   2.199   3.703 -0.9020  3.2971  1.2853
  767THF     H711405   1.774   2.047   3.721  0.3079  0.0640 -0.6791
  767THF     C811406   1.645   2.221   3.701  0.2014  0.4541 -0.2174
  767THF     C911407   1.587   2.277   3.830 -0.1709  0.5288  0.6471
  767THF    H1011408   1.574   2.154   3.654  0.5026  0.1964 -0.3069
  767THF    H1111409   1.684   2.296   3.632  2.7930 -1.2804 -0.7987
  767THF    H1211410   1.525   2.364   3.812 -1.6893 -0.5347  0.5935
  767THF    H1311411   1.515   2.203   3.866  0.1172  0.8348  1.8953
  768THF     O111412   2.666   0.665   0.668  0.1983 -0.1353 -0.4029
  768THF     C211413   2.546   0.713   0.737 -0.9538 -0.1271 -1.0832
  768THF     C311414   2.659   0.528   0.635 -0.8888  0.1348  0.0950
  768THF     H411415   2.486   0.779   0.676 -0.0930  1.0296 -0.7049
  768THF     H511416   2.580   0.777   0.818  1.1590  0.0356 -2.0298
  768THF     H611417   2.609   0.534   0.538 -0.0131  3.0986 -0.2670
  768THF     H711418   2.755   0.483   0.610 -1.1625 -0.0038 -0.7238
  768THF     C811419   2.577   0.470   0.755 -0.2107 -0.5785  0.0071
  768THF     C911420   2.485   0.586   0.788  0.5987  0.7906 -0.3073
  768THF    H1011421   2.640   0.448   0.842 -0.8540 -1.7618  0.1923
  768THF    H1111422   2.535   0.375   0.723  0.9951 -1.5034  1.0618
  768THF    H1211423   2.394   0.574   0.728 -0.2135  2.2543  0.5556
  768THF    H1311424   2.462   0.585   0.894 -0.2069  1.7436 -0.4502
  769THF     O111425   0.892   4.762   0.723  0.2540 -0.6609  0.5739
  769THF     C211426   0.985   4.817   0.815  0.2241 -0.0009 -0.1413
  769THF     C311427   0.931   4.797   0.584 -0.3033 -0.2036 -1.1361
  769THF     H411428   1.033   4.738   0.873 -0.1699  0.2695  0.5553
  769THF     H511429   0.933   4.880   0.886  0.8757  0.1754  0.1914
  769THF     H611430   0.907   4.717   0.514  1.9047 -0.9907 -1.0812
  769THF     H711431   0.885   4.889   0.547 -0.2436  0.1640 -0.3220
  769THF     C811432   1.075   4.816   0.598  0.6516  0.2363 -0.2741
  769THF     C911433   1.092   4.883   0.732  0.5917 -0.2718 -0.4173
  769THF    H1011434   1.117   4.872   0.514 -2.3527 -0.0171 -2.0818
  769THF    H1111435   1.131   4.722   0.607  0.0423  0.0285  1.7579
  769THF    H1211436   1.196   4.882   0.766  0.9589  1.7398 -1.3334
  769THF    H1311437   1.070   4.989   0.723  3.1961  0.4432  0.7771
  770THF     O111438   0.174   1.644   4.325  0.3997  0.0014  0.1924
  770THF     C211439   0.101   1.525   4.291 -0.1860 -0.4036  0.2091
  770THF     C311440   0.127   1.688   4.455 -0.4363  0.3993 -0.4855
  770THF     H411441   0.150   1.431   4.315 -0.0578 -0.0235  1.4831
  770THF     H511442   0.110   1.517   4.182 -1.0010 -3.3303  0.2637
  770THF     H611443   0.175   1.626   4.531 -0.5668 -1.2274 -1.6813
  770THF     H711444   0.144   1.794   4.472 -0.0616  0.2110  0.3696
  770THF     C811445  -0.021   1.659   4.458  0.1791 -0.1827 -0.0062
  770THF     C911446  -0.032   1.542   4.373 -0.4014 -0.2173  0.2996
  770THF    H1011447  -0.078   1.735   4.404  1.0309 -1.1250 -2.3508
  770THF    H1111448  -0.067   1.646   4.556  0.9965 -2.8237  0.1007
  770THF    H1211449  -0.046   1.461   4.444 -0.5850  0.0062  0.5201
  770THF    H1311450  -0.125   1.541   4.316 -0.5671 -0.5676  0.5728
  771THF     O111451   5.469   1.829   2.188 -0.3038  0.4649 -0.1517
  771THF     C211452   5.586   1.755   2.201  0.1171  0.1430 -0.7709
  771THF     C311453   5.374   1.738   2.138 -0.7019  0.7088  0.1039
  771THF     H411454   5.577   1.713   2.301 -1.5512 -3.4517 -2.2660
  771THF     H511455   5.672   1.822   2.208  1.2369 -1.4436  1.9682
  771THF     H611456   5.331   1.674   2.215  1.3774 -1.1983 -0.2044
  771THF     H711457   5.286   1.791   2.101 -0.7232  3.2887  3.4074
  771THF     C811458   5.453   1.644   2.043 -0.2503  0.3190 -0.6042
  771THF     C911459   5.591   1.635   2.102  0.2246  0.2583  0.1031
  771THF    H1011460   5.455   1.701   1.950  0.4569 -1.0954 -1.4889
  771THF    H1111461   5.412   1.544   2.029  1.0842 -0.2950 -0.2966
  771THF    H1211462   5.596   1.540   2.154 -0.8860  1.3004  2.2103
  771THF    H1311463   5.671   1.636   2.027 -0.1132  0.6685 -0.2582
  772THF     O111464   0.590   3.842   1.391 -0.2621  0.0889  0.7148
  772THF     C211465   0.721   3.811   1.444 -0.0613  0.2262 -0.1215
  772THF     C311466   0.598   3.846   1.254  0.8493  0.3393  0.2065
  772THF     H411467   0.751   3.706   1.436  0.9309  0.4913  0.1008
  772THF     H511468   0.722   3.839   1.549  2.1335 -1.1450  0.2864
  772THF     H611469   0.600   3.747   1.209  2.8817  0.2570  0.3802
  772THF     H711470   0.511   3.899   1.213  1.1474  1.4825  1.0012
  772THF     C811471   0.728   3.923   1.225 -0.5946 -0.8769  0.1754
  772THF     C911472   0.805   3.910   1.359  0.3592  0.4497 -0.2300
  772THF    H1011473   0.701   4.026   1.203 -1.3660 -1.4062 -1.5069
  772THF    H1111474   0.776   3.885   1.135  0.5439  1.5772 -0.3447
  772THF    H1211475   0.903   3.862   1.349 -0.5389 -1.6598  0.5023
  772THF    H1311476   0.812   4.004   1.414 -0.2799  1.7237 -2.2374
  773THF     O111477   0.020   3.909   3.564  0.2981  0.1260 -0.7568
  773THF     C211478   0.113   3.797   3.564 -0.5746 -1.0858 -0.6311
  773THF     C311479   0.105   4.014   3.611  0.4021  0.3022  0.2522
  773THF     H411480   0.058   3.724   3.504 -1.0961  1.2489 -3.1952
  773THF     H511481   0.143   3.758   3.661  2.0980 -2.0326 -1.7465
  773THF     H611482   0.051   4.108   3.616  2.1310  1.2675  1.9791
  773THF     H711483   0.140   3.987   3.711  2.2547  2.1958  0.1830
  773THF     C811484   0.221   4.011   3.511 -0.0323  0.0877  0.4638
  773THF     C911485   0.228   3.863   3.478  0.6228  0.9261 -0.3283
  773THF    H1011486   0.316   4.038   3.557  1.3772 -4.6739  0.9032
  773THF    H1111487   0.205   4.069   3.421 -0.2178  0.2293  0.5869
  773THF    H1211488   0.212   3.849   3.371  0.4501 -2.2619  0.0272
  773THF    H1311489   0.329   3.830   3.503  0.1099  2.0783  4.2174
  774THF     O111490   0.591   2.912   1.847 -0.8092 -0.3382 -0.3736
  774THF     C211491   0.633   3.006   1.955 -0.2997 -0.3675  0.1156
  774THF     C311492   0.671   2.956   1.730  0.7806 -0.2439 -0.4730
  774THF     H411493   0.643   2.935   2.037 -0.8141 -1.1620 -0.5051
  774THF     H511494   0.564   3.074   2.006 -0.0406 -1.2464  1.7085
  774THF     H611495   0.680   2.868   1.666  0.3464 -0.3275 -0.4234
  774THF     H711496   0.618   3.035   1.677  1.3440  1.5879  1.5705
  774THF     C811497   0.802   3.015   1.792  0.0158 -0.0120  0.2948
  774THF     C911498   0.764   3.076   1.914 -0.3054  0.0375  0.7795
  774THF    H1011499   0.859   3.082   1.728  0.4931  0.2809  1.0095
  774THF    H1111500   0.876   2.937   1.809 -1.9458 -2.6459 -2.2685
  774THF    H1211501   0.848   3.059   1.982  1.4723  0.9428 -1.0846
  774THF    H1311502   0.750   3.182   1.898 -1.8099  0.0352  1.9179
  775THF     O111503   0.476   3.946   2.908  0.0383  0.6886  0.0449
  775THF     C211504   0.414   4.040   2.997 -0.3556 -0.5602  0.5672
  775THF     C311505   0.543   3.846   2.987 -0.1936  0.2063 -0.7133
  775THF     H411506   0.349   4.119   2.959 -0.0839 -1.2323 -1.4293
  775THF     H511507   0.504   4.086   3.037 -0.9305  0.0146  1.2293
  775THF     H611508   0.549   3.758   2.923  0.7889  1.9662 -3.2116
  775THF     H711509   0.646   3.878   3.003 -0.3283  2.1819 -3.2004
  775THF     C811510   0.446   3.838   3.110  0.3990 -0.6921  0.0693
  775THF     C911511   0.348   3.951   3.096  0.0839  0.3573  0.2214
  775THF    H1011512   0.506   3.850   3.200  0.4863  0.6973 -0.1653
  775THF    H1111513   0.389   3.745   3.101 -0.3793 -0.0750 -1.8774
  775THF    H1211514   0.256   3.903   3.063  0.9217 -1.5005  0.4628
  775THF    H1311515   0.315   3.995   3.190 -1.0582  3.6607 -1.5748
  776THF     O111516   2.198   0.143   2.231  0.7462 -0.0113  0.1700
  776THF     C211517   2.250   0.020   2.165  0.2184  0.4781 -0.4697
  776THF     C311518   2.281   0.243   2.177 -0.0816 -0.7770  0.1656
  776THF     H411519   2.168  -0.048   2.144  1.4702 -1.2503 -0.0152
  776THF     H511520   2.324  -0.024   2.232 -0.3008  2.3947  1.4525
  776THF     H611521   2.205   0.293   2.118  0.0814 -1.0887 -0.3156
  776THF     H711522   2.329   0.305   2.253  0.0905 -3.0515  2.0518
  776THF     C811523   2.380   0.186   2.074 -0.0708  0.0021  0.1471
  776THF     C911524   2.323   0.059   2.031  0.5793 -0.2796  0.2935
  776THF    H1011525   2.471   0.152   2.123 -1.1998 -1.2832  1.4350
  776THF    H1111526   2.399   0.246   1.985 -0.8677 -2.0442 -1.4688
  776THF    H1211527   2.235   0.076   1.969  0.7983  0.9256  0.2955
  776THF    H1311528   2.390  -0.020   1.997 -0.7561 -1.6108  0.6455
  777THF     O111529   4.402   2.849   1.605 -0.3989 -0.3618 -0.7093
  777THF     C211530   4.384   2.779   1.728 -0.5434 -0.1377 -0.1667
  777THF     C311531   4.345   2.980   1.623 -0.2565 -0.5418 -0.2986
  777THF     H411532   4.462   2.806   1.799  0.0490  1.1913 -1.2823
  777THF     H511533   4.391   2.671   1.723 -0.8681 -0.1758  0.1443
  777THF     H611534   4.409   3.035   1.692 -1.6079  0.6008  0.0913
  777THF     H711535   4.332   3.027   1.526 -3.4470 -0.0541  0.2584
  777THF     C811536   4.218   2.957   1.699  0.3110  0.0947 -0.4605
  777THF     C911537   4.245   2.825   1.776 -0.0699 -0.0940  0.8454
  777THF    H1011538   4.131   2.953   1.634  0.1861  1.6238 -0.4118
  777THF    H1111539   4.186   3.029   1.774  0.5452  2.1403 -2.2295
  777THF    H1211540   4.238   2.827   1.885 -1.0456 -0.8246  0.8082
  777THF    H1311541   4.163   2.757   1.754 -0.5198 -0.3183  3.0120
  778THF     O111542   1.499   0.964   5.046  0.6706  0.1183 -0.7665
  778THF     C211543   1.412   0.848   5.057 -0.5534 -0.2484  0.0903
  778THF     C311544   1.584   0.958   5.160  0.0962  0.3992 -0.0043
  778THF     H411545   1.462   0.757   5.024 -1.6679 -1.9928  2.8438
  778THF     H511546   1.328   0.865   4.989 -0.7995 -0.2742  0.3847
  778THF     H611547   1.676   0.909   5.128  0.6333  0.5767  1.2312
  778THF     H711548   1.602   1.061   5.191  1.6484 -0.3398  1.6781
  778THF     C811549   1.522   0.865   5.270  0.8361 -0.1080 -0.4020
  778THF     C911550   1.381   0.846   5.204 -0.2690 -0.5559  0.0181
  778THF    H1011551   1.521   0.905   5.371  1.9470 -0.7967 -0.1033
  778THF    H1111552   1.567   0.766   5.266 -1.0753 -1.0538  0.0157
  778THF    H1211553   1.342   0.750   5.240 -2.9575  0.0914 -0.9444
  778THF    H1311554   1.306   0.919   5.232 -0.6642 -0.5729 -0.9731
  779THF     O111555   2.538   0.194   0.905  0.3531 -0.2102  0.5689
  779THF     C211556   2.560   0.137   1.039 -0.1361 -0.1401  0.2927
  779THF     C311557   2.419   0.128   0.860 -0.8526  0.4399 -0.0444
  779THF     H411558   2.625   0.199   1.101 -0.1090 -0.3317  0.4569
  779THF     H511559   2.603   0.039   1.022 -1.3910 -0.8254  0.8897
  779THF     H611560   2.350   0.207   0.831  0.8728  1.2711 -2.1065
  779THF     H711561   2.430   0.075   0.765  1.8557  0.0288  0.4359
  779THF     C811562   2.355   0.051   0.974  0.7836  0.1804 -0.7751
  779THF     C911563   2.420   0.110   1.099  0.3704  0.1536  0.1542
  779THF    H1011564   2.364  -0.057   0.961 -1.7073 -0.0991 -0.8237
  779THF    H1111565   2.247   0.065   0.964  0.7849  2.7163  1.5227
  779THF    H1211566   2.376   0.203   1.136 -3.3701 -1.6732  0.7231
  779THF    H1311567   2.417   0.043   1.185 -1.7827 -0.3613 -0.2734
  780THF     O111568   2.370   1.022   1.494  0.5601  0.0015  0.0800
  780THF     C211569   2.248   1.064   1.436 -0.2146  0.1300 -0.7135
  780THF     C311570   2.425   1.123   1.572  0.1633  0.2628  0.3737
  780THF     H411571   2.186   0.981   1.402 -1.3212  0.0648  1.3484
  780THF     H511572   2.258   1.137   1.356 -1.2877 -0.0628 -1.0371
  780THF     H611573   2.466   1.067   1.656  0.4614  0.6025  0.4551
  780THF     H711574   2.496   1.174   1.506 -1.5550 -0.1344 -1.9021
  780THF     C811575   2.294   1.198   1.618 -0.5639  0.4282 -0.2057
  780THF     C911576   2.180   1.120   1.563  0.2649 -0.4933 -0.2404
  780THF    H1011577   2.299   1.302   1.586  3.2251  1.4087  2.7236
  780THF    H1111578   2.304   1.201   1.726 -2.9626 -1.8786  0.1898
  780THF    H1211579   2.153   1.040   1.631 -3.6391  0.4612 -0.4185
  780THF    H1311580   2.094   1.184   1.544 -0.7723 -1.3412  1.3856
  781THF     O111581   1.443   1.486   0.099 -0.1542 -0.0785  0.2759
  781THF     C211582   1.433   1.524  -0.037  0.6951 -0.1958  0.6375
  781THF     C311583   1.500   1.360   0.114 -0.2926 -0.1879  0.2368
  781THF     H411584   1.466   1.628  -0.040  0.7298 -0.1835  1.3426
  781THF     H511585   1.335   1.505  -0.081  1.0786 -0.6124 -0.0647
  781THF     H611586   1.593   1.356   0.172 -1.3119 -0.6685  1.9303
  781THF     H711587   1.431   1.293   0.165 -0.8725  1.1610  1.2782
  781THF     C811588   1.535   1.311  -0.023  0.5418 -0.2860  0.3300
  781THF     C911589   1.539   1.438  -0.099 -0.0394  0.5235  0.5853
  781THF    H1011590   1.462   1.239  -0.060  1.4604 -2.0857  1.8596
  781THF    H1111591   1.635   1.269  -0.015  0.0706 -1.5717 -0.3431
  781THF    H1211592   1.639   1.479  -0.084  0.2197  0.4441 -0.7820
  781THF    H1311593   1.521   1.417  -0.205 -0.4744  1.3513  0.4845
  782THF     O111594   5.361   1.242   2.603 -0.2174  0.4890 -0.3027
  782THF     C211595   5.251   1.290   2.528  0.5270  0.7232  0.4024
  782THF     C311596   5.379   1.103   2.586  0.8004 -0.0811 -0.0097
  782THF     H411597   5.244   1.398   2.520 -1.2049  0.6652  0.7286
  782THF     H511598   5.158   1.266   2.580  1.2368 -0.3969  1.2033
  782THF     H611599   5.480   1.075   2.615  1.2020  1.9208  0.6780
  782THF     H711600   5.301   1.055   2.645 -0.4256  0.2116 -1.3418
  782THF     C811601   5.348   1.090   2.436 -0.6113  0.2389 -0.4162
  782THF     C911602   5.272   1.212   2.397  0.9916  0.0228  0.8875
  782THF    H1011603   5.285   1.002   2.421 -0.3420  0.1475 -1.0380
  782THF    H1111604   5.446   1.086   2.387 -0.4301 -1.3366  0.0184
  782THF    H1211605   5.320   1.275   2.322 -2.2756  0.0384 -1.3909
  782THF    H1311606   5.173   1.196   2.354  0.1233  1.2132  2.2968
  783THF     O111607   0.707   3.592   5.496  0.7114  0.1629 -0.0545
  783THF     C211608   0.621   3.487   5.525  0.8172  0.8439  0.3894
  783THF     C311609   0.808   3.589   5.597  0.3735  0.1284  0.1278
  783THF     H411610   0.563   3.467   5.434 -0.0189 -1.1857  1.3035
  783THF     H511611   0.558   3.503   5.613 -1.1626 -0.0865 -0.7857
  783THF     H611612   0.897   3.633   5.552 -1.5081  2.3641 -1.6809
  783THF     H711613   0.789   3.653   5.683 -1.3485 -0.8457  0.5331
  783THF     C811614   0.840   3.449   5.633 -0.1311 -0.0638  0.3206
  783THF     C911615   0.722   3.374   5.561 -0.2281 -0.3846  0.2051
  783THF    H1011616   0.839   3.440   5.742 -0.5614 -0.2316  0.3066
  783THF    H1111617   0.932   3.413   5.587 -0.1206 -0.8105  0.8896
  783THF    H1211618   0.759   3.342   5.464 -0.0957  0.8447 -0.1706
  783THF    H1311619   0.676   3.288   5.609 -1.1746 -1.1342 -1.9363
  784THF     O111620   2.912   1.079   2.012 -0.1708 -0.0312  0.2200
  784THF     C211621   2.975   0.983   1.928  0.5104  1.0339  0.0970
  784THF     C311622   2.845   1.011   2.120  0.5691 -0.3194 -0.1574
  784THF     H411623   3.068   0.952   1.975 -0.0495  0.3741  0.8009
  784THF     H511624   2.987   1.004   1.821  1.0647 -3.4218 -0.9091
  784THF     H611625   2.911   1.012   2.207 -0.0807  2.2523  0.4009
  784THF     H711626   2.761   1.068   2.160  1.2390  1.8682 -1.6462
  784THF     C811627   2.811   0.865   2.073  0.1559 -0.6606 -0.0757
  784THF     C911628   2.864   0.866   1.930 -0.2327  0.0699  0.0512
  784THF    H1011629   2.705   0.842   2.070  0.7432 -3.9841 -3.2326
  784THF    H1111630   2.869   0.804   2.142  1.4156 -0.0689 -0.5694
  784THF    H1211631   2.904   0.765   1.914  0.8529  0.5303 -0.2490
  784THF    H1311632   2.779   0.876   1.862  0.5940 -2.2417 -1.4846
  785THF     O111633   1.686   1.294   2.463  0.6919  0.1608  0.1829
  785THF     C211634   1.775   1.317   2.351  0.5069  0.0836 -0.2798
  785THF     C311635   1.552   1.282   2.422 -0.7110  0.5704 -0.1142
  785THF     H411636   1.842   1.232   2.339 -0.2111 -0.4285 -0.7688
  785THF     H511637   1.840   1.402   2.369  2.1290 -1.3008  0.6837
  785THF     H611638   1.527   1.180   2.391  2.2931 -0.3816  0.1845
  785THF     H711639   1.492   1.324   2.502 -0.4534  0.3554  0.1974
  785THF     C811640   1.544   1.363   2.299 -0.2142  0.4277 -0.2525
  785THF     C911641   1.676   1.339   2.232  0.2396  0.1929  0.9399
  785THF    H1011642   1.545   1.466   2.334 -3.1354  0.5838 -0.4203
  785THF    H1111643   1.452   1.339   2.247 -1.2796  1.9785  0.8400
  785THF    H1211644   1.672   1.246   2.176  2.4756  0.0785  0.8637
  785THF    H1311645   1.712   1.423   2.172  1.7924 -0.0026  1.5429
  786THF     O111646   1.478   0.797   2.240  0.9075  0.2340 -0.1621
  786THF     C211647   1.479   0.871   2.118  0.2614  0.0226  0.1580
  786THF     C311648   1.613   0.784   2.281  0.4899 -0.1522  0.3193
  786THF     H411649   1.381   0.900   2.081  1.1667 -1.0455 -3.5640
  786THF     H511650   1.526   0.811   2.039 -0.0646  0.3168 -0.2656
  786THF     H611651   1.620   0.755   2.386  2.0041  2.9171  1.1695
  786THF     H711652   1.660   0.703   2.225  0.9882  0.4034 -0.0810
  786THF     C811653   1.664   0.924   2.252  0.7055 -0.1614 -0.0594
  786THF     C911654   1.576   0.986   2.148 -0.1527 -0.0558 -0.0245
  786THF    H1011655   1.769   0.916   2.226  1.8653 -0.5223  4.0165
  786THF    H1111656   1.649   0.994   2.334 -2.7642  0.1231 -0.7878
  786THF    H1211657   1.525   1.075   2.186  1.6070  0.9355  0.1456
  786THF    H1311658   1.635   1.014   2.061  2.1926  2.6797  2.2222
  787THF     O111659   0.966   0.671   1.862  0.0099 -0.3408  0.3324
  787THF     C211660   0.928   0.663   1.997  0.0488  0.3028 -0.4972
  787THF     C311661   1.003   0.548   1.814 -0.3743 -0.0631 -0.3746
  787THF     H411662   0.862   0.746   2.023  1.8105  1.7933 -0.5992
  787THF     H511663   1.011   0.657   2.067 -0.7355 -1.7156  0.3604
  787THF     H611664   1.027   0.530   1.709  0.0735 -0.2358 -0.2438
  787THF     H711665   1.087   0.512   1.874 -2.0930 -1.6923  1.1875
  787THF     C811666   0.887   0.469   1.859  0.1939  0.2865  0.7158
  787THF     C911667   0.839   0.537   1.988 -0.3296 -0.8469  0.5763
  787THF    H1011668   0.906   0.362   1.872  1.3412  0.3057 -0.6105
  787THF    H1111669   0.822   0.476   1.772  1.1740 -0.3444 -0.0908
  787THF    H1211670   0.737   0.574   1.991  0.4449  1.3874  1.1059
  787THF    H1311671   0.852   0.471   2.074 -0.3578 -0.2952  1.0050
  788THF     O111672   2.836   1.253   2.564 -0.0522 -0.6346 -0.4537
  788THF     C211673   2.721   1.217   2.649  0.3527  0.1311 -0.2039
  788THF     C311674   2.857   1.151   2.470  0.1467  0.6182 -0.3862
  788THF     H411675   2.634   1.266   2.606  1.0210 -1.1217 -3.2309
  788THF     H511676   2.758   1.251   2.746  3.1060 -2.6700 -0.1165
  788THF     H611677   2.866   1.208   2.377  1.9917  2.0711  0.6056
  788THF     H711678   2.955   1.112   2.495 -0.3477 -1.2210 -1.1866
  788THF     C811679   2.750   1.045   2.488  0.1085  0.2460  0.6158
  788THF     C911680   2.698   1.062   2.636  0.2202  0.0587  1.0566
  788THF    H1011681   2.768   0.943   2.457  1.1594  0.0140  1.9099
  788THF    H1111682   2.663   1.075   2.428 -1.3089 -3.7689  0.3822
  788THF    H1211683   2.596   1.028   2.656  0.2181  0.0853  1.0932
  788THF    H1311684   2.764   1.017   2.710  1.0653 -0.4757  0.0048
  789THF     O111685   2.907   4.351   3.152 -0.3166 -0.1385 -0.2527
  789THF     C211686   2.939   4.455   3.242 -0.6109  0.1875 -0.4999
  789THF     C311687   2.821   4.256   3.220  0.1207  0.8883 -0.0511
  789THF     H411688   2.966   4.544   3.186  1.6694 -0.7474 -1.0114
  789THF     H511689   3.022   4.424   3.306  0.3048  1.7280 -0.8765
  789THF     H611690   2.769   4.193   3.147  0.9610  2.4610 -2.1079
  789THF     H711691   2.881   4.194   3.286  0.5233  1.3026 -0.0283
  789THF     C811692   2.729   4.356   3.293 -0.1170 -0.1143 -0.0578
  789THF     C911693   2.819   4.471   3.331 -0.0796  0.0848  0.3495
  789THF    H1011694   2.680   4.315   3.381 -1.4128  0.0152 -0.7002
  789THF    H1111695   2.650   4.393   3.227  0.5652  0.2403 -0.6957
  789THF    H1211696   2.767   4.566   3.320  0.4520  0.2662 -0.6786
  789THF    H1311697   2.845   4.443   3.434  1.4903 -2.6525 -0.6864
  790THF     O111698   3.417   4.121   1.738 -0.6760 -0.2680 -0.1965
  790THF     C211699   3.517   4.120   1.844  0.1227  0.1813 -0.3733
  790THF     C311700   3.292   4.142   1.801  0.3379  0.2329  0.5795
  790THF     H411701   3.605   4.177   1.814  2.3610 -1.3122  2.7314
  790THF     H511702   3.550   4.020   1.875  0.1772  0.7337  1.4307
  790THF     H611703   3.215   4.168   1.729  0.2761 -1.7268 -0.1058
  790THF     H711704   3.275   4.046   1.849  2.3964 -0.2325  0.4644
  790THF     C811705   3.332   4.254   1.894 -0.4663  0.5408 -0.7027
  790THF     C911706   3.459   4.198   1.961  0.1995 -0.2320  0.4358
  790THF    H1011707   3.262   4.291   1.969 -0.2657 -1.2558  0.4267
  790THF    H1111708   3.354   4.339   1.829 -3.0933 -0.2750 -2.8383
  790THF    H1211709   3.528   4.277   1.992 -0.5600  0.3336  0.7309
  790THF    H1311710   3.437   4.136   2.048  1.3591 -1.0180  0.1813
  791THF     O111711   5.185   0.328   1.889  0.4553  0.0942  0.1143
  791THF     C211712   5.184   0.398   1.773 -0.0656 -0.4879 -0.4864
  791THF     C311713   5.062   0.256   1.884  0.1371  0.9295 -0.2388
  791THF     H411714   5.274   0.456   1.755 -0.5153 -0.0134 -1.2442
  791THF     H511715   5.103   0.470   1.786  1.1676  0.7638  0.5332
  791THF     H611716   5.065   0.174   1.956  0.4296  0.1578 -1.1218
  791THF     H711717   4.977   0.321   1.902 -0.9439  0.3806 -2.9747
  791THF     C811718   5.059   0.208   1.741 -0.6860  0.1891  0.7804
  791THF     C911719   5.155   0.305   1.670  0.1646  0.3347  0.0446
  791THF    H1011720   4.958   0.217   1.702 -0.6714  1.6798  1.0448
  791THF    H1111721   5.096   0.105   1.734  0.0155  0.4411  0.6176
  791THF    H1211722   5.248   0.250   1.655  0.4761  0.8107  0.2194
  791THF    H1311723   5.107   0.350   1.583 -1.6748  2.3106  1.9540
  792THF     O111724   1.202   2.151   3.196  0.1633  0.1762 -0.6420
  792THF     C211725   1.119   2.180   3.091 -0.0227  0.0238 -0.5355
  792THF     C311726   1.308   2.246   3.209 -0.1728 -0.7703 -0.3048
  792THF     H411727   1.016   2.145   3.102  0.2607 -0.8389 -0.5963
  792THF     H511728   1.149   2.120   3.005 -2.4590 -0.7124 -0.9613
  792THF     H611729   1.326   2.269   3.314  0.3784 -0.5817 -0.4364
  792THF     H711730   1.397   2.204   3.162  1.6801  2.7484 -0.2972
  792THF     C811731   1.263   2.374   3.132 -0.3691  0.3457  0.0513
  792THF     C911732   1.132   2.330   3.073 -0.3060 -0.4530  0.2947
  792THF    H1011733   1.338   2.395   3.055 -1.0481  1.7355 -0.2642
  792THF    H1111734   1.262   2.468   3.187 -3.6084  0.5842 -0.2443
  792THF    H1211735   1.043   2.381   3.108 -1.9388 -1.4089 -2.2304
  792THF    H1311736   1.131   2.358   2.968  0.7078 -0.2954  0.3145
  793THF     O111737   0.310   4.338   1.252 -0.0664 -0.2813 -0.2083
  793THF     C211738   0.415   4.258   1.297  0.5054  0.0625 -0.5266
  793THF     C311739   0.184   4.291   1.300 -0.7537  0.6635  0.2034
  793THF     H411740   0.504   4.321   1.307 -2.3571  4.3927  0.7592
  793THF     H511741   0.415   4.176   1.225 -1.3533 -0.6403  0.2183
  793THF     H611742   0.104   4.364   1.313 -2.9567 -1.1993 -1.7787
  793THF     H711743   0.156   4.223   1.219  0.4867  1.6851 -1.1190
  793THF     C811744   0.207   4.195   1.424  0.0610 -0.0263  0.0348
  793THF     C911745   0.356   4.207   1.431  0.3270  0.8406  0.0935
  793THF    H1011746   0.180   4.095   1.392  1.8690 -0.1373 -1.2952
  793THF    H1111747   0.165   4.223   1.521 -1.6237 -1.5487 -0.2197
  793THF    H1211748   0.379   4.279   1.509  0.4820 -0.2467  1.0691
  793THF    H1311749   0.392   4.109   1.462 -4.1165 -1.3311 -0.7654
  794THF     O111750   2.853   1.152   5.401  0.2581  0.5674 -0.6849
  794THF     C211751   2.734   1.081   5.445  0.1999 -0.2584 -0.1236
  794THF     C311752   2.971   1.075   5.428  0.3294 -0.0290 -0.4477
  794THF     H411753   2.646   1.126   5.400 -1.7369 -1.3546  2.3105
  794THF     H511754   2.713   1.100   5.550  1.9707  0.4125  0.1482
  794THF     H611755   3.049   1.075   5.353  1.7330  1.2279  0.9387
  794THF     H711756   3.015   1.106   5.523 -0.1234  0.5744 -0.4261
  794THF     C811757   2.910   0.926   5.444 -0.2027 -0.4215  0.0674
  794THF     C911758   2.764   0.940   5.404 -0.1194 -0.0989 -0.5561
  794THF    H1011759   2.921   0.894   5.548  0.7707  0.4611  0.2559
  794THF    H1111760   2.965   0.856   5.380 -2.3512 -1.1978 -1.0385
  794THF    H1211761   2.771   0.937   5.295  1.3575 -1.0423 -0.4625
  794THF    H1311762   2.695   0.871   5.452  2.2241 -1.1114  1.5745
  795THF     O111763   1.433   1.018   4.021 -0.4756  0.2852  0.1516
  795THF     C211764   1.332   1.014   3.930  0.2435  0.9712 -0.2947
  795THF     C311765   1.389   0.940   4.132  0.6841  0.2563  0.1064
  795THF     H411766   1.321   0.910   3.901 -1.2939  0.0314  3.1214
  795THF     H511767   1.363   1.074   3.845  1.0656 -3.0710 -3.1191
  795THF     H611768   1.383   0.837   4.097 -0.2632  0.9144 -1.8376
  795THF     H711769   1.452   0.960   4.219 -1.7352  1.8052  1.6102
  795THF     C811770   1.249   0.999   4.155  0.2932 -0.1100 -0.5210
  795THF     C911771   1.208   1.039   4.019  0.0583  0.1735 -0.2589
  795THF    H1011772   1.261   1.076   4.230 -3.5855 -1.6978  2.0227
  795THF    H1111773   1.166   0.936   4.187  0.1284  1.1892  1.8079
  795THF    H1211774   1.114   0.997   3.983 -1.1653 -0.1868  3.0886
  795THF    H1311775   1.176   1.144   4.019 -1.1492 -0.1695  0.8423
  796THF     O111776   4.659   2.620   1.697 -0.2376  0.3258 -0.7358
  796THF     C211777   4.658   2.674   1.560  0.4991  0.1297 -0.9673
  796THF     C311778   4.795   2.624   1.751  0.5457 -0.1995 -0.2956
  796THF     H411779   4.632   2.780   1.550  2.2719  0.5128 -1.9923
  796THF     H511780   4.579   2.619   1.510  0.2243  0.6033 -1.0678
  796THF     H611781   4.824   2.709   1.814 -1.9436 -0.0057  0.7129
  796THF     H711782   4.806   2.538   1.817  0.9636  0.1212  0.0589
  796THF     C811783   4.883   2.626   1.628 -0.5069 -0.0049  0.0914
  796THF     C911784   4.799   2.660   1.507  0.3359 -0.4418  0.0244
  796THF    H1011785   4.933   2.530   1.629 -0.5075 -0.0075  1.5003
  796THF    H1111786   4.961   2.703   1.632 -0.5856  0.0367  2.6806
  796THF    H1211787   4.829   2.756   1.466  0.9262 -0.7944 -0.3757
  796THF    H1311788   4.792   2.595   1.420 -2.0408 -1.5827  0.9791
  797THF     O111789   2.621   3.910   0.741 -0.5576  0.0019  0.3238
  797THF     C211790   2.713   4.004   0.801  0.1268  1.0346 -0.1884
  797THF     C311791   2.549   3.991   0.640 -0.0919 -0.2442 -0.4716
  797THF     H411792   2.796   3.948   0.842 -1.1013 -1.4575 -0.9387
  797THF     H511793   2.663   4.052   0.885  1.4721 -0.5013  1.5465
  797THF     H611794   2.497   3.926   0.570  0.2581 -2.5549  1.2792
  797THF     H711795   2.476   4.051   0.695  1.6140 -0.2785  1.9716
  797THF     C811796   2.651   4.096   0.582 -0.3233  0.8683 -0.5488
  797THF     C911797   2.759   4.112   0.690  0.3579 -0.1092 -0.3228
  797THF    H1011798   2.602   4.192   0.568 -1.1074  0.7606  1.1362
  797THF    H1111799   2.704   4.065   0.492  0.2553 -2.8554  0.8788
  797THF    H1211800   2.854   4.082   0.645 -0.1961 -0.4680 -1.2700
  797THF    H1311801   2.778   4.213   0.727  2.7966 -1.0779  1.3880
  798THF     O111802   2.489   0.639   1.859 -0.1670  0.1314 -0.4352
  798THF     C211803   2.374   0.712   1.886  1.0408 -0.5848  0.1994
  798THF     C311804   2.541   0.689   1.735  0.2073 -0.0862  0.4142
  798THF     H411805   2.395   0.810   1.929  1.1675  0.0861 -1.3543
  798THF     H511806   2.317   0.667   1.968 -1.8618  0.0078 -1.3598
  798THF     H611807   2.582   0.789   1.749  0.1128 -0.0427  0.3752
  798THF     H711808   2.614   0.621   1.692  1.2693 -0.2598  2.3760
  798THF     C811809   2.412   0.710   1.643 -1.1473  0.1214  0.2984
  798THF     C911810   2.306   0.729   1.751  0.3343  0.0937 -0.0243
  798THF    H1011811   2.395   0.621   1.583 -0.5876  0.7286 -0.7777
  798THF    H1111812   2.428   0.791   1.572  1.8271  0.1570  0.8763
  798THF    H1211813   2.257   0.824   1.730  0.2622 -0.1973 -1.2655
  798THF    H1311814   2.238   0.644   1.751  0.2418  0.1501 -1.0503
  799THF     O111815   1.009   0.302   4.675 -0.3285 -0.3323 -0.2030
  799THF     C211816   1.138   0.299   4.736 -0.5851  0.0745  0.1250
  799THF     C311817   0.946   0.174   4.686 -0.6451 -0.4636 -0.0591
  799THF     H411818   1.173   0.385   4.794 -1.7221  0.6736 -0.0363
  799THF     H511819   1.218   0.275   4.666 -1.2838  1.1828 -1.1008
  799THF     H611820   0.839   0.192   4.682 -0.7094 -0.7831  0.1673
  799THF     H711821   0.980   0.106   4.608  0.7683 -0.7079  0.7470
  799THF     C811822   0.978   0.132   4.827 -0.1609  0.0438  0.0010
  799THF     C911823   1.124   0.181   4.840 -0.4305 -0.4323 -0.2380
  799THF    H1011824   0.960   0.026   4.841  0.3026 -0.0738 -0.2406
  799THF    H1111825   0.915   0.185   4.898  1.2017 -1.7760  2.7537
  799THF    H1211826   1.149   0.212   4.942 -0.1001 -1.3586 -0.0201
  799THF    H1311827   1.181   0.093   4.809  1.9214  1.1553 -0.6112
  800THF     O111828   3.541   4.203   1.291  0.2818  0.1849 -0.4661
  800THF     C211829   3.444   4.281   1.226 -0.4967  0.2827  0.7464
  800THF     C311830   3.470   4.095   1.349  0.9691 -0.3089 -0.0649
  800THF     H411831   3.421   4.217   1.141  1.9847 -0.6570  0.6998
  800THF     H511832   3.481   4.379   1.193 -0.5821  0.5309  1.3684
  800THF     H611833   3.472   4.009   1.282 -0.3736 -3.5184  3.6479
  800THF     H711834   3.525   4.055   1.435  1.4079  0.6846  0.1267
  800THF     C811835   3.337   4.157   1.402 -0.6314  1.0930  0.0190
  800THF     C911836   3.327   4.288   1.323 -0.5997 -0.5874 -0.3001
  800THF    H1011837   3.349   4.166   1.510  1.6430 -3.7860  0.4372
  800THF    H1111838   3.248   4.097   1.386 -1.4841  2.2212  0.3562
  800THF    H1211839   3.234   4.293   1.267  0.6247  0.8828 -2.3290
  800THF    H1311840   3.351   4.370   1.391  1.5506 -1.1459 -0.3002
  801THF     O111841   4.907   4.200   3.120  0.0251  0.3644 -0.2166
  801THF     C211842   5.024   4.273   3.158 -0.2740  0.6851 -0.1902
  801THF     C311843   4.839   4.142   3.224  0.6379 -0.1323 -0.5056
  801THF     H411844   5.000   4.380   3.155  0.6491  0.8966 -0.2662
  801THF     H511845   5.111   4.249   3.097 -0.2457  0.7316 -0.1682
  801THF     H611846   4.731   4.143   3.212  0.8468  0.5693 -2.9722
  801THF     H711847   4.866   4.039   3.249  1.7833  0.5958  1.5151
  801THF     C811848   4.896   4.214   3.350 -0.2069  0.0810  0.5249
  801THF     C911849   5.038   4.235   3.297  0.2739  0.1212 -0.2872
  801THF    H1011850   4.895   4.151   3.438  0.5758  0.1053  0.5629
  801THF    H1111851   4.854   4.313   3.367 -0.2331  0.5087 -1.7142
  801THF    H1211852   5.087   4.315   3.352 -0.4349  1.6998 -1.8870
  801THF    H1311853   5.097   4.143   3.306  1.9904  1.1923 -0.1172
  802THF     O111854   0.754   0.073   3.574 -0.3562  0.1314 -0.3086
  802THF     C211855   0.673  -0.035   3.537  0.2914  0.6325 -0.0479
  802THF     C311856   0.671   0.176   3.628  0.5940 -0.4273 -0.0315
  802THF     H411857   0.685  -0.117   3.608 -1.6329 -1.1838 -1.6933
  802THF     H511858   0.709  -0.077   3.443 -2.6171  0.5551 -1.2319
  802THF     H611859   0.669   0.157   3.736 -0.1468  0.1711  0.0697
  802THF     H711860   0.708   0.276   3.604  1.5198 -0.6648  0.3767
  802THF     C811861   0.535   0.161   3.569 -0.0949  0.4364 -0.3438
  802THF     C911862   0.533   0.008   3.547 -0.0334 -0.4656 -0.0329
  802THF    H1011863   0.502   0.225   3.487 -0.3888 -0.5503 -1.0211
  802THF    H1111864   0.449   0.183   3.632  0.9640  0.7112  1.0518
  802THF    H1211865   0.486  -0.047   3.628 -0.1872 -1.6723 -0.9159
  802THF    H1311866   0.483  -0.026   3.456 -1.1034  0.8067  0.0529
  803THF     O111867   3.816   5.329   4.230 -0.2769 -0.3677  0.1998
  803THF     C211868   3.781   5.206   4.295 -0.4517  0.7789  0.1052
  803THF     C311869   3.814   5.425   4.340 -0.3480 -0.0426 -0.0033
  803THF     H411870   3.868   5.166   4.347 -0.1547  0.5997 -0.5186
  803THF     H511871   3.751   5.134   4.219  1.8981  1.5173 -1.6133
  803THF     H611872   3.889   5.410   4.417 -0.9484  0.2323  0.6571
  803THF     H711873   3.837   5.527   4.311  2.8175 -0.5686  0.3081
  803THF     C811874   3.672   5.394   4.391  0.5399 -0.3288 -0.3190
  803THF     C911875   3.661   5.240   4.378  0.2114 -0.1789 -0.1797
  803THF    H1011876   3.598   5.447   4.331  0.0395 -1.0765 -0.3695
  803THF    H1111877   3.646   5.424   4.492  0.3703 -2.8540  0.4401
  803THF    H1211878   3.650   5.186   4.472  0.2635  0.2373  0.0666
  803THF    H1311879   3.578   5.228   4.308  0.8103 -0.4299 -0.8648
  804THF     O111880   1.837   0.051   0.060 -0.3075  0.2173  0.7484
  804THF     C211881   1.896   0.126   0.166 -0.3015  0.3446 -0.3081
  804THF     C311882   1.722   0.132   0.023 -0.0703 -0.0355 -0.3584
  804THF     H411883   2.002   0.105   0.181 -0.4350 -0.8413 -0.8645
  804THF     H511884   1.843   0.092   0.254 -0.0478  1.9755  0.5162
  804THF     H611885   1.692   0.109  -0.079 -0.2376 -1.0514 -0.0986
  804THF     H711886   1.641   0.113   0.093  0.5265  0.3257  0.4571
  804THF     C811887   1.748   0.272   0.040 -0.1260 -0.0244 -0.1514
  804THF     C911888   1.875   0.269   0.126 -0.1080 -0.4914  0.2919
  804THF    H1011889   1.672   0.336   0.086  0.9647  2.2782 -1.3981
  804THF    H1111890   1.775   0.318  -0.055 -1.8896  4.1887  1.1417
  804THF    H1211891   1.961   0.321   0.084 -0.4690 -1.1967 -1.4006
  804THF    H1311892   1.867   0.331   0.216  0.4373  0.8015 -0.5099
  805THF     O111893   0.071   3.710   4.948  0.6060  1.3373  0.6846
  805THF     C211894   0.072   3.846   4.914  0.1999  0.3222  0.0560
  805THF     C311895  -0.055   3.679   5.014 -0.1278  0.0190 -0.2663
  805THF     H411896   0.034   3.868   4.814  0.5567  0.1409 -0.1206
  805THF     H511897   0.174   3.880   4.931  1.3904 -3.1288  0.6722
  805THF     H611898  -0.145   3.670   4.953  0.4139  0.2916 -1.1156
  805THF     H711899  -0.052   3.596   5.085  2.9260  1.6657  1.7785
  805THF     C811900  -0.079   3.806   5.096  0.0130  0.0339  0.2250
  805THF     C911901  -0.019   3.918   5.016 -0.2786  0.4187 -0.1537
  805THF    H1011902  -0.025   3.800   5.190  0.5794  1.3823  0.0014
  805THF    H1111903  -0.186   3.805   5.117 -0.0486 -0.7697 -0.0789
  805THF    H1211904  -0.086   3.998   4.984 -0.3480  1.9051  3.2889
  805THF    H1311905   0.039   3.970   5.092 -0.1052  0.9716 -0.6543
  806THF     O111906   2.974   1.741   5.284 -0.3417  0.4100  0.0124
  806THF     C211907   2.974   1.664   5.406 -0.2426 -0.2940  0.0526
  806THF     C311908   3.060   1.674   5.197 -0.9108 -0.7281  0.0625
  806THF     H411909   2.886   1.699   5.460  1.3057  0.5344  2.1808
  806THF     H511910   3.065   1.701   5.453  0.9565  0.1334 -2.4251
  806THF     H611911   3.046   1.694   5.091 -0.7226 -1.8093 -0.1808
  806THF     H711912   3.165   1.686   5.225 -1.2165 -0.8354  1.3082
  806THF     C811913   3.026   1.532   5.214  0.4564 -0.1757  0.2031
  806THF     C911914   2.984   1.518   5.365  0.4213 -0.0098  0.2327
  806THF    H1011915   3.109   1.464   5.195  0.7807  0.2590  0.0610
  806THF    H1111916   2.940   1.512   5.150  0.0614  0.1732  0.6161
  806THF    H1211917   2.887   1.469   5.368  0.9592 -1.1446  0.0582
  806THF    H1311918   3.053   1.457   5.424  0.5788 -0.8763 -0.7915
  807THF     O111919   2.421   0.889   4.469 -0.2419  0.2774 -0.5849
  807THF     C211920   2.463   0.890   4.337  0.4771 -0.6257 -0.6681
  807THF     C311921   2.331   0.996   4.479  0.1166  0.5781  0.4694
  807THF     H411922   2.385   0.838   4.281  1.5927 -2.5274 -0.5597
  807THF     H511923   2.555   0.836   4.315  2.0390  1.1198  1.2206
  807THF     H611924   2.231   0.969   4.445  0.1082  2.3545 -1.0722
  807THF     H711925   2.320   1.013   4.586  2.8367 -1.0303  1.0872
  807THF     C811926   2.375   1.106   4.390 -0.4033 -0.1487  0.1113
  807THF     C911927   2.478   1.038   4.298 -0.2082  0.6643  0.0534
  807THF    H1011928   2.418   1.182   4.455  0.9049 -1.3109  0.6681
  807THF    H1111929   2.290   1.156   4.344 -1.1691  1.0651  2.7172
  807THF    H1211930   2.470   1.051   4.190  0.4644 -1.7790 -0.3700
  807THF    H1311931   2.577   1.073   4.328  0.3080 -1.3638  0.9273
  808THF     O111932   3.370   5.269   4.503 -0.5535 -0.4633  0.1637
  808THF     C211933   3.293   5.266   4.378  0.3140  0.9510  0.6381
  808THF     C311934   3.309   5.354   4.603  0.0406 -0.6379 -0.1759
  808THF     H411935   3.295   5.178   4.314  2.5765  1.5585 -0.2261
  808THF     H511936   3.331   5.340   4.308 -1.3565  0.8878 -0.3959
  808THF     H611937   3.287   5.300   4.695  0.0464  0.6727  0.6149
  808THF     H711938   3.381   5.434   4.621 -0.5466  0.2490 -1.6162
  808THF     C811939   3.189   5.413   4.524 -0.1255 -0.3410 -0.0279
  808THF     C911940   3.159   5.315   4.416 -0.1360 -0.0651  0.2122
  808THF    H1011941   3.212   5.514   4.489 -1.2323  0.7833  2.2858
  808THF    H1111942   3.105   5.433   4.590 -0.0071  2.8180 -0.6551
  808THF    H1211943   3.099   5.237   4.463  1.7163 -0.4891  1.9921
  808THF    H1311944   3.108   5.366   4.334 -0.3834 -0.6451 -0.0012
  809THF     O111945   4.423   5.184   1.546  0.4498 -0.4861 -0.7193
  809THF     C211946   4.489   5.243   1.658  0.0984  0.5624 -0.1168
  809THF     C311947   4.526   5.110   1.481 -0.1653 -0.0815  0.2325
  809THF     H411948   4.424   5.275   1.739  0.9696 -1.7613  1.6106
  809THF     H511949   4.544   5.327   1.617  0.4450 -0.0899 -1.0199
  809THF     H611950   4.495   5.051   1.394  1.0094 -1.0391  0.4214
  809THF     H711951   4.598   5.181   1.440 -1.7926  1.6718  0.2743
  809THF     C811952   4.588   5.030   1.592 -0.0554  0.1751  0.6341
  809THF     C911953   4.586   5.130   1.707 -0.0160 -0.0484  0.3564
  809THF    H1011954   4.690   4.993   1.579 -0.3620 -0.3094 -0.5933
  809THF    H1111955   4.516   4.951   1.611  0.2115 -0.7366 -1.7884
  809THF    H1211956   4.552   5.083   1.799 -0.6815 -0.4077 -0.0704
  809THF    H1311957   4.681   5.172   1.742  1.0498 -0.0947 -2.3043
  810THF     O111958   5.287   2.584   3.336  0.1553  0.3470  0.0652
  810THF     C211959   5.407   2.657   3.333  0.2651  0.6977 -0.6574
  810THF     C311960   5.317   2.454   3.277 -0.4792  0.0611  0.3382
  810THF     H411961   5.484   2.625   3.403  0.3335  0.6436 -0.7566
  810THF     H511962   5.385   2.762   3.354  0.2753  1.1376 -2.6810
  810THF     H611963   5.371   2.380   3.335 -0.6126 -2.0527 -2.0852
  810THF     H711964   5.222   2.405   3.258 -0.2359 -0.1637 -0.3282
  810THF     C811965   5.381   2.495   3.150 -0.4662 -0.0125 -0.1886
  810THF     C911966   5.453   2.625   3.189  0.3377  0.5139  0.9074
  810THF    H1011967   5.297   2.534   3.093  0.3041  2.2636  0.1481
  810THF    H1111968   5.449   2.423   3.105  1.3995 -0.3359  2.8275
  810THF    H1211969   5.561   2.614   3.177  0.0813  0.1158 -1.5071
  810THF    H1311970   5.428   2.701   3.115  2.1322  0.5891  0.3254
  811THF     O111971   0.183   1.962   5.245 -0.0561  0.2443  0.2227
  811THF     C211972   0.123   1.872   5.334  0.7029  0.4257  0.1213
  811THF     C311973   0.311   1.925   5.213  0.3831  0.8036  0.8705
  811THF     H411974   0.029   1.840   5.289 -0.4062  0.9138  2.0032
  811THF     H511975   0.099   1.922   5.427  2.0650  1.7665 -0.1955
  811THF     H611976   0.328   1.960   5.111 -0.9557  0.7581  0.6230
  811THF     H711977   0.381   1.968   5.285  1.7258 -0.5474  0.4348
  811THF     C811978   0.316   1.770   5.237 -0.1593  0.0879 -0.1137
  811THF     C911979   0.225   1.756   5.353  0.1421 -0.1539 -0.4371
  811THF    H1011980   0.414   1.730   5.262  0.5137  0.1776 -2.3496
  811THF    H1111981   0.292   1.717   5.145  2.2382 -2.1394  0.4372
  811THF    H1211982   0.187   1.654   5.345 -1.1079  0.3593 -1.4841
  811THF    H1311983   0.284   1.758   5.445  0.0967 -2.3794 -0.3126
  812THF     O111984   4.638   0.357   0.403  0.1100  0.3880  0.5842
  812THF     C211985   4.600   0.483   0.468 -0.3305 -0.0563  0.2961
  812THF     C311986   4.729   0.380   0.295 -0.3117 -0.0433  0.4203
  812THF     H411987   4.636   0.478   0.570  0.2502 -1.5702  0.0494
  812THF     H511988   4.491   0.486   0.471 -0.3009  1.8645  1.3354
  812THF     H611989   4.806   0.303   0.294 -0.3548 -0.0864 -0.5113
  812THF     H711990   4.677   0.370   0.199  0.8166 -0.5233 -0.1512
  812THF     C811991   4.784   0.523   0.316  0.7393  0.5342  0.6115
  812THF     C911992   4.667   0.589   0.385 -0.4625 -0.0737  0.1453
  812THF    H1011993   4.816   0.566   0.221 -1.7827 -0.0807 -0.5949
  812THF    H1111994   4.866   0.510   0.387  0.5512 -0.8808  0.5909
  812THF    H1211995   4.701   0.668   0.452  0.9477  0.0925 -0.7257
  812THF    H1311996   4.595   0.615   0.308  0.0507 -0.0614 -0.3380
  813THF     O111997   2.799   1.729   2.444 -0.3639 -0.2172 -0.0291
  813THF     C211998   2.836   1.598   2.412  0.3430  0.4985  0.0814
  813THF     C311999   2.661   1.721   2.478  0.1534 -0.2609  0.4960
  813THF     H412000   2.838   1.531   2.498  1.3769  1.5777  0.9308
  813THF     H512001   2.931   1.612   2.362  0.3112 -2.2837 -0.9109
  813THF     H612002   2.660   1.662   2.570  0.8131 -2.5179 -0.8723
  813THF     H712003   2.605   1.815   2.481 -0.6248 -0.7377  2.3003
  813THF     C812004   2.595   1.636   2.367  0.3474  0.1127 -0.2894
  813THF     C912005   2.720   1.557   2.314  0.1470  0.0406  0.7069
  813THF    H1012006   2.548   1.687   2.282  1.0481 -0.9000 -1.3130
  813THF    H1112007   2.524   1.568   2.414 -1.7699  0.8716 -2.1385
  813THF    H1212008   2.713   1.448   2.306  1.2905  0.0676 -1.4209
  813THF    H1312009   2.751   1.585   2.214  2.5391 -2.4588  0.6161
  814THF     O112010   3.722   0.332   2.218 -0.4246 -0.1316 -0.6445
  814THF     C212011   3.689   0.290   2.087  0.1513 -0.2832 -0.2083
  814THF     C312012   3.665   0.232   2.300 -0.8278 -0.0577  0.6150
  814THF     H412013   3.752   0.353   2.024  2.1211 -0.1508  1.7696
  814THF     H512014   3.587   0.327   2.070 -0.7816 -0.1532  4.4885
  814THF     H612015   3.695   0.248   2.404 -1.5004  0.5670  0.7186
  814THF     H712016   3.557   0.240   2.293 -0.6682  1.2084 -0.7748
  814THF     C812017   3.724   0.107   2.235 -0.1287 -0.3916  0.7513
  814THF     C912018   3.715   0.139   2.085 -0.4137 -0.5739 -0.4326
  814THF    H1012019   3.659   0.021   2.252  0.7702 -1.0222  1.0906
  814THF    H1112020   3.826   0.088   2.268  0.1870 -2.6116 -1.2299
  814THF    H1212021   3.811   0.118   2.037 -0.8568 -2.9971 -0.3806
  814THF    H1312022   3.641   0.077   2.034 -1.2427 -1.8036  2.0955
  815THF     O112023   2.154   1.797   3.525  0.0587  0.4214 -0.2502
  815THF     C212024   2.118   1.869   3.412 -0.2266  0.2243  0.5287
  815THF     C312025   2.255   1.873   3.590  0.1244  0.3288  0.2031
  815THF     H412026   2.045   1.947   3.433 -1.8155 -0.8956 -0.6052
  815THF     H512027   2.067   1.798   3.347  1.8326 -2.2032  1.3999
  815THF     H612028   2.212   1.950   3.654 -0.1998 -0.5483  1.0691
  815THF     H712029   2.307   1.807   3.659  0.0253  1.4514  1.3893
  815THF     C812030   2.335   1.934   3.475  0.1232 -0.1585  0.0466
  815THF     C912031   2.243   1.936   3.356  0.3806  0.4196  0.0556
  815THF    H1012032   2.426   1.881   3.447  1.1419  2.8476 -3.0840
  815THF    H1112033   2.362   2.039   3.488  2.4344 -0.7418  0.4420
  815THF    H1212034   2.227   2.040   3.330  0.3874 -0.1519 -2.5389
  815THF    H1312035   2.288   1.886   3.270  0.3204 -0.6773  0.6329
  816THF     O112036   5.220   3.692   3.087  0.3105  0.3625 -0.0069
  816THF     C212037   5.150   3.810   3.112  0.2343 -0.1112  0.1067
  816THF     C312038   5.308   3.662   3.192  1.3011  0.6954  0.0937
  816THF     H412039   5.055   3.785   3.158 -2.3066 -1.3696 -5.1130
  816THF     H512040   5.136   3.863   3.018 -0.3701  2.6537  1.6532
  816THF     H612041   5.260   3.620   3.281 -0.6995 -1.1927 -1.7748
  816THF     H712042   5.383   3.586   3.168 -1.1016 -2.1790  1.0472
  816THF     C812043   5.359   3.798   3.215  0.3144  0.3301 -0.5519
  816THF     C912044   5.233   3.884   3.216 -0.2486  0.5194  0.1322
  816THF    H1012045   5.423   3.819   3.129 -0.3684  1.4631 -0.8045
  816THF    H1112046   5.427   3.802   3.300 -2.1869 -1.4040  1.6843
  816THF    H1212047   5.179   3.867   3.309 -1.8038 -2.3972 -1.1570
  816THF    H1312048   5.246   3.989   3.191 -0.0362  0.1741 -1.3122
  817THF     O112049   0.535   3.000   3.895 -0.3679 -0.4684  0.5273
  817THF     C212050   0.620   3.108   3.906  0.3725  0.3039 -0.6274
  817THF     C312051   0.545   2.901   3.995  0.5510 -0.1863  0.3484
  817THF     H412052   0.592   3.208   3.872  0.8695  1.1786  1.3619
  817THF     H512053   0.711   3.086   3.850  0.1195 -1.2597 -0.4490
  817THF     H612054   0.446   2.893   4.040  0.9609  0.9407  1.4980
  817THF     H712055   0.583   2.804   3.964  0.5313 -0.4627  1.1557
  817THF     C812056   0.637   2.958   4.101  0.1782  0.3634  0.1784
  817THF     C912057   0.644   3.109   4.061  0.0413  0.2311 -0.1686
  817THF    H1012058   0.731   2.903   4.094  0.7864  1.1013  2.0006
  817THF    H1112059   0.591   2.950   4.200  0.8614 -1.0481  0.4061
  817THF    H1212060   0.560   3.151   4.116  1.0761 -1.8959  3.3181
  817THF    H1312061   0.732   3.169   4.085  0.9103 -0.5405 -1.3160
  818THF     O112062   0.139   0.292   0.057 -0.2380 -0.2128 -0.3639
  818THF     C212063   0.062   0.185  -0.003  0.3397 -0.6761 -0.2007
  818THF     C312064   0.111   0.296   0.203 -0.0041 -0.2937 -0.5463
  818THF     H412065   0.099   0.134  -0.093 -1.1239 -3.1707  0.4926
  818THF     H512066  -0.034   0.234  -0.016  0.1879 -0.3029  1.9780
  818THF     H612067   0.207   0.310   0.251  0.4733  1.3106 -1.8456
  818THF     H712068   0.045   0.380   0.226  0.1478 -0.4249  0.3793
  818THF     C812069   0.047   0.160   0.241 -0.2725  0.0492  0.6621
  818THF     C912070   0.055   0.086   0.113  0.3186  0.0802 -0.2344
  818THF    H1012071  -0.054   0.179   0.278  0.3215 -0.1632  2.4966
  818THF    H1112072   0.095   0.115   0.328 -1.6615 -2.8772  0.0226
  818THF    H1212073   0.145   0.025   0.105 -0.5744 -2.0865  3.4881
  818THF    H1312074  -0.035   0.024   0.110 -0.6904  1.4800 -0.3242
  819THF     O112075   4.943   3.444   4.707  1.3235 -0.0946  0.2628
  819THF     C212076   4.984   3.444   4.571 -0.2403  0.6644  0.6752
  819THF     C312077   4.798   3.438   4.706  0.3256  0.3539  0.8097
  819THF     H412078   4.991   3.339   4.545 -0.2484  0.7394  0.3693
  819THF     H512079   5.088   3.473   4.557  0.3408 -1.8145 -0.8476
  819THF     H612080   4.765   3.334   4.714  2.0903 -0.3595 -0.5837
  819THF     H712081   4.759   3.480   4.798 -0.0602 -0.4503  1.0225
  819THF     C812082   4.749   3.499   4.578  0.0203 -0.5859  0.4045
  819THF     C912083   4.875   3.520   4.492  0.6279  0.1944  0.1564
  819THF    H1012084   4.697   3.592   4.601 -0.2915  0.0477 -2.4298
  819THF    H1112085   4.690   3.424   4.524  1.0083 -0.4043 -0.9771
  819THF    H1212086   4.866   3.486   4.389  1.5283 -0.0419  0.1433
  819THF    H1312087   4.914   3.622   4.483  1.7351 -0.2204  0.0408
  820THF     O112088   2.304   2.842   1.610 -0.3894 -0.6619  0.2156
  820THF     C212089   2.442   2.866   1.595 -0.1359 -0.1015  0.1194
  820THF     C312090   2.273   2.877   1.742 -0.0016 -0.0695 -0.3388
  820THF     H412091   2.477   2.856   1.493  0.8201  3.6937 -0.0912
  820THF     H512092   2.505   2.802   1.657  1.5291  0.3115 -1.0779
  820THF     H612093   2.166   2.890   1.759  0.4349  1.5288  1.6713
  820THF     H712094   2.297   2.810   1.825 -4.3678  0.5971  1.7364
  820THF     C812095   2.353   2.999   1.762 -0.1970  0.4862 -0.1917
  820THF     C912096   2.453   3.005   1.644  0.9151 -0.5941 -0.6576
  820THF    H1012097   2.401   3.003   1.860  0.2237 -0.9328 -0.3274
  820THF    H1112098   2.298   3.093   1.751  0.1760  0.7798  0.3630
  820THF    H1212099   2.421   3.064   1.558  1.6896 -0.9480 -1.2033
  820THF    H1312100   2.557   3.032   1.665  0.4402 -0.5036  1.8774
  821THF     O112101   0.949   4.087   0.393  0.3352 -0.0263 -0.1849
  821THF     C212102   1.041   4.041   0.301  0.4575 -0.2204  0.6908
  821THF     C312103   0.927   3.971   0.482  0.4387 -0.2391  0.7477
  821THF     H412104   1.144   4.039   0.335  1.7096  0.2977 -2.6933
  821THF     H512105   1.042   4.100   0.209 -0.3651 -0.0654  0.7694
  821THF     H612106   1.020   3.957   0.539  0.9229 -1.0813 -0.2074
  821THF     H712107   0.841   3.984   0.547  0.0265  3.9143 -0.3956
  821THF     C812108   0.910   3.854   0.377 -0.4676  0.2614  0.2844
  821THF     C912109   1.008   3.892   0.265 -0.3855 -0.8334  0.0135
  821THF    H1012110   0.810   3.829   0.343  0.0415 -0.6259 -0.6104
  821THF    H1112111   0.951   3.761   0.416 -0.5692  0.9453  2.1349
  821THF    H1212112   1.099   3.833   0.265 -0.2891 -0.7125  1.2670
  821THF    H1312113   0.975   3.895   0.162  0.6971 -1.2378 -0.3559
  822THF     O112114   2.529   4.551   4.215 -0.1513  0.0966 -0.1353
  822THF     C212115   2.663   4.583   4.176  0.0248 -0.5243  0.5510
  822THF     C312116   2.453   4.663   4.202  0.1866  0.1502 -0.0396
  822THF     H412117   2.721   4.497   4.142  1.2446  0.8578 -1.0046
  822THF     H512118   2.703   4.630   4.266 -0.5431 -0.0007  0.5380
  822THF     H612119   2.348   4.636   4.195  0.6567 -1.5573 -1.0394
  822THF     H712120   2.458   4.726   4.290 -0.1851  0.5008 -0.2638
  822THF     C812121   2.501   4.733   4.069  0.7474 -0.3036 -0.2717
  822THF     C912122   2.649   4.693   4.063  0.1794 -0.1002  0.3215
  822THF    H1012123   2.513   4.841   4.073  2.7252 -0.4719 -0.5856
  822THF    H1112124   2.438   4.703   3.985  1.7795 -1.6382 -0.6027
  822THF    H1212125   2.678   4.648   3.968  0.3795 -2.3021  1.3775
  822THF    H1312126   2.712   4.782   4.070  1.0523 -0.6717 -0.0894
  823THF     O112127   2.390   0.057   1.740 -0.0976  0.0683  0.0060
  823THF     C212128   2.503  -0.023   1.709  0.1264 -0.0002  1.0244
  823THF     C312129   2.391   0.180   1.665 -0.3363  0.0985  0.1145
  823THF     H412130   2.488  -0.078   1.616  0.4732 -1.1524  1.6273
  823THF     H512131   2.523  -0.097   1.786 -1.8424 -0.4974  1.1105
  823THF     H612132   2.349   0.151   1.569  0.8494 -2.4755  0.2880
  823THF     H712133   2.334   0.260   1.711 -1.7906 -0.4000 -0.7529
  823THF     C812134   2.542   0.213   1.641 -0.1402  0.0192 -0.6094
  823THF     C912135   2.604   0.086   1.707  0.4107 -0.5596 -0.0630
  823THF    H1012136   2.571   0.300   1.699  1.3937 -0.4092 -0.6610
  823THF    H1112137   2.566   0.217   1.534 -0.6310 -0.2389 -0.7323
  823THF    H1212138   2.694   0.040   1.666 -0.5099 -0.5316 -2.2112
  823THF    H1312139   2.628   0.107   1.812 -0.9556  0.4439  0.0858
  824THF     O112140   2.036   4.178   5.415  0.0415 -0.3507  0.5146
  824THF     C212141   1.957   4.264   5.328  0.2549  0.3111  0.2146
  824THF     C312142   2.045   4.245   5.534 -0.5270  0.7094 -0.5220
  824THF     H412143   1.860   4.247   5.375  0.1793 -2.3126 -0.7224
  824THF     H512144   1.961   4.237   5.222  1.0821  2.3441 -0.3163
  824THF     H612145   1.952   4.238   5.591 -0.0916  0.1925  0.1383
  824THF     H712146   2.121   4.205   5.601 -1.3625 -0.0167  0.0237
  824THF     C812147   2.080   4.387   5.487  0.3549 -0.1957 -0.3145
  824THF     C912148   2.005   4.403   5.359  0.0685  0.4012  0.0606
  824THF    H1012149   2.184   4.372   5.459  0.8838  1.0393  0.8686
  824THF    H1112150   2.066   4.455   5.571 -0.9406  0.4207 -1.0006
  824THF    H1212151   1.919   4.468   5.377 -1.3937 -0.9874 -1.5432
  824THF    H1312152   2.063   4.444   5.276  2.6236 -1.0616  1.0086
  825THF     O112153   0.126   4.558   0.798 -0.6427  0.3105 -0.1291
  825THF     C212154   0.073   4.631   0.905  0.1332  0.1682  0.2239
  825THF     C312155   0.217   4.454   0.840 -0.1798  0.8291 -0.2785
  825THF     H412156  -0.035   4.617   0.895  0.3745 -1.7315 -0.1161
  825THF     H512157   0.096   4.737   0.895  1.8526 -0.3514 -1.9101
  825THF     H612158   0.213   4.369   0.772 -1.5370  1.0950 -0.5667
  825THF     H712159   0.319   4.493   0.836 -0.0002  0.3846 -0.0532
  825THF     C812160   0.170   4.431   0.981 -0.8973  0.1561 -0.1216
  825THF     C912161   0.134   4.565   1.034  0.5933  0.3936 -0.3206
  825THF    H1012162   0.250   4.381   1.036 -1.8495 -2.1969 -0.7398
  825THF    H1112163   0.086   4.361   0.982  0.7679 -1.9867 -1.5043
  825THF    H1212164   0.063   4.563   1.116 -0.3214  0.1889 -1.0983
  825THF    H1312165   0.221   4.626   1.060  2.8704 -1.7898 -2.2468
  826THF     O112166   1.157   2.425   4.062 -0.1278  0.2846  0.3143
  826THF     C212167   1.153   2.323   3.961  0.5101  0.0537  0.0325
  826THF     C312168   1.176   2.361   4.185 -0.6405 -0.4419  0.1234
  826THF     H412169   1.221   2.336   3.876  1.7280  1.1162  1.1214
  826THF     H512170   1.051   2.308   3.927  0.9082  0.8748 -1.6321
  826THF     H612171   1.220   2.422   4.264  0.2500  1.1043 -1.5084
  826THF     H712172   1.079   2.324   4.219 -1.4580  0.4085 -1.1773
  826THF     C812173   1.258   2.242   4.155 -0.5512  0.7471  0.4950
  826THF     C912174   1.198   2.189   4.022  0.4906  0.5272 -0.0698
  826THF    H1012175   1.255   2.167   4.234 -0.5576  1.2672  0.9987
  826THF    H1112176   1.359   2.278   4.141 -0.5108  0.5301  0.2318
  826THF    H1212177   1.274   2.137   3.963  1.3981  1.9404 -0.1852
  826THF    H1312178   1.111   2.125   4.038 -1.6121  3.4092  0.7994
  827THF     O112179   1.432   3.112   0.276 -0.4311  0.1960  0.3920
  827THF     C212180   1.562   3.110   0.228  0.0257  0.2803 -0.2984
  827THF     C312181   1.362   2.997   0.243  0.0372 -0.1224  0.5819
  827THF     H412182   1.613   3.037   0.292  0.1800 -2.0480 -2.8921
  827THF     H512183   1.610   3.206   0.210  3.2036 -1.4777 -2.1869
  827THF     H612184   1.364   2.914   0.314  1.0927 -1.1568 -0.5917
  827THF     H712185   1.258   3.028   0.229  0.1020 -0.3193 -0.4257
  827THF     C812186   1.424   2.939   0.110 -0.1163  0.0196 -0.2182
  827THF     C912187   1.527   3.056   0.085  0.5786 -0.0619  0.5768
  827THF    H1012188   1.375   2.911   0.017  1.7898  0.4203 -1.3899
  827THF    H1112189   1.480   2.851   0.140  0.0209  1.0416  2.9037
  827THF    H1212190   1.614   3.025   0.027  0.2482 -1.2034  0.6660
  827THF    H1312191   1.476   3.132   0.027  2.1704  1.5626  1.2079
  828THF     O112192   3.916   2.055   4.886 -0.2371 -0.3277 -0.4965
  828THF     C212193   4.033   1.990   4.937 -0.4073  0.0245 -0.2435
  828THF     C312194   3.929   2.052   4.746  0.2283  0.5907 -0.5551
  828THF     H412195   4.032   1.966   5.043 -1.1512 -0.5380 -0.3660
  828THF     H512196   4.118   2.057   4.922 -0.3023 -0.0495  0.0205
  828THF     H612197   3.834   2.085   4.705 -0.6106  2.3005  2.4181
  828THF     H712198   4.007   2.123   4.716 -0.0494  1.8246  1.4475
  828THF     C812199   3.982   1.906   4.720 -0.7179  0.5551  0.0798
  828THF     C912200   4.045   1.864   4.855 -0.3225 -0.3666 -0.0447
  828THF    H1012201   4.057   1.924   4.643 -0.5391  1.2587  0.4167
  828THF    H1112202   3.909   1.833   4.684  2.6579 -3.1144 -0.0739
  828THF    H1212203   3.987   1.782   4.897 -0.3175  0.7240  2.2170
  828THF    H1312204   4.146   1.832   4.831 -0.1887  0.5158 -0.7240
  829THF     O112205   4.873   2.203   2.959  0.8769  0.3491  0.6610
  829THF     C212206   5.011   2.194   2.967  0.5818  0.0760 -0.2676
  829THF     C312207   4.822   2.079   2.994 -0.4665  0.4905  0.8585
  829THF     H412208   5.056   2.293   2.960  1.5332 -0.2835  0.5219
  829THF     H512209   5.043   2.139   2.878 -0.9287 -2.6911  0.7711
  829THF     H612210   4.714   2.082   3.011 -0.2482  0.9428  2.2734
  829THF     H712211   4.837   2.008   2.912  0.0465  2.2810 -0.6505
  829THF     C812212   4.915   2.030   3.111 -0.0275 -0.1420 -0.3137
  829THF     C912213   5.035   2.112   3.095 -0.7889 -0.0210 -0.4293
  829THF    H1012214   4.945   1.926   3.104  0.9308  0.0302  1.0338
  829THF    H1112215   4.874   2.046   3.211  0.4971  0.9486 -0.2594
  829THF    H1212216   5.041   2.189   3.172  0.2123 -1.3159  0.8324
  829THF    H1312217   5.128   2.056   3.086 -1.1740 -0.4787 -1.6871
  830THF     O112218   2.574   2.884   5.014 -0.3143 -0.0262 -0.2380
  830THF     C212219   2.612   2.761   5.074  0.2809  0.5527 -0.1495
  830THF     C312220   2.665   2.907   4.910  0.0397  0.6248 -0.2179
  830THF     H412221   2.532   2.722   5.137  0.6490 -1.3578 -0.8039
  830THF     H512222   2.709   2.766   5.122  1.1842 -1.1052 -1.6951
  830THF     H612223   2.644   2.998   4.855  2.2741  1.3588  0.0435
  830THF     H712224   2.765   2.919   4.952  0.0930 -1.3452  0.3176
  830THF     C812225   2.639   2.774   4.836  0.1306  0.4667 -0.4278
  830THF     C912226   2.644   2.676   4.954  0.2091 -0.1174  0.1189
  830THF    H1012227   2.714   2.765   4.757  0.1552 -1.0317 -0.2463
  830THF    H1112228   2.538   2.776   4.795 -0.1063 -0.7263  0.0615
  830THF    H1212229   2.577   2.591   4.947  0.1417 -0.1324  0.8877
  830THF    H1312230   2.749   2.646   4.960  0.8816  2.1746  1.3103
  831THF     O112231   5.453   4.828   1.078  0.3671  0.8306 -0.4552
  831THF     C212232   5.319   4.818   1.135  0.8825  0.2120  0.1591
  831THF     C312233   5.510   4.935   1.141 -0.2525 -0.3498 -0.8922
  831THF     H412234   5.311   4.789   1.239 -0.5105  0.4575  0.1487
  831THF     H512235   5.253   4.748   1.083 -0.2066  1.4897 -0.2352
  831THF     H612236   5.535   4.927   1.247 -0.7628 -0.8128 -0.8031
  831THF     H712237   5.602   4.956   1.088 -1.3851 -1.2075 -3.3715
  831THF     C812238   5.405   5.045   1.134 -0.3462  0.5630 -0.1730
  831THF     C912239   5.274   4.966   1.127 -0.6442 -0.2262  0.5255
  831THF    H1012240   5.423   5.107   1.046 -0.9379 -0.2362 -0.8637
  831THF    H1112241   5.405   5.113   1.219 -3.4760  4.1356 -2.7008
  831THF    H1212242   5.206   4.998   1.206 -0.9124  3.5155 -1.0020
  831THF    H1312243   5.217   4.984   1.035  0.0952  0.9563  0.2776
  832THF     O112244   1.233   4.725   4.644 -0.1704  0.7415 -0.3756
  832THF     C212245   1.098   4.684   4.650 -0.0142  0.4376  0.4637
  832THF     C312246   1.241   4.832   4.739  0.6587  0.0802 -0.1299
  832THF     H412247   1.071   4.600   4.587  0.1233  0.5370  0.2718
  832THF     H512248   1.031   4.757   4.606  1.0577 -1.1906 -4.4905
  832THF     H612249   1.343   4.839   4.778  1.2241 -3.2374 -0.6581
  832THF     H712250   1.212   4.927   4.695  0.8671  0.6237  0.8746
  832THF     C812251   1.161   4.776   4.863 -0.6601 -0.1965  0.6493
  832THF     C912252   1.071   4.667   4.800 -0.6162 -0.4627 -0.0250
  832THF    H1012253   1.106   4.854   4.916  1.5251  0.4951  2.0467
  832THF    H1112254   1.236   4.729   4.927 -1.7874 -3.1702 -0.0493
  832THF    H1212255   1.125   4.575   4.825  2.2528  1.2897  0.6000
  832THF    H1312256   0.967   4.652   4.828 -0.2993 -2.3757  0.2829
  833THF     O112257   3.983   3.716   4.962 -0.0067  0.0263  0.3819
  833THF     C212258   4.037   3.726   5.096 -0.4010  0.2487 -0.1032
  833THF     C312259   3.838   3.716   4.972 -0.0917  1.1250 -0.0412
  833THF     H412260   4.061   3.829   5.122 -3.0150  0.5633  1.4749
  833THF     H512261   4.131   3.674   5.113 -1.1430 -0.6858  1.4298
  833THF     H612262   3.792   3.797   4.917  1.4818  2.1494  0.0950
  833THF     H712263   3.801   3.622   4.931  0.6543 -0.0581  1.8409
  833THF     C812264   3.802   3.714   5.127 -0.2086 -0.4593 -0.6957
  833THF     C912265   3.934   3.659   5.183  0.2003 -0.5885  0.2818
  833THF    H1012266   3.716   3.652   5.154  2.1444 -3.2016  1.0614
  833THF    H1112267   3.782   3.816   5.160  2.9144 -0.3071  1.1144
  833THF    H1212268   3.944   3.690   5.287  1.6207  1.1414 -0.3169
  833THF    H1312269   3.949   3.551   5.176 -1.6719 -0.7988 -1.3852
  834THF     O112270   5.055   4.490   0.044 -0.3211 -0.1315 -0.7835
  834THF     C212271   5.040   4.581   0.160  0.2556 -0.8225  0.1670
  834THF     C312272   5.191   4.496   0.006  0.2640  0.1455 -0.3182
  834THF     H412273   4.980   4.526   0.232 -1.7874  0.5008 -0.4124
  834THF     H512274   4.976   4.665   0.132 -0.3436 -1.3343 -0.0135
  834THF     H612275   5.214   4.400  -0.040 -0.1707  0.5934 -1.5393
  834THF     H712276   5.197   4.578  -0.067 -0.8559  0.0624 -0.5297
  834THF     C812277   5.261   4.527   0.139 -0.6206  0.3864  0.0704
  834THF     C912278   5.176   4.629   0.213 -0.3318 -0.2168  0.4725
  834THF    H1012279   5.366   4.552   0.123 -0.2702 -1.4958 -0.8711
  834THF    H1112280   5.262   4.431   0.190 -1.6060 -0.4701 -1.4593
  834THF    H1212281   5.185   4.628   0.322  0.2822  0.9414  0.4491
  834THF    H1312282   5.211   4.727   0.182  0.9954 -0.3969  1.2923
  835THF     O112283   1.422   0.898   1.769  0.0358 -0.0213  0.3754
  835THF     C212284   1.531   0.840   1.703  0.2690  0.0823 -0.2357
  835THF     C312285   1.309   0.812   1.770 -0.1702  0.0141 -0.1565
  835THF     H412286   1.628   0.870   1.741  0.6137  0.3015 -1.2578
  835THF     H512287   1.521   0.839   1.594  0.7483 -0.6121 -0.2792
  835THF     H612288   1.287   0.780   1.872 -0.5909 -0.8365 -0.4989
  835THF     H712289   1.216   0.858   1.734  0.3348  0.6876 -0.6279
  835THF     C812290   1.358   0.686   1.709  0.4692  0.2222 -0.1434
  835THF     C912291   1.503   0.695   1.737 -0.2524  0.4499 -0.1954
  835THF    H1012292   1.339   0.696   1.602 -0.6396  2.9846  0.2217
  835THF    H1112293   1.317   0.597   1.755  3.3316 -0.9051  0.4407
  835THF    H1212294   1.532   0.691   1.842 -1.0323  1.2423  0.0545
  835THF    H1312295   1.565   0.622   1.685 -3.0831 -2.0462 -0.3733
  836THF     O112296   4.866   2.238   1.492  0.0222 -0.0484  0.0631
  836THF     C212297   4.735   2.289   1.480 -0.4638 -0.2097  0.1753
  836THF     C312298   4.905   2.181   1.361  0.0589 -0.0853 -1.1800
  836THF     H412299   4.724   2.362   1.560  0.2043 -1.2937  1.2754
  836THF     H512300   4.657   2.216   1.501 -1.4144  0.9907  0.9248
  836THF     H612301   5.012   2.180   1.343  0.1181  0.2695 -0.8542
  836THF     H712302   4.868   2.079   1.345 -1.7053  0.6776 -2.1653
  836THF     C812303   4.857   2.292   1.277  0.4715 -0.0431  0.3853
  836THF     C912304   4.723   2.335   1.335 -0.0825 -0.4338  0.5947
  836THF    H1012305   4.855   2.265   1.171  1.6839 -2.0182  0.8186
  836THF    H1112306   4.929   2.374   1.285  2.0271 -1.4175  1.0240
  836THF    H1212307   4.696   2.440   1.326  0.8477 -0.1769  0.7025
  836THF    H1312308   4.651   2.268   1.286  0.6525  0.6758 -2.1814
  837THF     O112309   5.439   5.124   0.299  0.2605 -0.1755  0.4954
  837THF     C212310   5.329   5.037   0.287 -0.5593 -0.6212 -0.0093
  837THF     C312311   5.395   5.248   0.245  0.1174  0.5736  0.6129
  837THF     H412312   5.345   4.954   0.355  0.6764 -2.4379 -2.3558
  837THF     H512313   5.315   5.006   0.183 -1.5122  2.0152 -0.7567
  837THF     H612314   5.455   5.338   0.258 -1.2665  1.6278 -0.1019
  837THF     H712315   5.409   5.242   0.137  2.7401 -0.9742  0.9658
  837THF     C812316   5.248   5.262   0.287  0.5635 -0.0170 -0.0746
  837THF     C912317   5.208   5.119   0.324  0.9152 -0.2721 -0.2344
  837THF    H1012318   5.179   5.304   0.214  1.0088  0.1989 -0.3704
  837THF    H1112319   5.225   5.317   0.379  1.0407 -1.8789  1.2156
  837THF    H1212320   5.184   5.104   0.430 -0.1116  0.7806 -0.3030
  837THF    H1312321   5.127   5.071   0.269  1.6648 -1.6901 -0.1648
  838THF     O112322   2.917   4.098   3.764 -0.2526 -0.3261  0.0709
  838THF     C212323   2.962   4.233   3.744 -0.2693  0.0861 -0.2787
  838THF     C312324   2.872   4.056   3.635 -0.2712  0.6398  0.2827
  838THF     H412325   3.031   4.266   3.822  1.9087 -0.9170 -1.6815
  838THF     H512326   2.875   4.299   3.741  0.6684  1.3430 -0.6911
  838THF     H612327   2.848   3.949   3.634 -1.8409  0.9769 -0.4187
  838THF     H712328   2.791   4.112   3.589 -0.5876 -0.9858 -1.2703
  838THF     C812329   2.999   4.097   3.553  0.6815 -0.0535  0.5050
  838THF     C912330   3.044   4.224   3.614  0.1931  0.7442  0.7301
  838THF    H1012331   2.996   4.112   3.445  0.5261  1.5754  0.7218
  838THF    H1112332   3.079   4.026   3.571  0.0893  0.0825  4.6667
  838THF    H1212333   3.150   4.222   3.638  0.5611 -1.6994 -0.7483
  838THF    H1312334   3.033   4.303   3.540  2.5797  0.0739 -0.4534
  839THF     O112335   4.828   3.663   3.198 -0.0906  0.1088  0.6904
  839THF     C212336   4.739   3.696   3.099 -0.3188 -1.2110 -0.0561
  839THF     C312337   4.830   3.527   3.220 -0.4388  1.1752 -0.1066
  839THF     H412338   4.773   3.784   3.043 -1.6021  0.3379  1.4918
  839THF     H512339   4.653   3.739   3.149 -1.3641 -0.0762 -2.6078
  839THF     H612340   4.929   3.501   3.257 -1.4044 -1.9377  0.5823
  839THF     H712341   4.758   3.486   3.291 -1.0404 -1.4898 -2.0841
  839THF     C812342   4.796   3.469   3.086 -0.4730 -0.1993 -0.7155
  839THF     C912343   4.712   3.581   3.019  0.0746  0.2152  0.6770
  839THF    H1012344   4.745   3.374   3.097 -0.5724  0.1381  3.0613
  839THF    H1112345   4.895   3.457   3.041  0.4924 -0.7167  1.4204
  839THF    H1212346   4.749   3.581   2.917  1.0973 -0.6529  1.0322
  839THF    H1312347   4.605   3.560   3.025 -0.1425  0.9597 -0.2605
  840THF     O112348   1.240   0.559   0.754  0.0864 -0.9423 -0.8417
  840THF     C212349   1.285   0.435   0.806  0.0568  0.0166  0.0441
  840THF     C312350   1.351   0.622   0.695 -0.6733  0.2246  0.2989
  840THF     H412351   1.297   0.370   0.719 -2.7792 -0.1763 -0.2762
  840THF     H512352   1.212   0.379   0.864 -2.0358  0.2264 -2.2483
  840THF     H612353   1.389   0.570   0.607  0.5338 -1.3339  1.6679
  840THF     H712354   1.337   0.727   0.668  0.3876  0.1942 -0.4193
  840THF     C812355   1.459   0.598   0.802 -0.1103  0.0874 -0.4464
  840THF     C912356   1.420   0.465   0.865 -0.0555 -0.4437 -0.3802
  840THF    H1012357   1.453   0.678   0.875 -1.6527 -2.2803  2.2547
  840THF    H1112358   1.561   0.583   0.768  0.3666  1.0408  0.5257
  840THF    H1212359   1.498   0.397   0.830  2.5737  2.4463 -0.6117
  840THF    H1312360   1.423   0.475   0.974 -0.4132 -0.0531 -0.4058
  841THF     O112361   0.725   1.961   3.878  0.0243 -0.2662  0.3848
  841THF     C212362   0.836   1.884   3.830 -0.3174 -0.5036 -0.2762
  841THF     C312363   0.617   1.909   3.803  0.8543 -0.0155 -0.0984
  841THF     H412364   0.920   1.888   3.899 -1.1943  1.7975  0.7800
  841THF     H512365   0.857   1.940   3.739 -0.5900 -1.3510 -0.8721
  841THF     H612366   0.523   1.931   3.854  1.2037  1.5533 -0.0677
  841THF     H712367   0.609   1.959   3.707  2.2102 -1.5528 -1.0664
  841THF     C812368   0.638   1.760   3.772 -0.4887 -0.1225  0.2552
  841THF     C912369   0.780   1.744   3.807 -0.0655  0.2151  0.3724
  841THF    H1012370   0.616   1.733   3.668 -0.3472 -2.0958  0.7001
  841THF    H1112371   0.566   1.703   3.830 -2.5850  1.8839 -0.2359
  841THF    H1212372   0.807   1.679   3.891  0.7658 -1.1042 -0.8681
  841THF    H1312373   0.831   1.696   3.724 -0.6278 -0.7995  0.6043
  842THF     O112374   3.929   0.338   4.026  0.3811  0.2655 -0.5746
  842THF     C212375   3.892   0.445   3.947 -0.3577 -0.5109  0.1106
  842THF     C312376   3.815   0.295   4.091  0.3970  0.0790 -0.5038
  842THF     H412377   3.965   0.456   3.866 -1.2223  0.7600 -0.5383
  842THF     H512378   3.877   0.532   4.011  2.2951  0.2127 -0.1356
  842THF     H612379   3.823   0.187   4.096 -0.9554 -0.0352 -0.2540
  842THF     H712380   3.784   0.329   4.190 -0.9781  1.8134 -1.4685
  842THF     C812381   3.693   0.340   4.014  0.3822  0.6572 -1.0285
  842THF     C912382   3.758   0.394   3.893 -0.8158 -0.1168 -0.1493
  842THF    H1012383   3.649   0.414   4.082 -0.1772 -0.3933 -0.2063
  842THF    H1112384   3.623   0.258   4.003  1.7579 -0.6600 -0.3155
  842THF    H1212385   3.779   0.312   3.824  0.2412  0.7176 -0.8495
  842THF    H1312386   3.713   0.477   3.839 -0.2669  1.6150  1.9178
  843THF     O112387   0.058   2.027   1.944  0.0581 -0.0558 -0.4741
  843THF     C212388   0.159   1.938   1.892  0.2781  0.3132 -0.8679
  843THF     C312389  -0.029   2.061   1.836 -0.0423  0.6464  0.2426
  843THF     H412390   0.132   1.839   1.853  3.3370 -0.3625 -1.4682
  843THF     H512391   0.239   1.923   1.965 -1.0236 -2.3130  0.1896
  843THF     H612392  -0.103   1.981   1.827  0.6808 -0.1064  0.8446
  843THF     H712393  -0.060   2.165   1.848  2.3081  1.6590 -1.5582
  843THF     C812394   0.064   2.050   1.712 -0.2123  0.2295  0.3032
  843THF     C912395   0.201   2.019   1.775 -0.4436  0.1990  0.7357
  843THF    H1012396   0.078   2.120   1.631  0.5639 -0.6375 -0.3361
  843THF    H1112397   0.027   1.961   1.661 -1.7611  0.9351  0.1578
  843THF    H1212398   0.265   1.974   1.699 -0.2095  2.6090 -0.5809
  843THF    H1312399   0.260   2.104   1.809 -1.8279  1.6176 -0.2995
  844THF     O112400   3.036   0.535   3.218 -0.2949  0.3202 -0.1487
  844THF     C212401   3.081   0.502   3.357  0.1373 -0.0479  0.7410
  844THF     C312402   2.966   0.424   3.164  0.9054 -0.1389 -0.2480
  844THF     H412403   3.016   0.557   3.425  0.6214 -1.6727  2.5914
  844THF     H512404   3.181   0.541   3.374  0.4311 -0.6044  0.3282
  844THF     H612405   2.859   0.442   3.173  0.7991 -0.8113 -0.1249
  844THF     H712406   2.993   0.423   3.058  4.6139 -0.8813  0.5795
  844THF     C812407   3.013   0.309   3.241  0.5795  0.1899 -0.4384
  844THF     C912408   3.081   0.350   3.368 -0.0789  0.6396 -0.0574
  844THF    H1012409   3.074   0.243   3.179 -0.1198 -0.0991 -0.8308
  844THF    H1112410   2.929   0.243   3.257  1.1015 -0.7623 -1.4553
  844THF    H1212411   3.012   0.320   3.447  1.1770 -0.8074  0.5256
  844THF    H1312412   3.177   0.303   3.390 -1.0879 -1.2101  0.5883
  845THF     O112413   4.246   0.858   5.413  0.4817  0.3326  0.0452
  845THF     C212414   4.280   0.766   5.515 -0.3434  0.7896  0.2974
  845THF     C312415   4.324   0.831   5.299  0.1302 -0.0705 -0.0841
  845THF     H412416   4.206   0.765   5.594 -1.3479 -2.2118 -0.5322
  845THF     H512417   4.377   0.782   5.563  0.3755 -0.4027 -0.6615
  845THF     H612418   4.281   0.874   5.209 -0.0345  2.3269  1.0492
  845THF     H712419   4.420   0.881   5.314 -0.6540  1.7585 -0.8868
  845THF     C812420   4.328   0.676   5.291  0.5187 -0.0272 -1.2142
  845THF     C912421   4.289   0.639   5.431  0.2152 -0.7748 -0.0969
  845THF    H1012422   4.430   0.643   5.270  0.5134 -1.0627  0.2223
  845THF    H1112423   4.257   0.640   5.216  0.2610 -1.3387 -0.3648
  845THF    H1212424   4.189   0.599   5.417 -0.5375  0.3101  1.6741
  845THF    H1312425   4.352   0.558   5.466  0.1088  0.0048  2.0610
  846THF     O112426   1.771   3.010   0.764  0.0194  0.4844  0.0936
  846THF     C212427   1.902   3.039   0.729 -0.5596  0.5333  0.9489
  846THF     C312428   1.760   3.068   0.889 -0.1809  0.2222 -0.2176
  846THF     H412429   1.928   3.017   0.625 -0.9489 -3.1738  1.5033
  846THF     H512430   1.977   2.976   0.776 -1.2569 -2.8171 -1.8916
  846THF     H612431   1.657   3.058   0.924 -0.6481  0.4643 -1.4638
  846THF     H712432   1.832   3.033   0.963  1.3053  0.2795 -1.5707
  846THF     C812433   1.801   3.212   0.845 -0.1865 -0.3250 -0.6466
  846THF     C912434   1.914   3.183   0.744 -0.1732 -0.5995  0.5835
  846THF    H1012435   1.838   3.284   0.919  1.3216 -0.8451 -0.8519
  846THF    H1112436   1.710   3.257   0.806 -2.1285 -1.9390  1.7453
  846THF    H1212437   1.901   3.242   0.653 -0.9001 -0.8986  0.4822
  846THF    H1312438   2.010   3.212   0.787 -1.0093  2.2208  0.7542
  847THF     O112439   3.326   2.057   5.501 -0.3175 -0.3250 -0.5498
  847THF     C212440   3.367   1.931   5.554 -0.0346  0.2247 -0.2253
  847THF     C312441   3.432   2.151   5.516  0.6306  0.1393  0.6726
  847THF     H412442   3.419   1.876   5.476  1.2033  0.3297  0.4950
  847THF     H512443   3.277   1.874   5.579 -0.0595  0.0087 -0.8008
  847THF     H612444   3.501   2.135   5.434  1.1684  0.1032  1.1245
  847THF     H712445   3.398   2.255   5.514 -0.3902 -0.1131 -3.3929
  847THF     C812446   3.478   2.115   5.664 -0.2857 -0.2445 -0.2659
  847THF     C912447   3.453   1.969   5.677  0.1428 -0.2598 -0.1948
  847THF    H1012448   3.432   2.171   5.746  0.6516 -0.0005  0.0988
  847THF    H1112449   3.584   2.136   5.667 -0.2450 -0.4424 -0.3049
  847THF    H1212450   3.548   1.917   5.668 -0.1231 -0.5320 -1.6131
  847THF    H1312451   3.413   1.953   5.777 -0.8344  0.9665 -0.3659
  848THF     O112452   2.191   2.507   5.487 -0.1563  0.0554 -1.0211
  848THF     C212453   2.218   2.548   5.358  0.0043 -0.0346  0.5741
  848THF     C312454   2.232   2.596   5.591  0.2856  0.1908 -0.1613
  848THF     H412455   2.132   2.532   5.293 -0.7831 -1.6731  1.9260
  848THF     H512456   2.303   2.486   5.330  0.8293  0.3502  2.1115
  848THF     H612457   2.144   2.620   5.650 -0.0486 -0.0772 -0.5424
  848THF     H712458   2.307   2.547   5.652 -0.2406 -0.5671 -0.1035
  848THF     C812459   2.300   2.711   5.519 -0.0888 -0.0060  0.4059
  848THF     C912460   2.247   2.702   5.374  0.7144  0.4515 -0.5394
  848THF    H1012461   2.406   2.689   5.535 -0.0361  0.9265  1.4463
  848THF    H1112462   2.269   2.803   5.568  0.8937  0.8211 -0.4790
  848THF    H1212463   2.152   2.756   5.366 -1.0048 -2.4855 -1.8728
  848THF    H1312464   2.325   2.743   5.310  0.6032 -0.1277 -1.0587
  849THF     O112465   1.876   0.024   0.482  0.2364  0.0235  0.4675
  849THF     C212466   1.886   0.063   0.620  0.3926  0.0178 -0.0285
  849THF     C312467   1.921  -0.107   0.465 -0.7073  0.3314  0.3100
  849THF     H412468   1.785   0.052   0.659  0.7974 -5.0074  0.2760
  849THF     H512469   1.914   0.169   0.620 -0.6101  0.2904 -0.0824
  849THF     H612470   1.843  -0.179   0.490 -0.2462 -0.4010 -0.3099
  849THF     H712471   1.952  -0.127   0.363  0.7737  0.3209  0.7410
  849THF     C812472   2.038  -0.110   0.562  0.1080 -0.7236  0.4275
  849THF     C912473   1.981  -0.036   0.684 -0.2402  0.8691 -0.2103
  849THF    H1012474   2.128  -0.065   0.519  0.0859  0.1226  1.2502
  849THF    H1112475   2.070  -0.212   0.585  1.2094 -0.2228  1.2159
  849THF    H1212476   1.911  -0.105   0.732  0.6045 -1.0944 -1.6538
  849THF    H1312477   2.053   0.002   0.757 -0.0989  1.1861 -0.5139
  850THF     O112478   4.558   1.159   2.358 -0.1241  0.1828 -0.4739
  850THF     C212479   4.591   1.190   2.491 -0.1057  0.6701  0.5415
  850THF     C312480   4.558   1.022   2.350 -0.5292  0.5540 -0.2487
  850THF     H412481   4.545   1.285   2.520  0.6971  1.3310 -0.3042
  850THF     H512482   4.699   1.190   2.504 -0.0553 -2.3680  0.6014
  850THF     H612483   4.512   0.979   2.261  1.7328 -2.7987 -0.0037
  850THF     H712484   4.664   1.006   2.330 -0.3804  0.3982  0.6233
  850THF     C812485   4.494   0.965   2.486  0.0908 -0.3875 -0.3183
  850THF     C912486   4.533   1.077   2.580 -0.7759  0.4001  0.2228
  850THF    H1012487   4.531   0.866   2.512  3.1911  0.6720 -0.3717
  850THF    H1112488   4.387   0.976   2.467 -0.1011 -1.5942  0.0002
  850THF    H1212489   4.455   1.118   2.643 -1.7953 -0.1524 -0.6532
  850THF    H1312490   4.608   1.058   2.657 -1.1348  0.4717  0.5933
  851THF     O112491   3.083   4.346   4.300 -0.5398 -0.3555  0.3877
  851THF     C212492   3.036   4.425   4.408  0.4869  0.8730  0.3245
  851THF     C312493   3.006   4.225   4.300 -0.1893  0.2165  0.2303
  851THF     H412494   2.941   4.477   4.392 -0.3635 -0.3705  1.1453
  851THF     H512495   3.097   4.514   4.427  1.0519  0.6690 -0.4930
  851THF     H612496   2.907   4.230   4.254 -1.1146 -0.7517  2.0087
  851THF     H712497   3.059   4.143   4.252 -1.6739 -0.2624 -0.6583
  851THF     C812498   2.996   4.200   4.448 -1.1502  0.8675 -0.4071
  851THF     C912499   3.020   4.331   4.527 -0.0793  0.1859  0.3049
  851THF    H1012500   3.078   4.137   4.483 -0.4465  1.3764 -1.1376
  851THF    H1112501   2.904   4.146   4.471 -1.0198  0.2215 -1.3408
  851THF    H1212502   2.936   4.350   4.594 -0.0349  0.3867  0.3047
  851THF    H1312503   3.112   4.322   4.586  0.3783 -0.4369 -0.4791
  852THF     O112504   3.231   1.812   2.755 -0.7507 -0.3834 -0.1421
  852THF     C212505   3.299   1.945   2.767  1.2211  0.8849 -0.3696
  852THF     C312506   3.096   1.844   2.727 -0.0931 -0.1805 -0.3026
  852THF     H412507   3.407   1.934   2.760  1.2259  0.2713  0.4752
  852THF     H512508   3.272   1.986   2.864 -0.7851  0.3176 -0.6430
  852THF     H612509   3.048   1.754   2.690  0.7557 -0.8872  0.3006
  852THF     H712510   3.048   1.883   2.817 -0.6673 -0.1562 -0.6126
  852THF     C812511   3.103   1.953   2.619  0.0258  0.3316  0.3411
  852THF     C912512   3.228   2.030   2.665  0.4337  0.7654  0.3675
  852THF    H1012513   3.007   2.005   2.620 -0.6454 -0.6651 -2.5027
  852THF    H1112514   3.111   1.915   2.517  0.2200 -1.7008  1.0655
  852THF    H1212515   3.292   2.039   2.578  0.9471 -0.1373  0.6336
  852THF    H1312516   3.205   2.130   2.700  0.9957  1.2559 -0.6248
  853THF     O112517   2.068   2.320   2.435 -0.0253  0.0940 -0.5003
  853THF     C212518   1.984   2.208   2.402  0.2864 -0.5633 -0.2505
  853THF     C312519   2.102   2.307   2.575  0.3915 -0.1993 -0.0624
  853THF     H412520   2.023   2.117   2.356  1.7424  0.3751 -0.9421
  853THF     H512521   1.902   2.243   2.340 -1.3778 -1.2127  1.5074
  853THF     H612522   2.157   2.217   2.599  0.1860 -0.1725  0.5072
  853THF     H712523   2.120   2.399   2.630  0.2273  0.8103 -1.6073
  853THF     C812524   1.957   2.279   2.621 -0.1357 -0.0373  0.2801
  853THF     C912525   1.914   2.168   2.527  0.4914  0.2471  0.1371
  853THF    H1012526   1.895   2.368   2.607 -0.5810 -0.6239 -1.8292
  853THF    H1112527   1.956   2.250   2.726  1.4436 -0.4401  0.1975
  853THF    H1212528   1.942   2.066   2.552 -2.6667 -0.9856 -0.8264
  853THF    H1312529   1.805   2.179   2.525  0.4083  1.5960  3.6806
  854THF     O112530   1.078   4.788   1.664 -0.0864  0.3583 -0.3097
  854THF     C212531   1.052   4.660   1.723 -0.3925 -0.5130 -0.4151
  854THF     C312532   1.099   4.776   1.522  0.0105  0.2495 -1.4433
  854THF     H412533   0.953   4.619   1.701 -0.0444 -2.2603  0.9827
  854THF     H512534   1.069   4.662   1.831 -1.4934  0.3027 -0.2407
  854THF     H612535   0.999   4.797   1.482 -0.7702  1.6655  1.0229
  854THF     H712536   1.173   4.850   1.492  0.9037 -1.0900 -2.6662
  854THF     C812537   1.149   4.632   1.503  0.6157 -0.1032  0.0039
  854THF     C912538   1.148   4.572   1.645 -0.4533  0.0097 -0.5788
  854THF    H1012539   1.244   4.612   1.453  1.0393  1.1204  0.2680
  854THF    H1112540   1.077   4.574   1.447  0.4269  0.5642 -0.4451
  854THF    H1212541   1.128   4.464   1.643 -1.0493  0.1022 -2.6072
  854THF    H1312542   1.243   4.596   1.692  0.8192 -1.5071 -2.2120
  855THF     O112543   5.173   3.409   0.021 -0.0466  0.3481  0.4405
  855THF     C212544   5.227   3.462   0.149  0.6558  0.4074 -1.1254
  855THF     C312545   5.240   3.472  -0.087 -0.2090  0.0235  0.3820
  855THF     H412546   5.231   3.386   0.227 -1.1889  0.6904 -0.7135
  855THF     H512547   5.160   3.538   0.188  0.8043  0.1193 -0.2936
  855THF     H612548   5.241   3.411  -0.177 -2.0429 -0.3074  0.5494
  855THF     H712549   5.198   3.572  -0.103 -0.2251 -0.2440 -1.4442
  855THF     C812550   5.375   3.492  -0.027  0.2307  1.0573  0.7740
  855THF     C912551   5.367   3.510   0.123  0.3216 -0.0619 -0.2753
  855THF    H1012552   5.415   3.584  -0.069 -0.1614  0.1539 -1.7510
  855THF    H1112553   5.452   3.420  -0.052  1.6148  2.2915  1.3128
  855THF    H1212554   5.447   3.461   0.180  1.6477  1.3364 -0.8854
  855THF    H1312555   5.370   3.617   0.139  3.1138  0.0116 -0.7678
  856THF     O112556   4.608   1.375   5.239 -0.1305  0.1422 -0.0690
  856THF     C212557   4.724   1.426   5.191 -0.4090 -0.6787  0.1239
  856THF     C312558   4.619   1.327   5.378 -0.3039 -0.5087 -0.5097
  856THF     H412559   4.745   1.524   5.234 -0.1363 -0.5825 -0.2152
  856THF     H512560   4.733   1.408   5.083  0.2298  0.9839 -0.1201
  856THF     H612561   4.572   1.394   5.450 -1.3531 -1.5721 -0.1756
  856THF     H712562   4.584   1.224   5.375 -0.9965 -0.3302  0.7837
  856THF     C812563   4.773   1.327   5.396 -0.4086  0.0334  0.0623
  856THF     C912564   4.826   1.333   5.256 -0.5904  0.4047 -0.7810
  856THF    H1012565   4.809   1.243   5.455 -0.0289 -1.0361 -1.6177
  856THF    H1112566   4.809   1.419   5.443  1.3198  0.5206 -2.0354
  856THF    H1212567   4.930   1.368   5.251 -0.6226  0.6920  0.2279
  856THF    H1312568   4.826   1.234   5.211  1.8014 -1.0661  2.0505
  857THF     O112569   5.296   2.507   3.874 -0.0189 -0.4804  0.2043
  857THF     C212570   5.404   2.507   3.966  0.2443  0.8420  0.0529
  857THF     C312571   5.319   2.410   3.778 -0.5575 -0.5073 -0.2958
  857THF     H412572   5.371   2.426   4.030  0.0612  0.2932 -0.7152
  857THF     H512573   5.409   2.597   4.028 -0.8558 -1.4628  3.7665
  857THF     H612574   5.285   2.306   3.782  0.6944 -1.1666 -3.7053
  857THF     H712575   5.268   2.451   3.691  0.8668 -0.4874 -1.1677
  857THF     C812576   5.472   2.397   3.763  0.4827 -0.4143 -0.0396
  857THF     C912577   5.532   2.469   3.883  0.2589 -0.0278  0.1284
  857THF    H1012578   5.503   2.455   3.676 -0.4404  1.1364  0.6293
  857THF    H1112579   5.506   2.297   3.737 -1.1886 -0.6264 -1.6498
  857THF    H1212580   5.596   2.399   3.938  0.4892 -0.6559 -0.9162
  857THF    H1312581   5.593   2.553   3.852 -0.6695 -0.2101 -2.4187
  858THF     O112582   5.112   3.430   3.572  0.0705 -0.5344  0.2884
  858THF     C212583   4.985   3.371   3.618 -0.0809 -0.2274  0.2545
  858THF     C312584   5.198   3.411   3.685 -1.0308 -0.4233  0.4817
  858THF     H412585   4.921   3.349   3.532 -0.3134  0.1494  0.3299
  858THF     H512586   4.935   3.449   3.676 -1.1104 -1.1046  0.5863
  858THF     H612587   5.302   3.440   3.667 -1.1126 -0.5859 -0.2980
  858THF     H712588   5.160   3.480   3.761  0.2736  3.4860 -2.1061
  858THF     C812589   5.169   3.265   3.731 -0.6887  0.6510  0.0587
  858THF     C912590   5.032   3.239   3.682  0.4136 -1.1453  0.4242
  858THF    H1012591   5.172   3.263   3.840 -1.8413  0.1104  0.0920
  858THF    H1112592   5.234   3.186   3.692 -2.1747 -1.6680  2.0223
  858THF    H1212593   5.039   3.156   3.612 -2.4214  0.7199 -2.3089
  858THF    H1312594   4.964   3.196   3.757 -3.4172  0.1638 -2.0029
  859THF     O112595   3.668   1.103   5.044  0.0424 -0.9480  0.0233
  859THF     C212596   3.592   1.089   4.919 -0.4759 -0.1090 -0.4016
  859THF     C312597   3.579   1.153   5.151 -0.5108  0.6230  0.0035
  859THF     H412598   3.648   1.014   4.862  2.7774  0.8537  1.2823
  859THF     H512599   3.594   1.186   4.869  0.2259 -0.0124 -0.2049
  859THF     H612600   3.591   1.090   5.239  0.8724  0.8816  0.0121
  859THF     H712601   3.609   1.251   5.187 -2.8368  1.7413 -0.8719
  859THF     C812602   3.441   1.133   5.094  0.8192 -0.7176 -0.6164
  859THF     C912603   3.459   1.051   4.970  0.1578  0.0372  0.2769
  859THF    H1012604   3.406   1.228   5.054 -0.2255 -1.3387 -1.2305
  859THF    H1112605   3.370   1.104   5.172  1.4069 -0.6879 -0.0586
  859THF    H1212606   3.467   0.943   4.987  0.4282 -0.1268 -0.8030
  859THF    H1312607   3.386   1.060   4.890  2.1493  0.5417 -1.5825
  860THF     O112608   2.043   0.731   1.348  0.0159 -0.6308  0.5920
  860THF     C212609   2.037   0.760   1.489  0.1146 -0.1441 -0.2543
  860THF     C312610   2.087   0.601   1.329  0.2081  0.7548 -0.0302
  860THF     H412611   1.991   0.857   1.508  2.2120  0.7639  0.4630
  860THF     H512612   2.139   0.773   1.524  0.1021  1.5100 -0.7418
  860THF     H612613   2.079   0.570   1.225  0.0475  0.8773 -0.0549
  860THF     H712614   2.193   0.586   1.351 -0.3790  0.4300  3.0924
  860THF     C812615   1.994   0.534   1.427  0.4819  0.0441 -0.5784
  860THF     C912616   1.971   0.633   1.542  0.1877 -0.1910 -0.4737
  860THF    H1012617   2.026   0.436   1.462 -1.8008 -0.4442  0.3478
  860THF    H1112618   1.903   0.502   1.376  0.7077  1.1391 -1.7174
  860THF    H1212619   1.864   0.649   1.556 -0.2606 -3.9722  1.9574
  860THF    H1312620   2.025   0.618   1.636  0.4779  0.9808 -0.4339
  861THF     O112621   0.284   1.992   2.799  0.3186 -0.2728 -0.2341
  861THF     C212622   0.304   2.013   2.936  0.2309 -0.1310  0.4863
  861THF     C312623   0.375   1.892   2.745 -0.0892 -0.0797 -0.8928
  861THF     H412624   0.242   1.959   3.008  0.9300  0.1611  1.3324
  861THF     H512625   0.301   2.118   2.963  3.1656  0.3735 -0.8173
  861THF     H612626   0.309   1.813   2.708  0.4114  0.1667 -2.3555
  861THF     H712627   0.435   1.906   2.656 -0.3966 -1.4321 -1.3308
  861THF     C812628   0.459   1.847   2.864  0.4520  0.5467  0.1542
  861THF     C912629   0.444   1.966   2.962  0.0393 -0.1871 -0.2814
  861THF    H1012630   0.567   1.839   2.847  0.8100  2.7740  1.0655
  861THF    H1112631   0.417   1.754   2.902  1.5551 -1.0790 -2.3386
  861THF    H1212632   0.455   1.933   3.065 -1.1743  0.7650  0.1804
  861THF    H1312633   0.518   2.045   2.952 -1.0515  1.3844  2.7769
  862THF     O112634   3.065   2.783   4.611 -0.2498  0.3099  0.3164
  862THF     C212635   3.020   2.763   4.750  0.0004  0.2669 -0.8309
  862THF     C312636   3.204   2.741   4.594  0.2080  0.2411 -0.2810
  862THF     H412637   2.946   2.684   4.759  0.3601 -0.0628 -0.7404
  862THF     H512638   2.972   2.851   4.793  0.9127 -0.5120  1.9822
  862THF     H612639   3.207   2.634   4.573  1.2469 -0.1537  1.6569
  862THF     H712640   3.263   2.793   4.519 -0.9829  0.0149 -1.4027
  862THF     C812641   3.259   2.746   4.736 -0.1152  0.4106 -0.4932
  862THF     C912642   3.141   2.736   4.830 -0.8083  0.2388 -0.1696
  862THF    H1012643   3.302   2.846   4.739  1.1738  0.0244 -3.0669
  862THF    H1112644   3.331   2.663   4.739  1.4079  1.6894  0.7428
  862THF    H1212645   3.144   2.633   4.867 -0.1989  0.5170  0.5835
  862THF    H1312646   3.154   2.798   4.918  0.3793 -1.5460  0.9891
  863THF     O112647   0.374   4.980   4.536  0.3567  0.2020  0.6075
  863THF     C212648   0.310   4.914   4.430  0.0865 -0.1266  0.3832
  863THF     C312649   0.309   5.110   4.543 -0.3781  0.8059 -0.4636
  863THF     H412650   0.313   4.806   4.448  1.2169 -0.1362  0.1739
  863THF     H512651   0.348   4.929   4.330 -0.5051  1.8750  0.4250
  863THF     H612652   0.326   5.137   4.647  0.4045 -1.8830  0.1638
  863THF     H712653   0.361   5.175   4.472  0.9805 -0.2627 -0.4929
  863THF     C812654   0.166   5.088   4.493  0.4018  0.2733 -0.2188
  863THF     C912655   0.163   4.951   4.422 -0.5798 -0.3804 -0.1282
  863THF    H1012656   0.137   5.168   4.425 -0.0798  2.2356  2.1664
  863THF    H1112657   0.111   5.087   4.586  0.7481 -0.1564 -0.0136
  863THF    H1212658   0.111   4.877   4.483 -0.6194 -1.2197 -1.1606
  863THF    H1312659   0.128   4.957   4.319  0.2787 -1.8862 -0.5222
  864THF     O112660   3.921   1.126   5.460 -0.7803 -0.2801 -0.3022
  864THF     C212661   3.851   1.231   5.393 -0.3211 -0.1891  0.3911
  864THF     C312662   3.917   1.164   5.594 -0.9466  0.7113  0.1405
  864THF     H412663   3.818   1.186   5.299 -0.0511 -0.0377  0.2224
  864THF     H512664   3.907   1.322   5.372  1.8929 -1.4418  0.4356
  864THF     H612665   3.954   1.084   5.657 -0.1459  2.1585  1.5920
  864THF     H712666   3.978   1.254   5.606 -1.4633  0.9794  0.7879
  864THF     C812667   3.769   1.186   5.613  1.4920 -0.6958 -0.1938
  864THF     C912668   3.731   1.259   5.485 -0.3296  0.6179 -0.1063
  864THF    H1012669   3.731   1.247   5.694 -2.5427 -1.5583 -1.2052
  864THF    H1112670   3.714   1.092   5.615 -1.4281  0.9042  1.9051
  864THF    H1212671   3.634   1.228   5.446 -1.4699  0.2973  2.7029
  864THF    H1312672   3.728   1.368   5.492  0.0933  0.7530 -1.8092
  865THF     O112673   1.370   2.055   0.502 -0.1219  0.0914  0.1990
  865THF     C212674   1.355   1.944   0.592 -0.2725 -0.6006 -0.6158
  865THF     C312675   1.501   2.055   0.446  0.6875 -0.0986  0.2881
  865THF     H412676   1.272   1.880   0.563 -0.7021  0.2832 -1.4033
  865THF     H512677   1.321   1.984   0.687  1.6450  3.6440 -1.4523
  865THF     H612678   1.505   1.992   0.357  1.7563 -2.0782  1.6482
  865THF     H712679   1.536   2.157   0.433  0.1355  0.2255  1.2952
  865THF     C812680   1.584   1.992   0.555 -0.4455  0.2211 -0.7161
  865THF     C912681   1.494   1.875   0.596  0.8487 -0.5906  0.0323
  865THF    H1012682   1.602   2.068   0.631 -0.6495  0.5785 -1.0212
  865THF    H1112683   1.674   1.954   0.507 -0.3227 -0.9575  0.3870
  865THF    H1212684   1.500   1.794   0.524  0.6282 -0.7851  0.2319
  865THF    H1312685   1.519   1.836   0.694 -0.9280 -0.6315  0.4953
  866THF     O112686   5.165   0.392   5.379  0.2809  0.2530 -0.1225
  866THF     C212687   5.251   0.438   5.276  0.2230  0.3975 -0.3189
  866THF     C312688   5.040   0.463   5.359 -0.4269  0.3627  0.0840
  866THF     H412689   5.317   0.362   5.234  0.5824 -0.0750  1.0563
  866THF     H512690   5.313   0.518   5.317 -2.9961  3.3277 -0.7238
  866THF     H612691   4.968   0.414   5.424  2.0024 -1.4421  1.5699
  866THF     H712692   5.047   0.561   5.405  0.1811  0.6268 -0.5464
  866THF     C812693   5.027   0.485   5.210 -0.0413  0.7705  0.6215
  866THF     C912694   5.168   0.486   5.156  1.1389  0.0102 -0.2328
  866THF    H1012695   4.959   0.568   5.191 -0.7340 -0.0586 -0.7344
  866THF    H1112696   4.968   0.398   5.180 -1.8084  1.5484  1.6826
  866THF    H1212697   5.184   0.427   5.066  1.8917  0.0472 -0.1297
  866THF    H1312698   5.195   0.588   5.130  1.1978  0.0490 -0.0282
  867THF     O112699   3.819   3.647   1.359  0.3654  0.1410  0.5216
  867THF     C212700   3.879   3.775   1.346  0.8036 -0.2446  0.3336
  867THF     C312701   3.750   3.599   1.243  0.0606 -0.0903  0.3088
  867THF     H412702   3.977   3.770   1.299  1.4811  2.8818  1.1755
  867THF     H512703   3.898   3.828   1.439  1.1472 -2.0966  1.3576
  867THF     H612704   3.791   3.510   1.197 -1.4187 -1.1184  0.9142
  867THF     H712705   3.650   3.573   1.278  0.1079 -1.5761 -0.6104
  867THF     C812706   3.743   3.728   1.159 -0.0707  0.2215  1.0022
  867THF     C912707   3.779   3.839   1.247 -0.1759 -0.5256 -0.6180
  867THF    H1012708   3.648   3.750   1.110 -0.1683 -1.7411  0.2154
  867THF    H1112709   3.813   3.725   1.074  0.1196  0.7087  1.1387
  867THF    H1212710   3.820   3.921   1.188  0.6769 -1.3117 -1.1445
  867THF    H1312711   3.692   3.878   1.300  0.3587 -2.3463  1.7631
  868THF     O112712   3.476   3.767   2.098 -0.1449 -0.2102  0.4536
  868THF     C212713   3.590   3.840   2.131 -0.0119 -0.0613  0.1785
  868THF     C312714   3.527   3.660   2.017 -0.3682 -0.0759 -0.4857
  868THF     H412715   3.575   3.902   2.220  1.3742  0.0794  0.3426
  868THF     H512716   3.633   3.901   2.052 -0.3237  1.0773  0.8533
  868THF     H612717   3.460   3.576   2.001  0.5762 -1.0340  0.4695
  868THF     H712718   3.556   3.700   1.919 -1.7961  2.1546 -0.0681
  868THF     C812719   3.651   3.620   2.100 -0.1124  0.2731 -0.7074
  868THF     C912720   3.689   3.740   2.180 -0.0970  0.5304 -0.6299
  868THF    H1012721   3.730   3.575   2.040 -0.8169 -0.7175 -0.9107
  868THF    H1112722   3.611   3.549   2.173  0.7313 -1.0710 -1.5021
  868THF    H1212723   3.661   3.719   2.284 -1.0342  0.7555 -0.8245
  868THF    H1312724   3.795   3.763   2.174  0.0212  0.2249  0.1751
  869THF     O112725   0.443   0.634   1.398  0.0944 -0.9710  0.0852
  869THF     C212726   0.336   0.646   1.302 -0.4813 -0.2908  0.0428
  869THF     C312727   0.504   0.763   1.405 -0.3863 -0.5694  0.3129
  869THF     H412728   0.243   0.690   1.339  0.0771 -0.0820  1.2498
  869THF     H512729   0.306   0.561   1.241 -2.8141 -0.4836  1.3107
  869THF     H612730   0.453   0.842   1.460  0.8737 -0.3192  1.1615
  869THF     H712731   0.598   0.766   1.460 -1.5696  3.1650  2.5053
  869THF     C812732   0.519   0.799   1.264 -0.1359 -0.4354  0.4118
  869THF     C912733   0.396   0.744   1.198  1.0984 -0.3846 -0.5988
  869THF    H1012734   0.608   0.763   1.213  0.7347  3.0002 -0.7603
  869THF    H1112735   0.509   0.907   1.255 -1.8624 -0.7186 -1.7058
  869THF    H1212736   0.323   0.821   1.172 -0.8196 -1.9937 -0.2341
  869THF    H1312737   0.421   0.691   1.106  1.4026 -1.0060 -0.1625
  870THF     O112738   1.299   3.859   4.321  0.0658 -0.1836 -0.3305
  870THF     C212739   1.271   3.996   4.311 -0.0997  0.7647 -0.5920
  870THF     C312740   1.262   3.799   4.198 -0.0055 -0.5952  0.1269
  870THF     H412741   1.315   4.065   4.382 -0.6395 -0.2606  0.7701
  870THF     H512742   1.163   4.009   4.326 -0.4240  0.4662 -2.3926
  870THF     H612743   1.320   3.710   4.176  0.5889 -0.0309 -0.6182
  870THF     H712744   1.157   3.772   4.211 -0.2260  0.4659  0.7323
  870THF     C812745   1.250   3.911   4.090 -0.3880 -0.3296  0.5446
  870THF     C912746   1.293   4.032   4.169 -0.0441  0.2680  1.1893
  870THF    H1012747   1.147   3.912   4.052 -0.8298 -1.2226  1.6546
  870THF    H1112748   1.308   3.887   4.001 -1.2019 -1.2751  0.2368
  870THF    H1212749   1.399   4.053   4.155  0.1326 -1.7526 -1.3484
  870THF    H1312750   1.233   4.119   4.144 -0.6145 -0.9489 -2.3225
  871THF     O112751   3.415   2.612   0.100  0.5120  0.0874 -0.3355
  871THF     C212752   3.330   2.727   0.097  0.0866  0.7351  0.1500
  871THF     C312753   3.352   2.523   0.194 -0.1090 -0.6058 -0.3700
  871THF     H412754   3.338   2.768  -0.004 -0.0976 -1.6711 -0.8955
  871THF     H512755   3.362   2.792   0.178  1.5818  0.0133  0.1735
  871THF     H612756   3.380   2.418   0.180  2.9532  0.0191  0.2661
  871THF     H712757   3.381   2.552   0.295  1.7845  1.8489 -1.5187
  871THF     C812758   3.206   2.533   0.179 -0.1203  0.1662 -0.1680
  871THF     C912759   3.188   2.678   0.128  0.0026 -0.2446 -0.3609
  871THF    H1012760   3.150   2.502   0.267 -3.0663  0.6520 -1.7066
  871THF    H1112761   3.182   2.461   0.101 -1.1305  0.0229  0.2488
  871THF    H1212762   3.122   2.675   0.041 -0.3331  2.5473 -0.3160
  871THF    H1312763   3.146   2.751   0.197  0.4052  1.6549 -2.0078
  872THF     O112764   0.643   4.158   4.199 -0.1249  0.3373 -0.2665
  872THF     C212765   0.720   4.061   4.134  0.4308  0.1332 -0.1442
  872THF     C312766   0.729   4.248   4.272  0.2409 -0.2837  0.5457
  872THF     H412767   0.692   4.048   4.030  0.1392  0.2746 -0.0837
  872THF     H512768   0.705   3.964   4.182 -2.0224 -0.2512 -1.5340
  872THF     H612769   0.730   4.339   4.213  0.8638  0.2809  1.3931
  872THF     H712770   0.707   4.271   4.377 -2.1990 -1.6167  0.3932
  872THF     C812771   0.866   4.187   4.266 -0.4213 -0.1309 -0.1409
  872THF     C912772   0.867   4.109   4.137 -0.0116  0.0227 -0.5786
  872THF    H1012773   0.884   4.124   4.353  0.0455  1.4237  0.9418
  872THF    H1112774   0.938   4.267   4.286 -0.7422 -0.1702  1.2546
  872THF    H1212775   0.874   4.178   4.053 -1.6211 -1.2003 -1.7771
  872THF    H1312776   0.949   4.036   4.141  0.0646  0.1403  1.7876
  873THF     O112777   0.674   4.579   1.151  0.0405  0.6374 -0.0741
  873THF     C212778   0.701   4.713   1.176 -0.6824  0.4927 -0.4285
  873THF     C312779   0.559   4.559   1.068 -0.5520 -0.3458 -0.7416
  873THF     H412780   0.803   4.740   1.204 -0.3011 -1.2073 -0.0952
  873THF     H512781   0.638   4.739   1.261  1.1138 -1.8707  1.7762
  873THF     H612782   0.575   4.491   0.984 -0.6032 -2.5589  0.9359
  873THF     H712783   0.468   4.529   1.120  0.0354 -1.5912 -0.3948
  873THF     C812784   0.531   4.701   1.021 -0.2423  0.7155 -0.2829
  873THF     C912785   0.659   4.775   1.054  0.8539  0.4498  0.4316
  873THF    H1012786   0.446   4.739   1.077 -1.5036 -2.9395  0.5942
  873THF    H1112787   0.499   4.694   0.917 -2.5742 -0.8529  0.4572
  873THF    H1212788   0.731   4.766   0.973 -0.6381  4.1316 -1.5266
  873THF    H1312789   0.634   4.880   1.071 -3.5841 -0.4743  0.9029
  874THF     O112790   1.119   2.706   3.456  0.5761  0.1192  0.6111
  874THF     C212791   1.110   2.646   3.326  0.0560 -0.1107  0.5634
  874THF     C312792   1.024   2.808   3.467 -0.2068 -0.1736  0.1208
  874THF     H412793   1.118   2.538   3.336 -1.0456 -0.2150  0.3513
  874THF     H512794   1.195   2.670   3.260 -0.0964  1.3666  0.8740
  874THF     H612795   0.938   2.768   3.522 -1.0413 -0.7659 -1.5487
  874THF     H712796   1.058   2.897   3.521 -0.8111 -0.3204  0.7606
  874THF     C812797   0.982   2.838   3.326 -0.7906  0.7956  0.3525
  874THF     C912798   0.990   2.704   3.255 -0.1822 -0.5032 -0.2529
  874THF    H1012799   1.040   2.919   3.281  0.3087  1.4952  2.8811
  874THF    H1112800   0.878   2.872   3.323 -1.3997 -0.8400  1.5089
  874THF    H1212801   0.903   2.639   3.266  0.7021 -1.7201 -0.1870
  874THF    H1312802   0.998   2.716   3.147  2.3791 -2.0037 -0.2998
  875THF     O112803   1.110   4.263   5.071  0.0687  0.3177 -0.2637
  875THF     C212804   0.984   4.308   5.047  0.1136 -0.2073 -0.3316
  875THF     C312805   1.127   4.274   5.212  0.1730 -0.0459 -0.2716
  875THF     H412806   0.909   4.235   5.079  1.9696 -1.8368  0.5210
  875THF     H512807   0.971   4.329   4.941 -0.5990  0.2800 -0.1581
  875THF     H612808   1.077   4.190   5.260 -2.0703  1.1925 -0.3402
  875THF     H712809   1.233   4.268   5.238  0.3315  1.1333 -0.5955
  875THF     C812810   1.061   4.404   5.253  0.3869 -0.6688 -0.8058
  875THF     C912811   0.978   4.441   5.129 -0.1059 -0.3956 -0.0669
  875THF    H1012812   1.136   4.479   5.276 -0.8165 -0.0117  1.1372
  875THF    H1112813   0.989   4.388   5.332  0.7690 -0.9429 -0.5097
  875THF    H1212814   0.878   4.479   5.151  0.6725  0.8825  1.5021
  875THF    H1312815   1.028   4.515   5.067  1.7630 -2.0902 -0.6796
  876THF     O112816   2.447   4.708   1.259  0.8904 -0.0143  0.0845
  876THF     C212817   2.574   4.723   1.208 -0.4605  0.0226  0.4719
  876THF     C312818   2.367   4.800   1.182  0.8764  0.3587 -0.4440
  876THF     H412819   2.586   4.691   1.104  2.0469  0.5004  0.5590
  876THF     H512820   2.658   4.676   1.259 -0.1487 -1.6452 -1.4518
  876THF     H612821   2.352   4.794   1.074  1.4984 -1.6459 -0.4733
  876THF     H712822   2.270   4.796   1.232  2.0265  1.3005  2.0084
  876THF     C812823   2.438   4.930   1.196  0.3785 -0.3192 -0.7675
  876THF     C912824   2.585   4.874   1.207  0.5858  0.1725  1.3337
  876THF    H1012825   2.416   4.982   1.289  1.1918 -0.0635 -0.7158
  876THF    H1112826   2.423   4.998   1.112 -0.5539 -1.2255 -1.3595
  876THF    H1212827   2.638   4.902   1.116 -1.1685 -1.8270 -0.3917
  876THF    H1312828   2.642   4.909   1.293  1.8394 -0.0249  0.6133
  877THF     O112829   0.054   4.206   4.702 -0.2041 -0.1893  0.3852
  877THF     C212830  -0.051   4.260   4.787  0.5072  0.2972  0.5842
  877THF     C312831   0.063   4.292   4.587 -0.0558  0.7027 -0.8512
  877THF     H412832  -0.009   4.329   4.859  0.5787  2.0223 -1.0367
  877THF     H512833  -0.098   4.180   4.845  2.5312 -1.1616  0.3320
  877THF     H612834   0.098   4.391   4.615  0.6760  0.5737 -1.2956
  877THF     H712835   0.118   4.246   4.506 -1.6219 -0.6113 -1.2079
  877THF     C812836  -0.091   4.302   4.555 -0.2044  0.4346 -0.2988
  877THF     C912837  -0.156   4.328   4.690  0.0433 -0.0408  0.4283
  877THF    H1012838  -0.117   4.207   4.509  0.7120 -0.0368  0.1348
  877THF    H1112839  -0.109   4.381   4.481  2.3533  1.2766 -0.1295
  877THF    H1212840  -0.160   4.434   4.718  1.3701  0.2494 -0.3830
  877THF    H1312841  -0.257   4.288   4.685 -1.4056  3.1934  1.0147
  878THF     O112842   0.900   2.118   4.193 -0.0400 -0.3544 -0.4417
  878THF     C212843   0.810   2.012   4.235 -0.7367 -0.4028 -0.0528
  878THF     C312844   0.822   2.206   4.117 -0.2678  0.0417  0.2192
  878THF     H412845   0.857   1.960   4.318  0.1385  1.7753  0.8939
  878THF     H512846   0.783   1.941   4.156 -0.3792 -1.4934  0.7812
  878THF     H612847   0.885   2.291   4.093  0.2403  0.0281  1.4585
  878THF     H712848   0.773   2.169   4.027 -0.2493 -2.1036  1.0395
  878THF     C812849   0.713   2.242   4.222  0.4951  0.2746  0.0194
  878THF     C912850   0.692   2.098   4.276 -0.1139 -0.4591 -0.1293
  878THF    H1012851   0.624   2.281   4.173 -0.4028 -2.5325 -0.7818
  878THF    H1112852   0.757   2.304   4.300  0.2492 -2.3207  2.3995
  878THF    H1212853   0.675   2.104   4.384 -2.1535  0.8130 -0.4742
  878THF    H1312854   0.600   2.050   4.244 -0.5609  0.0635  0.3385
  879THF     O112855   1.278   4.003   3.113  0.0273  0.4207 -0.3097
  879THF     C212856   1.183   4.003   3.014  0.5202  1.4905 -0.0271
  879THF     C312857   1.197   4.014   3.228  0.9870  0.1062  0.3093
  879THF     H412858   1.218   3.978   2.914  2.0465  0.4628  0.7245
  879THF     H512859   1.134   4.100   3.003 -0.5961  0.9264 -0.2370
  879THF     H612860   1.243   4.008   3.327  0.3062 -1.6219  0.5450
  879THF     H712861   1.154   4.114   3.237 -1.0735 -0.7614  0.6318
  879THF     C812862   1.078   3.917   3.202  0.1547  0.1084 -0.7979
  879THF     C912863   1.082   3.890   3.056 -0.1991  0.0643  0.7281
  879THF    H1012864   0.985   3.971   3.217  0.4912 -0.0372  2.7719
  879THF    H1112865   1.068   3.834   3.272  0.7059  0.9798  0.3688
  879THF    H1212866   1.139   3.800   3.035  1.3930  0.9020  1.2441
  879THF    H1312867   0.986   3.903   3.006 -0.1158 -1.3507  0.1799
  880THF     O112868   1.809   2.769   5.403  0.0343 -0.0066 -0.1658
  880THF     C212869   1.834   2.652   5.473  0.1180  0.5921 -0.7853
  880THF     C312870   1.673   2.750   5.347 -0.9810 -0.8344 -0.3379
  880THF     H412871   1.911   2.666   5.548  1.0279 -0.3738 -1.5183
  880THF     H512872   1.857   2.562   5.416 -0.9508  0.4325 -0.9916
  880THF     H612873   1.625   2.848   5.351 -1.4041 -1.0976  1.5917
  880THF     H712874   1.674   2.731   5.239  1.9961  0.9318 -0.7374
  880THF     C812875   1.608   2.632   5.427  0.0372 -0.0564 -0.8133
  880THF     C912876   1.701   2.621   5.544 -0.5676  0.6420 -0.3426
  880THF    H1012877   1.603   2.546   5.361  0.6967  2.0874 -3.9216
  880THF    H1112878   1.519   2.664   5.481  1.9581 -0.8101  3.1444
  880THF    H1212879   1.691   2.700   5.618  1.4535  0.7143 -0.0793
  880THF    H1312880   1.699   2.522   5.589  1.5198  0.1076 -1.2883
  881THF     O112881   0.846   5.218   1.729 -0.9532 -0.1370 -0.4138
  881THF     C212882   0.977   5.265   1.757 -0.2029 -0.6004 -0.1306
  881THF     C312883   0.833   5.214   1.591  0.2322  0.0122 -0.2429
  881THF     H412884   1.011   5.211   1.846  1.9613  0.6960 -0.1067
  881THF     H512885   0.978   5.372   1.777  1.1249 -0.8666  1.4591
  881THF     H612886   0.745   5.157   1.561 -0.4056  1.0201 -0.3095
  881THF     H712887   0.816   5.317   1.562 -0.3015  0.4710  1.6148
  881THF     C812888   0.965   5.167   1.546 -0.3674  0.0915  0.5295
  881THF     C912889   1.060   5.230   1.634  0.2784 -0.4055  0.2381
  881THF    H1012890   0.984   5.188   1.441 -0.2435 -0.9834  0.3274
  881THF    H1112891   0.949   5.059   1.550 -1.5119  0.2536  0.9186
  881THF    H1212892   1.145   5.167   1.660  0.1631  0.7602  4.1726
  881THF    H1312893   1.088   5.326   1.589 -1.6990  0.2574  0.3200
  882THF     O112894   5.026   0.778   2.149  0.0923 -0.2296 -0.1970
  882THF     C212895   5.015   0.714   2.022  0.0897  0.3186  0.4736
  882THF     C312896   5.160   0.799   2.170  0.6293  0.2200 -0.1223
  882THF     H412897   4.921   0.732   1.971  0.2809 -1.1175 -0.4337
  882THF     H512898   5.007   0.607   2.041 -1.7256  0.7762  2.6918
  882THF     H612899   5.176   0.878   2.244 -1.4546 -0.5173  1.2182
  882THF     H712900   5.200   0.707   2.214  1.8085  0.2022 -1.2034
  882THF     C812901   5.225   0.829   2.034 -0.3700 -0.8992 -0.0729
  882THF     C912902   5.131   0.765   1.935  0.4585 -0.1552 -0.3126
  882THF    H1012903   5.325   0.786   2.026 -0.0120 -0.0288 -0.3249
  882THF    H1112904   5.234   0.937   2.029 -1.1957 -0.7664  0.9283
  882THF    H1212905   5.085   0.833   1.863 -1.6577 -0.5910  0.5412
  882THF    H1312906   5.181   0.681   1.887 -0.6180 -1.1937  0.3226
  883THF     O112907   4.021   2.088   2.492 -0.1022 -0.2679 -0.0721
  883THF     C212908   3.909   2.037   2.424 -0.1902  0.6792  0.1793
  883THF     C312909   4.046   2.008   2.604  0.3786 -0.2501 -0.5522
  883THF     H412910   3.936   1.942   2.379  0.5126  0.9372  0.0346
  883THF     H512911   3.864   2.095   2.343  0.8210 -0.1456 -1.0173
  883THF     H612912   4.104   1.917   2.587  0.8090 -0.1232  0.2038
  883THF     H712913   4.082   2.069   2.687  0.9075 -0.7564 -0.4026
  883THF     C812914   3.906   1.957   2.649 -0.0636 -0.3144  0.1151
  883THF     C912915   3.815   1.986   2.535  0.0657 -0.0841  0.1081
  883THF    H1012916   3.882   1.996   2.747 -0.1187 -1.2408  0.4814
  883THF    H1112917   3.906   1.849   2.664  1.0190 -0.1170  1.8600
  883THF    H1212918   3.748   1.904   2.508 -0.2218  0.0427  0.4384
  883THF    H1312919   3.751   2.072   2.552  0.7213  1.3265 -3.6161
  884THF     O112920   1.302   4.093   0.028 -0.4314  0.0493 -0.1577
  884THF     C212921   1.378   4.038  -0.078  0.0554  0.3058 -1.2926
  884THF     C312922   1.392   4.126   0.135 -0.2906  0.6681 -0.6396
  884THF     H412923   1.337   4.051  -0.178  2.2812  0.1191 -2.2869
  884THF     H512924   1.397   3.931  -0.069  1.5606  0.6872  0.4435
  884THF     H612925   1.372   4.227   0.171  1.2581  0.8601 -0.2808
  884THF     H712926   1.365   4.060   0.217  0.8116 -0.6519 -1.2971
  884THF     C812927   1.530   4.105   0.081  0.0501  0.1869 -0.2867
  884THF     C912928   1.509   4.110  -0.066  0.8359 -0.0765  0.9270
  884THF    H1012929   1.562   4.008   0.117  3.5446  0.7675 -1.4876
  884THF    H1112930   1.599   4.175   0.128  1.8941 -1.8623  0.2230
  884THF    H1212931   1.499   4.215  -0.091  1.9940 -0.5275 -1.9000
  884THF    H1312932   1.590   4.065  -0.125  1.3586  1.0280  0.7845
  885THF     O112933   5.063   4.392   5.025  0.1867  0.2460  0.0827
  885THF     C212934   5.157   4.471   5.101 -0.3520  0.2437  0.4389
  885THF     C312935   5.100   4.253   5.030  0.6229 -0.4125 -0.6764
  885THF     H412936   5.107   4.518   5.185 -0.1170  0.6836  0.3355
  885THF     H512937   5.213   4.543   5.041  1.1933 -0.9486  0.3856
  885THF     H612938   5.010   4.196   5.051  1.2362 -0.5553  1.8545
  885THF     H712939   5.137   4.217   4.934  1.3382 -0.4036 -0.4065
  885THF     C812940   5.194   4.233   5.149  0.0665  0.4437  0.4803
  885THF     C912941   5.261   4.373   5.152  0.0647  0.0843  0.6074
  885THF    H1012942   5.251   4.145   5.121 -2.1462 -1.0105  0.3094
  885THF    H1112943   5.150   4.209   5.246 -1.5749  1.0781 -0.0801
  885THF    H1212944   5.287   4.393   5.256  0.3697 -0.6427  0.6790
  885THF    H1312945   5.348   4.375   5.087 -1.5339  1.0144 -1.6329
  886THF     O112946   1.670   4.969   0.597  0.5661 -0.0093 -0.3690
  886THF     C212947   1.646   4.944   0.465 -0.4464  0.9366 -0.2523
  886THF     C312948   1.557   5.031   0.651  0.3950 -0.3903  0.0202
  886THF     H412949   1.710   4.862   0.431 -0.6290  0.7304 -0.1057
  886THF     H512950   1.665   5.036   0.410  0.0652  1.9903  1.5733
  886THF     H612951   1.571   5.035   0.759  1.9526  2.8921 -0.2079
  886THF     H712952   1.541   5.135   0.624 -2.0960 -0.2557  1.6617
  886THF     C812953   1.443   4.944   0.592  0.2417 -0.0776 -0.3227
  886THF     C912954   1.505   4.892   0.463 -0.8353 -0.8918 -0.1509
  886THF    H1012955   1.357   5.008   0.571  0.0661  1.0046  3.0575
  886THF    H1112956   1.423   4.862   0.661  0.5701  0.6596  0.6732
  886THF    H1212957   1.506   4.783   0.455 -2.2188 -0.8095 -2.5964
  886THF    H1312958   1.449   4.941   0.383 -1.2583  3.7821  2.6200
  887THF     O112959   3.439   1.381   3.174 -0.6885 -0.2986 -0.1675
  887THF     C212960   3.426   1.349   3.038 -0.2001 -0.1346 -0.2755
  887THF     C312961   3.482   1.516   3.182  0.8252 -0.4340 -0.1414
  887THF     H412962   3.372   1.258   3.013 -1.0916  0.3004  0.0286
  887THF     H512963   3.527   1.330   3.001  0.3769 -0.0132  1.1628
  887THF     H612964   3.463   1.551   3.284  0.5204 -0.9335 -0.0229
  887THF     H712965   3.586   1.533   3.157  0.9471 -1.7505 -0.6403
  887THF     C812966   3.384   1.579   3.086 -0.3418  0.2278  0.0855
  887THF     C912967   3.369   1.469   2.976 -0.2933 -0.4078  0.2809
  887THF    H1012968   3.422   1.677   3.058  1.1534  0.3095  2.1467
  887THF    H1112969   3.284   1.583   3.129 -0.7837 -0.9558 -0.7761
  887THF    H1212970   3.267   1.456   2.939 -0.3314 -0.3653  0.3705
  887THF    H1312971   3.434   1.504   2.896  0.0145  2.7408  1.7547
  888THF     O112972   1.499   0.218   0.358 -0.1595  0.1602 -0.0921
  888THF     C212973   1.603   0.181   0.450  0.4162 -0.2429 -0.5389
  888THF     C312974   1.447   0.339   0.415  0.0439 -0.6582 -0.0818
  888THF     H412975   1.671   0.120   0.391  0.7491 -0.2257 -0.1798
  888THF     H512976   1.574   0.129   0.541 -1.0830  1.7182  0.1892
  888THF     H612977   1.391   0.403   0.346  0.3263  0.7036  0.9049
  888THF     H712978   1.391   0.310   0.503  1.7055 -0.9809  0.9164
  888THF     C812979   1.572   0.419   0.446 -0.6262 -0.1468  1.0150
  888THF     C912980   1.674   0.318   0.481 -0.4635  0.3634 -0.1762
  888THF    H1012981   1.562   0.498   0.520  0.1553  0.2211  0.7346
  888THF    H1112982   1.610   0.471   0.358 -1.3011  0.9179  1.3465
  888THF    H1212983   1.760   0.327   0.414 -0.3129  3.5757  0.3136
  888THF    H1312984   1.710   0.313   0.584  0.2420 -1.7193 -0.4715
  889THF     O112985   2.387   0.231   0.011 -0.4422  0.7667  1.0820
  889THF     C212986   2.267   0.250  -0.057  0.2436  0.4302 -0.0072
  889THF     C312987   2.465   0.344  -0.010  0.0855  0.2596  0.4329
  889THF     H412988   2.200   0.314  -0.000  0.5019  1.1757 -0.5425
  889THF     H512989   2.225   0.150  -0.071  3.4943 -0.8560 -1.6214
  889THF     H612990   2.447   0.418   0.067 -1.8612 -0.0088  0.2919
  889THF     H712991   2.570   0.313  -0.009  0.7023  2.1987  1.9120
  889THF     C812992   2.433   0.394  -0.153  0.1523  0.1488  0.0783
  889THF     C912993   2.307   0.317  -0.189 -0.0012  0.3922  0.0791
  889THF    H1012994   2.506   0.388  -0.234 -1.3574  1.2632 -1.4277
  889THF    H1112995   2.417   0.502  -0.163  1.2705  0.3535  0.2564
  889THF    H1212996   2.216   0.371  -0.212  0.6279  0.9553 -1.1524
  889THF    H1312997   2.331   0.248  -0.269 -0.2145  1.8440 -1.2825
  890THF     O112998   2.493   3.425   0.659  0.6372 -0.2847 -0.0962
  890THF     C212999   2.457   3.479   0.534  1.1547 -0.5350  0.2378
  890THF     C313000   2.432   3.295   0.660 -0.0225 -0.4114  0.2972
  890THF     H413001   2.524   3.448   0.454  0.9939 -0.3170  0.0182
  890THF     H513002   2.469   3.587   0.539 -1.1397 -0.2121 -0.1697
  890THF     H613003   2.502   3.220   0.623  0.2413  0.3065 -0.6996
  890THF     H713004   2.417   3.272   0.766  1.1395  1.3005  0.8896
  890THF     C813005   2.294   3.309   0.581 -0.4544 -0.0327 -0.3251
  890THF     C913006   2.314   3.443   0.512 -0.2833 -0.1675  0.0818
  890THF    H1013007   2.212   3.314   0.653  0.8278 -2.1908  1.3910
  890THF    H1113008   2.279   3.227   0.511 -0.6647 -0.4135  0.1623
  890THF    H1213009   2.297   3.440   0.404  0.4441 -0.6474 -0.0253
  890THF    H1313010   2.249   3.513   0.564 -1.5970 -2.0154  1.0533
  891THF     O113011   0.608   0.967   5.253  0.2805  0.0846 -0.5931
  891THF     C213012   0.694   0.856   5.288  0.0308 -0.4747 -0.2953
  891THF     C313013   0.695   1.058   5.178 -0.5191  0.2821 -0.2764
  891THF     H413014   0.696   0.784   5.206 -0.0537  0.0611 -0.7684
  891THF     H513015   0.652   0.796   5.370  1.1045  1.4906  1.7951
  891THF     H613016   0.728   1.008   5.087  1.6037  1.0930 -0.0113
  891THF     H713017   0.658   1.159   5.162 -0.9096  0.4239  1.3338
  891THF     C813018   0.824   1.063   5.265 -0.9028  0.1008  0.2140
  891THF     C913019   0.829   0.920   5.331  0.5162  0.1814  0.3206
  891THF    H1013020   0.820   1.143   5.339  2.7217  2.6239 -2.0043
  891THF    H1113021   0.907   1.089   5.199 -0.2672  0.5599  1.1754
  891THF    H1213022   0.911   0.855   5.298 -0.9695 -0.9788 -1.2604
  891THF    H1313023   0.833   0.931   5.440  0.6856 -2.3103  0.6385
  892THF     O113024   0.469   0.870   4.455  0.5454  0.1946 -0.0629
  892THF     C213025   0.482   0.961   4.354 -0.3472  0.1482 -0.2294
  892THF     C313026   0.557   0.759   4.435 -0.1999 -0.2231 -0.0797
  892THF     H413027   0.457   1.058   4.398  0.2962 -0.7634  2.3557
  892THF     H513028   0.412   0.929   4.276 -2.0051  0.6948  0.9685
  892THF     H613029   0.577   0.708   4.529 -1.5047 -3.0349 -1.2116
  892THF     H713030   0.501   0.700   4.363  0.0831 -0.2689 -0.2631
  892THF     C813031   0.685   0.830   4.386  0.2295 -0.0593 -0.0335
  892THF     C913032   0.632   0.962   4.319  0.0401 -0.0124 -0.1629
  892THF    H1013033   0.732   0.762   4.315 -0.7661  0.0487 -0.8195
  892THF    H1113034   0.757   0.854   4.465  0.9545 -2.9163  0.2952
  892THF    H1213035   0.673   1.061   4.336 -1.2578  0.6071 -0.4747
  892THF    H1313036   0.638   0.956   4.210  0.3097 -0.2342 -0.1381
  893THF     O113037   4.146   1.073   2.490 -0.0480 -0.0203  0.5330
  893THF     C213038   4.099   0.947   2.447 -0.3230  0.0681 -0.7642
  893THF     C313039   4.101   1.087   2.623  0.0441 -0.4175 -0.5287
  893THF     H413040   4.194   0.927   2.396  0.6632  1.0496  0.5910
  893THF     H513041   4.008   0.965   2.390 -1.2860  0.6676  0.8956
  893THF     H613042   4.158   1.175   2.652 -0.8506  0.3181 -0.9522
  893THF     H713043   3.996   1.104   2.646  0.6110  1.1783  1.0835
  893THF     C813044   4.139   0.954   2.678  0.1345 -0.4661 -1.3325
  893THF     C913045   4.071   0.868   2.573 -0.3693  0.4391  0.1875
  893THF    H1013046   4.117   0.941   2.784 -0.4596  0.9755 -1.2481
  893THF    H1113047   4.248   0.952   2.669  0.2624 -1.6381  0.1471
  893THF    H1213048   4.110   0.766   2.565 -0.1685  0.5186  0.1558
  893THF    H1313049   3.965   0.880   2.597 -0.6702 -1.5279  0.0445
  894THF     O113050   2.186   5.165   5.247 -0.5627  0.0538  0.1887
  894THF     C213051   2.172   5.209   5.386 -0.0360  0.5847 -0.7862
  894THF     C313052   2.081   5.232   5.176  0.4084 -0.6245  0.1091
  894THF     H413053   2.262   5.192   5.445 -0.0734 -0.3375 -0.9794
  894THF     H513054   2.097   5.143   5.429  0.8510  1.7191  2.8662
  894THF     H613055   2.106   5.232   5.070 -0.4217  0.3332 -0.1022
  894THF     H713056   1.990   5.174   5.190  0.6976 -0.8524  1.1546
  894THF     C813057   2.089   5.371   5.234  0.2855 -0.2702 -0.0911
  894THF     C913058   2.124   5.356   5.388 -0.1454 -0.3272  0.8990
  894THF    H1013059   2.007   5.442   5.223  0.5571  0.9008  3.7125
  894THF    H1113060   2.176   5.419   5.188 -0.0755 -0.1898 -0.6925
  894THF    H1213061   2.196   5.434   5.414 -0.0776 -0.5994  1.5637
  894THF    H1313062   2.037   5.364   5.453 -1.0267  1.1197 -0.3776
  895THF     O113063   4.813   4.510   3.495 -0.2752 -0.1475  0.0411
  895THF     C213064   4.728   4.624   3.497  0.1986  0.3636 -0.4376
  895THF     C313065   4.947   4.567   3.500  0.8714 -0.2705 -0.1083
  895THF     H413066   4.716   4.670   3.595  2.6420  1.0866 -0.4051
  895THF     H513067   4.632   4.584   3.463 -0.0793 -0.4049  1.1388
  895THF     H613068   4.955   4.596   3.605  0.0181 -0.9436  0.1528
  895THF     H713069   5.018   4.487   3.481 -1.1856 -1.7592 -1.9939
  895THF     C813070   4.944   4.686   3.408  0.4798 -0.5082  0.7474
  895THF     C913071   4.801   4.725   3.414  0.1106 -0.5744  0.2781
  895THF    H1013072   4.976   4.652   3.309 -0.5837  2.1623 -0.6005
  895THF    H1113073   5.005   4.767   3.446 -0.4457 -0.2967  1.8350
  895THF    H1213074   4.775   4.828   3.438 -0.6181 -0.9548  1.2006
  895THF    H1313075   4.752   4.712   3.317 -1.7751 -0.9535  1.2283
  896THF     O113076   3.375   1.399   5.289 -0.3549  0.3769  0.1685
  896THF     C213077   3.467   1.498   5.243  0.2191 -0.5234  0.2848
  896THF     C313078   3.354   1.397   5.425 -0.1127  0.4490 -0.1688
  896THF     H413079   3.420   1.531   5.150  0.2055  1.0095  0.8062
  896THF     H513080   3.561   1.455   5.209 -0.3743  0.2683 -2.6159
  896THF     H613081   3.262   1.346   5.457  0.0393 -0.7500 -1.5163
  896THF     H713082   3.442   1.347   5.465  0.9752  0.8433 -1.9413
  896THF     C813083   3.362   1.540   5.466 -0.2617  0.0609 -0.2754
  896THF     C913084   3.466   1.593   5.363  0.7025 -0.7123 -0.8946
  896THF    H1013085   3.403   1.549   5.566  2.4224 -0.2027 -1.2875
  896THF    H1113086   3.268   1.592   5.449 -0.0137  0.3116 -0.9050
  896THF    H1213087   3.435   1.695   5.340  2.0042  0.1772  1.0852
  896THF    H1313088   3.559   1.596   5.419  0.0153 -1.3112  0.3256
  897THF     O113089   3.691   3.434   3.046  0.5157  0.3268 -0.1759
  897THF     C213090   3.673   3.359   2.930 -0.2552 -0.2932  0.5080
  897THF     C313091   3.793   3.384   3.128 -0.2488  0.0944  0.0841
  897THF     H413092   3.650   3.431   2.852 -1.2073 -0.6686  0.4368
  897THF     H513093   3.583   3.302   2.951 -0.0882 -0.4397  0.8411
  897THF     H613094   3.850   3.463   3.179  1.9082 -2.1455  1.3675
  897THF     H713095   3.752   3.316   3.203  1.0804  2.3835  3.1553
  897THF     C813096   3.884   3.317   3.029 -0.3568  0.0798 -0.0208
  897THF     C913097   3.789   3.266   2.921 -0.4976 -0.6408 -0.2926
  897THF    H1013098   3.937   3.229   3.064 -0.8396 -0.6210 -1.0061
  897THF    H1113099   3.965   3.377   2.989 -0.0331  1.1809  2.1384
  897THF    H1213100   3.836   3.274   2.823 -0.4810  0.0155 -0.2331
  897THF    H1313101   3.765   3.160   2.929  0.2624 -0.7742  0.3295
  898THF     O113102   0.633   0.450   4.381 -0.1021  0.2068  0.3418
  898THF     C213103   0.659   0.315   4.420  0.3536  0.3207  0.1437
  898THF     C313104   0.727   0.482   4.279 -0.5776  0.4604  0.2896
  898THF     H413105   0.583   0.268   4.482 -0.5642  1.6654  0.0857
  898THF     H513106   0.743   0.322   4.488  1.3742  1.1815 -1.1584
  898THF     H613107   0.687   0.564   4.219  0.1358 -0.2725 -1.2569
  898THF     H713108   0.820   0.514   4.326 -0.9471 -2.7337  3.5568
  898THF     C813109   0.747   0.357   4.196  0.4031 -0.3610  0.5344
  898THF     C913110   0.698   0.249   4.289  0.4701 -0.1214 -0.0944
  898THF    H1013111   0.852   0.342   4.171  0.2423 -0.5136 -0.0718
  898THF    H1113112   0.684   0.361   4.107 -0.3994 -2.2761  0.9650
  898THF    H1213113   0.612   0.195   4.248  1.5244 -1.6942 -0.3441
  898THF    H1313114   0.767   0.165   4.303 -0.2601 -1.6374 -4.0735
  899THF     O113115   2.892   1.851   4.361  0.1516 -0.0438 -0.4931
  899THF     C213116   3.014   1.936   4.338  0.7133  0.1436  0.1916
  899THF     C313117   2.841   1.876   4.491  0.2485  0.2580  0.7957
  899THF     H413118   2.992   2.033   4.295  2.7369  0.8082  0.5564
  899THF     H513119   3.081   1.893   4.264 -1.4472 -0.0441 -1.7607
  899THF     H613120   2.802   1.978   4.487 -1.8503 -0.4575  1.3986
  899THF     H713121   2.763   1.805   4.519  0.7230 -1.1592 -1.2762
  899THF     C813122   2.962   1.876   4.571 -0.0420  0.5123 -0.5581
  899THF     C913123   3.070   1.938   4.483 -0.2178 -0.2789 -0.3360
  899THF    H1013124   2.989   1.779   4.613 -1.3613 -0.3127 -1.5556
  899THF    H1113125   2.940   1.940   4.657  1.4437 -0.4756  0.6096
  899THF    H1213126   3.111   2.038   4.501 -0.1629 -0.5429  1.1840
  899THF    H1313127   3.151   1.865   4.484 -0.6382 -0.7829  1.4607
  900THF     O113128   2.360   0.328   0.527 -0.4093  0.2832 -0.5713
  900THF     C213129   2.245   0.255   0.559 -0.2291  0.2362  0.2934
  900THF     C313130   2.376   0.333   0.385  0.6370  0.0720  0.4404
  900THF     H413131   2.202   0.288   0.653  0.8848  0.4830  0.7257
  900THF     H513132   2.270   0.149   0.568 -0.4477  0.1626  0.0393
  900THF     H613133   2.417   0.430   0.353 -1.9804  0.6764 -1.3590
  900THF     H713134   2.434   0.248   0.350  0.0639 -0.4240  0.7038
  900THF     C813135   2.240   0.303   0.321  0.2531 -0.7487  0.4342
  900THF     C913136   2.151   0.279   0.441  0.6055  0.4835  0.2088
  900THF    H1013137   2.255   0.225   0.247 -1.9231 -1.2308  0.4167
  900THF    H1113138   2.220   0.395   0.264  3.0517  0.0561  0.5968
  900THF    H1213139   2.076   0.358   0.449 -0.2174 -0.3365  0.9722
  900THF    H1313140   2.086   0.193   0.429  1.6499 -0.7064  2.4414
  901THF     O113141   4.969   2.020   2.431 -0.0450 -0.0858  0.0070
  901THF     C213142   4.916   1.983   2.554  0.3116 -0.0147 -0.8097
  901THF     C313143   4.865   2.008   2.335  0.3365 -0.0943 -0.5587
  901THF     H413144   4.975   2.017   2.639 -2.3766  0.8560  0.8422
  901THF     H513145   4.920   1.874   2.547 -1.0717 -0.2952  1.5911
  901THF     H613146   4.893   2.058   2.242  1.4547  0.1929 -0.0860
  901THF     H713147   4.854   1.901   2.316 -1.0650  0.2221 -1.7372
  901THF     C813148   4.750   2.059   2.411  0.7128  0.0300  0.1302
  901THF     C913149   4.774   2.043   2.561 -0.7057 -0.0836 -0.1245
  901THF    H1013150   4.661   2.001   2.383  0.1311  1.0539 -0.1916
  901THF    H1113151   4.723   2.162   2.391  2.3798  0.6737  1.0223
  901THF    H1213152   4.774   2.145   2.598 -0.3811 -1.2756  3.6355
  901THF    H1313153   4.695   1.982   2.606 -1.5214  0.2863 -1.0187
  902THF     O113154   2.894   1.686   2.885  0.8983  0.1898  0.0902
  902THF     C213155   2.912   1.699   3.025 -0.4373  0.6589 -0.2568
  902THF     C313156   2.824   1.565   2.867 -0.0035  1.3771  0.0655
  902THF     H413157   2.824   1.722   3.084 -0.7735 -1.2382  0.0356
  902THF     H513158   2.989   1.775   3.039  0.0727  0.0957  0.0565
  902THF     H613159   2.722   1.582   2.900  0.2645  1.7753  0.7276
  902THF     H713160   2.821   1.526   2.766  1.2115  0.8621  0.2007
  902THF     C813161   2.892   1.472   2.971  0.3279  0.1230 -0.2937
  902THF     C913162   2.961   1.564   3.063  0.6619  0.4259  0.7488
  902THF    H1013163   2.958   1.398   2.925 -0.2802 -0.4369 -0.2833
  902THF    H1113164   2.809   1.416   3.014  1.6830 -0.5814  1.5413
  902THF    H1213165   2.940   1.538   3.166 -1.8837  0.3370  0.2619
  902THF    H1313166   3.066   1.544   3.041 -0.0317 -1.1247 -1.5234
  903THF     O113167   3.373   2.208   2.917 -0.0903  0.0017 -0.2609
  903THF     C213168   3.391   2.311   2.827  0.0390 -0.5202  0.2655
  903THF     C313169   3.272   2.247   3.012  0.3063  0.2073 -0.3888
  903THF     H413170   3.401   2.260   2.732  1.6380  0.5047 -0.1539
  903THF     H513171   3.476   2.374   2.854 -0.4621 -0.3236  1.4533
  903THF     H613172   3.177   2.194   3.010 -0.9324  2.3233 -1.0286
  903THF     H713173   3.317   2.235   3.111  0.0627 -0.4055 -0.3530
  903THF     C813174   3.235   2.395   2.979  0.0259  0.0261  0.9233
  903THF     C913175   3.266   2.398   2.831 -0.9461  0.1821  0.8015
  903THF    H1013176   3.314   2.459   3.020  0.2675 -0.0257  0.5375
  903THF    H1113177   3.139   2.425   3.022  0.3155  0.4592  1.2679
  903THF    H1213178   3.185   2.358   2.770  0.1858  1.6347 -1.8119
  903THF    H1313179   3.278   2.498   2.791 -2.4746  0.0690 -0.0051
  904THF     O113180   0.839   3.971   2.048 -0.4469  0.0369  0.0355
  904THF     C213181   0.913   4.021   1.936  0.6554 -0.3741  0.0378
  904THF     C313182   0.934   3.983   2.158  0.1459  0.2163  0.4432
  904THF     H413183   0.893   4.127   1.926 -2.3917 -0.5474  2.6264
  904THF     H513184   0.877   3.967   1.848  0.8875  0.9936 -0.9317
  904THF     H613185   0.907   4.079   2.202  1.8206  1.4088 -0.9890
  904THF     H713186   0.926   3.901   2.229 -3.0185 -1.4739 -1.6116
  904THF     C813187   1.080   3.996   2.114 -0.1700  0.0376 -0.4027
  904THF     C913188   1.057   3.994   1.964 -0.2744 -0.1289  0.0677
  904THF    H1013189   1.145   3.919   2.154 -2.2385 -0.9220  1.2868
  904THF    H1113190   1.120   4.096   2.133 -1.3689  0.8576 -1.8919
  904THF    H1213191   1.121   4.063   1.907  0.0274 -0.4988 -0.0441
  904THF    H1313192   1.091   3.896   1.932  1.0295  0.6095 -0.9476
  905THF     O113193   0.222   0.857   5.005 -0.3422  0.0729  0.2553
  905THF     C213194   0.362   0.823   4.993  0.4999 -0.1265  0.2941
  905THF     C313195   0.168   0.915   4.883  1.2862  0.3901 -1.1166
  905THF     H413196   0.406   0.743   5.053  1.0524 -0.2523 -0.2556
  905THF     H513197   0.414   0.914   5.023  1.4906 -0.9075  1.0458
  905THF     H613198   0.067   0.882   4.863  1.6535 -0.8881 -0.9763
  905THF     H713199   0.174   1.022   4.903 -3.4445  0.3437  2.1146
  905THF     C813200   0.259   0.870   4.773 -0.0225  0.4741  0.2754
  905THF     C913201   0.367   0.780   4.844  0.4355  0.2137 -0.3366
  905THF    H1013202   0.309   0.960   4.740  0.6780  0.1936  0.5658
  905THF    H1113203   0.212   0.822   4.687  0.4343 -0.6403  0.6293
  905THF    H1213204   0.334   0.676   4.838  1.1718 -0.2960  2.5384
  905THF    H1313205   0.467   0.799   4.805  1.0787 -0.9183  0.6829
  906THF     O113206   4.536   3.944   4.736  0.5739 -0.0833  0.0118
  906THF     C213207   4.646   3.915   4.820 -0.0858 -0.3561  0.1877
  906THF     C313208   4.431   3.845   4.763 -0.6202  0.0005  0.6392
  906THF     H413209   4.688   3.999   4.875  2.0304 -0.1061 -1.6585
  906THF     H513210   4.724   3.879   4.753 -0.3239  1.2822 -1.0392
  906THF     H613211   4.352   3.900   4.814  0.6167  1.7740  0.7280
  906THF     H713212   4.376   3.813   4.675 -0.7330 -0.1510  0.7669
  906THF     C813213   4.500   3.730   4.829 -0.3405  0.6011 -0.1792
  906THF     C913214   4.598   3.807   4.915  0.2036  0.0924  0.5344
  906THF    H1013215   4.542   3.672   4.747 -0.4079  1.4107 -0.8054
  906THF    H1113216   4.435   3.669   4.891  0.7303  1.0114  1.4018
  906THF    H1213217   4.550   3.849   5.004  1.0555 -1.1151  1.6117
  906THF    H1313218   4.667   3.731   4.952 -2.9602 -3.2383  0.2092
  907THF     O113219   1.952   3.732   2.933 -0.3904 -0.5925  0.5549
  907THF     C213220   1.989   3.865   2.900  0.0072  0.0957  0.0301
  907THF     C313221   1.968   3.647   2.817  0.2372 -0.5377  0.9922
  907THF     H413222   2.097   3.880   2.911  0.0918 -1.0227  0.9222
  907THF     H513223   1.928   3.932   2.961  0.0430 -0.5302  0.7612
  907THF     H613224   2.074   3.628   2.798  0.6097  0.8717  1.5029
  907THF     H713225   1.919   3.552   2.839  0.4261 -0.3554  2.2806
  907THF     C813226   1.927   3.742   2.704  0.2968 -0.8023 -0.4617
  907THF     C913227   1.951   3.882   2.753  0.2274  0.4345  0.6472
  907THF    H1013228   1.826   3.709   2.681  1.1330 -3.7625 -0.3989
  907THF    H1113229   1.975   3.717   2.609 -2.9054  0.0238 -2.4172
  907THF    H1213230   2.026   3.931   2.691 -1.1402 -0.3887 -1.7874
  907THF    H1313231   1.861   3.943   2.750 -1.2504 -1.6258  1.4361
  908THF     O113232   3.243   2.798   3.043  0.4012 -0.2727  0.1223
  908THF     C213233   3.269   2.837   2.908 -0.9254 -0.1235 -0.8114
  908THF     C313234   3.104   2.826   3.060  0.3130  0.3621  0.1897
  908THF     H413235   3.351   2.777   2.868 -1.7790 -1.7528 -0.2446
  908THF     H513236   3.291   2.943   2.896 -0.1176 -0.2251 -0.3157
  908THF     H613237   3.067   2.760   3.138  0.5659 -0.7216 -0.5770
  908THF     H713238   3.078   2.929   3.087 -0.9127  0.5891 -1.6574
  908THF     C813239   3.034   2.790   2.935  0.1561  0.7379 -0.0714
  908THF     C913240   3.142   2.810   2.829  0.0875  0.1093  0.1631
  908THF    H1013241   2.943   2.848   2.920  1.2099  2.1460 -1.3595
  908THF    H1113242   3.015   2.683   2.944 -2.8076  1.2741  1.0164
  908THF    H1213243   3.177   2.724   2.772  3.9995  2.7193 -1.8109
  908THF    H1313244   3.113   2.889   2.760  0.2999 -1.1940 -1.4911
  909THF     O113245   1.075   4.158   2.393 -0.3671  0.3230 -0.0486
  909THF     C213246   1.130   4.092   2.506  0.2008  0.1297  0.6142
  909THF     C313247   1.167   4.264   2.357  0.2309  0.0089 -0.3422
  909THF     H413248   1.092   3.990   2.511 -2.9540  1.1954  0.8983
  909THF     H513249   1.113   4.151   2.596  0.2330  2.3595 -0.7546
  909THF     H613250   1.135   4.300   2.260  0.5730  1.3359  0.0159
  909THF     H713251   1.162   4.350   2.424 -2.2124  0.2033 -0.6762
  909THF     C813252   1.301   4.188   2.365  0.4051 -0.3917  0.4644
  909THF     C913253   1.279   4.093   2.481 -0.3255  0.5926 -0.3786
  909THF    H1013254   1.366   4.273   2.388 -2.3621  3.1175 -3.2571
  909THF    H1113255   1.326   4.143   2.269 -0.0885 -1.1656  0.6876
  909THF    H1213256   1.327   4.000   2.448 -0.6214  0.3576 -0.1553
  909THF    H1313257   1.335   4.126   2.568 -0.7946  0.9994 -0.2233
  910THF     O113258   1.750   2.224   1.235  0.3894  0.6920 -0.1043
  910THF     C213259   1.792   2.099   1.293  0.8117 -0.1691  0.6368
  910THF     C313260   1.834   2.331   1.284 -0.1071  0.0959 -0.0069
  910THF     H413261   1.870   2.052   1.233  1.2576  0.3610  0.7881
  910THF     H513262   1.708   2.031   1.305 -0.2498  1.0121  0.1694
  910THF     H613263   1.928   2.328   1.228 -0.2228 -1.3186 -0.1576
  910THF     H713264   1.784   2.425   1.265  1.0624  0.5898 -0.7713
  910THF     C813265   1.851   2.291   1.426 -0.6511 -0.3677 -0.0585
  910THF     C913266   1.864   2.135   1.421  0.4615 -0.1320 -0.0718
  910THF    H1013267   1.756   2.303   1.478 -2.2926 -0.3439 -2.8504
  910THF    H1113268   1.927   2.341   1.485  0.5303 -1.1918 -0.8499
  910THF    H1213269   1.969   2.107   1.422  0.6630  0.4967  2.1421
  910THF    H1313270   1.822   2.095   1.513  0.3164  0.4300  0.1132
  911THF     O113271   1.843   2.258   3.375  0.3061 -0.4744 -0.0178
  911THF     C213272   1.762   2.367   3.337 -0.2158 -0.5413  0.1736
  911THF     C313273   1.801   2.137   3.330  0.1169  0.2847  0.0884
  911THF     H413274   1.808   2.453   3.289 -0.4613  0.3095  1.4292
  911THF     H513275   1.740   2.410   3.434  1.9685 -0.0365  0.4896
  911THF     H613276   1.848   2.123   3.233  0.0339  0.9529 -0.0564
  911THF     H713277   1.817   2.052   3.396  3.8576  1.0525  0.3902
  911THF     C813278   1.647   2.161   3.314  0.3253  0.3635 -0.1255
  911THF     C913279   1.639   2.307   3.261  0.2299  0.4721 -0.8302
  911THF    H1013280   1.598   2.153   3.410  2.0901  0.5182  0.8399
  911THF    H1113281   1.607   2.089   3.243 -0.4351  1.4999 -0.8847
  911THF    H1213282   1.651   2.311   3.153  1.8019 -1.2199 -0.7708
  911THF    H1313283   1.546   2.360   3.283  0.5911 -0.0265  2.4660
  912THF     O113284   1.507   4.579   0.934  0.2361  0.1692  0.2321
  912THF     C213285   1.386   4.512   0.977  0.8239  0.2993 -0.5927
  912THF     C313286   1.463   4.696   0.873 -0.2234  0.5081 -0.3820
  912THF     H413287   1.416   4.432   1.044  0.6842  0.6924 -0.0506
  912THF     H513288   1.327   4.480   0.891 -0.9616  3.3305 -0.6387
  912THF     H613289   1.548   4.753   0.837  2.0630 -2.2778  0.2422
  912THF     H713290   1.398   4.676   0.787  2.1242  0.2200 -2.1780
  912THF     C813291   1.371   4.746   0.990 -0.2169 -0.9751 -0.5724
  912THF     C913292   1.325   4.623   1.062 -0.2921  0.4157  0.8420
  912THF    H1013293   1.291   4.812   0.957  1.2140 -0.5881 -3.7203
  912THF    H1113294   1.432   4.806   1.057  0.5393  0.3428 -2.3521
  912THF    H1213295   1.378   4.630   1.157  0.4058  1.4786  0.3834
  912THF    H1313296   1.218   4.606   1.078 -0.2342 -0.8528 -0.0062
  913THF     O113297   0.609   5.462   4.385 -0.3267  0.0350 -0.0736
  913THF     C213298   0.592   5.438   4.522  0.6631 -0.3515 -0.1144
  913THF     C313299   0.731   5.399   4.343 -0.5882 -0.7175 -0.5529
  913THF     H413300   0.521   5.356   4.528 -1.2785  1.1077 -1.8935
  913THF     H513301   0.569   5.526   4.582 -0.1577 -0.3514 -0.4254
  913THF     H613302   0.708   5.294   4.322 -0.2020 -1.1348  1.0080
  913THF     H713303   0.766   5.448   4.252 -0.2295  1.2048  0.5552
  913THF     C813304   0.829   5.417   4.459 -0.0584 -0.8290 -0.1608
  913THF     C913305   0.735   5.396   4.578  0.7376  0.2441 -0.3240
  913THF    H1013306   0.882   5.512   4.463 -0.7908 -0.4530  1.3564
  913THF    H1113307   0.902   5.335   4.458  1.8670  0.7946  0.6148
  913THF    H1213308   0.725   5.289   4.595 -0.7489  0.2806 -0.7572
  913THF    H1313309   0.774   5.447   4.665 -1.0571  0.0163  0.6607
  914THF     O113310   4.077   2.741   2.625  0.9667  0.4561  0.0886
  914THF     C213311   4.165   2.728   2.739  0.2063 -0.6032  0.6790
  914THF     C313312   4.009   2.862   2.632  0.2907  0.3557  0.0281
  914THF     H413313   4.254   2.781   2.706 -1.1694  1.7112  0.5010
  914THF     H513314   4.187   2.626   2.773  0.7122 -0.9065 -0.5305
  914THF     H613315   4.075   2.938   2.588 -2.5028  3.0727  0.1402
  914THF     H713316   3.924   2.870   2.564  1.7826 -2.0809 -2.3247
  914THF     C813317   3.993   2.893   2.784 -0.3273  0.3043  0.8419
  914THF     C913318   4.094   2.802   2.847  0.8985  0.0431  0.4003
  914THF    H1013319   3.890   2.891   2.819  0.6290  3.8201  4.5859
  914THF    H1113320   4.023   2.997   2.796 -0.5600  0.4094  0.5474
  914THF    H1213321   4.161   2.857   2.913 -1.1366  1.3021  1.5013
  914THF    H1313322   4.038   2.731   2.908  1.0570  0.6472  1.2736
  915THF     O113323   0.943   1.720   3.049  0.5101  0.0303  0.0729
  915THF     C213324   0.975   1.847   3.098 -0.1889 -0.3705 -0.1718
  915THF     C313325   0.808   1.711   3.018 -0.4299  0.2084 -0.1807
  915THF     H413326   1.016   1.897   3.010  2.5575 -0.3305  1.0029
  915THF     H513327   1.046   1.851   3.181 -0.4229 -1.3044  0.0874
  915THF     H613328   0.791   1.716   2.911  1.8646 -3.9483 -0.9420
  915THF     H713329   0.781   1.614   3.060 -3.3735  1.0421  0.0701
  915THF     C813330   0.739   1.815   3.107  0.1216 -0.2165  0.1133
  915THF     C913331   0.844   1.906   3.158  0.7162  1.1423 -0.1551
  915THF    H1013332   0.706   1.756   3.192  1.5725  0.2781  1.0623
  915THF    H1113333   0.661   1.876   3.063  2.4190  1.9695 -1.2153
  915THF    H1213334   0.816   2.007   3.128 -0.6242  1.2423  1.3278
  915THF    H1313335   0.841   1.920   3.266  1.2969 -1.7754  0.3169
  916THF     O113336   3.858   3.659   4.456 -0.1128 -0.0610 -0.3248
  916THF     C213337   3.822   3.539   4.393  0.5282  0.5581 -0.2853
  916THF     C313338   3.934   3.612   4.573 -0.0401  0.3603  0.5686
  916THF     H413339   3.861   3.543   4.291  0.3456 -3.4929 -0.6611
  916THF     H513340   3.714   3.543   4.376  0.5029  0.3941 -0.1619
  916THF     H613341   4.043   3.603   4.567  0.1314  1.6031  1.4007
  916THF     H713342   3.914   3.680   4.657 -0.3065 -1.7604  2.3150
  916THF     C813343   3.893   3.471   4.612  0.4179  0.5091  0.4153
  916THF     C913344   3.867   3.417   4.476  0.0201  0.1440 -0.1632
  916THF    H1013345   3.800   3.482   4.668  1.3823 -0.6812  2.3671
  916THF    H1113346   3.963   3.413   4.672  1.3961  0.4143 -0.7883
  916THF    H1213347   3.957   3.374   4.432 -0.3111 -2.0799  1.1634
  916THF    H1313348   3.796   3.335   4.467 -0.0419  0.3318 -1.6579
  917THF     O113349   1.825   0.636   2.901  0.0653 -0.3264  0.5072
  917THF     C213350   1.758   0.573   2.786  1.0022  0.6253 -0.1570
  917THF     C313351   1.858   0.537   2.996 -0.1502 -0.2589  0.0173
  917THF     H413352   1.818   0.577   2.696  2.8132 -0.9577  0.9138
  917THF     H513353   1.670   0.629   2.754 -0.3287 -0.4859  1.4229
  917THF     H613354   1.949   0.484   2.966  0.8549  0.9435  0.8442
  917THF     H713355   1.883   0.576   3.094 -0.5204 -0.4811  0.2038
  917THF     C813356   1.751   0.430   2.994 -0.1105  0.0245 -0.4767
  917THF     C913357   1.711   0.433   2.847  0.4581 -0.4108 -0.6867
  917THF    H1013358   1.672   0.463   3.062  0.4700 -1.3625  0.9385
  917THF    H1113359   1.794   0.337   3.030  0.4903  0.0143 -1.2038
  917THF    H1213360   1.764   0.358   2.788 -0.4707 -1.9084  0.3156
  917THF    H1313361   1.603   0.423   2.842  0.2515  0.9867  0.3656
  918THF     O113362   4.546   1.127   4.840  0.0454  0.1970 -0.4474
  918THF     C213363   4.555   1.159   4.701 -0.2441  0.3701  1.1220
  918THF     C313364   4.494   1.242   4.902 -0.2261  0.5748 -0.1625
  918THF     H413365   4.566   1.063   4.650  1.0345 -0.1157  2.2702
  918THF     H513366   4.640   1.225   4.683 -0.5173  0.4793  0.1803
  918THF     H613367   4.461   1.220   5.004 -1.3388  1.2568 -0.3572
  918THF     H713368   4.562   1.327   4.896  0.7747 -0.1691  0.4219
  918THF     C813369   4.371   1.269   4.826 -0.4241 -0.2999 -0.2724
  918THF     C913370   4.420   1.230   4.681  0.7386  0.2864 -0.6681
  918THF    H1013371   4.357   1.377   4.833  1.6831  0.0438 -0.5699
  918THF    H1113372   4.283   1.216   4.861 -0.5975 -0.8911 -1.5381
  918THF    H1213373   4.346   1.173   4.625 -0.4935 -0.8295  1.9541
  918THF    H1313374   4.434   1.322   4.623 -1.0451 -0.4818 -2.4677
  919THF     O113375   1.997   4.887   3.786  0.8379  0.3185 -0.4264
  919THF     C213376   2.110   4.931   3.705  0.7075  0.1549  0.0276
  919THF     C313377   2.021   4.759   3.843  0.3565 -0.3587 -0.2225
  919THF     H413378   2.113   5.039   3.723 -3.0867  0.5097 -0.6757
  919THF     H513379   2.083   4.922   3.600 -0.9381 -1.0666  0.5210
  919THF     H613380   2.015   4.766   3.951 -0.8245 -2.7381 -0.0692
  919THF     H713381   1.938   4.698   3.807  2.5052 -3.7076  0.0797
  919THF     C813382   2.153   4.715   3.793 -0.2060 -0.0849  0.6033
  919THF     C913383   2.223   4.842   3.764 -0.4105 -0.1746  0.1097
  919THF    H1013384   2.146   4.656   3.702  0.4829  0.5886  0.0926
  919THF    H1113385   2.207   4.654   3.866  1.4844  0.5210 -0.0799
  919THF    H1213386   2.260   4.870   3.862 -0.4537  1.5383 -0.3259
  919THF    H1313387   2.306   4.819   3.696 -0.9604 -0.0917 -0.6062
  920THF     O113388   0.872   3.461   5.059 -0.1752 -0.3300  0.1021
  920THF     C213389   1.012   3.457   5.046 -0.0560  0.0346 -1.0016
  920THF     C313390   0.830   3.488   5.192  1.1622 -0.3484  0.3798
  920THF     H413391   1.058   3.551   5.015  4.3058 -1.5963 -0.1779
  920THF     H513392   1.035   3.373   4.981 -0.4378 -0.6715 -0.2415
  920THF     H613393   0.752   3.564   5.203  1.5469  0.0826  0.1373
  920THF     H713394   0.773   3.404   5.232 -2.4863  0.9267 -1.5761
  920THF     C813395   0.960   3.515   5.264 -0.2642 -0.6098 -0.9571
  920THF     C913396   1.060   3.422   5.192 -0.2412 -0.3255  0.5883
  920THF    H1013397   0.956   3.483   5.368 -0.1690  0.2395 -0.6876
  920THF    H1113398   0.990   3.619   5.259 -0.5916 -0.5605 -2.2591
  920THF    H1213399   1.165   3.441   5.214 -0.1520 -0.8710  0.6605
  920THF    H1313400   1.045   3.317   5.218 -1.6365  0.0418  1.3627
  921THF     O113401   4.681   0.769   5.120 -0.1908 -0.2577  0.7433
  921THF     C213402   4.616   0.885   5.061 -0.0266 -0.1313 -0.1094
  921THF     C313403   4.784   0.809   5.206  0.1064  0.2698  0.8654
  921THF     H413404   4.511   0.860   5.047 -0.4765  0.5640  1.7899
  921THF     H513405   4.656   0.907   4.962  0.5153  0.8837  0.3252
  921THF     H613406   4.819   0.735   5.277  0.4908 -0.4326 -0.0371
  921THF     H713407   4.871   0.840   5.149 -1.4700 -0.0666 -1.9500
  921THF     C813408   4.721   0.934   5.274 -0.5090  0.2970 -0.2546
  921THF     C913409   4.641   0.994   5.164 -0.3699 -0.1430  0.9936
  921THF    H1013410   4.795   1.013   5.292 -2.2695  2.4731 -1.9124
  921THF    H1113411   4.654   0.907   5.356 -1.7583 -2.9657 -2.1716
  921THF    H1213412   4.550   1.026   5.215  1.0169  0.2384  3.3869
  921THF    H1313413   4.683   1.082   5.116 -1.6959  0.4391  0.8529
  922THF     O113414   4.851   2.850   4.534 -0.5929 -0.4786 -0.2536
  922THF     C213415   4.954   2.920   4.589 -0.3307 -0.6277 -0.5309
  922THF     C313416   4.879   2.706   4.535 -0.0096 -0.2197  0.2496
  922THF     H413417   4.917   3.011   4.635 -0.1520 -0.1747 -1.2808
  922THF     H513418   5.017   2.948   4.505  1.8015  1.1616  1.5160
  922THF     H613419   4.787   2.653   4.558  1.0148 -1.4500  1.7459
  922THF     H713420   4.918   2.669   4.440  0.7933 -0.3906  0.6348
  922THF     C813421   4.984   2.678   4.640 -0.2031 -0.0633  0.5122
  922THF     C913422   5.018   2.825   4.695  0.3942  0.0296 -0.1918
  922THF    H1013423   5.072   2.624   4.604 -1.0185 -0.9312 -0.2040
  922THF    H1113424   4.940   2.613   4.716  0.7880 -1.7359 -0.2711
  922THF    H1213425   4.972   2.833   4.793 -0.5949 -0.9452 -0.5538
  922THF    H1313426   5.124   2.847   4.710  0.5690  0.2344 -1.5667
  923THF     O113427   4.642   0.616   2.373 -0.0536 -0.1684 -0.0614
  923THF     C213428   4.729   0.602   2.259  0.1266  0.5012  0.6277
  923THF     C313429   4.507   0.583   2.333 -0.0111  0.4509  0.3244
  923THF     H413430   4.835   0.604   2.285  0.4692  0.4117 -0.7019
  923THF     H513431   4.714   0.683   2.188 -0.5021  0.4435  0.6910
  923THF     H613432   4.449   0.553   2.419 -0.4943  0.6916  0.0856
  923THF     H713433   4.458   0.672   2.293  1.4241  0.4872 -1.5035
  923THF     C813434   4.523   0.472   2.228 -0.4624  0.2852 -0.6475
  923THF     C913435   4.674   0.469   2.197  0.5518  0.0424 -0.0257
  923THF    H1013436   4.460   0.499   2.143 -1.6257  0.7588  0.3360
  923THF    H1113437   4.485   0.374   2.260  0.1743  0.1795 -0.1982
  923THF    H1213438   4.725   0.384   2.244  0.9493  0.4948  0.3717
  923THF    H1313439   4.698   0.462   2.091 -1.1170  2.1288 -0.6053
  924THF     O113440   3.927   5.322   3.354  0.0204  0.8754 -0.6311
  924THF     C213441   3.808   5.326   3.425  0.6037  0.1889 -0.0049
  924THF     C313442   4.006   5.227   3.424  0.1499  0.3264 -0.6575
  924THF     H413443   3.735   5.371   3.358  0.6230 -0.5131 -0.5051
  924THF     H513444   3.834   5.387   3.511 -1.6935 -1.7876  2.2915
  924THF     H613445   4.078   5.175   3.361  0.2007 -0.7374  0.2439
  924THF     H713446   4.050   5.274   3.512 -0.4791  0.2735 -0.3047
  924THF     C813447   3.907   5.119   3.476 -0.1205 -0.6784  0.0656
  924THF     C913448   3.768   5.184   3.467  0.1945  0.2337 -0.0741
  924THF    H1013449   3.943   5.088   3.573 -0.1496 -0.7666  0.0479
  924THF    H1113450   3.895   5.030   3.414  1.0453 -0.9429  0.2083
  924THF    H1213451   3.694   5.128   3.411 -0.3515 -1.3484  2.1138
  924THF    H1313452   3.725   5.172   3.566  2.4033  1.0271  1.0461
  925THF     O113453   2.973   1.303   4.559 -0.2483 -0.6182  0.5483
  925THF     C213454   2.981   1.236   4.431  0.1820 -0.0590  0.3109
  925THF     C313455   2.954   1.206   4.657 -0.1389 -0.0773 -0.0313
  925THF     H413456   3.024   1.290   4.347 -2.5213  0.1359 -1.0593
  925THF     H513457   2.877   1.241   4.399  0.0081 -1.0865  0.6756
  925THF     H613458   2.996   1.245   4.749 -1.7932  2.4673 -0.2355
  925THF     H713459   2.846   1.189   4.665  0.0663 -0.7861  1.4008
  925THF     C813460   3.029   1.082   4.608 -0.0644 -0.1944 -0.2801
  925THF     C913461   3.025   1.098   4.458  0.6042  0.5704  0.3241
  925THF    H1013462   2.987   0.986   4.641  0.1962 -1.0809 -2.3868
  925THF    H1113463   3.133   1.088   4.642  0.6113  3.6570 -2.5079
  925THF    H1213464   3.125   1.082   4.419 -0.1989 -0.2153 -1.5397
  925THF    H1313465   2.956   1.025   4.415  2.5072 -0.8869 -0.3691
  926THF     O113466   3.736   1.627   0.462 -0.2268 -0.4677  1.0880
  926THF     C213467   3.866   1.636   0.401  0.6560 -0.0878 -0.2867
  926THF     C313468   3.650   1.649   0.356 -0.1069  1.2314 -0.1420
  926THF     H413469   3.938   1.591   0.471 -1.1952 -0.6665  1.3309
  926THF     H513470   3.894   1.741   0.387  0.9693 -0.0175  0.7372
  926THF     H613471   3.551   1.622   0.394 -0.6348  1.8760 -1.0385
  926THF     H713472   3.646   1.757   0.341 -0.3849  1.1443 -0.7276
  926THF     C813473   3.717   1.570   0.237  0.5834 -0.0847  0.0989
  926THF     C913474   3.864   1.562   0.272  0.1157  0.6702  0.0075
  926THF    H1013475   3.695   1.612   0.139 -0.8488 -0.9625  0.0031
  926THF    H1113476   3.671   1.471   0.242  0.9152 -0.2452  0.0124
  926THF    H1213477   3.897   1.460   0.289  1.3537  0.5848 -2.4513
  926THF    H1313478   3.930   1.613   0.202  1.1114 -0.7220 -0.1136
  927THF     O113479   4.426   4.023   4.303  0.2644 -0.4364 -0.3031
  927THF     C213480   4.516   4.071   4.403  0.2073 -0.2850  0.1827
  927THF     C313481   4.387   4.145   4.229  0.1815  0.6093 -0.1353
  927THF     H413482   4.584   3.990   4.431  1.5105  0.4672 -0.7332
  927THF     H513483   4.457   4.116   4.483  0.3061 -1.5474  1.0113
  927THF     H613484   4.359   4.131   4.125  0.0050  1.7474 -0.2487
  927THF     H713485   4.304   4.187   4.284  0.9230  1.3773  0.4243
  927THF     C813486   4.506   4.240   4.246 -0.1607  0.5969 -0.5519
  927THF     C913487   4.611   4.168   4.336 -0.3194  0.0268 -0.8944
  927THF    H1013488   4.482   4.333   4.297  0.5370 -0.5826  2.0919
  927THF    H1113489   4.545   4.259   4.146 -1.5602  1.1324 -1.0150
  927THF    H1213490   4.684   4.122   4.269  0.4658  0.5605 -0.4108
  927THF    H1313491   4.650   4.230   4.416 -0.7604 -0.5027 -0.2507
  928THF     O113492   0.145   5.206   1.429 -0.6942 -0.4150  0.0603
  928THF     C213493   0.266   5.252   1.482 -0.4384  0.8093  0.3340
  928THF     C313494   0.077   5.132   1.530 -0.0704 -0.1613  0.1320
  928THF     H413495   0.309   5.335   1.428  0.7597 -0.9075 -1.4974
  928THF     H513496   0.344   5.176   1.472 -0.9684  0.5051 -2.1294
  928THF     H613497  -0.030   5.151   1.523  0.1691  1.4161  0.3523
  928THF     H713498   0.073   5.026   1.503 -1.0965 -0.0364 -0.2582
  928THF     C813499   0.138   5.166   1.664 -0.1168  0.7623  0.0863
  928THF     C913500   0.235   5.279   1.630  0.3109  0.0466  0.4657
  928THF    H1013501   0.194   5.086   1.712 -0.7027 -0.0944 -0.6276
  928THF    H1113502   0.056   5.193   1.731 -1.2044 -1.7296 -0.1547
  928THF    H1213503   0.195   5.378   1.654  1.4505  0.2614  1.6006
  928THF    H1313504   0.325   5.268   1.691  1.3441  1.6168 -0.6941
  929THF     O113505   4.233   4.267   4.961  0.5150 -1.0182  0.7109
  929THF     C213506   4.241   4.135   5.013 -0.0133  0.4342 -0.0436
  929THF     C313507   4.359   4.304   4.903 -0.8107  0.3993 -1.3979
  929THF     H413508   4.257   4.062   4.933  0.6788  0.6075 -0.0675
  929THF     H513509   4.160   4.122   5.084  1.0181  0.5120  1.1887
  929THF     H613510   4.354   4.266   4.801 -0.3029 -0.6396 -1.0449
  929THF     H713511   4.388   4.409   4.898 -1.9079  0.7275 -1.2190
  929THF     C813512   4.457   4.245   5.011  0.4748  0.1236 -0.4212
  929THF     C913513   4.374   4.138   5.085 -0.0580  0.2912  0.3208
  929THF    H1013514   4.479   4.321   5.086  0.8598 -0.3168 -0.0784
  929THF    H1113515   4.550   4.211   4.966  2.6407  3.1880  1.3423
  929THF    H1213516   4.419   4.040   5.068 -0.1904  0.4823 -1.3502
  929THF    H1313517   4.367   4.160   5.191  1.1073  1.5890  0.1534
  930THF     O113518   1.900   0.892   1.783 -0.2833  0.2795  0.1321
  930THF     C213519   1.889   1.022   1.846  0.4068 -0.8549  0.0528
  930THF     C313520   1.901   0.794   1.887 -0.0201  0.2741  0.4758
  930THF     H413521   1.786   1.052   1.863  0.1549 -0.3365 -2.0904
  930THF     H513522   1.939   1.099   1.787 -2.9769  3.3005  2.0598
  930THF     H613523   1.797   0.774   1.914  0.4828 -0.8019  1.7630
  930THF     H713524   1.961   0.706   1.865  1.7387  1.4773  0.2731
  930THF     C813525   1.977   0.864   2.002  0.1794 -0.4657 -0.2012
  930THF     C913526   1.970   1.010   1.976  0.8792 -0.2430 -0.3067
  930THF    H1013527   2.078   0.824   1.997 -0.5882 -2.9366  2.0708
  930THF    H1113528   1.945   0.834   2.102  2.2244  0.6200  0.8428
  930THF    H1213529   1.919   1.058   2.059 -0.6341  0.4898 -1.6015
  930THF    H1313530   2.073   1.044   1.963  1.3025 -1.4768 -0.3235
  931THF     O113531   0.971   0.277   0.415 -0.4272  0.0711  0.3846
  931THF     C213532   0.841   0.332   0.409 -0.1106 -0.0112 -0.2195
  931THF     C313533   1.054   0.381   0.475 -0.4673 -0.5738  0.0375
  931THF     H413534   0.766   0.266   0.366  1.3781 -1.3339 -0.9009
  931THF     H513535   0.863   0.414   0.340  0.9486 -0.8539 -0.9177
  931THF     H613536   1.143   0.344   0.524 -0.6748 -0.2000  0.7156
  931THF     H713537   1.095   0.448   0.399  0.0990  0.0937  0.9211
  931THF     C813538   0.964   0.452   0.574 -0.4243 -0.1596 -0.1140
  931THF     C913539   0.824   0.409   0.539  0.3003  0.4373  0.4391
  931THF    H1013540   0.968   0.561   0.577  1.2922 -0.1966 -0.3224
  931THF    H1113541   0.995   0.424   0.674  1.7990  0.6970 -0.5113
  931THF    H1213542   0.791   0.340   0.617 -2.3000  1.4364  0.3139
  931THF    H1313543   0.755   0.493   0.534  0.2353  0.5981  2.7861
  932THF     O113544   0.925   1.431   1.046  0.4100 -0.4663  0.8796
  932THF     C213545   0.995   1.319   1.005  0.0524  0.0394  0.0245
  932THF     C313546   1.021   1.538   1.073 -0.1483 -0.2286 -0.1132
  932THF     H413547   0.937   1.276   0.923 -0.2547  0.8678 -0.2111
  932THF     H513548   1.019   1.248   1.084 -0.1821  0.4472  0.4682
  932THF     H613549   0.976   1.636   1.084 -0.4327 -0.2614 -0.9003
  932THF     H713550   1.080   1.524   1.164 -0.0460  0.6144 -0.0461
  932THF     C813551   1.117   1.523   0.953 -0.1547  0.0217 -0.4581
  932THF     C913552   1.124   1.373   0.934  0.0924  0.0851 -0.0303
  932THF    H1013553   1.217   1.562   0.972 -0.0687 -1.3515  2.3146
  932THF    H1113554   1.075   1.582   0.871 -1.4471  1.6866  1.2882
  932THF    H1213555   1.141   1.332   0.835  1.3000  0.0960  0.1647
  932THF    H1313556   1.214   1.330   0.976  0.7353 -1.2250 -2.5686
  933THF     O113557   4.992   2.583   2.650  0.5719  0.7332  1.0388
  933THF     C213558   5.128   2.551   2.651 -0.6014 -0.3836 -0.2444
  933THF     C313559   4.929   2.454   2.660 -0.1602  0.3237 -0.0390
  933THF     H413560   5.170   2.540   2.750 -1.8737 -0.9855  0.2520
  933THF     H513561   5.181   2.633   2.601  0.4399 -1.3846 -0.8264
  933THF     H613562   4.930   2.416   2.762 -1.8444  0.4623  0.0519
  933THF     H713563   4.822   2.463   2.642 -0.2580 -1.3855 -0.4738
  933THF     C813564   5.002   2.356   2.566 -0.4386 -0.5071  0.9795
  933THF     C913565   5.143   2.424   2.566  0.4040 -0.6887  0.1889
  933THF    H1013566   4.965   2.357   2.464  0.8968  0.3373  0.4861
  933THF    H1113567   4.994   2.252   2.599 -1.0387 -0.2727  1.6025
  933THF    H1213568   5.221   2.360   2.609  0.3245 -0.6122  0.4458
  933THF    H1313569   5.181   2.432   2.464  2.6422 -0.9831  0.9435
  934THF     O113570   0.373   0.255   0.418 -0.0818  0.5809  0.1759
  934THF     C213571   0.364   0.110   0.437  0.6910 -0.0344  0.0678
  934THF     C313572   0.418   0.314   0.541 -0.4872 -0.2139 -0.0713
  934THF     H413573   0.402   0.057   0.349 -0.9413 -1.6155  0.2535
  934THF     H513574   0.265   0.070   0.461  0.2784 -0.0638 -1.5819
  934THF     H613575   0.517   0.358   0.548 -0.6033 -0.1854  1.7563
  934THF     H713576   0.351   0.397   0.563 -0.9679 -0.0612 -1.9656
  934THF     C813577   0.424   0.204   0.646 -0.2144  0.3545  0.0722
  934THF     C913578   0.447   0.081   0.558 -0.1500 -0.8491  0.5447
  934THF    H1013579   0.331   0.208   0.702 -0.5828 -0.7760 -0.4491
  934THF    H1113580   0.500   0.227   0.721 -0.3699 -1.7444  0.9320
  934THF    H1213581   0.554   0.078   0.537 -0.2598 -1.2343  0.0455
  934THF    H1313582   0.425  -0.012   0.610 -0.2702 -0.9897  0.2451
  935THF     O113583   2.600   0.344   3.589 -0.2302 -0.8471  0.1740
  935THF     C213584   2.740   0.343   3.606  0.2668 -0.0712 -0.0028
  935THF     C313585   2.554   0.440   3.689 -0.4258  0.2262 -0.1969
  935THF     H413586   2.782   0.439   3.574  1.2428 -0.9552 -1.5413
  935THF     H513587   2.785   0.259   3.552 -0.6854  0.6682 -2.0436
  935THF     H613588   2.589   0.541   3.665 -0.9532  0.3212 -0.5855
  935THF     H713589   2.448   0.443   3.713 -0.3395 -1.9609  0.6422
  935THF     C813590   2.618   0.380   3.815  0.7265 -0.7796  0.4024
  935THF     C913591   2.749   0.322   3.759 -0.4882  0.1101  0.0282
  935THF    H1013592   2.560   0.301   3.861 -1.1542  0.9447  1.1517
  935THF    H1113593   2.645   0.451   3.893  0.0027  0.6945 -0.6347
  935THF    H1213594   2.837   0.371   3.801  1.1706 -2.0403 -0.7398
  935THF    H1313595   2.746   0.215   3.781  1.8396  0.2542  1.4148
  936THF     O113596   0.822   0.065   2.548  0.7221 -0.6347  0.2531
  936THF     C213597   0.900   0.168   2.501 -0.2798  0.3553  0.6194
  936THF     C313598   0.728   0.017   2.448  0.5772  0.1175 -0.4420
  936THF     H413599   0.984   0.133   2.441  0.8251 -0.2942  2.4800
  936THF     H513600   0.936   0.230   2.583  0.7689  0.7745 -0.1347
  936THF     H613601   0.757  -0.071   2.390  1.3464  0.1502 -0.1160
  936THF     H713602   0.632   0.007   2.499  0.8945 -0.3681  0.0706
  936THF     C813603   0.730   0.130   2.349 -0.0318 -0.8711 -0.8642
  936THF     C913604   0.804   0.243   2.418 -0.0692  0.0254  0.1221
  936THF    H1013605   0.630   0.156   2.313 -1.4672 -2.5278  1.6307
  936THF    H1113606   0.794   0.105   2.264  0.7746  2.1067 -1.2367
  936THF    H1213607   0.843   0.317   2.349  1.8754 -0.8281  0.2411
  936THF    H1313608   0.735   0.301   2.479  0.5834  0.5717  0.3523
  937THF     O113609   3.520   0.808   3.221 -0.3812  0.2426  0.2248
  937THF     C213610   3.593   0.797   3.338  0.5502 -0.9023  0.2272
  937THF     C313611   3.435   0.923   3.231  0.2397 -0.2629 -0.2694
  937THF     H413612   3.675   0.866   3.320 -2.1599  2.6879  0.5965
  937THF     H513613   3.616   0.691   3.351 -0.4706 -1.0903  0.5481
  937THF     H613614   3.496   1.008   3.199  0.3741 -0.1845  0.1867
  937THF     H713615   3.349   0.921   3.164  1.6881 -0.4497 -2.2001
  937THF     C813616   3.414   0.944   3.383 -0.1975 -0.1448  0.7056
  937THF     C913617   3.502   0.840   3.447  0.7562 -0.3849  0.4027
  937THF    H1013618   3.310   0.934   3.415  0.4802 -1.4344  2.7375
  937THF    H1113619   3.442   1.041   3.425  0.4461 -0.2211  0.4671
  937THF    H1213620   3.559   0.874   3.534 -0.3568 -1.3615  1.5447
  937THF    H1313621   3.430   0.769   3.487  0.1630  0.4910  0.9165
  938THF     O113622   4.977   5.171   2.036  0.3897  0.4120 -0.2490
  938THF     C213623   5.019   5.042   2.081 -0.1061 -0.1175 -0.1532
  938THF     C313624   4.843   5.165   2.005 -0.6904 -0.2289 -1.1203
  938THF     H413625   5.097   5.041   2.157  0.8695 -3.6380 -0.9937
  938THF     H513626   5.057   4.984   1.997  1.7939  1.5680 -0.5309
  938THF     H613627   4.809   5.259   2.048 -1.3960 -0.9212 -0.0969
  938THF     H713628   4.838   5.145   1.898  2.1803  0.5266 -1.4621
  938THF     C813629   4.779   5.043   2.075  0.3774 -0.0392  0.3943
  938THF     C913630   4.896   4.979   2.143 -0.3025  0.1324  0.3679
  938THF    H1013631   4.731   4.985   1.997 -1.8415  0.6973  1.1535
  938THF    H1113632   4.710   5.078   2.152 -0.3664  0.8407 -0.6491
  938THF    H1213633   4.892   4.995   2.250 -1.6536  0.5137  0.2707
  938THF    H1313634   4.882   4.871   2.133 -3.8079  0.4091  1.3108
  939THF     O113635   0.015   0.747   2.727  0.0538  0.2052 -0.4384
  939THF     C213636   0.092   0.664   2.646 -0.6962  0.3351  0.4834
  939THF     C313637  -0.116   0.750   2.674 -0.2751  0.9867 -0.2282
  939THF     H413638   0.160   0.619   2.720 -3.1813  0.3734  2.9671
  939THF     H513639   0.144   0.732   2.579  1.2425  0.8521  2.3775
  939THF     H613640  -0.195   0.773   2.746 -0.1529  0.2197  0.1651
  939THF     H713641  -0.121   0.811   2.584 -1.4374  0.7373 -0.3512
  939THF     C813642  -0.145   0.614   2.615 -0.1530 -0.0093  0.1681
  939THF     C913643  -0.004   0.565   2.580 -0.4801 -0.1181 -0.1386
  939THF    H1013644  -0.213   0.622   2.530  0.1030  0.9182  0.0326
  939THF    H1113645  -0.181   0.549   2.695  1.0805 -1.5024 -0.4388
  939THF    H1213646   0.019   0.465   2.617  2.4227  0.6355  0.3277
  939THF    H1313647   0.006   0.569   2.472  0.0384  1.4298 -0.0587
  940THF     O113648   2.975   3.097   1.488  0.8665 -0.7371 -0.3535
  940THF     C213649   2.852   3.163   1.502  0.2994  0.5018 -0.0629
  940THF     C313650   2.944   2.958   1.465  0.1789  0.0091  0.2923
  940THF     H413651   2.864   3.272   1.499 -0.6519  0.6097 -2.5039
  940THF     H513652   2.804   3.135   1.596  1.1488 -1.5534 -0.1890
  940THF     H613653   3.036   2.907   1.436 -0.4486 -0.9724 -0.0383
  940THF     H713654   2.911   2.910   1.557  1.9281 -0.6068  0.6407
  940THF     C813655   2.837   2.967   1.352 -0.5475 -0.5304  0.6594
  940THF     C913656   2.780   3.105   1.380 -0.5561 -0.5008 -0.2279
  940THF    H1013657   2.765   2.887   1.369 -1.6710  0.5307  0.9672
  940THF    H1113658   2.884   2.976   1.253 -1.4227  0.6153  0.3316
  940THF    H1213659   2.783   3.173   1.295 -1.8606 -1.3302 -0.9672
  940THF    H1313660   2.677   3.100   1.415 -0.3411 -0.0035  0.5176
  941THF     O113661   5.134   4.820   0.722 -0.0299 -0.6616  0.8981
  941THF     C213662   5.068   4.739   0.820 -0.2052 -0.0546 -0.3201
  941THF     C313663   5.127   4.753   0.599 -0.1324  0.5047 -0.1317
  941THF     H413664   5.050   4.795   0.911  1.7522  1.3734 -0.7280
  941THF     H513665   5.136   4.654   0.832  0.2370 -0.1350 -2.7839
  941THF     H613666   5.133   4.826   0.518 -1.9117  0.0892 -0.6907
  941THF     H713667   5.211   4.684   0.596  2.2036  3.0442  1.9084
  941THF     C813668   5.004   4.664   0.604 -0.0695 -0.2676 -0.5793
  941THF     C913669   4.945   4.682   0.743 -0.2258  1.0612 -0.4934
  941THF    H1013670   5.018   4.558   0.581 -0.0306 -0.3598 -0.1407
  941THF    H1113671   4.934   4.687   0.524  0.7417 -0.5243 -1.3843
  941THF    H1213672   4.867   4.757   0.752 -1.4797 -0.4479  3.1923
  941THF    H1313673   4.917   4.584   0.781 -0.2871  1.7062  1.1903
  942THF     O113674   4.419   4.526   0.496 -0.0538 -0.3998  0.2099
  942THF     C213675   4.544   4.597   0.498  0.2044  0.0705 -0.6283
  942THF     C313676   4.434   4.383   0.481  0.0099  0.3286  0.0448
  942THF     H413677   4.590   4.606   0.596  0.3267  0.4302 -0.7188
  942THF     H513678   4.540   4.695   0.451 -0.0907 -0.2797 -1.3429
  942THF     H613679   4.455   4.338   0.578  1.6908 -0.1020 -0.4825
  942THF     H713680   4.354   4.334   0.426  0.4903  0.0037 -0.3635
  942THF     C813681   4.569   4.366   0.413  0.1814  0.4048  0.1520
  942THF     C913682   4.644   4.502   0.420  0.3228 -0.2039  0.4316
  942THF    H1013683   4.549   4.345   0.308 -1.2801  0.5809  0.3758
  942THF    H1113684   4.636   4.286   0.446 -0.6615  0.4265  2.0869
  942THF    H1213685   4.742   4.500   0.466 -0.2267 -1.2530  1.6028
  942THF    H1313686   4.659   4.534   0.317 -1.2838 -3.4057 -0.9370
  943THF     O113687   1.317   5.039   4.206  0.1218  0.3448  0.6863
  943THF     C213688   1.374   5.066   4.331 -0.4048 -0.7778  0.3064
  943THF     C313689   1.318   5.161   4.128 -0.3469 -0.0467 -0.1989
  943THF     H413690   1.482   5.069   4.319 -0.4862 -2.3012 -1.1417
  943THF     H513691   1.345   4.986   4.399 -1.1582  1.1804  2.4337
  943THF     H613692   1.403   5.163   4.060 -0.2642  1.3126 -0.0796
  943THF     H713693   1.222   5.164   4.076 -0.4777 -1.3328 -0.0585
  943THF     C813694   1.342   5.272   4.230  0.7316 -0.0429 -0.1992
  943THF     C913695   1.316   5.201   4.362  0.3395  0.4098  0.0711
  943THF    H1013696   1.274   5.357   4.223  0.4079 -0.3256 -0.5732
  943THF    H1113697   1.439   5.321   4.223 -0.4660  2.4320 -0.7603
  943THF    H1213698   1.354   5.244   4.454  1.0459 -1.0749  0.5021
  943THF    H1313699   1.208   5.190   4.377  0.7304 -0.9199  2.2110
  944THF     O113700   0.423   4.039   3.824 -0.1081  0.4627  0.1056
  944THF     C213701   0.499   4.157   3.802 -0.0257 -0.3385 -0.7253
  944THF     C313702   0.351   4.061   3.949  0.6713 -0.7459 -0.0188
  944THF     H413703   0.517   4.168   3.695 -0.6920  0.4627 -0.7672
  944THF     H513704   0.589   4.149   3.862 -0.0510  0.1259 -0.6208
  944THF     H613705   0.266   3.994   3.937  0.7508 -1.2473  1.9007
  944THF     H713706   0.417   4.033   4.031  0.3321  0.5115  0.7169
  944THF     C813707   0.313   4.213   3.945 -0.6106  0.4186 -0.2016
  944THF     C913708   0.421   4.284   3.862  0.0676 -0.1737 -0.2207
  944THF    H1013709   0.295   4.259   4.042 -3.6637  2.5985 -1.6426
  944THF    H1113710   0.220   4.220   3.889 -1.7559 -1.1258  1.3879
  944THF    H1213711   0.374   4.343   3.784 -1.4569  1.0218  1.5056
  944THF    H1313712   0.481   4.350   3.924 -0.4656 -1.1017  1.3521
  945THF     O113713   1.263   1.342   4.985 -0.3677  0.3016 -0.7217
  945THF     C213714   1.144   1.389   5.055 -0.6196 -0.6978  0.2890
  945THF     C313715   1.302   1.214   5.041 -0.6917 -0.1876 -0.3326
  945THF     H413716   1.055   1.347   5.009  0.4602 -2.4853 -0.2507
  945THF     H513717   1.144   1.498   5.065 -0.0092 -0.6135 -0.5089
  945THF     H613718   1.240   1.139   4.992  0.2000 -1.9577  1.1099
  945THF     H713719   1.401   1.185   5.005 -0.7853 -0.5844 -0.2778
  945THF     C813720   1.274   1.224   5.194 -0.9416 -0.2446  0.2499
  945THF     C913721   1.152   1.323   5.193 -0.4309 -0.1533  0.4850
  945THF    H1013722   1.368   1.256   5.241 -0.4890  0.2321 -0.9277
  945THF    H1113723   1.248   1.122   5.218  0.7873 -1.2608 -1.8283
  945THF    H1213724   1.054   1.281   5.215  0.5564 -2.2954  0.9837
  945THF    H1313725   1.165   1.409   5.260  0.7450  0.3052 -0.2854
  946THF     O113726   4.560   1.140   0.147 -0.0958 -0.3348 -0.2769
  946THF     C213727   4.468   1.033   0.130  0.7324 -0.6899  0.6526
  946THF     C313728   4.527   1.205   0.266 -0.1339 -0.2730 -0.7109
  946THF     H413729   4.492   0.959   0.054  0.6929  2.2747 -2.5262
  946THF     H513730   4.369   1.072   0.105  0.5679 -0.5733  1.4514
  946THF     H613731   4.623   1.247   0.296  0.6377 -0.3927 -2.8491
  946THF     H713732   4.455   1.284   0.243 -0.6886 -0.0988  1.3861
  946THF     C813733   4.460   1.100   0.356 -0.2758 -0.5665  1.3532
  946THF     C913734   4.467   0.980   0.268 -0.4655 -0.0696 -0.2012
  946THF    H1013735   4.356   1.118   0.382 -1.2131  0.0433 -2.3624
  946THF    H1113736   4.501   1.088   0.457 -0.6360 -0.0013  1.5702
  946THF    H1213737   4.551   0.913   0.282  0.0183  0.7317  0.8169
  946THF    H1313738   4.378   0.918   0.278  0.4269 -1.3004  0.3300
  947THF     O113739   1.737   1.235   1.288 -0.0494 -0.5544  0.1151
  947THF     C213740   1.744   1.137   1.183  0.5006  0.4142  0.1784
  947THF     C313741   1.751   1.174   1.410 -0.6407  0.1031  0.1784
  947THF     H413742   1.798   1.170   1.095 -0.1151  3.1209  0.7424
  947THF     H513743   1.641   1.111   1.157  0.6208  1.8491 -1.9565
  947THF     H613744   1.854   1.191   1.441  0.5246 -1.2606 -2.5805
  947THF     H713745   1.683   1.206   1.489 -2.3872  0.4696 -1.4109
  947THF     C813746   1.734   1.022   1.374  0.1126 -0.2956 -0.6072
  947THF     C913747   1.810   1.013   1.247 -0.1738  0.1226 -0.4422
  947THF    H1013748   1.629   0.993   1.364  0.3872 -0.9941 -1.7371
  947THF    H1113749   1.775   0.963   1.456  1.0844 -0.3564 -1.1271
  947THF    H1213750   1.915   1.009   1.277  0.1481 -0.6090 -1.6335
  947THF    H1313751   1.790   0.918   1.198  2.6142 -0.3908 -0.7754
  948THF     O113752   2.346   1.384   3.511 -0.1649 -0.3277  0.5790
  948THF     C213753   2.307   1.506   3.572 -0.2394 -0.1320  0.1379
  948THF     C313754   2.414   1.301   3.598 -0.2769 -0.4829 -0.6235
  948THF     H413755   2.201   1.500   3.598 -0.3031 -1.1068 -0.3058
  948THF     H513756   2.320   1.583   3.495  0.8363 -3.1250 -2.9113
  948THF     H613757   2.366   1.203   3.601 -0.4084 -0.4111 -0.3849
  948THF     H713758   2.514   1.288   3.557  0.9038 -0.8094  2.1469
  948THF     C813759   2.425   1.367   3.741  0.0452 -0.1410 -0.3967
  948THF     C913760   2.404   1.514   3.694 -0.1964  0.6254  0.3836
  948THF    H1013761   2.524   1.356   3.785 -0.2629  0.8726  0.5908
  948THF    H1113762   2.346   1.328   3.805  1.1729  1.2675  2.0014
  948THF    H1213763   2.364   1.572   3.777 -2.2426 -0.3175  0.0961
  948THF    H1313764   2.498   1.564   3.668  0.8768 -1.5052 -0.1082
  949THF     O113765   2.737   3.100   0.096  0.6182  0.0537  0.0259
  949THF     C213766   2.666   3.213   0.152  0.5790  0.4669  0.3171
  949THF     C313767   2.722   2.991   0.190  0.1036 -0.2607 -0.5773
  949THF     H413768   2.624   3.279   0.076  1.9011  0.4944 -0.4052
  949THF     H513769   2.738   3.277   0.203  0.1490  1.1233  0.1115
  949THF     H613770   2.753   2.899   0.140 -0.8806 -0.5350 -0.7093
  949THF     H713771   2.804   2.997   0.262  1.3823 -0.8777 -1.9129
  949THF     C813772   2.585   3.006   0.247 -0.4309  0.1249 -0.1991
  949THF     C913773   2.566   3.160   0.253  0.0308 -0.0593  0.5213
  949THF    H1013774   2.584   2.953   0.342  1.5187 -0.7295 -0.6032
  949THF    H1113775   2.514   2.956   0.182 -1.0545  0.6320  0.0809
  949THF    H1213776   2.470   3.208   0.232  0.1729  0.2716  0.6314
  949THF    H1313777   2.603   3.177   0.353  0.8826 -3.0099  0.8183
  950THF     O113778   3.785   1.147   3.764  0.5026 -0.4109  0.2849
  950THF     C213779   3.685   1.162   3.664 -0.2264 -0.3890 -0.5317
  950THF     C313780   3.723   1.163   3.887  0.0767 -0.1205 -0.4020
  950THF     H413781   3.632   1.066   3.660  2.4823 -1.9611 -3.1734
  950THF     H513782   3.719   1.188   3.564 -0.0979 -1.6842 -0.8529
  950THF     H613783   3.695   1.070   3.936 -0.8178  0.4102  0.1263
  950THF     H713784   3.798   1.209   3.951  0.3429  2.2977 -2.3149
  950THF     C813785   3.600   1.252   3.869 -0.0366  0.4392  0.6489
  950THF     C913786   3.591   1.271   3.723 -0.3089  0.4499  0.7106
  950THF    H1013787   3.587   1.342   3.929  0.1312  0.3894  0.7593
  950THF    H1113788   3.515   1.193   3.903 -0.3272  1.3655  1.5906
  950THF    H1213789   3.494   1.261   3.675  0.9969 -2.6918 -1.5905
  950THF    H1313790   3.638   1.362   3.685  1.6547 -0.2911  1.2160
  951THF     O113791   2.134   4.988   0.514  0.1045  0.0648  0.0362
  951THF     C213792   2.093   4.887   0.428 -0.8438 -0.6018  0.0022
  951THF     C313793   2.070   4.952   0.639 -0.2653  0.0753  0.4541
  951THF     H413794   2.130   4.897   0.326 -0.1414 -1.6667  0.1272
  951THF     H513795   1.988   4.903   0.405 -0.6802 -1.1309 -1.1561
  951THF     H613796   2.120   5.021   0.707  0.3429  0.8981 -0.8048
  951THF     H713797   1.962   4.968   0.648 -0.2319  0.3234  0.3962
  951THF     C813798   2.115   4.808   0.653  0.1562 -0.6552  0.1886
  951THF     C913799   2.116   4.757   0.506  0.0578 -0.9397 -0.1991
  951THF    H1013800   2.053   4.737   0.709 -3.3146  1.9041 -0.0653
  951THF    H1113801   2.209   4.812   0.708  0.1211  0.8357  0.1745
  951THF    H1213802   2.216   4.719   0.483  1.5417  2.1772  0.4809
  951THF    H1313803   2.038   4.686   0.480 -0.0179 -1.1827  0.6748
  952THF     O113804   3.032   0.812   0.931 -0.5679 -0.0259  0.5522
  952THF     C213805   3.108   0.739   1.021  0.7065  0.0289  0.2707
  952THF     C313806   2.946   0.725   0.858 -0.2135  0.1844 -0.5034
  952THF     H413807   3.062   0.740   1.119  1.4281 -2.4827  0.7079
  952THF     H513808   3.211   0.773   1.032  0.4726  0.6729  0.5450
  952THF     H613809   2.854   0.710   0.915  0.2133 -1.3396 -0.1648
  952THF     H713810   2.926   0.764   0.758  1.7062  0.3891 -0.8457
  952THF     C813811   3.027   0.601   0.837  0.0811  0.4523  0.2192
  952THF     C913812   3.103   0.593   0.968 -0.0644 -0.7980 -0.3192
  952THF    H1013813   3.084   0.625   0.747 -2.4243  0.4988 -1.4655
  952THF    H1113814   2.960   0.518   0.818  2.5305 -2.9499  4.4203
  952THF    H1213815   3.045   0.534   1.039 -0.5590  0.4784  0.3785
  952THF    H1313816   3.206   0.557   0.968  0.1848 -0.1122  0.0522
  953THF     O113817   3.944   2.749   1.046  0.1173  0.0817 -0.2349
  953THF     C213818   3.801   2.773   1.063 -0.5145 -0.6294  0.0827
  953THF     C313819   3.987   2.845   0.948 -0.0511  0.3050 -0.4591
  953THF     H413820   3.759   2.722   1.150  0.3277 -0.6700  0.4720
  953THF     H513821   3.745   2.735   0.978 -1.8198  0.5268  0.3793
  953THF     H613822   4.094   2.861   0.961  0.4048 -1.7865 -1.1905
  953THF     H713823   3.958   2.820   0.846 -1.9111 -1.1163  0.3610
  953THF     C813824   3.914   2.975   0.987 -0.3294 -0.3878 -0.6515
  953THF     C913825   3.785   2.929   1.051  0.4363 -0.2707 -0.3341
  953THF    H1013826   3.901   3.032   0.895  0.0296  1.5202  0.4472
  953THF    H1113827   3.982   3.028   1.053 -0.5297  0.0659 -0.8107
  953THF    H1213828   3.780   2.975   1.149 -1.0271  2.3233 -1.5287
  953THF    H1313829   3.695   2.959   0.997  0.1467 -0.6105 -0.0477
  954THF     O113830   0.543   5.478   0.157 -0.5470 -0.0826  0.0306
  954THF     C213831   0.555   5.508   0.019  0.0857 -0.2991 -0.4372
  954THF     C313832   0.660   5.536   0.225  0.0086  0.0068 -0.0748
  954THF     H413833   0.508   5.605   0.003  0.5693  0.1327  0.6114
  954THF     H513834   0.495   5.437  -0.038 -0.7690 -0.0980  0.1935
  954THF     H613835   0.639   5.643   0.230 -2.2861 -0.4263  1.1187
  954THF     H713836   0.669   5.504   0.329 -1.4973  0.8041  0.3374
  954THF     C813837   0.769   5.501   0.132 -0.1930  0.3721  0.1242
  954THF     C913838   0.709   5.497  -0.012  0.2003  0.0470  0.5090
  954THF    H1013839   0.819   5.409   0.160 -0.2181  0.7116  1.3569
  954THF    H1113840   0.847   5.577   0.120  1.1635 -1.0585 -0.4116
  954THF    H1213841   0.745   5.560  -0.093 -1.3000 -2.5955 -2.4586
  954THF    H1313842   0.737   5.404  -0.062 -1.9894 -0.7371  0.6091
  955THF     O113843   2.585   4.855   0.247 -0.4088  0.1254  0.0362
  955THF     C213844   2.641   4.786   0.363 -0.5215 -0.1600  0.8560
  955THF     C313845   2.530   4.975   0.299  0.8148 -0.1694  0.3718
  955THF     H413846   2.730   4.834   0.405  0.2447  0.1709 -1.0363
  955THF     H513847   2.651   4.681   0.338 -1.6876 -0.0367 -0.2635
  955THF     H613848   2.609   5.042   0.332 -0.0145  1.4713 -0.8717
  955THF     H713849   2.472   5.028   0.224  0.5821 -1.4940 -0.4293
  955THF     C813850   2.446   4.925   0.419  0.1426 -0.2690  1.0136
  955THF     C913851   2.524   4.805   0.466  0.1199  0.0925 -0.0804
  955THF    H1013852   2.347   4.889   0.390  0.7994 -1.1393 -0.2245
  955THF    H1113853   2.448   5.009   0.489  2.0937 -0.0386  0.7322
  955THF    H1213854   2.553   4.822   0.570  0.0490 -1.5592  0.2334
  955THF    H1313855   2.467   4.713   0.474  1.6733 -0.8922  0.2123
  956THF     O113856   2.480   2.051   2.711  0.3080  0.0614  0.4358
  956THF     C213857   2.417   1.927   2.729 -0.1349  0.5710  0.2667
  956THF     C313858   2.621   2.041   2.744 -0.1801 -0.0073 -0.4020
  956THF     H413859   2.428   1.861   2.642 -1.8350  0.2463  0.2703
  956THF     H513860   2.311   1.946   2.744 -0.9422 -3.4756  0.8466
  956THF     H613861   2.690   2.042   2.660 -0.5888 -0.2715 -0.7410
  956THF     H713862   2.655   2.123   2.807 -0.7558 -1.2595  1.6300
  956THF     C813863   2.625   1.910   2.816 -0.0420 -0.1570  0.2978
  956THF     C913864   2.487   1.864   2.845 -0.1004  0.3673  0.0104
  956THF    H1013865   2.678   1.922   2.910 -0.4164  1.0144  0.3718
  956THF    H1113866   2.687   1.838   2.763  2.2095  0.6205  1.7590
  956THF    H1213867   2.482   1.755   2.843  2.0863  0.0934  3.0983
  956THF    H1313868   2.462   1.902   2.944  0.4534 -0.2845  0.4049
  957THF     O113869   0.708   2.694   5.028  0.1437 -0.6321  0.3320
  957THF     C213870   0.737   2.552   5.037 -0.0193 -0.1843 -0.1936
  957THF     C313871   0.717   2.733   4.891  0.4180 -0.3527  0.3179
  957THF     H413872   0.640   2.503   5.036 -0.8722  1.3518  1.1504
  957THF     H513873   0.784   2.535   5.133  1.1538 -0.1360 -0.7416
  957THF     H613874   0.635   2.689   4.834 -0.4318  1.6391 -0.0566
  957THF     H713875   0.727   2.840   4.873  0.7793 -0.1870  1.4395
  957THF     C813876   0.840   2.654   4.842 -0.3477  0.0391 -0.6091
  957THF     C913877   0.822   2.523   4.912 -0.2724  0.5249  0.5576
  957THF    H1013878   0.938   2.687   4.876  0.6701 -0.1547 -3.1573
  957THF    H1113879   0.851   2.638   4.735  1.8002  0.1639 -0.4575
  957THF    H1213880   0.765   2.455   4.848  0.4577  0.2659  0.1760
  957THF    H1313881   0.917   2.469   4.916 -0.5225 -0.1696 -1.4022
  958THF     O113882   0.182   3.960   2.758 -0.2517  0.0115  0.1559
  958THF     C213883   0.188   3.825   2.787  0.5019  0.3541  0.1559
  958THF     C313884   0.274   3.991   2.657 -0.6204  0.5042  0.0487
  958THF     H413885   0.095   3.793   2.834  1.0572  2.0546  2.5534
  958THF     H513886   0.268   3.802   2.858  0.1282 -1.1690  0.1128
  958THF     H613887   0.271   4.091   2.614 -0.2456  0.0093 -1.1799
  958THF     H713888   0.374   3.996   2.701  0.1167 -0.9755 -1.3174
  958THF     C813889   0.255   3.876   2.562  0.7133 -0.1133 -0.0483
  958THF     C913890   0.209   3.759   2.649 -0.0448 -0.2410  0.1128
  958THF    H1013891   0.336   3.855   2.492  0.4586 -1.7330  0.1071
  958THF    H1113892   0.166   3.898   2.503  0.6326 -0.8649 -0.2107
  958THF    H1213893   0.120   3.712   2.608  1.8081 -3.3939 -0.5608
  958THF    H1313894   0.286   3.682   2.653 -1.9746 -2.2417  0.1180
  959THF     O113895   0.760   1.067   2.363 -0.2585  0.4607  0.0023
  959THF     C213896   0.638   1.026   2.302  0.4584  0.8124 -0.2271
  959THF     C313897   0.744   1.065   2.503  0.5614  0.6157  0.3090
  959THF     H413898   0.642   0.918   2.285  1.1566  0.5706  1.2645
  959THF     H513899   0.616   1.086   2.214 -1.2103  1.8718  0.8536
  959THF     H613900   0.752   0.970   2.555 -1.2748  1.0990  1.5723
  959THF     H713901   0.809   1.138   2.551  0.9891  1.1395 -1.0119
  959THF     C813902   0.604   1.126   2.519 -0.8684  0.5948  0.3819
  959THF     C913903   0.527   1.060   2.406 -0.2947  0.5085  0.2750
  959THF    H1013904   0.612   1.234   2.510 -0.4850  0.4816 -0.8975
  959THF    H1113905   0.572   1.112   2.622  2.7323  0.5655  1.6500
  959THF    H1213906   0.474   0.971   2.440 -0.0748 -0.4113 -1.6220
  959THF    H1313907   0.455   1.121   2.351 -1.3849 -1.2234 -0.3116
  960THF     O113908   0.647   3.221   2.419  0.6102  0.0900 -0.8090
  960THF     C213909   0.769   3.188   2.491  0.3115 -0.2090 -0.0591
  960THF     C313910   0.670   3.194   2.284  0.4853  0.0302  0.0149
  960THF     H413911   0.751   3.180   2.598  3.0769 -2.1839  0.3487
  960THF     H513912   0.845   3.266   2.492  1.1558 -0.9984 -0.4192
  960THF     H613913   0.574   3.195   2.233  0.0135  0.4507  0.8869
  960THF     H713914   0.742   3.264   2.241  1.5140 -1.8742 -1.5257
  960THF     C813915   0.747   3.065   2.286 -0.2236  0.5183 -0.2550
  960THF     C913916   0.829   3.061   2.423  0.3925 -0.2389  0.6049
  960THF    H1013917   0.813   3.048   2.201  0.7360  0.6342  0.4473
  960THF    H1113918   0.677   2.982   2.283  2.2025 -1.6787  0.2954
  960THF    H1213919   0.811   2.972   2.484  1.3503  0.7600  2.4177
  960THF    H1313920   0.932   3.088   2.398  0.1503  0.1264 -0.0148
  961THF     O113921   2.380   2.551   3.508 -0.0477 -0.3971  0.1423
  961THF     C213922   2.362   2.467   3.397  0.2477  0.8290  0.4576
  961THF     C313923   2.245   2.565   3.557  1.0700 -0.5428  0.3849
  961THF     H413924   2.459   2.417   3.388  0.7291  1.6795  0.8270
  961THF     H513925   2.362   2.531   3.309  0.6448 -0.8138 -0.7996
  961THF     H613926   2.234   2.534   3.660 -0.8421 -2.0719 -0.2340
  961THF     H713927   2.210   2.668   3.565  0.3008 -0.7608 -0.1406
  961THF     C813928   2.150   2.475   3.479 -0.3442 -0.0822  0.0246
  961THF     C913929   2.243   2.374   3.417 -1.2828  0.3534 -0.1533
  961THF    H1013930   2.094   2.530   3.404  1.3440 -0.0012 -1.2403
  961THF    H1113931   2.088   2.414   3.545  0.2539 -1.3187 -0.5248
  961THF    H1213932   2.268   2.293   3.486  0.0071  1.3547  0.6234
  961THF    H1313933   2.198   2.335   3.326 -2.2016 -0.8255  0.7788
  962THF     O113934   1.819   5.355   1.912  0.1297  0.2432 -0.5151
  962THF     C213935   1.702   5.422   1.898  0.3030  0.1349 -0.1649
  962THF     C313936   1.883   5.369   2.035 -0.0414 -0.1067  0.1322
  962THF     H413937   1.625   5.369   1.842  0.0565 -0.4187  0.6862
  962THF     H513938   1.704   5.517   1.844 -0.6111  0.2241 -0.0643
  962THF     H613939   1.911   5.275   2.082  2.1350  0.4669  0.0854
  962THF     H713940   1.981   5.415   2.022  0.8622 -1.0238  2.8446
  962THF     C813941   1.789   5.464   2.114  0.1687  0.1465  0.2133
  962THF     C913942   1.663   5.437   2.047  0.6181  0.0988 -0.2675
  962THF    H1013943   1.815   5.567   2.088 -3.1725  1.0688  0.1298
  962THF    H1113944   1.787   5.446   2.221 -0.0730 -2.2547 -0.1479
  962THF    H1213945   1.620   5.345   2.086 -0.8148  0.2070 -1.4765
  962THF    H1313946   1.595   5.519   2.069  1.8557  0.8900  0.7497
  963THF     O113947   1.264   4.369   2.760  0.0147 -0.1078 -0.0557
  963THF     C213948   1.128   4.393   2.802  1.6247  0.9274 -0.3576
  963THF     C313949   1.303   4.476   2.677 -0.0038 -0.3454 -0.0061
  963THF     H413950   1.122   4.438   2.901  1.0402  0.3292 -0.1074
  963THF     H513951   1.066   4.305   2.823 -0.7289  2.3325 -1.1654
  963THF     H613952   1.392   4.529   2.712  1.7636 -2.5463 -0.8970
  963THF     H713953   1.352   4.440   2.587 -0.0436 -1.9372  0.5758
  963THF     C813954   1.176   4.560   2.646  0.0917  0.4551  0.1637
  963THF     C913955   1.067   4.468   2.683 -0.1450 -0.4286 -0.1718
  963THF    H1013956   1.162   4.613   2.552 -1.1003  0.4077  0.2935
  963THF    H1113957   1.168   4.642   2.717 -1.5163  1.0708 -0.6847
  963THF    H1213958   0.977   4.522   2.711  0.0059  0.4871 -1.3692
  963THF    H1313959   1.048   4.400   2.600 -1.6635  0.0616 -0.2543
  964THF     O113960   0.566   2.320   4.474 -0.5775  0.7328  0.6168
  964THF     C213961   0.572   2.451   4.521  0.0520 -0.8872 -0.2027
  964THF     C313962   0.437   2.275   4.511  0.0435 -0.1143 -0.0710
  964THF     H413963   0.549   2.530   4.449 -1.3387 -1.1072 -0.0176
  964THF     H513964   0.676   2.469   4.548  0.6457 -1.6233 -1.8972
  964THF     H613965   0.354   2.316   4.452 -1.3132 -1.5958  0.7448
  964THF     H713966   0.427   2.167   4.501 -1.1052  0.0513 -0.9530
  964THF     C813967   0.416   2.327   4.651  1.0342 -0.1630  0.0116
  964THF     C913968   0.486   2.457   4.647 -0.0383 -0.0928 -0.5029
  964THF    H1013969   0.459   2.270   4.732  0.2558 -0.6283  0.1128
  964THF    H1113970   0.311   2.342   4.676  0.7923 -0.1874 -0.9373
  964THF    H1213971   0.412   2.536   4.634  0.6840  0.7805  0.4894
  964THF    H1313972   0.552   2.473   4.732 -0.7697  0.1826  0.0250
  965THF     O113973   1.696   4.357   0.242 -0.2771  0.3099 -0.3357
  965THF     C213974   1.767   4.371   0.365  0.1635  0.1291  0.3113
  965THF     C313975   1.713   4.481   0.170 -1.1493 -0.0111  0.6282
  965THF     H413976   1.873   4.356   0.347  0.0349 -0.9088  0.3999
  965THF     H513977   1.733   4.297   0.438  0.0687 -0.1436 -0.0098
  965THF     H613978   1.819   4.476   0.143 -1.2454  0.1621  0.2213
  965THF     H713979   1.654   4.489   0.079 -0.9158  0.2298  0.4989
  965THF     C813980   1.693   4.582   0.275  0.1607 -0.1031  0.3447
  965THF     C913981   1.743   4.516   0.409  0.2757  0.0427  0.0603
  965THF    H1013982   1.587   4.608   0.280  0.2792  0.1426  2.1006
  965THF    H1113983   1.738   4.678   0.249 -1.8101  0.4120 -1.4510
  965THF    H1213984   1.835   4.571   0.428  0.0753 -0.1648  1.7057
  965THF    H1313985   1.672   4.523   0.491  0.3518 -0.2882  0.1562
  966THF     O113986   2.362   4.205   0.252  0.4780 -0.6408 -0.0970
  966THF     C213987   2.429   4.229   0.125  0.0792 -0.6662  0.0509
  966THF     C313988   2.362   4.319   0.333  0.0099  0.3715  0.1151
  966THF     H413989   2.358   4.213   0.044  1.0798  1.2921 -1.2930
  966THF     H513990   2.504   4.151   0.119  1.9990  0.7243  3.2958
  966THF     H613991   2.276   4.386   0.326  0.6813  1.1423 -1.3053
  966THF     H713992   2.373   4.303   0.440 -1.6170  0.3037  0.2932
  966THF     C813993   2.469   4.407   0.280  0.2455  0.2492  0.4457
  966THF     C913994   2.485   4.376   0.131  0.4976 -0.0123  0.2799
  966THF    H1013995   2.568   4.399   0.325  0.6029 -0.3792 -0.4432
  966THF    H1113996   2.435   4.510   0.291 -0.0855  0.4756 -2.1991
  966THF    H1213997   2.431   4.451   0.073 -0.0523  0.2373  1.0953
  966THF    H1313998   2.588   4.375   0.098 -0.3364 -0.6449 -2.6142
  967THF     O113999   4.333   1.583   4.519 -0.1423 -0.1701 -0.1087
  967THF     C214000   4.405   1.610   4.393  0.6459  0.3412 -0.7561
  967THF     C314001   4.285   1.710   4.570 -0.9336 -0.2071 -0.2473
  967THF     H414002   4.402   1.529   4.321 -3.0045  1.4304 -2.0324
  967THF     H514003   4.505   1.629   4.432 -0.4111 -0.9748  3.0260
  967THF     H614004   4.212   1.689   4.649 -0.7356 -0.8296 -0.2254
  967THF     H714005   4.377   1.751   4.610 -0.8239  1.4165 -2.0739
  967THF     C814006   4.236   1.788   4.452  0.1808 -0.4826 -0.0757
  967THF     C914007   4.325   1.737   4.342 -0.0018 -0.3833  0.3785
  967THF    H1014008   4.232   1.895   4.472 -1.0591 -0.6188  0.5021
  967THF    H1114009   4.134   1.751   4.441 -0.3178  0.3103  1.5482
  967THF    H1214010   4.282   1.737   4.241 -0.4053 -0.8875  0.5401
  967THF    H1314011   4.397   1.814   4.315 -2.0975  0.6631 -2.9580
  968THF     O114012   0.383   2.932   0.764  0.3566  0.4413 -0.8462
  968THF     C214013   0.511   2.967   0.816 -0.2631  1.0543  0.3136
  968THF     C314014   0.355   2.797   0.804 -0.1872  0.4559 -0.0718
  968THF     H414015   0.500   2.994   0.921 -0.2556  3.3523 -0.2119
  968THF     H514016   0.552   3.046   0.753 -0.8658  0.3338 -1.0328
  968THF     H614017   0.312   2.806   0.904  0.6839  2.0690  0.1990
  968THF     H714018   0.287   2.744   0.738  0.3090  2.4676 -2.3331
  968THF     C814019   0.493   2.726   0.818 -0.8728  0.7538  0.2262
  968THF     C914020   0.593   2.836   0.795  0.1080 -0.5390 -0.3498
  968THF    H1014021   0.500   2.641   0.749 -2.4686  1.6375 -1.1040
  968THF    H1114022   0.506   2.679   0.915 -0.5912 -0.8206 -0.5472
  968THF    H1214023   0.678   2.820   0.862 -0.5385 -1.0478  0.3586
  968THF    H1314024   0.637   2.825   0.695  1.1620 -1.1296  0.1542
  969THF     O114025   5.354   4.816   2.921  0.4833 -0.6194 -0.0480
  969THF     C214026   5.428   4.826   3.047 -0.5830  0.4236  0.6027
  969THF     C314027   5.223   4.773   2.951  0.5459 -0.5597 -0.5540
  969THF     H414028   5.470   4.926   3.048  2.7711 -0.8436  1.4801
  969THF     H514029   5.510   4.753   3.044 -1.2468 -0.3805  1.4172
  969THF     H614030   5.154   4.810   2.876  1.8549  0.9141 -1.0870
  969THF     H714031   5.218   4.664   2.947  3.1297 -0.8582  1.2430
  969THF     C814032   5.193   4.823   3.091 -0.0520  0.2768  0.1723
  969THF     C914033   5.337   4.810   3.167 -0.6184  0.1603  0.1865
  969THF    H1014034   5.112   4.760   3.129  1.3021 -1.7186 -0.1247
  969THF    H1114035   5.163   4.928   3.096 -0.2816  0.2735 -0.8444
  969THF    H1214036   5.342   4.882   3.248  0.2615 -1.3754  1.5743
  969THF    H1314037   5.347   4.709   3.208 -0.1667  0.9710  2.2170
  970THF     O114038   2.979   1.049   0.381 -0.1527  0.4896  0.3501
  970THF     C214039   2.857   1.050   0.453  0.0638  1.0778 -0.3110
  970THF     C314040   3.074   0.982   0.467  0.0841 -0.2119 -0.3847
  970THF     H414041   2.798   0.982   0.391 -0.3929 -0.0805  1.3313
  970THF     H514042   2.821   1.153   0.445 -0.6194  0.8514 -0.2316
  970THF     H614043   3.059   0.874   0.458  0.3426 -0.5573  2.5798
  970THF     H714044   3.180   0.986   0.444  0.2125 -1.2468 -0.0385
  970THF     C814045   3.032   1.014   0.605  0.2230 -0.4052 -0.2447
  970THF     C914046   2.882   1.013   0.599  0.4159 -0.5347  1.3571
  970THF    H1014047   3.079   1.109   0.630  0.8992 -0.8663  0.2713
  970THF    H1114048   3.048   0.951   0.693  1.5563  1.3185  0.8306
  970THF    H1214049   2.845   0.913   0.618 -1.4071 -0.3667 -0.8647
  970THF    H1314050   2.831   1.081   0.668  0.5208 -0.5021  1.4037
  971THF     O114051   2.048   1.491   0.973  0.3907 -0.2279  0.2459
  971THF     C214052   2.177   1.555   0.961  0.5152 -0.4198  0.4771
  971THF     C314053   2.064   1.350   1.001  1.6620 -0.0305 -0.1820
  971THF     H414054   2.169   1.661   0.986  0.4963 -0.1476 -0.6207
  971THF     H514055   2.218   1.547   0.860 -1.6870  0.1284 -0.5263
  971THF     H614056   1.993   1.302   1.069  0.0182  2.0002 -0.3715
  971THF     H714057   2.053   1.282   0.916  1.7564 -1.9272  1.2404
  971THF     C814058   2.202   1.332   1.055  0.1770 -0.3557 -0.5326
  971THF     C914059   2.247   1.477   1.072 -0.2914 -0.2124  0.0553
  971THF    H1014060   2.263   1.283   0.979 -2.6496 -0.2446 -3.0678
  971THF    H1114061   2.190   1.285   1.152  0.5421 -0.9200 -0.7537
  971THF    H1214062   2.218   1.513   1.171  2.8868  1.4391  0.5324
  971THF    H1314063   2.356   1.474   1.071 -0.2742 -1.4047  1.5470
  972THF     O114064   5.284   1.473   1.522 -0.7881  1.2173  0.0104
  972THF     C214065   5.385   1.574   1.561  0.8587  0.2167 -0.4375
  972THF     C314066   5.187   1.533   1.436 -0.1629  0.2424 -0.1117
  972THF     H414067   5.484   1.536   1.539  1.0093  0.3638 -0.0178
  972THF     H514068   5.373   1.593   1.667  2.5767 -2.0315  0.2472
  972THF     H614069   5.134   1.458   1.376 -2.4803  0.5433  1.3935
  972THF     H714070   5.108   1.561   1.506 -1.0304 -2.3093  0.0476
  972THF     C814071   5.251   1.657   1.381  0.4781 -0.3350 -0.6787
  972THF     C914072   5.351   1.704   1.486  0.2379  0.8345 -0.3500
  972THF    H1014073   5.183   1.740   1.362  0.0840  0.0381  1.9993
  972THF    H1114074   5.299   1.631   1.286 -1.0789 -1.1702 -1.2747
  972THF    H1214075   5.446   1.738   1.443  1.7847 -0.3444  1.9354
  972THF    H1314076   5.319   1.792   1.542  3.0273  1.7836 -0.0628
  973THF     O114077   4.831   3.505   1.106  0.0974  0.3985 -0.1069
  973THF     C214078   4.914   3.399   1.157 -0.4229  0.4225  0.8181
  973THF     C314079   4.744   3.451   1.000 -0.7754 -0.0673 -0.2391
  973THF     H414080   4.859   3.337   1.228  0.2269  0.4079  1.3199
  973THF     H514081   5.006   3.438   1.200  1.4819 -1.6564 -1.0941
  973THF     H614082   4.661   3.395   1.044 -1.1228  0.5795 -0.0718
  973THF     H714083   4.706   3.528   0.933  0.1609  2.3738  1.8966
  973THF     C814084   4.841   3.343   0.937 -0.0500 -0.5479 -0.0040
  973THF     C914085   4.958   3.328   1.034  0.2327  0.1570  0.2510
  973THF    H1014086   4.876   3.389   0.845 -0.4957  1.0363  0.5911
  973THF    H1114087   4.787   3.250   0.916  0.8316 -1.7958  2.8198
  973THF    H1214088   4.969   3.221   1.052  0.0831  0.3758  1.7789
  973THF    H1314089   5.051   3.364   0.991  1.8299 -5.8063 -2.1674
  974THF     O114090   5.273   1.100   5.235 -0.6063 -0.3115  0.3703
  974THF     C214091   5.168   1.019   5.280 -0.4743  0.2833 -0.1493
  974THF     C314092   5.389   1.009   5.236 -0.0946 -0.1785 -0.0823
  974THF     H414093   5.067   1.060   5.275  0.4184  2.6042 -0.7585
  974THF     H514094   5.177   0.986   5.383 -0.7278 -0.0132 -0.2184
  974THF     H614095   5.469   1.056   5.178 -0.9945  0.8701 -0.5040
  974THF     H714096   5.437   0.992   5.332  0.9885 -0.7381 -0.6900
  974THF     C814097   5.346   0.866   5.186 -0.1634 -0.0081  0.3821
  974THF     C914098   5.193   0.892   5.187 -0.0089 -0.0145 -0.0367
  974THF    H1014099   5.374   0.787   5.256 -0.1850  1.8833  2.6630
  974THF    H1114100   5.369   0.848   5.081  1.9249  0.6566  0.6817
  974THF    H1214101   5.156   0.922   5.088 -0.4506 -0.7632 -0.1056
  974THF    H1314102   5.133   0.808   5.223 -0.9865  1.4165  1.8096
  975THF     O114103   0.739   4.329   2.992 -0.5781 -0.2759  0.7037
  975THF     C214104   0.833   4.407   3.052  0.4516 -0.5663 -0.8286
  975THF     C314105   0.613   4.393   2.999  0.0336 -0.5069  0.0131
  975THF     H414106   0.935   4.381   3.022  0.0368 -1.3916 -1.5691
  975THF     H514107   0.816   4.399   3.159  1.6518 -0.0308 -0.5852
  975THF     H614108   0.542   4.373   2.918  0.0203 -2.0512  0.3817
  975THF     H714109   0.570   4.349   3.089  1.6693 -0.4690  0.8532
  975THF     C814110   0.645   4.537   3.008 -0.3481 -0.4220  0.0467
  975THF     C914111   0.797   4.540   2.981 -0.9750 -0.2218 -0.4592
  975THF    H1014112   0.632   4.575   3.110  1.7524 -0.1922  0.2725
  975THF    H1114113   0.607   4.593   2.922 -0.6291 -1.4245 -0.4940
  975THF    H1214114   0.822   4.527   2.876 -1.3220  0.1937 -0.5932
  975THF    H1314115   0.849   4.625   3.025  0.3076 -1.4455  0.4929
  976THF     O114116   3.244   0.140   2.245 -0.5875  0.2648 -0.3013
  976THF     C214117   3.262  -0.001   2.236 -0.1392  0.2835  0.1275
  976THF     C314118   3.120   0.153   2.313  0.0630 -0.8175  0.0484
  976THF     H414119   3.310  -0.025   2.331 -1.0541 -0.7644  0.3485
  976THF     H514120   3.321  -0.031   2.149 -0.2898  1.8186 -0.5281
  976THF     H614121   3.141   0.137   2.419 -1.2967  0.0290  0.4779
  976THF     H714122   3.081   0.255   2.318 -0.3455 -0.9761  0.1405
  976THF     C814123   3.021   0.050   2.258 -0.4611 -0.3663 -0.8595
  976THF     C914124   3.123  -0.067   2.236 -0.1903 -0.4907 -0.3302
  976THF    H1014125   2.978   0.091   2.167  1.8016  0.0107 -1.8219
  976THF    H1114126   2.935   0.036   2.324 -0.6243  2.7435 -0.2724
  976THF    H1214127   3.126  -0.139   2.318 -2.5913  0.1698  0.3997
  976THF    H1314128   3.095  -0.118   2.144 -0.9901  0.9011 -0.8882
  977THF     O114129   3.127   2.740   2.485  0.2323  0.0114 -0.0777
  977THF     C214130   3.132   2.676   2.356  0.1887  0.7681  0.2203
  977THF     C314131   3.108   2.879   2.462  0.3244  0.0519 -0.7315
  977THF     H414132   3.029   2.659   2.326 -0.0028  1.7916  0.2624
  977THF     H514133   3.191   2.584   2.365  0.2607  0.3630 -3.2499
  977THF     H614134   3.006   2.889   2.424 -0.2809  0.3835  0.9287
  977THF     H714135   3.127   2.941   2.549  0.3528 -1.2857  0.2334
  977THF     C814136   3.200   2.909   2.340 -0.3364  0.6431 -0.4291
  977THF     C914137   3.195   2.781   2.260  0.4414  0.1304  0.0374
  977THF    H1014138   3.300   2.912   2.383 -0.5073 -1.0201  0.1814
  977THF    H1114139   3.158   2.996   2.290 -0.6264 -0.4148 -2.0945
  977THF    H1214140   3.136   2.786   2.169 -1.5348 -1.4852  1.1471
  977THF    H1314141   3.295   2.749   2.231  0.2044 -0.2470 -0.3612
  978THF     O114142   0.360   1.535   2.295 -0.2169 -0.1437  0.1919
  978THF     C214143   0.330   1.463   2.416 -0.0543 -0.1065 -0.1821
  978THF     C314144   0.474   1.623   2.326  0.7888  0.4015  0.0581
  978THF     H414145   0.407   1.386   2.414  0.4784  0.4335 -2.3041
  978THF     H514146   0.228   1.425   2.408 -0.3066  0.2101  1.3268
  978THF     H614147   0.570   1.571   2.320  0.7698  0.4627 -0.7987
  978THF     H714148   0.473   1.716   2.270  0.9911 -1.0583 -2.5470
  978THF     C814149   0.447   1.668   2.470  0.5711 -0.5803 -0.3868
  978THF     C914150   0.338   1.574   2.521 -0.0908 -0.2389  0.8086
  978THF    H1014151   0.416   1.772   2.472  4.2265  0.7595 -2.8436
  978THF    H1114152   0.530   1.644   2.536  1.0791  0.7434 -0.5255
  978THF    H1214153   0.340   1.537   2.623 -0.1528 -1.1270  0.5000
  978THF    H1314154   0.244   1.629   2.513 -0.6860 -1.4299 -1.0483
  979THF     O114155   3.113   1.464   4.134  0.2710 -0.0428  0.3402
  979THF     C214156   3.199   1.485   4.241  0.2294  0.2425 -0.3261
  979THF     C314157   3.199   1.472   4.016 -0.3481  0.1652 -0.4382
  979THF     H414158   3.145   1.457   4.332 -1.2183  1.4922 -0.7566
  979THF     H514159   3.241   1.584   4.256  0.0910  0.4076 -1.0094
  979THF     H614160   3.153   1.437   3.923 -1.3283  1.8755 -0.6297
  979THF     H714161   3.229   1.573   3.989 -0.9916  0.6332  0.5787
  979THF     C814162   3.323   1.385   4.053  0.5024 -0.0286  0.0621
  979THF     C914163   3.314   1.389   4.208 -0.1783  0.0853 -0.1403
  979THF    H1014164   3.411   1.430   4.008  0.0711  1.4992  0.6721
  979THF    H1114165   3.304   1.283   4.019  3.3088 -0.3443 -0.8434
  979THF    H1214166   3.285   1.294   4.253  0.4016  0.0368  0.1424
  979THF    H1314167   3.409   1.413   4.255  0.4201 -3.4382  0.6953
  980THF     O114168   0.528   0.118   2.706 -0.3785  0.3648  0.0960
  980THF     C214169   0.413   0.038   2.751  0.7112 -0.0593  0.7297
  980THF     C314170   0.470   0.225   2.628  0.8465 -0.0228 -0.3091
  980THF     H414171   0.369   0.079   2.841  2.3431  1.4122  0.9144
  980THF     H514172   0.441  -0.062   2.783  0.5565 -0.8183 -1.3758
  980THF     H614173   0.435   0.293   2.706  0.0453  0.7117 -1.2740
  980THF     H714174   0.536   0.284   2.565 -1.0927  0.5566 -1.8888
  980THF     C814175   0.363   0.153   2.543  0.0834  1.0903 -0.3899
  980THF     C914176   0.314   0.032   2.627 -0.4182  0.3417  0.0450
  980THF    H1014177   0.408   0.122   2.448  2.0430  2.0793  0.1765
  980THF    H1114178   0.281   0.219   2.514 -0.0648  0.7975 -0.6392
  980THF    H1214179   0.207   0.046   2.646 -0.6117  0.5378 -1.1588
  980THF    H1314180   0.339  -0.064   2.582  0.4188 -0.6662  2.4433
  981THF     O114181   2.125   1.403   2.223 -0.1955  0.2941  0.0170
  981THF     C214182   2.202   1.374   2.334 -0.1003 -0.0405 -0.1780
  981THF     C314183   2.112   1.282   2.148  0.4597 -0.1483 -0.6204
  981THF     H414184   2.152   1.344   2.427  2.3006  0.1385  1.2627
  981THF     H514185   2.255   1.463   2.369 -1.3400  0.4087  0.6571
  981THF     H614186   2.045   1.212   2.198  1.1905 -1.0700 -0.9051
  981THF     H714187   2.073   1.288   2.046  0.2073  0.4721 -0.4925
  981THF     C814188   2.252   1.217   2.163 -0.2442 -0.3734 -0.2076
  981THF     C914189   2.310   1.276   2.295  0.1703  0.0537 -0.0975
  981THF    H1014190   2.321   1.237   2.081 -0.0911  3.1299  0.6346
  981THF    H1114191   2.253   1.108   2.170  0.3546 -0.2563  2.0089
  981THF    H1214192   2.323   1.213   2.383  1.3575  3.2402  2.2218
  981THF    H1314193   2.402   1.333   2.285  0.6435 -0.1022  2.6068
  982THF     O114194   5.028   4.513   1.784  0.1587 -0.4347  0.2298
  982THF     C214195   5.001   4.641   1.832  0.3241 -0.6525 -0.0100
  982THF     C314196   5.109   4.452   1.885 -0.2909  0.6242  0.6129
  982THF     H414197   4.926   4.703   1.783 -2.1301 -2.3431  1.4274
  982THF     H514198   5.088   4.706   1.836 -0.0934 -0.1436  1.0616
  982THF     H614199   5.095   4.344   1.890  0.4276  0.4447 -0.8366
  982THF     H714200   5.215   4.476   1.875  0.0654 -1.6922 -2.5011
  982THF     C814201   5.054   4.513   2.016  0.5498 -0.3857 -0.0639
  982THF     C914202   4.947   4.607   1.975 -0.2239  0.1730  0.3519
  982THF    H1014203   5.131   4.571   2.066  0.9830  0.2545 -1.4280
  982THF    H1114204   5.017   4.438   2.086 -1.1475  0.1312 -0.3434
  982THF    H1214205   4.848   4.563   1.961 -0.7615  1.1653  0.9270
  982THF    H1314206   4.940   4.698   2.036 -1.9901  0.2847  0.0484
  983THF     O114207   5.004   1.590   1.917 -0.4412  0.6641  0.6746
  983THF     C214208   4.931   1.706   1.918 -0.6550  0.8597  0.4681
  983THF     C314209   5.104   1.606   1.809  0.2171  0.2054 -0.1013
  983THF     H414210   4.881   1.697   2.015  0.4065 -1.1620  0.8897
  983THF     H514211   4.861   1.713   1.835  0.3144 -1.9343 -0.7003
  983THF     H614212   5.195   1.548   1.826  1.2992  1.4981 -1.2593
  983THF     H714213   5.056   1.579   1.715  1.5936  0.8679 -1.0080
  983THF     C814214   5.134   1.754   1.818 -0.5686  0.2435  0.7994
  983THF     C914215   5.031   1.811   1.917 -0.5143 -0.1198  0.1875
  983THF    H1014216   5.116   1.800   1.721  0.4186  1.3086  1.0961
  983THF    H1114217   5.240   1.760   1.841 -0.6037 -1.9269  1.6977
  983THF    H1214218   5.078   1.820   2.015  2.0388 -0.8245 -0.8860
  983THF    H1314219   4.991   1.907   1.884 -1.2386 -0.2945  0.5450
  984THF     O114220   0.888   1.446   4.376 -0.2239 -0.0910  0.0739
  984THF     C214221   0.976   1.376   4.280  0.2319 -0.6764  1.0692
  984THF     C314222   0.860   1.587   4.363 -0.3593  0.6892  0.1182
  984THF     H414223   0.930   1.298   4.220  2.1818 -1.6874  0.8218
  984THF     H514224   1.065   1.339   4.331  0.4887  0.3377  1.3792
  984THF     H614225   0.758   1.616   4.385 -0.5097  0.6974 -0.5461
  984THF     H714226   0.922   1.641   4.434 -0.7077  1.9733 -0.5195
  984THF     C814227   0.891   1.603   4.219  0.6147  0.1477  0.2248
  984THF     C914228   1.010   1.505   4.202 -0.2973  0.1005 -0.1867
  984THF    H1014229   0.924   1.706   4.208  1.1935  0.1040  1.3757
  984THF    H1114230   0.803   1.575   4.160  0.0463 -1.1802  1.6306
  984THF    H1214231   1.025   1.480   4.097  2.4837 -2.7052  0.7182
  984THF    H1314232   1.102   1.558   4.226  0.1884 -0.1062 -1.5199
  985THF     O114233   1.898   4.248   2.412 -0.1107  0.2609 -0.5688
  985THF     C214234   1.881   4.104   2.454 -0.0824  0.2124  0.0998
  985THF     C314235   1.875   4.245   2.274 -0.0984 -0.1201 -0.1769
  985THF     H414236   1.777   4.077   2.442 -0.9950  2.2210  2.4576
  985THF     H514237   1.917   4.084   2.555 -0.3991  1.2225  0.4229
  985THF     H614238   1.769   4.269   2.268 -0.2471 -0.9782 -1.2901
  985THF     H714239   1.926   4.323   2.218 -0.5798  0.3294  0.0093
  985THF     C814240   1.914   4.107   2.216  0.3755  0.3391  0.3606
  985THF     C914241   1.941   4.026   2.337 -0.3132  0.1136 -0.4861
  985THF    H1014242   1.995   4.104   2.144  1.0163 -0.3731  1.0891
  985THF    H1114243   1.836   4.051   2.164  2.0210 -1.4154 -0.3357
  985THF    H1214244   1.920   3.919   2.334  1.5918 -0.3124  0.1724
  985THF    H1314245   2.050   4.030   2.342 -0.2649  0.8204 -1.6852
  986THF     O114246   3.624   4.251   0.585 -0.2626 -0.1493 -0.9407
  986THF     C214247   3.490   4.264   0.607  0.4265  0.3851 -0.1629
  986THF     C314248   3.638   4.172   0.469  0.5104 -0.3957 -0.1102
  986THF     H414249   3.452   4.346   0.546  1.0468 -1.3186 -3.0596
  986THF     H514250   3.472   4.286   0.712 -1.2503  2.3535 -0.7951
  986THF     H614251   3.658   4.230   0.379 -1.2724 -0.5803 -0.6791
  986THF     H714252   3.724   4.106   0.478  0.1973 -1.2986 -2.7412
  986THF     C814253   3.519   4.082   0.463  0.6600  0.1393  0.4693
  986THF     C914254   3.430   4.132   0.573 -0.2749 -0.3951 -0.0555
  986THF    H1014255   3.558   3.985   0.494 -0.8799 -0.5982  0.1976
  986THF    H1114256   3.471   4.072   0.366  0.0698 -1.1833  0.8796
  986THF    H1214257   3.325   4.142   0.546 -0.5629  1.1049  1.4643
  986THF    H1314258   3.456   4.068   0.657  2.0832  0.8721  0.2636
  987THF     O114259   1.195   0.358   4.351 -0.3859  0.1663  0.3532
  987THF     C214260   1.159   0.431   4.230 -0.1134 -0.8524 -0.0564
  987THF     C314261   1.106   0.246   4.368 -0.1831  0.7100 -0.0945
  987THF     H414262   1.233   0.505   4.202 -0.0872  0.0470  2.1730
  987THF     H514263   1.072   0.496   4.236  0.1928 -0.4083 -0.3779
  987THF     H614264   1.153   0.190   4.448 -0.8466  0.5399  0.1726
  987THF     H714265   1.001   0.267   4.388 -0.4750 -0.9172  0.2025
  987THF     C814266   1.104   0.194   4.225 -0.5153  0.0872 -0.4584
  987THF     C914267   1.130   0.314   4.135  0.3153  0.2236 -0.6026
  987THF    H1014268   1.023   0.128   4.194  0.2383  0.1119 -2.6670
  987THF    H1114269   1.194   0.133   4.230  0.5697  1.5565 -1.3079
  987THF    H1214270   1.222   0.298   4.079 -0.1034 -0.2248 -1.1771
  987THF    H1314271   1.048   0.333   4.065  0.0170 -1.3554 -0.7258
  988THF     O114272   0.735   1.664   0.070  0.6142  0.1750 -0.1856
  988THF     C214273   0.674   1.640   0.196  0.7660 -0.5346  0.4564
  988THF     C314274   0.694   1.796   0.039 -0.0966 -0.4286 -0.2327
  988THF     H414275   0.725   1.702   0.270 -0.0649 -1.3925  1.8111
  988THF     H514276   0.681   1.537   0.233 -0.8535 -1.1459 -0.8246
  988THF     H614277   0.760   1.855   0.103  1.7887 -2.5862 -0.0288
  988THF     H714278   0.713   1.819  -0.066  1.9066 -2.4664 -0.4057
  988THF     C814279   0.544   1.789   0.070  0.0821 -0.2409 -0.7953
  988THF     C914280   0.525   1.684   0.168 -0.4493 -0.3050 -0.5275
  988THF    H1014281   0.485   1.770  -0.020 -0.6373 -1.2660 -0.1212
  988THF    H1114282   0.516   1.887   0.110 -0.5033  0.0875 -1.9620
  988THF    H1214283   0.476   1.716   0.260 -0.5102  1.4420 -1.1292
  988THF    H1314284   0.448   1.619   0.127 -0.3338 -0.2579 -0.8246
  989THF     O114285   1.200   4.630   0.260 -0.3802  0.3227 -0.0399
  989THF     C214286   1.071   4.570   0.258  0.0706  0.3764 -0.9749
  989THF     C314287   1.250   4.654   0.129 -0.2407  0.4763 -0.0610
  989THF     H414288   0.993   4.642   0.234  1.2711  1.9914 -0.2780
  989THF     H514289   1.039   4.539   0.357  1.6057 -2.1577 -1.1902
  989THF     H614290   1.230   4.757   0.100 -0.4174 -0.0369 -1.8638
  989THF     H714291   1.356   4.628   0.119 -0.4671  0.1591 -2.0678
  989THF     C814292   1.168   4.540   0.053  0.2515 -0.1734  0.2281
  989THF     C914293   1.087   4.463   0.157 -0.0107  0.1369 -0.4001
  989THF    H1014294   1.227   4.477  -0.015 -0.7837 -2.5254  1.3810
  989THF    H1114295   1.100   4.595  -0.012  1.4397  1.1326  0.0574
  989THF    H1214296   0.990   4.433   0.116  0.0310  0.9427 -1.1262
  989THF    H1314297   1.144   4.382   0.201 -1.8836 -0.5481  0.8816
  990THF     O114298   4.896   3.074   2.794 -0.0834  0.4156  0.4923
  990THF     C214299   4.989   3.160   2.848  0.0738 -0.5525 -0.1761
  990THF     C314300   4.824   3.145   2.693 -0.5056  0.1428 -0.4002
  990THF     H414301   5.065   3.090   2.883 -0.9012 -1.3554  0.4064
  990THF     H514302   4.948   3.220   2.928  0.5612 -1.1699  0.5568
  990THF     H614303   4.771   3.083   2.621 -0.5945 -1.1095  0.7043
  990THF     H714304   4.758   3.206   2.755  1.5639  1.7375  0.3416
  990THF     C814305   4.926   3.231   2.627 -0.2857  0.3158  0.5316
  990THF     C914306   5.028   3.265   2.739  0.0721  0.1175 -0.1293
  990THF    H1014307   4.879   3.317   2.578  2.6470  0.9944 -1.3244
  990THF    H1114308   4.975   3.181   2.544 -1.0560 -1.5436  1.1363
  990THF    H1214309   5.131   3.261   2.704  0.1982 -1.5279  0.3554
  990THF    H1314310   5.012   3.368   2.771  0.2463 -0.0052  0.3690
  991THF     O114311   5.317   2.816   5.234 -0.0268 -0.1774 -0.0266
  991THF     C214312   5.296   2.836   5.091 -0.5245 -0.1075  0.2674
  991THF     C314313   5.251   2.913   5.307  0.1700 -0.8503 -0.3905
  991THF     H414314   5.304   2.747   5.029  1.6119  1.2545 -1.5925
  991THF     H514315   5.379   2.900   5.060  1.7597 -2.6754  0.6534
  991THF     H614316   5.207   2.844   5.379  1.2763  0.1988  1.3806
  991THF     H714317   5.322   2.981   5.355  0.2869 -1.1024 -0.2049
  991THF     C814318   5.156   2.994   5.208 -0.1096  0.0305  0.1859
  991THF     C914319   5.161   2.909   5.080 -0.2502  0.0643  0.0524
  991THF    H1014320   5.203   3.089   5.185 -0.2169  0.7348  2.6080
  991THF    H1114321   5.062   3.005   5.263 -0.2361 -0.2448  0.0307
  991THF    H1214322   5.085   2.833   5.099 -1.8143  1.2515 -1.2246
  991THF    H1314323   5.149   2.956   4.983 -0.6305 -1.9846 -0.9480
  992THF     O114324   3.234   2.264   3.808  0.2797 -0.2448  0.3540
  992THF     C214325   3.296   2.346   3.907 -0.2382  0.3843  0.3911
  992THF     C314326   3.126   2.338   3.761  0.2198  0.7388 -0.0427
  992THF     H414327   3.397   2.310   3.927 -0.4781 -0.1688  0.6188
  992THF     H514328   3.244   2.338   4.003 -0.9767 -0.6460 -0.0806
  992THF     H614329   3.089   2.298   3.667 -0.5689 -0.8666  0.9153
  992THF     H714330   3.046   2.339   3.834  2.1584  1.2921  2.2125
  992THF     C814331   3.187   2.478   3.752  0.1617  0.4437 -0.5497
  992THF     C914332   3.298   2.489   3.852  0.4673 -1.1186 -0.2404
  992THF    H1014333   3.111   2.554   3.769  0.2152  0.7278 -1.4990
  992THF    H1114334   3.220   2.495   3.649  0.8856  0.5268 -0.3081
  992THF    H1214335   3.396   2.508   3.807  1.9052  0.2445  3.1052
  992THF    H1314336   3.296   2.571   3.923  0.2299 -1.0088 -0.3736
  993THF     O114337   1.941   0.613   3.866 -0.5598 -0.5308  0.0078
  993THF     C214338   2.012   0.648   3.749 -0.1679 -0.4563  0.2622
  993THF     C314339   1.853   0.502   3.843  0.1673 -0.0287  0.2433
  993THF     H414340   2.099   0.582   3.740 -1.4107 -2.4188  1.9009
  993THF     H514341   2.036   0.755   3.749 -0.7262 -0.2186  3.9768
  993THF     H614342   1.878   0.423   3.913  2.7941  0.7336  0.2771
  993THF     H714343   1.758   0.551   3.863 -0.2411 -1.0498  0.8380
  993THF     C814344   1.856   0.472   3.689  0.5776  0.2438 -0.7670
  993THF     C914345   1.921   0.599   3.635  0.4650 -0.5188 -0.7033
  993THF    H1014346   1.754   0.465   3.652  0.0687  0.1593  0.6213
  993THF    H1114347   1.904   0.376   3.669 -0.8834 -1.2398  2.2447
  993THF    H1214348   1.973   0.572   3.543 -2.4581 -1.5007 -2.1580
  993THF    H1314349   1.851   0.677   3.607 -2.1793 -2.7331 -0.6324
  994THF     O114350   0.677   0.875   0.412 -0.0816  0.0387 -0.0320
  994THF     C214351   0.701   0.755   0.336  0.3025  0.2732  0.0269
  994THF     C314352   0.580   0.947   0.342 -0.8795 -0.5214  0.9463
  994THF     H414353   0.644   0.676   0.383  1.1054 -3.4347 -4.4521
  994THF     H514354   0.808   0.737   0.342  0.4477 -0.2293 -2.6132
  994THF     H614355   0.481   0.919   0.379 -0.3816 -1.6177  1.5095
  994THF     H714356   0.587   1.051   0.371  0.2993 -0.9788  2.4089
  994THF     C814357   0.594   0.913   0.189  0.2587  0.3783  0.1970
  994THF     C914358   0.651   0.776   0.194  0.6217 -0.0007 -0.7979
  994THF    H1014359   0.673   0.979   0.155  0.6384  0.1949  0.6958
  994THF    H1114360   0.500   0.930   0.137 -0.9740 -1.4210  1.6439
  994THF    H1214361   0.574   0.700   0.180 -0.7175  1.0458  0.5716
  994THF    H1314362   0.731   0.749   0.125  1.5206 -0.6889  0.4644
  995THF     O114363   2.241   2.296   1.453 -0.0481  0.5625  0.1401
  995THF     C214364   2.211   2.254   1.320  1.3498  0.6872  0.0813
  995THF     C314365   2.297   2.425   1.451 -0.4487 -0.0497 -0.1166
  995THF     H414366   2.108   2.223   1.302  1.9375 -1.8127  0.6458
  995THF     H514367   2.261   2.159   1.298 -1.3681 -0.5167 -1.4703
  995THF     H614368   2.290   2.485   1.541 -0.9087 -0.2805  0.0065
  995THF     H714369   2.404   2.408   1.448 -0.3237  0.6983 -0.0234
  995THF     C814370   2.244   2.487   1.322  0.3805 -0.2852  0.0727
  995THF     C914371   2.248   2.365   1.224 -0.7170  0.6094 -0.4615
  995THF    H1014372   2.305   2.570   1.285 -1.9642  0.5655 -2.1966
  995THF    H1114373   2.149   2.528   1.355  0.0318  0.4903 -1.7687
  995THF    H1214374   2.178   2.382   1.143 -3.6083  0.5527  1.8566
  995THF    H1314375   2.352   2.351   1.195 -0.8002 -0.3229 -0.3471
  996THF     O114376   3.302   1.879   4.158 -1.0429  0.4337 -0.2877
  996THF     C214377   3.338   2.013   4.180  0.3721  0.7896  0.1134
  996THF     C314378   3.414   1.799   4.128 -0.3425 -1.0575 -0.5061
  996THF     H414379   3.353   2.030   4.286 -1.0883  0.2920  0.4163
  996THF     H514380   3.253   2.070   4.142 -1.2992 -0.7360  1.4224
  996THF     H614381   3.479   1.802   4.216 -1.6397 -1.9332  0.5191
  996THF     H714382   3.398   1.695   4.102  0.8056 -1.1928 -0.7462
  996THF     C814383   3.477   1.890   4.017 -0.0891  0.8604 -0.2263
  996THF     C914384   3.456   2.026   4.080  0.5891  0.6963 -0.5388
  996THF    H1014385   3.426   1.886   3.920 -0.4774  1.8826 -0.0811
  996THF    H1114386   3.582   1.872   3.994 -0.3997 -3.5413  0.8701
  996THF    H1214387   3.548   2.043   4.136 -0.3569  0.1037  1.2905
  996THF    H1314388   3.436   2.102   4.005 -4.2357 -0.7294 -1.0369
  997THF     O114389   2.060   2.535   4.411  0.0640 -0.4579  0.4295
  997THF     C214390   1.973   2.542   4.304 -0.1787 -0.6391  0.6948
  997THF     C314391   2.057   2.397   4.451 -0.0144 -0.0698  0.2819
  997THF     H414392   1.978   2.643   4.262  0.1127 -1.8741 -2.4710
  997THF     H514393   1.867   2.528   4.325 -0.8408 -1.4280 -2.6288
  997THF     H614394   2.139   2.376   4.519  0.2283 -3.1579 -0.7978
  997THF     H714395   1.963   2.367   4.498 -0.5305  0.6264 -0.2852
  997THF     C814396   2.088   2.334   4.320  0.3036 -0.0797  0.5510
  997THF     C914397   2.019   2.428   4.223  0.1520 -0.3580 -0.3148
  997THF    H1014398   2.046   2.233   4.323  1.7488 -0.6735  2.0223
  997THF    H1114399   2.197   2.327   4.314  0.1646 -3.3916 -0.0945
  997THF    H1214400   2.085   2.459   4.142 -0.7286  1.8823 -0.2307
  997THF    H1314401   1.926   2.392   4.180  0.2935 -2.1745  0.7894
  998THF     O114402   5.302   4.253   3.941  0.2726 -0.2052  0.4182
  998THF     C214403   5.273   4.324   3.823  1.2204 -0.4451 -1.1171
  998THF     C314404   5.401   4.328   4.005 -0.9267 -0.2904  0.1349
  998THF     H414405   5.210   4.409   3.848 -0.7623 -2.2967  0.6001
  998THF     H514406   5.227   4.278   3.736 -2.0838  2.9673 -1.4186
  998THF     H614407   5.365   4.360   4.103 -0.6257  1.9791 -0.4473
  998THF     H714408   5.477   4.254   4.029 -1.9022 -2.0063 -1.8247
  998THF     C814409   5.452   4.436   3.908 -0.2060  0.1579 -0.4013
  998THF     C914410   5.404   4.384   3.776 -0.3228  0.1782  0.3596
  998THF    H1014411   5.558   4.453   3.925 -0.6685  2.6205  0.4070
  998THF    H1114412   5.399   4.529   3.925 -1.6314 -0.0579 -3.0307
  998THF    H1214413   5.393   4.467   3.706  1.3272 -0.8654 -1.2503
  998THF    H1314414   5.457   4.301   3.729  1.8774  0.5327  2.0710
  999THF     O114415   2.102   4.753   4.973 -1.0558  0.2150 -0.0834
  999THF     C214416   2.212   4.841   4.950  0.1017  0.3928  1.2005
  999THF     C314417   1.984   4.834   4.951 -0.0257  0.7025 -0.4446
  999THF     H414418   2.292   4.770   4.930  0.0823  0.6379  0.1589
  999THF     H514419   2.243   4.900   5.036  0.7877  0.8006  0.6913
  999THF     H614420   1.909   4.763   4.914  0.1274  1.6901 -2.8463
  999THF     H714421   1.932   4.868   5.041 -2.1118 -0.8257 -0.9842
  999THF     C814422   2.019   4.948   4.856  0.1600  0.0525 -0.1456
  999THF     C914423   2.166   4.930   4.830  0.3679  1.1652 -0.0735
  999THF    H1014424   2.007   5.047   4.898  0.0996  0.3079 -0.7601
  999THF    H1114425   1.956   4.941   4.767  2.1946  1.0137 -1.7204
  999THF    H1214426   2.172   4.880   4.734  0.9902  1.3296 -0.1287
  999THF    H1314427   2.226   5.019   4.810  0.7947  1.1145  0.8966
 1000THF     O114428   3.873   1.240   3.367 -0.4158  0.5340  0.1598
 1000THF     C214429   3.764   1.217   3.280  0.7352 -0.5010 -0.1397
 1000THF     C314430   3.982   1.267   3.279  0.2706  0.1580 -0.8643
 1000THF     H414431   3.706   1.309   3.268  2.3756  0.7434  1.0823
 1000THF     H514432   3.687   1.147   3.314 -1.2673  0.7994 -1.7268
 1000THF     H614433   3.985   1.373   3.257  0.3922 -0.0575 -1.9661
 1000THF     H714434   4.078   1.243   3.325 -0.7816 -1.1997  0.7453
 1000THF     C814435   3.980   1.191   3.150 -0.2808 -0.3966 -0.3042
 1000THF     C914436   3.826   1.170   3.148 -0.9523 -0.3583  0.0930
 1000THF    H1014437   4.038   1.099   3.158 -1.9710 -1.5122 -0.4232
 1000THF    H1114438   4.017   1.254   3.069 -1.5809  0.4795 -0.2496
 1000THF    H1214439   3.779   1.233   3.073  0.4971  0.8155  0.1117
 1000THF    H1314440   3.787   1.070   3.128 -2.3935 -0.4710  2.9692
 1001THF     O114441   4.839   1.553   4.678 -0.1392  1.0174  0.0260
 1001THF     C214442   4.921   1.578   4.786 -0.1947 -0.4256 -0.8961
 1001THF     C314443   4.801   1.674   4.612 -0.0116  0.3417  0.2325
 1001THF     H414444   5.022   1.601   4.752 -1.0459  1.2941 -2.4299
 1001THF     H514445   4.916   1.489   4.848  0.9732  0.3021  0.2901
 1001THF     H614446   4.888   1.716   4.562 -1.5434 -0.2070 -3.1770
 1001THF     H714447   4.727   1.649   4.536  0.4665 -2.7935  0.6600
 1001THF     C814448   4.742   1.743   4.732 -0.5198  0.0436  0.2274
 1001THF     C914449   4.840   1.698   4.845 -0.5136  1.0832 -0.5300
 1001THF    H1014450   4.640   1.714   4.758 -1.3202  2.0631 -0.4780
 1001THF    H1114451   4.738   1.851   4.719 -2.3361 -0.1049 -0.8211
 1001THF    H1214452   4.907   1.779   4.874  0.7284  0.0174 -0.3086
 1001THF    H1314453   4.792   1.663   4.936  2.1984 -3.3109 -0.4472
 1002THF     O114454   4.575   0.579   1.502 -0.3746  0.9414 -0.7541
 1002THF     C214455   4.656   0.478   1.557  0.0019  0.9176  0.7191
 1002THF     C314456   4.638   0.704   1.513  0.3006  0.6821 -0.1275
 1002THF     H414457   4.727   0.440   1.484  0.9493  0.7827  1.6917
 1002THF     H514458   4.597   0.392   1.590 -1.6153  1.6930 -0.0199
 1002THF     H614459   4.673   0.725   1.412 -2.6175 -3.3255 -2.2381
 1002THF     H714460   4.572   0.784   1.546 -0.5792  0.9898 -2.4485
 1002THF     C814461   4.743   0.682   1.622 -1.5013  0.1784  0.3458
 1002THF     C914462   4.724   0.542   1.673  0.1046  0.2204 -0.0750
 1002THF    H1014463   4.743   0.761   1.698  0.6197  1.6826 -1.1153
 1002THF    H1114464   4.834   0.677   1.564 -1.3084  1.8481  0.4526
 1002THF    H1214465   4.818   0.496   1.705  0.6684  1.0898 -0.4371
 1002THF    H1314466   4.659   0.537   1.760 -0.8939  1.2538 -0.7380
 1003THF     O114467   4.771   3.661   1.553  0.1383 -0.3144  0.6876
 1003THF     C214468   4.727   3.573   1.652 -0.1403 -0.8973 -0.3191
 1003THF     C314469   4.769   3.588   1.434 -0.8851 -0.0218 -0.3415
 1003THF     H414470   4.699   3.633   1.738  1.9965  1.4304 -1.1393
 1003THF     H514471   4.800   3.496   1.679  0.6184 -0.2353 -0.4431
 1003THF     H614472   4.772   3.652   1.346 -2.5014 -0.2057 -0.5708
 1003THF     H714473   4.860   3.528   1.435 -0.0487  1.1990  0.9983
 1003THF     C814474   4.646   3.505   1.437 -0.4062 -0.0543 -0.3878
 1003THF     C914475   4.611   3.503   1.583 -0.6391 -0.3169  1.1291
 1003THF    H1014476   4.658   3.410   1.386  1.1021 -0.6029  0.8970
 1003THF    H1114477   4.556   3.547   1.392  0.0611  2.4030  0.7825
 1003THF    H1214478   4.517   3.554   1.598 -1.8705 -1.5092 -1.7414
 1003THF    H1314479   4.604   3.403   1.626 -1.0554  0.2318  2.3956
 1004THF     O114480   1.862   4.062   1.743 -0.4580  0.7826  0.4271
 1004THF     C214481   1.797   4.068   1.863  0.1455 -0.2176 -0.4713
 1004THF     C314482   1.811   4.161   1.653 -0.0549  0.3336  0.0034
 1004THF     H414483   1.854   4.022   1.944  0.5704 -0.0248 -0.6625
 1004THF     H514484   1.706   4.009   1.849 -0.6078  0.8443 -0.1800
 1004THF     H614485   1.871   4.180   1.564  1.2409 -0.5765  0.6479
 1004THF     H714486   1.713   4.133   1.614 -0.4952 -1.8518  2.4084
 1004THF     C814487   1.794   4.283   1.741 -0.5591  0.9108 -0.0162
 1004THF     C914488   1.773   4.216   1.879  0.2997  0.6208 -0.2335
 1004THF    H1014489   1.706   4.339   1.710 -0.4796  0.7946 -0.4492
 1004THF    H1114490   1.889   4.337   1.743  0.4734 -0.8363  1.4482
 1004THF    H1214491   1.845   4.255   1.952 -2.1887  2.0190  1.6048
 1004THF    H1314492   1.671   4.227   1.916  0.0729 -1.1491 -0.2434
 1005THF     O114493   4.068   0.568   1.148 -0.2915 -0.1359  0.4992
 1005THF     C214494   4.105   0.619   1.018 -0.2890 -0.3128  0.0488
 1005THF     C314495   4.146   0.445   1.165 -0.4870  0.4382 -0.1184
 1005THF     H414496   4.079   0.725   1.023 -2.8059 -0.8041 -0.8871
 1005THF     H514497   4.051   0.570   0.937 -0.8412  2.2677 -1.2594
 1005THF     H614498   4.137   0.412   1.269  0.1069  1.3490  0.2289
 1005THF     H714499   4.096   0.372   1.101  0.8942 -0.3506 -0.3546
 1005THF     C814500   4.286   0.471   1.105  0.3658 -1.1174  0.1598
 1005THF     C914501   4.256   0.582   1.008 -0.3026 -0.2966 -0.7472
 1005THF    H1014502   4.336   0.389   1.053  1.2499 -0.6829  0.3173
 1005THF    H1114503   4.356   0.506   1.180 -0.9966 -1.1701  1.4886
 1005THF    H1214504   4.323   0.667   1.019 -1.0091  0.0145  1.8406
 1005THF    H1314505   4.267   0.551   0.904 -0.0767 -1.6143 -0.3544
 1006THF     O114506   3.514   4.646   3.882  0.0709  0.2739  0.3718
 1006THF     C214507   3.469   4.767   3.943 -0.6574  0.0294 -0.1032
 1006THF     C314508   3.550   4.682   3.752  0.0975  0.1716  0.1908
 1006THF     H414509   3.551   4.836   3.964 -1.7812  1.1634  0.7276
 1006THF     H514510   3.413   4.742   4.033 -0.6067 -0.7596 -0.2871
 1006THF     H614511   3.641   4.741   3.742  0.1211 -0.0832 -1.3671
 1006THF     H714512   3.555   4.604   3.676  2.0455 -0.8398  1.2924
 1006THF     C814513   3.435   4.779   3.713 -0.2426 -0.2664 -0.1505
 1006THF     C914514   3.376   4.821   3.842  0.4209 -0.0112 -0.4104
 1006THF    H1014515   3.372   4.712   3.654  0.3739 -0.6641 -0.3724
 1006THF    H1114516   3.465   4.859   3.646  2.1914  0.3365  1.5233
 1006THF    H1214517   3.374   4.930   3.846  0.2995  0.0145 -1.0559
 1006THF    H1314518   3.275   4.782   3.854  0.7123 -0.2782  1.4684
 1007THF     O114519   4.415   4.427   1.061  0.2539  0.0032  0.6319
 1007THF     C214520   4.467   4.541   0.987  0.6609 -0.0975 -0.3695
 1007THF     C314521   4.463   4.310   0.991  0.2192 -0.3622  0.1865
 1007THF     H414522   4.460   4.639   1.034  1.8110 -0.9641  1.7611
 1007THF     H514523   4.418   4.552   0.890 -1.5214  0.4195  0.7270
 1007THF     H614524   4.487   4.224   1.053  1.1403 -0.8857 -0.8448
 1007THF     H714525   4.408   4.275   0.903  1.4921 -0.9771 -0.3992
 1007THF     C814526   4.597   4.351   0.930  0.2907 -0.7550 -0.3224
 1007THF     C914527   4.609   4.504   0.961  0.4905 -0.0267 -0.1352
 1007THF    H1014528   4.587   4.328   0.823  1.2710  0.0565 -0.6052
 1007THF    H1114529   4.681   4.297   0.975  0.3597  0.2304  0.7531
 1007THF    H1214530   4.658   4.512   1.058 -1.7274 -2.2244  1.2822
 1007THF    H1314531   4.645   4.561   0.876 -0.1596  0.0733 -0.3417
 1008THF     O114532   2.553   2.029   2.205  0.3172  0.7189 -0.0745
 1008THF     C214533   2.589   2.148   2.276 -0.7646  0.0352  0.2697
 1008THF     C314534   2.426   1.980   2.247  0.2627 -1.1257 -0.0849
 1008THF     H414535   2.597   2.228   2.202  1.6374 -0.4609 -0.0910
 1008THF     H514536   2.688   2.145   2.321 -0.4247  0.8984 -0.3811
 1008THF     H614537   2.367   1.948   2.161 -0.4829  1.3355 -0.5594
 1008THF     H714538   2.439   1.899   2.319  0.9177 -1.9152 -1.0734
 1008THF     C814539   2.355   2.104   2.315 -0.0175 -0.2010  0.3375
 1008THF     C914540   2.475   2.165   2.380 -0.0369  0.0002 -0.5686
 1008THF    H1014541   2.275   2.076   2.384 -0.6926 -3.2821 -1.4914
 1008THF    H1114542   2.313   2.173   2.243  0.5158  0.4712  0.6677
 1008THF    H1214543   2.456   2.266   2.416 -1.1147  0.4665 -2.3102
 1008THF    H1314544   2.504   2.104   2.466 -0.9924  0.7521  0.3046
 1009PF6-    P114545   2.404   4.409   0.794 -0.6864 -0.3886 -0.0118
 1009PF6-    F214546   2.280   4.454   0.715 -0.0488 -0.1465 -0.4712
 1009PF6-    F314547   2.535   4.354   0.870  0.2981 -0.3030  0.5623
 1009PF6-    F414548   2.462   4.557   0.807  0.2014 -0.3690  0.7087
 1009PF6-    F514549   2.353   4.262   0.777  0.1619  0.6674 -0.5081
 1009PF6-    F614550   2.488   4.392   0.657 -0.4401 -0.1959  0.5948
 1009PF6-    F714551   2.331   4.417   0.930  0.2846  0.3925 -0.0744
 1010PF6-    P114552   2.165   3.718   3.630 -0.0319 -0.0612  0.0545
 1010PF6-    F214553   2.138   3.580   3.553  0.0891  0.0703  0.0504
 1010PF6-    F314554   2.191   3.853   3.707 -0.2021  0.5705 -0.5580
 1010PF6-    F414555   2.313   3.715   3.569  0.1348 -0.2759 -0.2632
 1010PF6-    F514556   2.018   3.716   3.687  0.4898 -0.3486  0.0563
 1010PF6-    F614557   2.222   3.636   3.757 -0.0327  0.2940 -0.2689
 1010PF6-    F714558   2.112   3.798   3.500  0.6194 -0.5641  0.1614
 1011PF6-    P114559   3.795   0.246   1.471  0.5023  0.2480  0.5483
 1011PF6-    F214560   3.635   0.266   1.461 -0.1058 -0.5687 -0.3672
 1011PF6-    F314561   3.957   0.228   1.477  0.2434 -0.2762 -0.4572
 1011PF6-    F414562   3.775   0.099   1.529  0.0134 -0.1156 -0.6046
 1011PF6-    F514563   3.821   0.397   1.419  0.0634 -0.0692 -0.2988
 1011PF6-    F614564   3.796   0.305   1.615 -0.3464  0.3532 -0.2227
 1011PF6-    F714565   3.794   0.195   1.319 -0.0176  0.5592  0.4893
 1012PF6-    P114566   4.865   1.200   2.920  0.0258  0.0031  0.0691
 1012PF6-    F214567   4.750   1.093   2.937 -0.6504 -0.5518  0.2734
 1012PF6-    F314568   4.984   1.299   2.905 -0.3356 -0.4377  0.2212
 1012PF6-    F414569   4.964   1.087   2.892  0.1821  0.7776 -0.6405
 1012PF6-    F514570   4.758   1.322   2.941 -0.3452 -0.2378 -0.1816
 1012PF6-    F614571   4.887   1.193   3.074 -0.9587 -0.0059  0.2945
 1012PF6-    F714572   4.835   1.219   2.768 -0.4019  0.2269  0.0145
 1013PF6-    P114573   5.109   1.494   0.668 -0.3231 -0.5585 -0.2730
 1013PF6-    F214574   5.145   1.570   0.536  0.2610  0.3593  0.3250
 1013PF6-    F314575   5.066   1.415   0.801 -0.2154 -0.0012 -0.2878
 1013PF6-    F414576   4.984   1.594   0.692 -0.2252  0.4148 -0.1237
 1013PF6-    F514577   5.230   1.388   0.640 -0.2421  0.3839 -0.1073
 1013PF6-    F614578   5.208   1.595   0.751 -0.3156 -0.1772  0.0892
 1013PF6-    F714579   5.011   1.403   0.580 -0.0656  0.5424  0.1477
 1014PF6-    P114580   3.435   5.162   5.226 -0.0077  0.2967 -0.6270
 1014PF6-    F214581   3.361   5.234   5.107  0.6144  0.3910  0.1380
 1014PF6-    F314582   3.508   5.095   5.353 -0.4526  0.3922  0.3249
 1014PF6-    F414583   3.351   5.029   5.200  0.0298  0.0728 -0.1275
 1014PF6-    F514584   3.514   5.296   5.264 -0.4664 -0.2898  0.3157
 1014PF6-    F614585   3.322   5.213   5.329  0.5834  0.5302  0.2089
 1014PF6-    F714586   3.558   5.112   5.126  0.2619 -0.5087 -0.3095
 1015PF6-    P114587   4.670   0.085   1.916 -0.1681 -0.3715 -0.0732
 1015PF6-    F214588   4.646  -0.053   1.987  0.1249 -0.2754  0.6953
 1015PF6-    F314589   4.684   0.225   1.839 -0.0256  0.0291  0.1025
 1015PF6-    F414590   4.555   0.041   1.813 -0.4624  0.2125 -0.1564
 1015PF6-    F514591   4.784   0.122   2.023  0.0878  0.2718 -0.1679
 1015PF6-    F614592   4.779   0.017   1.817 -0.4880 -0.0438 -0.3850
 1015PF6-    F714593   4.557   0.152   2.007 -0.1782  0.0781  0.1577
 1016PF6-    P114594   3.725   2.346   4.117 -0.5817 -0.5027  0.2332
 1016PF6-    F214595   3.844   2.391   4.020 -0.7778 -0.1277 -0.1450
 1016PF6-    F314596   3.603   2.301   4.212 -0.6272 -0.3644  0.4965
 1016PF6-    F414597   3.704   2.501   4.161 -0.1036  0.5883 -0.0695
 1016PF6-    F514598   3.751   2.194   4.062 -0.1375 -0.8740 -0.5549
 1016PF6-    F614599   3.828   2.322   4.241  0.2514  0.0760 -0.0845
 1016PF6-    F714600   3.617   2.367   3.996  0.1079 -0.1214  0.0797
 1017PF6-    P114601   5.252   0.816   1.469  0.0468 -0.4151  0.4940
 1017PF6-    F214602   5.213   0.663   1.472  0.3837 -0.1479  0.3177
 1017PF6-    F314603   5.294   0.968   1.467  0.1964 -0.4388  0.1904
 1017PF6-    F414604   5.175   0.840   1.609  0.1812 -0.5098 -0.3608
 1017PF6-    F514605   5.332   0.797   1.330 -0.4073 -0.0823  0.0646
 1017PF6-    F614606   5.117   0.854   1.388  0.1625 -0.8461 -0.4663
 1017PF6-    F714607   5.390   0.777   1.544 -0.1697 -0.7609  0.2916
 1018PF6-    P114608   4.501   3.989   0.647 -0.4288 -0.0286 -0.3708
 1018PF6-    F214609   4.540   3.990   0.804  0.2465 -0.1809 -0.9588
 1018PF6-    F314610   4.459   3.990   0.494 -0.2845  0.0381  0.6222
 1018PF6-    F414611   4.610   3.882   0.619  0.0727 -0.1490 -0.2165
 1018PF6-    F514612   4.390   4.103   0.673  0.2862 -0.0301 -0.2007
 1018PF6-    F614613   4.609   4.104   0.619  0.4875  0.5890 -0.1957
 1018PF6-    F714614   4.392   3.878   0.676  0.0383 -0.3324 -0.1190
 1019PF6-    P114615   1.600   0.123   3.975  0.0221  0.0015 -0.1500
 1019PF6-    F214616   1.680   0.221   4.078  0.6061 -0.5100  0.0181
 1019PF6-    F314617   1.527   0.023   3.876 -0.1626 -0.0517  0.4620
 1019PF6-    F414618   1.470   0.131   4.067  0.1436 -0.0988 -0.2052
 1019PF6-    F514619   1.731   0.113   3.884 -0.0715 -0.1796  0.0225
 1019PF6-    F614620   1.648   0.005   4.061 -0.1222  0.7867 -0.2026
 1019PF6-    F714621   1.547   0.250   3.893 -0.7744 -0.0326  0.4822
 1020PF6-    P114622   5.299   3.226   4.266 -0.0248 -0.1907 -0.2862
 1020PF6-    F214623   5.356   3.233   4.416 -0.1270 -0.1365  0.3181
 1020PF6-    F314624   5.245   3.228   4.113 -0.8072 -0.3065 -0.0074
 1020PF6-    F414625   5.199   3.340   4.302  0.2006  0.3217  0.2257
 1020PF6-    F514626   5.413   3.122   4.234  0.1557  0.0701  0.4698
 1020PF6-    F614627   5.200   3.109   4.306  0.1111  0.1450  0.1787
 1020PF6-    F714628   5.408   3.330   4.223 -0.0640 -0.0088  0.2743
 1021PF6-    P114629   2.962   0.754   4.168  0.1518  0.2757  0.3699
 1021PF6-    F214630   3.085   0.662   4.128 -0.2787  0.1230  0.3860
 1021PF6-    F314631   2.845   0.857   4.199 -0.5028  0.2205  0.1278
 1021PF6-    F414632   3.062   0.839   4.259 -0.1823  0.2788  0.2790
 1021PF6-    F514633   2.865   0.669   4.077  0.2605  0.0942  0.5820
 1021PF6-    F614634   2.929   0.654   4.293  0.0737  0.0834  0.1974
 1021PF6-    F714635   3.002   0.845   4.046 -0.1845  0.5613 -0.1232
 1022PF6-    P114636   2.062   0.191   3.298  0.3012  0.4156  0.2638
 1022PF6-    F214637   1.918   0.112   3.292 -0.5575 -0.6428  0.4919
 1022PF6-    F314638   2.202   0.265   3.303 -0.1090  0.5786  0.3917
 1022PF6-    F414639   2.115   0.079   3.194 -0.4505 -0.5534  0.6741
 1022PF6-    F514640   2.002   0.288   3.407  0.1146  0.5375 -0.2493
 1022PF6-    F614641   2.109   0.096   3.415 -0.3914 -0.2823  0.3864
 1022PF6-    F714642   2.015   0.285   3.175  0.3129  0.3935 -0.0678
 1023PF6-    P114643   2.427   4.954   3.369 -0.5112  0.0946  0.1550
 1023PF6-    F214644   2.337   5.021   3.253  0.4387 -0.5735 -0.1226
 1023PF6-    F314645   2.519   4.885   3.482  0.1387  0.5687 -0.2518
 1023PF6-    F414646   2.321   5.001   3.476 -0.3130 -0.4745  0.1513
 1023PF6-    F514647   2.533   4.896   3.259 -0.2312 -0.4783  0.5142
 1023PF6-    F614648   2.505   5.092   3.391  0.3270 -0.2460 -0.2874
 1023PF6-    F714649   2.345   4.814   3.353 -0.0459 -0.1896 -0.0162
 1024PF6-    P114650   0.853   3.421   4.648 -0.0442  0.1266 -0.2977
 1024PF6-    F214651   0.926   3.515   4.541 -0.0582  0.3380 -0.3496
 1024PF6-    F314652   0.772   3.333   4.755  0.3470 -0.2547  0.5362
 1024PF6-    F414653   0.855   3.543   4.750  0.1025  0.2331  0.2822
 1024PF6-    F514654   0.853   3.302   4.548 -0.2459  0.7401 -0.1497
 1024PF6-    F614655   0.994   3.375   4.711 -0.3596 -0.4641  0.0541
 1024PF6-    F714656   0.720   3.473   4.583 -0.1184 -0.4574 -0.3226
 1025PF6-    P114657   5.297   1.275   4.100  0.0184  0.2666 -0.4079
 1025PF6-    F214658   5.405   1.380   4.052 -0.2993 -0.6896 -0.2481
 1025PF6-    F314659   5.194   1.169   4.157  0.2780  0.1150  0.0852
 1025PF6-    F414660   5.371   1.285   4.246  0.2228  0.0386 -0.1591
 1025PF6-    F514661   5.230   1.272   3.955 -0.5951  0.1782  0.0358
 1025PF6-    F614662   5.395   1.158   4.053 -0.0932 -0.2565 -0.0973
 1025PF6-    F714663   5.200   1.396   4.144 -0.3048  0.1284  0.4194
 1026PF6-    P114664   3.839   0.643   5.443  0.0811  0.0534  0.0207
 1026PF6-    F214665   3.755   0.514   5.399 -0.4119  0.4330  0.2337
 1026PF6-    F314666   3.921   0.774   5.496  0.0761  0.0519 -0.1316
 1026PF6-    F414667   3.741   0.748   5.361  0.2521 -0.2327 -0.4738
 1026PF6-    F514668   3.930   0.544   5.533  0.3231  0.2517 -0.1330
 1026PF6-    F614669   3.929   0.635   5.314 -0.5541  0.1164  0.3361
 1026PF6-    F714670   3.741   0.655   5.571 -0.1720  0.5147 -0.2055
 1027PF6-    P114671   2.231   4.278   1.878  0.1778 -0.1848  0.0659
 1027PF6-    F214672   2.161   4.360   1.754  0.1389  0.0114  0.0691
 1027PF6-    F314673   2.295   4.195   1.994 -0.0532  0.1705 -0.5968
 1027PF6-    F414674   2.095   4.254   1.953 -0.0881 -0.0228 -0.1504
 1027PF6-    F514675   2.376   4.282   1.805  0.0969 -0.6345  0.5037
 1027PF6-    F614676   2.254   4.413   1.953  0.1111  0.3935 -0.0793
 1027PF6-    F714677   2.209   4.142   1.794  0.0294 -0.0728 -0.0710
 1028PF6-    P114678   3.096   4.086   0.959  0.1861 -0.0128  0.1578
 1028PF6-    F214679   3.100   4.160   1.099 -0.0162 -0.2814 -0.1697
 1028PF6-    F314680   3.099   4.005   0.817 -0.0937 -0.1104 -0.3960
 1028PF6-    F414681   3.202   3.977   1.014  0.7634  0.2412 -0.2498
 1028PF6-    F514682   2.986   4.194   0.910 -0.3159 -0.0009 -0.4035
 1028PF6-    F614683   3.220   4.177   0.915  0.3601  0.0446 -0.1431
 1028PF6-    F714684   2.973   3.994   1.007 -0.0910  0.3981  0.2232
 1029PF6-    P114685   4.005   5.000   4.686  0.1410  0.2479  0.3572
 1029PF6-    F214686   3.965   5.015   4.846  0.2954  0.0957  0.6075
 1029PF6-    F314687   4.053   4.987   4.529  0.5138  0.1110 -0.6256
 1029PF6-    F414688   3.897   5.113   4.651  0.4879 -0.3000 -0.3910
 1029PF6-    F514689   4.113   4.887   4.724  0.3565 -0.0434  0.0945
 1029PF6-    F614690   3.891   4.892   4.669  0.3490  0.3541 -0.2419
 1029PF6-    F714691   4.120   5.108   4.707 -0.1425 -0.2674 -0.2963
 1030PF6-    P114692   1.614   5.064   4.977 -0.0734 -0.1796 -0.3765
 1030PF6-    F214693   1.528   5.140   5.096 -0.4456  0.5972  0.1880
 1030PF6-    F314694   1.700   4.999   4.862 -0.8910 -0.5202 -0.2411
 1030PF6-    F414695   1.673   4.961   5.091 -0.1534  0.2689 -0.2163
 1030PF6-    F514696   1.549   5.172   4.875 -0.6173 -0.0388 -0.1566
 1030PF6-    F614697   1.733   5.171   5.003  0.0744  0.1790  0.0453
 1030PF6-    F714698   1.498   4.965   4.948  0.1636  0.3387  0.4150
 1031PF6-    P114699   1.810   4.165   4.559 -0.0575 -0.0286  0.0510
 1031PF6-    F214700   1.814   4.324   4.558 -0.3337  0.1322  0.5566
 1031PF6-    F314701   1.824   4.005   4.555  0.3802 -0.1176  0.1017
 1031PF6-    F414702   1.829   4.166   4.721 -0.4222 -0.2811  0.2775
 1031PF6-    F514703   1.791   4.168   4.400  0.2592  0.6208 -0.1831
 1031PF6-    F614704   1.968   4.173   4.538 -0.2863 -0.6630  0.3984
 1031PF6-    F714705   1.656   4.162   4.577 -0.0065 -0.0882  0.5726
 1032PF6-    P114706   4.344   5.193   1.081 -0.0815 -0.3477  0.0648
 1032PF6-    F214707   4.266   5.093   1.169  0.6466  0.3132  0.1269
 1032PF6-    F314708   4.431   5.303   1.003  0.0663 -0.1548 -0.0634
 1032PF6-    F414709   4.453   5.208   1.197 -0.0826 -0.1926 -0.2216
 1032PF6-    F514710   4.233   5.189   0.965 -0.1722 -0.1390 -0.1628
 1032PF6-    F614711   4.262   5.313   1.153  0.0830  0.1927 -0.0781
 1032PF6-    F714712   4.435   5.077   1.015 -0.3306  0.2229 -0.3970
 1033PF6-    P114713   4.160   2.348   0.820 -0.0521  0.4564 -0.0293
 1033PF6-    F214714   4.307   2.395   0.764  0.0428  0.4600 -0.0929
 1033PF6-    F314715   4.015   2.308   0.880 -0.1728  0.1704  0.3497
 1033PF6-    F414716   4.174   2.465   0.924  0.1480  0.1826 -0.2940
 1033PF6-    F514717   4.152   2.224   0.714  0.7226 -0.1410 -0.1267
 1033PF6-    F614718   4.229   2.246   0.924  0.0339  0.2986  0.1537
 1033PF6-    F714719   4.097   2.437   0.711  0.0464 -0.3691 -0.1301
 1034PF6-    P114720   3.373   1.828   2.186  0.2277  0.2777  0.0211
 1034PF6-    F214721   3.292   1.938   2.276  0.1388  0.0930 -0.2311
 1034PF6-    F314722   3.444   1.714   2.097  0.4294 -0.2250  0.2106
 1034PF6-    F414723   3.295   1.709   2.257  0.2106 -0.0965 -0.1382
 1034PF6-    F514724   3.451   1.944   2.109  0.8339  0.4431 -0.2116
 1034PF6-    F614725   3.489   1.813   2.299  0.4658 -0.5477 -0.5297
 1034PF6-    F714726   3.263   1.833   2.072  0.5312  0.0507  0.0060
 1035PF6-    P114727   3.328   5.157   3.424  0.0511  0.1713  0.0092
 1035PF6-    F214728   3.290   5.220   3.282  0.4921  0.4030 -0.2867
 1035PF6-    F314729   3.365   5.089   3.565 -0.4756 -0.5781 -0.1060
 1035PF6-    F414730   3.399   5.290   3.470  0.5423  0.2129  0.0623
 1035PF6-    F514731   3.258   5.020   3.376 -0.1307 -0.3101 -0.7744
 1035PF6-    F614732   3.464   5.105   3.366 -0.0971 -0.6661 -0.3168
 1035PF6-    F714733   3.193   5.207   3.481  0.1789 -0.1884 -0.2965
 1036PF6-    P114734   3.846   4.286   3.850 -0.0450 -0.1260  0.3048
 1036PF6-    F214735   3.866   4.443   3.872  0.4649  0.0583  0.3504
 1036PF6-    F314736   3.821   4.133   3.822 -1.1708 -0.4851 -0.2962
 1036PF6-    F414737   3.747   4.284   3.971  0.3283 -0.7233 -0.0455
 1036PF6-    F514738   3.956   4.284   3.725  0.4217 -0.2356 -0.6234
 1036PF6-    F614739   3.962   4.255   3.951  0.0949  0.0338  0.0079
 1036PF6-    F714740   3.727   4.318   3.752  0.1274  0.2557  0.7115
 1037PF6-    P114741   4.282   4.257   1.857 -0.1224 -0.2751 -0.0482
 1037PF6-    F214742   4.129   4.287   1.833 -0.0580  0.0672 -0.6584
 1037PF6-    F314743   4.438   4.238   1.876  0.0474 -0.5374 -0.5212
 1037PF6-    F414744   4.301   4.417   1.875 -0.1942  0.6306  0.3037
 1037PF6-    F514745   4.272   4.102   1.846  0.0120  0.2275  0.1321
 1037PF6-    F614746   4.313   4.276   1.700  0.1733 -0.4342 -0.0302
 1037PF6-    F714747   4.258   4.236   2.014 -0.0557 -0.1666 -0.3671
 1038PF6-    P114748   4.994   5.443   3.422  0.3238 -0.4724 -0.3123
 1038PF6-    F214749   5.037   5.289   3.428  0.6950  0.1397  0.3840
 1038PF6-    F314750   4.949   5.600   3.418 -0.2694 -0.2718 -0.6118
 1038PF6-    F414751   4.872   5.412   3.327 -0.1314  0.2013  0.5337
 1038PF6-    F514752   5.109   5.484   3.528 -0.3001  0.2086  0.7215
 1038PF6-    F614753   5.093   5.467   3.299  0.1336 -0.1641  0.3722
 1038PF6-    F714754   4.897   5.421   3.553 -0.1412  0.0575 -0.5828
 1039PF6-    P114755   4.883   2.077   3.620  0.2730 -0.3445 -0.2213
 1039PF6-    F214756   4.822   2.211   3.565 -0.7604 -0.3829  0.5032
 1039PF6-    F314757   4.947   1.947   3.686 -0.6513 -0.3584  0.1252
 1039PF6-    F414758   4.955   2.046   3.477 -0.6898 -0.5173  0.6729
 1039PF6-    F514759   4.819   2.112   3.763 -0.7077  0.1183 -0.1317
 1039PF6-    F614760   4.744   1.999   3.579 -0.1240  0.1660  0.2544
 1039PF6-    F714761   5.021   2.159   3.667  0.1159 -0.3086  0.3971
 1040PF6-    P114762   0.135   5.199   5.207  0.0224 -0.3195  0.8761
 1040PF6-    F214763   0.002   5.145   5.279 -0.0144 -0.0487  0.4678
 1040PF6-    F314764   0.272   5.236   5.135 -0.2046  0.2177 -0.0924
 1040PF6-    F414765   0.061   5.321   5.136 -0.1978  0.4704 -0.1094
 1040PF6-    F514766   0.218   5.079   5.275  0.1543  0.3686  0.4421
 1040PF6-    F614767   0.109   5.103   5.085 -0.2325  0.3771 -0.3857
 1040PF6-    F714768   0.178   5.293   5.331  0.3858  0.1898  0.0539
 1041PF6-    P114769   1.128   0.017   2.840 -0.1179  0.3296  0.2482
 1041PF6-    F214770   0.993  -0.064   2.803 -0.3151  0.6459 -0.1633
 1041PF6-    F314771   1.258   0.094   2.886  0.0153  0.2234 -0.1605
 1041PF6-    F414772   1.207  -0.123   2.850  0.0927 -0.1182  0.2009
 1041PF6-    F514773   1.045   0.148   2.831  0.5616 -0.2666 -0.1057
 1041PF6-    F614774   1.088   0.003   2.992  0.2611  0.3570  0.0848
 1041PF6-    F714775   1.162   0.030   2.683 -0.4125  0.0530 -0.4417
 1042PF6-    P114776   1.972   2.616   0.960  0.2652  0.1540  0.0137
 1042PF6-    F214777   1.931   2.640   0.807 -0.5600 -0.4148  0.1004
 1042PF6-    F314778   2.010   2.583   1.107 -0.0180  0.2656  0.5425
 1042PF6-    F414779   2.120   2.608   0.902  0.0328 -0.4329  0.2805
 1042PF6-    F514780   1.814   2.626   0.999  0.0351 -0.1860  0.2909
 1042PF6-    F614781   1.942   2.459   0.937 -0.0193  0.2522 -0.5685
 1042PF6-    F714782   1.995   2.772   0.992 -0.1013  0.0053  0.3180
 1043PF6-    P114783   4.465   2.125   4.704  0.1445 -0.3234  0.5441
 1043PF6-    F214784   4.542   2.263   4.688 -0.2235  0.4335 -0.3133
 1043PF6-    F314785   4.383   1.992   4.709 -0.0214 -0.2328 -0.0534
 1043PF6-    F414786   4.538   2.096   4.844  0.5821  0.2659 -0.0234
 1043PF6-    F514787   4.397   2.158   4.562  0.6780 -0.1852 -0.2065
 1043PF6-    F614788   4.588   2.052   4.619  0.1742 -0.5593 -0.3020
 1043PF6-    F714789   4.344   2.201   4.778 -0.1947  0.1189  0.1000
 1044PF6-    P114790   3.126   2.481   1.280  0.3321 -0.6030  0.0897
 1044PF6-    F214791   3.179   2.334   1.324 -0.2271 -0.3237  0.1950
 1044PF6-    F314792   3.063   2.629   1.247  0.0011  0.5194  0.2422
 1044PF6-    F414793   2.987   2.414   1.236  0.6792  0.1704 -0.3073
 1044PF6-    F514794   3.269   2.537   1.325 -0.4106 -0.0776  0.4851
 1044PF6-    F614795   3.178   2.472   1.129 -0.2492  0.1977  0.1147
 1044PF6-    F714796   3.067   2.492   1.429 -0.1343  0.2748  0.4824
 1045PF6-    P114797   3.192   0.264   4.784 -0.0267 -0.3291  0.3786
 1045PF6-    F214798   3.191   0.365   4.654  0.2555 -0.2514  0.4890
 1045PF6-    F314799   3.192   0.167   4.909 -0.5005 -0.6217  0.3824
 1045PF6-    F414800   3.259   0.148   4.695  0.1201 -0.2250  0.2603
 1045PF6-    F514801   3.128   0.385   4.877 -1.0308  0.7869  0.4745
 1045PF6-    F614802   3.044   0.211   4.748  0.0441  0.7404 -0.4836
 1045PF6-    F714803   3.342   0.319   4.814 -0.5502 -0.2785 -0.2155
 1046PF6-    P114804   0.666   0.602   3.357  0.2242 -0.1007 -0.0132
 1046PF6-    F214805   0.628   0.494   3.466 -0.1970 -0.2747  0.3610
 1046PF6-    F314806   0.710   0.705   3.249 -0.0274 -0.0485  0.6781
 1046PF6-    F414807   0.612   0.505   3.242 -0.2055 -0.2014  0.3098
 1046PF6-    F514808   0.720   0.701   3.474  0.4570  0.0409  0.3432
 1046PF6-    F614809   0.809   0.529   3.355  0.1191  0.8435  0.3916
 1046PF6-    F714810   0.524   0.673   3.366  0.2033 -0.3700 -0.2292
 1047PF6-    P114811   2.554   3.465   1.386  0.1647  0.0385  0.4680
 1047PF6-    F214812   2.560   3.549   1.248 -0.1414  0.4775 -0.4290
 1047PF6-    F314813   2.547   3.376   1.522 -0.3271  0.0888  0.4509
 1047PF6-    F414814   2.392   3.481   1.388  0.2050 -0.4096 -0.3527
 1047PF6-    F514815   2.706   3.434   1.371  0.1108  0.3141  0.2416
 1047PF6-    F614816   2.579   3.598   1.475  0.1034 -0.2345 -0.2280
 1047PF6-    F714817   2.523   3.332   1.303 -0.3810  0.1775 -0.4805
 1048PF6-    P114818   0.666   2.363   2.984 -0.4414 -0.0721 -0.0928
 1048PF6-    F214819   0.695   2.474   2.867  0.0722  0.4767  0.3413
 1048PF6-    F314820   0.650   2.249   3.088  0.2453 -0.2497  0.4688
 1048PF6-    F414821   0.820   2.314   2.957  0.5226 -0.0797  0.5509
 1048PF6-    F514822   0.514   2.410   3.001 -0.2063  0.0775 -0.1739
 1048PF6-    F614823   0.617   2.268   2.871  0.0406 -0.0279 -0.0949
 1048PF6-    F714824   0.716   2.459   3.103  0.6851 -0.2963  0.2634
 1049PF6-    P114825   3.439   4.206   4.664  0.7940 -0.1559  0.2152
 1049PF6-    F214826   3.511   4.120   4.554  0.0535 -0.0647 -0.0953
 1049PF6-    F314827   3.372   4.286   4.778 -0.0644 -0.3572 -0.6045
 1049PF6-    F414828   3.543   4.136   4.767  0.4074 -0.1456  0.1391
 1049PF6-    F514829   3.335   4.269   4.559 -0.1348 -0.0669  0.0374
 1049PF6-    F614830   3.331   4.086   4.686  0.1806  0.2302  0.0611
 1049PF6-    F714831   3.546   4.317   4.638 -0.1378  0.0872 -0.2413
 1050PF6-    P114832   5.394   1.451   3.490  0.2836 -0.4806 -0.5599
 1050PF6-    F214833   5.374   1.347   3.610 -0.8044  0.0058 -0.1543
 1050PF6-    F314834   5.410   1.554   3.369 -0.3791 -0.6732 -0.0212
 1050PF6-    F414835   5.271   1.536   3.542 -0.2305  0.2888  0.1122
 1050PF6-    F514836   5.520   1.364   3.441  0.5041  0.3015  0.4728
 1050PF6-    F614837   5.299   1.368   3.394  0.0789 -0.2484 -0.0493
 1050PF6-    F714838   5.497   1.534   3.587  0.2227 -0.1015  0.3884
 1051PF6-    P114839   3.461   3.410   5.253 -0.1630 -0.1303 -0.3427
 1051PF6-    F214840   3.310   3.416   5.311 -0.4527 -0.2978 -0.0697
 1051PF6-    F314841   3.615   3.404   5.188 -0.0766 -0.1634  0.4505
 1051PF6-    F414842   3.490   3.556   5.319  0.0242 -0.2494  0.0402
 1051PF6-    F514843   3.435   3.268   5.193 -0.0954 -0.1694  0.2663
 1051PF6-    F614844   3.411   3.478   5.116 -0.5444  0.0064 -0.2156
 1051PF6-    F714845   3.518   3.346   5.392  0.1900  0.6387  0.1767
 1052PF6-    P114846   1.260   0.215   1.730 -0.3008 -0.1867 -0.1296
 1052PF6-    F214847   1.196   0.254   1.874 -0.5631  0.0374 -0.1814
 1052PF6-    F314848   1.331   0.165   1.598  0.1538 -0.0992  0.3242
 1052PF6-    F414849   1.299   0.368   1.694  0.1152  0.3824 -0.6220
 1052PF6-    F514850   1.232   0.063   1.774 -0.1598  0.1832 -0.3233
 1052PF6-    F614851   1.120   0.229   1.655 -0.0797 -0.3714 -0.3256
 1052PF6-    F714852   1.401   0.202   1.802 -0.1799  0.2237  0.7709
 1053PF6-    P114853   2.507   0.882   3.799 -0.5404 -0.3303  0.0527
 1053PF6-    F214854   2.424   0.785   3.697 -0.1910  1.2664  0.2642
 1053PF6-    F314855   2.598   0.970   3.895 -0.2365 -0.9014 -0.2879
 1053PF6-    F414856   2.444   0.802   3.926  0.8337  0.2075 -0.1538
 1053PF6-    F514857   2.580   0.957   3.674 -0.8442  0.0521 -0.2905
 1053PF6-    F614858   2.385   0.988   3.797  0.4093 -0.3140  0.0466
 1053PF6-    F714859   2.629   0.776   3.799 -0.4230 -0.1888 -0.0424
 1054PF6-    P114860   3.397   1.202   2.252 -0.3400 -0.0594 -0.2107
 1054PF6-    F214861   3.347   1.231   2.101  0.2786  0.1001  0.3520
 1054PF6-    F314862   3.446   1.169   2.401 -0.0627 -0.0458 -0.4057
 1054PF6-    F414863   3.537   1.152   2.190  0.3665 -0.0967  0.3062
 1054PF6-    F514864   3.257   1.263   2.319 -0.2145 -0.1749 -0.0390
 1054PF6-    F614865   3.330   1.059   2.239 -0.3785 -0.4177 -0.0008
 1054PF6-    F714866   3.455   1.356   2.261 -0.2502 -0.1772  0.5089
 1055PF6-    P114867   0.278   2.588   4.198 -0.1099 -0.4359 -0.5690
 1055PF6-    F214868   0.278   2.553   4.357  0.4786 -0.0019 -0.0339
 1055PF6-    F314869   0.272   2.622   4.046  0.0691 -0.3298  0.4361
 1055PF6-    F414870   0.316   2.742   4.237  0.3189  0.1478  0.4203
 1055PF6-    F514871   0.238   2.436   4.163  0.0557 -0.4444 -0.2384
 1055PF6-    F614872   0.123   2.630   4.213  0.1383 -0.1617  0.3561
 1055PF6-    F714873   0.431   2.547   4.190 -0.1975  0.1045  0.0238
 1056PF6-    P114874   2.694   5.129   4.355 -0.2664 -0.2749 -0.7632
 1056PF6-    F214875   2.741   5.025   4.239  0.1234  0.0523 -0.1405
 1056PF6-    F314876   2.657   5.228   4.478 -0.4412  0.2491  0.3865
 1056PF6-    F414877   2.846   5.134   4.402 -0.7163  0.1500  0.0270
 1056PF6-    F514878   2.544   5.130   4.305 -0.0414 -0.0468 -0.3420
 1056PF6-    F614879   2.672   5.008   4.463  0.1434 -0.0348  0.1437
 1056PF6-    F714880   2.726   5.253   4.257  0.2482  0.0217 -0.2034
 1057PF6-    P114881   1.125   1.946   1.175 -0.2675  0.1588  0.2266
 1057PF6-    F214882   1.244   1.855   1.116  0.1274  0.4935  0.1300
 1057PF6-    F314883   1.009   2.048   1.220  0.0471  0.4008 -0.5889
 1057PF6-    F414884   1.216   1.977   1.301 -0.0403  0.3324  0.2724
 1057PF6-    F514885   1.033   1.898   1.054 -0.2220 -0.0870  0.0098
 1057PF6-    F614886   1.068   1.829   1.267 -0.2073  0.3123 -0.0802
 1057PF6-    F714887   1.189   2.064   1.080  0.5231 -0.0055 -0.6189
 1058PF6-    P114888   3.931   3.572   2.571 -0.4192  0.5352  0.1733
 1058PF6-    F214889   3.979   3.564   2.728 -0.6236  0.6292  0.3568
 1058PF6-    F314890   3.888   3.581   2.416 -0.4685  0.5066 -0.5153
 1058PF6-    F414891   3.798   3.657   2.614  0.0447 -0.1127  0.2053
 1058PF6-    F514892   4.064   3.488   2.525  0.2181  0.6578  0.4739
 1058PF6-    F614893   3.847   3.445   2.579 -0.1946 -0.1572  0.0181
 1058PF6-    F714894   4.013   3.707   2.562 -0.6187 -0.1542  0.3552
 1059PF6-    P114895   5.207   3.793   0.526 -0.3116 -0.0646  0.0137
 1059PF6-    F214896   5.204   3.830   0.679  0.3326 -0.4607  0.1768
 1059PF6-    F314897   5.219   3.759   0.369  0.7203 -0.2475 -0.4236
 1059PF6-    F414898   5.163   3.643   0.558 -0.0131  0.7561  0.0856
 1059PF6-    F514899   5.247   3.941   0.488  0.4130 -0.1068 -0.0760
 1059PF6-    F614900   5.362   3.755   0.549 -0.3899  0.0352  0.6738
 1059PF6-    F714901   5.058   3.838   0.505 -0.1022  0.1285  0.2414
 1060PF6-    P114902   1.070   4.679   3.354 -0.2505 -0.2538 -0.3672
 1060PF6-    F214903   0.993   4.703   3.491  0.4543 -0.3567  0.0014
 1060PF6-    F314904   1.156   4.657   3.227 -0.0162  0.2668  0.4017
 1060PF6-    F414905   1.201   4.687   3.440 -0.0191  0.5360  0.2231
 1060PF6-    F514906   0.938   4.668   3.265  0.2024 -0.1043 -0.4846
 1060PF6-    F614907   1.081   4.834   3.329  0.1277 -0.3198 -0.1230
 1060PF6-    F714908   1.064   4.519   3.380 -0.0221 -0.8162 -0.1704
 1061PF6-    P114909   0.512   0.630   2.517 -0.0451  0.5556 -0.3403
 1061PF6-    F214910   0.476   0.666   2.365 -0.4324 -0.4959  0.2741
 1061PF6-    F314911   0.555   0.601   2.671 -0.2282  0.3092  0.1623
 1061PF6-    F414912   0.423   0.753   2.567  0.0416 -0.4406 -0.0456
 1061PF6-    F514913   0.600   0.508   2.466 -0.2355 -0.6166  0.4855
 1061PF6-    F614914   0.642   0.724   2.509  0.1873 -0.0512 -0.8034
 1061PF6-    F714915   0.384   0.540   2.521  0.2528  0.4425 -0.0794
 1062PF6-    P114916   0.650   4.568   4.541 -0.7097 -0.4928  0.0933
 1062PF6-    F214917   0.580   4.428   4.532 -0.1472  0.9143 -0.0644
 1062PF6-    F314918   0.729   4.707   4.551 -0.2688 -0.6336 -0.0684
 1062PF6-    F414919   0.687   4.552   4.388  0.4953 -0.0390  0.3010
 1062PF6-    F514920   0.610   4.581   4.699 -0.9149 -0.1190 -0.5824
 1062PF6-    F614921   0.784   4.493   4.581 -0.8168  0.0062  0.4587
 1062PF6-    F714922   0.517   4.642   4.492 -0.2365  0.2510 -0.0898
 1063PF6-    P114923   1.971   3.049   2.047 -0.3588  0.1948 -0.0220
 1063PF6-    F214924   1.811   3.064   2.055 -0.6683  0.6209  0.1902
 1063PF6-    F314925   2.138   3.040   2.046  0.2477 -1.2079  0.1925
 1063PF6-    F414926   1.967   2.901   2.113  0.2912  0.0632 -0.0516
 1063PF6-    F514927   1.985   3.193   1.977 -0.5823  0.7866  0.0701
 1063PF6-    F614928   1.984   3.115   2.190 -0.2765 -0.5176 -0.1160
 1063PF6-    F714929   1.963   2.983   1.901  0.1661  0.2725  0.0177
 1064PF6-    P114930   2.523   5.131   2.829  0.1910  0.0485 -0.2449
 1064PF6-    F214931   2.388   5.043   2.791  0.5253 -0.2069 -0.4053
 1064PF6-    F314932   2.657   5.207   2.869 -0.2538 -0.7123  0.4812
 1064PF6-    F414933   2.616   5.030   2.741 -0.1634 -0.3411 -0.3214
 1064PF6-    F514934   2.439   5.231   2.912 -0.1885 -0.2089 -0.1730
 1064PF6-    F614935   2.548   5.043   2.961 -0.3535  0.6315  0.0253
 1064PF6-    F714936   2.499   5.221   2.694 -0.3777  0.0471  0.2344
 1065PF6-    P114937   3.146   3.691   3.435  0.5233  0.3551 -0.0094
 1065PF6-    F214938   3.102   3.567   3.517 -0.6147 -0.1978  0.3141
 1065PF6-    F314939   3.186   3.818   3.352  0.4494 -0.6483 -0.4446
 1065PF6-    F414940   3.173   3.775   3.564 -0.0635  0.0573 -0.0322
 1065PF6-    F514941   3.121   3.612   3.295  0.0759  0.7719 -0.0174
 1065PF6-    F614942   2.989   3.739   3.440  0.0583  0.0933 -0.3762
 1065PF6-    F714943   3.295   3.637   3.443  0.0395  0.4085  0.1521
 1066PF6-    P114944   4.262   1.568   0.305  0.3619 -0.1890  0.0659
 1066PF6-    F214945   4.356   1.528   0.183 -0.1127 -0.6706 -0.0621
 1066PF6-    F314946   4.163   1.607   0.427 -0.2389 -0.4587  0.2274
 1066PF6-    F414947   4.182   1.668   0.209  0.3431 -0.0116  0.0743
 1066PF6-    F514948   4.340   1.468   0.399 -0.1297 -0.5864  0.8109
 1066PF6-    F614949   4.366   1.680   0.350 -0.0161  0.3839 -0.6561
 1066PF6-    F714950   4.160   1.450   0.261 -0.3470  0.0607  0.4923
 1067PF6-    P114951   4.778   4.913   0.317 -0.1604 -0.0472  0.3081
 1067PF6-    F214952   4.673   4.905   0.440  0.1447  0.2664 -0.0026
 1067PF6-    F314953   4.883   4.918   0.202  0.2096 -0.2491 -0.4848
 1067PF6-    F414954   4.797   4.756   0.330 -0.8489  0.5003  0.3448
 1067PF6-    F514955   4.758   5.071   0.303  0.1274 -0.1558 -0.6685
 1067PF6-    F614956   4.897   4.938   0.413 -0.6310  0.2910 -0.4492
 1067PF6-    F714957   4.658   4.888   0.208  0.1611 -0.1848  0.1716
 1068PF6-    P114958   4.072   4.439   5.344 -0.4279  0.0232 -0.1773
 1068PF6-    F214959   4.172   4.482   5.459 -0.1448  0.1385  0.6775
 1068PF6-    F314960   3.966   4.392   5.233 -0.0491 -0.1274 -0.2097
 1068PF6-    F414961   3.952   4.476   5.438  0.6070  0.4444 -0.1047
 1068PF6-    F514962   4.188   4.403   5.237 -0.2214  0.0452 -0.3587
 1068PF6-    F614963   4.076   4.292   5.405 -0.0177 -0.2362 -0.1509
 1068PF6-    F714964   4.067   4.589   5.281 -0.0609  0.0060  0.2393
 1069PF6-    P114965   3.078   1.509   1.226  0.4347  0.1231  0.2359
 1069PF6-    F214966   2.974   1.470   1.341  0.4161  0.1509  0.1797
 1069PF6-    F314967   3.172   1.557   1.100  0.2089  0.2058  0.3485
 1069PF6-    F414968   3.119   1.641   1.312  0.4790  0.4275  0.3286
 1069PF6-    F514969   3.036   1.378   1.140 -0.1574  0.4236  0.0224
 1069PF6-    F614970   2.956   1.591   1.160  0.4880  0.1526 -0.2703
 1069PF6-    F714971   3.197   1.430   1.295 -0.2162 -0.6290  0.4743
 1070PF6-    P114972   1.982   1.228   0.038  0.3042  0.6006  0.3318
 1070PF6-    F214973   1.885   1.293   0.145  0.8702 -0.1945 -0.1350
 1070PF6-    F314974   2.076   1.167  -0.076  0.1875  0.0924  0.5371
 1070PF6-    F414975   2.012   1.104   0.136 -0.3537  0.3545 -0.2563
 1070PF6-    F514976   1.958   1.349  -0.067  0.3120 -0.0949 -0.6111
 1070PF6-    F614977   2.100   1.311   0.101 -0.4495  0.0736 -0.1039
 1070PF6-    F714978   1.859   1.144  -0.026 -0.5748 -0.0493 -0.2576
 1071PF6-    P114979   2.321   1.402   2.699 -0.0795 -0.2595  0.6950
 1071PF6-    F214980   2.265   1.266   2.638  0.0549  0.2256  0.0263
 1071PF6-    F314981   2.379   1.532   2.765  0.4825  0.4396  0.6016
 1071PF6-    F414982   2.203   1.492   2.639 -0.3521 -0.1222 -0.0453
 1071PF6-    F514983   2.437   1.321   2.774 -0.5961 -0.2778  0.0928
 1071PF6-    F614984   2.416   1.420   2.567  0.0612  0.0677 -0.4458
 1071PF6-    F714985   2.231   1.382   2.831  0.0340  0.3697  0.0526
 1072PF6-    P114986   4.362   5.327   2.740  0.1426 -0.2682 -0.4701
 1072PF6-    F214987   4.491   5.353   2.835 -0.0515 -0.0838  0.0903
 1072PF6-    F314988   4.237   5.300   2.640  0.4194 -0.6874  0.2726
 1072PF6-    F414989   4.319   5.210   2.835  0.3454  0.3616 -0.1385
 1072PF6-    F514990   4.415   5.454   2.645 -0.3972 -0.2890  0.5429
 1072PF6-    F614991   4.449   5.227   2.651 -0.2307 -0.2501 -0.3136
 1072PF6-    F714992   4.268   5.421   2.834 -0.4368 -1.1413 -0.1324
 1073PF6-    P114993   0.715   1.281   3.751 -0.1551  0.0409 -0.0853
 1073PF6-    F214994   0.838   1.320   3.846  0.2650  0.3765  0.0568
 1073PF6-    F314995   0.600   1.240   3.652  0.2972  0.3718  0.6679
 1073PF6-    F414996   0.734   1.126   3.787 -0.1290  0.0405  0.0909
 1073PF6-    F514997   0.694   1.432   3.714 -0.4138 -0.2876 -0.1689
 1073PF6-    F614998   0.820   1.267   3.629  0.3244  0.8096 -0.2639
 1073PF6-    F714999   0.614   1.301   3.877 -0.2442  0.5230  0.1326
 1074PF6-    P115000   3.214   5.133   1.545  0.5072 -0.2190 -0.2642
 1074PF6-    F215001   3.242   5.091   1.698 -0.4199 -0.1474 -0.0717
 1074PF6-    F315002   3.180   5.176   1.399 -0.0201 -0.2233 -0.0847
 1074PF6-    F415003   3.103   5.231   1.596  0.0493  0.1136 -0.4396
 1074PF6-    F515004   3.331   5.030   1.494 -0.1651 -0.2358  0.0035
 1074PF6-    F615005   3.103   5.018   1.533  0.6319 -0.1156  0.3700
 1074PF6-    F715006   3.321   5.247   1.558  0.7488 -0.0918 -0.0293
 1075PF6-    P115007   4.070   1.962   3.273 -0.3086  0.0720 -0.4320
 1075PF6-    F215008   4.145   1.917   3.409  0.2353  0.1730  0.2363
 1075PF6-    F315009   4.001   2.002   3.133  0.0546  0.4055 -0.1630
 1075PF6-    F415010   4.192   1.895   3.191  0.5677 -0.1078 -0.1559
 1075PF6-    F515011   3.945   2.023   3.361  0.0422 -0.0076 -0.3663
 1075PF6-    F615012   4.141   2.099   3.281  0.4685  0.1410 -0.3520
 1075PF6-    F715013   3.995   1.821   3.269  0.3113 -0.0822  0.7635
 1076PF6-    P115014   4.307   2.071   2.200 -0.2220  0.3661 -0.2375
 1076PF6-    F215015   4.397   2.199   2.167 -0.5932  0.2633  0.2872
 1076PF6-    F315016   4.223   1.940   2.239 -0.0031 -0.6189  0.5352
 1076PF6-    F415017   4.266   2.049   2.045  0.2897 -0.0042 -0.1540
 1076PF6-    F515018   4.339   2.089   2.357  0.0801 -0.7349 -0.1981
 1076PF6-    F615019   4.184   2.171   2.218 -0.6579  0.0393  0.1716
 1076PF6-    F715020   4.430   1.962   2.180  0.1881 -0.0428 -0.6615
 1077PF6-    P115021   4.539   3.468   3.571 -0.0230 -0.2559  0.1686
 1077PF6-    F215022   4.579   3.582   3.466  0.0370  0.5477 -0.4155
 1077PF6-    F315023   4.501   3.357   3.677 -0.3025  0.6078  0.2829
 1077PF6-    F415024   4.402   3.538   3.610  0.0796 -0.2278  0.3099
 1077PF6-    F515025   4.680   3.399   3.537 -0.4273  0.0648 -0.5826
 1077PF6-    F615026   4.612   3.555   3.689  0.3195  0.1749  0.3528
 1077PF6-    F715027   4.474   3.383   3.452 -0.3087 -0.0717  0.1617
 1078PF6-    P115028   1.330   2.455   0.288 -0.1597 -0.2831  0.2246
 1078PF6-    F215029   1.171   2.483   0.258 -0.0795 -0.4278 -0.1656
 1078PF6-    F315030   1.487   2.438   0.313  0.4435  0.0974 -0.6936
 1078PF6-    F415031   1.351   2.609   0.250  0.2484  0.0939  0.2457
 1078PF6-    F515032   1.297   2.309   0.328 -0.2409 -0.0211 -0.0478
 1078PF6-    F615033   1.345   2.418   0.132  0.0418 -0.3165  0.1059
 1078PF6-    F715034   1.313   2.496   0.444  0.2116 -0.2216 -0.3369
 1079PF6-    P115035   2.545   4.135   4.681 -0.1996  0.2729  0.3682
 1079PF6-    F215036   2.568   4.262   4.594  0.0778 -0.1075  0.7744
 1079PF6-    F315037   2.526   4.003   4.770 -0.0845  0.0396  0.5402
 1079PF6-    F415038   2.430   4.097   4.585  0.6224  0.0449  0.0848
 1079PF6-    F515039   2.671   4.181   4.778 -0.0915 -0.5497  0.4212
 1079PF6-    F615040   2.442   4.214   4.770  0.1999  0.0122  0.1199
 1079PF6-    F715041   2.644   4.055   4.588 -0.2220  0.4645 -0.5559
 1080PF6-    P115042   3.584   2.306   0.536  0.3771  0.4299  0.3535
 1080PF6-    F215043   3.658   2.239   0.656 -0.3083  0.3102 -0.1593
 1080PF6-    F315044   3.505   2.375   0.418  0.0957 -0.3579 -0.5010
 1080PF6-    F415045   3.576   2.438   0.625  0.0113 -0.1665  0.5546
 1080PF6-    F515046   3.590   2.171   0.450 -0.0826  0.4429 -0.4832
 1080PF6-    F615047   3.445   2.249   0.594 -0.1317  0.3289  0.1993
 1080PF6-    F715048   3.716   2.355   0.473 -0.4024 -0.8563 -0.4963
 1081PF6-    P115049   0.834   5.247   3.925  0.0621 -0.4731  0.0893
 1081PF6-    F215050   0.902   5.327   3.803 -0.5410  0.0584  0.4576
 1081PF6-    F315051   0.773   5.168   4.047 -0.2843  0.3820 -0.3743
 1081PF6-    F415052   0.731   5.175   3.828  0.3799  0.2800 -0.3560
 1081PF6-    F515053   0.941   5.309   4.027 -0.2635  0.4916  0.2912
 1081PF6-    F615054   0.731   5.369   3.953 -0.0052 -0.4187  0.2676
 1081PF6-    F715055   0.939   5.131   3.904 -0.0425  0.8209 -0.0167
 1082PF6-    P115056   3.929   3.362   0.844  0.2043  0.0913  0.2729
 1082PF6-    F215057   3.976   3.308   0.985 -0.3280 -0.2195  0.0929
 1082PF6-    F315058   3.891   3.413   0.695  0.1147 -0.1142 -0.7017
 1082PF6-    F415059   3.832   3.463   0.923 -0.0754 -0.0540  0.5986
 1082PF6-    F515060   4.020   3.256   0.774  0.1313 -0.2540 -0.6124
 1082PF6-    F615061   3.806   3.253   0.842 -0.4152  0.1743  0.3753
 1082PF6-    F715062   4.060   3.464   0.848  0.3290  0.1432  0.3715
 1083PF6-    P115063   4.147   0.203   4.364  0.2158  0.0881  0.0857
 1083PF6-    F215064   4.274   0.117   4.413  0.1972  0.2475  0.2853
 1083PF6-    F315065   4.024   0.294   4.319 -0.4789 -0.2497 -0.0912
 1083PF6-    F415066   4.180   0.311   4.477 -0.1973  0.2309  0.3091
 1083PF6-    F515067   4.115   0.100   4.245 -0.1179 -0.3798 -0.0930
 1083PF6-    F615068   4.055   0.125   4.473  0.0114 -0.0046  0.1894
 1083PF6-    F715069   4.238   0.289   4.267  0.3638 -1.1110  0.5926
 1084PF6-    P115070   3.854   0.680   0.603  0.1663  0.1607  0.3117
 1084PF6-    F215071   3.999   0.615   0.632  0.0750  0.1670 -0.1952
 1084PF6-    F315072   3.715   0.752   0.570 -0.1343  0.0611 -0.1016
 1084PF6-    F415073   3.788   0.534   0.610  0.2111  0.3427  0.0823
 1084PF6-    F515074   3.924   0.825   0.595 -0.1258 -0.0524 -0.3476
 1084PF6-    F615075   3.880   0.662   0.449 -0.3721  0.1195  0.5433
 1084PF6-    F715076   3.832   0.700   0.758 -0.2321 -0.2026  0.7278
 1085PF6-    P115077   4.454   0.987   3.862  0.0959  0.0668  0.0697
 1085PF6-    F215078   4.372   0.887   3.957 -0.3365 -0.9895  0.2394
 1085PF6-    F315079   4.527   1.085   3.765  0.5907 -0.2438  0.5665
 1085PF6-    F415080   4.544   0.863   3.814 -0.4707  0.3949 -0.2165
 1085PF6-    F515081   4.367   1.109   3.920  0.1202  0.0910  0.0467
 1085PF6-    F615082   4.561   1.015   3.976  0.3196  0.1294 -0.2587
 1085PF6-    F715083   4.353   0.960   3.747 -0.1754 -0.4503  0.3748
 1086PF6-    P115084   1.602   3.388   2.799 -0.2910 -0.1706  0.0413
 1086PF6-    F215085   1.558   3.245   2.742  0.2306  0.3745 -0.2226
 1086PF6-    F315086   1.646   3.535   2.859  0.1486  0.4910  0.5610
 1086PF6-    F415087   1.515   3.460   2.685 -0.1223  0.3657  0.2515
 1086PF6-    F515088   1.692   3.315   2.914  0.6008 -0.0482  0.1312
 1086PF6-    F615089   1.730   3.390   2.699 -0.2780 -0.1642  0.2566
 1086PF6-    F715090   1.479   3.382   2.907  0.3127  0.6615  0.1209
 1087PF6-    P115091   0.327   1.625   1.500  0.1059 -0.0598  0.0375
 1087PF6-    F215092   0.222   1.593   1.381 -0.6574 -0.0714 -0.2906
 1087PF6-    F315093   0.434   1.659   1.614 -0.3886  0.1465 -0.2250
 1087PF6-    F415094   0.221   1.581   1.609  0.2426  0.4714  0.1093
 1087PF6-    F515095   0.431   1.671   1.391  1.0329  0.2607 -0.3777
 1087PF6-    F615096   0.269   1.775   1.516 -0.2443 -0.4079  0.1455
 1087PF6-    F715097   0.382   1.475   1.486 -0.6884 -0.1722 -0.3327
 1088PF6-    P115098   5.484   3.332   2.544  0.2332 -0.0057 -0.2421
 1088PF6-    F215099   5.520   3.416   2.413  0.3761 -0.1734 -0.0841
 1088PF6-    F315100   5.437   3.259   2.682  0.0982  0.0469 -0.5749
 1088PF6-    F415101   5.435   3.206   2.454 -0.6597  0.3692 -0.0531
 1088PF6-    F515102   5.527   3.459   2.636  0.3053  0.2766  0.4107
 1088PF6-    F615103   5.336   3.395   2.541 -0.2266 -0.0392  0.0711
 1088PF6-    F715104   5.634   3.271   2.555 -0.2579  0.3497 -0.1791
 1089PF6-    P115105   2.117   5.190   1.094 -0.2769 -0.1862  0.5361
 1089PF6-    F215106   2.114   5.254   1.240  0.3229 -0.0133 -0.4605
 1089PF6-    F315107   2.115   5.127   0.946 -0.8115  0.0246 -0.4892
 1089PF6-    F415108   2.277   5.184   1.093  0.0615 -0.4187  0.0562
 1089PF6-    F515109   1.961   5.185   1.098  0.4157  0.0494  0.0545
 1089PF6-    F615110   2.117   5.338   1.026 -0.1257  0.1382 -0.7433
 1089PF6-    F715111   2.125   5.043   1.160 -0.3845  0.2530  0.4760
 1090PF6-    P115112   3.027   5.045   0.605 -0.4418 -0.0938 -0.3408
 1090PF6-    F215113   2.900   5.083   0.513 -0.2817  0.5331 -0.5352
 1090PF6-    F315114   3.154   5.021   0.697 -0.0413 -0.4225  0.3093
 1090PF6-    F415115   3.042   5.199   0.644  0.6317 -0.5329  0.2001
 1090PF6-    F515116   3.022   4.886   0.570  0.1067 -0.3795 -0.1786
 1090PF6-    F615117   3.119   5.061   0.478 -0.0126 -0.2257  0.4512
 1090PF6-    F715118   2.938   5.024   0.733  0.2703  0.5759  0.2982
 1091PF6-    P115119   5.404   0.205   0.669 -0.3170  0.1766 -0.3569
 1091PF6-    F215120   5.427   0.097   0.785 -0.0805 -0.1629 -0.3821
 1091PF6-    F315121   5.381   0.312   0.556 -0.3619 -0.0095 -0.5637
 1091PF6-    F415122   5.312   0.291   0.767  0.4300 -0.1463  0.6837
 1091PF6-    F515123   5.496   0.120   0.571 -0.1814  0.0656  0.2156
 1091PF6-    F615124   5.277   0.122   0.606 -0.2874 -0.1318  0.1822
 1091PF6-    F715125   5.533   0.284   0.720  0.2834  0.2159  0.4522
 1092PF6-    P115126   4.574   0.335   5.340  0.5513 -0.2579 -0.3853
 1092PF6-    F215127   4.487   0.411   5.223 -0.1179  0.1681 -0.4472
 1092PF6-    F315128   4.659   0.270   5.457 -0.9289 -0.0483 -0.8452
 1092PF6-    F415129   4.550   0.200   5.262 -0.7663 -0.1760  0.1411
 1092PF6-    F515130   4.606   0.475   5.417 -0.0293  0.1169 -0.2759
 1092PF6-    F615131   4.441   0.316   5.427 -0.2368 -0.0689  0.3026
 1092PF6-    F715132   4.710   0.356   5.258  0.6030  0.2776  0.0423
 1093PF6-    P115133   3.955   2.801   5.277 -0.0869 -0.2247 -0.0352
 1093PF6-    F215134   3.876   2.938   5.274  0.2142 -0.3435  0.6955
 1093PF6-    F315135   4.033   2.659   5.274 -0.6651 -0.0718 -0.0082
 1093PF6-    F415136   3.915   2.780   5.432  0.2247 -0.3343  0.0210
 1093PF6-    F515137   4.003   2.820   5.130 -0.5497 -0.2079  0.7118
 1093PF6-    F615138   4.084   2.882   5.318 -0.0505  0.2553  0.1696
 1093PF6-    F715139   3.816   2.726   5.232 -0.3099 -0.3182 -0.1955
 1094PF6-    P115140   2.052   4.052   1.231  0.5233  0.2400 -0.2856
 1094PF6-    F215141   2.023   4.043   1.385 -0.2952  0.1048 -0.1808
 1094PF6-    F315142   2.084   4.070   1.074 -0.4441 -0.2207  0.3895
 1094PF6-    F415143   1.894   4.073   1.206  0.1747  0.1580 -0.3926
 1094PF6-    F515144   2.205   4.025   1.259 -0.3082 -0.7906  0.8969
 1094PF6-    F615145   2.027   3.899   1.209 -0.6047  0.3571  0.5626
 1094PF6-    F715146   2.070   4.210   1.254 -0.1224 -0.1844  0.1383
 1095PF6-    P115147   4.640   2.758   2.840  0.1844  0.0839 -0.3900
 1095PF6-    F215148   4.480   2.722   2.818 -0.2698  0.2973  0.3039
 1095PF6-    F315149   4.796   2.789   2.862 -0.3297 -0.0581 -0.0668
 1095PF6-    F415150   4.609   2.812   2.985 -0.4454  0.2117 -0.1813
 1095PF6-    F515151   4.671   2.701   2.695 -0.3430  0.2054 -0.5015
 1095PF6-    F615152   4.615   2.905   2.778 -0.3544  0.3220 -0.4347
 1095PF6-    F715153   4.661   2.617   2.905 -0.2808 -0.3536  0.2829
 1096PF6-    P115154   3.358   4.588   2.297  0.1408  0.1297  0.0374
 1096PF6-    F215155   3.471   4.703   2.282 -0.2265  0.3577 -0.4532
 1096PF6-    F315156   3.256   4.464   2.301  0.2564 -0.7638  0.1061
 1096PF6-    F415157   3.394   4.540   2.151  0.0215 -0.6893 -0.0108
 1096PF6-    F515158   3.322   4.632   2.447 -0.3884 -0.2747 -0.6847
 1096PF6-    F615159   3.242   4.684   2.241  0.3713  0.5857  0.8126
 1096PF6-    F715160   3.476   4.500   2.356  0.3688  0.1355 -0.1896
 1097PF6-    P115161   1.442   4.574   2.187  0.0536  0.2827  0.2083
 1097PF6-    F215162   1.533   4.446   2.211 -0.3908 -0.6863  0.4360
 1097PF6-    F315163   1.345   4.696   2.160  0.4179  0.4329  0.2475
 1097PF6-    F415164   1.520   4.661   2.294  0.3049 -0.3836  0.4279
 1097PF6-    F515165   1.359   4.490   2.074 -0.3098  0.0327 -0.7010
 1097PF6-    F615166   1.336   4.518   2.302  0.4980 -0.2986  0.1847
 1097PF6-    F715167   1.540   4.637   2.078  0.0032 -0.1951  0.1340
 1098PF6-    P115168   2.699   1.806   3.734 -0.2583  0.0374  0.0964
 1098PF6-    F215169   2.827   1.810   3.644  0.4159 -0.2945 -0.1546
 1098PF6-    F315170   2.575   1.785   3.838 -0.5492  0.1155  0.2618
 1098PF6-    F415171   2.610   1.811   3.604 -0.0378  0.0501 -0.1335
 1098PF6-    F515172   2.798   1.804   3.865  0.2069  0.1237 -0.0064
 1098PF6-    F615173   2.690   1.964   3.737 -0.2982  0.0649 -0.2519
 1098PF6-    F715174   2.714   1.647   3.721 -0.0295  0.5243 -0.2620
 1099PF6-    P115175   5.149   4.713   4.176 -0.1204  0.2037 -0.2235
 1099PF6-    F215176   5.263   4.789   4.268  0.0221  0.0712  0.3759
 1099PF6-    F315177   5.038   4.642   4.094 -0.5649 -0.2757  0.2137
 1099PF6-    F415178   5.178   4.822   4.060  0.3277 -0.2251 -0.2279
 1099PF6-    F515179   5.120   4.608   4.295 -0.1020  0.3018 -0.2192
 1099PF6-    F615180   5.042   4.820   4.236 -0.5674  0.4945 -0.3674
 1099PF6-    F715181   5.250   4.607   4.114  0.5057 -0.2897 -0.6056
 1100PF6-    P115182   2.446   3.897   2.653 -0.5987 -0.1187 -0.0863
 1100PF6-    F215183   2.593   3.841   2.655  0.7823 -0.0457  0.0944
 1100PF6-    F315184   2.293   3.950   2.650  0.0470 -0.7894 -0.2536
 1100PF6-    F415185   2.476   4.000   2.538 -0.0028 -0.3200  0.0641
 1100PF6-    F515186   2.407   3.797   2.772  0.0457  0.4187  0.5602
 1100PF6-    F615187   2.489   4.005   2.765 -0.1707 -0.6000  0.1408
 1100PF6-    F715188   2.403   3.789   2.551  0.0191 -0.2292 -0.6356
 1101PF6-    P115189   3.943   1.372   1.569  0.2691 -0.1317  0.1198
 1101PF6-    F215190   3.942   1.502   1.667 -0.2993  0.3766 -0.1036
 1101PF6-    F315191   3.942   1.240   1.477 -0.5337  0.3473  0.3797
 1101PF6-    F415192   4.064   1.431   1.480 -0.3824  0.4528 -0.7834
 1101PF6-    F515193   3.821   1.310   1.647  0.2948 -0.3424  0.1315
 1101PF6-    F615194   3.833   1.452   1.471 -0.4186  0.0062  0.0651
 1101PF6-    F715195   4.044   1.305   1.678  0.4009  0.4238  0.1350
 1102PF6-    P115196   0.045   2.435   2.095 -0.4546  0.1676  0.1648
 1102PF6-    F215197  -0.017   2.577   2.131 -0.0177 -0.4556 -0.0780
 1102PF6-    F315198   0.111   2.294   2.056 -0.4685 -0.0369  0.0115
 1102PF6-    F415199  -0.103   2.381   2.066 -0.3395  0.5142 -0.1035
 1102PF6-    F515200   0.192   2.494   2.110 -0.2620  0.0838  0.7113
 1102PF6-    F615201   0.042   2.392   2.256  0.0626  0.1814 -0.0709
 1102PF6-    F715202   0.047   2.479   1.941  0.2531 -0.0557 -0.0755
 1103PF6-    P115203   2.622   3.125   2.954  0.3983  0.1624  0.4502
 1103PF6-    F215204   2.740   3.041   3.016 -0.1670 -0.1798  0.4144
 1103PF6-    F315205   2.503   3.207   2.888  0.1526 -0.1148 -0.3143
 1103PF6-    F415206   2.548   3.126   3.095  0.5687  0.1263  0.3902
 1103PF6-    F515207   2.696   3.133   2.812 -0.1326 -0.1312  0.3459
 1103PF6-    F615208   2.547   2.991   2.911 -0.0491 -0.1121 -0.2833
 1103PF6-    F715209   2.694   3.262   2.994 -0.3368  0.1105 -0.1036
 1104PF6-    P115210   0.228   2.451   1.111  0.3139 -0.2072  0.3691
 1104PF6-    F215211   0.142   2.556   1.018 -0.0258  0.4235 -0.2978
 1104PF6-    F315212   0.308   2.349   1.207 -0.3571 -0.4631 -0.5780
 1104PF6-    F415213   0.160   2.328   1.037 -0.2732  0.0486  0.3018
 1104PF6-    F515214   0.294   2.575   1.182 -0.1246 -0.3326 -0.4652
 1104PF6-    F615215   0.107   2.447   1.219 -0.4061 -0.3171  0.1271
 1104PF6-    F715216   0.346   2.457   0.999 -0.4372  1.1321 -0.2735
 1105PF6-    P115217   1.154   2.955   1.480 -0.2772 -0.3770  0.0161
 1105PF6-    F215218   1.087   2.896   1.350 -0.5288  0.2896  0.0213
 1105PF6-    F315219   1.221   3.022   1.611 -0.0869  0.2608 -0.0728
 1105PF6-    F415220   1.014   2.963   1.559 -0.6458 -0.0975 -0.0720
 1105PF6-    F515221   1.295   2.957   1.401  0.5176 -0.2387 -0.2002
 1105PF6-    F615222   1.126   3.106   1.427 -0.2770  0.0269 -0.4036
 1105PF6-    F715223   1.183   2.807   1.534  1.3740  0.3981 -0.7378
 1106PF6-    P115224   2.573   2.626   3.887 -0.0044 -0.2581 -0.0737
 1106PF6-    F215225   2.432   2.589   3.815 -0.1033  0.2193 -0.2912
 1106PF6-    F315226   2.712   2.657   3.953  0.0433 -0.1586 -0.4360
 1106PF6-    F415227   2.599   2.473   3.938 -0.5590 -0.4365  0.1513
 1106PF6-    F515228   2.556   2.774   3.844 -0.2520 -0.6779 -0.0219
 1106PF6-    F615229   2.501   2.661   4.029  0.1236  0.7210  0.6356
 1106PF6-    F715230   2.645   2.596   3.745 -0.7732 -0.5836  0.3634
 1107PF6-    P115231   3.609   1.065   2.806  0.1410  0.0890  0.4762
 1107PF6-    F215232   3.630   1.070   2.645 -0.2759 -0.5759 -0.7398
 1107PF6-    F315233   3.583   1.064   2.967  0.1004  0.2561  0.1765
 1107PF6-    F415234   3.524   0.931   2.786 -0.6413 -1.0855  0.1844
 1107PF6-    F515235   3.693   1.208   2.812 -0.3243 -0.3268 -0.2808
 1107PF6-    F615236   3.477   1.150   2.786  0.4663 -0.2373  0.4638
 1107PF6-    F715237   3.739   0.984   2.834  0.3785 -0.5769 -0.0866
 1108PF6-    P115238   5.120   0.630   4.323  0.0677  0.5655  0.0569
 1108PF6-    F215239   5.118   0.614   4.170 -0.1602  0.1443 -0.1922
 1108PF6-    F315240   5.123   0.647   4.479  0.0006  0.1184 -0.0446
 1108PF6-    F415241   5.141   0.786   4.302 -0.5621 -0.2887  0.0422
 1108PF6-    F515242   5.105   0.475   4.344  0.0625 -0.2058  0.3795
 1108PF6-    F615243   5.273   0.603   4.323  0.0774 -0.2248 -0.0935
 1108PF6-    F715244   4.963   0.654   4.316 -0.2800  0.3665  0.0707
 1109Na+     N115245   4.021   0.931   5.355 -0.0614  0.0108  0.0298
 1110Na+     N115246   2.982   2.231   1.052 -0.1199  0.2131 -0.2354
 1111Na+     N115247   3.491   1.300   2.585 -0.1369  0.3362  0.7127
 1112Na+     N115248   0.325   2.776   2.643  0.0955 -0.5914  0.1684
 1113Na+     N115249   5.306   1.206   1.504  0.1973  0.6107 -0.1655
 1114Na+     N115250   2.998   3.746   0.829  0.1284 -0.1988 -0.1706
 1115Na+     N115251   4.330   2.427   4.689 -0.3866 -0.6395  0.2463
 1116Na+     N115252   3.669   3.063   0.459 -0.3959 -0.3627 -0.2950
 1117Na+     N115253   4.960   2.843   2.700  0.0016 -0.4691  0.3449
 1118Na+     N115254   4.074   0.047   5.034  0.3778 -0.0724 -0.3175
 1119Na+     N115255   3.085   5.290   0.404  0.0833  0.1133  0.2863
 1120Na+     N115256   1.904   0.651   4.536  0.8426  0.1033 -0.1215
 1121Na+     N115257   4.178   2.660   1.500 -0.2045 -0.7096 -0.1768
 1122Na+     N115258   4.786   1.103   3.756 -0.0212 -0.3360 -0.2548
 1123Na+     N115259   4.247   2.200   2.542 -0.0634  0.2868 -0.3563
 1124Na+     N115260   3.220   3.454   2.655  0.5945 -0.0657 -0.4934
 1125Na+     N115261   2.439   4.132   1.001 -0.2894 -0.1665  0.2982
 1126Na+     N115262   0.120   0.723   3.708  0.1793 -0.0634  0.1926
 1127Na+     N115263   2.077   4.002   1.622 -1.0168 -0.1755 -0.1187
 1128Na+     N115264   3.462   0.526   4.709 -0.8678  0.2483  0.0290
 1129Na+     N115265   4.130   1.380   1.887  0.3756 -0.3575  0.2516
 1130Na+     N115266   3.946   0.605   1.377  0.5826 -0.3517 -0.2682
 1131Na+     N115267   1.875   2.875   1.663  0.0989  0.0585 -0.3760
 1132Na+     N115268   3.838   4.695   1.668 -0.4900  0.0306 -0.1312
 1133Na+     N115269   1.101   2.665   4.064  0.5229  0.4858  0.2179
 1134Na+     N115270   3.611   4.488   4.028  0.1317  0.1468  0.3824
 1135Na+     N115271   0.082   0.873   2.960  0.0554  0.1279 -0.0139
 1136Na+     N115272   2.894   2.035   1.894 -0.0766 -0.1993  0.0891
 1137Na+     N115273   2.298   5.492   3.920  0.3964  0.0592 -0.3195
 1138Na+     N115274   0.031   2.089   2.177  0.6520 -0.1880 -0.2460
 1139Na+     N115275   3.852   2.158   0.753  0.5187 -0.1264  0.0006
 1140Na+     N115276   0.760   0.072   2.829 -0.1714  0.0804 -0.3023
 1141Na+     N115277   1.883   5.303   1.351  0.3136 -0.2395 -0.1465
 1142Na+     N115278   2.854   4.472   2.919  0.2892  0.7563  0.3753
 1143Na+     N115279   4.783   5.374   0.726  0.4244  0.4170  0.2608
 1144Na+     N115280   2.736   3.926   3.916 -0.2315 -0.2593 -0.1353
 1145Na+     N115281   2.802   1.809   4.140  0.3292  0.1587 -0.1046
 1146Na+     N115282   4.232   3.656   0.812 -0.0201  0.3511  0.1544
 1147Na+     N115283   1.087   5.179   2.228  0.6894  0.3202 -0.0580
 1148Na+     N115284   4.675   2.318   3.409  0.3243  0.1449  0.0865
 1149Na+     N115285   3.318   1.505   1.992 -0.0531 -0.0343  0.0531
 1150Na+     N115286   4.559   1.891   0.340 -0.2101  0.1465 -0.2417
 1151Na+     N115287   5.182   3.968   2.536  0.4713  0.4673 -0.3176
 1152Na+     N115288   3.775   3.876   3.911 -0.6778  0.3984  0.2085
 1153Na+     N115289   1.863   4.413   1.169 -0.0004 -0.4920  0.4969
 1154Na+     N115290   3.628   2.621   5.384  0.0467  0.0232  0.0612
 1155Na+     N115291   4.241   5.290   1.408 -0.4627  0.2380 -0.2441
 1156Na+     N115292   2.451   0.813   3.160 -0.0503 -0.6192 -0.1234
 1157Na+     N115293   2.210   3.224   2.296 -0.3297  0.4274 -0.0689
 1158Na+     N115294   5.395   2.635   0.965  0.1175 -0.1407 -0.1863
 1159Na+     N115295   1.035   1.302   3.470  0.1363  0.5704  0.0567
 1160Na+     N115296   3.480   0.047   1.472  0.0548  0.0080 -0.1620
 1161Na+     N115297   3.651   1.169   0.922 -0.0795  0.3000 -0.5571
 1162Na+     N115298   3.094   4.802   0.872  0.0739 -0.5709 -0.0243
 1163Na+     N115299   1.148   2.110   0.415 -0.2232  0.0610 -0.6223
 1164Na+     N115300   4.171   4.627   0.476 -0.5894 -0.5731  0.1855
 1165Na+     N115301   0.417   4.963   5.090  0.2075  0.3535 -0.4044
 1166Na+     N115302   3.592   0.731   2.990 -0.1968  0.3362  0.4716
 1167Na+     N115303   2.638   5.193   3.192  0.2816 -0.3711  0.0707
 1168Na+     N115304   1.709   3.709   3.000 -0.0304  0.1371  0.3111
 1169Na+     N115305   0.112   5.039   0.445 -0.4239  0.2099 -0.4860
 1170Na+     N115306   2.624   2.606   3.504  0.5462 -0.1038 -0.6082
 1171Na+     N115307   0.250   0.529   1.956  0.6472  0.3927  0.0735
 1172Na+     N115308   5.471   1.461   3.821 -0.3641  0.2483 -0.3801
 1173Na+     N115309   0.107   3.299   4.366  0.3152 -0.5211 -0.3016
 1174Na+     N115310   4.597   4.872   5.097 -0.5037  0.2993 -0.8792
 1175Na+     N115311   4.856   3.961   0.534  0.1825  0.0574 -0.1455
 1176Na+     N115312   3.992   4.342   4.985  0.3102  0.1824  0.6786
 1177Na+     N115313   5.215   0.762   0.475 -0.1524 -0.0581 -0.3015
 1178Na+     N115314   2.783   4.637   1.791 -0.3159  0.0491 -0.2677
 1179Na+     N115315   1.734   5.411   3.262 -0.8348 -0.1296  0.6828
 1180Na+     N115316   0.900   4.954   4.061 -0.1382 -0.0143 -0.3645
 1181Na+     N115317   1.665   2.724   0.834  0.1502 -0.5646 -0.1110
 1182Na+     N115318   2.025   4.399   2.572 -0.1287 -0.5982 -0.5858
 1183Na+     N115319   1.703   4.382   4.279 -0.1385  0.1653 -0.2775
 1184Na+     N115320   5.191   5.016   3.912  0.2133  0.2537 -0.2384
 1185Na+     N115321   0.831   2.243   1.240 -0.1788  0.1839  0.0789
 1186Na+     N115322   4.654   1.456   3.127  0.0919  0.0947  0.3710
 1187Na+     N115323   3.797   1.992   3.545 -0.1343 -0.1449  0.4188
 1188Na+     N115324   3.884   0.488   0.260  0.4752  0.1286 -0.3631
 1189Na+     N115325   4.599   0.091   2.792 -0.0623 -0.2805  0.0772
 1190Na+     N115326   5.078   2.618   3.902 -0.0015 -0.0693 -0.1176
 1191Na+     N115327   2.836   0.929   3.888  0.4862 -0.6903 -0.5164
 1192Na+     N115328   3.477   4.889   5.014 -0.2338 -0.2769  0.2206
 1193Na+     N115329   0.991   5.466   3.575  0.1753 -0.0303 -0.6109
 1194Na+     N115330   3.972   4.647   2.608  0.3622  0.1489 -0.3253
 1195Na+     N115331   2.214   4.219   4.645 -0.2583 -0.4304  0.1838
 1196Na+     N115332   0.651   1.508   1.190 -0.0337  0.4707 -0.1745
 1197Na+     N115333   3.237   3.859   4.732 -0.1639  0.1687 -0.4657
 1198Na+     N115334   4.191   3.954   2.068  0.0120 -0.1528  0.1247
 1199Na+     N115335   0.625   3.424   4.954 -0.0049 -0.1596 -0.6174
 1200Na+     N115336   2.387   1.744   5.233  0.0002 -0.1134  0.0532
 1201Na+     N115337   1.311   0.687   2.370  0.5160 -0.6696 -0.1163
 1202Na+     N115338   2.603   3.414   3.144 -0.1688  0.6006 -0.3015
 1203Na+     N115339   5.194   1.029   4.407 -0.1946  0.4201 -0.1507
 1204Na+     N115340   4.158   0.225   4.014 -0.4623  0.0504  0.2029
 1205Na+     N115341   2.775   5.274   5.059  0.0276  0.1149 -0.2039
 1206Na+     N115342   4.764   0.333   4.609 -0.2572 -0.3484 -0.2588
 1207Na+     N115343   1.208   4.014   4.954  0.1060  0.3271 -0.2304
 1208Na+     N115344   4.704   3.771   3.788  0.1277 -0.0079  0.3976
   5.50250   5.50250   5.50250
