DG-THF-PF6-Na    Amber RESP
15344
    1DG      C1    1   1.209   3.165   3.032  0.4979 -0.1115  0.9735
    1DG      C2    2   1.199   3.319   3.606 -0.8586  0.1866  0.1780
    1DG      H3    3   1.140   3.110   2.973  2.3538  0.4335  0.7074
    1DG      H4    4   1.306   3.190   2.977  1.9184 -0.1436  1.2282
    1DG      H5    5   1.172   3.268   3.057 -0.9130  0.8776 -0.1108
    1DG      H6    6   1.259   3.364   3.683 -1.3016 -1.3912  1.9574
    1DG      H7    7   1.167   3.400   3.544 -0.5498  2.8405 -0.7848
    1DG      H8    8   1.113   3.273   3.658 -0.4304  1.4664 -0.9219
    1DG      O9    9   1.241   3.112   3.155  0.1548 -0.2265 -0.8802
    1DG     O10   10   1.285   3.230   3.524  0.4839  0.4412 -0.2317
    1DG     C11   11   1.297   2.984   3.161 -0.2423  0.0981 -0.2671
    1DG     C12   12   1.276   3.090   3.574  0.5527  0.0254 -0.1287
    1DG     H13   13   1.392   2.990   3.104 -0.9373  0.3861 -0.2095
    1DG     H14   14   1.227   2.925   3.101  0.4272  2.2913  2.6005
    1DG     H15   15   1.175   3.050   3.594 -1.4740 -0.4218 -1.7378
    1DG     H16   16   1.319   3.094   3.677 -2.0709  3.2667  0.3361
    1DG     C17   17   1.301   2.930   3.300 -0.0781 -0.5039 -0.1053
    1DG     C18   18   1.375   2.997   3.510  0.9078  0.4765  0.1154
    1DG     O19   19   1.380   3.019   3.368  0.3512  0.0398  0.0231
    1DG     H20   20   1.340   2.832   3.311 -1.3450  1.9336  1.6998
    1DG     H21   21   1.210   2.914   3.350  3.5757 -1.3645 -0.0934
    1DG     H22   22   1.470   3.010   3.564 -1.6065  1.6405  0.5416
    1DG     H23   23   1.347   2.899   3.537  0.3170  0.9951 -1.2855
    2DG      C1   24   1.128   2.303   4.327 -0.5462  0.6062 -0.1249
    2DG      C2   25   0.928   2.761   3.942  0.1160  0.0570 -1.0038
    2DG      H3   26   1.202   2.352   4.262  2.5421 -1.4802 -0.4109
    2DG      H4   27   1.086   2.207   4.288  1.2053 -1.3207  2.3555
    2DG      H5   28   1.187   2.284   4.416 -0.5323 -0.2489 -2.7150
    2DG      H6   29   0.881   2.860   3.921  0.1753 -0.9096  0.0631
    2DG      H7   30   1.034   2.778   3.951 -3.3707  1.8571  1.9595
    2DG      H8   31   0.904   2.683   3.867 -0.4003  2.8201 -1.6903
    2DG      O9   32   1.018   2.397   4.334  0.1630  0.0460  0.2582
    2DG     O10   33   0.897   2.716   4.071  0.4837  0.2547 -0.8102
    2DG     C11   34   0.891   2.340   4.351  0.7283 -0.2470  0.9956
    2DG     C12   35   0.755   2.696   4.087 -0.2384 -0.4890  0.3123
    2DG     H13   36   0.894   2.281   4.441  0.0590  1.7350  1.8315
    2DG     H14   37   0.863   2.263   4.279  2.0653 -1.8988  2.0448
    2DG     H15   38   0.714   2.633   4.008 -3.4973 -1.0807 -1.5607
    2DG     H16   39   0.697   2.788   4.089  0.6162  3.0347 -1.1284
    2DG     C17   40   0.780   2.447   4.369 -0.0689 -0.1143  0.7489
    2DG     C18   41   0.724   2.637   4.222 -1.0916  0.0471  0.1837
    2DG     O19   42   0.797   2.512   4.245 -0.2123 -0.1514  0.1828
    2DG     H20   43   0.794   2.519   4.444  2.3013 -2.5724 -1.6982
    2DG     H21   44   0.681   2.393   4.384 -2.0191  0.6650  1.7469
    2DG     H22   45   0.760   2.716   4.285 -1.2312 -1.2567 -0.2097
    2DG     H23   46   0.621   2.614   4.241 -0.9810 -2.3428  0.9336
    3DG      C1   47   2.100   3.584   2.261  0.0168 -0.1614 -0.0596
    3DG      C2   48   2.170   3.412   2.879  0.5273  0.7232  0.6136
    3DG      H3   49   2.062   3.624   2.166 -1.8506 -2.2963 -3.1589
    3DG      H4   50   2.102   3.476   2.246 -0.3074  1.9865  0.8409
    3DG      H5   51   2.197   3.622   2.281  1.9132 -2.2170  1.6848
    3DG      H6   52   2.175   3.300   2.864 -1.1416 -0.3843  1.1547
    3DG      H7   53   2.261   3.451   2.843  0.6579  1.1151 -0.5069
    3DG      H8   54   2.168   3.443   2.984  1.4716  0.4668 -0.2995
    3DG      O9   55   2.024   3.629   2.377 -0.4695  0.2706 -0.4977
    3DG     O10   56   2.068   3.484   2.809 -0.4364  0.0613 -0.5283
    3DG     C11   57   1.892   3.578   2.382 -0.2282  0.6619 -0.5398
    3DG     C12   58   1.946   3.416   2.824 -0.0407  0.0202 -0.3013
    3DG     H13   59   1.906   3.472   2.376  0.0875  3.3081 -0.7598
    3DG     H14   60   1.820   3.602   2.300  0.6321  0.4025  1.1601
    3DG     H15   61   1.922   3.403   2.929  0.0929 -0.5344 -0.9362
    3DG     H16   62   1.960   3.316   2.790 -0.1486  2.3148 -1.9307
    3DG     C17   63   1.826   3.601   2.524 -0.3582  0.2995  0.6229
    3DG     C18   64   1.841   3.496   2.736 -0.8406 -0.7770 -0.5938
    3DG     O19   65   1.890   3.505   2.606 -0.3115  0.1487  0.3636
    3DG     H20   66   1.719   3.582   2.529  0.5790 -2.6190  2.1833
    3DG     H21   67   1.836   3.699   2.561 -1.0875 -1.2308 -0.7610
    3DG     H22   68   1.742   3.449   2.740 -2.3066 -3.2175 -1.0324
    3DG     H23   69   1.841   3.597   2.774 -0.3843  3.1545  0.7198
    4DG      C1   70   3.726   4.555   1.247 -0.8658  0.7408 -0.8615
    4DG      C2   71   3.635   4.392   0.869  0.1672 -0.4050  0.2259
    4DG      H3   72   3.716   4.574   1.357  1.0946  2.4508 -0.2042
    4DG      H4   73   3.757   4.449   1.240 -0.3031 -0.5905  2.0950
    4DG      H5   74   3.634   4.564   1.196  1.0551 -0.3800  0.9827
    4DG      H6   75   3.569   4.408   0.956  1.1165  0.1912 -2.2262
    4DG      H7   76   3.576   4.354   0.785 -0.9056 -1.3226 -2.4520
    4DG      H8   77   3.700   4.311   0.909 -2.4510 -0.6862  2.8154
    4DG      O9   78   3.838   4.634   1.200  0.6375  0.3865 -0.4656
    4DG     O10   79   3.721   4.504   0.832 -0.2609  0.1147 -0.0771
    4DG     C11   80   3.804   4.773   1.183  0.3086  0.1556 -0.4083
    4DG     C12   81   3.637   4.617   0.808  0.2044 -0.6573  0.1268
    4DG     H13   82   3.893   4.838   1.180  1.8882 -0.9975 -0.4760
    4DG     H14   83   3.754   4.798   1.283  0.5570  1.7702  2.5974
    4DG     H15   84   3.561   4.624   0.885  1.7855  1.3069  2.7795
    4DG     H16   85   3.589   4.618   0.713  0.7275 -2.8974  1.2322
    4DG     C17   86   3.723   4.804   1.054  0.3011  0.9983 -0.0764
    4DG     C18   87   3.722   4.751   0.816 -0.2057  0.1126 -0.8293
    4DG     O19   88   3.795   4.753   0.941 -0.3872  0.4540  0.5323
    4DG     H20   89   3.700   4.910   1.051  0.6410 -1.2468 -0.0377
    4DG     H21   90   3.620   4.758   1.069 -0.7947  0.0025 -0.7634
    4DG     H22   91   3.798   4.742   0.734  1.9513 -0.7174 -0.1005
    4DG     H23   92   3.652   4.836   0.803 -2.5159  1.2172 -1.5774
    5DG      C1   93   3.340   2.931   0.935 -0.2232 -0.3611 -0.0694
    5DG      C2   94   3.672   3.455   1.161 -0.0561 -0.0149 -0.0806
    5DG      H3   95   3.265   2.848   0.946  0.8560 -0.0816  2.0226
    5DG      H4   96   3.385   2.927   0.836  1.2861  3.9579  1.6201
    5DG      H5   97   3.285   3.027   0.940  1.6113 -1.8873  0.6407
    5DG      H6   98   3.708   3.511   1.242 -0.0101 -2.1121  0.3088
    5DG      H7   99   3.743   3.474   1.082 -3.8493 -1.1723  1.1742
    5DG      H8  100   3.572   3.491   1.136 -0.0905 -0.2573  2.2783
    5DG      O9  101   3.442   2.927   1.037  0.0813 -0.0434  0.4204
    5DG     O10  102   3.677   3.316   1.205 -0.4930 -0.4940 -0.4648
    5DG     C11  103   3.383   2.929   1.171 -0.0891  0.7157 -0.1255
    5DG     C12  104   3.621   3.285   1.330 -0.2125 -0.4434  0.0052
    5DG     H13  105   3.314   2.845   1.198 -1.1573 -2.7597 -0.1032
    5DG     H14  106   3.312   3.020   1.163 -1.7114  1.9201 -1.6501
    5DG     H15  107   3.519   3.330   1.339 -0.5117 -0.6373 -0.5495
    5DG     H16  108   3.686   3.327   1.413  0.2383  1.1797  0.5251
    5DG     C17  109   3.473   2.947   1.286  0.2726  0.1115 -0.4784
    5DG     C18  110   3.605   3.131   1.362  0.0836 -0.3319  0.1322
    5DG     O19  111   3.518   3.083   1.262  0.8736 -0.1410 -0.5504
    5DG     H20  112   3.565   2.882   1.293 -0.2133 -1.5762  3.2228
    5DG     H21  113   3.428   2.931   1.387  2.4862 -3.0745  0.8492
    5DG     H22  114   3.705   3.085   1.354  1.6248 -1.4828  1.8075
    5DG     H23  115   3.568   3.112   1.458  1.3566  2.9096 -0.1033
    6DG      C1  116   3.542   1.498   0.195  0.6754 -0.2887 -0.0401
    6DG      C2  117   3.767   1.633  -0.327 -0.1686  0.8459 -0.7126
    6DG      H3  118   3.648   1.491   0.208 -1.5685  0.2146 -0.6537
    6DG      H4  119   3.493   1.466   0.294  3.5689 -0.6141  0.1553
    6DG      H5  120   3.514   1.605   0.169  1.8630 -0.8484  0.2397
    6DG      H6  121   3.878   1.613  -0.332  1.6170  0.9503 -0.5039
    6DG      H7  122   3.730   1.631  -0.427 -2.3121 -0.5379 -0.2762
    6DG      H8  123   3.752   1.727  -0.285  0.7130  0.1116 -0.4773
    6DG      O9  124   3.511   1.423   0.081 -0.2185 -0.5557  1.2734
    6DG     O10  125   3.692   1.527  -0.265  0.5055 -0.1650  0.5480
    6DG     C11  126   3.540   1.287   0.093  0.4683  0.3384  0.0327
    6DG     C12  127   3.691   1.408  -0.347 -0.3649  0.3115 -0.3773
    6DG     H13  128   3.485   1.240   0.176 -2.1034 -3.6582  1.1361
    6DG     H14  129   3.648   1.273   0.101 -0.9558  0.2029  0.9465
    6DG     H15  130   3.788   1.366  -0.357  0.0898  0.5183  0.3527
    6DG     H16  131   3.665   1.431  -0.447  3.3113 -0.7330 -0.7663
    6DG     C17  132   3.509   1.250  -0.046 -0.1981  0.4635  0.2280
    6DG     C18  133   3.587   1.320  -0.273  0.6080  0.0288  0.8112
    6DG     O19  134   3.610   1.311  -0.131 -0.1976 -0.1396  0.8698
    6DG     H20  135   3.408   1.276  -0.073  1.2584 -1.1153 -1.1908
    6DG     H21  136   3.512   1.138  -0.067 -0.0848 -2.2427  0.5410
    6DG     H22  137   3.500   1.386  -0.286  1.6956 -0.4104  0.6029
    6DG     H23  138   3.567   1.224  -0.312 -1.0251 -1.1994 -2.4942
    7DG      C1  139   3.212   0.399   2.258 -0.3043  1.2237 -0.0736
    7DG      C2  140   2.709   0.226   2.747  0.4875  0.9487 -0.1838
    7DG      H3  141   3.258   0.306   2.273  1.2055  2.1581  1.3040
    7DG      H4  142   3.288   0.478   2.243  0.1843  0.6779 -0.2454
    7DG      H5  143   3.157   0.400   2.168  2.0567  0.4396  0.3256
    7DG      H6  144   2.644   0.281   2.822 -0.0932  2.1303  2.5826
    7DG      H7  145   2.639   0.185   2.679  1.2549 -0.1417  2.9324
    7DG      H8  146   2.761   0.153   2.809 -1.1720  0.2946 -0.2831
    7DG      O9  147   3.131   0.443   2.362 -1.0974  0.0537 -0.4062
    7DG     O10  148   2.791   0.328   2.698  0.4476 -0.0646  0.1876
    7DG     C11  149   3.212   0.492   2.477 -0.6599  0.8616  1.0383
    7DG     C12  150   2.889   0.364   2.793  0.1091 -0.0713  1.3414
    7DG     H13  151   3.298   0.554   2.456  2.1290  1.1703 -0.6798
    7DG     H14  152   3.257   0.406   2.525 -3.7298 -1.9661 -3.4621
    7DG     H15  153   2.955   0.282   2.802 -0.0621 -2.8113 -0.1258
    7DG     H16  154   2.834   0.383   2.890  1.0890  0.7091  1.0696
    7DG     C17  155   3.122   0.550   2.583 -0.6734  0.2975 -0.2707
    7DG     C18  156   2.956   0.490   2.746 -0.6964  0.4227 -0.1425
    7DG     O19  157   3.020   0.460   2.621 -0.1450 -0.1726  0.3564
    7DG     H20  158   3.065   0.642   2.554 -1.1770  0.5834 -0.0564
    7DG     H21  159   3.182   0.581   2.671  0.0277  0.1098  1.7709
    7DG     H22  160   2.883   0.567   2.725 -0.9280  1.5131  1.9365
    7DG     H23  161   3.035   0.523   2.812  1.3610  2.9989 -1.7001
    8DG      C1  162   4.745   1.762   2.344 -0.0807  0.3715  0.4832
    8DG      C2  163   4.964   2.351   2.128 -0.2269  0.8005 -0.4277
    8DG      H3  164   4.817   1.678   2.354  1.5936 -2.9060  2.0162
    8DG      H4  165   4.715   1.756   2.242 -1.5006  1.8952 -0.3534
    8DG      H5  166   4.653   1.743   2.402  0.5232  0.9044  0.0165
    8DG      H6  167   4.899   2.440   2.145 -0.9676  2.1538  1.8205
    8DG      H7  168   5.054   2.380   2.090 -1.4404  2.4210 -0.1494
    8DG      H8  169   4.917   2.296   2.049 -0.5714 -0.9763 -1.9534
    8DG      O9  170   4.801   1.896   2.371 -0.4492  0.4316 -0.1286
    8DG     O10  171   4.960   2.259   2.239  0.3247  0.4138  0.1052
    8DG     C11  172   4.828   1.909   2.506  0.1642 -0.2878 -0.0831
    8DG     C12  173   4.969   2.326   2.366  0.0149  0.0953 -0.1941
    8DG     H13  174   4.926   1.860   2.517  1.4491  1.0061 -2.8566
    8DG     H14  175   4.755   1.847   2.570 -2.2416 -0.6843 -0.9193
    8DG     H15  176   4.886   2.388   2.394 -2.4893  0.1877 -1.6075
    8DG     H16  177   5.065   2.378   2.367  1.3000  0.9905 -1.9531
    8DG     C17  178   4.827   2.048   2.550 -0.1228 -0.0497 -0.2753
    8DG     C18  179   4.969   2.220   2.473 -0.5811  0.3846 -0.3774
    8DG     O19  180   4.862   2.138   2.448 -1.0628 -0.1119 -0.2411
    8DG     H20  181   4.868   2.076   2.652  0.4555  2.5959 -0.1322
    8DG     H21  182   4.719   2.067   2.561  0.1769 -0.5903 -0.5509
    8DG     H22  183   5.066   2.157   2.468 -1.4674  2.9260 -0.6048
    8DG     H23  184   4.971   2.264   2.578 -1.7625 -1.2867  0.8749
    9DG      C1  185   0.468   2.165   3.833  0.9286 -0.5039 -0.1541
    9DG      C2  186   0.571   1.549   3.993 -0.2944  0.0081  0.0564
    9DG      H3  187   0.545   2.137   3.771  0.6183  0.5490  1.6910
    9DG      H4  188   0.501   2.245   3.897 -2.8490 -1.0012 -0.9279
    9DG      H5  189   0.379   2.202   3.779 -2.6160 -0.6560 -0.5228
    9DG      H6  190   0.519   1.457   4.016 -0.8243  0.4227 -2.1068
    9DG      H7  191   0.611   1.550   3.892  0.1217 -0.6010  1.5791
    9DG      H8  192   0.654   1.558   4.064 -0.5256 -3.7129 -1.7989
    9DG      O9  193   0.418   2.061   3.910  0.1337 -0.2955  0.4308
    9DG     O10  194   0.482   1.657   4.002  0.2066 -0.7430 -0.1977
    9DG     C11  195   0.342   2.103   4.026  0.6851  0.4948 -0.1057
    9DG     C12  196   0.405   1.653   4.130 -0.5417  0.1022 -0.2084
    9DG     H13  197   0.276   2.184   4.008  2.5550  1.3131 -0.3172
    9DG     H14  198   0.410   2.113   4.105 -1.7449  0.5927 -1.1208
    9DG     H15  199   0.464   1.668   4.219 -0.6745  2.5853 -1.5131
    9DG     H16  200   0.356   1.553   4.137  0.3365  1.8699  0.9079
    9DG     C17  201   0.262   1.981   4.062 -0.5639  0.0564 -0.2803
    9DG     C18  202   0.293   1.764   4.133  0.3259  1.0824  0.2864
    9DG     O19  203   0.359   1.886   4.101  0.3939  0.5888 -0.0882
    9DG     H20  204   0.194   1.954   3.987  0.3536  0.2922  2.7757
    9DG     H21  205   0.197   2.009   4.137  0.1412  0.5969  2.2168
    9DG     H22  206   0.229   1.735   4.049 -0.9210  2.2578 -0.2617
    9DG     H23  207   0.232   1.768   4.213  0.1286 -0.2633 -1.5021
   10DG      C1  208   3.893   0.339   3.842 -0.4000 -0.5064  0.0623
   10DG      C2  209   4.136   0.543   3.246 -0.7651 -0.3608 -0.0632
   10DG      H3  210   3.869   0.257   3.782 -0.8164  1.8680 -0.2044
   10DG      H4  211   3.821   0.332   3.919 -1.3666 -1.4006  0.6887
   10DG      H5  212   3.994   0.328   3.877 -1.6692  2.0296  1.3127
   10DG      H6  213   4.235   0.516   3.273 -3.6528 -0.6671 -1.7159
   10DG      H7  214   4.102   0.458   3.189  0.0344  0.2046 -1.1963
   10DG      H8  215   4.155   0.631   3.179 -0.8071  0.2482 -0.0765
   10DG      O9  216   3.862   0.449   3.762  0.0476  0.3108  0.0107
   10DG     O10  217   4.060   0.584   3.356 -0.0722 -0.2930  0.0824
   10DG     C11  218   3.867   0.574   3.824 -0.1631 -0.6817  0.4253
   10DG     C12  219   4.100   0.711   3.406 -0.4064  0.2925 -0.3734
   10DG     H13  220   3.964   0.573   3.873  0.9733  0.9955 -1.0789
   10DG     H14  221   3.787   0.586   3.886 -0.3618 -1.4858 -3.3545
   10DG     H15  222   4.101   0.776   3.325  0.9860 -0.9326 -2.5213
   10DG     H16  223   4.203   0.704   3.435  2.8270 -2.2633 -1.0499
   10DG     C17  224   3.881   0.682   3.718  0.5275  0.8539  0.2500
   10DG     C18  225   3.998   0.755   3.516 -0.3821  1.0281  0.4490
   10DG     O19  226   3.987   0.658   3.628 -0.4090 -0.2044  0.5029
   10DG     H20  227   3.886   0.775   3.767  3.6486 -0.5358 -0.0081
   10DG     H21  228   3.785   0.676   3.667  1.9715  1.5018  0.4024
   10DG     H22  229   4.028   0.851   3.552 -0.3563 -1.0302  1.6571
   10DG     H23  230   3.903   0.765   3.466 -1.5231  0.1545 -2.0418
   11DG      C1  231   0.155   3.211   4.599 -0.3480 -0.2118  0.4918
   11DG      C2  232   0.324   3.354   5.070 -0.3742 -0.4226 -0.4115
   11DG      H3  233   0.115   3.216   4.500  1.6706  0.7529 -0.4202
   11DG      H4  234   0.104   3.131   4.652 -0.1242 -0.2058 -2.2573
   11DG      H5  235   0.259   3.201   4.589 -0.0466  1.9468  0.1883
   11DG      H6  236   0.396   3.310   4.998 -1.6264  3.4741 -0.9400
   11DG      H7  237   0.365   3.409   5.149  2.4414 -0.2949 -0.3759
   11DG      H8  238   0.265   3.274   5.108 -1.4884 -0.3264  2.6625
   11DG      O9  239   0.123   3.348   4.655 -0.0550 -0.2520 -0.1436
   11DG     O10  240   0.249   3.450   5.005 -0.7969 -0.3914 -0.1944
   11DG     C11  241  -0.015   3.377   4.666 -0.7535  0.1171 -0.4440
   11DG     C12  242   0.121   3.482   5.056  0.4233 -0.2878 -1.0494
   11DG     H13  243  -0.067   3.297   4.722 -1.6981  1.2811  4.1355
   11DG     H14  244  -0.070   3.373   4.576  0.0898  1.0696  1.5974
   11DG     H15  245   0.140   3.578   5.107 -0.4945  0.5457  1.7562
   11DG     H16  246   0.090   3.419   5.138 -1.4313  0.7467 -1.8585
   11DG     C17  247  -0.036   3.511   4.731  0.6709  0.1604 -0.2576
   11DG     C18  248   0.019   3.459   4.947 -0.3276  0.3535 -0.0567
   11DG     O19  249   0.046   3.545   4.840 -0.0158  0.4578 -0.4391
   11DG     H20  250  -0.137   3.526   4.751 -1.0396  2.9166 -1.2988
   11DG     H21  251  -0.021   3.585   4.652 -0.8219  0.3836  0.2017
   11DG     H22  252   0.016   3.356   4.924  1.0290  0.6669  4.0497
   11DG     H23  253  -0.076   3.488   4.994 -0.8040  0.5183 -2.5418
   12DG      C1  254   2.599   3.607   3.945  0.3294  0.7526  0.1734
   12DG      C2  255   2.214   4.213   4.036 -0.0135  0.1793  0.1663
   12DG      H3  256   2.592   3.499   3.961  1.6911 -3.2343 -0.3248
   12DG      H4  257   2.663   3.645   4.017 -0.6500 -3.2724 -2.0207
   12DG      H5  258   2.640   3.619   3.849  1.7594 -0.7782  2.1622
   12DG      H6  259   2.310   4.252   4.064  2.0322 -1.4275 -2.8152
   12DG      H7  260   2.196   4.265   3.942 -0.0495  0.4252 -0.3743
   12DG      H8  261   2.133   4.245   4.101  2.1990 -0.5374 -1.2280
   12DG      O9  262   2.482   3.670   3.966 -0.1632 -0.4055  0.3417
   12DG     O10  263   2.220   4.073   4.034 -0.0188 -0.4198 -0.0002
   12DG     C11  264   2.380   3.628   3.870  0.4975 -0.1392 -0.0655
   12DG     C12  265   2.098   4.011   3.978  0.4602 -0.4582  0.3145
   12DG     H13  266   2.370   3.520   3.869 -0.4241 -2.2127 -0.6215
   12DG     H14  267   2.412   3.662   3.780  0.2881 -2.9401  0.4056
   12DG     H15  268   2.079   4.049   3.877  1.9447 -1.0150  2.6170
   12DG     H16  269   2.008   4.024   4.040 -0.8630  0.7626 -0.4187
   12DG     C17  270   2.235   3.683   3.906 -0.3245 -0.7865  1.0012
   12DG     C18  271   2.115   3.865   3.978  0.3325 -0.4718 -0.0181
   12DG     O19  272   2.234   3.820   3.919  0.2773 -0.1633 -0.0212
   12DG     H20  273   2.216   3.629   4.000 -0.6939 -0.9183 -2.2918
   12DG     H21  274   2.166   3.635   3.835 -0.4447 -3.5720  0.4125
   12DG     H22  275   2.108   3.828   4.081 -2.6323  0.1447  2.9693
   12DG     H23  276   2.032   3.821   3.921 -1.7266 -0.7990 -1.6095
   13DG      C1  277   1.083   2.239   1.506  0.9348 -0.1816 -0.4015
   13DG      C2  278   1.559   2.118   2.036 -0.5341 -0.0143 -0.4011
   13DG      H3  279   1.022   2.156   1.489  0.0308 -1.8395  1.1411
   13DG      H4  280   1.085   2.303   1.418 -1.1591  1.8171  0.6682
   13DG      H5  281   1.039   2.290   1.587 -0.7023  2.0048  0.1227
   13DG      H6  282   1.491   2.039   2.064 -0.7187  0.4577  1.7105
   13DG      H7  283   1.659   2.077   2.056  0.2654  0.7470  2.0972
   13DG      H8  284   1.539   2.205   2.106 -2.0799 -0.6424 -1.5746
   13DG      O9  285   1.200   2.183   1.558 -0.1273  0.7790 -0.1668
   13DG     O10  286   1.542   2.163   1.899 -0.8797 -0.2407  0.1585
   13DG     C11  287   1.288   2.121   1.455  0.2079  0.1231 -0.2715
   13DG     C12  288   1.577   2.075   1.795 -0.3157 -0.1057  0.4098
   13DG     H13  289   1.306   2.197   1.378 -3.6250  0.8847  1.1709
   13DG     H14  290   1.243   2.046   1.394 -0.3141 -2.9347  1.3568
   13DG     H15  291   1.497   2.000   1.793  4.5578 -0.2272  3.4822
   13DG     H16  292   1.675   2.036   1.822  3.0027  1.5133  1.9707
   13DG     C17  293   1.424   2.083   1.517 -0.0089  0.0258  0.0503
   13DG     C18  294   1.588   2.155   1.658  0.5625 -0.4941  0.1602
   13DG     O19  295   1.468   2.194   1.595  0.6616  0.2741  0.2645
   13DG     H20  296   1.494   2.071   1.440 -1.0285  3.0914  0.6306
   13DG     H21  297   1.419   1.989   1.578  1.1929 -1.7497 -1.4757
   13DG     H22  298   1.620   2.256   1.682 -1.0389 -0.4676 -0.7480
   13DG     H23  299   1.660   2.112   1.594 -1.5122  3.4655 -0.7756
   14DG      C1  300   3.939   2.281   0.135  0.7129  0.3278 -0.2764
   14DG      C2  301   3.910   2.576   0.754  0.2132 -0.0136 -0.3367
   14DG      H3  302   4.021   2.352   0.132 -0.2504  2.1132  2.6886
   14DG      H4  303   3.914   2.241   0.035  3.4460  0.2098  0.6426
   14DG      H5  304   3.974   2.193   0.182  2.0676 -2.6662  2.6520
   14DG      H6  305   3.847   2.631   0.827  0.8661  1.4048 -0.1051
   14DG      H7  306   3.914   2.480   0.788  1.4200 -1.8764 -2.1577
   14DG      H8  307   4.002   2.630   0.735 -0.1989  2.2249  1.0686
   14DG      O9  308   3.829   2.336   0.211  0.0774 -0.2340 -0.1241
   14DG     O10  309   3.838   2.559   0.634  0.2305 -0.5849  0.1485
   14DG     C11  310   3.804   2.462   0.146  0.7727 -0.1153  0.3018
   14DG     C12  311   3.803   2.684   0.576  0.5596 -0.3642  0.2693
   14DG     H13  312   3.745   2.452   0.052  2.2391 -0.4939 -0.1049
   14DG     H14  313   3.888   2.522   0.127 -3.1833 -0.8153  1.2745
   14DG     H15  314   3.891   2.742   0.540  1.1962  2.3934  1.5426
   14DG     H16  315   3.749   2.739   0.655 -0.5605 -0.5069 -3.3402
   14DG     C17  316   3.709   2.552   0.231 -0.1397  0.4034 -0.4204
   14DG     C18  317   3.710   2.658   0.453 -1.3859  0.3216 -0.3799
   14DG     O19  318   3.780   2.581   0.358  0.2849 -0.2575  0.1960
   14DG     H20  319   3.628   2.480   0.264  0.3715 -1.1548  1.3864
   14DG     H21  320   3.668   2.639   0.187 -0.3716  1.1557 -1.1937
   14DG     H22  321   3.627   2.599   0.486 -0.8287 -3.7738 -1.4612
   14DG     H23  322   3.675   2.754   0.413  0.7482 -0.3315  0.0071
   15DG      C1  323   0.342   4.312   0.950 -0.5304  0.0425  0.1224
   15DG      C2  324   0.836   4.033   0.599  0.7489  0.1982 -1.3338
   15DG      H3  325   0.292   4.384   1.014  4.2803  1.9266 -0.9260
   15DG      H4  326   0.315   4.218   0.989 -1.8852  1.8304 -0.4840
   15DG      H5  327   0.292   4.316   0.850 -2.7158 -2.4090 -0.6795
   15DG      H6  328   0.931   3.984   0.617  1.1836 -0.8237  0.2769
   15DG      H7  329   0.763   3.956   0.570 -1.8223  0.8381 -2.6300
   15DG      H8  330   0.857   4.103   0.518  1.9495  2.2834  0.6761
   15DG      O9  331   0.485   4.316   0.940  0.0556  0.0628 -0.2587
   15DG     O10  332   0.783   4.118   0.702  0.2005 -0.1634  0.7299
   15DG     C11  333   0.544   4.309   1.066 -0.4531 -0.0824 -0.6130
   15DG     C12  334   0.890   4.124   0.792 -0.8282 -0.7139 -0.5385
   15DG     H13  335   0.500   4.217   1.121  0.7284 -0.0438 -1.2599
   15DG     H14  336   0.520   4.401   1.120  1.7933  0.2937  0.2376
   15DG     H15  337   0.980   4.166   0.737  1.2300 -0.2241  0.7646
   15DG     H16  338   0.920   4.028   0.846  0.2720  1.0663 -1.2007
   15DG     C17  339   0.699   4.299   1.060 -0.0898  0.0207 -0.5569
   15DG     C18  340   0.870   4.216   0.917  0.1450  0.0981  0.4305
   15DG     O19  341   0.738   4.201   0.965 -0.5053 -0.3026  0.5912
   15DG     H20  342   0.742   4.280   1.160  0.5927 -0.7900  1.4225
   15DG     H21  343   0.739   4.399   1.031 -0.9506  0.8300  0.8907
   15DG     H22  344   0.952   4.206   0.995  2.5291 -2.7561  1.6167
   15DG     H23  345   0.898   4.313   0.872 -0.1243 -1.6363  0.3309
   16DG      C1  346   4.389   3.435   1.201 -0.2399  0.1339  0.0505
   16DG      C2  347   4.413   2.689   1.462  0.1535  0.1457 -0.7134
   16DG      H3  348   4.278   3.425   1.188  1.0532 -1.4126  2.9823
   16DG      H4  349   4.435   3.427   1.099 -0.6653 -0.2312  0.3164
   16DG      H5  350   4.405   3.533   1.253  1.6213  1.1936  0.9941
   16DG      H6  351   4.484   2.642   1.524 -3.4657  0.3875 -2.4838
   16DG      H7  352   4.316   2.644   1.466  1.2520 -0.3447 -2.4010
   16DG      H8  353   4.457   2.673   1.362  3.4252  0.7716  1.1634
   16DG      O9  354   4.451   3.330   1.291  0.1892 -0.4406  0.2367
   16DG     O10  355   4.403   2.828   1.488  0.1835 -0.3758  0.1291
   16DG     C11  356   4.444   3.198   1.237  0.3646  0.2968 -0.8090
   16DG     C12  357   4.516   2.890   1.551  0.1995 -0.1198 -0.4585
   16DG     H13  358   4.525   3.166   1.178 -1.0080 -0.4471 -0.9796
   16DG     H14  359   4.360   3.194   1.171  3.5066  0.6275  1.2074
   16DG     H15  360   4.606   2.887   1.490 -1.0539  3.5955  1.0246
   16DG     H16  361   4.533   2.856   1.648  0.5599 -0.5691  0.2225
   16DG     C17  362   4.405   3.107   1.363  0.3628 -0.4614 -0.2028
   16DG     C18  363   4.490   3.042   1.569 -0.2938  0.0259 -0.1048
   16DG     O19  364   4.518   3.101   1.446  0.4528 -0.1751 -0.1486
   16DG     H20  365   4.376   3.007   1.329  2.0538 -1.4888  0.0614
   16DG     H21  366   4.327   3.151   1.424  1.7256 -2.2773  2.7337
   16DG     H22  367   4.394   3.066   1.612 -1.3479 -0.9414 -3.5952
   16DG     H23  368   4.571   3.075   1.639  0.3596  0.2309 -1.6219
   17DG      C1  369   0.349   1.126   3.838  0.0652  0.0946  0.3957
   17DG      C2  370   0.392   0.447   4.046 -0.3027 -0.8801  0.1433
   17DG      H3  371   0.242   1.127   3.822 -1.0739  0.2991 -0.9181
   17DG      H4  372   0.377   1.213   3.779  1.5922  1.3457  0.2244
   17DG      H5  373   0.381   1.151   3.944  0.2120  0.8028  1.8266
   17DG      H6  374   0.463   0.427   4.123 -0.2434  1.1093 -1.2104
   17DG      H7  375   0.291   0.476   4.076  1.4960  0.6552 -1.6551
   17DG      H8  376   0.391   0.355   3.987  2.5057 -1.2893  0.0626
   17DG      O9  377   0.416   1.015   3.786  0.6234 -0.1377 -0.0755
   17DG     O10  378   0.428   0.551   3.960 -0.2365  0.0077 -0.2672
   17DG     C11  379   0.559   1.020   3.799 -0.0400  0.1479  0.3474
   17DG     C12  380   0.569   0.548   3.933 -0.2075 -0.9811 -0.1476
   17DG     H13  381   0.585   1.034   3.909  0.0200  2.3672  0.4181
   17DG     H14  382   0.606   1.098   3.740  1.6608 -2.0030 -1.3317
   17DG     H15  383   0.594   0.447   3.901  1.8954  1.5786 -0.4195
   17DG     H16  384   0.628   0.560   4.021  1.7852  0.4189  0.2332
   17DG     C17  385   0.601   0.879   3.759  0.3680 -0.0072  0.7087
   17DG     C18  386   0.595   0.652   3.822 -0.1762 -0.7581  0.3592
   17DG     O19  387   0.555   0.785   3.853  0.0876 -0.8709 -0.1046
   17DG     H20  388   0.711   0.879   3.758  0.1180 -0.4253 -0.8567
   17DG     H21  389   0.568   0.871   3.657 -0.7700 -3.0511 -0.2776
   17DG     H22  390   0.705   0.661   3.807 -1.9961 -1.8484  0.3150
   17DG     H23  391   0.564   0.631   3.722 -2.4533 -1.8908  0.9564
   18DG      C1  392   0.497   4.153   5.033 -0.0719  0.0415 -0.0781
   18DG      C2  393   0.347   4.723   5.325 -0.8064 -0.4864 -0.2974
   18DG      H3  394   0.557   4.081   4.979  0.0054 -1.9130  0.8987
   18DG      H4  395   0.421   4.181   4.964 -0.1779  0.2396  1.9295
   18DG      H5  396   0.455   4.110   5.125  1.1115 -1.6533 -0.0610
   18DG      H6  397   0.370   4.821   5.366  0.8313 -2.4731  0.0378
   18DG      H7  398   0.284   4.746   5.237 -1.4781 -0.3849  0.2020
   18DG      H8  399   0.309   4.655   5.398  1.1221 -0.4500 -0.2338
   18DG      O9  400   0.572   4.267   5.066 -0.0694 -0.2743 -0.5616
   18DG     O10  401   0.456   4.665   5.263  0.4013  0.0008 -0.2115
   18DG     C11  402   0.690   4.238   5.143 -0.7803  0.1496  0.1822
   18DG     C12  403   0.558   4.634   5.360  0.5419 -0.6291  0.4170
   18DG     H13  404   0.765   4.188   5.081  1.5657 -2.2639 -1.9694
   18DG     H14  405   0.660   4.173   5.228 -1.1899 -0.2604 -0.3714
   18DG     H15  406   0.539   4.575   5.450 -0.1270  1.6710 -2.1972
   18DG     H16  407   0.592   4.729   5.397 -1.4696 -0.2517  1.4661
   18DG     C17  408   0.735   4.378   5.196  0.7937  0.1577  0.2230
   18DG     C18  409   0.666   4.572   5.285 -0.2062 -0.3770 -0.5889
   18DG     O19  410   0.623   4.447   5.256  0.3911 -0.0054 -0.4825
   18DG     H20  411   0.778   4.432   5.110  0.7671 -0.8550 -1.8240
   18DG     H21  412   0.822   4.366   5.260 -2.3377 -3.1461  0.9718
   18DG     H22  413   0.699   4.628   5.191  0.5864 -1.2589  0.3571
   18DG     H23  414   0.750   4.569   5.353  0.2544  0.7806  0.0145
   19DG      C1  415   4.398   5.479   1.553  0.0060  0.3406  0.9275
   19DG      C2  416   3.723   5.481   1.655 -0.1243 -0.5505  0.5490
   19DG      H3  417   4.505   5.510   1.538  1.9266  3.2357  0.7121
   19DG      H4  418   4.366   5.471   1.448 -1.0845  2.9832  1.8808
   19DG      H5  419   4.394   5.370   1.585  0.0735 -1.0395  1.3195
   19DG      H6  420   3.692   5.398   1.715 -0.2301 -0.6698  0.1965
   19DG      H7  421   3.661   5.565   1.677 -0.5670  0.2492  1.4351
   19DG      H8  422   3.725   5.449   1.560 -1.8199  0.2524  0.2437
   19DG      O9  423   4.316   5.576   1.621 -0.2924 -0.1792 -0.1148
   19DG     O10  424   3.859   5.511   1.684  0.0238  0.3388  0.3104
   19DG     C11  425   4.332   5.570   1.756 -0.9566  0.9846 -0.4874
   19DG     C12  426   3.869   5.555   1.815 -0.1088  0.3969  0.2580
   19DG     H13  427   4.319   5.666   1.790  0.3705 -0.2996 -2.5972
   19DG     H14  428   4.432   5.543   1.800  0.8856 -2.7560 -1.0626
   19DG     H15  429   3.789   5.512   1.883  0.6750 -2.9550 -0.2700
   19DG     H16  430   3.859   5.662   1.812 -0.3281  3.6952 -1.3527
   19DG     C17  431   4.228   5.497   1.828 -0.1804  0.5171 -0.1742
   19DG     C18  432   4.002   5.508   1.868 -0.1649 -0.4658 -0.6861
   19DG     O19  433   4.107   5.562   1.794  0.1957 -0.4571 -0.2610
   19DG     H20  434   4.249   5.514   1.934 -1.1534  0.3822  1.6111
   19DG     H21  435   4.238   5.392   1.809  0.7091 -1.6523 -0.8268
   19DG     H22  436   4.004   5.521   1.978 -1.8651  1.4672  3.7281
   19DG     H23  437   4.015   5.400   1.849  2.1585  1.1069  1.1956
   20DG      C1  438   4.932   5.346   4.573 -0.6056 -0.2265 -0.4375
   20DG      C2  439   4.905   5.141   4.045  0.3305  0.5048 -0.7538
   20DG      H3  440   4.876   5.433   4.554 -1.6087 -2.9714  0.2588
   20DG      H4  441   5.034   5.385   4.562  0.9718  2.6331 -1.1290
   20DG      H5  442   4.915   5.324   4.677  1.0290  1.7530 -4.1387
   20DG      H6  443   5.004   5.105   4.027 -0.6878  0.4265  0.6729
   20DG      H7  444   4.838   5.143   3.960 -0.5017  2.1092 -3.6258
   20DG      H8  445   4.926   5.239   4.082  0.2007  0.2232 -0.6742
   20DG      O9  446   4.924   5.227   4.496  0.7775 -0.3356  0.0030
   20DG     O10  447   4.838   5.083   4.157 -0.0079  0.1544 -0.4239
   20DG     C11  448   4.999   5.117   4.542 -0.8609  0.1934  0.4404
   20DG     C12  449   4.845   4.940   4.171 -0.0028 -0.3992  0.0178
   20DG     H13  450   4.975   5.095   4.647 -0.0795 -0.4927 -1.4828
   20DG     H14  451   5.101   5.145   4.546  1.0711 -0.9544 -1.1466
   20DG     H15  452   4.932   4.896   4.133 -2.3166 -0.0508 -0.2229
   20DG     H16  453   4.774   4.900   4.099 -1.3424 -0.4614  0.8948
   20DG     C17  454   4.981   5.011   4.432 -0.0483  0.3482 -0.2214
   20DG     C18  455   4.806   4.890   4.314 -0.0935  0.7520  0.1994
   20DG     O19  456   4.841   4.993   4.412  0.2079  0.8478 -0.2387
   20DG     H20  457   5.023   4.921   4.461 -2.4931  0.1585  2.1161
   20DG     H21  458   5.040   5.047   4.351 -0.0646  0.2541 -0.7990
   20DG     H22  459   4.702   4.862   4.330  1.1686 -0.7071 -0.2083
   20DG     H23  460   4.871   4.801   4.350 -1.7757 -2.0780 -0.6239
   21DG      C1  461   4.472   4.413   5.190  0.1492 -0.5386  0.0742
   21DG      C2  462   5.132   4.363   5.020  0.6672 -0.7816 -0.3668
   21DG      H3  463   4.435   4.354   5.272 -0.9971  0.2335  2.1894
   21DG      H4  464   4.394   4.436   5.116  2.6697 -1.0968 -0.8920
   21DG      H5  465   4.508   4.503   5.236 -0.2776 -1.5153 -0.4307
   21DG      H6  466   5.199   4.366   5.114 -2.0466 -0.1352  1.3222
   21DG      H7  467   5.185   4.307   4.936 -3.5503 -0.5090 -1.0169
   21DG      H8  468   5.108   4.463   4.986 -0.6065 -0.0282 -2.4189
   21DG      O9  469   4.568   4.341   5.116 -0.8498  0.5035 -0.0188
   21DG     O10  470   5.005   4.307   5.042 -0.5323  0.1857  0.5169
   21DG     C11  471   4.556   4.201   5.140 -0.3291 -0.7363 -0.2945
   21DG     C12  472   5.002   4.164   5.034  0.5838 -0.2403  0.4470
   21DG     H13  473   4.451   4.162   5.136  1.8004 -1.0980  0.3898
   21DG     H14  474   4.604   4.151   5.227  2.5406  0.5475 -3.2934
   21DG     H15  475   5.070   4.113   5.104 -0.3696 -0.6717  1.3406
   21DG     H16  476   5.041   4.136   4.935 -1.7386 -0.5202 -3.1777
   21DG     C17  477   4.624   4.147   5.022  0.2177 -0.1196  0.5109
   21DG     C18  478   4.853   4.108   5.051 -0.6184 -0.1284  0.0004
   21DG     O19  479   4.754   4.193   5.004 -0.1673 -0.7027 -0.4366
   21DG     H20  480   4.558   4.169   4.939  0.0754 -1.6388  0.2399
   21DG     H21  481   4.619   4.036   5.017 -1.0053  0.3922 -2.3365
   21DG     H22  482   4.840   4.014   4.992  2.0182 -1.2154 -0.3783
   21DG     H23  483   4.832   4.079   5.157  0.2031 -0.8755 -2.6618
   22DG      C1  484   3.069   1.792   1.718  0.2988 -0.3302  0.0765
   22DG      C2  485   2.488   2.016   1.972  0.3210 -0.4920 -0.4350
   22DG      H3  486   3.133   1.782   1.639 -2.4994  1.0786 -0.9032
   22DG      H4  487   3.094   1.713   1.792  0.9551 -1.8500  0.5702
   22DG      H5  488   3.097   1.891   1.763  1.9899  1.9262  0.3805
   22DG      H6  489   2.555   2.098   1.984 -0.9348  1.7572 -0.4321
   22DG      H7  490   2.382   2.056   1.947  1.6631 -0.6319  0.8687
   22DG      H8  491   2.486   1.947   2.055 -0.8269  4.7478  0.2015
   22DG      O9  492   2.921   1.804   1.680  0.0043  0.2730  0.2462
   22DG     O10  493   2.535   1.954   1.853 -0.0672  0.4629 -0.0801
   22DG     C11  494   2.869   1.681   1.636  0.9233  0.6780 -0.1629
   22DG     C12  495   2.452   1.849   1.791  0.0511 -0.4382 -0.1525
   22DG     H13  496   2.875   1.603   1.715  1.7159  0.2169  0.1613
   22DG     H14  497   2.932   1.643   1.558  0.0664 -0.7301 -2.5473
   22DG     H15  498   2.382   1.915   1.756  0.9652 -1.7192 -0.2330
   22DG     H16  499   2.416   1.777   1.858 -2.4573 -2.9989 -2.9028
   22DG     C17  500   2.724   1.699   1.597 -0.6373  0.4832  0.0901
   22DG     C18  501   2.521   1.782   1.667  0.0607 -0.5051 -0.8216
   22DG     O19  502   2.653   1.751   1.709 -0.2456 -0.2706 -0.3336
   22DG     H20  503   2.685   1.598   1.577 -0.4799  0.5031  0.8569
   22DG     H21  504   2.723   1.761   1.508  1.9074  0.0472 -4.0721
   22DG     H22  505   2.463   1.690   1.638 -1.9914  1.5840  2.5651
   22DG     H23  506   2.526   1.857   1.584 -0.1629  1.3722  3.0905
   23DG      C1  507   1.061   1.181   2.935  0.3742  0.0194  0.1405
   23DG      C2  508   0.985   1.818   2.895 -0.0946 -0.9606  0.5857
   23DG      H3  509   1.041   1.075   2.900  0.8928  0.4008 -0.0628
   23DG      H4  510   1.008   1.193   3.031  0.5124 -0.3493  0.5333
   23DG      H5  511   1.166   1.186   2.969  2.0121  0.6767  2.3818
   23DG      H6  512   0.922   1.902   2.870  1.1798  0.9388  1.0453
   23DG      H7  513   0.978   1.800   3.006 -1.1808 -0.0576 -1.1720
   23DG      H8  514   1.086   1.853   2.861  1.3614 -2.6722  0.3527
   23DG      O9  515   1.029   1.259   2.825 -0.4398 -0.1079  0.2815
   23DG     O10  516   0.955   1.698   2.825  0.4474 -0.1742  0.5100
   23DG     C11  517   0.897   1.245   2.774 -0.0963  0.1538  0.0818
   23DG     C12  518   0.965   1.711   2.683  0.2516 -0.3351 -0.6013
   23DG     H13  519   0.832   1.249   2.864 -1.4430  1.3609  3.0285
   23DG     H14  520   0.899   1.148   2.720  0.4399  0.6049  0.2623
   23DG     H15  521   1.064   1.712   2.627 -2.4368 -1.0212  1.6451
   23DG     H16  522   0.895   1.789   2.648  1.1044  0.3543  0.8738
   23DG     C17  523   0.853   1.360   2.679 -0.3322  0.0039  0.5793
   23DG     C18  524   0.890   1.585   2.640  0.8464  0.1201  0.7860
   23DG     O19  525   0.926   1.475   2.722  0.3007 -0.9128  0.3697
   23DG     H20  526   0.743   1.364   2.681 -1.3746  0.2495 -0.1813
   23DG     H21  527   0.863   1.326   2.577 -0.8704  0.0970 -1.3988
   23DG     H22  528   0.789   1.609   2.665  0.4313  0.3264  2.9064
   23DG     H23  529   0.918   1.575   2.535  1.4298  0.3565 -0.9938
   24DG      C1  530   2.810   0.478   2.156  0.2063  0.5227 -0.7003
   24DG      C2  531   2.895  -0.087   2.596 -0.7383  0.7190  0.5449
   24DG      H3  532   2.727   0.466   2.090  1.1040 -0.6702 -0.2289
   24DG      H4  533   2.898   0.504   2.095  1.1567 -0.2081 -1.8109
   24DG      H5  534   2.788   0.545   2.238 -0.0816 -1.9477 -1.7890
   24DG      H6  535   2.907  -0.133   2.689 -0.6299 -0.0157  2.1464
   24DG      H7  536   2.790  -0.101   2.583 -0.4994 -1.9643 -0.4943
   24DG      H8  537   2.929  -0.161   2.526  2.9572 -1.0024 -0.8946
   24DG      O9  538   2.854   0.352   2.212 -0.2372  0.0333  0.1127
   24DG     O10  539   2.939   0.051   2.576  0.3269 -0.2551  0.1665
   24DG     C11  540   2.887   0.246   2.122 -0.5029  0.6884  0.5415
   24DG     C12  541   3.061   0.063   2.502  0.1156 -0.4107 -0.1108
   24DG     H13  542   2.988   0.266   2.079  0.5931  0.7405 -3.0277
   24DG     H14  543   2.820   0.253   2.032 -0.7185  0.7761 -1.7271
   24DG     H15  544   3.139  -0.012   2.527  0.5910  0.8788  0.7523
   24DG     H16  545   3.107   0.162   2.524 -2.5045  1.5289  0.9595
   24DG     C17  546   2.880   0.108   2.189 -0.2040 -0.1725 -0.3156
   24DG     C18  547   3.034   0.059   2.357 -0.7161 -0.1738  0.1071
   24DG     O19  548   2.918   0.136   2.324  1.0688  0.3713 -0.1727
   24DG     H20  549   2.945   0.050   2.123  2.6160  0.4920  3.8597
   24DG     H21  550   2.773   0.065   2.195 -2.8570  1.1862 -3.1420
   24DG     H22  551   3.130   0.081   2.299  0.1019 -0.2271  0.1631
   24DG     H23  552   3.000  -0.045   2.333 -2.7331 -0.1159 -0.9357
   25DG      C1  553   4.896   2.760   3.230 -0.1875  0.0376  0.2192
   25DG      C2  554   4.637   2.248   2.852 -0.4256 -0.0901 -0.4302
   25DG      H3  555   4.806   2.815   3.251 -1.1142  1.9061  2.5653
   25DG      H4  556   4.963   2.814   3.160 -0.1596 -0.2720  2.9630
   25DG      H5  557   4.952   2.772   3.318 -1.4795  0.9103 -0.0840
   25DG      H6  558   4.670   2.151   2.823 -1.2011  0.4424 -2.6142
   25DG      H7  559   4.534   2.231   2.876 -1.9901  0.6261  3.0600
   25DG      H8  560   4.650   2.318   2.778 -0.1562 -2.1336 -1.5966
   25DG      O9  561   4.883   2.623   3.207 -0.5665 -0.2897  0.0641
   25DG     O10  562   4.694   2.287   2.979  0.0110  0.1747 -0.4723
   25DG     C11  563   4.988   2.531   3.232  0.4384 -0.6608  0.0916
   25DG     C12  564   4.710   2.180   3.076  0.3349 -0.3573  0.5546
   25DG     H13  565   5.058   2.552   3.309  1.4787 -1.9664 -1.6085
   25DG     H14  566   5.048   2.516   3.140  2.4242  0.2594 -2.0852
   25DG     H15  567   4.791   2.118   3.035  0.9401 -0.1344  0.8134
   25DG     H16  568   4.623   2.115   3.092  3.5938  0.8139 -0.3654
   25DG     C17  569   4.923   2.402   3.272  0.4046  0.3944 -0.0332
   25DG     C18  570   4.756   2.248   3.206 -0.3436 -0.5738  0.0781
   25DG     O19  571   4.847   2.349   3.170  0.0817  0.4507 -0.1899
   25DG     H20  572   4.867   2.423   3.360  1.1280  1.3106 -1.4516
   25DG     H21  573   4.996   2.328   3.300  0.3831 -1.5525 -1.6484
   25DG     H22  574   4.678   2.293   3.266 -2.4386  0.3350 -0.5460
   25DG     H23  575   4.809   2.168   3.268 -2.3865  0.1609  1.2359
   26DG      C1  576   4.689   5.427   4.122  0.0664 -0.4170  0.2133
   26DG      C2  577   4.557   4.978   4.631  0.2548 -0.5326  0.0257
   26DG      H3  578   4.721   5.332   4.075 -0.5495 -0.4827  0.6792
   26DG      H4  579   4.760   5.505   4.114  0.3594  0.3134  1.2982
   26DG      H5  580   4.597   5.458   4.072  0.9659  0.2002  1.2444
   26DG      H6  581   4.494   4.971   4.714  1.8463  0.5119 -2.0398
   26DG      H7  582   4.530   4.909   4.563  1.4369 -0.4711  0.1627
   26DG      H8  583   4.656   4.948   4.663  0.5525 -4.1895  1.8858
   26DG      O9  584   4.651   5.401   4.255  0.2337  0.1847  0.1494
   26DG     O10  585   4.538   5.102   4.578 -0.3435 -1.3216 -0.4336
   26DG     C11  586   4.643   5.519   4.334  0.4862  0.0263  0.7002
   26DG     C12  587   4.595   5.196   4.667 -0.6439 -0.6384 -0.4291
   26DG     H13  588   4.592   5.604   4.287 -0.8023  0.4676 -0.1216
   26DG     H14  589   4.748   5.541   4.363  2.3033  1.5788 -2.6436
   26DG     H15  590   4.709   5.176   4.660  0.6976  0.0188  4.4654
   26DG     H16  591   4.571   5.181   4.767  0.9611  0.9017 -2.2020
   26DG     C17  592   4.564   5.490   4.456 -0.2825  0.4126 -0.4021
   26DG     C18  593   4.541   5.340   4.631  0.1484 -0.6626  1.0300
   26DG     O19  594   4.609   5.368   4.508  0.7995  0.0053 -0.0330
   26DG     H20  595   4.458   5.494   4.426 -3.2293  2.2232 -2.2751
   26DG     H21  596   4.577   5.568   4.532  0.7708 -2.1229  0.6957
   26DG     H22  597   4.431   5.342   4.619  1.8235  2.1427  1.5231
   26DG     H23  598   4.571   5.417   4.702 -0.3565  0.3115 -2.0504
   27DG      C1  599   0.333   4.009   1.618 -0.0571 -0.0788 -0.4029
   27DG      C2  600   0.762   4.423   1.948 -0.0420  0.5300  0.4226
   27DG      H3  601   0.400   3.920   1.603 -0.9766  0.2895  0.4854
   27DG      H4  602   0.336   4.084   1.538 -0.0756 -3.8365 -0.6650
   27DG      H5  603   0.232   3.974   1.619 -0.3389 -0.7025 -1.8039
   27DG      H6  604   0.760   4.518   1.997  0.8821  2.5742  3.5470
   27DG      H7  605   0.841   4.362   2.001  0.3538  1.2762  2.6667
   27DG      H8  606   0.792   4.436   1.851 -2.5269 -0.3100  0.5078
   27DG      O9  607   0.361   4.075   1.738 -0.1128 -0.3373  0.9343
   27DG     O10  608   0.645   4.348   1.946  0.2155  0.2629 -0.8359
   27DG     C11  609   0.309   4.013   1.850  0.5348 -0.0917  1.0529
   27DG     C12  610   0.605   4.302   2.071 -0.2979  0.1005  0.0236
   27DG     H13  611   0.367   3.925   1.850 -3.3642 -0.8716 -0.8867
   27DG     H14  612   0.208   3.978   1.835  2.4377 -0.4177 -0.5750
   27DG     H15  613   0.618   4.388   2.140  0.0981  0.6551 -2.7973
   27DG     H16  614   0.663   4.221   2.113  1.8594  2.0286  0.6993
   27DG     C17  615   0.324   4.104   1.966  0.4238 -0.4633  0.4565
   27DG     C18  616   0.460   4.265   2.064  0.1511  1.1326 -0.3599
   27DG     O19  617   0.452   4.165   1.970 -0.2859  0.9527  0.2360
   27DG     H20  618   0.313   4.036   2.055  1.4384 -0.5941 -2.4957
   27DG     H21  619   0.243   4.181   1.964 -0.0433 -2.3182  0.6666
   27DG     H22  620   0.411   4.236   2.157  0.5161  1.7110  2.5601
   27DG     H23  621   0.405   4.351   2.038  2.1441  1.0621 -2.8772
   28DG      C1  622   0.083   2.585   0.153  0.0596  0.1237 -0.2928
   28DG      C2  623  -0.103   3.029   0.667  0.1559  0.1662 -0.2917
   28DG      H3  624   0.173   2.542   0.112 -0.2691 -2.7781 -1.8548
   28DG      H4  625   0.067   2.672   0.102  0.3619  0.1098  0.1819
   28DG      H5  626   0.011   2.510   0.112 -0.0843 -0.7385  0.0693
   28DG      H6  627  -0.049   3.093   0.738 -1.7677 -0.1555  1.5182
   28DG      H7  628  -0.137   3.094   0.580  1.9557  0.3390 -0.5765
   28DG      H8  629  -0.187   2.995   0.730 -3.3009  0.6814 -0.1947
   28DG      O9  630   0.092   2.598   0.290 -1.0604 -0.0626  0.1030
   28DG     O10  631  -0.042   2.908   0.611  0.4175  0.0551  0.4406
   28DG     C11  632   0.226   2.620   0.329  0.0800  0.0329 -0.8187
   28DG     C12  633   0.032   2.846   0.708  0.3359 -0.3437 -0.1694
   28DG     H13  634   0.269   2.704   0.284 -1.8952 -3.0343  1.7230
   28DG     H14  635   0.280   2.537   0.304 -1.3301  2.3310 -1.0925
   28DG     H15  636  -0.012   2.820   0.804  1.1822 -0.9876 -0.5793
   28DG     H16  637   0.123   2.908   0.732 -0.2409  1.1396 -1.5693
   28DG     C17  638   0.231   2.633   0.480  0.0286 -0.6674 -0.2590
   28DG     C18  639   0.092   2.713   0.656 -0.1380  0.5412  0.4127
   28DG     O19  640   0.129   2.724   0.516 -0.0431 -0.5079 -0.0996
   28DG     H20  641   0.321   2.671   0.528  1.6513 -2.3260  1.4713
   28DG     H21  642   0.217   2.529   0.519 -0.1988 -2.1630 -3.5707
   28DG     H22  643   0.172   2.687   0.726 -3.0600 -1.8817 -1.5906
   28DG     H23  644   0.007   2.643   0.665 -0.3962 -0.8696  1.1949
   29DG      C1  645   2.079   0.533   0.539 -0.5210  0.5578 -0.7000
   29DG      C2  646   2.740   0.460   0.638 -0.5183  0.0173 -0.3387
   29DG      H3  647   2.001   0.461   0.555 -2.0758  0.2729  0.1067
   29DG      H4  648   2.055   0.614   0.478 -2.0244 -0.2289 -0.2630
   29DG      H5  649   2.084   0.577   0.636 -0.0480 -0.8300  3.1848
   29DG      H6  650   2.806   0.377   0.672  0.5155 -1.1287  2.9660
   29DG      H7  651   2.793   0.536   0.578 -2.3958 -0.3443 -2.0037
   29DG      H8  652   2.698   0.515   0.717  1.5894 -0.2975 -1.2952
   29DG      O9  653   2.198   0.467   0.490  0.1919 -0.1429  0.1770
   29DG     O10  654   2.638   0.397   0.565  0.5355  0.1628  0.0309
   29DG     C11  655   2.189   0.426   0.356  0.4647  0.0448  0.0029
   29DG     C12  656   2.671   0.372   0.429 -0.5458  0.1722  0.2253
   29DG     H13  657   2.205   0.507   0.282  1.8193 -0.0100 -0.2042
   29DG     H14  658   2.098   0.374   0.340 -2.0720  3.2873 -0.5662
   29DG     H15  659   2.760   0.305   0.412 -0.5136  0.4640 -2.3170
   29DG     H16  660   2.695   0.461   0.373  1.1847 -0.0307 -1.1099
   29DG     C17  661   2.310   0.332   0.335  0.4783 -0.4260  0.3795
   29DG     C18  662   2.547   0.304   0.372 -0.1691 -0.2921  0.6444
   29DG     O19  663   2.434   0.390   0.389  0.1106  0.0526  0.1201
   29DG     H20  664   2.318   0.330   0.227  0.4686  3.4162  1.2566
   29DG     H21  665   2.281   0.228   0.368 -0.2811 -0.1809  0.8606
   29DG     H22  666   2.555   0.292   0.261 -2.5917 -0.1405 -0.0691
   29DG     H23  667   2.533   0.212   0.430 -0.2750  0.4231  0.1574
   30DG      C1  668   2.826   4.547   0.228 -0.3929 -0.2151  0.0617
   30DG      C2  669   2.746   4.104   0.666 -0.0883  0.7317 -0.1944
   30DG      H3  670   2.724   4.522   0.209 -2.2433 -1.4582 -1.4388
   30DG      H4  671   2.860   4.597   0.137  0.7282  0.1960  1.7548
   30DG      H5  672   2.841   4.609   0.319 -0.7181 -0.5998  1.9934
   30DG      H6  673   2.796   4.005   0.685 -2.5045 -1.8455 -2.9008
   30DG      H7  674   2.790   4.176   0.729 -1.2225 -1.7314  3.8789
   30DG      H8  675   2.643   4.090   0.705 -1.8580  2.7985  1.1314
   30DG      O9  676   2.903   4.426   0.246  0.3639 -0.4657 -0.1611
   30DG     O10  677   2.737   4.147   0.531  0.2689  0.3534  0.4789
   30DG     C11  678   2.882   4.336   0.139  0.5257  0.3591  0.5653
   30DG     C12  679   2.668   4.050   0.446 -0.9397 -0.0422 -1.0698
   30DG     H13  680   2.959   4.259   0.133  1.0428  2.0896 -0.6227
   30DG     H14  681   2.877   4.397   0.049  0.3738 -1.5375  0.1616
   30DG     H15  682   2.573   4.013   0.486 -0.8165 -3.6867 -0.0280
   30DG     H16  683   2.742   3.971   0.431  0.7056 -0.3360  0.1220
   30DG     C17  684   2.750   4.260   0.151  1.0599  0.1619  0.2341
   30DG     C18  685   2.647   4.114   0.311  0.5855 -0.2009 -0.1841
   30DG     O19  686   2.754   4.204   0.283  0.3411 -0.0091 -0.2516
   30DG     H20  687   2.740   4.174   0.079 -2.2038 -1.9807 -0.0495
   30DG     H21  688   2.658   4.329   0.136  0.7769  0.2104 -0.3612
   30DG     H22  689   2.641   4.047   0.226 -0.7455  3.3909  0.0328
   30DG     H23  690   2.550   4.172   0.315  0.6581 -1.8260 -0.2008
   31DG      C1  691   4.602   1.536   5.341 -0.6409 -0.5617 -0.6368
   31DG      C2  692   4.424   1.588   6.013 -0.0197 -0.6457  0.3932
   31DG      H3  693   4.577   1.434   5.306 -1.5562 -0.6849  0.7283
   31DG      H4  694   4.703   1.540   5.381  0.0928  0.6595 -1.5029
   31DG      H5  695   4.605   1.593   5.245 -3.3211 -2.2137  1.0351
   31DG      H6  696   4.529   1.593   6.039 -0.5859 -3.3270 -2.0797
   31DG      H7  697   4.373   1.638   6.094  0.9073 -2.4033 -0.6673
   31DG      H8  698   4.396   1.481   6.023  1.8023  0.5048  1.8135
   31DG      O9  699   4.515   1.583   5.437  0.1831 -0.0901  0.0540
   31DG     O10  700   4.388   1.649   5.893 -0.0116  0.4995 -0.3142
   31DG     C11  701   4.378   1.583   5.398 -0.3735  0.2093 -0.1815
   31DG     C12  702   4.252   1.629   5.864 -0.0875  0.6168  0.2980
   31DG     H13  703   4.340   1.482   5.394 -0.0740  1.2475 -0.2472
   31DG     H14  704   4.365   1.627   5.296  1.1534 -2.6351  2.8700
   31DG     H15  705   4.190   1.685   5.936 -1.3611 -0.8086 -1.6885
   31DG     H16  706   4.223   1.525   5.858  2.9848 -1.5569  1.6662
   31DG     C17  707   4.288   1.663   5.490  0.4656  0.4049 -0.0559
   31DG     C18  708   4.236   1.688   5.723 -0.4917 -0.1970  0.6183
   31DG     O19  709   4.329   1.643   5.629 -0.0213 -0.4450  0.5097
   31DG     H20  710   4.183   1.639   5.469 -1.8388 -0.8557 -1.1550
   31DG     H21  711   4.300   1.769   5.468  0.8425  2.1925 -0.5365
   31DG     H22  712   4.137   1.673   5.689 -3.1999  3.0118  0.2395
   31DG     H23  713   4.249   1.799   5.734 -0.7038  2.7969  0.9084
   32DG      C1  714   5.028   0.213   5.023  0.1011 -0.0197  0.2173
   32DG      C2  715   4.793   0.708   4.688 -0.0142  0.2342  0.1076
   32DG      H3  716   4.928   0.177   5.045 -0.0992  0.8323 -0.5664
   32DG      H4  717   5.099   0.160   5.085  1.2361  0.0207  0.8995
   32DG      H5  718   5.047   0.188   4.919  1.0896 -1.1833  0.9959
   32DG      H6  719   4.741   0.801   4.686 -1.5677  2.4949 -1.2450
   32DG      H7  720   4.871   0.704   4.607  1.4961 -1.7106 -0.4386
   32DG      H8  721   4.722   0.631   4.667  0.6243 -2.4361  0.6079
   32DG      O9  722   5.041   0.351   5.055  0.3940  0.3400  0.2436
   32DG     O10  723   4.849   0.690   4.812  0.3150 -0.5188  0.2784
   32DG     C11  724   5.166   0.399   5.009 -0.1093  0.5104  0.0325
   32DG     C12  725   4.956   0.792   4.814 -1.0092  0.1011 -0.3660
   32DG     H13  726   5.190   0.370   4.901  1.3121 -2.6402 -2.2903
   32DG     H14  727   5.248   0.362   5.066  0.3187  0.8272 -0.6120
   32DG     H15  728   4.909   0.881   4.847 -2.2693  0.2151  2.3413
   32DG     H16  729   5.016   0.813   4.724 -0.7091 -1.5112 -4.2867
   32DG     C17  730   5.158   0.549   5.022  0.5961  0.2463  0.1962
   32DG     C18  731   5.056   0.749   4.924  0.6301  0.4744  0.5792
   32DG     O19  732   5.078   0.609   4.917 -0.2691 -0.0727  0.0245
   32DG     H20  733   5.258   0.596   5.019  1.2448 -0.4125 -1.2337
   32DG     H21  734   5.123   0.575   5.120  0.6396  1.8640 -1.2756
   32DG     H22  735   5.148   0.812   4.920 -0.7770  1.0436 -0.3990
   32DG     H23  736   5.009   0.762   5.018  3.2410  0.3786  1.0202
   33DG      C1  737   0.084   4.636   4.431 -0.1091 -0.7372  0.5509
   33DG      C2  738  -0.095   4.068   4.148 -0.4006  0.5120  0.2568
   33DG      H3  739   0.163   4.670   4.494  2.9583 -1.0565 -0.3691
   33DG      H4  740  -0.000   4.608   4.499  1.3071 -1.3340 -1.3503
   33DG      H5  741   0.040   4.722   4.373 -2.4202  1.0258 -0.4049
   33DG      H6  742  -0.061   3.974   4.102  0.3852 -2.6270  1.9036
   33DG      H7  743  -0.120   4.043   4.248 -0.3532 -0.9216 -1.9794
   33DG      H8  744  -0.177   4.115   4.095  0.6211 -1.2620  0.1444
   33DG      O9  745   0.119   4.529   4.341  0.2852  0.4685  0.5641
   33DG     O10  746   0.017   4.155   4.137 -0.3213  0.1631 -0.4274
   33DG     C11  747   0.185   4.586   4.230 -0.2435  0.7601 -0.9469
   33DG     C12  748   0.058   4.189   4.013 -0.4050  0.4962 -0.4739
   33DG     H13  749   0.263   4.655   4.259 -1.7345 -2.6935 -0.1344
   33DG     H14  750   0.112   4.644   4.174  0.0102 -1.1191  0.9176
   33DG     H15  751  -0.031   4.224   3.962 -0.3585 -2.0429 -0.7526
   33DG     H16  752   0.098   4.114   3.951  0.0739 -2.8702  0.9473
   33DG     C17  753   0.247   4.485   4.131 -0.3773  0.8423  0.4674
   33DG     C18  754   0.158   4.307   4.015  0.5426  0.0692 -0.0667
   33DG     O19  755   0.140   4.388   4.121  0.0097 -0.4332 -0.2588
   33DG     H20  756   0.332   4.428   4.168 -2.7515 -0.0699  1.4659
   33DG     H21  757   0.287   4.525   4.033  1.1491 -0.5949  1.1666
   33DG     H22  758   0.256   4.257   4.030 -0.3651  1.1059  1.6961
   33DG     H23  759   0.152   4.345   3.918 -2.6517 -0.7637  1.0333
   34DG      C1  760   1.666   1.126   3.610  0.4644 -0.5268  0.5043
   34DG      C2  761   1.359   0.969   3.071 -0.1601  0.4529  0.7121
   34DG      H3  762   1.654   1.108   3.719  0.7562 -0.3530  0.3143
   34DG      H4  763   1.632   1.227   3.580  1.8815 -1.3688 -0.5791
   34DG      H5  764   1.777   1.134   3.604  0.1743  1.4070 -0.5124
   34DG      H6  765   1.334   0.893   2.997  0.9793  1.1627  0.5187
   34DG      H7  766   1.263   1.012   3.091 -0.3247 -1.0818 -0.3039
   34DG      H8  767   1.422   1.052   3.032  1.1282  2.8942  2.9030
   34DG      O9  768   1.603   1.023   3.546  0.4959  0.6142  0.8035
   34DG     O10  769   1.417   0.899   3.175 -0.4073 -0.3836 -1.3577
   34DG     C11  770   1.634   0.894   3.592  0.7499 -0.3671 -0.1943
   34DG     C12  771   1.538   0.830   3.136  0.1477 -0.2865  0.2459
   34DG     H13  772   1.600   0.867   3.697 -0.2025 -1.4637 -1.2060
   34DG     H14  773   1.740   0.887   3.600  2.1777 -0.4342 -3.4548
   34DG     H15  774   1.619   0.905   3.114  0.3781  4.0385  1.1153
   34DG     H16  775   1.523   0.763   3.048 -2.9868  1.4563 -4.5742
   34DG     C17  776   1.589   0.784   3.497 -0.2738  0.4866  0.3987
   34DG     C18  777   1.577   0.750   3.264 -0.5019 -0.0181  0.4865
   34DG     O19  778   1.591   0.842   3.369  0.4477 -0.1613 -0.1489
   34DG     H20  779   1.486   0.753   3.522 -1.2654 -4.1434 -1.0447
   34DG     H21  780   1.645   0.688   3.519 -2.0982 -1.2123 -2.0949
   34DG     H22  781   1.502   0.673   3.277  0.8020  0.4056  0.6664
   34DG     H23  782   1.664   0.693   3.243 -1.6489  1.1883 -2.8357
   35DG      C1  783   2.474   2.532   4.943 -0.1404 -0.7313 -0.2054
   35DG      C2  784   2.463   2.978   5.551 -0.2623  0.4286  0.0513
   35DG      H3  785   2.496   2.568   4.844  3.2746  0.1171 -0.1673
   35DG      H4  786   2.426   2.442   4.922  1.8292 -0.9813 -0.3720
   35DG      H5  787   2.567   2.508   4.989  2.4566 -3.0514 -0.3449
   35DG      H6  788   2.536   3.046   5.510 -1.4251  2.9643  1.0733
   35DG      H7  789   2.402   3.031   5.618 -1.5436 -1.6361 -0.4485
   35DG      H8  790   2.513   2.892   5.601  3.3515  1.4224 -3.0151
   35DG      O9  791   2.399   2.626   5.022  0.4763 -0.1791 -0.2466
   35DG     O10  792   2.381   2.928   5.443 -0.1589 -0.1342  0.1296
   35DG     C11  793   2.297   2.567   5.095  0.2066  0.4593  0.0144
   35DG     C12  794   2.302   2.821   5.488  0.0110  0.1320  0.6534
   35DG     H13  795   2.334   2.497   5.174  0.6316 -0.2383 -0.0340
   35DG     H14  796   2.225   2.522   5.031 -1.2834  0.6714  0.4439
   35DG     H15  797   2.241   2.863   5.571  0.6165 -0.0524  1.7664
   35DG     H16  798   2.344   2.725   5.512 -0.9599  0.1964  1.0278
   35DG     C17  799   2.209   2.670   5.172  0.3047 -0.4486 -0.0835
   35DG     C18  800   2.209   2.790   5.373  0.0457  0.2389 -0.1809
   35DG     O19  801   2.288   2.731   5.273  0.3861  0.5637  0.4959
   35DG     H20  802   2.127   2.612   5.214 -1.6948  1.1553  2.9045
   35DG     H21  803   2.176   2.750   5.102  0.2948  0.0782 -1.2685
   35DG     H22  804   2.136   2.724   5.416  0.0369 -2.6481 -0.3088
   35DG     H23  805   2.158   2.880   5.341 -0.3442 -1.2170 -1.1611
   36DG      C1  806   2.218   5.174   1.453 -0.5115  0.4275 -0.2652
   36DG      C2  807   1.898   4.868   0.942  0.2703 -0.4084 -0.7919
   36DG      H3  808   2.297   5.137   1.390 -0.1335 -0.4768 -0.8408
   36DG      H4  809   2.216   5.112   1.548  1.3034 -0.3866  1.2753
   36DG      H5  810   2.247   5.276   1.495 -1.9979 -1.4985 -0.1417
   36DG      H6  811   1.990   4.816   0.923  0.2163 -0.6357  1.8930
   36DG      H7  812   1.817   4.816   0.890 -1.4893 -0.9357  0.4993
   36DG      H8  813   1.904   4.974   0.905 -0.3623  1.1240  0.9065
   36DG      O9  814   2.109   5.166   1.364  0.3341 -0.0681  0.0308
   36DG     O10  815   1.883   4.874   1.081  0.8349 -0.0316 -0.1649
   36DG     C11  816   1.988   5.194   1.435  0.6075  0.1022  0.0819
   36DG     C12  817   1.747   4.915   1.118  0.8145  0.0110 -0.0366
   36DG     H13  818   2.002   5.293   1.485  0.8487 -1.7558  3.4310
   36DG     H14  819   1.979   5.125   1.512  0.1801  0.3511  2.2446
   36DG     H15  820   1.720   4.852   1.196 -1.5808 -0.8483  0.1545
   36DG     H16  821   1.668   4.900   1.043  0.1887 -1.0899 -2.8117
   36DG     C17  822   1.868   5.202   1.335  0.8249 -0.6374 -0.2176
   36DG     C18  823   1.747   5.059   1.169  0.5725 -0.4461 -0.5513
   36DG     O19  824   1.858   5.077   1.269 -0.4858  0.1047  0.0382
   36DG     H20  825   1.881   5.284   1.266 -2.9432  0.7149  1.1733
   36DG     H21  826   1.768   5.215   1.394 -1.2210 -0.6938  0.9898
   36DG     H22  827   1.752   5.127   1.086  0.0363  0.1614  0.4736
   36DG     H23  828   1.654   5.084   1.213  1.7268 -1.0755 -0.2667
   37DG      C1  829   5.455   2.646   3.280  0.5542  0.2407  0.5839
   37DG      C2  830   5.560   3.189   3.566 -0.2799  0.9256 -0.6007
   37DG      H3  831   5.437   2.596   3.371 -0.0585  0.3331  0.0550
   37DG      H4  832   5.566   2.658   3.277  0.4488  1.2142 -0.4690
   37DG      H5  833   5.429   2.583   3.198 -0.1015  1.7085 -0.9917
   37DG      H6  834   5.592   3.291   3.584 -0.6940 -0.9836 -0.8918
   37DG      H7  835   5.498   3.140   3.645 -1.2000 -0.7601 -0.0087
   37DG      H8  836   5.653   3.135   3.561 -1.3446  1.3021 -0.7791
   37DG      O9  837   5.412   2.782   3.275  0.0047 -0.2087  0.4062
   37DG     O10  838   5.500   3.183   3.431  0.1988  0.0104 -0.1905
   37DG     C11  839   5.282   2.796   3.234 -0.4891  0.2211  0.1699
   37DG     C12  840   5.366   3.234   3.420  0.1892 -0.2011  0.9118
   37DG     H13  841   5.223   2.767   3.326  1.5786  0.5278  1.3893
   37DG     H14  842   5.251   2.730   3.146 -3.1303  1.1299 -2.6783
   37DG     H15  843   5.363   3.339   3.403 -1.4543 -2.9363 -0.1081
   37DG     H16  844   5.307   3.204   3.509 -1.7869  0.3335 -0.8365
   37DG     C17  845   5.254   2.946   3.210  0.1118  0.2426  0.4875
   37DG     C18  846   5.302   3.171   3.299 -0.0313  0.2002  0.0195
   37DG     O19  847   5.321   3.029   3.309 -0.3518 -0.6332 -0.4968
   37DG     H20  848   5.151   2.971   3.202  2.5520  3.1306  0.8543
   37DG     H21  849   5.295   2.966   3.109  0.8083 -2.0702 -0.7957
   37DG     H22  850   5.198   3.197   3.297  1.9570  0.9896  0.3893
   37DG     H23  851   5.342   3.215   3.208  0.1004  2.1475 -0.2311
   38DG      C1  852   1.404   4.109   1.846 -0.8503  1.0264  0.3449
   38DG      C2  853   0.990   4.476   1.219  0.2554  0.5397 -0.4298
   38DG      H3  854   1.447   4.193   1.901  0.9843 -0.8799  0.0227
   38DG      H4  855   1.477   4.065   1.778  1.2857 -0.1429  1.2241
   38DG      H5  856   1.383   4.048   1.928  2.5467  1.5926 -0.3507
   38DG      H6  857   0.998   4.580   1.253 -0.0802  0.4660  4.2993
   38DG      H7  858   1.080   4.450   1.168 -0.4254  2.2537 -0.9713
   38DG      H8  859   0.905   4.477   1.149 -0.1867  2.1285  0.0533
   38DG      O9  860   1.291   4.147   1.771 -0.2705  0.3187  0.5666
   38DG     O10  861   0.963   4.389   1.330  0.1939 -0.1685  0.0645
   38DG     C11  862   1.183   4.184   1.850 -0.0741  0.7393  0.0441
   38DG     C12  863   1.058   4.395   1.437  0.6984  0.8460 -0.2043
   38DG     H13  864   1.216   4.272   1.901 -1.2675 -1.2329  0.5728
   38DG     H14  865   1.169   4.105   1.924 -0.6720  2.4513 -2.3884
   38DG     H15  866   1.080   4.503   1.462  0.4847  0.7340  2.4165
   38DG     H16  867   1.149   4.348   1.409  0.2725  0.5875 -0.6637
   38DG     C17  868   1.061   4.199   1.753  0.6567  0.7431 -0.3186
   38DG     C18  869   1.003   4.316   1.555  0.5066  1.0556 -0.3600
   38DG     O19  870   1.103   4.297   1.655  0.1814  0.0541 -0.2353
   38DG     H20  871   0.983   4.235   1.817  2.6849 -0.8644 -1.4496
   38DG     H21  872   1.029   4.112   1.700 -0.3224  2.4252 -0.7809
   38DG     H22  873   0.919   4.368   1.599 -0.2051  0.1573  2.2322
   38DG     H23  874   0.983   4.213   1.519  0.6016 -0.5072 -0.6072
   39DG      C1  875   2.116   3.254   2.481 -0.3975 -0.0450  0.1612
   39DG      C2  876   2.352   3.776   2.778  0.3423 -0.3603  0.4986
   39DG      H3  877   2.099   3.221   2.579 -0.1817  1.5770 -1.7236
   39DG      H4  878   2.143   3.166   2.427  0.0934  2.3526 -1.8452
   39DG      H5  879   2.024   3.292   2.447  1.3263 -3.5078 -0.3844
   39DG      H6  880   2.396   3.686   2.816  1.1770 -0.1137  1.2260
   39DG      H7  881   2.444   3.835   2.783  1.1343  1.2844 -1.7249
   39DG      H8  882   2.270   3.803   2.849 -0.6993  0.2606  1.6156
   39DG      O9  883   2.227   3.340   2.473 -0.3030 -0.2881 -0.0283
   39DG     O10  884   2.302   3.749   2.642 -0.0845 -0.4175  0.2114
   39DG     C11  885   2.345   3.297   2.538  0.4916 -0.1334 -0.2397
   39DG     C12  886   2.400   3.758   2.539 -0.5013  0.0849 -0.7928
   39DG     H13  887   2.378   3.202   2.501 -0.3698  0.9577  0.3355
   39DG     H14  888   2.342   3.277   2.650  1.4900 -0.5241 -0.0093
   39DG     H15  889   2.454   3.852   2.550  0.6420  1.4124 -0.7462
   39DG     H16  890   2.346   3.768   2.444  0.9169  1.6407 -0.3918
   39DG     C17  891   2.456   3.401   2.512 -0.0237  0.5774  0.5931
   39DG     C18  892   2.490   3.635   2.534  0.1466  0.4636 -0.3039
   39DG     O19  893   2.405   3.524   2.559 -0.0518  0.3622  0.4440
   39DG     H20  894   2.471   3.412   2.407 -1.5996 -3.0461 -0.0349
   39DG     H21  895   2.553   3.380   2.555 -2.1504 -3.1433  0.9716
   39DG     H22  896   2.556   3.630   2.446 -0.8872 -0.8807  0.5998
   39DG     H23  897   2.564   3.639   2.618  2.1219 -0.4094 -1.9605
   40DG      C1  898   4.898   0.392   4.539  0.0937  0.4043  0.4562
   40DG      C2  899   4.811   0.524   5.182  0.7278 -0.1724 -0.1444
   40DG      H3  900   4.933   0.332   4.457  1.0180 -0.2889 -0.8083
   40DG      H4  901   4.977   0.470   4.546  2.0515  1.7849  3.1786
   40DG      H5  902   4.803   0.439   4.518 -0.6337 -0.6914 -0.4167
   40DG      H6  903   4.865   0.461   5.253 -2.2486 -3.1576 -0.8408
   40DG      H7  904   4.887   0.595   5.149 -1.2824 -1.6914 -0.8881
   40DG      H8  905   4.728   0.581   5.226  0.4425  2.0224 -2.2087
   40DG      O9  906   4.911   0.327   4.668 -0.4228 -0.1127  0.4994
   40DG     O10  907   4.758   0.470   5.069  0.5014 -0.0726  0.8395
   40DG     C11  908   4.818   0.215   4.679 -0.6783  0.0265 -0.0065
   40DG     C12  909   4.637   0.403   5.086  0.1221  0.0071 -0.1161
   40DG     H13  910   4.885   0.139   4.722 -0.9090 -0.7778  2.1463
   40DG     H14  911   4.795   0.160   4.581  2.4071  1.6435 -3.1631
   40DG     H15  912   4.566   0.471   5.123  0.1845  2.1849 -4.4911
   40DG     H16  913   4.647   0.305   5.134 -0.6498  1.5122  1.7669
   40DG     C17  914   4.686   0.249   4.747  0.0151 -0.4407 -0.1567
   40DG     C18  915   4.583   0.365   4.944 -0.5043 -0.0245 -0.1785
   40DG     O19  916   4.698   0.313   4.875  0.6283  0.0600  0.1426
   40DG     H20  917   4.633   0.161   4.754 -3.4734  0.8955 -1.0665
   40DG     H21  918   4.636   0.309   4.670  1.5030  0.8439  0.6431
   40DG     H22  919   4.511   0.285   4.944 -1.2335  0.1425 -0.9053
   40DG     H23  920   4.552   0.457   4.894 -0.0936 -0.0658 -0.4685
   41DG      C1  921   2.359   4.079   3.711 -0.0139 -0.3352 -0.6105
   41DG      C2  922   2.566   4.168   4.293  0.3558 -0.0627 -0.0232
   41DG      H3  923   2.394   4.154   3.641  0.6717 -0.8639 -0.1556
   41DG      H4  924   2.306   4.138   3.787  0.3625 -1.2820  1.1467
   41DG      H5  925   2.300   4.002   3.660  2.6788 -1.7651  0.1716
   41DG      H6  926   2.496   4.244   4.263  1.7704 -1.5815 -1.1237
   41DG      H7  927   2.518   4.091   4.352 -1.0965 -1.8173 -2.6608
   41DG      H8  928   2.642   4.217   4.354 -1.1016  1.8298  0.1923
   41DG      O9  929   2.456   4.015   3.792  0.1256  0.2037 -0.8136
   41DG     O10  930   2.612   4.113   4.181 -0.1961 -0.1685  1.0338
   41DG     C11  931   2.560   3.944   3.735 -0.3049  0.4804  0.8021
   41DG     C12  932   2.723   4.028   4.190 -0.4348  0.1057 -0.1543
   41DG     H13  933   2.572   3.972   3.627  0.4389 -1.6639 -0.2568
   41DG     H14  934   2.540   3.838   3.733 -0.0942 -0.6124  0.8045
   41DG     H15  935   2.683   3.936   4.220 -2.3719  1.6014 -2.8715
   41DG     H16  936   2.807   4.068   4.259 -1.7723  3.3179  1.7616
   41DG     C17  937   2.684   3.972   3.822  0.0164  0.0880  0.3510
   41DG     C18  938   2.768   3.990   4.047  0.3401  0.3420 -0.2067
   41DG     O19  939   2.660   3.944   3.960 -0.1731 -0.0766 -0.8204
   41DG     H20  940   2.717   4.072   3.806  1.9134 -0.3937 -1.4896
   41DG     H21  941   2.762   3.906   3.789 -0.5386  2.2029 -0.6995
   41DG     H22  942   2.810   4.083   4.010 -4.5702 -1.1500  1.0020
   41DG     H23  943   2.846   3.915   4.050  1.3551 -0.5467  0.2035
   42DG      C1  944   4.162   0.933   3.803  0.4326 -0.4448 -0.1636
   42DG      C2  945   4.576   1.445   3.538  0.3278  0.3937  0.4545
   42DG      H3  946   4.215   0.903   3.898 -0.9781 -0.9159 -0.4344
   42DG      H4  947   4.206   0.880   3.717  1.0978 -1.1231  0.8609
   42DG      H5  948   4.053   0.900   3.813 -0.2003  0.0726  1.6077
   42DG      H6  949   4.627   1.352   3.515  0.9424  0.5715  1.0076
   42DG      H7  950   4.577   1.512   3.448 -0.9551 -1.6558  1.0973
   42DG      H8  951   4.640   1.496   3.606  1.8525 -2.2083  0.5747
   42DG      O9  952   4.171   1.072   3.776  0.0334 -0.8226 -0.0231
   42DG     O10  953   4.446   1.414   3.591  0.7640  0.0930  0.1677
   42DG     C11  954   4.150   1.156   3.892  0.4845 -0.1538 -0.7871
   42DG     C12  955   4.402   1.510   3.683 -0.2797  0.6042  0.0172
   42DG     H13  956   4.231   1.150   3.962 -1.7407 -1.6118 -1.1551
   42DG     H14  957   4.062   1.138   3.954  1.7478  0.1662  2.5312
   42DG     H15  958   4.406   1.608   3.640  0.4822 -1.4137  1.4356
   42DG     H16  959   4.464   1.506   3.768 -0.3349 -2.2166  1.4999
   42DG     C17  960   4.140   1.295   3.837  0.0348 -0.4302  0.1622
   42DG     C18  961   4.259   1.472   3.721  0.5565 -0.4424 -0.1381
   42DG     O19  962   4.250   1.334   3.753  0.3496 -0.2540  0.2968
   42DG     H20  963   4.130   1.362   3.923 -2.7857  1.1485  0.1962
   42DG     H21  964   4.044   1.303   3.782  1.4613 -0.7622 -2.4143
   42DG     H22  965   4.227   1.533   3.811 -1.7664  0.5019  2.5799
   42DG     H23  966   4.195   1.497   3.640  1.3208  0.8676 -0.3133
   43DG      C1  967   5.346   5.451   1.150  0.0117 -0.4981 -0.6279
   43DG      C2  968   5.948   5.229   1.149 -0.0751 -0.4291 -0.6039
   43DG      H3  969   5.266   5.514   1.185 -2.7497 -0.9441 -2.1229
   43DG      H4  970   5.299   5.373   1.087  0.3237  0.8311 -1.1786
   43DG      H5  971   5.401   5.507   1.077  1.1300  1.9890  0.6224
   43DG      H6  972   5.931   5.132   1.097  1.7055 -1.0584 -0.7533
   43DG      H7  973   5.934   5.305   1.073 -3.5433  0.3693  2.6845
   43DG      H8  974   6.048   5.245   1.192 -0.6934  0.4112 -0.0406
   43DG      O9  975   5.438   5.407   1.245  0.1724 -1.0174 -0.3213
   43DG     O10  976   5.854   5.256   1.253 -0.5668  0.4842 -0.1231
   43DG     C11  977   5.384   5.333   1.353 -0.0092  0.3784  0.1795
   43DG     C12  978   5.830   5.152   1.356  0.9636 -0.1763 -0.3937
   43DG     H13  979   5.325   5.247   1.321  2.7296 -0.6892 -1.7916
   43DG     H14  980   5.324   5.400   1.422 -1.6458  1.8797  0.5318
   43DG     H15  981   5.917   5.136   1.408 -1.9718  0.5591  1.3622
   43DG     H16  982   5.791   5.063   1.304 -2.4218 -1.9571  2.1214
   43DG     C17  983   5.501   5.302   1.435 -0.0786  1.1350 -0.2235
   43DG     C18  984   5.718   5.206   1.441  0.3688  0.0537  0.1071
   43DG     O19  985   5.608   5.237   1.354 -0.2792  0.2898  0.3954
   43DG     H20  986   5.473   5.243   1.524 -2.1190 -2.7074  1.7703
   43DG     H21  987   5.537   5.397   1.473 -3.2453 -0.4062  1.4862
   43DG     H22  988   5.689   5.133   1.517  1.1608  0.8706 -1.5925
   43DG     H23  989   5.739   5.304   1.476  1.2942 -1.8155 -1.2580
   44DG      C1  990   3.143   3.390   4.652 -0.3514 -0.0561  0.7120
   44DG      C2  991   2.569   3.531   4.970 -0.5216 -0.5321 -0.0202
   44DG      H3  992   3.186   3.467   4.712 -2.4669 -1.8035 -1.0265
   44DG      H4  993   3.096   3.437   4.565 -0.2551  0.7697 -0.2229
   44DG      H5  994   3.222   3.324   4.616  0.6285  0.3086  1.1877
   44DG      H6  995   2.499   3.487   5.047  0.7122 -0.1305 -0.2624
   44DG      H7  996   2.627   3.606   5.018 -0.3436 -0.6689 -1.5374
   44DG      H8  997   2.510   3.586   4.891  1.5879 -0.0519  1.6956
   44DG      O9  998   3.053   3.321   4.735 -0.1173  0.1834  0.3138
   44DG     O10  999   2.645   3.433   4.912 -0.2690  0.0967 -0.8720
   44DG     C11 1000   2.986   3.212   4.681  0.2422  0.4637 -0.7368
   44DG     C12 1001   2.575   3.344   4.824  0.1745 -0.0512 -0.0540
   44DG     H13 1002   3.060   3.138   4.666  0.5927  1.6265 -0.3848
   44DG     H14 1003   2.945   3.239   4.586 -2.8989  0.5498 -1.4351
   44DG     H15 1004   2.532   3.386   4.721  0.8272  0.5709 -3.3618
   44DG     H16 1005   2.481   3.310   4.870 -1.6314  1.0079  1.4961
   44DG     C17 1006   2.874   3.159   4.769 -1.0335 -0.5108  0.1007
   44DG     C18 1007   2.660   3.217   4.802  0.7056  0.0551 -0.2882
   44DG     O19 1008   2.785   3.269   4.762 -0.5572  0.4785 -0.6403
   44DG     H20 1009   2.914   3.137   4.869  2.7464 -0.7286  0.2498
   44DG     H21 1010   2.830   3.064   4.735 -1.7126  1.6625  0.1220
   44DG     H22 1011   2.648   3.158   4.894 -1.3884 -0.4521  1.7631
   44DG     H23 1012   2.614   3.156   4.724 -2.4168  0.4712  1.6982
   45DG      C1 1013   1.002   3.232   3.330  0.7912 -0.2112 -0.3551
   45DG      C2 1014   1.578   3.249   3.050 -0.2407 -0.2901 -0.0243
   45DG      H3 1015   1.053   3.136   3.338  1.2112  1.5271 -0.8060
   45DG      H4 1016   0.950   3.218   3.235  1.9401 -1.9419 -3.0912
   45DG      H5 1017   0.937   3.240   3.416 -1.5772 -1.1545  1.7698
   45DG      H6 1018   1.527   3.216   2.966 -1.9546  0.7868  2.0782
   45DG      H7 1019   1.672   3.290   3.009  1.0200 -0.9728 -1.7818
   45DG      H8 1020   1.616   3.170   3.125  2.7810 -1.1889  3.2682
   45DG      O9 1021   1.094   3.332   3.317  0.1860  0.0637 -0.2533
   45DG     O10 1022   1.494   3.351   3.113 -0.1968 -0.1546 -0.2857
   45DG     C11 1023   1.039   3.453   3.262 -0.0680 -1.1408 -0.2047
   45DG     C12 1024   1.453   3.458   3.030 -0.0793  0.1747 -0.3585
   45DG     H13 1025   0.988   3.512   3.337 -1.5895 -0.1764 -0.3899
   45DG     H14 1026   0.978   3.436   3.167  0.5526 -1.5714 -3.5125
   45DG     H15 1027   1.401   3.421   2.937  1.0252 -0.0129 -1.9287
   45DG     H16 1028   1.531   3.519   2.989 -0.5866 -1.4448 -1.4386
   45DG     C17 1029   1.156   3.543   3.212  0.2665 -0.4133  0.4386
   45DG     C18 1030   1.362   3.548   3.107 -1.1825 -0.1381  0.2018
   45DG     O19 1031   1.255   3.471   3.158  0.8609 -0.8938 -0.4408
   45DG     H20 1032   1.198   3.607   3.299 -1.4636 -1.6234  0.9828
   45DG     H21 1033   1.120   3.605   3.130 -0.7086 -0.3701 -1.0068
   45DG     H22 1034   1.416   3.599   3.190  0.6529 -1.4431 -0.0543
   45DG     H23 1035   1.329   3.633   3.047  1.3528 -0.5095 -0.3530
   46DG      C1 1036   0.987   4.353   3.564 -0.1585  0.0711 -0.9610
   46DG      C2 1037   0.670   4.112   4.180  0.0781  0.5037 -0.0556
   46DG      H3 1038   0.921   4.423   3.511 -0.6232 -2.0559  0.3357
   46DG      H4 1039   1.036   4.285   3.484  3.1069  0.9539  0.3064
   46DG      H5 1040   1.074   4.393   3.621  0.0309 -0.3278  0.3614
   46DG      H6 1041   0.657   4.018   4.232  2.8452 -2.9076  1.2402
   46DG      H7 1042   0.730   4.180   4.246  0.8592  1.8697  3.3948
   46DG      H8 1043   0.573   4.160   4.177 -2.5572 -1.6859 -1.7391
   46DG      O9 1044   0.918   4.263   3.650  0.1549  0.5132  0.6974
   46DG     O10 1045   0.721   4.080   4.051 -0.4920 -0.0624  0.3780
   46DG     C11 1046   0.819   4.187   3.570 -1.0070  0.8572 -0.1266
   46DG     C12 1047   0.623   4.013   3.974 -0.6274 -0.4279  0.0497
   46DG     H13 1048   0.867   4.156   3.476  0.5885 -1.2719  0.8943
   46DG     H14 1049   0.743   4.254   3.541 -3.7463  2.4721  0.4842
   46DG     H15 1050   0.548   4.085   3.956  1.5374  1.6992 -0.2954
   46DG     H16 1051   0.599   3.924   4.026 -0.1982  1.8618 -0.4087
   46DG     C17 1052   0.766   4.061   3.636  0.2196  0.6021 -0.0291
   46DG     C18 1053   0.695   3.971   3.846  0.1078 -0.0064 -0.7826
   46DG     O19 1054   0.730   4.095   3.773  0.0988  0.5544 -0.7781
   46DG     H20 1055   0.838   3.980   3.624 -1.3954 -0.2421  0.4119
   46DG     H21 1056   0.674   4.030   3.586 -0.8053 -1.7337  0.2591
   46DG     H22 1057   0.783   3.909   3.858  0.3023 -3.6999 -0.9059
   46DG     H23 1058   0.634   3.905   3.791  0.6408 -0.8617 -0.7709
   47DG      C1 1059   0.242   4.226   0.542 -0.0890 -0.2109 -0.1308
   47DG      C2 1060   0.651   4.625   0.863  0.0536 -0.1570 -0.3271
   47DG      H3 1061   0.274   4.125   0.512 -1.1021 -0.3041  0.0859
   47DG      H4 1062   0.161   4.263   0.469 -2.0301  1.1187  1.1541
   47DG      H5 1063   0.198   4.223   0.639  2.9623  3.3813  0.1089
   47DG      H6 1064   0.740   4.649   0.918 -0.7668  0.1068 -0.3094
   47DG      H7 1065   0.612   4.714   0.816 -0.6141 -2.1623  0.3298
   47DG      H8 1066   0.579   4.603   0.942  0.9096  0.2998  0.2414
   47DG      O9 1067   0.369   4.301   0.540 -0.4826  0.0968 -0.3562
   47DG     O10 1068   0.655   4.519   0.764 -0.0755 -0.5703 -0.3965
   47DG     C11 1069   0.445   4.292   0.424  0.0007 -0.1527  0.0852
   47DG     C12 1070   0.723   4.553   0.644  0.8461  0.2960 -0.0214
   47DG     H13 1071   0.377   4.320   0.347 -0.9358  0.9188  1.0448
   47DG     H14 1072   0.470   4.191   0.413 -1.7420  1.0161  0.4721
   47DG     H15 1073   0.816   4.613   0.666  1.0694 -1.9270 -2.5409
   47DG     H16 1074   0.660   4.612   0.584 -0.5223  0.9002  2.2244
   47DG     C17 1075   0.571   4.385   0.440 -0.4453  0.0203 -0.0516
   47DG     C18 1076   0.771   4.435   0.562  0.3720  0.0308 -0.7199
   47DG     O19 1077   0.664   4.345   0.540 -0.4781  0.3409  0.3869
   47DG     H20 1078   0.553   4.491   0.438 -0.8296 -0.8509  0.0647
   47DG     H21 1079   0.630   4.391   0.344  0.3600  1.0399  0.9196
   47DG     H22 1080   0.819   4.462   0.468 -0.9186 -0.0711 -0.6106
   47DG     H23 1081   0.839   4.380   0.631  0.3480  0.4143  1.2815
   48DG      C1 1082   0.581   1.104   2.609 -0.1702 -0.4153  0.0301
   48DG      C2 1083   0.120   0.607   3.101 -0.4195 -0.4291 -0.2653
   48DG      H3 1084   0.507   1.071   2.539  0.1469  2.7358 -2.8106
   48DG      H4 1085   0.666   1.155   2.561  1.0643  0.7885  1.8245
   48DG      H5 1086   0.531   1.179   2.663  2.2523 -3.2814  0.1899
   48DG      H6 1087   0.138   0.559   3.192 -1.0239  0.6225 -2.1575
   48DG      H7 1088   0.067   0.704   3.123 -0.1227  0.4352  0.5808
   48DG      H8 1089   0.055   0.545   3.042  0.5505  0.2878 -0.7724
   48DG      O9 1090   0.610   0.992   2.692  0.3664 -0.0292 -0.5095
   48DG     O10 1091   0.242   0.622   3.017  0.6558 -0.1368  0.0492
   48DG     C11 1092   0.513   0.959   2.781  0.6131 -0.0396 -0.5938
   48DG     C12 1093   0.346   0.678   3.097  0.5075  0.3983 -0.2500
   48DG     H13 1094   0.432   0.904   2.727  0.9275 -1.4879 -3.9513
   48DG     H14 1095   0.487   1.044   2.841 -0.0079 -1.4316 -0.5844
   48DG     H15 1096   0.361   0.618   3.187 -1.1759  2.4642  1.6715
   48DG     H16 1097   0.326   0.778   3.133  0.4061  0.5438 -2.6084
   48DG     C17 1098   0.573   0.848   2.870  0.7433 -0.1567  0.1210
   48DG     C18 1099   0.473   0.677   3.012  0.2322 -0.6473 -0.4035
   48DG     O19 1100   0.460   0.808   2.952  0.1144 -0.2287  0.0945
   48DG     H20 1101   0.648   0.886   2.942 -1.0820  1.6140 -1.2408
   48DG     H21 1102   0.611   0.772   2.816  1.5259  2.8774  1.4668
   48DG     H22 1103   0.567   0.676   3.062 -1.0106 -0.3834  1.5704
   48DG     H23 1104   0.468   0.589   2.947  1.0556 -0.7268  0.3812
   49DG      C1 1105   1.511   1.163   2.125 -0.2129 -0.0287  0.1986
   49DG      C2 1106   1.320   0.828   2.684 -0.0286  0.4802 -0.3550
   49DG      H3 1107   1.588   1.173   2.043  1.2344 -0.3735 -0.7647
   49DG      H4 1108   1.553   1.215   2.212 -0.1658 -0.0150  0.4704
   49DG      H5 1109   1.411   1.199   2.093 -0.4114  0.1242 -0.3695
   49DG      H6 1110   1.403   0.867   2.740 -3.0958 -0.2246 -3.3344
   49DG      H7 1111   1.248   0.900   2.697  5.0429 -0.1953  0.7998
   49DG      H8 1112   1.278   0.744   2.735  1.1282  0.1244  4.1980
   49DG      O9 1113   1.481   1.030   2.161  0.2727 -0.1480 -0.1665
   49DG     O10 1114   1.335   0.807   2.544 -0.3069  0.0412  0.3103
   49DG     C11 1115   1.585   0.932   2.142  0.0951  0.0311 -0.0561
   49DG     C12 1116   1.427   0.699   2.516  0.5769  0.1685  0.3751
   49DG     H13 1117   1.671   0.960   2.193  2.1267  0.4060 -1.3511
   49DG     H14 1118   1.609   0.935   2.035 -0.1604 -0.5798 -3.5508
   49DG     H15 1119   1.384   0.604   2.551 -1.5763  0.1577 -0.5731
   49DG     H16 1120   1.519   0.704   2.564 -0.7561  0.7809  0.2251
   49DG     C17 1121   1.546   0.792   2.187  0.4535 -0.0775 -0.0561
   49DG     C18 1122   1.452   0.674   2.369 -0.5812  0.3706 -0.3233
   49DG     O19 1123   1.507   0.789   2.323  0.3024 -0.1462  0.0487
   49DG     H20 1124   1.621   0.711   2.170  1.4515 -2.9238 -0.9989
   49DG     H21 1125   1.455   0.767   2.133 -1.5352  0.2343 -1.2011
   49DG     H22 1126   1.507   0.583   2.346 -3.4474 -0.4848 -0.5788
   49DG     H23 1127   1.357   0.655   2.312 -2.2652 -3.1177 -2.1808
   50DG      C1 1128   2.486   5.058   0.774 -0.1130 -0.5142  0.0696
   50DG      C2 1129   2.713   4.543   1.137  0.4762  0.3965 -0.4504
   50DG      H3 1130   2.474   5.131   0.689  1.4626  1.1849  2.1214
   50DG      H4 1131   2.532   5.126   0.849 -3.3659  1.8845  2.0684
   50DG      H5 1132   2.382   5.033   0.807 -1.3797  0.4213 -0.7137
   50DG      H6 1133   2.685   4.452   1.098 -0.2210 -0.5648  0.3508
   50DG      H7 1134   2.814   4.537   1.188  0.6651 -3.1191 -1.7686
   50DG      H8 1135   2.631   4.569   1.209  0.9731  2.0376  0.1561
   50DG      O9 1136   2.564   4.955   0.734 -0.1901  0.0724  0.0480
   50DG     O10 1137   2.715   4.629   1.032  1.0133 -0.0213 -0.5672
   50DG     C11 1138   2.699   4.992   0.702  0.8587 -0.3726 -0.2387
   50DG     C12 1139   2.787   4.748   1.061  0.4422 -0.1205 -0.4372
   50DG     H13 1140   2.728   5.074   0.764 -0.5323 -1.1172 -0.5549
   50DG     H14 1141   2.712   5.025   0.598 -0.5479  2.9076 -1.4440
   50DG     H15 1142   2.896   4.732   1.078 -0.9204  1.4648  0.0687
   50DG     H16 1143   2.761   4.774   1.161  1.0222  0.8129  1.8629
   50DG     C17 1144   2.794   4.872   0.724 -0.9147  0.2467  0.6010
   50DG     C18 1145   2.771   4.861   0.955 -0.6589  0.3229 -0.4385
   50DG     O19 1146   2.748   4.799   0.835  0.0482 -0.5790  0.3402
   50DG     H20 1147   2.892   4.911   0.749 -4.2192 -2.2171 -0.4740
   50DG     H21 1148   2.805   4.816   0.635  1.0352 -2.8853 -1.6827
   50DG     H22 1149   2.688   4.914   0.984 -1.3673 -1.8033 -1.1136
   50DG     H23 1150   2.850   4.943   0.955 -1.1508 -0.1447  1.0030
   51DG      C1 1151   3.006   5.346   3.403 -0.3705 -0.6751  0.3111
   51DG      C2 1152   2.586   4.792   3.513  0.2972  0.1578  1.0963
   51DG      H3 1153   2.951   5.419   3.469 -1.0984 -2.4726  1.1244
   51DG      H4 1154   2.979   5.349   3.292  1.1742  1.2974 -1.5087
   51DG      H5 1155   3.110   5.387   3.399  1.7091  1.5529 -1.1141
   51DG      H6 1156   2.523   4.799   3.426  0.2735 -1.2433  1.7167
   51DG      H7 1157   2.573   4.694   3.557  1.8740  0.4309 -2.2343
   51DG      H8 1158   2.550   4.867   3.573  1.1591  1.2279 -0.9216
   51DG      O9 1159   2.993   5.223   3.459  0.4045 -0.6721 -0.1546
   51DG     O10 1160   2.722   4.799   3.476  0.2436  0.2161 -0.2502
   51DG     C11 1161   3.082   5.127   3.405 -0.7712 -0.3989  0.6765
   51DG     C12 1162   2.801   4.785   3.589 -0.0592 -0.5675 -0.6223
   51DG     H13 1163   3.181   5.168   3.416  0.6263 -2.8418  1.0909
   51DG     H14 1164   3.069   5.116   3.301  1.2309  0.6773 -1.5023
   51DG     H15 1165   2.800   4.682   3.626 -0.4741 -0.6824 -0.7685
   51DG     H16 1166   2.756   4.852   3.667  0.4461  1.9040  0.4600
   51DG     C17 1167   3.082   5.002   3.489  0.4989 -0.0097 -0.3421
   51DG     C18 1168   2.947   4.821   3.561 -0.0896  0.1529 -0.7523
   51DG     O19 1169   2.950   4.945   3.496 -0.4094 -0.2976 -0.2917
   51DG     H20 1170   3.119   5.022   3.590  2.0300 -1.6006  1.3407
   51DG     H21 1171   3.158   4.930   3.438  2.3083 -0.5905 -0.2729
   51DG     H22 1172   3.005   4.823   3.658 -0.2087 -1.6426  0.9045
   51DG     H23 1173   2.983   4.743   3.495  0.9396  0.9628  0.7817
   52DG      C1 1174   1.727   3.090   2.034 -0.3261 -0.2831  1.2895
   52DG      C2 1175   1.251   3.605   2.057 -0.4910  0.3753  0.6611
   52DG      H3 1176   1.836   3.073   2.007  2.5236 -0.6612  2.4253
   52DG      H4 1177   1.688   2.982   2.056 -1.8095 -0.7788 -0.3339
   52DG      H5 1178   1.723   3.151   2.121  0.5039  3.3438  1.0558
   52DG      H6 1179   1.311   3.634   2.145  2.2303  0.2203  1.7311
   52DG      H7 1180   1.202   3.690   2.019  1.6179 -0.6181  1.4008
   52DG      H8 1181   1.176   3.527   2.086 -0.8505  1.0535  0.6447
   52DG      O9 1182   1.657   3.159   1.923 -0.1771  0.5796 -0.1963
   52DG     O10 1183   1.336   3.542   1.960  0.0289 -0.0182 -0.4644
   52DG     C11 1184   1.733   3.264   1.880  0.0329 -0.5698  0.3871
   52DG     C12 1185   1.428   3.616   1.885  0.0754  0.3995  0.7361
   52DG     H13 1186   1.817   3.221   1.817 -0.5594  3.7410 -0.6688
   52DG     H14 1187   1.772   3.327   1.958  2.0291  2.7455  1.9666
   52DG     H15 1188   1.490   3.660   1.966 -0.3651 -0.2828  0.6734
   52DG     H16 1189   1.380   3.699   1.833  3.4199  0.9888 -1.7428
   52DG     C17 1190   1.656   3.345   1.778  0.8352  0.1084  0.9416
   52DG     C18 1191   1.494   3.515   1.783 -0.2304 -0.3547 -0.2617
   52DG     O19 1192   1.558   3.413   1.854  0.2331 -0.4772 -0.3393
   52DG     H20 1193   1.602   3.280   1.709 -1.9838 -2.2391  0.3918
   52DG     H21 1194   1.716   3.419   1.725 -1.7339 -0.7348 -0.7040
   52DG     H22 1195   1.414   3.472   1.727  1.8806  0.4658  2.9943
   52DG     H23 1196   1.567   3.559   1.715 -0.4607  1.1749 -1.6429
   53DG      C1 1197   3.183   2.072   1.164 -0.1034 -0.2818 -0.3748
   53DG      C2 1198   3.548   2.602   0.929 -0.3551 -0.0670  0.0446
   53DG      H3 1199   3.148   1.969   1.140  0.4717  0.8079  0.0345
   53DG      H4 1200   3.090   2.124   1.193 -2.0497  3.1700 -0.9235
   53DG      H5 1201   3.266   2.075   1.245 -0.2467 -2.0307  0.8483
   53DG      H6 1202   3.589   2.637   0.839 -0.6961  2.3162  0.3947
   53DG      H7 1203   3.522   2.686   0.994 -0.4984 -2.4671 -1.4386
   53DG      H8 1204   3.629   2.542   0.976  2.0995  2.2047  0.1148
   53DG      O9 1205   3.232   2.129   1.039 -0.2779 -0.6493  0.6913
   53DG     O10 1206   3.443   2.514   0.902  0.5444 -0.4230  0.3357
   53DG     C11 1207   3.127   2.156   0.944 -0.4499 -0.0642 -1.1259
   53DG     C12 1208   3.339   2.571   0.830  0.8469 -0.0708 -0.5786
   53DG     H13 1209   3.039   2.201   0.987 -2.4980  0.1738 -0.3313
   53DG     H14 1210   3.100   2.059   0.900 -0.5096  0.6570 -1.2476
   53DG     H15 1211   3.384   2.635   0.752 -2.9959 -0.8667 -4.0826
   53DG     H16 1212   3.277   2.636   0.897  0.8183 -0.8578 -2.2236
   53DG     C17 1213   3.167   2.237   0.823 -0.4361  0.2269  0.1359
   53DG     C18 1214   3.258   2.459   0.771 -0.6153 -0.6865  0.8375
   53DG     O19 1215   3.216   2.365   0.869 -0.2783 -0.5785 -0.0297
   53DG     H20 1216   3.091   2.251   0.753 -4.3904 -2.4640  0.5950
   53DG     H21 1217   3.246   2.182   0.768  1.7898  0.3826  2.7377
   53DG     H22 1218   3.175   2.497   0.706 -0.1753  3.1291 -0.3114
   53DG     H23 1219   3.320   2.411   0.690  1.8578 -0.0412 -1.7177
   54DG      C1 1220   3.972   2.889   2.268  0.2303  0.8269 -0.1653
   54DG      C2 1221   3.360   3.511   2.343  0.0142  0.9719 -0.0350
   54DG      H3 1222   3.979   2.951   2.181  0.6516 -1.3362 -0.8471
   54DG      H4 1223   3.984   2.785   2.237  0.2967  0.0931  0.6743
   54DG      H5 1224   4.033   2.918   2.349  1.5364  0.4505  2.7498
   54DG      H6 1225   3.255   3.488   2.313 -1.0468  2.5049 -0.4231
   54DG      H7 1226   3.364   3.565   2.439  1.2931  0.3504  0.5439
   54DG      H8 1227   3.392   3.575   2.261 -1.5089 -0.1604  0.6965
   54DG      O9 1228   3.838   2.888   2.326  0.3463 -0.2942  0.5025
   54DG     O10 1229   3.435   3.398   2.350 -0.4605  0.5243  0.5027
   54DG     C11 1230   3.804   3.021   2.366 -0.4530  0.1078 -0.3048
   54DG     C12 1231   3.393   3.294   2.439 -0.0404 -1.1571 -0.5848
   54DG     H13 1232   3.827   3.102   2.293 -0.6921  2.5142  0.4169
   54DG     H14 1233   3.849   3.056   2.454  0.2146 -0.3657 -0.5199
   54DG     H15 1234   3.279   3.276   2.440 -3.7923 -0.1809 -3.0895
   54DG     H16 1235   3.427   3.310   2.544 -0.3980 -2.5412  1.2895
   54DG     C17 1236   3.650   3.034   2.385 -0.6060  0.2478 -0.3853
   54DG     C18 1237   3.466   3.166   2.387  0.5835  0.2179 -0.6590
   54DG     O19 1238   3.605   3.162   2.412 -0.0854 -0.9565 -0.1429
   54DG     H20 1239   3.610   2.957   2.458 -0.9375  0.3368 -4.0751
   54DG     H21 1240   3.596   2.996   2.294 -1.1160  1.1378 -0.7407
   54DG     H22 1241   3.418   3.072   2.430  1.1018 -0.3314 -3.2768
   54DG     H23 1242   3.442   3.156   2.287 -2.5547 -0.2524  1.0967
   55DG      C1 1243   1.182   0.377   3.383  0.6552 -0.3786  0.5017
   55DG      C2 1244   1.128  -0.267   3.158 -0.1759  0.0954 -0.5438
   55DG      H3 1245   1.194   0.430   3.477 -0.9753  0.3229  3.8745
   55DG      H4 1246   1.075   0.386   3.355 -3.1759  2.8802 -0.9047
   55DG      H5 1247   1.235   0.437   3.311 -0.2619 -0.5847 -2.0625
   55DG      H6 1248   1.205  -0.300   3.092  0.1710  1.1360  0.3321
   55DG      H7 1249   1.080  -0.356   3.199 -1.8442  0.3824 -0.9805
   55DG      H8 1250   1.056  -0.226   3.087 -4.1457 -0.5773 -3.1130
   55DG      O9 1251   1.235   0.245   3.383  0.4861 -0.1815 -0.1418
   55DG     O10 1252   1.180  -0.175   3.248 -0.2105  0.0903 -0.4255
   55DG     C11 1253   1.338   0.226   3.473 -0.7177  0.6312 -0.1894
   55DG     C12 1254   1.250  -0.236   3.358 -0.0465 -0.0488 -0.4880
   55DG     H13 1255   1.294   0.231   3.569  1.3582  0.1486  0.5185
   55DG     H14 1256   1.417   0.298   3.454  0.2865  0.4904 -0.0432
   55DG     H15 1257   1.290  -0.337   3.330 -0.0276 -0.5057 -1.4565
   55DG     H16 1258   1.181  -0.251   3.439  2.3580  1.6577  1.8184
   55DG     C17 1259   1.393   0.087   3.450  0.5329 -0.5987  0.5712
   55DG     C18 1260   1.359  -0.140   3.398 -0.0580 -0.1749 -0.2659
   55DG     O19 1261   1.311  -0.007   3.388 -0.0455  0.2317  0.0057
   55DG     H20 1262   1.406   0.062   3.554 -1.8861  2.6911  0.7657
   55DG     H21 1263   1.489   0.106   3.397 -0.2365  2.3050  1.4222
   55DG     H22 1264   1.400  -0.164   3.501 -0.7004  4.2885 -1.0656
   55DG     H23 1265   1.435  -0.161   3.323 -1.3562 -0.5706 -0.7603
   56DG      C1 1266   1.034   0.558   1.054 -0.2793 -0.2436  0.5802
   56DG      C2 1267   0.569   0.952   1.405  0.2369  0.7024  0.5530
   56DG      H3 1268   1.096   0.613   1.123  0.3808 -0.2818  2.7294
   56DG      H4 1269   1.022   0.607   0.960  0.7610  1.6253  2.9015
   56DG      H5 1270   1.091   0.471   1.029  0.1603 -0.1925  0.4321
   56DG      H6 1271   0.473   0.964   1.452  1.3931  2.1753  1.1546
   56DG      H7 1272   0.652   0.990   1.469  0.7171 -0.4085  1.0528
   56DG      H8 1273   0.559   1.009   1.308  0.7223  2.2323  1.3038
   56DG      O9 1274   0.910   0.534   1.125  0.3988 -0.4796 -0.2279
   56DG     O10 1275   0.590   0.810   1.387  0.3141  0.3404  0.1226
   56DG     C11 1276   0.803   0.489   1.045 -0.4430  0.4945 -0.9854
   56DG     C12 1277   0.503   0.755   1.293  0.1451  0.5881  0.1036
   56DG     H13 1278   0.831   0.395   0.994  0.0893  1.1791 -1.3954
   56DG     H14 1279   0.794   0.554   0.960 -1.6112 -2.2494  1.8408
   56DG     H15 1280   0.507   0.810   1.201  0.7961 -0.6241  1.0995
   56DG     H16 1281   0.402   0.763   1.328  1.5045  0.8388  0.1418
   56DG     C17 1282   0.673   0.468   1.128  0.2824  0.1249 -0.1187
   56DG     C18 1283   0.523   0.609   1.252  1.4670 -0.5023 -0.3618
   56DG     O19 1284   0.642   0.597   1.176  0.2859  0.0833 -0.7166
   56DG     H20 1285   0.690   0.394   1.207  2.4883 -1.3490 -0.7295
   56DG     H21 1286   0.587   0.432   1.068  0.3178  0.2157 -1.3309
   56DG     H22 1287   0.539   0.553   1.348 -0.2969 -1.4448 -0.5281
   56DG     H23 1288   0.444   0.558   1.196 -0.8071  0.7394  1.4980
   57DG      C1 1289   3.560   2.148   2.901 -0.5631  0.6612 -0.5943
   57DG      C2 1290   3.715   2.767   3.269  0.3072 -0.6476 -0.0934
   57DG      H3 1291   3.600   2.151   2.802  1.5585  0.3524  1.0328
   57DG      H4 1292   3.468   2.094   2.906  0.6493  1.6819 -0.6565
   57DG      H5 1293   3.635   2.093   2.964 -1.1784  1.4006 -0.3153
   57DG      H6 1294   3.673   2.866   3.287 -0.0904  1.7294 -0.6477
   57DG      H7 1295   3.765   2.712   3.355 -1.6346 -1.5537  1.2903
   57DG      H8 1296   3.792   2.783   3.191 -1.5265  0.7949  1.0015
   57DG      O9 1297   3.546   2.286   2.951 -0.4408 -0.2511  0.2342
   57DG     O10 1298   3.621   2.683   3.200 -0.4254 -0.3061 -0.4328
   57DG     C11 1299   3.437   2.357   2.903  0.5670 -0.3150 -0.1886
   57DG     C12 1300   3.532   2.618   3.290 -0.5000 -0.2294 -0.3914
   57DG     H13 1301   3.368   2.296   2.848  0.1886  1.4261  1.7287
   57DG     H14 1302   3.481   2.430   2.836  0.5707 -3.1271  3.0052
   57DG     H15 1303   3.501   2.679   3.373 -1.6483  1.3971 -1.0757
   57DG     H16 1304   3.597   2.537   3.325  1.0692  0.5613 -0.6008
   57DG     C17 1305   3.368   2.417   3.024  0.0192 -0.0015 -0.1941
   57DG     C18 1306   3.420   2.552   3.213 -0.1486 -0.0903  0.2202
   57DG     O19 1307   3.463   2.508   3.084  0.0868  0.2141 -0.0169
   57DG     H20 1308   3.335   2.331   3.085 -1.1349  0.8934  1.2141
   57DG     H21 1309   3.280   2.483   2.997 -2.6966 -0.1311 -2.7842
   57DG     H22 1310   3.395   2.465   3.271  0.4890  1.6869 -1.3628
   57DG     H23 1311   3.333   2.607   3.199  1.9457  1.1110 -2.2014
   58DG      C1 1312   0.255   1.963   2.155 -0.0773 -0.3988 -0.1236
   58DG      C2 1313   0.196   1.875   2.789  0.6019  0.4117 -0.6028
   58DG      H3 1314   0.272   2.062   2.190  0.9426 -1.3073 -1.1235
   58DG      H4 1315   0.149   1.955   2.138 -1.2243 -0.6926 -0.6703
   58DG      H5 1316   0.295   1.960   2.055  1.2330 -1.9759 -1.7362
   58DG      H6 1317   0.160   1.796   2.858  0.1616  0.2097 -3.2291
   58DG      H7 1318   0.268   1.937   2.842  2.1771  0.7537  2.7242
   58DG      H8 1319   0.119   1.936   2.763  0.5140 -0.8671 -0.4604
   58DG      O9 1320   0.308   1.860   2.239 -0.8543  0.2189  0.2824
   58DG     O10 1321   0.265   1.819   2.673 -0.0089  0.1688 -0.3165
   58DG     C11 1322   0.450   1.866   2.247  0.0720  0.5792 -0.6903
   58DG     C12 1323   0.392   1.769   2.699 -0.6230  0.1812  0.1376
   58DG     H13 1324   0.478   1.973   2.268  1.7916  0.4097 -0.8564
   58DG     H14 1325   0.494   1.826   2.161 -0.8723  1.4067  0.1041
   58DG     H15 1326   0.390   1.693   2.773  2.8635 -0.4245  0.0109
   58DG     H16 1327   0.469   1.841   2.739 -3.0091 -0.6521 -1.6566
   58DG     C17 1328   0.510   1.775   2.351 -0.0816  0.7712  0.1865
   58DG     C18 1329   0.453   1.712   2.573 -0.3160 -0.1443  0.1561
   58DG     O19 1330   0.448   1.815   2.472  0.1347  0.1196  0.1980
   58DG     H20 1331   0.624   1.788   2.355  0.9321  2.1591  2.2372
   58DG     H21 1332   0.485   1.674   2.314 -1.0318 -0.7447 -1.1169
   58DG     H22 1333   0.558   1.681   2.573  1.0980  2.0560  2.1829
   58DG     H23 1334   0.391   1.630   2.537  0.1607  0.3663  2.6650
   59DG      C1 1335   4.601   2.040   2.067  0.4611 -0.3965 -0.3928
   59DG      C2 1336   5.272   2.151   2.210 -0.2365 -0.9852 -0.4298
   59DG      H3 1337   4.540   1.951   2.083  0.6758 -2.1416 -0.3751
   59DG      H4 1338   4.568   2.084   1.974  0.4888  0.0116  0.1383
   59DG      H5 1339   4.601   2.108   2.152 -0.2481 -1.2928 -3.2105
   59DG      H6 1340   5.363   2.121   2.266  0.5206 -0.2859  1.6042
   59DG      H7 1341   5.310   2.188   2.111  1.9636 -2.6154  0.9453
   59DG      H8 1342   5.233   2.226   2.267  0.3413 -2.3541 -1.3134
   59DG      O9 1343   4.735   1.980   2.048  0.5980  0.0575 -0.5641
   59DG     O10 1344   5.179   2.049   2.187  0.2930 -0.0435 -0.6431
   59DG     C11 1345   4.774   1.939   1.914  0.0053  0.0833 -0.5382
   59DG     C12 1346   5.224   1.948   2.085  0.0074 -0.3184  0.5204
   59DG     H13 1347   4.804   2.029   1.861  0.3945  0.4246 -2.0531
   59DG     H14 1348   4.695   1.882   1.876  0.2511  0.0746  0.6552
   59DG     H15 1349   5.302   1.881   2.120  1.8619 -1.3670 -0.7768
   59DG     H16 1350   5.249   1.996   1.990  1.0421  0.9368 -1.5913
   59DG     C17 1351   4.899   1.856   1.929 -0.2236  0.4145 -0.2451
   59DG     C18 1352   5.105   1.849   2.051  0.1442 -0.1072 -0.0447
   59DG     O19 1353   4.993   1.930   2.003 -0.0029 -0.3157 -0.6575
   59DG     H20 1354   4.936   1.818   1.833  0.5641 -1.1439 -0.2518
   59DG     H21 1355   4.881   1.764   1.979  1.3131 -1.3777  0.8073
   59DG     H22 1356   5.151   1.788   1.970 -1.2566  1.5882 -1.3307
   59DG     H23 1357   5.071   1.785   2.135  2.1393  4.4824 -0.6223
   60DG      C1 1358   2.845   2.990   1.541  0.3225 -0.2694  0.3845
   60DG      C2 1359   3.033   2.592   2.025  0.3559  0.2110 -0.0177
   60DG      H3 1360   2.948   2.983   1.505  2.6745 -1.7481 -0.2775
   60DG      H4 1361   2.846   3.088   1.587  0.2647  0.0238 -0.9210
   60DG      H5 1362   2.775   2.993   1.457  0.0097  0.1112  0.3158
   60DG      H6 1363   3.120   2.601   1.967 -0.8148  1.1217  1.1570
   60DG      H7 1364   3.047   2.572   2.128 -0.5897  0.5489 -1.9838
   60DG      H8 1365   2.993   2.499   1.979 -0.7038  0.9874 -1.5305
   60DG      O9 1366   2.804   2.890   1.636  0.4186 -0.4756 -0.1055
   60DG     O10 1367   2.962   2.710   1.995 -0.1758  0.4029  0.4207
   60DG     C11 1368   2.663   2.882   1.652  0.2168 -0.4216  0.1902
   60DG     C12 1369   2.833   2.717   2.051  0.3342  0.3965  0.3545
   60DG     H13 1370   2.612   2.869   1.555  1.7328  0.1418 -1.6558
   60DG     H14 1371   2.635   2.979   1.690 -3.1022  3.1439 -1.6736
   60DG     H15 1372   2.810   2.819   2.076 -1.7838 -0.3638 -0.7757
   60DG     H16 1373   2.819   2.663   2.143 -1.2125  2.3115  1.2241
   60DG     C17 1374   2.634   2.770   1.753 -0.0567  0.2146  0.7840
   60DG     C18 1375   2.722   2.688   1.952 -0.3867 -0.2867  1.2297
   60DG     O19 1376   2.725   2.796   1.857 -0.0157  0.6480 -0.2907
   60DG     H20 1377   2.650   2.675   1.699  0.1360 -2.1459 -2.6397
   60DG     H21 1378   2.532   2.783   1.785 -0.4394  0.4254  1.5318
   60DG     H22 1379   2.731   2.590   1.905  2.1588 -0.2478  0.5812
   60DG     H23 1380   2.629   2.690   2.002 -0.4268 -1.1876 -2.1657
   61DG      C1 1381   1.191   0.358   5.207  0.0367 -0.4744 -0.4917
   61DG      C2 1382   0.647   0.394   4.885  0.6785  0.3991 -0.0234
   61DG      H3 1383   1.216   0.299   5.122  1.0992 -0.9253 -0.4327
   61DG      H4 1384   1.147   0.285   5.275 -1.7414  1.3838 -1.1359
   61DG      H5 1385   1.275   0.416   5.260 -1.2324  0.6232 -0.1563
   61DG      H6 1386   0.703   0.376   4.791  3.1898 -0.2015 -0.5352
   61DG      H7 1387   0.617   0.292   4.928 -0.4915 -0.6979 -1.5355
   61DG      H8 1388   0.546   0.445   4.862  0.1193  1.6675 -1.6009
   61DG      O9 1389   1.085   0.454   5.172 -0.7087 -0.0479  0.7208
   61DG     O10 1390   0.716   0.475   4.977  0.1197  0.1163 -0.0516
   61DG     C11 1391   1.143   0.575   5.130  0.4723 -0.0411 -0.6981
   61DG     C12 1392   0.758   0.597   4.913 -0.1134 -1.3068  0.2966
   61DG     H13 1393   1.233   0.551   5.067 -1.3501 -2.6593  1.7198
   61DG     H14 1394   1.169   0.642   5.217 -1.4861  0.9356  1.3539
   61DG     H15 1395   0.682   0.658   4.864  0.3590  1.6679  1.3374
   61DG     H16 1396   0.824   0.579   4.830 -0.9999  2.3493 -0.1044
   61DG     C17 1397   1.042   0.633   5.035  0.3202  0.0046  0.6682
   61DG     C18 1398   0.818   0.698   5.003  0.3537 -0.5323  0.6209
   61DG     O19 1399   0.911   0.634   5.094 -0.6013  0.1052  0.0601
   61DG     H20 1400   1.030   0.584   4.939  0.4558  2.6654 -2.4078
   61DG     H21 1401   1.069   0.735   5.011  0.8102  1.2021 -2.3555
   61DG     H22 1402   0.872   0.783   4.954  0.7909  0.8420  0.4468
   61DG     H23 1403   0.739   0.742   5.064 -0.4199 -1.1552  0.4715
   62DG      C1 1404   4.820   2.270   3.638 -0.6345  0.0208  0.2539
   62DG      C2 1405   5.130   2.046   3.279  0.1468  0.0378 -0.8229
   62DG      H3 1406   4.780   2.193   3.576  0.1069 -0.8491 -1.4670
   62DG      H4 1407   4.803   2.364   3.593 -1.0917  1.4156 -0.3246
   62DG      H5 1408   4.774   2.270   3.738  1.8560  1.0934 -3.1151
   62DG      H6 1409   5.095   2.089   3.185 -0.5549 -1.5906 -0.9672
   62DG      H7 1410   5.222   1.989   3.258 -1.3215 -1.2772  1.3671
   62DG      H8 1411   5.048   1.977   3.305 -0.3761  4.1142  1.4278
   62DG      O9 1412   4.962   2.261   3.640  0.1261  0.0462  0.2056
   62DG     O10 1413   5.150   2.144   3.387  0.4755 -0.7034 -0.0556
   62DG     C11 1414   5.034   2.371   3.697 -0.7767 -0.0784 -0.0350
   62DG     C12 1415   5.271   2.215   3.368  0.1577  0.2688 -0.5924
   62DG     H13 1416   5.004   2.393   3.795  2.0549 -0.2280  1.0607
   62DG     H14 1417   5.007   2.463   3.638  0.0571  1.8731 -0.5015
   62DG     H15 1418   5.267   2.261   3.272 -3.0477  0.9428  0.8676
   62DG     H16 1419   5.357   2.151   3.389 -2.1005  3.1358 -2.2698
   62DG     C17 1420   5.188   2.345   3.709  0.3562  0.2941 -0.1927
   62DG     C18 1421   5.267   2.316   3.480 -0.2021  0.2661  0.2063
   62DG     O19 1422   5.242   2.255   3.608  0.0763  0.2472 -0.0291
   62DG     H20 1423   5.216   2.314   3.813  1.5443 -2.4701  1.3730
   62DG     H21 1424   5.245   2.439   3.701 -0.3692  1.1224 -1.2713
   62DG     H22 1425   5.367   2.371   3.479 -1.2492  0.1225 -0.8894
   62DG     H23 1426   5.183   2.383   3.452 -0.4800  2.0027 -1.1757
   63DG      C1 1427   5.170   0.171   3.431  0.6548 -0.9121 -0.3133
   63DG      C2 1428   5.167   0.781   3.130  0.0040  0.1952  0.2966
   63DG      H3 1429   5.133   0.205   3.528 -3.2490 -0.2870  0.3427
   63DG      H4 1430   5.273   0.205   3.427  2.0543  2.0793 -2.2234
   63DG      H5 1431   5.160   0.063   3.425 -1.0689 -0.5647  0.5930
   63DG      H6 1432   5.100   0.831   3.198 -1.8679 -0.4274 -0.9547
   63DG      H7 1433   5.267   0.782   3.172 -0.3954  2.3330  2.3125
   63DG      H8 1434   5.170   0.846   3.046  1.5383  0.3446  1.6901
   63DG      O9 1435   5.098   0.237   3.329  0.3475 -0.1749  0.3194
   63DG     O10 1436   5.123   0.647   3.100 -0.1605  0.2646  0.0548
   63DG     C11 1437   5.118   0.166   3.204 -0.3847  0.5243 -0.3573
   63DG     C12 1438   5.214   0.576   3.017  0.5797  0.5639  0.0246
   63DG     H13 1439   5.059   0.074   3.216  0.5857  1.2841  2.7390
   63DG     H14 1440   5.222   0.148   3.200 -1.2429 -0.9948  1.5629
   63DG     H15 1441   5.300   0.566   3.074 -0.0235  0.8762  0.5884
   63DG     H16 1442   5.242   0.632   2.929 -0.5727 -2.0490  1.4869
   63DG     C17 1443   5.081   0.251   3.082  0.7826  0.8010  0.6807
   63DG     C18 1444   5.152   0.439   2.981  0.0618 -0.3214  0.5428
   63DG     O19 1445   5.139   0.374   3.103 -0.5372 -0.3536  0.2913
   63DG     H20 1446   4.973   0.257   3.054 -2.6138 -1.0640 -0.4419
   63DG     H21 1447   5.122   0.205   2.998 -1.7291 -1.5138  1.1955
   63DG     H22 1448   5.058   0.433   2.924  2.0179 -1.4736  1.4685
   63DG     H23 1449   5.233   0.393   2.923 -0.2978  1.2990 -0.9480
   64DG      C1 1450   2.854   3.053   3.044  0.3504  0.4031 -0.2691
   64DG      C2 1451   2.459   2.583   3.111 -0.3036 -0.9505  0.5099
   64DG      H3 1452   2.875   3.032   2.938  0.2235 -0.5027 -0.3843
   64DG      H4 1453   2.939   3.030   3.110 -0.0693  4.0382 -0.4971
   64DG      H5 1454   2.851   3.160   3.042 -0.5202 -0.7910  1.3467
   64DG      H6 1455   2.414   2.624   3.023  0.3118  4.0554  3.5544
   64DG      H7 1456   2.543   2.531   3.082  0.5929 -1.0943  0.3585
   64DG      H8 1457   2.399   2.516   3.176  2.1339 -0.9729  2.4117
   64DG      O9 1458   2.732   2.998   3.099  0.1293  0.4755  0.7270
   64DG     O10 1459   2.496   2.699   3.180 -0.0187  0.0977 -0.5460
   64DG     C11 1460   2.671   3.084   3.196 -0.1625 -0.2679  0.4218
   64DG     C12 1461   2.396   2.754   3.261  0.0938 -0.0526 -0.3035
   64DG     H13 1462   2.655   3.183   3.149  0.0412 -1.9889  0.0247
   64DG     H14 1463   2.733   3.103   3.285 -0.3923  1.0037 -1.3724
   64DG     H15 1464   2.349   2.662   3.313  0.9225 -2.3847 -0.3227
   64DG     H16 1465   2.334   2.815   3.190  1.3330  0.7549  1.4295
   64DG     C17 1466   2.543   3.026   3.239  0.0174 -0.2759 -0.5098
   64DG     C18 1467   2.462   2.846   3.361  0.1403  0.1559 -0.2020
   64DG     O19 1468   2.577   2.903   3.306 -0.9144 -0.1727 -0.1293
   64DG     H20 1469   2.488   2.997   3.151 -1.9004 -0.8866 -1.5523
   64DG     H21 1470   2.490   3.095   3.299  1.5279 -2.0066 -3.8565
   64DG     H22 1471   2.399   2.919   3.406 -0.7175  0.6898  1.9883
   64DG     H23 1472   2.501   2.778   3.432  0.2142  3.3170 -2.3111
   65DG      C1 1473   1.602   1.222   3.252 -0.4296 -0.8018  1.3397
   65DG      C2 1474   1.207   0.733   3.458 -0.0924 -0.3810  0.4065
   65DG      H3 1475   1.669   1.161   3.306 -2.3274 -0.0163 -1.5198
   65DG      H4 1476   1.639   1.323   3.278  1.3684  1.8320 -2.1522
   65DG      H5 1477   1.613   1.209   3.144 -0.6480  0.9152 -1.4442
   65DG      H6 1478   1.120   0.714   3.524  1.5069  0.9197 -0.9807
   65DG      H7 1479   1.194   0.676   3.367  1.5180  0.3956 -0.9140
   65DG      H8 1480   1.281   0.684   3.526 -2.6251  2.4366  0.1747
   65DG      O9 1481   1.470   1.197   3.296  0.2282 -0.7267 -0.5967
   65DG     O10 1482   1.217   0.871   3.443 -0.3638 -0.7225 -0.6782
   65DG     C11 1483   1.369   1.300   3.276 -0.6838  0.1441  0.1550
   65DG     C12 1484   1.096   0.915   3.375  0.0045  0.3905  0.0808
   65DG     H13 1485   1.337   1.326   3.175 -0.2847  1.7882  0.3748
   65DG     H14 1486   1.396   1.395   3.320 -0.0038 -1.6152 -0.0105
   65DG     H15 1487   1.002   0.879   3.407  0.9588 -0.9213  0.8933
   65DG     H16 1488   1.100   0.888   3.268  1.8236  1.9682 -1.5825
   65DG     C17 1489   1.244   1.255   3.352 -0.2111  0.3475 -0.4085
   65DG     C18 1490   1.087   1.079   3.382  0.5581 -0.4972 -0.2529
   65DG     O19 1491   1.206   1.123   3.313  0.8325 -0.2674  0.5712
   65DG     H20 1492   1.152   1.321   3.319 -1.3048  2.9951 -1.5443
   65DG     H21 1493   1.263   1.271   3.458 -1.2735  1.7095 -3.6416
   65DG     H22 1494   1.000   1.115   3.333  0.9909  0.5873 -0.3788
   65DG     H23 1495   1.085   1.108   3.484  1.2564 -1.5749 -0.5616
   66DG      C1 1496   3.365   3.506   2.760 -0.0661 -0.0064  0.7501
   66DG      C2 1497   3.868   3.023   2.978  0.2844 -0.5184 -0.1331
   66DG      H3 1498   3.368   3.588   2.691 -2.2733 -3.2872  0.1818
   66DG      H4 1499   3.357   3.555   2.858  2.6403 -0.6217  1.0987
   66DG      H5 1500   3.281   3.441   2.740  0.2271  1.5373  0.3979
   66DG      H6 1501   3.800   2.939   3.017 -0.0919 -1.9820  2.7049
   66DG      H7 1502   3.963   2.987   2.955 -0.4764  0.2871 -0.8154
   66DG      H8 1503   3.888   3.106   3.046 -0.6904  1.9872  1.5941
   66DG      O9 1504   3.489   3.439   2.759  0.0947 -0.0413 -0.2856
   66DG     O10 1505   3.801   3.103   2.874  0.2359  0.5972  0.3084
   66DG     C11 1506   3.599   3.535   2.745  0.7017 -0.2678 -0.0477
   66DG     C12 1507   3.899   3.166   2.791 -0.1988 -0.0170 -1.3829
   66DG     H13 1508   3.626   3.571   2.846  2.0982  1.4237  1.0036
   66DG     H14 1509   3.573   3.626   2.695  1.1970 -0.9909 -1.5347
   66DG     H15 1510   3.949   3.083   2.743  0.8901 -0.5529 -1.6150
   66DG     H16 1511   3.976   3.233   2.833  1.4546 -0.6208 -0.5436
   66DG     C17 1512   3.721   3.463   2.682 -0.4760  0.3061 -0.4309
   66DG     C18 1513   3.833   3.250   2.680 -0.3613  0.4702 -0.2066
   66DG     O19 1514   3.738   3.333   2.748  0.4636 -0.3360  0.3090
   66DG     H20 1515   3.816   3.519   2.695  0.8993 -2.2991  0.5749
   66DG     H21 1516   3.706   3.448   2.582 -1.9942 -0.3665  0.2067
   66DG     H22 1517   3.901   3.310   2.615 -0.3139 -1.3065  0.7926
   66DG     H23 1518   3.794   3.177   2.605  0.2123 -2.2420  3.2686
   67DG      C1 1519   0.355   3.086   0.784  0.2227 -0.0433  0.1158
   67DG      C2 1520   0.467   3.287   1.348  0.2366 -0.7286 -0.2935
   67DG      H3 1521   0.297   2.998   0.794 -4.9467  1.0610 -0.4459
   67DG      H4 1522   0.456   3.064   0.800 -0.9041 -1.1022  1.4890
   67DG      H5 1523   0.351   3.123   0.681  0.9014 -1.9973 -1.2364
   67DG      H6 1524   0.549   3.227   1.317  3.6178  0.2955 -2.1022
   67DG      H7 1525   0.473   3.383   1.293 -0.8601  3.1103 -0.1831
   67DG      H8 1526   0.489   3.310   1.454  1.8122 -1.0995  1.1196
   67DG      O9 1527   0.329   3.188   0.880  0.2089 -0.8145 -0.2916
   67DG     O10 1528   0.335   3.226   1.325 -0.0306 -0.3118  0.2666
   67DG     C11 1529   0.202   3.246   0.863 -1.5743 -0.6944 -0.4045
   67DG     C12 1530   0.216   3.318   1.333 -0.3435 -0.5409 -0.1547
   67DG     H13 1531   0.124   3.174   0.887  1.4508 -0.0584 -1.1946
   67DG     H14 1532   0.200   3.281   0.760 -1.9552  1.5433 -0.3635
   67DG     H15 1533   0.226   3.380   1.424 -0.6568 -0.1039  1.4654
   67DG     H16 1534   0.124   3.260   1.333 -0.9413 -1.8733  1.7109
   67DG     C17 1535   0.188   3.361   0.963  0.1486 -0.3626 -0.3188
   67DG     C18 1536   0.219   3.407   1.204  0.8322  0.4317  0.5298
   67DG     O19 1537   0.213   3.310   1.095  0.0283  0.0652  0.6642
   67DG     H20 1538   0.084   3.398   0.961  0.3367  0.0581 -0.6255
   67DG     H21 1539   0.254   3.447   0.942  1.6768  0.5957 -0.6866
   67DG     H22 1540   0.130   3.469   1.193 -0.8289 -1.6178  0.8876
   67DG     H23 1541   0.309   3.467   1.216  0.9877 -1.4104  0.0889
   68DG      C1 1542   3.790   1.048   4.037 -0.3317 -0.9455 -0.5322
   68DG      C2 1543   4.267   0.655   4.039  0.8416  0.1215 -0.6392
   68DG      H3 1544   3.864   1.053   4.114 -1.2519  0.2675 -0.8171
   68DG      H4 1545   3.707   1.114   4.068  1.6796 -0.8833  1.4908
   68DG      H5 1546   3.828   1.106   3.952 -0.6210 -2.3108 -0.1472
   68DG      H6 1547   4.332   0.721   3.993 -2.3341 -2.3147 -1.7917
   68DG      H7 1548   4.322   0.613   4.120 -1.6290  0.7561 -2.7055
   68DG      H8 1549   4.255   0.574   3.969  2.4366  2.7408  1.6074
   68DG      O9 1550   3.760   0.924   3.988 -0.1555 -0.2976  0.0224
   68DG     O10 1551   4.142   0.702   4.081  0.3959  0.1239 -0.6671
   68DG     C11 1552   3.673   0.840   4.068 -0.2217 -0.8103  0.3089
   68DG     C12 1553   4.077   0.600   4.159  1.0976  0.9189 -0.7526
   68DG     H13 1554   3.637   0.760   4.005 -1.0261 -1.8342  0.2145
   68DG     H14 1555   3.595   0.897   4.109  0.3789 -0.5707  0.4985
   68DG     H15 1556   4.135   0.570   4.250  2.8938 -0.1505 -1.6167
   68DG     H16 1557   4.056   0.508   4.108  1.7650 -1.7519  2.7673
   68DG     C17 1558   3.754   0.771   4.180  0.4414  0.1159 -0.1218
   68DG     C18 1559   3.955   0.653   4.226  0.1101 -0.5446  0.3081
   68DG     O19 1560   3.872   0.718   4.128 -0.2424  0.3403  0.7142
   68DG     H20 1561   3.704   0.686   4.221  0.0389  0.7882  1.0671
   68DG     H21 1562   3.783   0.847   4.257  1.8479  1.2583 -1.4153
   68DG     H22 1563   3.904   0.569   4.283  0.6511 -2.5391 -1.5240
   68DG     H23 1564   3.973   0.731   4.307 -1.7491 -0.6239 -1.2704
   69DG      C1 1565   4.308   4.709   3.809  0.7578  0.3313 -0.3198
   69DG      C2 1566   3.832   4.991   3.518 -0.3937  0.5835 -0.1621
   69DG      H3 1567   4.301   4.604   3.799 -0.6338 -2.4339 -0.4160
   69DG      H4 1568   4.243   4.724   3.894  1.3812 -2.5445  1.6396
   69DG      H5 1569   4.404   4.739   3.848 -0.3333  1.2324 -1.0902
   69DG      H6 1570   3.841   5.015   3.619  1.4710 -2.2725 -0.4314
   69DG      H7 1571   3.792   5.071   3.458 -0.4368 -3.1628  1.1543
   69DG      H8 1572   3.762   4.902   3.509  0.6605 -0.2727 -1.2722
   69DG      O9 1573   4.282   4.762   3.685  0.1165 -0.4172 -0.4827
   69DG     O10 1574   3.961   4.961   3.462 -0.4860  0.3706 -0.0666
   69DG     C11 1575   4.379   4.744   3.585 -0.7359  1.1592  0.0054
   69DG     C12 1576   3.962   4.848   3.374  0.2365 -0.1134 -0.9281
   69DG     H13 1577   4.382   4.631   3.579 -2.4311 -2.0343  0.1452
   69DG     H14 1578   4.477   4.795   3.619  0.0758  0.0609  2.1065
   69DG     H15 1579   3.907   4.874   3.288  1.6276 -0.4451  2.3601
   69DG     H16 1580   3.907   4.759   3.418 -2.7971 -0.9227  0.1702
   69DG     C17 1581   4.316   4.794   3.446  0.9271 -0.7996 -0.7287
   69DG     C18 1582   4.108   4.803   3.332  0.0726  0.0068  1.1546
   69DG     O19 1583   4.176   4.775   3.453  0.7388 -0.8051  0.0411
   69DG     H20 1584   4.358   4.742   3.370  0.5851 -0.5816  0.9814
   69DG     H21 1585   4.344   4.899   3.429 -0.8850  1.1409  0.0849
   69DG     H22 1586   4.118   4.728   3.258 -1.8451  0.5534 -0.3062
   69DG     H23 1587   4.155   4.887   3.288  3.9382 -2.8315 -1.6053
   70DG      C1 1588   3.689   4.087   4.201 -0.8609  0.0376  0.2087
   70DG      C2 1589   3.717   4.726   4.820  0.0268  0.1834  0.5692
   70DG      H3 1590   3.713   4.022   4.283 -0.5278  0.5087  0.1721
   70DG      H4 1591   3.726   4.034   4.112 -1.4923 -1.7164 -0.5352
   70DG      H5 1592   3.586   4.093   4.188 -0.9684  0.6753 -0.0063
   70DG      H6 1593   3.733   4.685   4.920  1.5277 -0.6179  2.0422
   70DG      H7 1594   3.792   4.805   4.814  1.2831  1.1594 -0.3867
   70DG      H8 1595   3.618   4.767   4.803  0.4510  2.3615  1.4187
   70DG      O9 1596   3.758   4.211   4.224 -0.6203 -0.8362  0.2809
   70DG     O10 1597   3.744   4.639   4.714  0.2312  0.7205 -0.5286
   70DG     C11 1598   3.695   4.269   4.340  0.2899  0.2934 -0.0711
   70DG     C12 1599   3.675   4.512   4.720 -0.4005 -0.1927  0.4996
   70DG     H13 1600   3.701   4.199   4.423 -0.4741  2.0323  0.8654
   70DG     H14 1601   3.590   4.289   4.330  0.3003  1.3782  0.5159
   70DG     H15 1602   3.564   4.517   4.722  2.1051 -0.4393  2.0300
   70DG     H16 1603   3.696   4.470   4.820  0.0694  3.6787  1.9641
   70DG     C17 1604   3.753   4.414   4.374  0.8702  0.4487  0.1811
   70DG     C18 1605   3.725   4.418   4.601 -0.5170 -0.7061 -0.4564
   70DG     O19 1606   3.690   4.481   4.481 -0.3090  0.7225  0.6398
   70DG     H20 1607   3.741   4.488   4.291 -1.1278 -1.0613  0.3517
   70DG     H21 1608   3.858   4.425   4.398  3.5737  1.5168  0.8223
   70DG     H22 1609   3.828   4.400   4.615  1.2204 -1.3911 -0.8540
   70DG     H23 1610   3.671   4.326   4.612 -1.7849  2.5162 -0.5208
   71DG      C1 1611   1.191   2.727   4.280 -0.3564 -0.0496 -0.1316
   71DG      C2 1612   0.873   2.319   3.899  0.1728  0.1224  0.1616
   71DG      H3 1613   1.263   2.806   4.273  2.6057 -1.4348 -3.0301
   71DG      H4 1614   1.189   2.684   4.385 -0.1388 -0.4492  2.1744
   71DG      H5 1615   1.096   2.779   4.274 -1.2157  1.0960  0.9964
   71DG      H6 1616   0.799   2.387   3.943 -0.9511  0.7494 -1.2204
   71DG      H7 1617   0.842   2.281   3.808  0.1001 -0.3407  3.8808
   71DG      H8 1618   0.864   2.236   3.969 -1.7158 -0.8331 -1.9150
   71DG      O9 1619   1.206   2.651   4.165 -0.2903  0.4275  0.0031
   71DG     O10 1620   1.007   2.375   3.907  0.5070 -0.9089 -0.3275
   71DG     C11 1621   1.334   2.589   4.171  0.7181 -0.3657 -0.1199
   71DG     C12 1622   1.109   2.276   3.896  0.4612 -0.4932  0.7107
   71DG     H13 1623   1.344   2.514   4.257  0.8913 -0.1009 -1.4393
   71DG     H14 1624   1.424   2.651   4.182  1.2875  0.5346 -0.0533
   71DG     H15 1625   1.118   2.244   3.790  0.6123  1.1793 -1.2488
   71DG     H16 1626   1.100   2.196   3.971 -0.7304  1.9098  1.7309
   71DG     C17 1627   1.348   2.511   4.047 -0.5759  0.1920  0.1220
   71DG     C18 1628   1.242   2.343   3.930  1.7889  0.1623  0.7698
   71DG     O19 1629   1.234   2.432   4.043 -0.6233 -0.9018 -0.0104
   71DG     H20 1630   1.443   2.455   4.043  2.7299 -2.5974 -0.4756
   71DG     H21 1631   1.347   2.581   3.961  1.6143  0.6428  0.3357
   71DG     H22 1632   1.314   2.264   3.950  2.4119  1.0274 -1.5457
   71DG     H23 1633   1.272   2.396   3.842 -0.7782 -0.1596  0.8328
   72DG      C1 1634   0.518   4.461   1.607  0.1384 -0.6931 -0.0112
   72DG      C2 1635   0.807   3.980   1.923  0.4803 -0.6112 -0.1423
   72DG      H3 1636   0.528   4.485   1.707  0.6509  1.6947  4.0189
   72DG      H4 1637   0.411   4.469   1.581 -1.6328 -0.6713 -1.3737
   72DG      H5 1638   0.572   4.538   1.561 -0.1396 -1.8962 -0.0919
   72DG      H6 1639   0.873   3.893   1.935  0.0907 -1.0806  3.5427
   72DG      H7 1640   0.868   4.058   1.977  0.0772 -3.0163 -2.4096
   72DG      H8 1641   0.708   3.960   1.968 -0.4543  0.5818 -1.5146
   72DG      O9 1642   0.566   4.327   1.584  0.0257 -0.3297 -0.4655
   72DG     O10 1643   0.780   4.027   1.790  0.1065 -0.1781 -0.0029
   72DG     C11 1644   0.567   4.277   1.444 -0.0364 -0.0703 -0.0255
   72DG     C12 1645   0.740   3.926   1.700  0.9872 -0.1135  0.0706
   72DG     H13 1646   0.593   4.361   1.382 -0.2680 -1.3823  1.2892
   72DG     H14 1647   0.464   4.254   1.420 -2.3192 -1.6447 -0.9586
   72DG     H15 1648   0.636   3.892   1.725 -2.6368 -1.1301 -1.4272
   72DG     H16 1649   0.804   3.835   1.706 -0.3716 -0.7185 -0.0680
   72DG     C17 1650   0.664   4.159   1.429 -0.2694 -0.3243  0.7539
   72DG     C18 1651   0.738   3.981   1.561  0.3016  0.3182  0.1761
   72DG     O19 1652   0.656   4.095   1.554  0.1917 -0.3550  0.0527
   72DG     H20 1653   0.763   4.188   1.405 -0.3297  0.6143 -0.9730
   72DG     H21 1654   0.625   4.085   1.357 -0.3184  2.6871 -1.2866
   72DG     H22 1655   0.838   4.018   1.544 -0.9315  0.2231 -0.4974
   72DG     H23 1656   0.711   3.903   1.488 -0.7676  2.7128  0.6160
   73DG      C1 1657   1.608   1.083   2.521  0.1701  0.5092 -0.4231
   73DG      C2 1658   1.184   0.970   2.039 -0.3742  0.7609  0.5717
   73DG      H3 1659   1.671   1.154   2.474 -1.7796  1.0850  2.9905
   73DG      H4 1660   1.643   0.985   2.484  1.4463 -1.5499 -1.0915
   73DG      H5 1661   1.628   1.092   2.631 -2.6427 -0.0024  0.9618
   73DG      H6 1662   1.243   0.882   2.045 -0.5899  1.7705  2.1371
   73DG      H7 1663   1.098   0.943   1.968  1.8783  1.4330  0.1882
   73DG      H8 1664   1.242   1.049   1.983  0.7283 -3.6221  0.8485
   73DG      O9 1665   1.469   1.093   2.484  0.3734 -0.1273  0.0791
   73DG     O10 1666   1.138   1.004   2.171  0.0756  0.2987  0.4208
   73DG     C11 1667   1.413   1.210   2.530  0.0025 -0.3477  0.2471
   73DG     C12 1668   1.087   1.138   2.183  0.3848  0.0631 -0.6131
   73DG     H13 1669   1.461   1.291   2.477 -3.4630  0.3105  0.1097
   73DG     H14 1670   1.431   1.241   2.640 -2.0530  3.7636  0.3655
   73DG     H15 1671   0.984   1.121   2.140 -0.3574 -2.5476 -1.1383
   73DG     H16 1672   1.133   1.210   2.114  1.6754 -1.1605  0.4529
   73DG     C17 1673   1.258   1.206   2.503  0.6454  0.6800  0.5442
   73DG     C18 1674   1.096   1.180   2.327 -0.3107  0.4142 -1.2908
   73DG     O19 1675   1.236   1.171   2.365 -0.4560  0.4361  0.7845
   73DG     H20 1676   1.232   1.310   2.519 -0.9258 -0.1920  0.5578
   73DG     H21 1677   1.205   1.135   2.571 -1.1585  0.2237  2.3382
   73DG     H22 1678   1.058   1.269   2.361 -0.4468  2.1944 -0.6906
   73DG     H23 1679   1.032   1.108   2.376 -0.4702  1.2116  0.9564
   74DG      C1 1680   0.920   1.789   2.243 -0.2004 -0.0679  0.1161
   74DG      C2 1681   0.558   2.308   2.265  0.2184  0.3596  0.1792
   74DG      H3 1682   0.842   1.733   2.295 -1.8146 -1.0740 -2.2792
   74DG      H4 1683   0.975   1.841   2.314 -1.2113 -0.4062 -2.1933
   74DG      H5 1684   0.985   1.713   2.198 -2.4896 -1.8632 -1.7320
   74DG      H6 1685   0.546   2.263   2.363  2.7510 -3.6797 -0.7136
   74DG      H7 1686   0.654   2.359   2.261  0.8428  1.8727  1.5109
   74DG      H8 1687   0.481   2.392   2.245 -0.8402 -1.1505 -0.3277
   74DG      O9 1688   0.857   1.881   2.155  0.4403 -0.8802  0.1901
   74DG     O10 1689   0.539   2.188   2.185 -0.8390  0.2264 -0.5035
   74DG     C11 1690   0.794   1.825   2.046 -0.4014  0.3291  0.0204
   74DG     C12 1691   0.537   2.221   2.051 -0.6972 -0.6401 -0.7439
   74DG     H13 1692   0.722   1.755   2.072 -0.3954  0.2418  0.3066
   74DG     H14 1693   0.868   1.768   1.991  1.3800 -3.5170 -1.2341
   74DG     H15 1694   0.620   2.279   2.009 -1.0582  0.4051  0.6117
   74DG     H16 1695   0.440   2.278   2.033 -0.6995  1.2786 -3.7520
   74DG     C17 1696   0.736   1.939   1.957  0.7139  0.5446  0.2665
   74DG     C18 1697   0.552   2.088   1.971 -0.7852  0.4542 -0.2255
   74DG     O19 1698   0.652   2.014   2.047 -1.0101  0.0702  0.2977
   74DG     H20 1699   0.689   1.895   1.869 -0.5481 -1.4050  0.8562
   74DG     H21 1700   0.823   1.994   1.926  1.4300 -0.2174 -1.2616
   74DG     H22 1701   0.464   2.024   1.966 -3.1365 -3.1838 -0.4286
   74DG     H23 1702   0.589   2.102   1.871  1.6529  1.3598 -0.9236
   75DG      C1 1703   3.368   1.206   3.987  0.2493  0.5396 -0.4694
   75DG      C2 1704   2.884   1.597   3.843  0.7546 -0.5046 -0.6050
   75DG      H3 1705   3.349   1.223   4.095  0.7737  0.8365 -1.1575
   75DG      H4 1706   3.427   1.291   3.960 -2.4356 -2.2973  0.4338
   75DG      H5 1707   3.425   1.117   3.987 -2.9555  0.4155  0.5297
   75DG      H6 1708   2.943   1.665   3.786  0.8069 -3.0466 -2.4669
   75DG      H7 1709   2.781   1.624   3.812 -0.2460  0.2194  0.2736
   75DG      H8 1710   2.889   1.609   3.948  0.2927 -1.2206 -3.0422
   75DG      O9 1711   3.245   1.197   3.909  0.4987  0.5543  0.4459
   75DG     O10 1712   2.895   1.460   3.807  0.1159  0.0952 -0.1599
   75DG     C11 1713   3.174   1.077   3.931 -0.2079 -0.3914 -0.7107
   75DG     C12 1714   2.800   1.361   3.859 -0.7796  0.4852 -0.0532
   75DG     H13 1715   3.189   1.049   4.037 -0.1838 -0.4967 -0.7879
   75DG     H14 1716   3.234   1.007   3.873  1.9850  0.7924 -0.6278
   75DG     H15 1717   2.717   1.368   3.792 -1.6081  0.0066  1.1572
   75DG     H16 1718   2.768   1.385   3.958 -1.0295 -1.9608 -0.6289
   75DG     C17 1719   3.026   1.076   3.895 -0.2811 -0.0770  0.2773
   75DG     C18 1720   2.848   1.214   3.869 -0.0036  0.1038 -0.4285
   75DG     O19 1721   2.981   1.207   3.895  0.2192  0.4652 -0.2581
   75DG     H20 1722   2.977   1.016   3.966  1.1791  0.2706  0.6768
   75DG     H21 1723   3.005   1.038   3.794 -0.6885  1.7165  0.5912
   75DG     H22 1724   2.806   1.171   3.957  0.9567  1.7403 -2.4007
   75DG     H23 1725   2.820   1.148   3.783  0.8305  2.5277 -2.1407
   76DG      C1 1726   4.582   1.724   3.211 -0.4391 -0.2495 -0.6016
   76DG      C2 1727   4.610   1.386   2.608 -0.3936 -0.0675  0.1237
   76DG      H3 1728   4.588   1.820   3.261 -2.4078  0.7819  0.8290
   76DG      H4 1729   4.597   1.634   3.275 -0.8897 -1.0001 -0.9326
   76DG      H5 1730   4.480   1.720   3.179 -0.0388  0.6680 -2.5242
   76DG      H6 1731   4.625   1.291   2.656 -0.0953 -2.1694 -0.4761
   76DG      H7 1732   4.503   1.392   2.604  2.0640  0.4993  1.1094
   76DG      H8 1733   4.648   1.377   2.510  0.4812  0.5051  2.1845
   76DG      O9 1734   4.654   1.713   3.095 -0.0820  0.1610 -0.1555
   76DG     O10 1735   4.672   1.491   2.676 -0.3908 -0.3281  0.6493
   76DG     C11 1736   4.792   1.708   3.123  0.6508 -0.8563 -0.3009
   76DG     C12 1737   4.815   1.483   2.678 -0.2267 -0.1046 -0.1997
   76DG     H13 1738   4.819   1.624   3.182  0.0274  0.7016 -0.3996
   76DG     H14 1739   4.833   1.795   3.173 -0.1563  0.2251 -2.9674
   76DG     H15 1740   4.855   1.495   2.579  2.6126  0.7641  1.5715
   76DG     H16 1741   4.851   1.384   2.705  1.8855  0.3258  1.3084
   76DG     C17 1742   4.862   1.714   2.984  0.6999  0.0676 -0.0811
   76DG     C18 1743   4.874   1.604   2.760 -0.5743 -0.2338  0.5459
   76DG     O19 1744   4.816   1.606   2.897 -0.6443 -0.2582  0.7377
   76DG     H20 1745   4.970   1.710   2.991 -1.1235  0.2254 -0.2206
   76DG     H21 1746   4.843   1.812   2.946 -1.7794  0.9962  0.1364
   76DG     H22 1747   4.980   1.583   2.771 -1.9388  0.4903 -0.5372
   76DG     H23 1748   4.861   1.701   2.706 -2.5391  0.9996  0.6650
   77DG      C1 1749   0.900   5.394   4.709 -0.0118 -0.2896  0.8538
   77DG      C2 1750   0.351   5.405   5.105 -0.5481  0.2159 -0.3138
   77DG      H3 1751   0.940   5.411   4.610 -3.4880 -0.6685  0.7411
   77DG      H4 1752   0.908   5.291   4.718 -1.1096  2.0061  0.7541
   77DG      H5 1753   0.959   5.449   4.780 -1.7612  1.0956  1.7552
   77DG      H6 1754   0.365   5.301   5.140  1.1691 -1.6085 -0.4435
   77DG      H7 1755   0.413   5.469   5.170  0.1080 -0.0258  0.4047
   77DG      H8 1756   0.249   5.435   5.122  1.0962  0.3992 -0.6527
   77DG      O9 1757   0.762   5.416   4.704  0.0314  0.2459  0.7839
   77DG     O10 1758   0.403   5.421   4.972 -0.2407 -0.7105  0.1700
   77DG     C11 1759   0.725   5.542   4.651 -0.1210  0.2298 -0.3065
   77DG     C12 1760   0.358   5.540   4.915 -0.3870 -0.7307 -0.4736
   77DG     H13 1761   0.782   5.565   4.563  2.5367  0.3975  2.6546
   77DG     H14 1762   0.754   5.627   4.723 -0.2156 -0.7609  3.2924
   77DG     H15 1763   0.395   5.631   4.960 -0.4648  1.6252 -0.5703
   77DG     H16 1764   0.250   5.547   4.930 -0.7372  0.2921  2.4379
   77DG     C17 1765   0.578   5.544   4.626  0.0673 -0.5051  0.4824
   77DG     C18 1766   0.387   5.538   4.765  0.0821  0.3744 -0.4222
   77DG     O19 1767   0.525   5.527   4.756 -0.0786  0.5398 -0.0367
   77DG     H20 1768   0.544   5.466   4.559  0.2695 -1.8223 -0.3359
   77DG     H21 1769   0.546   5.639   4.579  0.7018  1.1347 -1.9431
   77DG     H22 1770   0.327   5.453   4.728 -1.4911  2.2547 -1.3659
   77DG     H23 1771   0.351   5.633   4.718  1.8319  0.8193 -2.7553
   78DG      C1 1772   2.879   2.090   5.471 -0.0815  0.3660  0.4553
   78DG      C2 1773   2.800   2.706   5.707  0.2302 -0.0998  1.2299
   78DG      H3 1774   2.974   2.119   5.507  2.2683  1.5103 -0.9140
   78DG      H4 1775   2.891   2.032   5.380 -2.2846 -0.6649  3.0559
   78DG      H5 1776   2.839   2.019   5.548 -1.1650  2.3293 -0.8842
   78DG      H6 1777   2.754   2.807   5.691 -0.5471 -0.2246 -0.5437
   78DG      H7 1778   2.810   2.695   5.812 -2.4773 -0.6068  0.4169
   78DG      H8 1779   2.904   2.700   5.672 -0.0226 -1.0888  0.5623
   78DG      O9 1780   2.808   2.217   5.444 -0.3324  0.1582 -0.3504
   78DG     O10 1781   2.730   2.608   5.634  0.2356  0.0781 -0.0024
   78DG     C11 1782   2.698   2.212   5.347 -0.1475 -0.2000 -0.3753
   78DG     C12 1783   2.706   2.656   5.501  0.4828 -0.1634 -0.4325
   78DG     H13 1784   2.616   2.144   5.392 -0.5536 -0.5075  1.5546
   78DG     H14 1785   2.715   2.175   5.248 -1.0230 -0.7897 -1.0540
   78DG     H15 1786   2.806   2.661   5.456  0.1064 -1.5734 -2.1848
   78DG     H16 1787   2.649   2.752   5.506 -0.5018  0.3472  0.2621
   78DG     C17 1788   2.631   2.347   5.326 -0.4993  0.3563  0.0053
   78DG     C18 1789   2.623   2.561   5.417  1.1033  0.1013 -0.4350
   78DG     O19 1790   2.674   2.430   5.434  0.0326  0.2198 -0.3301
   78DG     H20 1791   2.525   2.342   5.313  0.7097  0.7191  1.7167
   78DG     H21 1792   2.678   2.386   5.228  0.8554  0.0350 -1.7558
   78DG     H22 1793   2.521   2.568   5.449 -0.2508 -0.1815 -1.2673
   78DG     H23 1794   2.631   2.591   5.310  1.9814 -3.4902  1.4722
   79DG      C1 1795   3.039   3.114   0.733 -0.6971  1.3128  0.5097
   79DG      C2 1796   2.859   2.942   1.160 -0.2114 -0.0208 -0.3686
   79DG      H3 1797   2.968   3.175   0.671  0.8176  0.2019  0.7425
   79DG      H4 1798   3.134   3.098   0.684 -1.2764  3.9103  1.5767
   79DG      H5 1799   3.038   3.171   0.826  0.0664 -1.6828 -0.4958
   79DG      H6 1800   2.774   3.009   1.167 -0.3254 -1.9794  2.5021
   79DG      H7 1801   2.861   2.884   1.257 -4.9734 -0.1722  1.5693
   79DG      H8 1802   2.950   3.007   1.155  1.4220 -0.5471  3.9056
   79DG      O9 1803   2.977   2.992   0.755  0.6800  0.2896 -0.0419
   79DG     O10 1804   2.832   2.850   1.058  0.6297 -0.1728  0.7454
   79DG     C11 1805   2.997   2.882   0.666  0.2958 -0.6917  0.2926
   79DG     C12 1806   2.947   2.782   1.015  0.0192 -0.4149 -0.3617
   79DG     H13 1807   3.096   2.847   0.690 -0.0713 -0.0704  1.0109
   79DG     H14 1808   3.000   2.923   0.560 -0.8560 -0.9501 -2.4842
   79DG     H15 1809   3.005   2.725   1.088 -2.5427  3.0730  0.1314
   79DG     H16 1810   3.010   2.858   0.974  0.9697  0.6434 -2.6052
   79DG     C17 1811   2.892   2.774   0.674  0.0764 -0.6267 -0.5981
   79DG     C18 1812   2.917   2.690   0.898 -0.2030  0.0804 -0.0315
   79DG     O19 1813   2.839   2.762   0.806  0.0073  0.1716  0.0907
   79DG     H20 1814   2.923   2.679   0.646  0.6099 -0.7895  2.2940
   79DG     H21 1815   2.808   2.794   0.605 -2.7616  0.9133  1.3750
   79DG     H22 1816   3.011   2.656   0.858 -1.9442 -2.4064  0.9812
   79DG     H23 1817   2.861   2.606   0.935 -0.2197  0.6464  2.5430
   80DG      C1 1818   0.371   4.665   2.192  0.3208 -0.1686  0.2197
   80DG      C2 1819   0.278   5.369   2.106  0.3597  0.1970  0.2538
   80DG      H3 1820   0.341   4.603   2.272  1.3960 -0.7166 -1.3855
   80DG      H4 1821   0.422   4.594   2.131 -0.1434  2.8778  0.5012
   80DG      H5 1822   0.279   4.692   2.143  3.0159 -0.2819 -0.9292
   80DG      H6 1823   0.187   5.326   2.137  0.0643  0.0287 -0.1761
   80DG      H7 1824   0.297   5.470   2.142  1.0691  1.2528  0.6426
   80DG      H8 1825   0.279   5.376   1.997 -0.6941  1.1179 -0.9741
   80DG      O9 1826   0.447   4.768   2.246  0.2091 -0.0223 -0.1130
   80DG     O10 1827   0.387   5.283   2.133 -0.8966  0.0631  0.1485
   80DG     C11 1828   0.511   4.838   2.142  0.0949  0.3118 -0.1979
   80DG     C12 1829   0.405   5.254   2.279 -0.0793  0.1410 -0.0997
   80DG     H13 1830   0.442   4.871   2.065 -0.1851  0.8114 -0.4225
   80DG     H14 1831   0.589   4.771   2.099  1.2757 -2.3589  2.0095
   80DG     H15 1832   0.316   5.197   2.303  0.8421  0.2255  1.2565
   80DG     H16 1833   0.407   5.345   2.341 -0.6225 -2.5085 -0.4562
   80DG     C17 1834   0.578   4.955   2.210 -1.0414  1.2128  0.5837
   80DG     C18 1835   0.521   5.160   2.308 -0.2568 -0.0948 -0.3196
   80DG     O19 1836   0.477   5.054   2.223 -0.5051  0.3529  1.0297
   80DG     H20 1837   0.654   4.994   2.143 -0.6149  1.4351  1.1175
   80DG     H21 1838   0.626   4.921   2.302 -0.3927 -0.2260 -2.6638
   80DG     H22 1839   0.616   5.209   2.277  1.3209  0.9481  2.1999
   80DG     H23 1840   0.534   5.132   2.415  0.2936  1.3316 -1.3750
   81DG      C1 1841   1.579   0.966   0.488  0.0672  0.3573  0.0422
   81DG      C2 1842   1.174   1.061   0.666  0.2060  0.7095  0.5147
   81DG      H3 1843   1.619   0.871   0.521 -0.5894  2.4730  0.5729
   81DG      H4 1844   1.634   0.995   0.397 -0.3313 -0.3579 -0.0198
   81DG      H5 1845   1.468   0.964   0.463 -1.1054  1.1427  2.3293
   81DG      H6 1846   1.121   0.966   0.656 -3.7490  0.5398 -1.3832
   81DG      H7 1847   1.096   1.137   0.654 -1.5631 -0.8708 -1.1236
   81DG      H8 1848   1.247   1.059   0.594  2.9776  2.4655  3.1054
   81DG      O9 1849   1.595   1.047   0.601 -0.1579  0.2758  0.1468
   81DG     O10 1850   1.234   1.062   0.791 -0.4771 -0.3719  0.5873
   81DG     C11 1851   1.564   1.184   0.567  0.4865 -0.1403  0.4871
   81DG     C12 1852   1.238   1.187   0.852 -0.0356 -0.0359  0.4654
   81DG     H13 1853   1.466   1.195   0.520  2.0005  1.1747  2.2917
   81DG     H14 1854   1.646   1.213   0.491 -0.3977 -1.4700 -1.2119
   81DG     H15 1855   1.274   1.165   0.957  0.5966  0.2517  2.2796
   81DG     H16 1856   1.141   1.232   0.864 -0.3711 -0.3438 -2.0294
   81DG     C17 1857   1.569   1.260   0.696 -0.6685 -0.1505 -0.0381
   81DG     C18 1858   1.338   1.278   0.778 -0.8733 -0.8512  0.1839
   81DG     O19 1859   1.461   1.209   0.781 -0.1895 -0.4289  0.2339
   81DG     H20 1860   1.547   1.371   0.680 -1.5988  0.1159 -2.9381
   81DG     H21 1861   1.668   1.256   0.736  0.4082  1.9751 -2.5607
   81DG     H22 1862   1.304   1.303   0.684 -1.0687 -0.2010 -0.5002
   81DG     H23 1863   1.368   1.375   0.825  1.4695  0.5032  1.0726
   82DG      C1 1864   3.976   5.452   1.306 -0.1362 -1.0163 -0.1273
   82DG      C2 1865   4.085   5.911   1.808 -0.5958 -0.6518 -0.4584
   82DG      H3 1866   3.957   5.376   1.374  2.5576 -1.2496 -1.5754
   82DG      H4 1867   4.041   5.403   1.238  2.8273 -2.7654 -1.0132
   82DG      H5 1868   3.876   5.461   1.254 -1.6230 -0.7723 -2.7842
   82DG      H6 1869   4.068   5.826   1.876  0.0278 -1.5593  0.6952
   82DG      H7 1870   4.168   5.971   1.849  2.7087 -1.2686 -0.9832
   82DG      H8 1871   3.987   5.955   1.804 -2.7801 -2.6387 -2.5946
   82DG      O9 1872   4.026   5.585   1.343  0.4107  0.1240 -0.0597
   82DG     O10 1873   4.129   5.863   1.687  0.5480  0.2647 -0.2475
   82DG     C11 1874   4.078   5.659   1.228  0.2481  0.2844  0.3009
   82DG     C12 1875   4.137   5.968   1.585 -0.2484 -0.6846  0.1348
   82DG     H13 1876   3.990   5.708   1.176  0.8222  0.0929  2.1416
   82DG     H14 1877   4.129   5.593   1.154  0.2583 -1.1731  0.7681
   82DG     H15 1878   4.191   6.055   1.627  1.8155 -0.6584  3.7029
   82DG     H16 1879   4.035   5.993   1.554 -1.5481  2.1520 -0.5081
   82DG     C17 1880   4.183   5.749   1.288  0.2349 -0.6738  0.0847
   82DG     C18 1881   4.209   5.913   1.455 -0.1406  0.0339  0.3004
   82DG     O19 1882   4.138   5.796   1.412  1.0473 -0.3892 -0.0731
   82DG     H20 1883   4.218   5.827   1.214 -0.8740  0.4874 -0.5958
   82DG     H21 1884   4.278   5.694   1.311 -1.8134 -1.0262  0.2805
   82DG     H22 1885   4.202   5.990   1.378  0.9992  0.7649  1.4184
   82DG     H23 1886   4.319   5.901   1.467  0.2326 -0.6940 -1.9759
   83DG      C1 1887   3.383   3.878   2.851  0.0825  0.2086 -0.6422
   83DG      C2 1888   3.115   3.979   3.482  0.4625 -0.9405  0.0712
   83DG      H3 1889   3.293   3.935   2.826  3.1956  1.4966 -1.5171
   83DG      H4 1890   3.349   3.772   2.848 -0.0856 -2.0738 -1.8074
   83DG      H5 1891   3.459   3.890   2.780 -1.4505 -1.1513 -1.2286
   83DG      H6 1892   3.093   4.079   3.452 -1.1441 -4.3523  0.1670
   83DG      H7 1893   3.029   3.910   3.464  1.8600  0.9922 -1.1582
   83DG      H8 1894   3.128   3.979   3.594  0.2293  0.6702  4.1455
   83DG      O9 1895   3.420   3.909   2.980  0.3633  0.5936 -0.0154
   83DG     O10 1896   3.242   3.942   3.426 -0.0292 -0.1918  0.1312
   83DG     C11 1897   3.513   3.817   3.038 -0.3251  0.3351  0.3198
   83DG     C12 1898   3.347   4.040   3.441 -0.2314  0.4004 -0.0061
   83DG     H13 1899   3.606   3.820   2.984  1.4953  1.1336  0.7271
   83DG     H14 1900   3.492   3.709   3.035 -0.2412 -1.0290 -1.3279
   83DG     H15 1901   3.353   4.069   3.547 -2.0771  0.2188  2.3152
   83DG     H16 1902   3.335   4.123   3.380 -1.3859  0.4547  0.0844
   83DG     C17 1903   3.541   3.850   3.182 -0.2504  0.5393  0.4938
   83DG     C18 1904   3.467   3.963   3.384 -1.1549  0.9955  0.3087
   83DG     O19 1905   3.430   3.896   3.259 -0.0708  0.3358 -0.0875
   83DG     H20 1906   3.619   3.928   3.186 -0.6606  1.9801  1.3077
   83DG     H21 1907   3.583   3.760   3.230 -0.9353 -2.4459 -0.5284
   83DG     H22 1908   3.542   4.036   3.357  0.5836  0.4431 -0.0775
   83DG     H23 1909   3.504   3.891   3.463  2.5422 -0.4694  1.2815
   84DG      C1 1910   5.032   3.030   5.308  0.2546  0.0314  0.4305
   84DG      C2 1911   4.901   3.609   4.961  0.5664 -0.0932  0.3090
   84DG      H3 1912   5.067   2.999   5.211 -1.9025 -1.0672 -1.5256
   84DG      H4 1913   4.985   2.940   5.356 -0.9529  0.2930 -0.1024
   84DG      H5 1914   5.119   3.061   5.359 -1.8812 -0.8903  0.2293
   84DG      H6 1915   4.911   3.546   4.872 -2.7739 -0.9544 -0.9550
   84DG      H7 1916   4.812   3.675   4.939 -3.1365  0.5660  0.3615
   84DG      H8 1917   4.990   3.668   4.969  0.4222  1.5020 -1.4924
   84DG      O9 1918   4.957   3.151   5.300 -0.6168  0.4554  0.2499
   84DG     O10 1919   4.878   3.537   5.079  0.6079  0.1468  0.2309
   84DG     C11 1920   4.913   3.198   5.420 -0.0348 -0.2886  0.8415
   84DG     C12 1921   4.878   3.619   5.196  0.8956  0.6385  0.4395
   84DG     H13 1922   4.989   3.235   5.487 -0.3237 -2.0766  0.2664
   84DG     H14 1923   4.875   3.127   5.484  0.4503  2.6934  0.7283
   84DG     H15 1924   4.814   3.708   5.188 -1.5277 -1.5169 -0.7373
   84DG     H16 1925   4.978   3.648   5.225  0.9619  2.2187  0.9556
   84DG     C17 1926   4.822   3.327   5.404 -0.6812 -0.1917 -0.2752
   84DG     C18 1927   4.816   3.537   5.313 -0.0239  0.1961  0.2412
   84DG     O19 1928   4.877   3.415   5.306  0.1225  0.2998 -0.1234
   84DG     H20 1929   4.811   3.372   5.503  1.7189  0.8756  1.4665
   84DG     H21 1930   4.721   3.300   5.381 -2.7771  0.1705  0.2441
   84DG     H22 1931   4.820   3.595   5.407  0.6858  2.2118 -1.2433
   84DG     H23 1932   4.707   3.519   5.295 -0.5331  1.8970 -0.4255
   85DG      C1 1933   2.663   4.392   2.052  0.4429 -0.6232 -0.8246
   85DG      C2 1934   3.403   4.622   1.984 -0.3488 -0.0500  0.4258
   85DG      H3 1935   2.605   4.296   2.063 -2.3711 -0.1883 -1.5304
   85DG      H4 1936   2.686   4.411   1.951 -0.0904 -3.5752 -1.0494
   85DG      H5 1937   2.599   4.471   2.080  1.6474 -0.2809  2.1521
   85DG      H6 1938   3.437   4.709   2.038  1.2242  1.5990 -0.9660
   85DG      H7 1939   3.473   4.544   2.008  1.3886 -0.1254 -2.8835
   85DG      H8 1940   3.404   4.646   1.876  1.7635  0.0642  0.0309
   85DG      O9 1941   2.787   4.399   2.115 -0.2349  0.2974 -0.1237
   85DG     O10 1942   3.285   4.561   2.029  0.3061 -0.0355 -0.1904
   85DG     C11 1943   2.877   4.303   2.063 -0.3848 -0.2123  0.5568
   85DG     C12 1944   3.262   4.580   2.175  0.3706 -0.3461 -0.1151
   85DG     H13 1945   2.907   4.318   1.958  0.8494 -0.8270 -1.4395
   85DG     H14 1946   2.837   4.201   2.068  0.1485 -0.1898 -1.4558
   85DG     H15 1947   3.210   4.674   2.193  0.3918  1.2936 -1.8592
   85DG     H16 1948   3.354   4.591   2.226 -1.3517  2.6195 -2.6506
   85DG     C17 1949   2.997   4.326   2.159 -0.0492  0.1538  0.3489
   85DG     C18 1950   3.178   4.463   2.230 -0.4737 -0.1235  0.0890
   85DG     O19 1951   3.061   4.449   2.150  0.0954  0.3888  0.4034
   85DG     H20 1952   3.065   4.243   2.138 -2.3602  1.1870 -0.5680
   85DG     H21 1953   2.965   4.318   2.263 -1.4579  3.2532  1.0699
   85DG     H22 1954   3.254   4.380   2.226 -1.5735  0.7457  1.1808
   85DG     H23 1955   3.141   4.487   2.333 -2.5888  0.4015 -0.3526
   86DG      C1 1956   1.945   2.330   3.509  0.1293 -0.4429 -0.7484
   86DG      C2 1957   1.866   2.364   4.114 -0.5929  0.0345 -0.2511
   86DG      H3 1958   1.989   2.278   3.424 -0.8402  0.4839 -0.2113
   86DG      H4 1959   1.959   2.435   3.488 -1.1709  1.8109 -2.1054
   86DG      H5 1960   1.838   2.301   3.518  0.4376 -1.0417 -0.8697
   86DG      H6 1961   1.777   2.333   4.069 -1.8448  0.4044  1.1580
   86DG      H7 1962   1.890   2.296   4.198 -0.1847 -1.8029 -0.5510
   86DG      H8 1963   1.847   2.467   4.153  2.3758 -0.1035 -0.7556
   86DG      O9 1964   2.017   2.286   3.628  0.0158  0.8000 -0.0721
   86DG     O10 1965   1.958   2.354   4.013 -0.0160  0.4117 -0.7266
   86DG     C11 1966   2.147   2.345   3.625  0.3433 -0.3387  0.6812
   86DG     C12 1967   2.088   2.392   4.042  0.4879 -0.0392 -0.4327
   86DG     H13 1968   2.125   2.452   3.647 -1.3105 -0.7923  0.2459
   86DG     H14 1969   2.199   2.330   3.534 -0.1281  1.7824  2.3835
   86DG     H15 1970   2.140   2.331   4.120 -1.2805 -3.5170 -2.8576
   86DG     H16 1971   2.089   2.489   4.096  1.5417 -1.1192 -1.1813
   86DG     C17 1972   2.234   2.279   3.731  0.9273 -0.8841  0.8665
   86DG     C18 1973   2.180   2.397   3.923  0.7144 -0.0241 -0.1505
   86DG     O19 1974   2.171   2.277   3.855 -0.3776  0.5513 -0.3106
   86DG     H20 1975   2.340   2.323   3.744 -2.1276 -1.8931 -1.8857
   86DG     H21 1976   2.246   2.176   3.703 -1.1061 -0.9178 -1.6656
   86DG     H22 1977   2.166   2.490   3.863 -0.2539 -0.4958  0.1689
   86DG     H23 1978   2.264   2.387   3.970 -3.5812 -2.4476 -1.0114
   87DG      C1 1979   4.812   3.205   1.365 -0.4637  0.5684 -0.1458
   87DG      C2 1980   5.239   3.475   0.864 -0.7868  0.0563  0.3292
   87DG      H3 1981   4.739   3.151   1.300 -1.0985 -1.4582  0.9857
   87DG      H4 1982   4.773   3.309   1.372 -2.2276 -0.7204  0.9158
   87DG      H5 1983   4.807   3.169   1.463 -1.5312 -0.9261 -3.4864
   87DG      H6 1984   5.143   3.450   0.816 -0.2890  2.9499  0.3502
   87DG      H7 1985   5.224   3.578   0.888  0.6960  1.1061  0.8905
   87DG      H8 1986   5.316   3.468   0.790  0.9371  2.7886  0.1689
   87DG      O9 1987   4.946   3.208   1.309 -0.0172 -0.0037 -0.2606
   87DG     O10 1988   5.264   3.394   0.970  0.1864 -0.0084 -0.2770
   87DG     C11 1989   5.009   3.075   1.294  0.3274 -0.0583  0.3919
   87DG     C12 1990   5.297   3.255   0.965 -0.0275  0.7770 -0.0134
   87DG     H13 1991   4.968   3.021   1.202  1.6389 -1.9906  0.0457
   87DG     H14 1992   4.998   3.012   1.379  0.9230 -1.0987  0.1020
   87DG     H15 1993   5.401   3.255   0.930  2.2327  1.3556  3.2639
   87DG     H16 1994   5.240   3.187   0.904 -2.6661 -2.6161 -1.2398
   87DG     C17 1995   5.158   3.093   1.258 -0.1285  0.6486  0.0840
   87DG     C18 1996   5.303   3.203   1.109  0.1905  0.1743 -0.0655
   87DG     O19 1997   5.170   3.192   1.159  1.0663 -0.2139 -0.3039
   87DG     H20 1998   5.196   2.993   1.234  3.2534 -0.5599  2.4280
   87DG     H21 1999   5.208   3.129   1.348 -0.3187  0.1576 -1.8285
   87DG     H22 2000   5.345   3.102   1.097  0.1325  1.5893 -2.3618
   87DG     H23 2001   5.372   3.255   1.175  1.2159 -2.6414  0.5463
   88DG      C1 2002   3.093   3.484   5.057 -0.2527  0.0455 -0.2291
   88DG      C2 2003   2.730   3.576   4.479 -1.0380 -0.2892  0.1959
   88DG      H3 2004   3.200   3.495   5.085  0.5290 -1.3949  1.0355
   88DG      H4 2005   3.080   3.394   5.001  2.0096  1.4345 -1.0772
   88DG      H5 2006   3.041   3.487   5.146  0.0901  1.6883 -0.2017
   88DG      H6 2007   2.621   3.573   4.498 -2.0523  1.5988  0.9240
   88DG      H7 2008   2.744   3.629   4.384 -1.6129  1.3939 -0.8043
   88DG      H8 2009   2.753   3.473   4.455  2.3456  1.6109 -0.0969
   88DG      O9 2010   3.051   3.586   4.970  0.0333  0.0100  0.9858
   88DG     O10 2011   2.807   3.630   4.595 -0.2108  0.6939  0.1672
   88DG     C11 2012   3.014   3.704   5.038  1.0079 -0.2588 -0.2734
   88DG     C12 2013   2.739   3.743   4.650 -0.3434  0.2478 -0.5479
   88DG     H13 2014   3.092   3.751   5.089  1.6312  0.3844  0.0108
   88DG     H14 2015   2.929   3.690   5.111  1.5458 -1.4119  4.0484
   88DG     H15 2016   2.643   3.706   4.693  0.6988  2.9126  1.2678
   88DG     H16 2017   2.716   3.822   4.586  1.2410 -0.4697  2.0589
   88DG     C17 2018   2.966   3.804   4.931 -0.1946 -1.0050 -0.0912
   88DG     C18 2019   2.825   3.825   4.746  0.2147 -0.0624  0.1379
   88DG     O19 2020   2.876   3.736   4.849  0.1283  0.0051 -0.3979
   88DG     H20 2021   3.047   3.838   4.873  0.4894 -0.8305  1.3012
   88DG     H21 2022   2.922   3.890   4.991  2.4440  1.8409 -1.8339
   88DG     H22 2023   2.920   3.848   4.691  0.4213 -1.0520 -2.0040
   88DG     H23 2024   2.773   3.917   4.776 -0.7730  2.4215 -0.6690
   89DG      C1 2025   4.319   2.078   0.101 -0.0425  0.1323  0.2541
   89DG      C2 2026   4.666   1.533   0.243  0.2729  0.6204  0.0187
   89DG      H3 2027   4.330   2.129   0.193  1.2936 -1.8615 -1.2132
   89DG      H4 2028   4.228   2.013   0.102 -2.4304  0.7427 -0.6485
   89DG      H5 2029   4.296   2.155   0.028 -1.3693  1.1356  0.5014
   89DG      H6 2030   4.726   1.446   0.219  1.3425 -2.8967  0.8890
   89DG      H7 2031   4.674   1.558   0.349  0.0370 -3.7062  2.6049
   89DG      H8 2032   4.570   1.491   0.202  1.1576  0.8135 -1.8685
   89DG      O9 2033   4.429   1.992   0.065 -0.0674  0.1283  0.1057
   89DG     O10 2034   4.695   1.646   0.164  0.0656  0.4812  0.1892
   89DG     C11 2035   4.543   2.064   0.014 -0.2575 -0.2016  0.1394
   89DG     C12 2036   4.805   1.722   0.189  0.0010 -0.1045 -0.2212
   89DG     H13 2037   4.579   2.140   0.082 -0.5838  0.9069 -0.9675
   89DG     H14 2038   4.516   2.124  -0.068 -0.4288  1.3431  0.8235
   89DG     H15 2039   4.895   1.662   0.189  2.1480  1.8982 -0.9928
   89DG     H16 2040   4.798   1.762   0.293 -0.6314 -0.0690  1.3568
   89DG     C17 2041   4.648   1.969  -0.020 -0.4829 -0.5657 -0.0464
   89DG     C18 2042   4.811   1.824   0.071 -1.0378 -0.1255 -0.1039
   89DG     O19 2043   4.684   1.891   0.085  0.5824 -0.2747  0.2400
   89DG     H20 2044   4.730   2.013  -0.074  1.7064 -2.1544 -1.0470
   89DG     H21 2045   4.601   1.892  -0.088 -1.4717 -1.6364 -0.6260
   89DG     H22 2046   4.896   1.898   0.081  0.1990 -0.6319  0.1488
   89DG     H23 2047   4.822   1.770  -0.020  2.7515  1.4968 -0.3603
   90DG      C1 2048   2.787   2.499   3.882  0.0569 -0.0072 -0.6698
   90DG      C2 2049   2.903   1.807   4.203 -0.3417 -0.0392 -0.1385
   90DG      H3 2050   2.692   2.458   3.880  1.4438  0.9441 -0.7577
   90DG      H4 2051   2.829   2.484   3.781 -2.0623  2.6770 -1.9711
   90DG      H5 2052   2.766   2.609   3.896 -3.5066  1.3587  2.8076
   90DG      H6 2053   3.006   1.789   4.232  1.6683  2.3566  1.1477
   90DG      H7 2054   2.834   1.772   4.275 -0.1885  1.2997 -1.2250
   90DG      H8 2055   2.879   1.745   4.114 -0.1228 -1.8820 -0.0695
   90DG      O9 2056   2.867   2.441   3.987  0.0648 -0.0944  0.4001
   90DG     O10 2057   2.886   1.947   4.185  0.1665  0.0955 -0.0868
   90DG     C11 2058   2.798   2.448   4.119  0.0518  0.6609 -0.4594
   90DG     C12 2059   2.899   2.024   4.311  0.0237  0.4418 -0.1813
   90DG     H13 2060   2.717   2.376   4.116 -0.9235  1.8180 -0.6858
   90DG     H14 2061   2.769   2.548   4.150 -0.8123 -0.4369  0.4764
   90DG     H15 2062   3.004   2.017   4.358 -0.8877  1.0284  1.6852
   90DG     H16 2063   2.839   1.967   4.380 -0.8560 -0.4592  0.4460
   90DG     C17 2064   2.895   2.403   4.229  0.0955 -0.4286  0.0655
   90DG     C18 2065   2.860   2.174   4.312 -0.4696  0.5899 -0.0470
   90DG     O19 2066   2.920   2.261   4.218  0.1536  0.4262 -0.0260
   90DG     H20 2067   2.846   2.421   4.325 -1.3782 -3.0223  1.9650
   90DG     H21 2068   2.987   2.456   4.230 -1.0092 -1.0724 -0.8830
   90DG     H22 2069   2.750   2.174   4.314 -0.7695 -1.7926 -4.7615
   90DG     H23 2070   2.895   2.210   4.410  1.9365  1.4551  0.9817
   91DG      C1 2071   3.729   0.164   2.977  0.5287 -0.4418 -0.3609
   91DG      C2 2072   3.673  -0.493   3.131  0.7454  0.1371 -0.5435
   91DG      H3 2073   3.753   0.157   3.082  1.1416  1.3560  1.2384
   91DG      H4 2074   3.645   0.239   2.969 -1.7622 -2.8628 -1.4781
   91DG      H5 2075   3.813   0.206   2.921  0.7529 -2.6173  0.7225
   91DG      H6 2076   3.741  -0.563   3.091 -1.1284  0.5523 -0.0948
   91DG      H7 2077   3.713  -0.452   3.230 -1.7851 -0.4374  1.5703
   91DG      H8 2078   3.573  -0.540   3.144 -0.3409 -0.6145  0.9320
   91DG      O9 2079   3.689   0.037   2.932  0.0132  0.4965 -0.3762
   91DG     O10 2080   3.667  -0.392   3.032 -0.2008  0.3099 -0.2162
   91DG     C11 2081   3.716   0.013   2.792  0.2443  0.0530 -0.7431
   91DG     C12 2082   3.677  -0.454   2.902  0.6022 -0.5370  0.1683
   91DG     H13 2083   3.818   0.031   2.767  0.0678 -1.8019  0.5077
   91DG     H14 2084   3.672   0.085   2.719 -1.5211  2.8125 -1.5418
   91DG     H15 2085   3.601  -0.525   2.871  3.2587 -1.2485 -2.3851
   91DG     H16 2086   3.778  -0.485   2.883  0.9401  2.7132 -0.1809
   91DG     C17 2087   3.658  -0.126   2.746 -0.3882 -0.2259  0.4872
   91DG     C18 2088   3.647  -0.341   2.805  0.0917 -0.0493 -0.2148
   91DG     O19 2089   3.687  -0.212   2.853  0.1348 -0.1129 -0.8968
   91DG     H20 2090   3.713  -0.151   2.657  3.0568  0.7549  3.8920
   91DG     H21 2091   3.549  -0.116   2.724 -1.2158  3.3599 -1.3077
   91DG     H22 2092   3.680  -0.369   2.707  2.4599 -0.0507 -0.0437
   91DG     H23 2093   3.538  -0.334   2.799 -0.0072  0.1845 -0.0414
   92DG      C1 2094   0.298   5.247   0.515  0.0018 -0.2683 -0.7828
   92DG      C2 2095   0.765   5.687   0.261  0.2872 -0.8413  0.2840
   92DG      H3 2096   0.204   5.306   0.527  1.4820 -0.0156  1.8508
   92DG      H4 2097   0.283   5.140   0.543  2.5454 -3.5525  1.7555
   92DG      H5 2098   0.324   5.254   0.417  0.8560 -3.1571  2.7034
   92DG      H6 2099   0.829   5.759   0.315  1.6422  0.5599  2.2993
   92DG      H7 2100   0.811   5.640   0.172 -0.3014  0.8836 -0.8603
   92DG      H8 2101   0.674   5.738   0.225  2.2103  1.8818  2.1539
   92DG      O9 2102   0.410   5.302   0.584  0.4070  0.0600  0.2389
   92DG     O10 2103   0.727   5.596   0.358 -0.0464 -0.1429 -0.3129
   92DG     C11 2104   0.520   5.212   0.590  0.1099  0.3692 -0.5159
   92DG     C12 2105   0.843   5.527   0.414 -0.1900 -0.4904 -0.5873
   92DG     H13 2106   0.538   5.161   0.495 -0.2528  0.6704  1.1824
   92DG     H14 2107   0.516   5.134   0.666 -0.5403 -3.2028 -1.8755
   92DG     H15 2108   0.924   5.608   0.438  0.2853  0.9059 -0.7009
   92DG     H16 2109   0.886   5.454   0.340  1.4461  2.5221 -3.1974
   92DG     C17 2110   0.645   5.298   0.619 -0.4177  0.2773  0.0488
   92DG     C18 2111   0.800   5.453   0.536  0.3919 -0.3243  0.5845
   92DG     O19 2112   0.686   5.383   0.512  0.5318  0.4667  0.7078
   92DG     H20 2113   0.721   5.220   0.641  0.0960  0.6425  2.0815
   92DG     H21 2114   0.637   5.359   0.711 -3.2141 -0.4677  0.0062
   92DG     H22 2115   0.878   5.382   0.558 -0.5494 -0.0702 -2.3060
   92DG     H23 2116   0.788   5.512   0.624  0.2317 -3.0892 -1.3013
   93DG      C1 2117   0.655   3.644   4.143  0.2426 -0.3870  0.1883
   93DG      C2 2118   1.272   3.584   3.895 -0.5050 -0.3131  0.0954
   93DG      H3 2119   0.550   3.676   4.124 -2.7639 -0.9781  2.6817
   93DG      H4 2120   0.686   3.722   4.219 -0.6475 -2.1477 -0.6352
   93DG      H5 2121   0.645   3.546   4.188  2.1204 -0.5707 -1.5852
   93DG      H6 2122   1.320   3.508   3.960  1.1849 -0.5309 -0.9753
   93DG      H7 2123   1.343   3.603   3.816 -0.2042 -0.9410 -0.7419
   93DG      H8 2124   1.278   3.677   3.951  0.6961 -0.8064 -3.1326
   93DG      O9 2125   0.730   3.641   4.024 -0.1421 -0.3351 -0.0818
   93DG     O10 2126   1.137   3.571   3.848 -0.1673  0.0053 -0.3167
   93DG     C11 2127   0.670   3.566   3.919  0.4173 -0.9091  0.1237
   93DG     C12 2128   1.110   3.649   3.732  0.3824 -0.1997  0.1688
   93DG     H13 2129   0.567   3.589   3.912  0.6704  1.2986  0.4028
   93DG     H14 2130   0.662   3.463   3.938  1.2745 -1.4977 -0.2134
   93DG     H15 2131   1.175   3.645   3.646  0.7826 -1.9875 -0.1846
   93DG     H16 2132   1.118   3.755   3.760 -1.1615 -0.7048  0.1808
   93DG     C17 2133   0.740   3.586   3.780  0.4751 -0.2070  0.0147
   93DG     C18 2134   0.962   3.621   3.690  0.5832  1.1761  0.0178
   93DG     O19 2135   0.881   3.620   3.810  0.2991  0.2115  0.5637
   93DG     H20 2136   0.698   3.671   3.733  2.2861 -0.5465  1.7340
   93DG     H21 2137   0.723   3.495   3.720 -2.7410 -0.0879 -0.0745
   93DG     H22 2138   0.943   3.703   3.621  1.0596 -1.2904 -1.3196
   93DG     H23 2139   0.955   3.531   3.637  0.7864  2.1332 -0.8325
   94DG      C1 2140   5.227   4.281   4.470  0.2772  0.0558 -0.0807
   94DG      C2 2141   5.868   3.906   4.222  0.1090 -0.1188  0.1172
   94DG      H3 2142   5.200   4.369   4.408 -0.0310 -2.9173  0.6195
   94DG      H4 2143   5.186   4.309   4.564  0.2973 -1.9739 -2.0142
   94DG      H5 2144   5.163   4.203   4.426  0.6575 -0.5765  0.8396
   94DG      H6 2145   5.967   3.901   4.260 -0.4421 -3.9823 -3.5795
   94DG      H7 2146   5.845   3.797   4.209  2.4905  0.8747  0.9396
   94DG      H8 2147   5.867   3.945   4.122 -1.7144 -0.0279  3.3840
   94DG      O9 2148   5.364   4.273   4.496  0.6855  0.1372  0.4491
   94DG     O10 2149   5.770   3.965   4.308  0.2382 -0.0995 -0.9099
   94DG     C11 2150   5.390   4.163   4.579  0.3998 -0.4151  0.0893
   94DG     C12 2151   5.794   4.101   4.328  0.5032 -0.8623  0.2930
   94DG     H13 2152   5.361   4.074   4.537 -1.9707 -0.9309 -0.7568
   94DG     H14 2153   5.336   4.178   4.676  1.2566  0.7825  1.1889
   94DG     H15 2154   5.741   4.152   4.253 -0.2785 -1.4951 -0.5873
   94DG     H16 2155   5.892   4.128   4.316 -0.6869 -3.5172 -0.8210
   94DG     C17 2156   5.547   4.166   4.603  0.5380 -1.0218  0.0854
   94DG     C18 2157   5.742   4.154   4.464 -0.1555 -0.7621 -0.6866
   94DG     O19 2158   5.600   4.140   4.475  0.1832  0.1065 -0.0988
   94DG     H20 2159   5.577   4.101   4.680  1.2776 -1.6126  0.1187
   94DG     H21 2160   5.576   4.263   4.645 -1.6596 -0.2693  2.3873
   94DG     H22 2161   5.795   4.100   4.543 -2.4045 -0.7812  1.1248
   94DG     H23 2162   5.764   4.261   4.481  1.1929 -2.0474  0.5343
   95DG      C1 2163   3.140   2.237   5.101  0.5161  0.0733  0.3420
   95DG      C2 2164   3.545   2.702   5.305  0.4366  0.1533 -0.0462
   95DG      H3 2165   3.229   2.201   5.048 -0.8958  0.5954  0.4914
   95DG      H4 2166   3.073   2.268   5.018 -0.8665  1.0177 -0.6701
   95DG      H5 2167   3.088   2.156   5.159  0.6456  0.0696  1.7535
   95DG      H6 2168   3.602   2.765   5.379  0.1609  1.2886  0.7288
   95DG      H7 2169   3.606   2.608   5.285  4.5601  3.6791  2.2246
   95DG      H8 2170   3.542   2.752   5.205 -0.6373  1.1847 -1.3787
   95DG      O9 2171   3.163   2.343   5.189 -0.5833 -0.6777  0.0499
   95DG     O10 2172   3.421   2.662   5.360  0.6520  0.4650  0.1264
   95DG     C11 2173   3.051   2.388   5.263  0.7803  0.7218 -0.2980
   95DG     C12 2174   3.329   2.763   5.362  0.3459 -0.4253  0.8753
   95DG     H13 2175   3.003   2.310   5.317 -1.2849 -1.5445 -0.3636
   95DG     H14 2176   2.981   2.422   5.183  0.9941 -0.0639  1.2989
   95DG     H15 2177   3.329   2.809   5.263  0.8069  0.5660  3.4859
   95DG     H16 2178   3.351   2.840   5.442  1.4377 -1.7771 -1.2622
   95DG     C17 2179   3.072   2.494   5.365 -0.2439 -0.4073 -0.2611
   95DG     C18 2180   3.186   2.707   5.390  0.0483  0.7769  0.8980
   95DG     O19 2181   3.178   2.585   5.323  0.5229 -0.2325  0.2559
   95DG     H20 2182   3.113   2.446   5.452 -3.7101 -2.4319  0.2788
   95DG     H21 2183   2.977   2.541   5.405  0.0995  1.0296  0.0936
   95DG     H22 2184   3.190   2.693   5.493  1.2391 -0.3256 -2.2827
   95DG     H23 2185   3.106   2.775   5.368  1.0691  0.9545  2.5117
   96DG      C1 2186   1.120   4.692   2.920 -0.2037  0.6660 -0.2382
   96DG      C2 2187   1.114   5.037   2.299 -0.5891 -0.4961 -0.0214
   96DG      H3 2188   1.021   4.671   2.921  1.4705  0.2436  1.2373
   96DG      H4 2189   1.135   4.794   2.939 -0.2912 -1.3591  1.4380
   96DG      H5 2190   1.179   4.623   2.991  0.3576 -0.7514 -0.3167
   96DG      H6 2191   1.194   5.109   2.289  0.7597 -0.4695  0.1901
   96DG      H7 2192   1.062   5.010   2.203 -1.8766  0.9025 -0.4515
   96DG      H8 2193   1.049   5.098   2.358  1.3601 -0.9847  1.4135
   96DG      O9 2194   1.165   4.665   2.793 -0.3419 -0.3975 -0.4512
   96DG     O10 2195   1.158   4.930   2.378  0.2281 -0.5433 -0.6525
   96DG     C11 2196   1.300   4.683   2.767  0.1163 -0.6295 -0.6870
   96DG     C12 2197   1.253   4.847   2.312 -0.0627  0.4207  0.0010
   96DG     H13 2198   1.365   4.617   2.827  0.8266  0.6582 -1.8804
   96DG     H14 2199   1.328   4.792   2.784 -0.4910  0.2681 -1.2664
   96DG     H15 2200   1.327   4.907   2.265 -0.8630 -0.0171 -2.5145
   96DG     H16 2201   1.201   4.815   2.219 -0.1533 -1.0223 -1.5355
   96DG     C17 2202   1.321   4.651   2.621 -0.0183  0.3352  0.1190
   96DG     C18 2203   1.315   4.736   2.401 -0.2502  0.3262 -0.1486
   96DG     O19 2204   1.271   4.755   2.538  0.0039  0.7545 -0.3284
   96DG     H20 2205   1.269   4.556   2.592 -2.5646 -3.1723 -1.7153
   96DG     H21 2206   1.433   4.635   2.606 -1.3823  0.4347  1.5491
   96DG     H22 2207   1.297   4.637   2.371  0.4212  1.3550 -1.0332
   96DG     H23 2208   1.422   4.745   2.401  1.0494  1.9168 -0.7536
   97DG      C1 2209   1.529   3.044   0.046  0.4554 -0.7248 -0.2603
   97DG      C2 2210   1.781   3.634   0.335  0.2821 -0.0619 -0.2506
   97DG      H3 2211   1.534   3.113  -0.044  2.4447  1.5186 -1.6711
   97DG      H4 2212   1.439   3.063   0.106  0.6532 -0.5468  3.1405
   97DG      H5 2213   1.521   2.940   0.023  0.2512  0.5921 -1.5876
   97DG      H6 2214   1.712   3.677   0.405 -0.7762 -0.4361  1.6149
   97DG      H7 2215   1.885   3.648   0.363 -0.1382 -1.6615  0.2294
   97DG      H8 2216   1.766   3.685   0.242  1.9379  0.5192  0.3721
   97DG      O9 2217   1.642   3.071   0.137  0.3069 -0.1178  0.2939
   97DG     O10 2218   1.752   3.494   0.318  0.4676 -0.5099 -0.3684
   97DG     C11 2219   1.639   3.011   0.269 -0.3295  0.3894 -0.0156
   97DG     C12 2220   1.778   3.437   0.447  1.4022 -0.9869  0.4065
   97DG     H13 2221   1.660   2.900   0.272  2.9244 -2.8151 -0.0531
   97DG     H14 2222   1.546   3.026   0.324 -1.2236 -1.0491  1.5474
   97DG     H15 2223   1.688   3.455   0.501 -0.3538 -0.1011  0.4636
   97DG     H16 2224   1.858   3.490   0.499  0.1431  2.2149  1.2661
   97DG     C17 2225   1.752   3.085   0.339  0.2458  0.6910  0.6302
   97DG     C18 2226   1.810   3.285   0.433  0.5584 -0.3252  0.0864
   97DG     O19 2227   1.712   3.214   0.354 -0.2848 -0.0818  0.0761
   97DG     H20 2228   1.839   3.076   0.276  2.7741  1.4277  1.9015
   97DG     H21 2229   1.784   3.036   0.428 -0.1327 -0.3881 -5.8598
   97DG     H22 2230   1.906   3.275   0.404 -1.7955  1.2138 -0.1084
   97DG     H23 2231   1.814   3.241   0.534 -1.0332  0.7583 -0.0580
   98DG      C1 2232   5.479   2.528   4.567  0.0066 -0.4314 -0.7066
   98DG      C2 2233   5.175   2.859   4.014 -0.6492  0.6468  0.2089
   98DG      H3 2234   5.571   2.510   4.617  2.2198 -3.0568 -2.3493
   98DG      H4 2235   5.437   2.432   4.544  1.4918 -0.8895  2.6098
   98DG      H5 2236   5.412   2.574   4.645  0.4991 -1.2019 -1.4948
   98DG      H6 2237   5.108   2.928   4.073  0.3400  0.2204 -2.4636
   98DG      H7 2238   5.190   2.902   3.913 -1.5874 -0.0251  1.6359
   98DG      H8 2239   5.125   2.767   3.987 -0.2600 -0.5678 -1.2172
   98DG      O9 2240   5.489   2.618   4.451  0.6487  0.5003 -0.0160
   98DG     O10 2241   5.295   2.842   4.098 -0.2081  0.0895  0.1606
   98DG     C11 2242   5.551   2.742   4.480  0.1859  0.6086 -0.0400
   98DG     C12 2243   5.379   2.957   4.095 -0.1590  0.8014  0.9161
   98DG     H13 2244   5.648   2.731   4.531  0.2750 -2.3736 -1.9557
   98DG     H14 2245   5.494   2.805   4.542  1.2039  1.5014 -0.2781
   98DG     H15 2246   5.333   3.036   4.154 -0.9021 -0.4800  1.4249
   98DG     H16 2247   5.387   2.987   3.985 -0.1088  1.0023 -1.0747
   98DG     C17 2248   5.598   2.817   4.353  0.6092 -0.0019 -1.1087
   98DG     C18 2249   5.508   2.910   4.157 -0.6574 -0.6444  0.2942
   98DG     O19 2250   5.480   2.837   4.277 -0.4256 -0.0132 -0.0452
   98DG     H20 2251   5.670   2.762   4.289  0.3544 -2.5066 -0.2931
   98DG     H21 2252   5.637   2.915   4.378 -1.0296  0.8963 -1.0285
   98DG     H22 2253   5.564   2.846   4.086  1.3889 -0.6326  0.6479
   98DG     H23 2254   5.571   2.991   4.168 -0.1526  1.4262  2.4579
   99DG      C1 2255   2.854   1.513   3.428  0.3634  0.6778 -0.1171
   99DG      C2 2256   2.433   1.417   2.885  0.8184 -0.8230 -0.3662
   99DG      H3 2257   2.919   1.580   3.493  0.8453  0.2421  1.1354
   99DG      H4 2258   2.899   1.414   3.407  0.0907  0.3482  0.3785
   99DG      H5 2259   2.768   1.495   3.490  4.1598  0.6666 -2.3908
   99DG      H6 2260   2.374   1.476   2.809 -0.8127 -0.7887 -0.7521
   99DG      H7 2261   2.477   1.343   2.824 -1.5490  0.8498  0.2170
   99DG      H8 2262   2.369   1.375   2.961  2.2113 -1.0253 -0.6820
   99DG      O9 2263   2.810   1.584   3.313 -0.4180 -0.6049 -0.1459
   99DG     O10 2264   2.542   1.492   2.939 -0.2695 -0.3966  0.0170
   99DG     C11 2265   2.914   1.634   3.237 -0.2162  0.1095  0.0397
   99DG     C12 2266   2.666   1.508   2.867  0.7214  0.6267  1.1442
   99DG     H13 2267   2.978   1.554   3.207 -0.3138  0.9924 -1.6206
   99DG     H14 2268   2.970   1.706   3.293  1.0544 -0.0920  2.4293
   99DG     H15 2269   2.632   1.525   2.757 -0.6886 -3.6508 -2.9164
   99DG     H16 2270   2.724   1.414   2.887 -0.8668 -1.1279 -0.2625
   99DG     C17 2271   2.859   1.708   3.114 -0.6053  0.3345  0.0268
   99DG     C18 2272   2.738   1.628   2.921 -0.0673 -0.1123  0.0366
   99DG     O19 2273   2.806   1.598   3.040 -0.2672  0.0014 -0.5460
   99DG     H20 2274   2.942   1.761   3.057  1.0519  0.6303  0.8079
   99DG     H21 2275   2.790   1.780   3.147  1.8269 -1.2082 -0.7068
   99DG     H22 2276   2.814   1.659   2.852  0.5413 -2.1304  1.8789
   99DG     H23 2277   2.678   1.713   2.933  4.2682 -1.9270 -0.7342
  100DG      C1 2278   5.102   5.187   4.983 -0.3329  0.3771  0.8260
  100DG      C2 2279   5.712   5.140   5.344 -0.2926 -0.2557  0.5061
  100DG      H3 2280   5.042   5.131   5.055  2.2611 -0.0098  1.0933
  100DG      H4 2281   5.138   5.121   4.902  3.1138  1.6933 -0.0050
  100DG      H5 2282   5.034   5.258   4.941 -2.1311 -1.1377  2.4908
  100DG      H6 2283   5.702   5.072   5.424  1.6870  1.3185 -2.4770
  100DG      H7 2284   5.751   5.082   5.262  0.3487  0.4196  1.2469
  100DG      H8 2285   5.786   5.210   5.376  0.2480  0.7308  0.6839
  100DG      O9 2286   5.204   5.241   5.066 -0.1751 -0.3029  0.1856
  100DG     O10 2287   5.593   5.211   5.313  0.4770  0.4041  0.2851
  100DG     C11 2288   5.149   5.330   5.159 -0.1270  0.1689 -0.3855
  100DG     C12 2289   5.556   5.309   5.417 -0.5374 -0.6742 -0.2952
  100DG     H13 2290   5.093   5.271   5.236 -1.5867 -0.3070  0.2526
  100DG     H14 2291   5.073   5.399   5.114 -1.3440 -1.7524 -0.1766
  100DG     H15 2292   5.642   5.365   5.451  0.9622  0.2563  0.4356
  100DG     H16 2293   5.507   5.263   5.505 -0.2006  2.5172  2.1503
  100DG     C17 2294   5.240   5.422   5.243 -0.0862 -0.1286  0.0195
  100DG     C18 2295   5.454   5.412   5.363 -0.1296  0.1163  0.0764
  100DG     O19 2296   5.346   5.342   5.296  0.0543 -0.1783  0.5672
  100DG     H20 2297   5.186   5.476   5.319 -0.3818  0.3740 -0.1485
  100DG     H21 2298   5.285   5.497   5.175  2.8823 -3.3967  2.6446
  100DG     H22 2299   5.406   5.455   5.448  0.0914  1.7191  0.7428
  100DG     H23 2300   5.491   5.496   5.302 -0.2033  0.4965  2.8410
  101DG      C1 2301   3.016   2.004   1.467  0.3107  0.0249  0.0847
  101DG      C2 2302   2.746   2.621   1.372 -0.2050 -0.1089 -0.2994
  101DG      H3 2303   3.030   1.897   1.445  0.5406 -1.1080 -0.7548
  101DG      H4 2304   2.974   2.022   1.564  0.3559 -0.6618  2.5870
  101DG      H5 2305   3.110   2.064   1.465 -0.5631 -0.8366 -0.0546
  101DG      H6 2306   2.832   2.656   1.425 -1.4551  1.4495 -0.3817
  101DG      H7 2307   2.718   2.696   1.302 -0.5452 -1.1230  0.4346
  101DG      H8 2308   2.680   2.595   1.456 -0.9546  1.6466  4.8994
  101DG      O9 2309   2.943   2.079   1.378 -0.1573  0.4168  0.0661
  101DG     O10 2310   2.783   2.510   1.291 -0.1104  0.2529  0.6231
  101DG     C11 2311   2.830   2.012   1.325  0.6321 -0.4550  0.2754
  101DG     C12 2312   2.678   2.448   1.210  1.0070 -0.3414  0.2248
  101DG     H13 2313   2.745   2.009   1.393 -0.1523 -1.1745 -0.1031
  101DG     H14 2314   2.851   1.914   1.296  0.5078  2.2555  0.4918
  101DG     H15 2315   2.653   2.507   1.126 -1.9768 -1.9681  1.1060
  101DG     H16 2316   2.595   2.426   1.276  2.4321  0.1874  0.9804
  101DG     C17 2317   2.792   2.090   1.201  0.3282 -0.3497 -0.1366
  101DG     C18 2318   2.747   2.316   1.144  0.2441  0.2022 -0.0372
  101DG     O19 2319   2.782   2.227   1.246  0.1319  0.9842  0.2909
  101DG     H20 2320   2.707   2.044   1.156  0.3319  1.0821 -0.2565
  101DG     H21 2321   2.885   2.079   1.141 -0.4647  2.1931  1.9738
  101DG     H22 2322   2.679   2.272   1.074  0.8197  0.0019  0.2492
  101DG     H23 2323   2.836   2.344   1.094 -1.5596  0.4152  0.0809
  102DG      C1 2324   2.684   0.157   3.857  0.0429  0.5219  0.1195
  102DG      C2 2325   2.716  -0.028   4.539 -0.3265 -0.4624 -0.1211
  102DG      H3 2326   2.772   0.086   3.849  2.7127  0.9680  1.7491
  102DG      H4 2327   2.705   0.234   3.781 -0.4354  1.0472 -2.8956
  102DG      H5 2328   2.595   0.113   3.815 -0.8407 -0.3178  1.3551
  102DG      H6 2329   2.693  -0.128   4.506 -0.1984  1.5664 -0.4202
  102DG      H7 2330   2.832  -0.021   4.549  1.7861 -2.6899  0.7219
  102DG      H8 2331   2.669  -0.018   4.636  0.7520  2.6059  0.0093
  102DG      O9 2332   2.645   0.189   3.991 -0.3180  0.1840 -0.2946
  102DG     O10 2333   2.665   0.052   4.436 -0.0797 -0.0717 -0.1642
  102DG     C11 2334   2.531   0.276   4.005  0.4847 -0.2965  0.2082
  102DG     C12 2335   2.529   0.074   4.442  0.5242 -0.4038 -0.1534
  102DG     H13 2336   2.446   0.219   3.967 -0.0969  1.4986  1.2894
  102DG     H14 2337   2.533   0.371   3.959 -2.2419 -1.8424 -1.2314
  102DG     H15 2338   2.492   0.083   4.544 -1.2984  0.2864  1.5654
  102DG     H16 2339   2.476  -0.010   4.395 -2.0119  2.8687  1.1543
  102DG     C17 2340   2.504   0.306   4.152  0.0875  0.0647  0.5895
  102DG     C18 2341   2.494   0.203   4.367  0.3804 -0.2288 -0.5403
  102DG     O19 2342   2.528   0.191   4.229  0.0623  0.3851  0.2067
  102DG     H20 2343   2.397   0.328   4.159  0.7283 -1.3571 -1.4487
  102DG     H21 2344   2.543   0.400   4.194 -1.6839 -1.2913  0.9075
  102DG     H22 2345   2.387   0.232   4.377 -0.6143 -1.9564 -0.9001
  102DG     H23 2346   2.544   0.283   4.414 -1.5023 -0.4192 -1.3164
  103DG      C1 2347   2.856   2.780   3.586  0.7675 -0.2202  0.1534
  103DG      C2 2348   2.807   2.452   3.001 -0.1105  0.2074  0.7887
  103DG      H3 2349   2.759   2.740   3.605  0.0555  1.2974 -2.7262
  103DG      H4 2350   2.847   2.889   3.603 -2.1141  1.8469  0.8322
  103DG      H5 2351   2.922   2.743   3.670 -1.9826 -0.2278  2.3621
  103DG      H6 2352   2.803   2.376   3.079  1.6563 -0.2229  1.2379
  103DG      H7 2353   2.727   2.433   2.934 -1.9172 -0.0642  1.0220
  103DG      H8 2354   2.894   2.439   2.938 -0.2864  1.7371  0.8787
  103DG      O9 2355   2.905   2.735   3.468  0.1731  0.1693  0.1859
  103DG     O10 2356   2.781   2.588   3.041  0.1943  0.1844  0.4732
  103DG     C11 2357   3.022   2.799   3.430  0.0182 -0.1146 -0.1176
  103DG     C12 2358   2.865   2.692   2.983 -0.0031 -0.5540 -0.6152
  103DG     H13 2359   3.095   2.800   3.513 -2.3369  0.3938  0.6268
  103DG     H14 2360   3.003   2.906   3.421  0.7194 -0.4478 -1.1254
  103DG     H15 2361   2.823   2.787   3.013  0.7537  0.6945 -0.7091
  103DG     H16 2362   2.876   2.696   2.870 -2.3402 -0.1306 -1.6812
  103DG     C17 2363   3.074   2.724   3.304 -0.4874 -0.7428  0.4807
  103DG     C18 2364   2.995   2.686   3.075 -0.7918  0.6826  0.2746
  103DG     O19 2365   2.965   2.726   3.208 -0.2038 -0.6140 -0.9067
  103DG     H20 2366   3.091   2.618   3.331 -1.1446  0.8470  1.4525
  103DG     H21 2367   3.165   2.763   3.250 -1.1884  1.8814  1.5371
  103DG     H22 2368   3.056   2.600   3.066 -0.4152 -0.0054 -0.4182
  103DG     H23 2369   3.065   2.763   3.032  2.4124 -0.1331  2.3247
  104DG      C1 2370   4.126   5.132   3.761 -0.8739  0.5676 -0.6605
  104DG      C2 2371   4.021   4.501   3.537  0.4535  0.4624 -0.8711
  104DG      H3 2372   4.081   5.225   3.797 -1.5987  0.9801  3.0042
  104DG      H4 2373   4.144   5.131   3.654  0.5705 -1.5545 -3.1621
  104DG      H5 2374   4.216   5.120   3.816 -0.7776  4.5215 -1.6824
  104DG      H6 2375   4.106   4.455   3.572  1.0569 -0.3910  0.6146
  104DG      H7 2376   3.945   4.421   3.542  2.8853 -0.0405  3.2474
  104DG      H8 2377   4.048   4.533   3.435 -0.1267 -3.3498 -1.6107
  104DG      O9 2378   4.027   5.036   3.792 -0.1861  0.3250 -0.3061
  104DG     O10 2379   3.988   4.608   3.619 -0.4339  0.1456 -0.1533
  104DG     C11 2380   4.025   4.999   3.923 -0.4529  0.4822  0.7847
  104DG     C12 2381   3.965   4.561   3.747  0.2367 -0.1789  0.7371
  104DG     H13 2382   3.974   5.077   3.980  0.3934  0.9766 -1.2738
  104DG     H14 2383   4.119   4.964   3.957  0.1890 -0.2759 -0.9555
  104DG     H15 2384   4.066   4.532   3.775  0.1222 -0.7126 -0.4886
  104DG     H16 2385   3.910   4.472   3.750  0.8755  1.8171  1.3216
  104DG     C17 2386   3.938   4.877   3.927  0.2947 -0.7157 -0.5691
  104DG     C18 2387   3.898   4.665   3.836  0.0179  0.2937  0.2633
  104DG     O19 2388   3.990   4.770   3.849  0.5365 -0.2286  0.0785
  104DG     H20 2389   3.836   4.907   3.900  1.8530 -1.3947  0.2461
  104DG     H21 2390   3.935   4.853   4.033  0.0340  2.0966 -0.2914
  104DG     H22 2391   3.807   4.709   3.796 -0.6827  1.3034  1.0979
  104DG     H23 2392   3.870   4.620   3.927 -0.5494 -0.7403  0.1136
  105DG      C1 2393   0.532   3.419   4.489  0.7274 -0.0884 -0.1525
  105DG      C2 2394   0.338   3.833   5.049 -0.1146  0.1807  0.1641
  105DG      H3 2395   0.492   3.362   4.402 -0.9297 -0.5592  2.3074
  105DG      H4 2396   0.570   3.339   4.544  0.6450  0.7842  1.2152
  105DG      H5 2397   0.626   3.464   4.451  0.8422  1.5244 -3.1832
  105DG      H6 2398   0.309   3.937   5.084 -0.7502  1.4809 -0.2404
  105DG      H7 2399   0.276   3.758   5.099 -0.0980 -1.3298  1.2080
  105DG      H8 2400   0.441   3.813   5.085 -0.4715  1.4578 -0.6491
  105DG      O9 2401   0.435   3.502   4.548  0.3168  0.1582 -0.1172
  105DG     O10 2402   0.339   3.815   4.911  0.0363  0.1875  0.3427
  105DG     C11 2403   0.388   3.610   4.469 -0.0654 -0.3671 -0.3345
  105DG     C12 2404   0.211   3.833   4.862 -0.2754 -0.5592  0.0267
  105DG     H13 2405   0.367   3.570   4.368  0.5104 -1.2914  2.0956
  105DG     H14 2406   0.466   3.678   4.442  0.7695 -1.0013 -2.1166
  105DG     H15 2407   0.165   3.919   4.889 -0.1853 -1.7242  1.0050
  105DG     H16 2408   0.143   3.753   4.893  1.5474 -1.1565 -0.4923
  105DG     C17 2409   0.270   3.676   4.535  0.6129 -0.3922 -0.9198
  105DG     C18 2410   0.223   3.825   4.713 -0.7610 -0.1852 -0.4401
  105DG     O19 2411   0.291   3.711   4.668  0.3208 -0.0920 -0.1732
  105DG     H20 2412   0.186   3.609   4.523  1.3771  0.2613  1.0326
  105DG     H21 2413   0.242   3.766   4.474 -2.1981 -0.7384 -1.5551
  105DG     H22 2414   0.120   3.836   4.673 -1.8181  2.1980  0.3891
  105DG     H23 2415   0.283   3.913   4.680  0.5964  0.4948  2.7199
  106DG      C1 2416   1.531   2.915   4.365  0.1499 -0.3739  0.0153
  106DG      C2 2417   2.001   2.786   4.074 -0.2559 -0.3671 -0.7499
  106DG      H3 2418   1.476   2.819   4.347 -3.0606 -2.8259  0.8988
  106DG      H4 2419   1.521   2.985   4.282 -0.9801  1.3594  2.8476
  106DG      H5 2420   1.478   2.963   4.452  0.1339  3.3317 -1.5763
  106DG      H6 2421   1.947   2.836   3.991 -0.5357 -0.9246  1.0530
  106DG      H7 2422   2.094   2.736   4.037  0.4921 -1.8662 -0.9177
  106DG      H8 2423   1.940   2.704   4.114 -2.6073  3.8451  3.2049
  106DG      O9 2424   1.669   2.913   4.379 -0.3712 -0.5900  0.1286
  106DG     O10 2425   2.031   2.879   4.175 -0.6457 -0.0753 -0.1209
  106DG     C11 2426   1.719   2.856   4.498  0.4618 -0.0505  1.1482
  106DG     C12 2427   2.112   2.828   4.280 -0.0675  0.2880  0.3700
  106DG     H13 2428   1.661   2.760   4.516 -0.8611 -1.1104  2.5417
  106DG     H14 2429   1.696   2.922   4.581 -0.2504  2.2928  0.1164
  106DG     H15 2430   2.118   2.900   4.355  1.7906  1.6843 -0.6619
  106DG     H16 2431   2.208   2.799   4.233  0.3979  0.5030  0.4276
  106DG     C17 2432   1.868   2.837   4.480  0.0876 -0.0242 -0.0199
  106DG     C18 2433   2.034   2.715   4.348  0.4527  0.2801  0.3952
  106DG     O19 2434   1.896   2.766   4.358 -0.0147 -0.6554 -0.4111
  106DG     H20 2435   1.913   2.799   4.570 -0.7843  2.5396  2.1672
  106DG     H21 2436   1.918   2.935   4.473 -0.0432  1.6335  0.3475
  106DG     H22 2437   2.045   2.619   4.291 -1.5440 -1.5051  0.8206
  106DG     H23 2438   2.075   2.680   4.450  1.9022  1.5102 -0.1622
  107DG      C1 2439   2.766   3.444   5.334  0.0908  0.0826  0.4148
  107DG      C2 2440   3.220   3.278   5.792  0.5793 -0.2740  0.0246
  107DG      H3 2441   2.777   3.400   5.234 -1.0792  1.4298 -0.4031
  107DG      H4 2442   2.792   3.550   5.311  1.4979 -0.1717  2.2869
  107DG      H5 2443   2.655   3.431   5.349  0.0099  1.2598  0.5956
  107DG      H6 2444   3.275   3.203   5.729  0.9208  0.4891  1.1190
  107DG      H7 2445   3.247   3.371   5.749 -0.8874 -1.4606 -3.7592
  107DG      H8 2446   3.265   3.272   5.891 -0.4054 -0.4630  0.8493
  107DG      O9 2447   2.833   3.370   5.435 -0.5408 -0.1819 -0.4302
  107DG     O10 2448   3.081   3.270   5.783 -0.3588  0.0081  0.1040
  107DG     C11 2449   2.809   3.225   5.426 -0.0590 -0.5613  0.4738
  107DG     C12 2450   3.035   3.142   5.809  0.1610  0.6248  0.4178
  107DG     H13 2451   2.846   3.188   5.331 -1.1588  0.5545 -1.1107
  107DG     H14 2452   2.708   3.196   5.435 -1.4459  0.6431 -1.8998
  107DG     H15 2453   3.046   3.108   5.912 -0.6550 -0.0788  0.8968
  107DG     H16 2454   3.080   3.073   5.734  1.9931  0.6945  0.4429
  107DG     C17 2455   2.894   3.133   5.517 -0.1028 -0.0666  0.6494
  107DG     C18 2456   2.892   3.131   5.758  0.4338  0.1615 -0.4653
  107DG     O19 2457   2.865   3.200   5.639 -0.1019  0.7825  0.2287
  107DG     H20 2458   2.998   3.144   5.499 -0.1422 -4.4857 -0.0271
  107DG     H21 2459   2.865   3.030   5.519  0.2075  2.7279 -0.3305
  107DG     H22 2460   2.852   3.032   5.752 -2.1990  0.1003  1.4391
  107DG     H23 2461   2.833   3.183   5.834 -0.3991  0.1874  1.3101
  108DG      C1 2462   0.344   4.649   0.612  0.4724  0.5139 -0.3916
  108DG      C2 2463  -0.029   4.598   1.060  0.2004 -0.5438 -0.3823
  108DG      H3 2464   0.421   4.678   0.540 -1.5874 -0.5981 -0.0880
  108DG      H4 2465   0.312   4.538   0.592 -1.2722 -1.5695  1.9989
  108DG      H5 2466   0.394   4.645   0.713  3.1294 -2.6232  2.2780
  108DG      H6 2467  -0.034   4.550   0.965  0.6338 -1.2337  0.7063
  108DG      H7 2468  -0.019   4.516   1.128 -1.3269  0.2224 -1.3548
  108DG      H8 2469  -0.131   4.643   1.069  0.7569 -1.0953  0.4194
  108DG      O9 2470   0.237   4.739   0.611 -0.3250 -0.6806  0.3716
  108DG     O10 2471   0.068   4.696   1.062 -0.3414 -0.0044  0.1723
  108DG     C11 2472   0.269   4.874   0.633 -0.2494 -0.1539 -0.2582
  108DG     C12 2473   0.199   4.656   1.017 -0.0120 -0.6454  0.7327
  108DG     H13 2474   0.185   4.935   0.616 -0.1896 -0.9802  0.8081
  108DG     H14 2475   0.341   4.918   0.568  0.2091 -0.6912 -2.4912
  108DG     H15 2476   0.196   4.608   0.917  1.8212  0.0327 -0.7015
  108DG     H16 2477   0.262   4.595   1.083 -1.2494  2.0598  0.9766
  108DG     C17 2478   0.317   4.894   0.778 -0.1345  0.4679 -0.6525
  108DG     C18 2479   0.270   4.792   0.986 -0.1481  0.0673  0.0281
  108DG     O19 2480   0.217   4.833   0.860  0.5300  0.4885 -0.4061
  108DG     H20 2481   0.324   5.005   0.800  0.0371 -0.2591  0.0641
  108DG     H21 2482   0.419   4.855   0.783  2.3052 -2.9202 -0.5218
  108DG     H22 2483   0.243   4.876   1.062  0.5487 -0.9943  1.7999
  108DG     H23 2484   0.377   4.774   0.984  0.9668 -0.5240  0.3496
  109DG      C1 2485   0.041   2.844   2.974 -0.4915  0.3581  0.9357
  109DG      C2 2486  -0.005   2.816   3.614  0.3566 -1.0070  0.2499
  109DG      H3 2487  -0.030   2.915   2.951  1.4120 -3.0228 -0.5927
  109DG      H4 2488  -0.012   2.748   2.996  1.0636  1.5862 -0.6453
  109DG      H5 2489   0.101   2.820   2.878  4.4246  0.6481 -1.6671
  109DG      H6 2490   0.035   2.780   3.710 -1.9652 -1.7982  0.8450
  109DG      H7 2491  -0.069   2.892   3.651  1.8825  2.1886  1.5929
  109DG      H8 2492  -0.072   2.745   3.568  1.6983 -0.7205  0.1939
  109DG      O9 2493   0.127   2.891   3.078  0.1876  0.1452 -0.3279
  109DG     O10 2494   0.089   2.863   3.522 -0.0524  0.1322 -0.3767
  109DG     C11 2495   0.245   2.813   3.081  0.6802  0.5259 -1.1043
  109DG     C12 2496   0.214   2.799   3.540 -0.1039  0.0984 -0.1836
  109DG     H13 2497   0.301   2.821   2.994  0.5992  0.1546  1.5510
  109DG     H14 2498   0.227   2.709   3.091 -0.2202  0.6704 -2.8535
  109DG     H15 2499   0.199   2.689   3.515  0.7555  1.1562 -1.3884
  109DG     H16 2500   0.259   2.820   3.632 -0.5221  0.1429  0.3019
  109DG     C17 2501   0.328   2.851   3.194 -0.2860 -0.6505 -0.3819
  109DG     C18 2502   0.311   2.857   3.436 -0.1977 -1.2471  1.1924
  109DG     O19 2503   0.248   2.827   3.314  0.0548  0.6868  0.1705
  109DG     H20 2504   0.360   2.951   3.184 -2.4842 -1.3747 -1.4254
  109DG     H21 2505   0.422   2.797   3.192 -3.4356  0.9279  0.9745
  109DG     H22 2506   0.333   2.966   3.438 -1.2002  1.8157 -2.0353
  109DG     H23 2507   0.407   2.803   3.433  0.1895 -0.2973 -0.0545
  110DG      C1 2508   3.117   2.671   1.650  0.0088 -0.7050 -1.1571
  110DG      C2 2509   2.771   3.126   1.962  0.2094  0.7151 -0.0908
  110DG      H3 2510   3.213   2.621   1.635  3.1045 -1.5491  0.4721
  110DG      H4 2511   3.063   2.688   1.552  1.5202  3.2589 -0.2961
  110DG      H5 2512   3.057   2.612   1.715 -1.3302 -2.5560 -0.0799
  110DG      H6 2513   2.720   3.156   1.870 -0.6650 -0.6803 -0.7050
  110DG      H7 2514   2.737   3.028   1.998  2.0045  0.1024  0.6029
  110DG      H8 2515   2.760   3.194   2.044  0.3742 -0.8638 -2.0164
  110DG      O9 2516   3.130   2.790   1.719 -0.6216  0.2505  0.0859
  110DG     O10 2517   2.905   3.107   1.927 -0.0337 -0.1541 -0.0429
  110DG     C11 2518   3.219   2.883   1.658  0.3138  0.1244  0.0487
  110DG     C12 2519   2.962   3.222   1.873  0.0675 -0.8744  0.2416
  110DG     H13 2520   3.187   2.886   1.554  0.1886 -1.8598  0.1091
  110DG     H14 2521   3.311   2.837   1.661 -0.4183 -0.1506 -1.3378
  110DG     H15 2522   2.963   3.311   1.941  0.7868 -0.6993 -2.7892
  110DG     H16 2523   2.913   3.258   1.780  1.6594  0.5041  2.2309
  110DG     C17 2524   3.227   3.023   1.725 -0.0374 -0.0238  0.2744
  110DG     C18 2525   3.112   3.189   1.844 -0.3301  0.4141  0.8441
  110DG     O19 2526   3.105   3.072   1.764 -0.3223 -0.2790  0.1803
  110DG     H20 2527   3.273   3.089   1.644  0.0791 -0.8825 -2.1377
  110DG     H21 2528   3.296   3.022   1.814  0.3547 -1.8465 -0.6401
  110DG     H22 2529   3.159   3.273   1.799  1.4823 -0.8261  1.8514
  110DG     H23 2530   3.162   3.169   1.934  0.0238  2.0825  0.5251
  111DG      C1 2531   3.406   4.025   0.002  0.3314 -0.6467  0.0397
  111DG      C2 2532   3.494   4.465   0.434 -0.5920 -0.1116 -0.1412
  111DG      H3 2533   3.328   3.989   0.068 -1.4771  0.5640  0.1151
  111DG      H4 2534   3.433   3.948  -0.076 -2.8775 -2.5022 -0.3209
  111DG      H5 2535   3.364   4.106  -0.057 -0.1582 -1.0525  3.7646
  111DG      H6 2536   3.394   4.487   0.394 -0.0715  1.0121 -0.5359
  111DG      H7 2537   3.492   4.498   0.542 -0.5488 -0.6942 -0.7517
  111DG      H8 2538   3.572   4.514   0.384  0.1181 -2.5405  0.2015
  111DG      O9 2539   3.514   4.073   0.086 -0.0593 -0.3744 -0.4353
  111DG     O10 2540   3.509   4.323   0.430 -0.5137 -0.1926 -0.2633
  111DG     C11 2541   3.600   3.967   0.133 -0.3666 -0.2296 -0.4158
  111DG     C12 2542   3.633   4.273   0.469  0.0215  0.0168 -0.7374
  111DG     H13 2543   3.695   3.989   0.083  0.9303 -1.5340 -2.6592
  111DG     H14 2544   3.583   3.872   0.094 -0.6421 -1.0551  0.4058
  111DG     H15 2545   3.656   4.299   0.572 -0.2987  0.4253 -1.9365
  111DG     H16 2546   3.720   4.314   0.415  1.7776 -0.4952 -1.6291
  111DG     C17 2547   3.624   3.974   0.287 -0.1683  0.7339 -0.5199
  111DG     C18 2548   3.633   4.120   0.458 -0.0653 -0.5105 -0.4098
  111DG     O19 2549   3.625   4.109   0.317 -0.6792  0.4603  0.1272
  111DG     H20 2550   3.719   3.923   0.310  1.5188  2.5502  1.9517
  111DG     H21 2551   3.542   3.924   0.325  0.9208 -0.9199 -0.8759
  111DG     H22 2552   3.718   4.085   0.515 -1.3779 -0.9590 -1.7818
  111DG     H23 2553   3.543   4.094   0.519  0.4738 -1.5534 -0.5814
  112DG      C1 2554   4.574   3.364   5.095 -0.1467  0.1948 -0.8345
  112DG      C2 2555   5.155   3.158   4.947 -0.1153  0.1175 -0.5553
  112DG      H3 2556   4.618   3.460   5.121  1.4270 -1.6842  1.0098
  112DG      H4 2557   4.552   3.304   5.185 -1.6483 -2.0211 -1.0065
  112DG      H5 2558   4.470   3.387   5.066 -0.7648 -1.7251  1.0053
  112DG      H6 2559   5.063   3.098   4.959  1.8614 -0.2494  1.1010
  112DG      H7 2560   5.209   3.110   4.867  0.1795 -1.0375 -0.9278
  112DG      H8 2561   5.217   3.152   5.038  2.2755  0.3446 -0.4389
  112DG      O9 2562   4.658   3.292   5.007 -0.0566  0.0931  0.2851
  112DG     O10 2563   5.143   3.293   4.908 -0.3786 -0.0504 -0.0416
  112DG     C11 2564   4.635   3.333   4.870  0.7601 -0.0600  0.1818
  112DG     C12 2565   5.101   3.306   4.771 -0.2114 -0.2827  0.3858
  112DG     H13 2566   4.636   3.443   4.869  2.6218  1.6006 -0.2252
  112DG     H14 2567   4.532   3.296   4.842  1.1840 -0.0126 -1.0014
  112DG     H15 2568   5.182   3.260   4.709  0.5836 -0.4544 -0.0628
  112DG     H16 2569   5.098   3.411   4.755 -1.4595 -3.5683 -0.0146
  112DG     C17 2570   4.735   3.272   4.772  0.3047  0.3076 -0.5728
  112DG     C18 2571   4.969   3.255   4.729  0.0462  0.9808 -0.0239
  112DG     O19 2572   4.865   3.317   4.811 -0.0177 -0.3416  0.2987
  112DG     H20 2573   4.707   3.303   4.666 -0.6697  0.0704  0.0118
  112DG     H21 2574   4.734   3.162   4.792  1.4430  0.3444 -1.0165
  112DG     H22 2575   4.945   3.280   4.632 -2.5343  1.7442  2.3695
  112DG     H23 2576   4.962   3.146   4.751 -0.6295  0.7405 -2.1931
  113DG      C1 2577   4.004   2.159   3.855  0.4443 -0.1427 -0.0277
  113DG      C2 2578   3.379   2.129   3.623 -0.7717 -0.7556 -0.2479
  113DG      H3 2579   3.961   2.199   3.950 -1.7553 -0.1593  1.1221
  113DG      H4 2580   4.018   2.246   3.788 -0.9995  1.4976  0.5146
  113DG      H5 2581   4.098   2.111   3.890 -1.7325 -0.0373 -0.4801
  113DG      H6 2582   3.292   2.088   3.571 -0.4259 -1.6405 -0.3838
  113DG      H7 2583   3.358   2.102   3.733  0.1306 -0.2431  0.7756
  113DG      H8 2584   3.374   2.234   3.600 -1.6822  0.5856  1.7138
  113DG      O9 2585   3.918   2.069   3.784  0.0918 -0.5453  0.5387
  113DG     O10 2586   3.511   2.076   3.589 -0.0048 -0.2547 -0.4458
  113DG     C11 2587   3.974   2.025   3.668  0.4950 -0.4355  0.2054
  113DG     C12 2588   3.508   1.933   3.603 -0.5052 -0.2632 -0.7209
  113DG     H13 2589   4.074   1.995   3.670  0.1176  2.1523  2.2022
  113DG     H14 2590   3.962   2.105   3.594 -2.2605 -0.3619 -0.1703
  113DG     H15 2591   3.435   1.888   3.538  0.3777 -0.4377 -0.4907
  113DG     H16 2592   3.477   1.905   3.705  1.6584 -2.0185 -1.5233
  113DG     C17 2593   3.877   1.908   3.632 -0.1687  0.1787 -0.2880
  113DG     C18 2594   3.645   1.871   3.579 -0.0434  0.5015 -0.1418
  113DG     O19 2595   3.741   1.960   3.633 -0.0357  0.7037 -0.5939
  113DG     H20 2596   3.888   1.819   3.702  1.8383 -1.0002 -1.1099
  113DG     H21 2597   3.913   1.870   3.533  1.0353  0.8702 -0.2282
  113DG     H22 2598   3.648   1.779   3.636  1.5477  1.7403 -0.3820
  113DG     H23 2599   3.647   1.861   3.472 -0.8886 -1.5592  0.6068
  114DG      C1 2600   0.983   5.222   2.020 -0.1694 -0.2411  0.3612
  114DG      C2 2601   0.771   5.300   1.381  1.3829 -0.0788 -0.0661
  114DG      H3 2602   1.043   5.249   2.107 -0.2047  0.2253  2.3180
  114DG      H4 2603   0.958   5.115   2.034  0.8628  2.3373  1.7348
  114DG      H5 2604   0.889   5.278   2.019  0.4394  0.7970 -0.3177
  114DG      H6 2605   0.682   5.234   1.403 -4.0167 -1.8476  1.1097
  114DG      H7 2606   0.738   5.408   1.391 -0.1128  0.3632 -0.4329
  114DG      H8 2607   0.801   5.279   1.279  0.5130 -0.5524 -0.3890
  114DG      O9 2608   1.035   5.239   1.894 -0.1178 -0.0351 -0.4707
  114DG     O10 2609   0.890   5.272   1.460 -0.2276 -0.0161  0.7395
  114DG     C11 2610   1.150   5.159   1.869  0.2360 -0.0609 -0.4119
  114DG     C12 2611   0.953   5.147   1.436  0.4578  1.1640 -0.4598
  114DG     H13 2612   1.134   5.060   1.906 -0.9490  0.0066  1.8238
  114DG     H14 2613   1.237   5.181   1.933 -0.1080 -0.0559 -1.8444
  114DG     H15 2614   0.970   5.113   1.333  1.7850  2.0262 -1.0141
  114DG     H16 2615   0.902   5.072   1.488  0.0365 -0.8869 -0.8621
  114DG     C17 2616   1.183   5.162   1.724  0.3184 -0.4516 -0.5925
  114DG     C18 2617   1.088   5.155   1.499 -0.1926  0.8414  0.2308
  114DG     O19 2618   1.069   5.152   1.642 -0.2796 -0.0000  0.2278
  114DG     H20 2619   1.248   5.078   1.707 -0.1571 -0.9066 -0.3522
  114DG     H21 2620   1.231   5.248   1.689 -0.9267 -1.0152 -2.4237
  114DG     H22 2621   1.145   5.066   1.460 -0.0167 -3.1867 -2.1573
  114DG     H23 2622   1.129   5.250   1.461 -0.2998  0.0340 -0.8593
  115DG      C1 2623   4.940   4.223   2.074 -0.2048 -0.4414 -0.4220
  115DG      C2 2624   4.999   3.994   1.410 -0.1401  0.8141 -0.8244
  115DG      H3 2625   4.990   4.137   2.112  0.6817  0.9616  0.0996
  115DG      H4 2626   4.889   4.268   2.156  1.0299  0.5163 -1.1175
  115DG      H5 2627   5.011   4.302   2.046 -3.2440  2.1813  1.0841
  115DG      H6 2628   5.079   4.067   1.424 -2.8507  1.8767  0.3486
  115DG      H7 2629   5.040   3.893   1.430 -0.7779 -3.0103  1.4832
  115DG      H8 2630   4.958   3.998   1.307 -0.2814  1.6653  0.5113
  115DG      O9 2631   4.860   4.186   1.960  0.2656 -0.0578 -0.4145
  115DG     O10 2632   4.912   4.004   1.523  0.3859 -0.2227  0.1866
  115DG     C11 2633   4.778   4.076   1.977 -0.8226  0.1611 -0.2466
  115DG     C12 2634   4.803   3.916   1.525 -0.4884 -0.4367 -0.9762
  115DG     H13 2635   4.705   4.098   2.058 -2.5038 -1.2612 -1.6920
  115DG     H14 2636   4.824   3.982   2.025  2.0260 -2.6073  1.3431
  115DG     H15 2637   4.839   3.817   1.545  1.6604 -2.9877 -1.0506
  115DG     H16 2638   4.749   3.910   1.432 -1.1114  0.5475 -0.3069
  115DG     C17 2639   4.694   4.048   1.855  0.2057 -0.2259 -0.0159
  115DG     C18 2640   4.706   3.969   1.630 -0.0126 -0.4360 -0.2582
  115DG     O19 2641   4.776   4.000   1.747  0.2126 -0.2783 -0.1810
  115DG     H20 2642   4.636   4.136   1.838 -2.9200 -1.3159 -1.0180
  115DG     H21 2643   4.623   3.970   1.885 -0.6355 -1.3972  0.4402
  115DG     H22 2644   4.670   4.068   1.588  0.1987  0.2688  1.4565
  115DG     H23 2645   4.617   3.909   1.642 -0.4776  0.2404 -0.8237
  116DG      C1 2646   2.992   4.749   4.482  0.4033 -0.3254  0.3974
  116DG      C2 2647   3.469   5.006   4.116 -0.4635 -0.6749 -0.2423
  116DG      H3 2648   2.978   4.841   4.538  1.7482 -0.8276 -0.7716
  116DG      H4 2649   2.944   4.668   4.528  2.4859  1.4531 -1.1394
  116DG      H5 2650   2.940   4.769   4.390 -0.5241  0.3801  1.2850
  116DG      H6 2651   3.457   4.923   4.045 -0.6428  0.5343  0.5523
  116DG      H7 2652   3.405   5.089   4.092 -1.4642 -1.5717 -1.3478
  116DG      H8 2653   3.569   5.056   4.109  4.3794 -3.2887  0.8012
  116DG      O9 2654   3.129   4.723   4.459  0.2910  0.7219  0.6167
  116DG     O10 2655   3.444   4.957   4.250  0.1859 -0.7571 -0.1728
  116DG     C11 2656   3.206   4.707   4.574  0.4504 -0.3635 -0.2890
  116DG     C12 2657   3.541   4.857   4.287  0.0173  0.0781  0.4371
  116DG     H13 2658   3.182   4.620   4.635  1.7777 -1.1858  1.0464
  116DG     H14 2659   3.200   4.798   4.638  1.6948  1.9782  1.8229
  116DG     H15 2660   3.641   4.908   4.284  1.2154 -1.5876  0.6689
  116DG     H16 2661   3.553   4.777   4.220 -1.4789 -1.6611  1.9794
  116DG     C17 2662   3.356   4.697   4.546 -0.1477  0.6086 -0.9215
  116DG     C18 2663   3.519   4.800   4.425  0.5362  0.1006  0.5362
  116DG     O19 2664   3.378   4.773   4.431  0.1320 -0.4690  0.0194
  116DG     H20 2665   3.387   4.596   4.536 -3.1687  0.3016  2.3384
  116DG     H21 2666   3.412   4.737   4.629 -1.1503 -1.0230  0.2819
  116DG     H22 2667   3.588   4.713   4.430 -0.3907 -2.6744 -1.0050
  116DG     H23 2668   3.548   4.874   4.502 -2.5106  1.8701 -1.2415
  117DG      C1 2669   0.098   5.164   1.002  0.1672  0.5921  0.2131
  117DG      C2 2670   0.049   5.754   1.309  0.0801  0.5240  0.2216
  117DG      H3 2671   0.134   5.139   1.107 -0.7773  0.1503  1.4731
  117DG      H4 2672   0.160   5.101   0.936  1.0812  1.5054  1.4435
  117DG      H5 2673  -0.011   5.155   1.003 -1.7950 -2.5705  0.9243
  117DG      H6 2674   0.121   5.836   1.318 -0.5522  3.8721  2.4102
  117DG      H7 2675  -0.054   5.790   1.300  3.3122  0.9216  1.2675
  117DG      H8 2676   0.048   5.700   1.409  3.6390 -1.4211  0.9052
  117DG      O9 2677   0.147   5.298   0.988 -0.7212  0.6874 -0.1030
  117DG     O10 2678   0.074   5.672   1.191 -0.2790  0.8337 -0.3492
  117DG     C11 2679   0.167   5.329   0.854 -0.1549  0.1602  0.0078
  117DG     C12 2680   0.066   5.737   1.061  1.0073 -0.8709 -0.6371
  117DG     H13 2681   0.071   5.318   0.807  1.0013  1.7133  2.4090
  117DG     H14 2682   0.231   5.259   0.811 -2.6487 -0.9924 -1.5122
  117DG     H15 2683   0.092   5.843   1.067  1.1497  1.7669  0.8093
  117DG     H16 2684  -0.034   5.727   1.013  0.2181  0.5406  0.1457
  117DG     C17 2685   0.225   5.472   0.854 -0.5559 -0.6362  0.3536
  117DG     C18 2686   0.167   5.680   0.963  0.6994  0.1443 -0.3747
  117DG     O19 2687   0.134   5.545   0.928 -0.0674  0.3597  0.6582
  117DG     H20 2688   0.244   5.524   0.759  1.7810  0.3267  2.3798
  117DG     H21 2689   0.320   5.472   0.908  2.7695 -2.0727 -2.9549
  117DG     H22 2690   0.166   5.746   0.876  0.6667  0.5253  0.2864
  117DG     H23 2691   0.260   5.677   1.017 -1.1464 -2.0287 -1.9188
  118DG      C1 2692   0.053   1.649   2.374  0.0560  0.2169  0.2048
  118DG      C2 2693   0.365   2.139   2.548 -0.0290  0.3493 -0.2093
  118DG      H3 2694   0.039   1.670   2.267 -0.9780 -1.1146  0.0402
  118DG      H4 2695   0.000   1.558   2.394  0.0858  0.4997 -1.1612
  118DG      H5 2696   0.161   1.629   2.390 -0.1393 -2.1450  1.0300
  118DG      H6 2697   0.399   2.171   2.452 -0.6549 -0.4803  0.5338
  118DG      H7 2698   0.373   2.225   2.615 -1.4080 -0.1470  1.7030
  118DG      H8 2699   0.414   2.048   2.584 -0.5348  1.3998  0.4267
  118DG      O9 2700   0.016   1.770   2.450  0.5276  0.3033 -0.0042
  118DG     O10 2701   0.229   2.103   2.545  0.0993  0.3567 -0.6778
  118DG     C11 2702  -0.111   1.812   2.420  0.1571 -0.1643  0.4353
  118DG     C12 2703   0.140   2.204   2.509 -0.2953 -0.6392 -0.0510
  118DG     H13 2704  -0.189   1.748   2.462  0.8016  1.4605  1.4716
  118DG     H14 2705  -0.144   1.845   2.319 -3.6037 -0.3847  0.2363
  118DG     H15 2706   0.151   2.217   2.402 -3.2738  0.7330  2.5721
  118DG     H16 2707   0.149   2.299   2.563  0.7297 -0.1913  0.3948
  118DG     C17 2708  -0.122   1.941   2.503 -0.4353 -0.3843  0.1362
  118DG     C18 2709   0.000   2.140   2.543 -0.6005  0.9026  0.4893
  118DG     O19 2710  -0.009   2.019   2.461 -0.1274 -0.7915  0.4060
  118DG     H20 2711  -0.122   1.930   2.611  0.0332 -1.4137 -1.9094
  118DG     H21 2712  -0.211   1.993   2.468  0.5271 -0.8459 -1.7925
  118DG     H22 2713  -0.014   2.127   2.641  0.0894 -2.6711 -3.4504
  118DG     H23 2714  -0.070   2.216   2.509 -0.4849  1.2240  1.7020
  119DG      C1 2715   3.671   2.684   2.813  0.8280 -0.5331 -0.1771
  119DG      C2 2716   3.689   2.195   3.306 -0.4751 -0.4634  0.4884
  119DG      H3 2717   3.727   2.762   2.871  3.0461  0.3781 -1.4287
  119DG      H4 2718   3.561   2.698   2.827  1.6806 -0.4746 -1.6519
  119DG      H5 2719   3.698   2.711   2.711 -0.2283 -2.3517  0.2994
  119DG      H6 2720   3.743   2.248   3.388 -1.4638  1.1457  1.6295
  119DG      H7 2721   3.581   2.221   3.320 -2.1013 -0.3961  2.8076
  119DG      H8 2722   3.686   2.087   3.326 -0.1913 -2.7258 -0.8185
  119DG      O9 2723   3.717   2.557   2.854  0.2041  0.0734 -0.2125
  119DG     O10 2724   3.728   2.236   3.178 -0.2080 -0.0267 -0.6383
  119DG     C11 2725   3.846   2.533   2.804  0.2630  0.0416  0.1120
  119DG     C12 2726   3.859   2.189   3.151 -0.0111 -0.2982 -0.5332
  119DG     H13 2727   3.918   2.599   2.857  0.6752  0.4961  1.3410
  119DG     H14 2728   3.855   2.560   2.700  1.5573  0.1339 -0.5638
  119DG     H15 2729   3.864   2.082   3.174 -1.1742 -3.7581  2.3157
  119DG     H16 2730   3.924   2.237   3.211  1.1224 -2.7686 -3.8121
  119DG     C17 2731   3.889   2.385   2.833 -0.6292  0.3791 -0.3992
  119DG     C18 2732   3.895   2.217   2.999  0.0957 -0.6571 -0.0637
  119DG     O19 2733   3.879   2.358   2.972  0.5850  0.2894  0.4306
  119DG     H20 2734   3.987   2.353   2.803  0.6444 -2.3471  2.4276
  119DG     H21 2735   3.820   2.318   2.780  0.0827  0.1397  1.7202
  119DG     H22 2736   4.002   2.200   2.972  1.3036  0.6393  2.8191
  119DG     H23 2737   3.829   2.152   2.943 -0.3199  1.2058 -0.5194
  120DG      C1 2738   0.018   1.391   5.124  0.3058  0.2209  0.2701
  120DG      C2 2739  -0.726   1.216   5.073 -0.6188 -0.0253 -0.3236
  120DG      H3 2740  -0.014   1.437   5.211 -1.6080 -1.5597 -0.8193
  120DG      H4 2741   0.104   1.427   5.082 -3.6982 -2.8828  0.1374
  120DG      H5 2742   0.051   1.294   5.158  0.6999  1.1091 -0.2591
  120DG      H6 2743  -0.763   1.246   5.171 -0.1277  1.2191 -0.3082
  120DG      H7 2744  -0.807   1.239   5.002 -0.0967 -2.0636  0.9022
  120DG      H8 2745  -0.714   1.108   5.079  1.9527  0.5933  1.8374
  120DG      O9 2746  -0.086   1.380   5.028  0.1318  0.3438  0.1509
  120DG     O10 2747  -0.594   1.270   5.039  0.0562 -0.0371 -0.3268
  120DG     C11 2748  -0.157   1.495   4.986  0.1926  0.5081  0.6118
  120DG     C12 2749  -0.547   1.222   4.912  0.3998  0.2544  0.0045
  120DG     H13 2750  -0.087   1.569   4.944 -1.7507 -1.7391  1.9048
  120DG     H14 2751  -0.205   1.536   5.070  0.6016 -0.6493 -2.2157
  120DG     H15 2752  -0.626   1.207   4.838 -0.0500 -2.9210 -0.2207
  120DG     H16 2753  -0.498   1.124   4.932  2.4504 -2.4254  1.2673
  120DG     C17 2754  -0.260   1.456   4.880  0.9287  0.4311  0.5371
  120DG     C18 2755  -0.464   1.336   4.854 -0.0700  0.2168 -0.8770
  120DG     O19 2756  -0.350   1.363   4.932  0.1968 -0.3931 -0.4323
  120DG     H20 2757  -0.214   1.439   4.778 -0.1771 -0.4927 -1.7654
  120DG     H21 2758  -0.322   1.543   4.869  0.8688 -3.8512  1.5524
  120DG     H22 2759  -0.426   1.313   4.759  0.9398  4.1982 -0.0593
  120DG     H23 2760  -0.529   1.421   4.853 -0.2620  0.7576  0.7053
  121DG      C1 2761   0.954   2.184   3.113 -0.1565 -0.4837  0.4803
  121DG      C2 2762   0.969   2.557   2.543  0.6058  0.2534  0.6942
  121DG      H3 2763   0.863   2.237   3.142 -1.3105  0.4511 -1.7207
  121DG      H4 2764   1.033   2.212   3.180  0.4390  2.4719  2.3955
  121DG      H5 2765   0.924   2.082   3.118  0.3001  0.7163  1.5411
  121DG      H6 2766   0.894   2.629   2.575  1.9523  2.4877 -1.0779
  121DG      H7 2767   1.031   2.596   2.464  0.2531 -0.1179  1.7601
  121DG      H8 2768   0.917   2.465   2.499 -0.7022 -1.3310 -1.8669
  121DG      O9 2769   0.989   2.227   2.985  0.8050  0.3102 -0.2574
  121DG     O10 2770   1.057   2.523   2.649  0.6998 -0.6379 -0.2737
  121DG     C11 2771   1.093   2.147   2.927 -0.0148  0.0702  0.4565
  121DG     C12 2772   1.173   2.463   2.596 -0.4566  0.0774  0.1489
  121DG     H13 2773   1.040   2.102   2.841  0.6770 -0.8777  2.3967
  121DG     H14 2774   1.134   2.060   2.988 -1.3973  0.7559 -1.7441
  121DG     H15 2775   1.240   2.529   2.543 -1.1042 -1.2130 -0.3372
  121DG     H16 2776   1.141   2.392   2.520 -1.5409  0.5501  1.2158
  121DG     C17 2777   1.207   2.241   2.884  0.0116 -0.6257 -0.1387
  121DG     C18 2778   1.244   2.399   2.712  0.6951 -0.4448 -0.5241
  121DG     O19 2779   1.153   2.313   2.778 -0.9520 -0.1503  0.0367
  121DG     H20 2780   1.294   2.183   2.868  0.2522  0.9523  0.4893
  121DG     H21 2781   1.224   2.306   2.968  1.0692  0.1641 -0.0733
  121DG     H22 2782   1.346   2.363   2.679  1.0729 -1.2463  0.0196
  121DG     H23 2783   1.271   2.479   2.785 -1.0736  2.7188 -1.0365
  122DG      C1 2784   5.032   2.431   2.855  0.5300 -0.0533 -0.1321
  122DG      C2 2785   4.534   2.857   3.159  0.9356  0.9442 -0.2233
  122DG      H3 2786   5.028   2.331   2.810  0.4964 -1.9602 -0.0343
  122DG      H4 2787   5.061   2.408   2.956 -0.5052 -1.4351  3.0083
  122DG      H5 2788   5.113   2.494   2.816  1.3573  0.3165 -0.1361
  122DG      H6 2789   4.477   2.791   3.221 -2.2959 -1.2395  0.2098
  122DG      H7 2790   4.590   2.919   3.224  0.4143  0.2506  0.7860
  122DG      H8 2791   4.472   2.921   3.102  0.5723 -1.0658  1.0557
  122DG      O9 2792   4.908   2.491   2.850 -0.5342 -0.0809  0.3105
  122DG     O10 2793   4.614   2.783   3.066  0.1005  0.1401 -0.2324
  122DG     C11 2794   4.909   2.573   2.732 -0.3812  0.2277  0.0142
  122DG     C12 2795   4.666   2.859   2.965  0.1076 -0.0433 -0.3929
  122DG     H13 2796   4.928   2.524   2.640 -0.9942  2.0610 -0.3883
  122DG     H14 2797   4.979   2.657   2.726 -1.8576 -0.3252 -0.2623
  122DG     H15 2798   4.704   2.950   2.998 -0.2969 -2.9172 -1.8593
  122DG     H16 2799   4.580   2.876   2.898 -0.5637  0.2919 -0.0855
  122DG     C17 2800   4.766   2.618   2.709 -0.0319 -0.0710 -0.1582
  122DG     C18 2801   4.773   2.780   2.885 -0.1854 -0.1572 -0.1127
  122DG     O19 2802   4.701   2.672   2.823 -0.4419  0.3751 -0.1609
  122DG     H20 2803   4.709   2.532   2.680 -0.6144  0.9937 -0.3833
  122DG     H21 2804   4.761   2.680   2.619  2.7759  0.7671  0.1386
  122DG     H22 2805   4.816   2.844   2.820 -0.6848 -0.8102  0.4992
  122DG     H23 2806   4.861   2.747   2.941  1.3355 -0.4044 -0.5999
  123DG      C1 2807   1.625   5.450   3.013 -0.8683 -0.1716 -0.9185
  123DG      C2 2808   0.948   5.677   3.188  0.2707  0.5715  0.7711
  123DG      H3 2809   1.615   5.410   3.113  0.0098  1.1642 -1.4820
  123DG      H4 2810   1.673   5.546   3.017 -2.7524  1.1297 -2.4536
  123DG      H5 2811   1.664   5.375   2.946 -0.0263  2.0528  0.2324
  123DG      H6 2812   0.934   5.771   3.145 -1.5387 -2.9997 -2.7271
  123DG      H7 2813   0.854   5.636   3.195  0.9690  0.6733  0.7054
  123DG      H8 2814   1.001   5.694   3.287  1.5037 -2.1691  0.7938
  123DG      O9 2815   1.482   5.465   2.996  0.0775  0.3845 -0.6569
  123DG     O10 2816   1.029   5.609   3.090  0.1242  0.1566 -0.3595
  123DG     C11 2817   1.464   5.504   2.860 -0.8032  0.3054  0.0848
  123DG     C12 2818   1.000   5.633   2.952 -0.5744 -0.1940  0.2905
  123DG     H13 2819   1.518   5.438   2.789  2.1271 -3.8572 -0.5378
  123DG     H14 2820   1.501   5.606   2.844  1.4790 -0.8659 -3.8522
  123DG     H15 2821   1.024   5.739   2.940 -0.9779  1.5511 -0.9723
  123DG     H16 2822   0.899   5.618   2.917  1.2240 -0.2408  1.6547
  123DG     C17 2823   1.320   5.509   2.819  0.1351 -0.4607 -1.0615
  123DG     C18 2824   1.094   5.544   2.869 -0.3054  0.4901 -0.8198
  123DG     O19 2825   1.229   5.572   2.908  0.2114  0.2461 -0.5705
  123DG     H20 2826   1.289   5.404   2.809 -0.1312  0.3897  0.7842
  123DG     H21 2827   1.317   5.553   2.722  3.0406 -2.1303  0.8137
  123DG     H22 2828   1.073   5.437   2.893 -0.0155 -0.6915  4.2659
  123DG     H23 2829   1.078   5.564   2.763 -1.3651 -1.0899 -3.0107
  124DG      C1 2830   0.184   3.970   2.575 -0.1739 -0.7304  0.1397
  124DG      C2 2831  -0.220   4.497   2.728 -0.1479  0.0612  0.0900
  124DG      H3 2832   0.271   3.910   2.603  0.8147  1.4370  1.8538
  124DG      H4 2833   0.168   3.962   2.466 -2.9111 -0.4903 -1.7388
  124DG      H5 2834   0.092   3.933   2.629 -0.2051  3.7158  1.7481
  124DG      H6 2835  -0.223   4.589   2.783 -2.2658 -3.1073 -3.1563
  124DG      H7 2836  -0.261   4.510   2.637  0.2372  0.2055  2.7042
  124DG      H8 2837  -0.280   4.427   2.778 -1.4774 -2.9822 -2.0584
  124DG      O9 2838   0.197   4.107   2.613  0.2476 -0.3322  0.4153
  124DG     O10 2839  -0.084   4.459   2.712 -0.3602 -0.7160 -0.4770
  124DG     C11 2840   0.291   4.185   2.545  0.5276  0.1862  0.5992
  124DG     C12 2841  -0.023   4.531   2.603  0.4317 -0.4553  0.0834
  124DG     H13 2842   0.262   4.162   2.438  0.0943  0.8094  1.2966
  124DG     H14 2843   0.392   4.143   2.559 -0.6083  0.5545 -0.7588
  124DG     H15 2844  -0.051   4.638   2.614  1.3829  2.3717  2.6905
  124DG     H16 2845  -0.061   4.498   2.505 -0.1940 -1.6242 -1.0215
  124DG     C17 2846   0.286   4.337   2.569 -0.1471 -0.1783  0.0511
  124DG     C18 2847   0.133   4.516   2.596  0.6333 -0.1349  0.5613
  124DG     O19 2848   0.158   4.383   2.609  0.0655  0.1103  0.1284
  124DG     H20 2849   0.323   4.383   2.479 -1.9900 -3.5985  0.0790
  124DG     H21 2850   0.356   4.369   2.648  1.6950 -0.6572 -2.3242
  124DG     H22 2851   0.173   4.550   2.500 -2.7593  1.2872 -1.0142
  124DG     H23 2852   0.184   4.577   2.672  1.8656  1.4307  2.3778
  125DG      C1 2853   3.597   0.112   1.039  0.1210 -0.1640 -0.5291
  125DG      C2 2854   3.469   0.726   0.623 -1.0118  0.6032  0.1606
  125DG      H3 2855   3.671   0.090   1.116 -0.7884  2.6612  0.8598
  125DG      H4 2856   3.623   0.038   0.964  1.1520 -0.5072  1.3312
  125DG      H5 2857   3.496   0.095   1.074  1.4156 -0.2814  0.8311
  125DG      H6 2858   3.370   0.706   0.586  2.0286  0.8433 -0.5381
  125DG      H7 2859   3.481   0.835   0.641  1.9891  2.5757  0.4881
  125DG      H8 2860   3.534   0.697   0.545  1.2211  0.1619  0.8329
  125DG      O9 2861   3.613   0.247   1.003 -0.7172 -0.6276  0.7083
  125DG     O10 2862   3.502   0.645   0.742 -0.2139  0.2179  0.4619
  125DG     C11 2863   3.736   0.278   0.945 -0.0601  0.0121  0.6755
  125DG     C12 2864   3.624   0.692   0.802  0.0192 -0.0496 -0.3447
  125DG     H13 2865   3.741   0.241   0.840 -0.4856 -0.5360 -0.2881
  125DG     H14 2866   3.819   0.236   1.001  2.5523 -1.9505  3.3414
  125DG     H15 2867   3.622   0.798   0.815  0.7462 -0.8457 -0.0023
  125DG     H16 2868   3.711   0.676   0.746  0.6962  0.2815 -2.2652
  125DG     C17 2869   3.759   0.427   0.952  0.1383  0.5427  0.6179
  125DG     C18 2870   3.628   0.632   0.941 -0.2819  0.5299 -0.5404
  125DG     O19 2871   3.630   0.488   0.931  0.4647 -0.1129  0.3697
  125DG     H20 2872   3.832   0.454   0.875  3.2474 -0.4774  0.2213
  125DG     H21 2873   3.792   0.448   1.055 -1.8548 -0.6595  0.8245
  125DG     H22 2874   3.731   0.664   0.984 -1.3860  0.6756  0.4057
  125DG     H23 2875   3.555   0.675   1.006  1.9693 -1.3293 -2.2503
  126DG      C1 2876   1.243   0.296   4.312 -0.7065  0.3968 -0.0518
  126DG      C2 2877   1.117   0.014   3.726 -0.4037 -0.1574 -0.4242
  126DG      H3 2878   1.182   0.206   4.339 -0.3768  1.2960 -0.3797
  126DG      H4 2879   1.183   0.389   4.296 -0.9541 -0.8077 -1.0408
  126DG      H5 2880   1.300   0.314   4.399 -3.0553  1.8045 -2.2047
  126DG      H6 2881   1.043  -0.014   3.801  2.6045  0.4005  2.6339
  126DG      H7 2882   1.074   0.095   3.668  0.1993  0.4986 -3.0196
  126DG      H8 2883   1.125  -0.081   3.668  2.3510  0.0137  3.2822
  126DG      O9 2884   1.329   0.264   4.199 -0.1978 -0.3700 -0.6220
  126DG     O10 2885   1.241   0.055   3.790  0.2547  0.4529 -0.6509
  126DG     C11 2886   1.443   0.184   4.232  0.5985 -0.6672  0.0615
  126DG     C12 2887   1.315  -0.055   3.841 -0.2986 -0.1634 -0.0403
  126DG     H13 2888   1.400   0.112   4.304  0.9809  1.4300 -0.1471
  126DG     H14 2889   1.524   0.237   4.281 -0.3444 -0.2626 -0.5690
  126DG     H15 2890   1.345  -0.105   3.750  0.5848  0.7458 -2.0642
  126DG     H16 2891   1.264  -0.118   3.915 -5.1058  0.5258  1.7948
  126DG     C17 2892   1.507   0.109   4.116 -0.4713 -0.1359 -0.3909
  126DG     C18 2893   1.438   0.001   3.914 -0.4485  0.9114 -0.7801
  126DG     O19 2894   1.411   0.035   4.048 -0.5111 -0.3198  0.3622
  126DG     H20 2895   1.587   0.049   4.165 -0.0090  2.1870  0.4894
  126DG     H21 2896   1.549   0.178   4.046  0.0641  0.5530  2.2742
  126DG     H22 2897   1.512  -0.074   3.921  1.8263  0.5856 -0.6509
  126DG     H23 2898   1.484   0.082   3.858  1.8355  0.0078 -1.1643
  127DG      C1 2899   0.897   1.976   3.802  0.0641  0.2497  0.0251
  127DG      C2 2900   0.492   1.448   3.578  0.3355  0.3275 -0.9056
  127DG      H3 2901   0.953   2.046   3.735  2.4829 -1.2580 -3.9795
  127DG      H4 2902   0.945   1.881   3.786 -0.5935  1.5966 -0.5018
  127DG      H5 2903   0.902   2.002   3.908 -1.2205 -1.4360 -2.1881
  127DG      H6 2904   0.408   1.397   3.533 -1.9425 -0.9443  2.0409
  127DG      H7 2905   0.547   1.486   3.497 -1.4876 -5.2007  1.3396
  127DG      H8 2906   0.559   1.385   3.635  2.2744  0.4758 -2.0181
  127DG      O9 2907   0.766   1.968   3.762  0.2719 -0.0922 -0.0327
  127DG     O10 2908   0.449   1.549   3.664 -0.2825 -0.1981  0.6940
  127DG     C11 2909   0.748   1.908   3.635  0.0325  0.0092 -0.0309
  127DG     C12 2910   0.384   1.658   3.595 -0.3475  0.1929 -0.4621
  127DG     H13 2911   0.798   1.812   3.624 -0.0199  0.0250 -0.6090
  127DG     H14 2912   0.806   1.963   3.555  3.4611 -1.9772  0.4083
  127DG     H15 2913   0.275   1.628   3.595 -0.6327 -0.8467  1.8243
  127DG     H16 2914   0.413   1.672   3.489  2.0630 -1.3140  1.0690
  127DG     C17 2915   0.605   1.898   3.604  0.5933 -0.1988 -0.2860
  127DG     C18 2916   0.412   1.790   3.679 -0.1515  0.4871  0.0505
  127DG     O19 2917   0.543   1.822   3.706 -0.7234 -0.4811 -0.3270
  127DG     H20 2918   0.596   1.847   3.509 -0.5426 -1.4473 -1.8371
  127DG     H21 2919   0.567   1.996   3.588 -0.3783  0.9052  0.7581
  127DG     H22 2920   0.359   1.870   3.623 -1.3064 -2.4904  0.2962
  127DG     H23 2921   0.361   1.788   3.778  2.6544  0.2097  1.0659
  128DG      C1 2922   2.816   4.694   3.187 -0.1744  0.1735 -0.2938
  128DG      C2 2923   2.402   5.032   3.296  0.0240 -0.1029 -0.4850
  128DG      H3 2924   2.886   4.637   3.126 -1.8317 -0.9619  1.9797
  128DG      H4 2925   2.711   4.687   3.159  0.0361  0.5836 -1.4000
  128DG      H5 2926   2.821   4.663   3.294  2.8431 -0.7674  2.5974
  128DG      H6 2927   2.408   4.953   3.220 -1.3417 -0.0886  1.9894
  128DG      H7 2928   2.380   4.992   3.394 -2.3312  2.4123  0.5942
  128DG      H8 2929   2.306   5.088   3.277 -1.0526  1.5019  1.0035
  128DG      O9 2930   2.856   4.830   3.156 -0.2843  0.4250 -0.5294
  128DG     O10 2931   2.522   5.115   3.289 -0.0311  0.0736 -0.4803
  128DG     C11 2932   2.864   4.875   3.024  0.0112  0.1537 -0.0241
  128DG     C12 2933   2.548   5.160   3.164  0.5790  0.6778 -0.5695
  128DG     H13 2934   2.770   4.840   2.982 -1.7987  0.6388  2.4055
  128DG     H14 2935   2.956   4.842   2.968 -1.2052  2.3200  2.7274
  128DG     H15 2936   2.593   5.257   3.173  3.1823 -2.1696  3.4436
  128DG     H16 2937   2.449   5.166   3.117  0.3309 -0.1838  0.4003
  128DG     C17 2938   2.870   5.032   3.026 -0.1381 -0.1006 -0.0947
  128DG     C18 2939   2.644   5.081   3.078  0.0917  0.1823  0.1461
  128DG     O19 2940   2.779   5.087   3.122  0.1135  0.4367 -0.2629
  128DG     H20 2941   2.850   5.082   2.932  1.8293  1.5362  0.1756
  128DG     H21 2942   2.963   5.072   3.068  1.5482  0.5109  1.8607
  128DG     H22 2943   2.598   4.982   3.065  0.6699 -0.3596  1.0252
  128DG     H23 2944   2.644   5.130   2.984 -0.5930 -0.7595 -0.4099
  129DG      C1 2945   4.573   3.717   3.324  0.6044  0.0133  0.0996
  129DG      C2 2946   5.210   3.506   3.109 -0.4812  0.2510 -0.2444
  129DG      H3 2947   4.589   3.642   3.401 -0.4279  3.1210 -0.3845
  129DG      H4 2948   4.472   3.706   3.295  1.4867  1.5036 -1.8328
  129DG      H5 2949   4.586   3.816   3.372  2.8623  0.9379  0.4198
  129DG      H6 2950   5.202   3.408   3.056  1.8725  0.5467 -1.5491
  129DG      H7 2951   5.305   3.556   3.068  0.5902  0.4370  0.1594
  129DG      H8 2952   5.224   3.472   3.217 -1.3587 -0.2664  0.8276
  129DG      O9 2953   4.665   3.695   3.217  0.1748  0.4928 -0.4105
  129DG     O10 2954   5.099   3.589   3.100  0.2766 -0.2064 -0.6024
  129DG     C11 2955   4.644   3.788   3.105  0.2673  0.3903 -0.2151
  129DG     C12 2956   5.084   3.634   2.967  0.1397  0.2224 -0.1233
  129DG     H13 2957   4.583   3.876   3.130 -0.4456  2.5186 -1.2679
  129DG     H14 2958   4.601   3.754   3.017 -0.1316  0.4288  0.1932
  129DG     H15 2959   5.038   3.556   2.908 -1.9968 -1.4555 -0.2178
  129DG     H16 2960   5.176   3.657   2.918 -2.0321 -1.3778 -1.0988
  129DG     C17 2961   4.784   3.839   3.078 -0.6502  0.5374  0.7100
  129DG     C18 2962   4.994   3.765   2.968 -0.0778 -0.3366 -0.0931
  129DG     O19 2963   4.858   3.734   3.016 -0.2087  0.7507 -0.1907
  129DG     H20 2964   4.843   3.868   3.171 -0.1949 -0.5641  1.6684
  129DG     H21 2965   4.779   3.930   3.018  0.1443  0.2226 -0.6949
  129DG     H22 2966   5.038   3.835   3.036  0.3859  0.6106 -2.4889
  129DG     H23 2967   4.982   3.812   2.876 -0.4739 -1.6696  3.8254
  130DG      C1 2968   4.686   3.319   3.409  0.5078 -0.3256 -0.0277
  130DG      C2 2969   4.969   3.890   3.424  0.5884 -0.4410 -0.4623
  130DG      H3 2970   4.605   3.389   3.397 -0.9777 -2.2552 -2.2842
  130DG      H4 2971   4.713   3.329   3.517  0.1858  0.8874 -1.5883
  130DG      H5 2972   4.637   3.227   3.393  0.5878 -1.5410  1.1593
  130DG      H6 2973   5.040   3.908   3.342 -1.3954 -1.3199 -2.2395
  130DG      H7 2974   4.874   3.946   3.406  0.7820 -0.4769  2.1317
  130DG      H8 2975   5.024   3.927   3.513 -0.2694 -0.1208 -0.0540
  130DG      O9 2976   4.779   3.349   3.310  0.5489  0.7607 -0.3441
  130DG     O10 2977   4.957   3.749   3.446 -0.4475  0.0214 -0.2955
  130DG     C11 2978   4.899   3.276   3.332  0.5403  0.1518  0.1382
  130DG     C12 2979   5.079   3.689   3.447 -0.5702 -0.7022  0.5282
  130DG     H13 2980   4.954   3.280   3.243  0.6370  1.6891 -0.0709
  130DG     H14 2981   4.880   3.167   3.353 -2.1329 -1.4290 -0.9318
  130DG     H15 2982   5.159   3.737   3.510  1.1463  0.0729  0.6470
  130DG     H16 2983   5.116   3.698   3.345  0.4233  3.2373  0.9256
  130DG     C17 2984   4.985   3.335   3.446 -0.3581 -0.8419  0.2968
  130DG     C18 2985   5.078   3.546   3.494 -0.0152 -0.3079 -0.2296
  130DG     O19 2986   4.992   3.473   3.411  0.1037 -0.0863  0.3311
  130DG     H20 2987   5.081   3.286   3.448 -1.8227 -2.5319 -0.5202
  130DG     H21 2988   4.943   3.322   3.546  0.2961 -2.3231 -0.0204
  130DG     H22 2989   5.176   3.501   3.492  0.3164 -1.9815 -0.4734
  130DG     H23 2990   5.028   3.541   3.592  0.2307 -3.4518 -1.0858
  131DG      C1 2991   3.171   2.043   4.050  0.3167 -0.9085  0.3215
  131DG      C2 2992   2.536   2.169   3.969 -0.6560  0.3461  0.2572
  131DG      H3 2993   3.121   1.955   4.094 -1.2429 -1.4130  2.5638
  131DG      H4 2994   3.169   2.126   4.115  0.0512 -0.7103 -1.3511
  131DG      H5 2995   3.274   2.003   4.033 -1.2785 -0.7402 -0.0276
  131DG      H6 2996   2.546   2.233   4.061 -0.4162 -3.7669 -1.7819
  131DG      H7 2997   2.478   2.223   3.891  0.5375  2.1796  0.3642
  131DG      H8 2998   2.476   2.081   4.001  1.5318 -3.9794  1.0082
  131DG      O9 2999   3.103   2.066   3.929 -0.2268 -0.9218 -0.2366
  131DG     O10 3000   2.662   2.130   3.911  0.0427  0.2899  0.2683
  131DG     C11 3001   3.103   1.967   3.834 -0.4824  0.7229  0.1656
  131DG     C12 3002   2.641   2.047   3.798  0.0282  0.8763  0.2554
  131DG     H13 3003   3.074   1.864   3.872 -0.9873  1.7177 -1.9545
  131DG     H14 3004   3.202   1.950   3.787 -3.2806  1.1581 -2.7463
  131DG     H15 3005   2.552   2.072   3.732  0.0558 -0.5971 -1.2634
  131DG     H16 3006   2.636   1.935   3.830 -1.8451 -1.5278  1.4709
  131DG     C17 3007   2.997   2.000   3.730 -0.7185  0.0957  0.9802
  131DG     C18 3008   2.766   2.044   3.711 -0.6226  0.1956 -0.5571
  131DG     O19 3009   2.876   2.043   3.798  0.1520 -0.2817 -0.4375
  131DG     H20 3010   2.966   1.914   3.670 -0.6767 -0.6545 -2.8060
  131DG     H21 3011   3.039   2.072   3.661 -1.5990  1.8054 -1.7424
  131DG     H22 3012   2.760   1.948   3.670  3.2203  1.8766  2.9833
  131DG     H23 3013   2.779   2.124   3.651  2.1780 -0.0376 -0.2121
  132DG      C1 3014   3.435   1.361   2.655 -0.4491 -0.4715  0.3737
  132DG      C2 3015   3.204   1.096   3.193 -0.6232  0.4985  0.2430
  132DG      H3 3016   3.513   1.313   2.712  1.0852  0.2140 -0.1558
  132DG      H4 3017   3.486   1.457   2.635  1.3501 -1.2971  1.3899
  132DG      H5 3018   3.437   1.305   2.555  2.0934  1.4044  2.0861
  132DG      H6 3019   3.158   1.138   3.280 -0.1650 -2.3956 -1.6419
  132DG      H7 3020   3.183   0.989   3.184  1.7947  0.2844  2.6810
  132DG      H8 3021   3.308   1.116   3.199 -3.3380  0.2859  2.9840
  132DG      O9 3022   3.317   1.367   2.732 -0.3952 -0.9050  0.6368
  132DG     O10 3023   3.162   1.170   3.075 -0.6373 -0.5564  0.5096
  132DG     C11 3024   3.193   1.422   2.674 -0.3207 -0.5228  0.1736
  132DG     C12 3025   3.034   1.143   3.024  0.6370 -0.0242 -0.2255
  132DG     H13 3026   3.162   1.364   2.582 -1.4934 -1.5040 -0.4658
  132DG     H14 3027   3.209   1.526   2.650 -0.9991  5.0726  1.0759
  132DG     H15 3028   2.960   1.122   3.108 -0.0895 -1.2173 -1.0911
  132DG     H16 3029   3.033   1.058   2.957  2.4011  1.3505  0.4684
  132DG     C17 3030   3.085   1.420   2.785  0.4488 -0.2099 -0.1152
  132DG     C18 3031   2.994   1.272   2.948  0.2761  0.2290  1.6351
  132DG     O19 3032   3.092   1.298   2.851  0.0900  0.1117 -0.1200
  132DG     H20 3033   2.988   1.448   2.737  0.5902  3.7436 -0.9689
  132DG     H21 3034   3.108   1.494   2.871  0.5333  0.4230  1.9516
  132DG     H22 3035   2.896   1.255   2.895 -2.8838 -0.6552 -2.3154
  132DG     H23 3036   2.977   1.349   3.020  2.1111 -0.2769 -0.2353
  133DG      C1 3037   3.827   0.041   0.108  0.6393  0.6365 -0.2187
  133DG      C2 3038   3.633   0.335  -0.531  0.0627 -0.7655  0.5240
  133DG      H3 3039   3.890   0.122   0.139  0.9708 -2.2406  1.3279
  133DG      H4 3040   3.865  -0.044   0.157 -0.5903  0.6853 -0.2740
  133DG      H5 3041   3.727   0.052   0.145 -0.7358 -0.2194  1.1549
  133DG      H6 3042   3.699   0.417  -0.564  2.4269  0.6657  2.9798
  133DG      H7 3043   3.572   0.300  -0.620  1.6921  0.9261 -1.4276
  133DG      H8 3044   3.572   0.385  -0.459  0.3001  1.4185 -1.6576
  133DG      O9 3045   3.829   0.024  -0.026  0.5122  0.3758  0.0553
  133DG     O10 3046   3.703   0.238  -0.447  0.5517  0.5255 -0.0267
  133DG     C11 3047   3.959   0.008  -0.092  0.7386 -0.0823 -0.0965
  133DG     C12 3048   3.809   0.182  -0.517  0.0573 -0.4650 -0.1881
  133DG     H13 3049   4.014  -0.074  -0.050  0.9074 -0.2501 -2.8630
  133DG     H14 3050   4.025   0.088  -0.080  0.6825  1.4929 -0.3127
  133DG     H15 3051   3.877   0.271  -0.521  1.6233  0.1777  0.8122
  133DG     H16 3052   3.774   0.156  -0.618 -0.0516 -1.2776  0.3752
  133DG     C17 3053   3.932  -0.028  -0.238 -0.1073 -0.7471  0.4990
  133DG     C18 3054   3.867   0.059  -0.442 -0.5253 -0.1645  0.2104
  133DG     O19 3055   3.880   0.087  -0.307  1.0106 -0.5687  0.0147
  133DG     H20 3056   3.856  -0.106  -0.235  2.3047 -0.2470  2.9175
  133DG     H21 3057   4.025  -0.061  -0.280 -2.6527  0.0443  1.8115
  133DG     H22 3058   3.800  -0.030  -0.460  1.7833  0.1965  0.6981
  133DG     H23 3059   3.972   0.028  -0.479 -1.6795 -0.4671  1.6757
  134DG      C1 3060   2.180   5.055   2.581  0.1142  0.2537  0.3891
  134DG      C2 3061   2.712   4.765   2.255 -0.1210  0.3820  0.9623
  134DG      H3 3062   2.272   5.087   2.626  0.4515  0.2472 -1.0399
  134DG      H4 3063   2.125   4.995   2.655 -0.0227  2.2796 -0.4909
  134DG      H5 3064   2.111   5.138   2.564 -2.3290 -1.0038 -0.4646
  134DG      H6 3065   2.737   4.658   2.253  0.4133 -2.6064 -2.3982
  134DG      H7 3066   2.740   4.807   2.156  0.1957 -0.3757  0.6605
  134DG      H8 3067   2.774   4.815   2.334  1.3340  1.8803  3.4756
  134DG      O9 3068   2.216   4.987   2.466  0.3415  0.3503 -0.8848
  134DG     O10 3069   2.573   4.798   2.267  0.2021 -0.2534 -0.1500
  134DG     C11 3070   2.117   4.902   2.413  0.2104  0.3466  0.4723
  134DG     C12 3071   2.495   4.727   2.177  0.6986 -0.1311  0.2119
  134DG     H13 3072   2.018   4.948   2.416  1.7515 -1.3177 -0.8422
  134DG     H14 3073   2.107   4.809   2.475 -0.6093 -1.7099  1.9049
  134DG     H15 3074   2.496   4.625   2.207 -1.6425 -1.2740  0.1824
  134DG     H16 3075   2.534   4.730   2.072 -2.0673 -0.3007  2.4495
  134DG     C17 3076   2.162   4.859   2.276  0.3872  0.2615 -0.3154
  134DG     C18 3077   2.353   4.784   2.159 -0.5797 -0.0170  0.7542
  134DG     O19 3078   2.293   4.798   2.281 -0.5336 -0.1622  0.3673
  134DG     H20 3079   2.156   4.950   2.207  2.0619  2.7181 -0.8011
  134DG     H21 3080   2.087   4.785   2.247 -2.3165  0.5497  1.4337
  134DG     H22 3081   2.363   4.880   2.107 -2.8328 -2.1226  1.1920
  134DG     H23 3082   2.299   4.709   2.093 -0.4097  2.6466 -0.6551
  135DG      C1 3083   3.386   1.300   4.890  0.6516  0.4257  0.8651
  135DG      C2 3084   3.299   1.178   4.370 -0.1912  0.9931 -0.4675
  135DG      H3 3085   3.473   1.296   4.822 -1.4213 -0.8036  2.9037
  135DG      H4 3086   3.420   1.274   4.995  0.9664  1.7457  0.2160
  135DG      H5 3087   3.361   1.412   4.894  1.9116 -1.7467 -1.9854
  135DG      H6 3088   3.233   1.148   4.281 -0.2612 -0.6407  0.1685
  135DG      H7 3089   3.332   1.283   4.354 -0.5879  0.4946 -1.1190
  135DG      H8 3090   3.390   1.121   4.358 -0.5745 -0.0316 -1.4036
  135DG      O9 3091   3.278   1.218   4.861  0.6381  0.5052  0.8455
  135DG     O10 3092   3.235   1.157   4.495 -0.0758  0.0817  0.0848
  135DG     C11 3093   3.305   1.083   4.896 -0.2350 -0.1796 -0.3567
  135DG     C12 3094   3.162   1.032   4.506  0.1366 -0.2985  0.4661
  135DG     H13 3095   3.339   1.060   4.998 -0.1717 -4.1774  2.1796
  135DG     H14 3096   3.383   1.046   4.837 -0.7640  0.1237  2.3689
  135DG     H15 3097   3.206   0.970   4.431 -2.1005 -0.5547 -1.4668
  135DG     H16 3098   3.059   1.054   4.489 -0.2018  1.5770 -2.3479
  135DG     C17 3099   3.186   0.992   4.867  0.3564  0.0919 -0.0147
  135DG     C18 3100   3.189   0.962   4.633  0.0509 -0.1487 -0.0218
  135DG     O19 3101   3.138   1.032   4.745  0.3839 -0.7123 -0.0171
  135DG     H20 3102   3.103   0.990   4.935  0.6144  0.6868  2.0389
  135DG     H21 3103   3.220   0.888   4.862 -0.8810  1.4181  0.3773
  135DG     H22 3104   3.129   0.868   4.638 -1.4399 -1.4065 -2.1412
  135DG     H23 3105   3.294   0.937   4.649  0.1121 -0.2298  0.0692
  136DG      C1 3106   3.234   3.549   0.012  0.0264  0.4120 -0.0018
  136DG      C2 3107   2.575   3.375   0.193 -0.3174 -0.0054 -0.2229
  136DG      H3 3108   3.315   3.620   0.049  3.0099  1.8371 -0.3334
  136DG      H4 3109   3.242   3.550  -0.089 -0.7250  0.2225  1.2184
  136DG      H5 3110   3.265   3.452   0.047  4.0511  1.2271  2.8082
  136DG      H6 3111   2.507   3.389   0.273  0.4324 -0.8290  1.0862
  136DG      H7 3112   2.519   3.385   0.099 -0.4545  0.9314 -1.4169
  136DG      H8 3113   2.600   3.272   0.213 -2.3405  0.6926  1.9618
  136DG      O9 3114   3.097   3.587   0.037 -0.1867 -1.1381 -0.1659
  136DG     O10 3115   2.686   3.468   0.195  0.1353 -0.1794  0.0750
  136DG     C11 3116   3.074   3.725   0.016 -0.1054  0.5273 -1.1385
  136DG     C12 3117   2.637   3.603   0.175 -0.8540  0.7566  0.1874
  136DG     H13 3118   3.065   3.753  -0.084  1.6128  3.1110  1.4401
  136DG     H14 3119   3.172   3.772   0.047  0.6002  0.7619 -0.4316
  136DG     H15 3120   2.562   3.615   0.252 -1.9873 -1.5083 -0.8668
  136DG     H16 3121   2.594   3.608   0.075 -1.2851  0.0961  0.3803
  136DG     C17 3122   2.955   3.764   0.103 -0.0171 -0.3308  0.2705
  136DG     C18 3123   2.741   3.709   0.194  0.4383  0.6858  0.3466
  136DG     O19 3124   2.853   3.671   0.113 -0.0130  0.6390 -0.0180
  136DG     H20 3125   2.921   3.861   0.069 -1.7410  1.3936  0.5948
  136DG     H21 3126   2.983   3.792   0.204 -2.1532 -2.4770 -2.5629
  136DG     H22 3127   2.693   3.812   0.168 -0.4321  2.8923  1.4829
  136DG     H23 3128   2.767   3.716   0.299 -0.3840  2.0220  2.8916
  137DG      C1 3129   3.210   0.754   2.206  0.6369  0.2680  0.3530
  137DG      C2 3130   2.739   0.988   1.681 -0.3355  0.5431 -0.4835
  137DG      H3 3131   3.196   0.756   2.310  0.2967  2.3545  0.9307
  137DG      H4 3132   3.319   0.735   2.185  2.4643 -0.3467  1.3707
  137DG      H5 3133   3.155   0.671   2.163 -0.3870 -1.8325 -2.8519
  137DG      H6 3134   2.793   0.933   1.603 -2.5388 -1.8374 -3.7147
  137DG      H7 3135   2.653   0.923   1.700  2.2560 -1.8044  0.2928
  137DG      H8 3136   2.704   1.080   1.642 -0.8176 -2.2060  1.5691
  137DG      O9 3137   3.168   0.880   2.161  0.1124  0.5211 -0.2873
  137DG     O10 3138   2.808   1.005   1.807  0.1375 -0.1272  0.6864
  137DG     C11 3139   3.081   0.958   2.242 -0.1207 -0.4141 -0.9437
  137DG     C12 3140   2.920   1.094   1.797  0.1054  0.0512 -0.8810
  137DG     H13 3141   3.127   0.987   2.331 -1.6466  1.2790  0.1668
  137DG     H14 3142   2.991   0.903   2.266 -0.4870 -1.8953 -1.3262
  137DG     H15 3143   2.892   1.176   1.728  2.4273  3.4800 -2.2464
  137DG     H16 3144   3.008   1.047   1.761 -0.2207 -0.2779 -0.9394
  137DG     C17 3145   3.036   1.086   2.153 -0.8826  0.4313 -0.4864
  137DG     C18 3146   2.962   1.143   1.934 -0.0778 -0.0898 -0.3354
  137DG     O19 3147   3.038   1.049   2.015 -0.0431 -0.3470  0.2705
  137DG     H20 3148   3.113   1.161   2.173 -1.8340 -0.6603  0.1964
  137DG     H21 3149   2.940   1.112   2.188  0.1904 -0.6464  0.1931
  137DG     H22 3150   3.023   1.230   1.913  1.6305 -0.3991 -0.7108
  137DG     H23 3151   2.872   1.163   1.985  1.7203  0.1131 -0.6012
  138DG      C1 3152   4.757   0.558   3.245  0.4936 -0.0156  0.3737
  138DG      C2 3153   5.443   0.456   3.385  0.0103 -0.3710 -0.2504
  138DG      H3 3154   4.756   0.449   3.224  3.0453 -1.7755  0.3158
  138DG      H4 3155   4.758   0.609   3.150 -0.4905 -0.9461 -0.5165
  138DG      H5 3156   4.662   0.566   3.286 -0.5382  0.0462 -0.3583
  138DG      H6 3157   5.451   0.371   3.447 -1.9338  3.1834 -1.1758
  138DG      H7 3158   5.458   0.432   3.279 -0.3135  0.9194  1.3313
  138DG      H8 3159   5.514   0.536   3.407 -1.0178  3.1022 -0.4175
  138DG      O9 3160   4.864   0.596   3.339 -0.3585  0.5232 -0.0932
  138DG     O10 3161   5.314   0.521   3.408  0.4851 -0.7967 -0.3988
  138DG     C11 3162   4.834   0.536   3.465 -0.4013  0.4540  0.6731
  138DG     C12 3163   5.295   0.557   3.543  0.1165  0.2194 -0.1279
  138DG     H13 3164   4.854   0.427   3.445  0.4854 -1.2310  1.8854
  138DG     H14 3165   4.726   0.545   3.495 -2.6453  0.3988 -1.7885
  138DG     H15 3166   5.376   0.628   3.573 -0.7188  1.4492 -0.7467
  138DG     H16 3167   5.290   0.461   3.592 -0.1743 -2.6435 -1.4352
  138DG     C17 3168   4.937   0.600   3.565  0.3206  0.2957 -0.0826
  138DG     C18 3169   5.165   0.637   3.576 -0.2342 -0.5102  0.2643
  138DG     O19 3170   5.063   0.566   3.517 -0.4799 -0.1094  0.7914
  138DG     H20 3171   4.926   0.565   3.666 -0.2558 -2.3859 -1.2598
  138DG     H21 3172   4.926   0.703   3.557  1.4523 -2.2801  1.1987
  138DG     H22 3173   5.160   0.651   3.685 -0.5229  2.4596  0.4919
  138DG     H23 3174   5.174   0.736   3.530  1.2158  0.4049  1.5713
  139DG      C1 3175   3.041   3.743   2.795 -0.3840  0.3361 -0.3175
  139DG      C2 3176   3.335   4.253   3.081 -0.0006 -0.3545 -0.0119
  139DG      H3 3177   2.948   3.684   2.774  0.9888  0.2110  1.2381
  139DG      H4 3178   3.128   3.672   2.792  1.3802  1.1479 -1.9206
  139DG      H5 3179   3.075   3.812   2.715 -0.5805  0.7374 -1.4737
  139DG      H6 3180   3.322   4.307   3.170 -0.1043 -1.4740 -1.4263
  139DG      H7 3181   3.436   4.196   3.088  2.1143 -1.4492  1.1556
  139DG      H8 3182   3.349   4.321   2.993 -1.6496  1.6321 -4.0601
  139DG      O9 3183   3.018   3.808   2.913 -0.7186  0.4691 -0.0876
  139DG     O10 3184   3.226   4.168   3.056 -0.2409 -0.1513 -0.4869
  139DG     C11 3185   2.895   3.871   2.928  0.0437  0.5708 -0.4328
  139DG     C12 3186   3.101   4.242   3.058 -0.3058 -0.7517 -0.6602
  139DG     H13 3187   2.813   3.805   2.905  2.1333 -0.2052 -1.3114
  139DG     H14 3188   2.896   3.952   2.853 -0.9814 -0.9114 -1.1576
  139DG     H15 3189   3.107   4.326   2.984  2.8029 -0.9339 -1.1457
  139DG     H16 3190   3.075   4.284   3.160  0.8713  1.3473  1.9813
  139DG     C17 3191   2.890   3.940   3.070  0.4315 -0.3724 -0.3634
  139DG     C18 3192   2.993   4.148   3.009 -0.2136 -0.7932 -0.4321
  139DG     O19 3193   3.003   4.034   3.083  0.2542  0.0050 -0.2829
  139DG     H20 3194   2.883   3.870   3.154 -1.1646 -0.2638 -0.9887
  139DG     H21 3195   2.793   3.990   3.078  0.7670  1.0060 -0.6602
  139DG     H22 3196   2.891   4.189   3.022 -5.3819 -0.4346 -0.6312
  139DG     H23 3197   3.007   4.151   2.899 -3.1619  1.1157 -1.7440
  140DG      C1 3198   3.235   4.416   0.073 -0.0852  0.7059  0.2835
  140DG      C2 3199   3.941   4.261   0.156  1.0391 -0.0178 -0.1904
  140DG      H3 3200   3.171   4.474   0.005 -0.4243 -1.7131  0.7206
  140DG      H4 3201   3.193   4.430   0.174 -0.8669 -3.1636 -1.9893
  140DG      H5 3202   3.212   4.310   0.037  1.3778 -1.6125 -0.6597
  140DG      H6 3203   4.030   4.302   0.110 -1.7991 -0.4116 -1.7695
  140DG      H7 3204   3.962   4.255   0.259  0.5151  2.7894  0.6253
  140DG      H8 3205   3.916   4.154   0.118  1.3818 -0.1165 -1.2690
  140DG      O9 3206   3.371   4.447   0.067 -0.4334  0.2228  0.1659
  140DG     O10 3207   3.832   4.348   0.114  0.8252  0.7870  0.4468
  140DG     C11 3208   3.397   4.589   0.098  0.3566  0.2298  0.3518
  140DG     C12 3209   3.870   4.488   0.115 -1.0051 -0.4971 -0.0706
  140DG     H13 3210   3.404   4.606   0.206  0.4245  3.2331  0.2644
  140DG     H14 3211   3.314   4.644   0.052  0.3268 -0.5696 -0.0331
  140DG     H15 3212   3.960   4.503   0.056  1.6295 -0.7045  0.4899
  140DG     H16 3213   3.896   4.511   0.220 -0.9388  0.5144  1.5350
  140DG     C17 3214   3.535   4.622   0.044 -0.3372 -0.0857 -0.1250
  140DG     C18 3215   3.759   4.587   0.067  0.0921  0.4351 -0.0004
  140DG     O19 3216   3.635   4.550   0.117  0.1352 -0.2307  0.6969
  140DG     H20 3217   3.561   4.721   0.042 -2.9108 -1.0012 -0.2970
  140DG     H21 3218   3.542   4.590  -0.056 -0.7664  0.9880  0.5334
  140DG     H22 3219   3.786   4.681   0.099 -1.3826 -0.1084 -0.5551
  140DG     H23 3220   3.762   4.583  -0.047  0.3939  0.9532 -0.3567
  141DG      C1 3221   1.517   0.694   0.785 -0.4603 -0.5260  0.1741
  141DG      C2 3222   1.646   1.334   1.020 -0.0956  0.0973 -0.0206
  141DG      H3 3223   1.620   0.694   0.757  0.2003 -0.3171 -0.0197
  141DG      H4 3224   1.460   0.735   0.705 -0.4907  0.0388  3.5956
  141DG      H5 3225   1.477   0.587   0.802 -0.7886  0.9187 -0.2887
  141DG      H6 3226   1.714   1.368   1.096  0.1099 -1.2696  0.4257
  141DG      H7 3227   1.696   1.345   0.926  1.3283  0.1721 -1.5921
  141DG      H8 3228   1.550   1.391   1.003 -0.9673 -0.6376 -0.2969
  141DG      O9 3229   1.510   0.773   0.912  0.5247 -0.4303 -0.8914
  141DG     O10 3230   1.613   1.198   1.046  0.2007  0.1872 -0.3874
  141DG     C11 3231   1.389   0.770   0.978 -0.0758  0.5490  0.3527
  141DG     C12 3232   1.525   1.187   1.165 -0.2676  0.3215 -0.0673
  141DG     H13 3233   1.348   0.666   0.994  1.0642  1.6963 -0.2323
  141DG     H14 3234   1.317   0.835   0.923  1.2959  1.9922  0.3102
  141DG     H15 3235   1.428   1.228   1.139 -1.2420 -0.7642 -1.0064
  141DG     H16 3236   1.564   1.242   1.254  2.1306 -0.5533  1.9161
  141DG     C17 3237   1.424   0.835   1.111  0.3445 -0.2402  1.0511
  141DG     C18 3238   1.514   1.037   1.200 -0.5623 -1.0434 -0.3585
  141DG     O19 3239   1.477   0.967   1.076  0.5706  0.1124 -0.3286
  141DG     H20 3240   1.498   0.784   1.160 -0.9274  1.8934  0.4710
  141DG     H21 3241   1.337   0.858   1.171  1.1304  0.4340  0.1564
  141DG     H22 3242   1.605   0.990   1.241  1.1728 -0.8411 -1.2072
  141DG     H23 3243   1.437   1.027   1.277 -1.9844  1.7709  0.5287
  142DG      C1 3244   0.679   1.663   0.303 -0.4747 -0.0736 -0.1377
  142DG      C2 3245   0.338   1.594  -0.229  0.7869 -1.1561  0.1427
  142DG      H3 3246   0.635   1.641   0.202 -2.7346 -2.6581 -0.5817
  142DG      H4 3247   0.724   1.580   0.352 -2.4349  0.0114  1.9172
  142DG      H5 3248   0.763   1.740   0.296  2.0449  0.8299  2.1725
  142DG      H6 3249   0.401   1.513  -0.225 -2.1539 -0.3245  3.0575
  142DG      H7 3250   0.243   1.557  -0.281 -0.0021 -0.3830  0.0149
  142DG      H8 3251   0.377   1.670  -0.296 -2.3477 -1.2757 -0.3870
  142DG      O9 3252   0.579   1.736   0.376 -0.5482  0.6789  0.0805
  142DG     O10 3253   0.319   1.657  -0.101  0.2814 -0.2261  0.1268
  142DG     C11 3254   0.450   1.681   0.398 -0.2210 -0.6860 -0.2228
  142DG     C12 3255   0.442   1.713  -0.053 -0.5370 -0.7388  0.9817
  142DG     H13 3256   0.399   1.700   0.489  1.0496 -2.9595 -0.6489
  142DG     H14 3257   0.456   1.570   0.396 -2.2572 -1.9751 -1.0942
  142DG     H15 3258   0.460   1.778  -0.135  0.7235 -2.5469 -1.4967
  142DG     H16 3259   0.519   1.635  -0.061 -0.2899 -1.7555 -0.9743
  142DG     C17 3260   0.338   1.733   0.297 -0.2078  0.5903  0.2216
  142DG     C18 3261   0.432   1.780   0.082  0.0640  0.4010  0.0232
  142DG     O19 3262   0.364   1.684   0.163  0.5786  0.2321 -0.1012
  142DG     H20 3263   0.332   1.837   0.296  0.8326 -0.3378 -0.5504
  142DG     H21 3264   0.250   1.683   0.330  2.3480 -1.1523 -1.0941
  142DG     H22 3265   0.530   1.816   0.104 -1.5788  0.0033 -2.8664
  142DG     H23 3266   0.363   1.861   0.071  0.5906 -1.3849 -0.7085
  143DG      C1 3267   4.139   4.259   5.248 -0.0747 -0.1193 -0.4065
  143DG      C2 3268   4.439   3.685   4.959  0.4470 -0.5009  0.4986
  143DG      H3 3269   4.223   4.279   5.311 -0.8681  1.4654  1.4078
  143DG      H4 3270   4.068   4.190   5.300 -1.2025  0.2801  1.4263
  143DG      H5 3271   4.089   4.361   5.238 -4.1063  0.9346 -0.4795
  143DG      H6 3272   4.510   3.657   4.881  0.5136  0.9404  1.5370
  143DG      H7 3273   4.495   3.687   5.053  1.3644  3.0898 -0.3714
  143DG      H8 3274   4.356   3.613   4.975 -1.7998 -0.5590 -0.7816
  143DG      O9 3275   4.186   4.190   5.128 -0.2487 -0.0121  0.1666
  143DG     O10 3276   4.384   3.818   4.933 -0.5127  0.5645  0.4143
  143DG     C11 3277   4.094   4.202   5.024  0.1143 -0.5885  0.3189
  143DG     C12 3278   4.291   3.818   4.831  0.3396 -0.2939  0.2219
  143DG     H13 3279   4.058   4.308   4.998  1.2045 -0.2591 -3.9531
  143DG     H14 3280   4.004   4.152   5.060  0.4617 -1.2906  0.2580
  143DG     H15 3281   4.202   3.760   4.858 -0.2874  1.1878  2.0251
  143DG     H16 3282   4.335   3.775   4.742 -3.7574  0.6988  0.1383
  143DG     C17 3283   4.166   4.149   4.898  0.0374 -0.2206 -0.3270
  143DG     C18 3284   4.259   3.961   4.803  0.3386  0.8050  0.1972
  143DG     O19 3285   4.200   4.012   4.918  0.3579  0.1161  0.3343
  143DG     H20 3286   4.264   4.197   4.883 -1.6176 -0.8090  0.5879
  143DG     H21 3287   4.102   4.166   4.813  2.2117  1.3221 -0.9016
  143DG     H22 3288   4.338   4.024   4.771  0.2456 -2.0668  1.9206
  143DG     H23 3289   4.182   3.960   4.727 -0.4400 -0.9476  0.3742
  144DG      C1 3290   1.107   4.273   2.682 -0.8555  0.6513  1.8812
  144DG      C2 3291   1.567   3.845   2.411 -0.6315 -0.1857 -0.0091
  144DG      H3 3292   1.148   4.315   2.779  0.1717 -0.2008 -0.2771
  144DG      H4 3293   0.999   4.272   2.700  2.8521 -0.0242 -1.1550
  144DG      H5 3294   1.135   4.334   2.591  1.3473  3.8361 -1.3516
  144DG      H6 3295   1.549   3.913   2.328 -1.7180  1.7331  1.0545
  144DG      H7 3296   1.671   3.854   2.453  1.1766 -0.9874  1.5453
  144DG      H8 3297   1.564   3.735   2.383  0.6712 -0.3545  0.2543
  144DG      O9 3298   1.147   4.140   2.673  0.0776 -0.7057 -0.1412
  144DG     O10 3299   1.465   3.870   2.512  0.1911 -0.3802  0.2630
  144DG     C11 3300   1.132   4.066   2.802 -0.6350  0.3752  0.9207
  144DG     C12 3301   1.503   3.812   2.637 -0.4228  0.8296 -0.8202
  144DG     H13 3302   1.040   4.062   2.847  2.9716  0.9808  1.5952
  144DG     H14 3303   1.194   4.122   2.878 -1.2659 -1.2985  3.5502
  144DG     H15 3304   1.575   3.870   2.690 -0.9005  1.4096  0.3697
  144DG     H16 3305   1.539   3.709   2.625  2.3301  0.8725  1.3333
  144DG     C17 3306   1.190   3.928   2.787  0.3196 -0.4294 -0.1031
  144DG     C18 3307   1.376   3.813   2.730 -0.3242 -0.5638 -0.3336
  144DG     O19 3308   1.313   3.938   2.726  0.6930 -0.4518 -0.6076
  144DG     H20 3309   1.124   3.880   2.717 -0.1632 -0.4178  1.4862
  144DG     H21 3310   1.192   3.873   2.883  0.8673  0.6839 -2.0486
  144DG     H22 3311   1.316   3.741   2.679 -2.8363  0.2353 -1.9865
  144DG     H23 3312   1.398   3.782   2.832  0.6141 -0.5667  2.6966
  145THF     O1 3313   5.382   0.482   1.695 -0.1794 -0.0531  0.2973
  145THF     C2 3314   5.377   0.554   1.813  0.6918 -0.0778 -0.1061
  145THF     C3 3315   5.255   0.498   1.641 -0.3642 -0.1153  0.3460
  145THF     H4 3316   5.397   0.661   1.814 -0.1698  1.3279 -0.4644
  145THF     H5 3317   5.453   0.504   1.877 -0.4014  0.2249 -0.6777
  145THF     H6 3318   5.256   0.587   1.581  1.3955 -1.1200  0.8536
  145THF     H7 3319   5.237   0.422   1.562 -1.8865  0.9655  0.1133
  145THF     C8 3320   5.158   0.482   1.757  0.7618  1.2881 -0.8005
  145THF     C9 3321   5.248   0.513   1.879 -0.0022 -0.1973  0.5586
  145THF    H10 3322   5.111   0.385   1.758 -0.7658 -0.3577  0.3383
  145THF    H11 3323   5.068   0.544   1.745 -2.2495 -0.1152 -3.1877
  145THF    H12 3324   5.214   0.594   1.947  1.7326 -0.1868 -0.3786
  145THF    H13 3325   5.258   0.426   1.948  0.2053 -0.2494  0.3102
  146THF     O1 3326   5.491   3.783   5.166 -0.4111 -0.1639  0.0999
  146THF     C2 3327   5.359   3.734   5.212 -0.4295  0.8398 -0.2160
  146THF     C3 3328   5.462   3.922   5.128 -0.1326 -0.3687  0.3033
  146THF     H4 3329   5.349   3.755   5.319 -1.7044 -0.5879  1.7920
  146THF     H5 3330   5.344   3.628   5.196  0.4510 -1.7918  0.6311
  146THF     H6 3331   5.529   3.996   5.177  1.3762 -0.0074 -0.4492
  146THF     H7 3332   5.479   3.938   5.020  2.0844 -1.4791  0.4962
  146THF     C8 3333   5.320   3.961   5.158  0.1477  0.1379  0.0633
  146THF     C9 3334   5.255   3.829   5.152  0.6289 -0.5699 -0.6799
  146THF    H10 3335   5.286   4.044   5.089  0.5267  2.8049  0.3476
  146THF    H11 3336   5.337   4.000   5.261 -0.2762  2.1324 -0.0957
  146THF    H12 3337   5.163   3.818   5.205  1.1209  2.0757 -0.7309
  146THF    H13 3338   5.226   3.799   5.053  0.7114  1.0583  2.8446
  147THF     O1 3339   1.837   1.148   2.845  0.0631  0.5263 -0.3976
  147THF     C2 3340   1.975   1.184   2.822  0.7201  0.6256 -0.1837
  147THF     C3 3341   1.782   1.260   2.911 -0.5425  0.7821 -0.0318
  147THF     H4 3342   1.986   1.228   2.720 -1.0649  2.1072 -1.9775
  147THF     H5 3343   2.038   1.098   2.815 -0.2150  0.2584 -1.2215
  147THF     H6 3344   1.751   1.335   2.837  1.9069  0.1792  2.9383
  147THF     H7 3345   1.690   1.237   2.966 -1.2659 -0.8332  1.3736
  147THF     C8 3346   1.893   1.315   3.000  0.6852  0.0244  0.0479
  147THF     C9 3347   2.025   1.270   2.937 -0.2236  0.7989  0.7027
  147THF    H10 3348   1.892   1.261   3.096  2.2148 -1.9271 -0.7783
  147THF    H11 3349   1.882   1.422   3.034 -0.4896  3.5359 -0.6129
  147THF    H12 3350   2.081   1.357   2.903  0.8838 -0.5856  0.6796
  147THF    H13 3351   2.084   1.209   3.006  1.1639  1.1634 -0.1951
  148THF     O1 3352   1.395   1.959   2.359  0.3168  0.5782  0.3446
  148THF     C2 3353   1.323   2.075   2.328 -0.4613 -0.1686  0.5026
  148THF     C3 3354   1.382   1.919   2.493  0.5900 -0.4016  0.8053
  148THF     H4 3355   1.275   2.059   2.232 -0.3841 -0.3441 -0.0438
  148THF     H5 3356   1.384   2.156   2.316 -0.2431  0.2923 -0.6000
  148THF     H6 3357   1.399   1.812   2.503  0.4898  1.0585 -0.5661
  148THF     H7 3358   1.460   1.973   2.557  1.0348 -0.3336  0.8433
  148THF     C8 3359   1.244   1.971   2.535 -0.3997  0.5223  0.6448
  148THF     C9 3360   1.226   2.096   2.444 -0.5052  0.7460 -0.2607
  148THF    H10 3361   1.244   1.981   2.638 -0.9052  0.4045 -2.1314
  148THF    H11 3362   1.160   1.902   2.512  1.1339 -0.3257  1.8766
  148THF    H12 3363   1.123   2.105   2.408  0.7485 -2.0043  0.7821
  148THF    H13 3364   1.255   2.186   2.503  1.1914  1.2236  0.5752
  149THF     O1 3365   1.929   2.918   5.453  0.6851  0.0513  0.2085
  149THF     C2 3366   1.875   2.980   5.341  0.3647 -0.3456  0.4753
  149THF     C3 3367   1.861   2.789   5.466  0.1002  0.4888  0.5426
  149THF     H4 3368   1.944   3.057   5.310  1.5890  1.3081  0.8442
  149THF     H5 3369   1.773   3.021   5.361  1.0902  1.1154  0.7850
  149THF     H6 3370   1.933   2.717   5.517  0.8287 -0.2555 -1.2450
  149THF     H7 3371   1.765   2.798   5.524 -2.0923 -0.5880  1.0788
  149THF     C8 3372   1.834   2.747   5.325 -0.3016  0.2187  0.2425
  149THF     C9 3373   1.846   2.874   5.236 -0.0511  0.3133  1.4242
  149THF    H10 3374   1.740   2.694   5.317  0.9287  0.6477 -1.0118
  149THF    H11 3375   1.905   2.668   5.293 -0.8243  1.7536 -2.5413
  149THF    H12 3376   1.925   2.849   5.165  1.4041 -2.5738  2.1567
  149THF    H13 3377   1.754   2.892   5.183  0.8979 -2.8929  0.6301
  150THF     O1 3378   3.073   2.954   2.097 -0.3722 -0.0637  0.2513
  150THF     C2 3379   3.042   3.032   2.209 -0.1569  0.2724  0.5938
  150THF     C3 3380   3.202   2.897   2.120  0.3514  0.1265  0.1358
  150THF     H4 3381   2.944   3.066   2.213 -0.0967 -0.7092 -0.9697
  150THF     H5 3382   3.099   3.124   2.211  1.3189 -0.6727  2.5613
  150THF     H6 3383   3.222   2.794   2.070 -1.6990 -1.1668 -0.5537
  150THF     H7 3384   3.274   2.971   2.106  1.0705 -2.1523  2.6231
  150THF     C8 3385   3.193   2.867   2.274  0.6091 -0.2755 -0.1948
  150THF     C9 3386   3.075   2.946   2.329  0.1914  0.3910 -0.6926
  150THF    H10 3387   3.290   2.897   2.319 -1.3541  0.2287  2.4676
  150THF    H11 3388   3.178   2.760   2.300 -0.1951 -0.6340 -1.3204
  150THF    H12 3389   2.990   2.880   2.341 -0.5107 -1.3008  3.1547
  150THF    H13 3390   3.091   2.998   2.420  2.1901 -4.2630  1.4659
  151THF     O1 3391   2.936   2.329   0.256 -0.9153  0.3441 -0.0798
  151THF     C2 3392   2.995   2.446   0.321 -0.1482  0.3997 -0.4588
  151THF     C3 3393   2.941   2.225   0.350 -0.4279  0.3478  0.5494
  151THF     H4 3394   2.931   2.484   0.396 -0.2382  0.3616 -2.5982
  151THF     H5 3395   3.024   2.514   0.237 -1.0268 -0.3860 -0.5900
  151THF     H6 3396   2.841   2.203   0.387  2.0814 -1.3544 -1.9530
  151THF     H7 3397   2.960   2.127   0.301 -1.7519 -3.0272  1.1196
  151THF     C8 3398   3.052   2.258   0.454  0.1548 -0.2632  0.1855
  151THF     C9 3399   3.119   2.372   0.386  0.4053  0.7661 -0.4702
  151THF    H10 3400   3.121   2.172   0.477  1.3750  0.5108 -2.0253
  151THF    H11 3401   3.016   2.284   0.559  0.1501 -0.5589  2.9034
  151THF    H12 3402   3.158   2.449   0.453 -0.7486  1.2954 -1.5528
  151THF    H13 3403   3.195   2.343   0.317 -1.9332 -1.7212  0.9708
  152THF     O1 3404   3.260   0.074   4.487  0.0845  0.2959  0.9591
  152THF     C2 3405   3.228   0.039   4.621  0.9405  0.2972  0.3457
  152THF     C3 3406   3.301   0.214   4.486  0.3066  0.1454  0.1415
  152THF     H4 3407   3.282  -0.050   4.645 -0.0411  1.8497  0.5502
  152THF     H5 3408   3.123   0.027   4.622  1.9826  1.7137  0.4128
  152THF     H6 3409   3.352   0.237   4.393  0.5756  1.5151 -1.0083
  152THF     H7 3410   3.204   0.267   4.494  0.6602 -1.1729  1.1744
  152THF     C8 3411   3.379   0.211   4.620  0.6023 -0.2865  0.1622
  152THF     C9 3412   3.279   0.157   4.701 -0.4467 -0.1314  0.5217
  152THF    H10 3413   3.415   0.308   4.650  2.0533  0.5715 -1.5256
  152THF    H11 3414   3.469   0.151   4.611  0.3283 -1.3493  0.0325
  152THF    H12 3415   3.316   0.120   4.796  0.1863  0.5182  0.6984
  152THF    H13 3416   3.196   0.227   4.718  0.9325  2.1921 -0.6214
  153THF     O1 3417   3.914   2.526   3.226 -0.5648 -0.1794 -0.5099
  153THF     C2 3418   4.038   2.569   3.159  0.1095 -0.0688  0.4359
  153THF     C3 3419   3.944   2.482   3.360  0.5204  0.6712  0.2363
  153THF     H4 3420   4.017   2.634   3.074  0.5107 -1.8066 -1.7475
  153THF     H5 3421   4.083   2.472   3.125 -1.7866  0.6554  1.9646
  153THF     H6 3422   3.856   2.465   3.417 -0.3835 -2.5162 -0.3537
  153THF     H7 3423   3.990   2.381   3.347 -0.1993 -1.5251 -0.6324
  153THF     C8 3424   4.057   2.577   3.401 -0.2848  0.1164  0.1545
  153THF     C9 3425   4.120   2.630   3.271 -0.1226  0.0227 -0.4642
  153THF    H10 3426   4.130   2.534   3.463 -0.8418  1.4831  2.8728
  153THF    H11 3427   4.012   2.649   3.464  1.1499 -2.3843 -0.2283
  153THF    H12 3428   4.100   2.737   3.265 -1.4771 -0.1427 -1.1031
  153THF    H13 3429   4.230   2.615   3.299  1.2919 -2.1087  1.7140
  154THF     O1 3430   5.374   4.581   0.673 -0.1671  0.4522  0.0967
  154THF     C2 3431   5.272   4.558   0.574 -0.6571 -0.4865  0.7713
  154THF     C3 3432   5.426   4.461   0.712  0.3477 -0.0371 -0.2026
  154THF     H4 3433   5.295   4.619   0.480 -0.2519 -1.8162  0.9343
  154THF     H5 3434   5.176   4.580   0.622 -0.2752  0.1754  0.8941
  154THF     H6 3435   5.536   4.458   0.742  0.6375 -0.6982  0.4866
  154THF     H7 3436   5.364   4.413   0.781  0.1704 -0.7422 -5.0079
  154THF     C8 3437   5.412   4.374   0.590  0.5341 -0.0748 -0.5892
  154THF     C9 3438   5.281   4.411   0.532  0.2839  0.4921  0.3111
  154THF    H10 3439   5.422   4.273   0.630  2.1452  2.1964 -0.8851
  154THF    H11 3440   5.493   4.397   0.517 -0.2141  2.2001 -0.5474
  154THF    H12 3441   5.284   4.397   0.427  2.2861  0.3448 -1.0316
  154THF    H13 3442   5.202   4.342   0.573  0.9691 -2.5805 -0.1604
  155THF     O1 3443   2.052   1.663   2.547 -0.4790  0.4184  0.1220
  155THF     C2 3444   2.067   1.656   2.695  0.2666 -0.3746 -0.5379
  155THF     C3 3445   1.938   1.585   2.521  0.1075  0.1008 -0.1699
  155THF     H4 3446   2.103   1.760   2.712  2.5831  0.1954  0.1804
  155THF     H5 3447   2.140   1.579   2.721 -2.3104 -1.4459 -0.5346
  155THF     H6 3448   1.887   1.621   2.423 -2.5129 -0.5348 -1.1795
  155THF     H7 3449   1.948   1.475   2.506  0.5978 -2.3638 -3.3931
  155THF     C8 3450   1.844   1.601   2.642  0.3972 -0.4110 -0.1356
  155THF     C9 3451   1.928   1.638   2.753  0.3886  0.1495  0.8512
  155THF    H10 3452   1.779   1.507   2.655 -2.2487 -2.8441  0.2056
  155THF    H11 3453   1.762   1.674   2.622 -1.6709  3.5070 -2.3502
  155THF    H12 3454   1.898   1.731   2.802  2.1178 -0.5461  0.5425
  155THF    H13 3455   1.944   1.557   2.825  0.9647  0.1891  1.9499
  156THF     O1 3456   5.396   3.539   2.777  0.5918  0.3208 -0.0783
  156THF     C2 3457   5.356   3.396   2.793 -0.5382  0.5675 -0.5992
  156THF     C3 3458   5.501   3.536   2.683 -0.8327 -0.0067 -0.6705
  156THF     H4 3459   5.250   3.373   2.784 -0.4848  0.9127 -0.8407
  156THF     H5 3460   5.372   3.361   2.898  0.1330  2.7396  0.9707
  156THF     H6 3461   5.505   3.627   2.624  3.0994  2.2454 -0.3108
  156THF     H7 3462   5.593   3.518   2.733  2.2067  1.6198 -0.0867
  156THF     C8 3463   5.481   3.411   2.588 -0.3623 -0.9768 -0.0928
  156THF     C9 3464   5.436   3.310   2.691  0.0882  0.0267 -0.0235
  156THF    H10 3465   5.568   3.376   2.542 -2.3910 -2.7839  1.1169
  156THF    H11 3466   5.405   3.433   2.523  0.8903  0.8468  1.2444
  156THF    H12 3467   5.362   3.239   2.640  1.7520  0.0076  0.0719
  156THF    H13 3468   5.522   3.256   2.740  0.4217  1.2904 -0.5046
  157THF     O1 3469   0.461   3.474   2.855  0.4130  0.1186 -0.2301
  157THF     C2 3470   0.570   3.404   2.898  0.5059  0.1632 -0.8343
  157THF     C3 3471   0.474   3.607   2.904 -0.3819 -0.9225  0.2813
  157THF     H4 3472   0.650   3.415   2.827 -1.4717  0.2283 -0.9419
  157THF     H5 3473   0.544   3.305   2.912 -1.0778  0.1500  0.7625
  157THF     H6 3474   0.486   3.681   2.829  0.3927  2.4358  0.4286
  157THF     H7 3475   0.384   3.630   2.967 -2.1375  0.0432 -1.0072
  157THF     C8 3476   0.587   3.613   3.005  0.6136 -0.1462 -1.0180
  157THF     C9 3477   0.602   3.465   3.034  0.0713  0.1821  0.8235
  157THF    H10 3478   0.556   3.671   3.090 -0.6023 -1.2374 -0.9796
  157THF    H11 3479   0.681   3.637   2.960 -0.8545  1.4505  0.9323
  157THF    H12 3480   0.708   3.441   3.059  0.1481 -0.2112  0.7017
  157THF    H13 3481   0.532   3.431   3.112  0.9167  1.0912  2.2581
  158THF     O1 3482   3.667   3.958   4.618 -0.2741  0.4273  0.0445
  158THF     C2 3483   3.656   4.011   4.750  0.3278  0.1117 -0.3397
  158THF     C3 3484   3.743   3.846   4.639 -0.1991  0.6651  0.2047
  158THF     H4 3485   3.559   3.974   4.794  0.7467 -1.3001  1.3316
  158THF     H5 3486   3.655   4.119   4.754  1.6664 -0.2787  1.0011
  158THF     H6 3487   3.674   3.765   4.674  0.9959  1.4243 -0.2085
  158THF     H7 3488   3.780   3.807   4.542 -0.8847 -2.4072 -0.8037
  158THF     C8 3489   3.856   3.885   4.730  0.4014  0.6671  0.6591
  158THF     C9 3490   3.772   3.967   4.829 -0.7013 -0.0303 -0.0828
  158THF    H10 3491   3.924   3.939   4.671 -1.2004 -0.6497  1.0286
  158THF    H11 3492   3.894   3.796   4.777 -3.1377  1.3168  0.8406
  158THF    H12 3493   3.730   3.901   4.899  2.2709  0.6973  1.9360
  158THF    H13 3494   3.826   4.044   4.885 -1.8889  3.6948 -1.1645
  159THF     O1 3495   4.367   4.328   0.776 -0.3531  0.4036  0.1275
  159THF     C2 3496   4.357   4.403   0.894  0.0305  0.2942  1.0139
  159THF     C3 3497   4.389   4.414   0.670  0.4735  0.0949 -1.2668
  159THF     H4 3498   4.354   4.348   0.988  1.0019  1.2052  1.3460
  159THF     H5 3499   4.257   4.453   0.896 -1.0886 -1.0053 -0.7148
  159THF     H6 3500   4.406   4.361   0.579 -0.9150  0.7082 -0.4342
  159THF     H7 3501   4.291   4.442   0.646  0.1431 -1.4669 -0.3842
  159THF     C8 3502   4.487   4.519   0.730  0.9119 -0.1520 -0.2398
  159THF     C9 3503   4.473   4.500   0.879  0.7345  0.0141 -0.1356
  159THF    H10 3504   4.462   4.626   0.701 -2.8119 -0.4131 -1.7595
  159THF    H11 3505   4.586   4.499   0.698  0.6324 -1.4909 -0.6412
  159THF    H12 3506   4.572   4.460   0.918 -0.1083  0.9238  1.3378
  159THF    H13 3507   4.444   4.590   0.930  0.3975 -0.2154 -1.7178
  160THF     O1 3508   2.521   3.758   5.314  0.0530  0.2093 -0.0236
  160THF     C2 3509   2.434   3.789   5.200 -0.1101 -0.0742 -0.1086
  160THF     C3 3510   2.647   3.830   5.291 -0.4035 -0.0813 -0.9678
  160THF     H4 3511   2.334   3.810   5.230 -1.1237  0.2907  0.3376
  160THF     H5 3512   2.422   3.703   5.132  0.2139  1.7879  0.1956
  160THF     H6 3513   2.654   3.922   5.358  2.0376 -2.0080  0.9378
  160THF     H7 3514   2.737   3.772   5.313 -0.9664  0.8598 -2.4236
  160THF     C8 3515   2.644   3.874   5.144 -0.1115  0.0209  0.1319
  160THF     C9 3516   2.500   3.900   5.128  0.7524 -0.1145  0.5270
  160THF    H10 3517   2.683   3.794   5.087  1.0092  1.2011  1.5886
  160THF    H11 3518   2.702   3.966   5.130  1.1559  3.6642  0.0261
  160THF    H12 3519   2.473   3.996   5.173  1.5251  0.2698  0.5212
  160THF    H13 3520   2.462   3.907   5.033  0.2264 -1.0656  1.3701
  161THF     O1 3521   3.739   1.101   4.392 -0.2443 -0.1074  0.4143
  161THF     C2 3522   3.653   1.060   4.499  0.2714 -0.4096  0.2385
  161THF     C3 3523   3.879   1.072   4.419 -0.6228  0.4893 -0.0592
  161THF     H4 3524   3.578   0.985   4.468 -0.7047  0.1985 -0.8386
  161THF     H5 3525   3.600   1.147   4.529 -0.3498  4.1881 -2.3339
  161THF     H6 3526   3.928   1.036   4.330  1.7063  1.9814  0.2948
  161THF     H7 3527   3.922   1.156   4.464 -0.8020 -4.7927  0.0015
  161THF     C8 3528   3.865   0.959   4.522  0.2618 -0.2563 -0.2937
  161THF     C9 3529   3.749   1.012   4.606  0.1885 -0.4479  0.2232
  161THF    H10 3530   3.950   0.943   4.596  1.8541  1.0895 -2.8535
  161THF    H11 3531   3.846   0.867   4.465  0.1841 -0.6479  0.4457
  161THF    H12 3532   3.718   0.933   4.677  2.3665  2.1243 -0.6420
  161THF    H13 3533   3.775   1.091   4.672  2.5167 -1.9407 -3.4908
  162THF     O1 3534   2.817   4.801   1.777 -0.6853 -0.5994  0.2417
  162THF     C2 3535   2.857   4.668   1.761 -0.2505  0.5653 -0.2352
  162THF     C3 3536   2.879   4.861   1.885 -0.3417  0.0957 -0.1034
  162THF     H4 3537   2.877   4.642   1.660 -0.6767 -0.6207 -0.5041
  162THF     H5 3538   2.775   4.603   1.801  0.1429 -1.5199 -3.1497
  162THF     H6 3539   2.898   4.978   1.884 -1.5926 -0.5151  1.2733
  162THF     H7 3540   2.828   4.839   1.977  0.3058  1.7220  0.9987
  162THF     C8 3541   3.021   4.798   1.883 -0.7103 -0.1458 -0.1031
  162THF     C9 3542   2.976   4.653   1.848 -0.1508  0.2301  0.9670
  162THF    H10 3543   3.071   4.806   1.982  1.2523 -1.4333 -1.9385
  162THF    H11 3544   3.078   4.838   1.803  0.5364  2.5067 -0.7065
  162THF    H12 3545   3.056   4.602   1.794 -1.6615 -1.8508 -1.7874
  162THF    H13 3546   2.950   4.602   1.943  1.5034 -0.1950 -0.4621
  163THF     O1 3547   0.784   2.227   1.369  0.1267  0.3048 -0.0374
  163THF     C2 3548   0.750   2.336   1.291 -0.5130 -0.2725  0.6649
  163THF     C3 3549   0.673   2.159   1.414 -0.7900 -0.1751  0.0252
  163THF     H4 3550   0.733   2.298   1.190  0.8961  0.3860 -0.5728
  163THF     H5 3551   0.834   2.406   1.301  1.1542 -0.2694  0.2635
  163THF     H6 3552   0.657   2.057   1.369  1.0477 -0.5409 -0.1264
  163THF     H7 3553   0.690   2.130   1.517 -1.6166 -0.9519 -2.7607
  163THF     C8 3554   0.555   2.249   1.378 -0.6920 -0.1798  0.1151
  163THF     C9 3555   0.621   2.387   1.349  0.5313 -0.3239 -0.3665
  163THF    H10 3556   0.486   2.245   1.463  0.7144  0.2542 -0.1018
  163THF    H11 3557   0.500   2.208   1.289  1.1380  0.7610  0.4848
  163THF    H12 3558   0.551   2.440   1.288 -0.6109  0.1010  2.9083
  163THF    H13 3559   0.640   2.444   1.445 -1.8885 -2.4651 -0.4146
  164THF     O1 3560   4.739   0.255   5.495 -0.3190  0.0700 -0.1178
  164THF     C2 3561   4.841   0.228   5.401  0.4418  0.0907 -0.1127
  164THF     C3 3562   4.651   0.142   5.501  0.4593 -0.1878 -0.3260
  164THF     H4 3563   4.933   0.281   5.422 -1.8170  2.0551  0.2745
  164THF     H5 3564   4.816   0.252   5.295 -0.2616  0.2884 -1.0305
  164THF     H6 3565   4.576   0.129   5.581  2.2799  1.3939  0.1671
  164THF     H7 3566   4.587   0.150   5.413  2.2136 -1.7459 -0.0647
  164THF     C8 3567   4.749   0.024   5.493 -0.2423  0.1883  0.1373
  164THF     C9 3568   4.862   0.077   5.398 -0.2793  0.1267 -0.4149
  164THF    H10 3569   4.697  -0.068   5.456  0.2667  1.2402  0.7874
  164THF    H11 3570   4.792   0.005   5.587  0.7643  2.9146 -0.9982
  164THF    H12 3571   4.955   0.046   5.430  1.0924 -0.9650 -0.8638
  164THF    H13 3572   4.850   0.047   5.295  0.7056 -2.0804  1.1544
  165THF     O1 3573   5.166   0.647   4.588 -0.2254  0.5148  0.0035
  165THF     C2 3574   5.196   0.667   4.450 -0.1318  0.2508  0.3029
  165THF     C3 3575   5.243   0.533   4.632  1.3512  0.0427 -0.0241
  165THF     H4 3576   5.151   0.755   4.416 -0.2782 -0.7585 -1.6192
  165THF     H5 3577   5.152   0.583   4.392 -2.3039  0.1005  1.8494
  165THF     H6 3578   5.264   0.543   4.739 -1.1855 -0.2532  0.0734
  165THF     H7 3579   5.199   0.444   4.603  2.8538  1.2645  0.1752
  165THF     C8 3580   5.381   0.559   4.558  0.4852 -0.1783  0.0470
  165THF     C9 3581   5.340   0.661   4.450  0.3276  0.6592  0.6438
  165THF    H10 3582   5.430   0.471   4.507  1.8203  2.7017  1.7040
  165THF    H11 3583   5.459   0.611   4.618 -1.2261  0.9104  0.2040
  165THF    H12 3584   5.389   0.755   4.468  1.4516 -1.3865  3.7693
  165THF    H13 3585   5.376   0.621   4.359 -1.7826  1.8369  0.1798
  166THF     O1 3586   0.435   1.546   0.896  0.2555  0.5907 -0.4031
  166THF     C2 3587   0.562   1.544   0.825  0.5836  0.3536 -0.1330
  166THF     C3 3588   0.384   1.678   0.906 -0.5297  0.5834 -0.5258
  166THF     H4 3589   0.549   1.508   0.724  0.8763  0.8829 -3.6845
  166THF     H5 3590   0.626   1.488   0.886  1.2606  1.5027 -2.0080
  166THF     H6 3591   0.345   1.719   0.813 -1.1262  1.1765  1.1517
  166THF     H7 3592   0.302   1.700   0.976 -1.5687  0.0630  0.2205
  166THF     C8 3593   0.512   1.743   0.943  0.8654  0.5824 -0.0677
  166THF     C9 3594   0.603   1.684   0.835  0.1030  1.6473  0.0470
  166THF    H10 3595   0.545   1.706   1.042  2.1965  0.1004  0.3400
  166THF    H11 3596   0.506   1.845   0.943 -1.6157 -2.6882  1.5935
  166THF    H12 3597   0.584   1.743   0.742 -3.7513  2.2083  1.3889
  166THF    H13 3598   0.706   1.697   0.858 -2.7677 -1.1154  1.5093
  167THF     O1 3599   0.092   5.117   4.336  0.3159 -0.1704  0.3228
  167THF     C2 3600   0.050   4.991   4.284 -0.4542  0.1726 -0.5032
  167THF     C3 3601   0.049   5.128   4.474  0.1412 -0.2496 -0.5317
  167THF     H4 3602   0.112   4.904   4.319  0.0747  0.9273  0.8566
  167THF     H5 3603   0.033   4.990   4.175  0.2307  2.1701  0.6043
  167THF     H6 3604   0.129   5.094   4.530 -2.0830  1.7305 -2.4394
  167THF     H7 3605   0.030   5.228   4.524 -1.5308 -1.5048 -2.9586
  167THF     C8 3606  -0.074   5.037   4.485 -0.2660 -0.2286  0.2778
  167THF     C9 3607  -0.092   4.977   4.346  0.2455  0.5863 -0.2633
  167THF    H10 3608  -0.165   5.088   4.513 -1.9540 -1.5011 -0.4489
  167THF    H11 3609  -0.058   4.950   4.551 -1.3036 -1.2864 -0.3417
  167THF    H12 3610  -0.123   4.869   4.345  0.1895 -0.1113  4.1484
  167THF    H13 3611  -0.163   5.032   4.281 -0.7896 -2.4968 -1.2425
  168THF     O1 3612   4.383   5.384   3.767 -0.4545 -0.2753 -0.0546
  168THF     C2 3613   4.339   5.504   3.724  0.4216  0.3441 -0.0756
  168THF     C3 3614   4.424   5.311   3.649 -0.4361 -0.3114 -0.0848
  168THF     H4 3615   4.422   5.556   3.686  1.6021  1.5509 -0.6935
  168THF     H5 3616   4.292   5.547   3.812 -0.5682 -0.9584  1.3995
  168THF     H6 3617   4.528   5.336   3.618  0.7581 -1.4078 -1.8905
  168THF     H7 3618   4.396   5.204   3.647  0.9769  0.4542 -1.4718
  168THF     C8 3619   4.329   5.361   3.544 -0.1498 -0.4961  0.0744
  168THF     C9 3620   4.246   5.473   3.612 -0.2191  0.8648  0.5085
  168THF    H10 3621   4.262   5.274   3.510 -1.1764  0.7340  0.8566
  168THF    H11 3622   4.377   5.397   3.450 -0.1236  0.1898  1.3193
  168THF    H12 3623   4.233   5.560   3.554 -0.6315  0.0455  0.6492
  168THF    H13 3624   4.153   5.432   3.645  1.5640  3.8494  0.5609
  169THF     O1 3625   5.140   0.409   1.014 -0.1998  0.1634 -0.4642
  169THF     C2 3626   5.028   0.344   1.055 -0.4248  0.2955  0.6391
  169THF     C3 3627   5.180   0.501   1.110 -0.0972  0.1372 -0.2943
  169THF     H4 3628   4.994   0.262   0.989  0.7604 -0.0462 -0.6809
  169THF     H5 3629   4.937   0.412   1.049 -1.0798 -0.9881  0.0158
  169THF     H6 3630   5.281   0.529   1.098  0.8826 -1.1001  0.7579
  169THF     H7 3631   5.128   0.590   1.104  0.8592 -2.3557  0.2780
  169THF     C8 3632   5.137   0.431   1.242  0.5225 -0.4235 -1.0978
  169THF     C9 3633   5.057   0.313   1.200 -0.6419 -0.3012 -1.1626
  169THF    H10 3634   5.067   0.496   1.301 -0.3705  0.2928  4.8673
  169THF    H11 3635   5.221   0.403   1.303 -1.6293  2.6435 -2.1286
  169THF    H12 3636   5.129   0.232   1.210  1.7358 -0.0234  1.4326
  169THF    H13 3637   4.969   0.284   1.264  0.3106 -0.2273 -0.6599
  170THF     O1 3638   0.574   4.118   4.523  0.4397 -0.3928  0.0487
  170THF     C2 3639   0.695   4.189   4.569  0.1408 -0.7709 -0.4398
  170THF     C3 3640   0.538   4.031   4.621 -0.4147  0.9837  0.7234
  170THF     H4 3641   0.667   4.299   4.574  0.0230 -0.3438  0.3209
  170THF     H5 3642   0.771   4.168   4.491  0.1964 -0.5301 -1.8678
  170THF     H6 3643   0.471   4.081   4.685  1.1187 -1.9627 -1.8202
  170THF     H7 3644   0.481   3.946   4.581  2.6309 -1.1494 -2.0036
  170THF     C8 3645   0.673   3.994   4.691  0.1199  0.8083 -0.2205
  170THF     C9 3646   0.751   4.122   4.703  0.6392  1.0690 -0.2360
  170THF    H10 3647   0.733   3.924   4.638  1.2638  0.0261  0.5832
  170THF    H11 3648   0.653   3.952   4.791  0.2455  0.4690 -0.4368
  170THF    H12 3649   0.716   4.180   4.787  0.4853  1.8646 -3.3188
  170THF    H13 3650   0.859   4.120   4.704 -2.2237  1.6670 -2.6297
  171THF     O1 3651   2.912   1.969   2.055 -0.1696  0.6151  0.1574
  171THF     C2 3652   2.843   2.021   2.169 -0.2942 -0.4646  0.1373
  171THF     C3 3653   3.054   1.990   2.077 -0.0140 -0.5409 -0.1562
  171THF     H4 3654   2.792   1.948   2.220 -0.4427 -1.7351  0.5149
  171THF     H5 3655   2.766   2.079   2.124  2.3216 -0.5524  1.7196
  171THF     H6 3656   3.093   1.911   2.138 -1.9283  3.7550  1.6191
  171THF     H7 3657   3.105   2.002   1.986 -0.9565 -2.0273  1.1013
  171THF     C8 3658   3.056   2.123   2.149  0.3058 -0.0772 -1.2427
  171THF     C9 3659   2.945   2.103   2.256  0.1653 -0.0560 -0.7700
  171THF    H10 3660   3.008   2.206   2.096 -0.7213  2.2640 -0.9538
  171THF    H11 3661   3.143   2.144   2.202 -1.4182 -0.9396  1.1054
  171THF    H12 3662   2.975   2.053   2.349  1.7705  0.9133  0.0149
  171THF    H13 3663   2.906   2.197   2.291 -0.7389 -0.2931 -2.1455
  172THF     O1 3664   1.041   0.969   5.190  0.3559  0.1687 -0.1261
  172THF     C2 3665   0.902   0.993   5.224 -0.6924  0.3020  0.2008
  172THF     C3 3666   1.086   1.099   5.154 -0.3290 -0.3519  0.2135
  172THF     H4 3667   0.899   1.051   5.318  1.7111 -1.5809  0.3073
  172THF     H5 3668   0.848   0.902   5.242 -2.6445 -0.2444  0.3757
  172THF     H6 3669   1.097   1.159   5.241  0.6489 -1.1202 -2.6917
  172THF     H7 3670   1.188   1.088   5.110  1.8356 -0.1648 -1.6755
  172THF     C8 3671   0.978   1.155   5.063  0.3459  0.2427  0.6621
  172THF     C9 3672   0.854   1.065   5.101 -0.5104  0.3784 -0.9593
  172THF    H10 3673   1.003   1.131   4.963  2.1049 -0.0059  0.1941
  172THF    H11 3674   0.948   1.253   5.086  1.4005 -1.9392 -1.3547
  172THF    H12 3675   0.757   1.106   5.127 -0.9491 -2.5595  1.0394
  172THF    H13 3676   0.848   0.997   5.013  0.6014  0.8161 -1.2116
  173THF     O1 3677   4.836   5.265   1.236  0.7953 -0.5591  1.0904
  173THF     C2 3678   4.782   5.157   1.312  0.7167 -0.5442 -0.2953
  173THF     C3 3679   4.754   5.286   1.122 -0.2524  0.7818 -0.6069
  173THF     H4 3680   4.768   5.191   1.410  1.2140  1.1290 -0.5685
  173THF     H5 3681   4.850   5.071   1.325  1.1799 -0.7704 -0.1141
  173THF     H6 3682   4.771   5.389   1.092  1.2849 -0.4046  4.5506
  173THF     H7 3683   4.781   5.216   1.045 -1.3400  2.3333 -1.1324
  173THF     C8 3684   4.612   5.240   1.164  0.9197  0.2628  0.6992
  173THF     C9 3685   4.647   5.125   1.255 -0.0934 -0.2671  0.3137
  173THF    H10 3686   4.552   5.213   1.071 -0.2034  1.1751 -1.1861
  173THF    H11 3687   4.547   5.323   1.206 -0.5372  0.6714 -1.3190
  173THF    H12 3688   4.578   5.126   1.339  0.2057  1.5823  0.2114
  173THF    H13 3689   4.649   5.023   1.210  1.0581 -0.6683  0.8988
  174THF     O1 3690   4.876   3.503   1.119  0.0219 -0.4400 -0.3477
  174THF     C2 3691   4.838   3.413   1.010 -0.3883 -0.0916  0.3154
  174THF     C3 3692   4.824   3.629   1.081  0.4079  0.0041 -0.1018
  174THF     H4 3693   4.822   3.317   1.053 -0.4152  1.5563 -0.4106
  174THF     H5 3694   4.922   3.407   0.942 -1.3337 -1.4017  1.9995
  174THF     H6 3695   4.800   3.699   1.160 -1.3940  0.4512 -0.7022
  174THF     H7 3696   4.888   3.687   1.012 -1.5080 -2.3238 -0.0580
  174THF     C8 3697   4.685   3.592   1.013 -0.1470 -0.7747 -0.2297
  174THF     C9 3698   4.721   3.469   0.937 -0.3734  0.0207 -0.1522
  174THF    H10 3699   4.647   3.673   0.938  0.3257  1.1903 -1.4742
  174THF    H11 3700   4.598   3.574   1.076 -1.7942 -1.7362  0.6585
  174THF    H12 3701   4.645   3.397   0.940  0.2042  0.2906  0.6548
  174THF    H13 3702   4.748   3.493   0.834  0.1585  1.2539  1.3839
  175THF     O1 3703   1.015   4.162   4.287  0.2981 -0.5206 -0.6177
  175THF     C2 3704   1.021   4.281   4.208  0.7499  0.6795  0.5369
  175THF     C3 3705   1.060   4.195   4.419 -0.5481  0.4845 -0.6778
  175THF     H4 3706   0.965   4.263   4.116 -2.4898  1.0596  0.2461
  175THF     H5 3707   1.121   4.302   4.174 -1.8919 -0.7782 -0.9490
  175THF     H6 3708   1.042   4.131   4.501  1.1256 -1.7650 -1.3319
  175THF     H7 3709   1.166   4.203   4.400 -2.5775  2.0709 -1.2918
  175THF     C8 3710   1.024   4.347   4.434  0.7225  0.3088 -0.0443
  175THF     C9 3711   0.973   4.394   4.295 -0.3280  0.5234  0.6402
  175THF    H10 3712   1.106   4.406   4.458  0.8101  0.0937 -1.4637
  175THF    H11 3713   0.950   4.367   4.514  0.2683 -0.8934  0.9135
  175THF    H12 3714   0.862   4.404   4.280  0.4808 -1.7943 -2.7780
  175THF    H13 3715   1.034   4.480   4.276  3.8435 -2.7558 -3.1950
  176THF     O1 3716   5.161   2.106   0.613  0.0354  0.0336  0.3589
  176THF     C2 3717   5.046   2.098   0.534  0.4537  0.1791 -0.2685
  176THF     C3 3718   5.277   2.047   0.550  0.5977  0.4643  0.1732
  176THF     H4 3719   5.003   2.193   0.500  4.5112  0.0771 -0.8126
  176THF     H5 3720   4.969   2.051   0.586 -1.9774  0.2147 -2.2194
  176THF     H6 3721   5.337   2.124   0.495 -1.1382 -0.7251  0.7689
  176THF     H7 3722   5.334   1.990   0.621  1.8850 -1.5333 -1.1409
  176THF     C8 3723   5.212   1.945   0.451  1.0814 -0.4298 -0.4757
  176THF     C9 3724   5.084   2.014   0.407 -0.1043  0.1432  0.2141
  176THF    H10 3725   5.181   1.863   0.510  2.2258 -1.2605 -1.2289
  176THF    H11 3726   5.284   1.914   0.370 -1.8735  1.7860 -0.3353
  176THF    H12 3727   5.100   2.083   0.324  0.5169  1.0541  1.0617
  176THF    H13 3728   5.013   1.934   0.370  3.5783 -2.2289 -1.9587
  177THF     O1 3729   1.324   0.823   4.913 -0.1040  0.0287 -0.2684
  177THF     C2 3730   1.453   0.787   4.871 -0.2582 -1.1619 -0.1789
  177THF     C3 3731   1.272   0.906   4.809  0.2227 -0.1221 -0.5032
  177THF     H4 3732   1.445   0.706   4.794  1.0666 -0.9409 -1.2629
  177THF     H5 3733   1.509   0.748   4.955 -2.1631 -0.6360  0.1018
  177THF     H6 3734   1.244   0.841   4.725  0.3613  1.0254  0.7482
  177THF     H7 3735   1.182   0.954   4.838  1.6440 -0.8483 -1.0954
  177THF     C8 3736   1.394   0.992   4.768 -0.8069  0.3199  0.1551
  177THF     C9 3737   1.515   0.916   4.809 -0.7007 -0.7474  0.1229
  177THF    H10 3738   1.393   1.085   4.826 -1.3565  1.6033 -1.3402
  177THF    H11 3739   1.390   1.007   4.664 -1.1829 -2.1011 -0.4973
  177THF    H12 3740   1.583   0.890   4.722 -0.9587 -0.6915 -2.7547
  177THF    H13 3741   1.574   0.964   4.889  2.1254 -1.6138  1.9223
  178THF     O1 3742   2.226   2.426   1.610  0.1724 -0.2763 -0.4388
  178THF     C2 3743   2.195   2.566   1.604 -0.4287 -0.3215 -1.0533
  178THF     C3 3744   2.328   2.392   1.517  0.1920  0.2499 -0.4294
  178THF     H4 3745   2.129   2.599   1.681 -0.5088  0.1041  2.0560
  178THF     H5 3746   2.135   2.599   1.515  0.6240  1.7525  0.6086
  178THF     H6 3747   2.385   2.305   1.549 -1.2049  2.4240  2.1679
  178THF     H7 3748   2.286   2.360   1.422 -1.0423 -0.2623 -1.6003
  178THF     C8 3749   2.395   2.532   1.496 -0.5339  0.1402 -0.2447
  178THF     C9 3750   2.334   2.634   1.585 -0.0671 -0.5121  1.2019
  178THF    H10 3751   2.390   2.563   1.391  2.8802  2.0903 -1.1918
  178THF    H11 3752   2.496   2.516   1.534 -2.4198  0.2891  1.0885
  178THF    H12 3753   2.384   2.643   1.687  0.3513 -1.6220 -1.8463
  178THF    H13 3754   2.340   2.736   1.545  1.8115 -0.0791  0.1880
  179THF     O1 3755   3.861   1.553   3.750 -0.1663 -0.1044 -0.2918
  179THF     C2 3756   3.863   1.483   3.629  0.9943  0.1994  0.1298
  179THF     C3 3757   3.744   1.503   3.816  0.0739 -0.1928  0.3440
  179THF     H4 3758   3.914   1.385   3.655  0.6380 -2.6043  1.6358
  179THF     H5 3759   3.922   1.535   3.553  1.7827 -2.9814 -1.2326
  179THF     H6 3760   3.771   1.406   3.847 -0.5131  0.4713 -0.9593
  179THF     H7 3761   3.717   1.557   3.907  0.1454  0.1655  0.8739
  179THF     C8 3762   3.641   1.504   3.700  0.8398 -0.5650  0.4503
  179THF     C9 3763   3.720   1.471   3.579 -0.1790  0.0183  0.2623
  179THF    H10 3764   3.581   1.595   3.691  2.5203  0.3385  1.3680
  179THF    H11 3765   3.574   1.424   3.709  0.5439  2.0803 -0.0080
  179THF    H12 3766   3.692   1.376   3.553  2.1651  1.5070 -0.5521
  179THF    H13 3767   3.703   1.538   3.498  0.1543  0.0612 -1.9429
  180THF     O1 3768   4.347   0.165   0.165  0.2110  0.1736  0.3260
  180THF     C2 3769   4.235   0.082   0.184  0.3396 -0.3407 -0.8766
  180THF     C3 3770   4.380   0.224   0.288  0.3391 -0.1522  0.0883
  180THF     H4 3771   4.267  -0.021   0.200 -0.0568 -0.3183  2.3601
  180THF     H5 3772   4.180   0.085   0.084 -0.3727 -0.2430 -1.8114
  180THF     H6 3773   4.427   0.147   0.349  1.4322  1.1190 -2.9226
  180THF     H7 3774   4.455   0.306   0.290  2.1974 -2.6152  3.1779
  180THF     C8 3775   4.238   0.256   0.349 -0.4495  0.1255 -0.4573
  180THF     C9 3776   4.159   0.134   0.307 -0.6821  0.3861  0.0344
  180THF    H10 3777   4.189   0.348   0.315 -0.7235  1.5909 -1.7351
  180THF    H11 3778   4.234   0.271   0.461 -1.8958 -1.2067 -0.4800
  180THF    H12 3779   4.171   0.059   0.384  1.4505  0.9888  0.5582
  180THF    H13 3780   4.055   0.149   0.295  1.1581  1.7340  0.1559
  181THF     O1 3781   2.610   1.644   1.305 -0.5232 -0.6904  0.3661
  181THF     C2 3782   2.611   1.526   1.232 -0.2066  0.3866 -0.0596
  181THF     C3 3783   2.589   1.761   1.228  0.4275  0.4272  0.4076
  181THF     H4 3784   2.546   1.459   1.282  0.0689 -1.0266  1.0653
  181THF     H5 3785   2.705   1.472   1.221 -0.4157 -2.2951  1.9212
  181THF     H6 3786   2.535   1.827   1.295  0.4978 -0.7128 -1.5538
  181THF     H7 3787   2.674   1.825   1.212 -0.3950 -2.3888  0.8558
  181THF     C8 3788   2.512   1.714   1.104  0.1389 -0.1283 -0.2914
  181THF     C9 3789   2.578   1.578   1.088  0.2454  0.4348  0.1018
  181THF    H10 3790   2.532   1.786   1.028 -0.3699 -0.6912  1.4225
  181THF    H11 3791   2.404   1.693   1.113 -1.3098 -0.5539  0.4781
  181THF    H12 3792   2.515   1.516   1.023 -0.3504 -0.7136  4.3222
  181THF    H13 3793   2.676   1.592   1.040 -0.4756 -2.0465 -0.4116
  182THF     O1 3794   5.319   0.270   5.303  0.2493 -0.0873 -0.2640
  182THF     C2 3795   5.199   0.307   5.366  0.3842  0.2141 -0.0157
  182THF     C3 3796   5.430   0.291   5.389 -0.6142 -0.3333  0.5229
  182THF     H4 3797   5.132   0.224   5.355  0.4489  1.2596  1.3119
  182THF     H5 3798   5.163   0.399   5.323 -2.1111 -1.6517  1.1542
  182THF     H6 3799   5.523   0.239   5.375  1.4365  1.4546 -0.6722
  182THF     H7 3800   5.457   0.398   5.391  0.9338 -2.8057  1.9401
  182THF     C8 3801   5.380   0.273   5.530 -0.2786 -0.0378  0.5900
  182THF     C9 3802   5.230   0.322   5.518 -0.1482  0.4854  0.1182
  182THF    H10 3803   5.438   0.339   5.582  0.1892 -3.5060  2.8669
  182THF    H11 3804   5.398   0.165   5.566  1.1931  1.1102 -3.4098
  182THF    H12 3805   5.168   0.253   5.586 -0.4846  1.0844 -0.4825
  182THF    H13 3806   5.224   0.429   5.543  1.9144  0.7141 -0.6674
  183THF     O1 3807   0.096   4.659   1.887 -0.2872  0.0389  0.2285
  183THF     C2 3808   0.140   4.795   1.891 -0.0403  0.1461 -0.0639
  183THF     C3 3809   0.053   4.640   1.753 -0.0382  0.2729  0.4439
  183THF     H4 3810   0.207   4.829   1.973  1.7668  3.2583 -0.9109
  183THF     H5 3811   0.054   4.854   1.902  0.4119 -1.0374 -0.0705
  183THF     H6 3812   0.049   4.532   1.726 -0.3526  0.9594 -2.1502
  183THF     H7 3813  -0.047   4.676   1.730  0.2604 -1.6158 -0.8855
  183THF     C8 3814   0.159   4.706   1.666  0.3683 -0.4150 -0.1543
  183THF     C9 3815   0.203   4.821   1.752 -0.2100 -0.1947  0.5691
  183THF    H10 3816   0.114   4.728   1.567 -0.2032  0.3084  2.0973
  183THF    H11 3817   0.242   4.639   1.659 -1.1121 -0.3567 -0.9015
  183THF    H12 3818   0.314   4.844   1.761  3.0699  0.8888  0.5483
  183THF    H13 3819   0.153   4.912   1.717 -2.0717 -1.1671 -1.0794
  184THF     O1 3820   1.754   0.681   4.985 -1.2878  0.2218 -0.1064
  184THF     C2 3821   1.763   0.633   5.117 -0.9359  0.4164 -0.8716
  184THF     C3 3822   1.873   0.757   4.952  0.8898  0.2414 -0.5397
  184THF     H4 3823   1.812   0.539   5.117 -2.0776  2.3311 -2.1552
  184THF     H5 3824   1.666   0.620   5.159  2.5715  0.2647 -1.7058
  184THF     H6 3825   1.927   0.720   4.866 -0.0650  0.9407  0.1634
  184THF     H7 3826   1.841   0.859   4.932  1.3877 -0.7494  0.4583
  184THF     C8 3827   1.953   0.768   5.086  0.2574  0.7611  0.5306
  184THF     C9 3828   1.849   0.742   5.193  0.0328 -0.8031 -0.2357
  184THF    H10 3829   2.012   0.863   5.103 -0.6947  1.8037 -3.3625
  184THF    H11 3830   2.024   0.692   5.077 -3.4443  0.3577  0.6963
  184THF    H12 3831   1.890   0.729   5.297  2.1082  0.6605  0.0941
  184THF    H13 3832   1.775   0.820   5.198  0.0650  1.4962  1.6890
  185THF     O1 3833   5.334   1.579   0.275  0.8613 -0.6178  0.9068
  185THF     C2 3834   5.278   1.679   0.195  1.0379  0.8741  0.0957
  185THF     C3 3835   5.457   1.546   0.216  0.1786  0.0483  0.2785
  185THF     H4 3836   5.259   1.758   0.267 -1.0615 -1.6310 -1.3470
  185THF     H5 3837   5.176   1.658   0.153 -1.0447 -2.1749 -0.3274
  185THF     H6 3838   5.519   1.496   0.289 -2.8744 -0.0324  2.2709
  185THF     H7 3839   5.420   1.456   0.155 -1.0000 -0.4564  1.3748
  185THF     C8 3840   5.507   1.668   0.142 -0.0986  0.8250 -0.5608
  185THF     C9 3841   5.379   1.711   0.082  0.3947 -0.3740 -0.8293
  185THF    H10 3842   5.580   1.638   0.069 -1.9633  2.2928  0.4138
  185THF    H11 3843   5.539   1.744   0.206 -0.2919 -1.7376 -0.2767
  185THF    H12 3844   5.370   1.811   0.040  0.8061 -0.4506 -2.9489
  185THF    H13 3845   5.348   1.648   0.000  1.2946  1.9191  1.6765
  186THF     O1 3846   4.245   3.482   4.754 -0.0470  0.5562  0.1451
  186THF     C2 3847   4.105   3.464   4.745 -0.0379  0.4666  0.5469
  186THF     C3 3848   4.312   3.475   4.622  0.1012 -0.0011 -0.2745
  186THF     H4 3849   4.044   3.475   4.836  0.7962  1.2446  1.8161
  186THF     H5 3850   4.094   3.363   4.713 -0.6578 -1.3334  2.4997
  186THF     H6 3851   4.403   3.534   4.631 -3.2781 -0.1513  0.7779
  186THF     H7 3852   4.322   3.370   4.590 -0.5186 -1.0178 -1.7454
  186THF     C8 3853   4.198   3.540   4.534  0.4055  0.1105 -0.0417
  186THF     C9 3854   4.082   3.568   4.633 -0.1702  0.2053 -0.2936
  186THF    H10 3855   4.178   3.468   4.453 -2.7004 -1.1286 -1.1947
  186THF    H11 3856   4.233   3.634   4.498  0.3297  0.4637  1.4438
  186THF    H12 3857   4.090   3.672   4.664  0.2715 -0.1224 -2.0255
  186THF    H13 3858   3.980   3.561   4.593 -1.4210  3.5678 -0.2107
  187THF     O1 3859   2.362   1.884   5.500 -0.2334  0.4034  0.4984
  187THF     C2 3860   2.304   1.854   5.371 -0.0426 -0.1116  0.8311
  187THF     C3 3861   2.290   1.812   5.598  0.5569  0.5262  0.3942
  187THF     H4 3862   2.377   1.841   5.289  1.4774 -3.9042  1.2702
  187THF     H5 3863   2.234   1.936   5.341 -1.9391 -2.3810  2.4924
  187THF     H6 3864   2.354   1.809   5.683  0.4102  1.1958  3.9366
  187THF     H7 3865   2.201   1.860   5.617 -0.7153 -1.9646  0.8336
  187THF     C8 3866   2.272   1.681   5.526  0.1254 -0.3616  0.3492
  187THF     C9 3867   2.236   1.714   5.379  0.0892  0.5201  0.4701
  187THF    H10 3868   2.207   1.619   5.580  0.3516  1.6668  0.6062
  187THF    H11 3869   2.375   1.641   5.520 -0.0499 -0.4005 -0.7638
  187THF    H12 3870   2.282   1.631   5.322  2.6422  1.9264 -0.6678
  187THF    H13 3871   2.127   1.708   5.373 -0.4798 -1.2259  2.8036
  188THF     O1 3872   1.618   5.053   2.711 -0.2384  0.2652  0.5548
  188THF     C2 3873   1.636   5.146   2.614  0.3670 -0.6687  0.2335
  188THF     C3 3874   1.499   4.983   2.674  0.3864  0.2647  0.6642
  188THF     H4 3875   1.726   5.114   2.558  0.1530  1.2612 -3.7283
  188THF     H5 3876   1.647   5.245   2.659  0.5229  3.2724 -1.0536
  188THF     H6 3877   1.532   4.915   2.594  1.6573 -1.8254 -0.8692
  188THF     H7 3878   1.449   4.946   2.761 -1.5314  2.3410  2.9424
  188THF     C8 3879   1.407   5.082   2.595  0.0316  0.6779  0.2411
  188THF     C9 3880   1.515   5.157   2.522 -0.9289 -0.2229  0.8281
  188THF    H10 3881   1.350   5.155   2.653  0.9443  1.3034  1.5396
  188THF    H11 3882   1.343   5.038   2.517 -2.6706 -0.5403  1.6618
  188THF    H12 3883   1.538   5.109   2.426  0.6604 -0.8777 -1.5925
  188THF    H13 3884   1.486   5.262   2.496 -1.2874  1.8662  0.3922
  189THF     O1 3885   4.982   5.049   2.126 -0.2315  0.0365  0.5085
  189THF     C2 3886   4.952   4.911   2.128  0.2788 -0.1118  0.3718
  189THF     C3 3887   4.869   5.121   2.183  0.1025  0.4368  0.5226
  189THF     H4 3888   4.981   4.883   2.223  0.1906  1.6368 -0.1283
  189THF     H5 3889   5.004   4.852   2.047 -0.2421  1.0223 -0.1096
  189THF     H6 3890   4.867   5.112   2.295  0.2758  1.5824  0.0231
  189THF     H7 3891   4.873   5.231   2.165  0.9917  2.6337  0.6087
  189THF     C8 3892   4.753   5.049   2.123 -0.2304  0.1853 -1.4136
  189THF     C9 3893   4.804   4.906   2.096  0.3648 -0.5076 -0.5949
  189THF    H10 3894   4.723   5.094   2.032  1.4182  0.7935 -2.3257
  189THF    H11 3895   4.666   5.054   2.195  0.2105  1.3745 -1.1868
  189THF    H12 3896   4.759   4.834   2.163  1.4183  0.8833  0.9421
  189THF    H13 3897   4.778   4.873   1.999  0.4134 -1.7191  2.6369
  190THF     O1 3898   2.261   3.560   4.897  0.0824  0.1040  0.1034
  190THF     C2 3899   2.224   3.533   4.765 -0.1193  0.8992 -0.5027
  190THF     C3 3900   2.146   3.602   4.968 -0.0681  0.5669 -0.4530
  190THF     H4 3901   2.173   3.432   4.757  1.4785  1.7791 -0.2706
  190THF     H5 3902   2.313   3.532   4.701 -0.3252 -0.2024  0.7194
  190THF     H6 3903   2.079   3.520   4.978  1.6679  1.9155 -0.5043
  190THF     H7 3904   2.159   3.639   5.070  1.6997  1.3077 -0.5553
  190THF     C8 3905   2.077   3.704   4.879 -0.2242 -0.5794 -0.0971
  190THF     C9 3906   2.134   3.655   4.735  0.7668  0.2415 -0.2927
  190THF    H10 3907   2.108   3.812   4.896 -0.1201  1.1874 -1.4360
  190THF    H11 3908   1.969   3.701   4.881  1.0604 -0.5103  0.7764
  190THF    H12 3909   2.049   3.632   4.671 -1.6561  0.7362  0.3302
  190THF    H13 3910   2.195   3.736   4.696 -0.1168  0.7213 -1.8336
  191THF     O1 3911   4.289   0.433   3.532  0.0487 -0.3045 -0.3767
  191THF     C2 3912   4.400   0.528   3.554 -0.5117  0.8515  0.4592
  191THF     C3 3913   4.288   0.338   3.631  0.5540  0.5231 -0.1525
  191THF     H4 3914   4.373   0.629   3.517  1.0067  1.3118 -0.6371
  191THF     H5 3915   4.486   0.506   3.489 -1.3117  1.2435  0.7487
  191THF     H6 3916   4.195   0.284   3.637 -0.9522  2.0332 -2.8664
  191THF     H7 3917   4.370   0.266   3.609  1.7471 -0.2708 -0.8379
  191THF     C8 3918   4.322   0.428   3.748  0.2022  0.2312  0.2147
  191THF     C9 3919   4.426   0.525   3.700 -0.6994  0.0908 -0.1894
  191THF    H10 3920   4.345   0.373   3.833  0.6512  1.6947  1.0435
  191THF    H11 3921   4.226   0.478   3.770 -4.8722  2.7419  3.0786
  191THF    H12 3922   4.420   0.622   3.748  0.5050 -0.8079  1.1006
  191THF    H13 3923   4.522   0.483   3.730  0.2152 -0.3311  0.2243
  192THF     O1 3924   2.067   0.220   3.983 -0.0083 -1.0564  0.0601
  192THF     C2 3925   1.977   0.243   3.869 -0.3020 -0.8464 -0.0849
  192THF     C3 3926   1.996   0.147   4.088  0.1555  0.7099  1.1004
  192THF     H4 3927   1.979   0.151   3.808  0.1840 -0.6952 -1.0133
  192THF     H5 3928   2.014   0.327   3.816  2.2265 -4.3239  4.7724
  192THF     H6 3929   1.977   0.054   4.040 -0.1055 -1.2271 -1.1419
  192THF     H7 3930   2.044   0.136   4.184  1.5353 -1.2439 -0.9894
  192THF     C8 3931   1.866   0.217   4.092  0.3096 -0.5332  0.0771
  192THF     C9 3932   1.841   0.255   3.941  0.1672 -0.3556  0.6429
  192THF    H10 3933   1.883   0.304   4.161  0.3855  2.8624  2.9622
  192THF    H11 3934   1.785   0.159   4.138 -3.0804  1.5615  0.3545
  192THF    H12 3935   1.770   0.193   3.899  2.1380 -1.4163  4.1095
  192THF    H13 3936   1.790   0.349   3.921  1.5532 -0.7516  1.3815
  193THF     O1 3937   0.287   2.635   5.320 -0.0820 -0.2285  1.1192
  193THF     C2 3938   0.280   2.768   5.364  0.6431 -0.5865 -0.1919
  193THF     C3 3939   0.346   2.631   5.198 -0.5072 -0.3107  0.3765
  193THF     H4 3940   0.279   2.764   5.476  2.7222 -0.4667 -0.2222
  193THF     H5 3941   0.182   2.816   5.334 -3.6300 -0.4125 -1.5979
  193THF     H6 3942   0.395   2.534   5.182 -1.0645 -1.3998  1.6463
  193THF     H7 3943   0.271   2.645   5.115 -1.7131  1.3984 -0.1465
  193THF     C8 3944   0.442   2.747   5.194 -0.2783  0.2254 -0.7894
  193THF     C9 3945   0.395   2.838   5.294  0.3075  0.1044 -0.4499
  193THF    H10 3946   0.447   2.791   5.094  2.2815  1.0326 -0.7205
  193THF    H11 3947   0.536   2.717   5.233 -1.4338  0.2230 -2.5386
  193THF    H12 3948   0.471   2.873   5.365 -0.9445 -0.7084 -0.3689
  193THF    H13 3949   0.365   2.930   5.243  2.0032 -0.0529 -0.5705
  194THF     O1 3950   2.352   2.903   3.791  0.2199  0.1552  0.0385
  194THF     C2 3951   2.433   2.919   3.909  0.3638  0.5250 -0.1777
  194THF     C3 3952   2.349   2.761   3.760  0.9471  0.2802  0.5908
  194THF     H4 3953   2.369   2.917   3.997 -3.0652  1.5839  0.1877
  194THF     H5 3954   2.477   3.014   3.902  0.7016 -2.4489 -1.0140
  194THF     H6 3955   2.270   2.723   3.834 -1.4521 -0.4576  2.8387
  194THF     H7 3956   2.333   2.748   3.652  0.9302  2.6874 -2.4791
  194THF     C8 3957   2.483   2.710   3.803 -0.1001  0.3281 -0.3930
  194THF     C9 3958   2.527   2.808   3.911  0.4060  0.2414  0.2444
  194THF    H10 3959   2.554   2.732   3.725 -2.1054 -2.7211 -0.4668
  194THF    H11 3960   2.498   2.600   3.809 -0.3771  1.3529  0.2365
  194THF    H12 3961   2.507   2.753   4.004  1.8499  0.3910  0.4436
  194THF    H13 3962   2.633   2.828   3.910  0.2145  2.7829  3.4160
  195THF     O1 3963   2.785   0.377   1.029 -0.2485 -0.6084  0.4238
  195THF     C2 3964   2.810   0.258   1.117 -0.5002 -0.1626  0.2143
  195THF     C3 3965   2.667   0.441   1.076 -0.2743 -0.4277  0.0174
  195THF     H4 3966   2.910   0.212   1.115 -0.1724 -1.8874  1.4541
  195THF     H5 3967   2.738   0.175   1.092  0.5753  2.6226  1.6257
  195THF     H6 3968   2.667   0.546   1.045 -0.8316  1.5960 -0.0308
  195THF     H7 3969   2.570   0.401   1.039 -2.5967  3.8692 -1.1050
  195THF     C8 3970   2.689   0.441   1.228 -0.6911 -0.5065  0.2130
  195THF     C9 3971   2.764   0.314   1.247 -0.3791 -0.5072 -0.0780
  195THF    H10 3972   2.591   0.433   1.271  3.5711 -3.3701  4.2355
  195THF    H11 3973   2.740   0.533   1.263 -0.2458 -2.5686  1.7467
  195THF    H12 3974   2.849   0.325   1.312 -0.3979 -2.7812 -0.8472
  195THF    H13 3975   2.699   0.242   1.287  2.8464 -1.3917 -0.6473
  196THF     O1 3976   3.623   0.388   0.545  0.5030 -0.6175 -0.0168
  196THF     C2 3977   3.547   0.402   0.427 -0.2736  0.0691 -0.2690
  196THF     C3 3978   3.726   0.291   0.517  0.4652  0.5981  0.2561
  196THF     H4 3979   3.495   0.499   0.422  0.5585  2.5333  0.6727
  196THF     H5 3980   3.469   0.324   0.438 -0.5462 -1.1715  3.3273
  196THF     H6 3981   3.818   0.321   0.564 -1.6462  2.4846 -1.5121
  196THF     H7 3982   3.709   0.194   0.569 -1.2723  1.4381 -1.5685
  196THF     C8 3983   3.746   0.279   0.365 -0.0909 -0.9908 -0.3112
  196THF     C9 3984   3.648   0.384   0.314 -0.0240 -0.4084 -0.0456
  196THF    H10 3985   3.716   0.177   0.324  0.6823  2.3812 -3.5278
  196THF    H11 3986   3.853   0.294   0.332 -1.0597 -0.9934 -1.7328
  196THF    H12 3987   3.697   0.484   0.294 -1.5768  0.3868 -0.8499
  196THF    H13 3988   3.596   0.358   0.219  2.9643  0.8640  1.3505
  197THF     O1 3989   5.309   5.298   2.192 -0.9944  0.0550 -0.2006
  197THF     C2 3990   5.383   5.381   2.098 -0.5872  0.3712 -1.1740
  197THF     C3 3991   5.169   5.318   2.156 -0.3844 -0.4948 -0.2146
  197THF     H4 3992   5.401   5.318   2.011 -2.9486 -0.2689  3.1337
  197THF     H5 3993   5.477   5.409   2.139  0.5664  1.8001  0.0226
  197THF     H6 3994   5.153   5.276   2.060 -2.4168  1.6000  1.0648
  197THF     H7 3995   5.110   5.287   2.240  0.6845  3.4474  0.2242
  197THF     C8 3996   5.164   5.472   2.145  1.0005  0.2360 -0.5927
  197THF     C9 3997   5.295   5.500   2.075 -0.4642  0.0084 -0.3300
  197THF    H10 3998   5.169   5.517   2.241  1.7234  0.9963 -1.5017
  197THF    H11 3999   5.067   5.505   2.105 -2.8994 -0.1408  1.7603
  197THF    H12 4000   5.261   5.507   1.976  0.8431 -0.4375 -1.1824
  197THF    H13 4001   5.334   5.595   2.114  1.4489 -1.0364 -0.2613
  198THF     O1 4002   4.236   2.146   3.295 -0.5611  0.4055 -0.0307
  198THF     C2 4003   4.351   2.068   3.270 -0.2623  0.0274 -0.4718
  198THF     C3 4004   4.277   2.254   3.380 -0.1062 -0.1786  0.8931
  198THF     H4 4005   4.407   2.105   3.187  1.5714 -2.0370 -3.1769
  198THF     H5 4006   4.324   1.965   3.239  1.6125  0.8397 -4.3690
  198THF     H6 4007   4.289   2.335   3.310  2.1082  0.0760  2.5368
  198THF     H7 4008   4.203   2.295   3.446  3.4290  0.2091 -1.6389
  198THF     C8 4009   4.410   2.216   3.444  0.6379 -0.0240 -0.3793
  198THF     C9 4010   4.430   2.073   3.398  0.6197  0.4592  0.7987
  198THF    H10 4011   4.416   2.248   3.546 -0.1195  1.2615  0.2410
  198THF    H11 4012   4.481   2.275   3.396  0.1277 -0.6598 -0.3077
  198THF    H12 4013   4.539   2.052   3.391  1.0832  2.5321  1.0238
  198THF    H13 4014   4.374   2.017   3.471  0.9581  1.4373  0.6316
  199THF     O1 4015   4.406   5.377   1.014 -0.3384 -0.6702 -0.3888
  199THF     C2 4016   4.460   5.410   0.892 -0.2461 -0.3052 -0.2268
  199THF     C3 4017   4.265   5.370   1.003 -0.7498 -0.2537  0.1094
  199THF     H4 4018   4.559   5.361   0.896 -2.0072 -0.7790 -0.6588
  199THF     H5 4019   4.468   5.518   0.876  0.0888 -0.1393  1.4132
  199THF     H6 4020   4.224   5.326   1.093  1.7750 -1.1255  1.9973
  199THF     H7 4021   4.252   5.479   0.998  1.2365  4.9969  0.6925
  199THF     C8 4022   4.239   5.296   0.869  0.2047 -0.8043  0.8513
  199THF     C9 4023   4.363   5.340   0.796 -0.6578 -0.0054 -0.4884
  199THF    H10 4024   4.151   5.324   0.815 -0.5236  1.1062  0.5572
  199THF    H11 4025   4.241   5.193   0.892  1.5647 -0.2961  0.3398
  199THF    H12 4026   4.413   5.254   0.750  0.2356  2.2797  0.7880
  199THF    H13 4027   4.343   5.404   0.711 -1.0588 -0.3193  1.8704
  200THF     O1 4028   3.984   4.533   0.723  0.4010 -0.2542 -0.0321
  200THF     C2 4029   3.994   4.404   0.673 -0.5230  0.1898  0.2162
  200THF     C3 4030   4.011   4.627   0.623 -1.0765 -0.4570  0.3071
  200THF     H4 4031   3.911   4.334   0.702 -1.2626  2.5062  1.9343
  200THF     H5 4032   4.096   4.363   0.698  1.3017 -3.4965  2.1879
  200THF     H6 4033   3.980   4.730   0.653  0.8059 -2.4602  0.4773
  200THF     H7 4034   4.122   4.629   0.621 -0.3871  1.1178  0.1784
  200THF     C8 4035   3.946   4.565   0.500  0.2747  0.3682 -0.4343
  200THF     C9 4036   3.977   4.415   0.523  0.0710  0.3106  0.6276
  200THF    H10 4037   4.005   4.594   0.410 -0.4859  0.7954 -0.6570
  200THF    H11 4038   3.838   4.580   0.490 -2.0185 -1.3361 -1.9602
  200THF    H12 4039   3.902   4.352   0.482 -0.1315 -0.7256 -0.4783
  200THF    H13 4040   4.072   4.390   0.472  0.2792  1.2591  2.7589
  201THF     O1 4041   3.442   2.947   3.835 -0.3525 -0.0562 -0.2218
  201THF     C2 4042   3.520   2.843   3.782 -1.0802  0.0938 -0.0057
  201THF     C3 4043   3.536   3.048   3.863 -0.1413 -0.4546  0.0852
  201THF     H4 4044   3.480   2.813   3.686  0.7099  1.1978 -1.0072
  201THF     H5 4045   3.504   2.744   3.834  2.8814 -2.2904 -0.3470
  201THF     H6 4046   3.497   3.150   3.860 -1.8530  1.2817 -1.5532
  201THF     H7 4047   3.565   3.031   3.964  0.7827  0.5628  0.3143
  201THF     C8 4048   3.650   3.044   3.765  0.0241  0.9902 -0.6519
  201THF     C9 4049   3.668   2.895   3.770 -0.1308 -0.3270  0.3461
  201THF    H10 4050   3.735   3.101   3.808  4.5798  1.0914 -0.4298
  201THF    H11 4051   3.620   3.082   3.668 -1.2513  0.7490 -0.9121
  201THF    H12 4052   3.720   2.857   3.686 -3.0577  1.3676  1.6098
  201THF    H13 4053   3.726   2.882   3.864  0.8722 -1.6886  1.5566
  202THF     O1 4054   4.677   0.911   4.102 -0.3128  0.2201 -0.4601
  202THF     C2 4055   4.638   0.899   4.235 -0.1342 -0.0362 -0.1529
  202THF     C3 4056   4.809   0.868   4.088 -0.2096  0.2217 -0.4975
  202THF     H4 4057   4.543   0.853   4.247  1.8653  3.1735  0.2881
  202THF     H5 4058   4.641   0.996   4.283  1.4023 -0.4696  0.2954
  202THF     H6 4059   4.802   0.779   4.033  0.6997  0.0072 -1.1903
  202THF     H7 4060   4.888   0.937   4.044  1.1446  2.6299  0.4840
  202THF     C8 4061   4.865   0.831   4.229 -0.1408 -0.8181  0.0446
  202THF     C9 4062   4.733   0.801   4.296 -0.6367  0.6111 -0.2886
  202THF    H10 4063   4.921   0.919   4.271 -0.1134  2.6826 -1.5377
  202THF    H11 4064   4.924   0.743   4.238 -3.8571 -1.7223 -1.3199
  202THF    H12 4065   4.703   0.700   4.251 -0.9044  1.3935 -0.8040
  202THF    H13 4066   4.741   0.798   4.401 -0.0536  0.1647  1.8124
  203THF     O1 4067   2.699   3.206   0.959 -0.2030  0.0510 -0.0005
  203THF     C2 4068   2.789   3.293   1.022  0.1441  0.4923  0.2849
  203THF     C3 4069   2.568   3.255   0.976  0.2203 -0.1668 -0.0272
  203THF     H4 4070   2.837   3.364   0.955  2.6833  4.5160  2.2757
  203THF     H5 4071   2.871   3.233   1.057 -0.2810  1.2101  1.1292
  203THF     H6 4072   2.517   3.285   0.883  1.0957  3.9704  2.9012
  203THF     H7 4073   2.502   3.181   1.021 -1.9903  1.9317  1.6139
  203THF     C8 4074   2.577   3.384   1.067  0.4578 -0.4918  0.5093
  203THF     C9 4075   2.711   3.364   1.133  0.3073 -0.1949 -0.5153
  203THF    H10 4076   2.489   3.400   1.132 -0.2967 -0.6344 -0.5634
  203THF    H11 4077   2.585   3.472   0.991 -1.5760 -0.0736 -1.7208
  203THF    H12 4078   2.768   3.454   1.159  1.8936 -1.5262  1.5555
  203THF    H13 4079   2.694   3.282   1.206 -1.0673 -0.6500  1.0084
  204THF     O1 4080   3.245   3.354   1.501 -0.0217 -0.3966 -0.4956
  204THF     C2 4081   3.115   3.406   1.506 -0.4750  0.6590  0.2359
  204THF     C3 4082   3.266   3.264   1.390  0.2819 -0.1304 -0.9310
  204THF     H4 4083   3.127   3.501   1.449  2.3701  0.3467 -2.6878
  204THF     H5 4084   3.078   3.431   1.606 -0.5567 -2.2543 -1.4915
  204THF     H6 4085   3.292   3.320   1.300 -0.4950  0.1232  0.5941
  204THF     H7 4086   3.342   3.185   1.424 -1.5770 -0.7516  1.6430
  204THF     C8 4087   3.136   3.205   1.371 -1.0048  0.4636 -0.4338
  204THF     C9 4088   3.030   3.298   1.434  0.3110 -0.0824 -0.4002
  204THF    H10 4089   3.114   3.105   1.412 -1.2841 -1.2319  0.7292
  204THF    H11 4090   3.118   3.207   1.266 -1.8795  3.1748 -0.2858
  204THF    H12 4091   2.978   3.356   1.361 -0.5562 -0.0197  0.9329
  204THF    H13 4092   2.956   3.241   1.498  0.4539 -0.1124  2.2064
  205THF     O1 4093   0.224   2.375   1.419 -0.3265 -0.4476 -0.2175
  205THF     C2 4094   0.137   2.343   1.314 -0.2989 -0.4835 -0.6219
  205THF     C3 4095   0.174   2.503   1.474 -0.5880 -0.7372 -0.6079
  205THF     H4 4096   0.145   2.240   1.284  0.3933 -1.1853  1.5585
  205THF     H5 4097   0.154   2.402   1.226  1.3341  1.0577  1.3509
  205THF     H6 4098   0.213   2.545   1.565 -1.2014  3.3497 -0.8521
  205THF     H7 4099   0.192   2.591   1.405 -2.5513  1.0355 -0.4589
  205THF     C8 4100   0.022   2.473   1.477 -0.6062  0.0530  0.4421
  205THF     C9 4101  -0.003   2.365   1.370  0.9568 -0.5149  0.7057
  205THF    H10 4102  -0.036   2.559   1.441 -0.0067  0.0054 -1.5020
  205THF    H11 4103  -0.004   2.467   1.583 -0.8876  2.5385  0.1521
  205THF    H12 4104  -0.047   2.279   1.408  0.7547  2.0219 -0.6179
  205THF    H13 4105  -0.074   2.398   1.294  0.7836 -2.6398  1.8045
  206THF     O1 4106   5.242   4.153   1.697 -0.8262  0.3544 -0.2263
  206THF     C2 4107   5.286   4.222   1.820 -0.0122  0.2925  0.7386
  206THF     C3 4108   5.354   4.153   1.604 -0.9129  0.6967  0.6091
  206THF     H4 4109   5.240   4.181   1.908  1.9888 -0.9080  0.2951
  206THF     H5 4110   5.273   4.319   1.810 -0.3760 -0.7170  0.4266
  206THF     H6 4111   5.371   4.045   1.582 -2.9305 -2.3526 -3.1937
  206THF     H7 4112   5.316   4.196   1.513 -1.1370 -1.1306 -1.9987
  206THF     C8 4113   5.467   4.234   1.671 -0.9612 -0.9856 -0.2127
  206THF     C9 4114   5.434   4.193   1.817  0.3996 -0.1685  0.3080
  206THF    H10 4115   5.451   4.344   1.647  0.9392 -1.0994  1.3300
  206THF    H11 4116   5.567   4.207   1.635 -1.0802  2.4306  0.4634
  206THF    H12 4117   5.459   4.091   1.838 -1.6603  0.5171  0.0053
  206THF    H13 4118   5.497   4.261   1.883 -1.7530  1.4368 -0.2119
  207THF     O1 4119   0.915   2.129   0.589 -0.0178 -0.2098 -0.4959
  207THF     C2 4120   0.844   2.040   0.502 -0.0064  0.2542 -0.7634
  207THF     C3 4121   0.881   2.093   0.724 -0.0941  0.8525 -0.0859
  207THF     H4 4122   0.876   2.031   0.400  1.6073  0.6569 -0.1173
  207THF     H5 4123   0.737   2.063   0.511  2.6367 -0.4695  1.3505
  207THF     H6 4124   0.970   2.097   0.783  0.0076 -1.7607 -1.0798
  207THF     H7 4125   0.799   2.157   0.757  1.6059  0.4168 -0.5245
  207THF     C8 4126   0.839   1.944   0.722  0.3943  0.2056  0.1679
  207THF     C9 4127   0.858   1.905   0.574  0.6386  0.3425 -0.2143
  207THF    H10 4128   0.738   1.925   0.750  1.0733 -0.5864 -1.5832
  207THF    H11 4129   0.898   1.889   0.790 -0.5588  0.0882  0.8976
  207THF    H12 4130   0.951   1.863   0.557 -1.2405 -1.5450  2.2153
  207THF    H13 4131   0.787   1.828   0.544  0.4222  0.0290  0.8594
  208THF     O1 4132   2.730   3.453   1.936 -0.2852 -0.4393 -0.2355
  208THF     C2 4133   2.746   3.513   2.059 -0.6979 -0.1737  0.6583
  208THF     C3 4134   2.593   3.471   1.906  0.0914  1.1921 -0.2200
  208THF     H4 4135   2.736   3.618   2.048 -2.3655 -2.0958 -1.1380
  208THF     H5 4136   2.836   3.474   2.105 -0.4288  1.6261  1.1515
  208THF     H6 4137   2.574   3.579   1.896  0.0618 -1.6928 -1.5122
  208THF     H7 4138   2.552   3.417   1.823  1.7052  2.3108  1.4119
  208THF     C8 4139   2.530   3.418   2.030  0.1929  0.0345 -0.0959
  208THF     C9 4140   2.626   3.469   2.141  0.7202 -0.4761 -0.4908
  208THF    H10 4141   2.522   3.311   2.031 -0.2410 -1.2569  0.3618
  208THF    H11 4142   2.433   3.460   2.040 -0.5063  0.5117  1.0966
  208THF    H12 4143   2.586   3.547   2.202  0.4514 -0.9094 -1.4122
  208THF    H13 4144   2.646   3.392   2.217 -0.3823 -0.2402  2.6731
  209THF     O1 4145   0.299   2.091   4.476  0.0481  0.6351  0.4411
  209THF     C2 4146   0.236   2.221   4.465 -0.2744 -0.1281 -0.9473
  209THF     C3 4147   0.428   2.110   4.427 -0.0907  0.5834  0.0944
  209THF     H4 4148   0.258   2.270   4.555 -1.4696  1.7029 -1.4634
  209THF     H5 4149   0.126   2.214   4.460  1.1925 -1.5140  3.2670
  209THF     H6 4150   0.491   2.089   4.513 -4.3451  0.2366 -1.2134
  209THF     H7 4151   0.455   2.034   4.358 -0.5906  0.2983  1.0782
  209THF     C8 4152   0.442   2.238   4.364  0.4052 -0.7307 -0.2768
  209THF     C9 4153   0.300   2.298   4.350 -0.9744  0.7626  0.4372
  209THF    H10 4154   0.504   2.230   4.268  0.8385 -0.4451 -0.8082
  209THF    H11 4155   0.507   2.289   4.433 -0.4257 -1.7926 -0.9523
  209THF    H12 4156   0.298   2.404   4.359  2.8176 -0.4555 -1.7039
  209THF    H13 4157   0.255   2.276   4.257 -3.0421  1.3278  1.0054
  210THF     O1 4158   4.465   2.488   2.982 -0.1458 -0.4561  0.4605
  210THF     C2 4159   4.387   2.523   2.860 -0.6703  0.0439  0.2208
  210THF     C3 4160   4.393   2.399   3.066  0.3213 -0.2133 -0.1003
  210THF     H4 4161   4.446   2.472   2.779  0.5849 -2.3166 -0.5078
  210THF     H5 4162   4.384   2.625   2.846  1.4168 -2.2864 -1.6700
  210THF     H6 4163   4.459   2.347   3.128 -5.1646  0.8837  0.8188
  210THF     H7 4164   4.337   2.447   3.140 -1.7260 -0.2503 -1.6580
  210THF     C8 4165   4.286   2.339   2.975 -0.0838  0.2322 -0.4625
  210THF     C9 4166   4.260   2.452   2.886  0.3502 -0.1457 -0.3029
  210THF    H10 4167   4.209   2.281   3.025 -1.1834 -0.8946 -0.2172
  210THF    H11 4168   4.343   2.272   2.909  2.3461 -1.6770 -0.8281
  210THF    H12 4169   4.213   2.406   2.800  0.3307  2.3470  1.5725
  210THF    H13 4170   4.190   2.526   2.930  0.9704 -1.1282  2.4956
  211THF     O1 4171   5.461   0.494   2.715 -0.2958  0.2223 -0.0901
  211THF     C2 4172   5.409   0.450   2.593  0.3658  0.1878 -0.3495
  211THF     C3 4173   5.593   0.445   2.727  0.0592  0.3806 -0.2644
  211THF     H4 4174   5.447   0.506   2.509 -1.7958 -0.8554 -0.2539
  211THF     H5 4175   5.304   0.453   2.579 -0.5297 -1.8710 -2.0569
  211THF     H6 4176   5.669   0.527   2.706  0.3644  1.7226  2.7922
  211THF     H7 4177   5.603   0.395   2.820 -2.5330  2.4379 -2.1688
  211THF     C8 4178   5.611   0.341   2.612 -0.3408 -0.7301 -0.0183
  211THF     C9 4179   5.469   0.310   2.576  0.5705 -0.1474 -0.0239
  211THF    H10 4180   5.668   0.255   2.633 -0.0900  0.3953  0.9590
  211THF    H11 4181   5.661   0.393   2.525  1.5476  1.3671  1.6169
  211THF    H12 4182   5.466   0.255   2.489 -0.6005  0.7244  1.2840
  211THF    H13 4183   5.429   0.243   2.659 -0.9064 -0.2414  1.9806
  212THF     O1 4184   5.297   3.909   3.401 -0.1895 -0.2665  0.3174
  212THF     C2 4185   5.313   4.013   3.494 -0.6609  0.0408  0.3632
  212THF     C3 4186   5.423   3.840   3.384 -0.5144  0.0078 -0.0854
  212THF     H4 4187   5.289   3.982   3.594  0.6579  1.1020  1.3865
  212THF     H5 4188   5.251   4.099   3.468  0.9440 -3.8387  1.0376
  212THF     H6 4189   5.436   3.774   3.468  2.9807  0.3033 -2.3431
  212THF     H7 4190   5.424   3.781   3.294 -1.7243 -2.5385 -0.9397
  212THF     C8 4191   5.531   3.949   3.397 -0.2496  0.1727 -0.0006
  212THF     C9 4192   5.470   4.041   3.496  0.1988  0.5655 -0.2413
  212THF    H10 4193   5.542   3.988   3.298 -1.9024 -0.9130 -3.5099
  212THF    H11 4194   5.629   3.915   3.421 -0.5957  1.5629 -0.5591
  212THF    H12 4195   5.513   4.018   3.591  0.0540 -0.7264 -1.6127
  212THF    H13 4196   5.491   4.146   3.480 -2.2454  0.9273  0.1757
  213THF     O1 4197   5.041   1.263   0.406 -0.0937  0.1076  0.5981
  213THF     C2 4198   4.935   1.195   0.359  0.3112 -0.4531 -0.1743
  213THF     C3 4199   5.143   1.253   0.299  0.3556 -0.2730  0.8256
  213THF     H4 4200   4.885   1.265   0.288 -1.5810 -0.2817 -0.2096
  213THF     H5 4201   4.854   1.178   0.421  1.7893  1.8907 -0.9134
  213THF     H6 4202   5.115   1.309   0.209 -0.6017  2.5121 -1.9481
  213THF     H7 4203   5.249   1.275   0.321 -2.7423  1.5371 -0.2308
  213THF     C8 4204   5.133   1.108   0.262  0.4512 -0.8146 -0.4250
  213THF     C9 4205   4.990   1.068   0.292 -0.1064 -1.0420  0.2582
  213THF    H10 4206   5.201   1.045   0.315 -1.8411  0.8824  0.6255
  213THF    H11 4207   5.152   1.104   0.155 -0.3068  2.8105 -0.3028
  213THF    H12 4208   4.938   1.025   0.211 -0.5805  0.5911  1.2227
  213THF    H13 4209   4.994   0.989   0.365  1.1209  1.5703  0.3302
  214THF     O1 4210   2.692   4.779   4.665  0.6224  0.1880 -0.2797
  214THF     C2 4211   2.626   4.842   4.560 -0.8950 -0.1221  0.2848
  214THF     C3 4212   2.634   4.648   4.662 -0.5485 -0.1741  0.1743
  214THF     H4 4213   2.668   4.942   4.543 -0.4475  1.8466 -2.3200
  214THF     H5 4214   2.526   4.848   4.596 -1.6254  0.1215 -0.8204
  214THF     H6 4215   2.697   4.576   4.710 -1.3528 -0.0010 -0.7899
  214THF     H7 4216   2.533   4.643   4.701 -1.9013 -0.0741 -2.7652
  214THF     C8 4217   2.625   4.610   4.513 -0.1939  0.0092 -0.3370
  214THF     C9 4218   2.622   4.741   4.447 -0.7031 -0.1193  1.6363
  214THF    H10 4219   2.539   4.548   4.491 -0.1085  0.4551 -2.2782
  214THF    H11 4220   2.708   4.551   4.480  0.2137  1.5626  0.9159
  214THF    H12 4221   2.707   4.755   4.378  2.1630 -0.3012  0.9119
  214THF    H13 4222   2.538   4.752   4.375 -2.0744 -1.1000  0.5836
  215THF     O1 4223   2.631   4.852   0.071 -0.1228 -0.1685  0.3249
  215THF     C2 4224   2.592   4.827   0.206 -0.2982  0.1833 -0.0416
  215THF     C3 4225   2.687   4.975   0.060 -0.1209 -0.0520 -0.0057
  215THF     H4 4226   2.560   4.727   0.235 -3.1725  0.4070  3.8190
  215THF     H5 4227   2.504   4.890   0.219 -1.5948  3.3083  2.3311
  215THF     H6 4228   2.732   4.996  -0.040  2.7649 -1.1177 -0.5137
  215THF     H7 4229   2.615   5.054   0.078  2.5819 -0.2381  2.3707
  215THF     C8 4230   2.786   4.969   0.185 -0.8496  0.7374  0.1199
  215THF     C9 4231   2.696   4.899   0.286 -0.2103  0.2264 -0.0128
  215THF    H10 4232   2.804   5.072   0.213 -1.3669  0.0049  1.5467
  215THF    H11 4233   2.877   4.902   0.163 -4.1080 -0.9661 -0.3544
  215THF    H12 4234   2.741   4.822   0.360 -0.9662  1.4067 -0.8220
  215THF    H13 4235   2.647   4.986   0.339 -0.7932  0.6101 -2.2422
  216THF     O1 4236   3.794   1.160   0.600  0.6548  0.3275 -0.4105
  216THF     C2 4237   3.681   1.244   0.562 -0.4770 -0.3227 -0.4591
  216THF     C3 4238   3.738   1.028   0.595 -1.0516  0.5583  1.0285
  216THF     H4 4239   3.716   1.323   0.495 -0.9879 -1.7453  2.3412
  216THF     H5 4240   3.642   1.282   0.654 -1.6173 -1.0883  1.6081
  216THF     H6 4241   3.820   0.960   0.591  1.3646  1.0484  1.6270
  216THF     H7 4242   3.681   0.991   0.682 -0.8291 -0.7170 -0.1198
  216THF     C8 4243   3.642   1.029   0.478 -0.0323 -0.0844  0.3403
  216THF     C9 4244   3.573   1.161   0.496 -0.3138  0.1703 -1.1180
  216THF    H10 4245   3.572   0.948   0.471 -1.1697  1.4929  0.0847
  216THF    H11 4246   3.697   1.034   0.386 -0.1300 -0.2219  0.7949
  216THF    H12 4247   3.515   1.201   0.411  2.4680  0.5438 -0.0505
  216THF    H13 4248   3.500   1.136   0.573 -1.6971 -0.4380  0.0139
  217THF     O1 4249   1.451   4.248   2.469  0.3520  0.2860 -0.5160
  217THF     C2 4250   1.567   4.281   2.546 -0.2175 -0.1348 -0.2225
  217THF     C3 4251   1.440   4.346   2.366  0.2320  0.3229 -0.4838
  217THF     H4 4252   1.609   4.187   2.586 -1.2795  0.2432  0.3104
  217THF     H5 4253   1.534   4.342   2.631 -0.3033 -3.5361  0.0578
  217THF     H6 4254   1.441   4.290   2.267  2.3770 -2.0212 -1.8095
  217THF     H7 4255   1.344   4.397   2.385 -0.1083  0.0973 -0.5140
  217THF     C8 4256   1.564   4.432   2.367  0.1090 -0.2818 -0.3751
  217THF     C9 4257   1.658   4.354   2.456 -0.9668 -0.0876 -0.7543
  217THF    H10 4258   1.555   4.526   2.419 -0.0570 -2.2577 -0.3094
  217THF    H11 4259   1.615   4.443   2.267  3.3940 -1.1856  0.6109
  217THF    H12 4260   1.718   4.276   2.401  1.0893  0.4117 -2.0109
  217THF    H13 4261   1.726   4.421   2.502  2.8870 -2.4546 -0.7007
  218THF     O1 4262   4.247   4.262   3.933 -0.1011 -0.9162  0.1102
  218THF     C2 4263   4.161   4.150   3.906 -0.2596  0.0161 -0.7083
  218THF     C3 4264   4.345   4.267   3.830 -0.3862 -0.1097 -0.3641
  218THF     H4 4265   4.066   4.180   3.856 -1.1562  1.2938  3.1504
  218THF     H5 4266   4.122   4.102   3.998 -1.6961  1.1260  1.4148
  218THF     H6 4267   4.308   4.316   3.741 -0.8183 -1.2034  0.2339
  218THF     H7 4268   4.436   4.317   3.863  1.5312 -0.2943 -2.8480
  218THF     C8 4269   4.375   4.120   3.811  0.1316  0.5306 -0.7247
  218THF     C9 4270   4.237   4.052   3.819 -0.0120  0.3115  0.4784
  218THF    H10 4271   4.423   4.077   3.908  0.2416  0.0744  0.1582
  218THF    H11 4272   4.440   4.111   3.721  1.0007  0.4338 -0.4304
  218THF    H12 4273   4.176   4.025   3.723 -3.0744  3.1213 -1.0190
  218THF    H13 4274   4.259   3.951   3.850 -0.7356  0.6357 -1.4968
  219THF     O1 4275   4.334   3.824   1.443  0.4701 -0.0073  0.5121
  219THF     C2 4276   4.388   3.848   1.312 -0.5552  0.5589  0.3097
  219THF     C3 4277   4.286   3.951   1.492  0.1062  0.1291  0.4807
  219THF     H4 4278   4.402   3.752   1.273 -0.3740 -2.4152  0.8818
  219THF     H5 4279   4.487   3.892   1.324  1.0478 -0.5435  0.1072
  219THF     H6 4280   4.232   3.923   1.585  0.0718 -0.3116  1.2954
  219THF     H7 4281   4.371   4.017   1.526 -1.1699  0.0961 -0.1933
  219THF     C8 4282   4.211   3.995   1.368 -0.5362  0.4163  0.3294
  219THF     C9 4283   4.275   3.921   1.249 -0.0148 -0.1879  0.0228
  219THF    H10 4284   4.220   4.101   1.350 -0.9579  1.0303  1.8236
  219THF    H11 4285   4.109   3.973   1.372  1.1274  0.5081  4.2510
  219THF    H12 4286   4.224   3.838   1.205  0.9030  0.3850  1.7923
  219THF    H13 4287   4.290   3.983   1.159 -1.2773 -0.5321 -1.3229
  220THF     O1 4288   4.048   4.466   1.683  0.2565 -0.3547  0.3310
  220THF     C2 4289   4.061   4.399   1.560 -0.0575  0.3122 -0.0705
  220THF     C3 4290   4.173   4.528   1.705 -0.3006  0.3922 -0.2188
  220THF     H4 4291   3.969   4.365   1.515 -0.7364 -1.3503  0.7133
  220THF     H5 4292   4.133   4.318   1.557 -1.6753  2.4489  2.1290
  220THF     H6 4293   4.166   4.594   1.793  0.3156  2.2119 -1.3774
  220THF     H7 4294   4.265   4.469   1.718  0.8738  3.5968 -1.0497
  220THF     C8 4295   4.180   4.609   1.579 -0.2972  0.5869  0.1532
  220THF     C9 4296   4.114   4.514   1.473  0.2261 -0.2896 -0.2536
  220THF    H10 4297   4.277   4.648   1.560 -0.7471 -0.1799  2.9882
  220THF    H11 4298   4.122   4.699   1.591 -1.7291  1.1755  0.7520
  220THF    H12 4299   4.033   4.563   1.421 -1.3983 -2.3256  3.5896
  220THF    H13 4300   4.184   4.475   1.401 -0.1745 -1.5062 -2.2160
  221THF     O1 4301   3.819   5.270   2.059  0.2301 -0.1635  0.2069
  221THF     C2 4302   3.789   5.237   2.193  0.1897 -0.7359 -0.3397
  221THF     C3 4303   3.715   5.202   1.983  0.1315  1.1668 -0.4273
  221THF     H4 4304   3.693   5.291   2.225  0.1559  2.8491  0.0922
  221THF     H5 4305   3.875   5.250   2.261 -1.2527 -1.9945 -1.1679
  221THF     H6 4306   3.628   5.264   1.980 -0.7166  0.3660  2.3597
  221THF     H7 4307   3.729   5.185   1.876  0.0656 -3.5501 -0.9970
  221THF     C8 4308   3.693   5.070   2.063  0.1622  0.1557  0.1072
  221THF     C9 4309   3.769   5.091   2.196  0.7290  0.5083  0.4079
  221THF    H10 4310   3.742   4.991   2.006 -0.1961  0.3470 -1.5658
  221THF    H11 4311   3.593   5.049   2.085 -1.0089 -1.3734  0.6524
  221THF    H12 4312   3.717   5.055   2.286  0.9525  1.1992  2.1242
  221THF    H13 4313   3.863   5.037   2.196 -0.4372  0.6717  1.7246
  222THF     O1 4314   5.271   0.072   4.724  0.5003 -0.3676 -0.4393
  222THF     C2 4315   5.322  -0.037   4.792 -0.7178 -0.4496 -0.1869
  222THF     C3 4316   5.376   0.149   4.694 -0.2453  0.2687  0.3860
  222THF     H4 4317   5.369  -0.117   4.724 -0.4324 -1.4174 -0.6540
  222THF     H5 4318   5.245  -0.092   4.847  0.8811 -1.5043 -3.1702
  222THF     H6 4319   5.419   0.102   4.606 -0.3569  1.2767  0.7476
  222THF     H7 4320   5.364   0.250   4.646  1.4002  0.4596 -2.9266
  222THF     C8 4321   5.467   0.145   4.813  0.1815 -0.6493  0.8514
  222THF     C9 4322   5.433   0.016   4.881  0.5900 -0.6331 -0.1815
  222THF    H10 4323   5.462   0.230   4.884 -0.5985  0.6344  1.0664
  222THF    H11 4324   5.570   0.140   4.781 -2.5191 -1.1114  1.9886
  222THF    H12 4325   5.513  -0.062   4.887  0.4450  3.5145 -0.9610
  222THF    H13 4326   5.388   0.040   4.974  0.3233 -0.7546 -0.0464
  223THF     O1 4327   0.090   1.144   1.413 -1.0065  0.1344 -0.0900
  223THF     C2 4328   0.027   1.237   1.501 -0.2184  0.3589 -0.6993
  223THF     C3 4329   0.222   1.180   1.384  1.4197 -0.6356 -0.8297
  223THF     H4 4330   0.036   1.206   1.611 -1.4671 -2.7661  0.7550
  223THF     H5 4331  -0.076   1.240   1.481 -2.7281 -0.6640  1.7398
  223THF     H6 4332   0.295   1.122   1.441 -1.7223  1.3054 -3.0934
  223THF     H7 4333   0.230   1.149   1.281  0.9011  0.4334  0.1052
  223THF     C8 4334   0.222   1.336   1.400 -0.1564 -0.9086  0.5052
  223THF     C9 4335   0.103   1.371   1.484 -0.1994  0.4406  0.3949
  223THF    H10 4336   0.207   1.388   1.302  0.0972  1.5690 -0.4445
  223THF    H11 4337   0.310   1.376   1.444 -0.0988  0.3043  1.6731
  223THF    H12 4338   0.129   1.416   1.579  0.3447 -1.5011 -1.0085
  223THF    H13 4339   0.041   1.444   1.436  1.4855 -3.4898  2.2571
  224THF     O1 4340   1.240   4.699   0.997 -0.6063  0.1804 -0.0658
  224THF     C2 4341   1.326   4.671   1.108  0.1135 -0.4718  0.4908
  224THF     C3 4342   1.235   4.834   0.973 -0.3357 -0.4891 -0.2106
  224THF     H4 4343   1.351   4.566   1.122 -1.0597 -0.6162 -0.8752
  224THF     H5 4344   1.285   4.717   1.198  0.9592  0.7977 -2.1788
  224THF     H6 4345   1.189   4.859   0.880  1.0813  1.1617  0.3600
  224THF     H7 4346   1.176   4.882   1.055 -0.4774 -0.8303 -0.5131
  224THF     C8 4347   1.390   4.876   0.986  0.1131  0.1701 -0.7965
  224THF     C9 4348   1.443   4.753   1.066 -0.3876  0.1520 -0.2183
  224THF    H10 4349   1.403   4.977   1.033 -1.4927  0.0248  1.8611
  224THF    H11 4350   1.431   4.890   0.890 -3.8168 -3.6973  0.5123
  224THF    H12 4351   1.508   4.701   1.004  0.9504 -1.9549  0.0500
  224THF    H13 4352   1.511   4.778   1.145 -4.0715  1.1532 -1.1162
  225THF     O1 4353   3.123   4.262   1.777 -0.2880  0.2465  0.2865
  225THF     C2 4354   3.210   4.346   1.856 -0.3935 -0.3163  0.5346
  225THF     C3 4355   3.145   4.122   1.817 -0.2805  0.7683 -0.6354
  225THF     H4 4356   3.143   4.394   1.932  1.4533 -0.5995  1.2805
  225THF     H5 4357   3.253   4.429   1.794  0.8793  3.3938 -0.3155
  225THF     H6 4358   3.091   4.121   1.911 -2.2530 -1.7169  0.7560
  225THF     H7 4359   3.089   4.072   1.744 -1.7999  1.3906 -0.9471
  225THF     C8 4360   3.296   4.121   1.825  0.4487  0.4659 -0.1601
  225THF     C9 4361   3.329   4.255   1.900 -0.0016  0.8366 -0.1748
  225THF    H10 4362   3.345   4.115   1.728  1.3869  1.4660  2.9025
  225THF    H11 4363   3.323   4.034   1.879  0.0831 -1.0772 -1.0347
  225THF    H12 4364   3.331   4.229   2.008 -1.3377 -1.4181 -1.9514
  225THF    H13 4365   3.417   4.302   1.869  1.2839  2.2382  0.3496
  226THF     O1 4366   4.157   3.177   0.703  0.1012  0.0931  0.5821
  226THF     C2 4367   4.281   3.198   0.773 -0.2524 -0.0310 -0.3915
  226THF     C3 4368   4.180   3.209   0.569 -0.4854  0.5681 -0.1453
  226THF     H4 4369   4.341   3.098   0.776  1.4787 -2.0363 -0.0895
  226THF     H5 4370   4.268   3.224   0.881  0.6302 -1.4734 -0.5073
  226THF     H6 4371   4.218   3.123   0.526  0.7402  0.4355  1.5516
  226THF     H7 4372   4.084   3.222   0.513 -0.0282  1.5784 -1.5338
  226THF     C8 4373   4.260   3.336   0.581 -0.1704  0.0433  0.0973
  226THF     C9 4374   4.345   3.311   0.705  1.1360  0.3877  0.8659
  226THF    H10 4375   4.185   3.415   0.610 -1.0657  3.7321 -0.2822
  226THF    H11 4376   4.303   3.358   0.484 -0.3345  0.4566 -0.8157
  226THF    H12 4377   4.451   3.296   0.675  0.3576  3.0077 -1.4143
  226THF    H13 4378   4.326   3.403   0.756  1.9549 -0.4660 -0.2261
  227THF     O1 4379   1.215   3.883   0.345  0.0218  0.1232  0.4830
  227THF     C2 4380   1.351   3.906   0.345  0.6189  0.9096  0.0736
  227THF     C3 4381   1.151   4.007   0.311  0.5421 -0.8102 -0.3562
  227THF     H4 4382   1.401   3.879   0.253 -3.5011 -2.8919  2.9301
  227THF     H5 4383   1.399   3.849   0.419 -0.6439  2.5825 -0.0938
  227THF     H6 4384   1.142   4.017   0.203 -2.9684  1.8199 -1.2719
  227THF     H7 4385   1.054   4.013   0.357 -2.2417  0.1482  1.3754
  227THF     C8 4386   1.239   4.106   0.378  0.6725 -0.2954 -0.1830
  227THF     C9 4387   1.381   4.055   0.372 -0.6745  0.1745  0.4824
  227THF    H10 4388   1.204   4.131   0.480  2.8728  0.4267  0.9810
  227THF    H11 4389   1.240   4.200   0.327 -1.2045 -1.1612  0.8798
  227THF    H12 4390   1.435   4.099   0.282 -0.7283  2.8094  1.7288
  227THF    H13 4391   1.429   4.056   0.465 -1.9899  1.0356 -0.7395
  228THF     O1 4392   3.823   0.004   0.468  0.3909 -0.0608  0.0854
  228THF     C2 4393   3.783  -0.126   0.426  0.0547 -0.2220  0.8304
  228THF     C3 4394   3.933  -0.004   0.551  0.2354 -0.3108 -0.5665
  228THF     H4 4395   3.718  -0.132   0.332  0.3079 -1.5011 -2.1525
  228THF     H5 4396   3.724  -0.175   0.501 -0.6172 -3.7086  0.6047
  228THF     H6 4397   4.002   0.078   0.518  1.2402  2.3577 -0.2564
  228THF     H7 4398   3.905   0.013   0.656  1.9625  3.5442 -0.7317
  228THF     C8 4399   3.989  -0.143   0.536 -0.0429 -0.1022  1.1300
  228THF     C9 4400   3.911  -0.197   0.409 -0.1344  0.2266 -0.1835
  228THF    H10 4401   3.970  -0.202   0.624  1.5307  2.1543  0.1487
  228THF    H11 4402   4.094  -0.147   0.523 -1.2401  2.2143 -0.5531
  228THF    H12 4403   3.948  -0.158   0.316 -0.8408  1.8159  1.3993
  228THF    H13 4404   3.893  -0.301   0.393  1.7716  1.0574 -3.0851
  229THF     O1 4405   1.908   1.993   4.009  0.3873  0.5987 -0.0973
  229THF     C2 4406   1.976   1.984   4.126  0.1107  0.6851 -0.8490
  229THF     C3 4407   1.824   1.880   3.991  0.0253  0.4351 -0.2611
  229THF     H4 4408   1.904   2.014   4.195 -1.6485  2.1400  0.9944
  229THF     H5 4409   2.065   2.051   4.121 -0.9570 -1.5320  1.3313
  229THF     H6 4410   1.733   1.909   4.043 -0.1367 -0.5304 -0.7598
  229THF     H7 4411   1.786   1.853   3.895  1.4755  0.7849  0.0606
  229THF     C8 4412   1.887   1.767   4.078  0.0081 -0.5182 -0.5032
  229THF     C9 4413   2.011   1.835   4.136 -0.2464 -0.2088 -0.2083
  229THF    H10 4414   1.915   1.681   4.018 -2.1792  1.5392 -0.1931
  229THF    H11 4415   1.816   1.737   4.155 -0.8606 -0.0080  2.4117
  229THF    H12 4416   2.024   1.811   4.240 -1.3389  2.1163 -1.9448
  229THF    H13 4417   2.095   1.823   4.075  1.6550 -1.6584 -1.1527
  230THF     O1 4418   4.663   4.000   4.283  0.0858  0.0569 -0.3938
  230THF     C2 4419   4.789   4.028   4.342 -0.0289  0.2281 -0.6925
  230THF     C3 4420   4.680   3.981   4.144  0.6171 -0.2770  0.4848
  230THF     H4 4421   4.794   4.023   4.449 -2.1107 -0.8602  0.6989
  230THF     H5 4422   4.808   4.133   4.320  0.3844  0.9802 -1.5080
  230THF     H6 4423   4.591   3.939   4.088 -0.1270  0.7912  0.7386
  230THF     H7 4424   4.682   4.076   4.094 -0.9686 -0.8349 -0.5821
  230THF     C8 4425   4.817   3.916   4.126 -0.3728  0.0999 -0.2331
  230THF     C9 4426   4.886   3.938   4.269  0.4145  0.1940 -0.0780
  230THF    H10 4427   4.883   3.968   4.053 -0.1071 -0.1424 -2.5128
  230THF    H11 4428   4.814   3.809   4.102  0.8558  0.2166  1.4820
  230THF    H12 4429   4.892   3.842   4.314 -2.4895  1.9195 -1.1796
  230THF    H13 4430   4.985   3.987   4.261  0.3994 -0.4693  0.7216
  231THF     O1 4431   1.666   0.968   5.353 -0.2176  0.1582 -0.1653
  231THF     C2 4432   1.579   0.871   5.411  0.2605  0.4137  0.1595
  231THF     C3 4433   1.586   1.063   5.274  0.4822  0.3240 -0.5006
  231THF     H4 4434   1.543   0.913   5.500  3.0505  0.4159  0.1923
  231THF     H5 4435   1.649   0.791   5.427  0.7386  0.0851 -0.8899
  231THF     H6 4436   1.534   1.116   5.350 -0.4465  1.3547  1.7135
  231THF     H7 4437   1.638   1.130   5.209  1.5472 -0.7077  0.1355
  231THF     C8 4438   1.491   0.964   5.202  0.5627 -0.4154  0.2831
  231THF     C9 4439   1.463   0.858   5.311  0.2275  0.1200  0.3231
  231THF    H10 4440   1.548   0.926   5.113  0.0892 -0.1913  0.8806
  231THF    H11 4441   1.402   1.008   5.156 -0.4702 -1.6037 -2.0887
  231THF    H12 4442   1.368   0.863   5.365 -1.3099  1.1920 -1.1635
  231THF    H13 4443   1.449   0.754   5.271 -2.7792  0.6105  1.4570
  232THF     O1 4444   2.376   0.511   5.192  0.1515 -0.6010  0.5443
  232THF     C2 4445   2.503   0.461   5.236  0.5568 -0.1267 -0.0630
  232THF     C3 4446   2.401   0.629   5.115  0.0290  0.2607 -0.3319
  232THF     H4 4447   2.494   0.358   5.266  1.9432 -1.1080 -0.8289
  232THF     H5 4448   2.540   0.511   5.329  2.6140  0.8199  2.3764
  232THF     H6 4449   2.311   0.647   5.056 -0.9190  0.3716  2.1264
  232THF     H7 4450   2.421   0.714   5.176  0.2705  1.9791 -0.5332
  232THF     C8 4451   2.532   0.594   5.041 -0.6661  0.0450  0.0859
  232THF     C9 4452   2.596   0.482   5.121 -0.0557 -0.4212 -0.8454
  232THF    H10 4453   2.607   0.678   5.022  1.6052  0.5634  1.0245
  232THF    H11 4454   2.498   0.573   4.942 -1.2864 -0.7189 -1.3866
  232THF    H12 4455   2.603   0.394   5.059 -0.7610  2.4149  0.3336
  232THF    H13 4456   2.697   0.499   5.155 -0.5300 -2.4909  0.8215
  233THF     O1 4457   1.709   1.436   4.165 -0.1825 -0.2559 -0.2719
  233THF     C2 4458   1.722   1.336   4.064  0.9429 -0.3225 -0.4807
  233THF     C3 4459   1.586   1.424   4.231  0.3943 -0.5584 -0.0083
  233THF     H4 4460   1.807   1.281   4.068 -0.3017  3.5788  2.0954
  233THF     H5 4461   1.729   1.401   3.973  1.2048 -0.1841 -0.1334
  233THF     H6 4462   1.614   1.351   4.308 -4.6779  1.3307 -1.2020
  233THF     H7 4463   1.543   1.520   4.276 -0.2350 -2.2441  0.8815
  233THF     C8 4464   1.497   1.366   4.116  0.6284  0.2811  0.3045
  233THF     C9 4465   1.590   1.258   4.062  0.2683  0.2436 -0.4105
  233THF    H10 4466   1.467   1.440   4.047 -3.3845 -2.2373  1.0161
  233THF    H11 4467   1.400   1.332   4.149  1.5748  0.7483 -2.5404
  233THF    H12 4468   1.591   1.176   4.136 -0.1595  0.1019 -0.2657
  233THF    H13 4469   1.562   1.218   3.966  0.5885  1.9794 -1.7588
  234THF     O1 4470   2.741   0.862   4.026  0.4815 -0.0414 -0.1606
  234THF     C2 4471   2.839   0.783   3.959  0.2363  0.8717  0.1111
  234THF     C3 4472   2.749   0.826   4.161 -0.3526  0.0966  0.7904
  234THF     H4 4473   2.936   0.814   3.996 -0.6923  1.7201  0.5634
  234THF     H5 4474   2.845   0.787   3.843  3.9261 -0.4352 -1.9506
  234THF     H6 4475   2.826   0.875   4.207  0.4683  0.0958  1.1259
  234THF     H7 4476   2.657   0.846   4.224 -1.7325  1.3634  0.7111
  234THF     C8 4477   2.769   0.673   4.156  0.0687 -0.3710  0.0991
  234THF     C9 4478   2.808   0.640   4.011 -0.2890 -0.4106  0.5518
  234THF    H10 4479   2.680   0.624   4.184  1.0872  0.1403 -1.2121
  234THF    H11 4480   2.845   0.633   4.220  2.2646  1.6653 -1.1023
  234THF    H12 4481   2.896   0.574   4.002  0.2072 -0.2444 -0.4732
  234THF    H13 4482   2.721   0.600   3.970 -0.5247 -0.7229  1.2530
  235THF     O1 4483   2.588   0.559   3.484 -0.0932 -0.2989  0.0406
  235THF     C2 4484   2.486   0.633   3.419 -0.1953 -0.3963 -0.6712
  235THF     C3 4485   2.545   0.434   3.533 -0.0174  1.5421  0.6315
  235THF     H4 4486   2.499   0.595   3.323  0.7733  0.9371  2.1806
  235THF     H5 4487   2.487   0.746   3.419 -1.6201  0.4711 -1.4760
  235THF     H6 4488   2.551   0.370   3.442 -0.3028 -0.2034  0.9418
  235THF     H7 4489   2.605   0.388   3.619  4.2645 -3.6817  0.8666
  235THF     C8 4490   2.399   0.449   3.565 -0.0669 -0.0457 -0.1547
  235THF     C9 4491   2.355   0.570   3.479  0.4742  0.0474 -0.5789
  235THF    H10 4492   2.381   0.470   3.673 -1.2866 -0.7163  2.0274
  235THF    H11 4493   2.329   0.365   3.550  0.9181  2.6511  0.9544
  235THF    H12 4494   2.280   0.540   3.414  0.4526  0.0187 -0.9743
  235THF    H13 4495   2.320   0.653   3.540  0.8404 -1.3105 -1.5361
  236THF     O1 4496   2.798   0.074   1.875 -0.2046  0.4561 -0.1363
  236THF     C2 4497   2.913   0.106   1.801 -0.3687 -0.4511 -0.0373
  236THF     C3 4498   2.772  -0.065   1.852 -0.7148 -0.3215  0.7299
  236THF     H4 4499   3.004   0.076   1.860  1.7158 -1.4057 -2.9298
  236THF     H5 4500   2.931   0.213   1.775 -0.4421  1.4334 -1.2755
  236THF     H6 4501   2.838  -0.125   1.908  0.3681 -0.4524  1.5501
  236THF     H7 4502   2.671  -0.077   1.893  0.3177  0.1048  1.9394
  236THF     C8 4503   2.798  -0.076   1.706 -0.2692 -0.1561  0.3137
  236THF     C9 4504   2.893   0.031   1.672 -0.4172  0.1098  0.6201
  236THF    H10 4505   2.710  -0.065   1.646 -0.4414  0.7312 -2.2787
  236THF    H11 4506   2.838  -0.170   1.684 -3.2215 -1.5782  1.1093
  236THF    H12 4507   2.988  -0.018   1.644  3.5480  1.0079 -0.2343
  236THF    H13 4508   2.862   0.079   1.579 -2.3976 -2.1132  0.3102
  237THF     O1 4509   4.841   0.375   3.903  0.2220 -0.1964  0.3695
  237THF     C2 4510   4.762   0.267   3.877 -0.1451 -0.2582  0.1062
  237THF     C3 4511   4.761   0.488   3.953  0.3083  0.0128 -0.0681
  237THF     H4 4512   4.827   0.178   3.883 -2.8348 -0.4050 -0.4934
  237THF     H5 4513   4.719   0.266   3.778  3.9734  1.1277 -0.3880
  237THF     H6 4514   4.831   0.544   4.011 -0.4029 -1.4918 -0.7485
  237THF     H7 4515   4.725   0.541   3.861  2.2682 -0.5058  0.3039
  237THF     C8 4516   4.653   0.422   4.040 -0.0887 -0.0296 -0.1834
  237THF     C9 4517   4.665   0.272   3.994  0.1851 -0.1880  0.3546
  237THF    H10 4518   4.544   0.452   4.021 -0.8489  1.6587  0.2289
  237THF    H11 4519   4.672   0.435   4.149 -0.1078 -2.0443  0.1635
  237THF    H12 4520   4.695   0.205   4.080 -0.2421 -1.3865 -1.1402
  237THF    H13 4521   4.565   0.235   3.963 -0.2430  1.5395 -0.2600
  238THF     O1 4522   3.470   4.318   3.902  0.2645  0.0768  0.5181
  238THF     C2 4523   3.467   4.445   3.830  0.2726 -0.5279 -0.1699
  238THF     C3 4524   3.599   4.267   3.886  0.5571 -0.0697  0.3100
  238THF     H4 4525   3.383   4.506   3.854  1.3014  0.4167 -1.9538
  238THF     H5 4526   3.458   4.424   3.723 -0.0458  0.0143  2.0937
  238THF     H6 4527   3.616   4.173   3.937 -1.2209 -0.0161  0.4464
  238THF     H7 4528   3.619   4.237   3.785  0.3136  0.1705 -0.2672
  238THF     C8 4529   3.683   4.389   3.927  0.1419 -0.3424 -0.0940
  238THF     C9 4530   3.598   4.509   3.867  0.0607  0.1481 -0.2458
  238THF    H10 4531   3.778   4.358   3.884  1.4077 -1.8326 -0.9119
  238THF    H11 4532   3.701   4.393   4.029  1.1953 -0.0982 -2.1961
  238THF    H12 4533   3.591   4.580   3.945  1.9277 -1.3980 -4.1090
  238THF    H13 4534   3.644   4.559   3.777 -0.4811  0.1738 -0.5368
  239THF     O1 4535   1.679   1.661   0.744  0.0263 -0.0970  0.0840
  239THF     C2 4536   1.734   1.614   0.625  0.2059 -0.9463  0.4466
  239THF     C3 4537   1.717   1.791   0.771 -0.1757  0.0329 -0.4612
  239THF     H4 4538   1.674   1.653   0.538  0.5360 -1.8550 -1.4637
  239THF     H5 4539   1.750   1.503   0.613  0.4924 -0.8028 -0.3186
  239THF     H6 4540   1.630   1.857   0.762  0.4169 -1.3667  0.8402
  239THF     H7 4541   1.753   1.799   0.873 -2.8672 -0.9558  1.2440
  239THF     C8 4542   1.833   1.822   0.663  0.1868 -0.0346  0.3619
  239THF     C9 4543   1.873   1.682   0.638  0.0268  0.1273  0.2058
  239THF    H10 4544   1.920   1.869   0.693  0.2403  0.6099  0.0059
  239THF    H11 4545   1.787   1.871   0.575 -0.3085  1.3743  0.3204
  239THF    H12 4546   1.937   1.672   0.548  1.0095 -0.7215 -0.2426
  239THF    H13 4547   1.932   1.634   0.719  1.8004  2.6120  2.0391
  240THF     O1 4548   1.144   2.763   3.516 -0.3024 -0.0490  0.1699
  240THF     C2 4549   1.060   2.729   3.626  0.1217 -0.4516 -0.1212
  240THF     C3 4550   1.214   2.638   3.488  0.1178  0.0819 -0.2418
  240THF     H4 4551   0.977   2.674   3.584  0.0726  0.6306  1.7539
  240THF     H5 4552   1.034   2.824   3.672 -0.2050  0.0550  2.0245
  240THF     H6 4553   1.145   2.550   3.465  0.0691 -3.0469 -2.5269
  240THF     H7 4554   1.293   2.648   3.413 -1.1307 -0.7548 -1.3701
  240THF     C8 4555   1.264   2.600   3.629 -0.1704 -0.1951  0.4050
  240THF     C9 4556   1.150   2.653   3.717  0.4744  0.5711  0.6674
  240THF    H10 4557   1.357   2.651   3.654  0.0073  1.5904 -0.3258
  240THF    H11 4558   1.292   2.491   3.628 -1.3230 -1.3892 -1.3604
  240THF    H12 4559   1.093   2.578   3.772 -1.9960 -0.1850 -0.3423
  240THF    H13 4560   1.190   2.724   3.787  0.0283 -0.0643 -2.3079
  241THF     O1 4561   4.673   2.344   4.661  0.3420  0.6840 -0.1850
  241THF     C2 4562   4.540   2.401   4.630  0.3376 -0.4650  0.1174
  241THF     C3 4563   4.734   2.441   4.751 -0.3225 -0.0833 -0.1508
  241THF     H4 4564   4.468   2.330   4.588 -1.0697 -2.1522  0.5377
  241THF     H5 4565   4.553   2.485   4.556  0.1942  1.9118 -0.7739
  241THF     H6 4566   4.831   2.400   4.785  1.8636 -1.7610  0.1064
  241THF     H7 4567   4.752   2.525   4.688 -1.7376 -4.1717 -0.2451
  241THF     C8 4568   4.625   2.479   4.852 -0.0760 -0.0395 -0.6192
  241THF     C9 4569   4.498   2.456   4.767  0.4459  0.8553 -0.2236
  241THF    H10 4570   4.634   2.572   4.907 -1.3854 -0.4898  0.1031
  241THF    H11 4571   4.627   2.395   4.924 -0.8354  0.2096 -2.3666
  241THF    H12 4572   4.428   2.386   4.818 -2.4877  0.2060 -2.2663
  241THF    H13 4573   4.448   2.552   4.758  0.0058  1.3438  1.9750
  242THF     O1 4574   1.161   1.456   4.632 -0.6765  0.3794 -0.5988
  242THF     C2 4575   1.287   1.491   4.571 -0.2213  0.7673 -0.2097
  242THF     C3 4576   1.079   1.409   4.528  0.9876 -0.2250  0.1816
  242THF     H4 4577   1.359   1.497   4.648  0.0322  0.3693 -4.8484
  242THF     H5 4578   1.280   1.589   4.528  1.3972  0.8230  2.6797
  242THF     H6 4579   0.988   1.354   4.565 -0.0160 -0.9778  0.2910
  242THF     H7 4580   1.039   1.492   4.483  0.1788 -4.4545 -0.8164
  242THF     C8 4581   1.179   1.320   4.453 -0.4377 -0.3991 -0.9487
  242THF     C9 4582   1.311   1.382   4.471 -0.4375 -0.0301  0.4960
  242THF    H10 4583   1.153   1.300   4.351  1.3261 -1.5702  0.5729
  242THF    H11 4584   1.183   1.213   4.484  0.9873 -0.2646  0.3116
  242THF    H12 4585   1.384   1.314   4.511 -1.9319 -0.5278  1.9171
  242THF    H13 4586   1.356   1.434   4.384  0.7282 -2.2680 -1.3397
  243THF     O1 4587   2.483   1.586   4.743  0.3038  0.6245 -0.1364
  243THF     C2 4588   2.412   1.523   4.638  0.1117 -0.0151 -0.0210
  243THF     C3 4589   2.533   1.702   4.684  0.9698 -0.2001  0.2715
  243THF     H4 4590   2.320   1.579   4.611 -2.6751  0.1685  0.6194
  243THF     H5 4591   2.382   1.420   4.655 -2.7262  2.8993 -2.4217
  243THF     H6 4592   2.456   1.778   4.670  0.8584 -0.2738  2.1800
  243THF     H7 4593   2.603   1.742   4.760  0.2069 -1.0916 -1.5296
  243THF     C8 4594   2.611   1.651   4.564  0.3563 -0.0993  0.0538
  243THF     C9 4595   2.524   1.527   4.536 -0.0103 -0.5068  0.6330
  243THF    H10 4596   2.712   1.630   4.597 -1.3532  1.0969 -4.3877
  243THF    H11 4597   2.604   1.718   4.478 -0.3172  3.2172  0.9721
  243THF    H12 4598   2.471   1.539   4.442  0.3935  0.2341 -1.8798
  243THF    H13 4599   2.583   1.439   4.545  2.0167  0.5472  2.4860
  244THF     O1 4600   3.466   3.754   0.500  0.0094 -0.4549  0.1150
  244THF     C2 4601   3.523   3.630   0.466 -0.4929 -0.1875 -0.0344
  244THF     C3 4602   3.477   3.778   0.641 -0.1434  0.7161 -1.1399
  244THF     H4 4603   3.534   3.603   0.361 -0.9925  0.7778  0.4224
  244THF     H5 4604   3.471   3.543   0.509 -0.2946  0.9019 -3.4458
  244THF     H6 4605   3.503   3.889   0.645  2.5709  0.4486 -1.0239
  244THF     H7 4606   3.408   3.738   0.712  2.9985  2.7293  0.4973
  244THF     C8 4607   3.609   3.714   0.673 -0.6467 -0.1865 -0.1935
  244THF     C9 4608   3.651   3.636   0.545  0.2989  0.0381  0.1126
  244THF    H10 4609   3.612   3.653   0.762  3.3065 -1.8717  0.0307
  244THF    H11 4610   3.693   3.780   0.692  0.6942 -0.7116 -0.4144
  244THF    H12 4611   3.730   3.681   0.483  1.2004  0.3050 -0.6891
  244THF    H13 4612   3.686   3.544   0.580  0.5523  2.2686 -0.4327
  245THF     O1 4613   5.395   1.722   5.258  0.3305  0.2399  0.5695
  245THF     C2 4614   5.521   1.758   5.199 -0.3339  0.3031  0.8014
  245THF     C3 4615   5.297   1.820   5.215 -0.3372  0.1453 -0.2851
  245THF     H4 4616   5.522   1.719   5.094  2.0117  0.3655  0.6146
  245THF     H5 4617   5.595   1.714   5.254  1.5902  0.8855 -0.6147
  245THF     H6 4618   5.272   1.795   5.113  0.9364  1.3494 -1.7795
  245THF     H7 4619   5.202   1.824   5.270 -0.1577 -1.1956 -0.0557
  245THF     C8 4620   5.377   1.945   5.222 -0.5967  0.0677 -0.8193
  245THF     C9 4621   5.526   1.910   5.199  0.1074 -0.5112 -0.8745
  245THF    H10 4622   5.363   1.986   5.319  0.2820 -1.8700 -0.0761
  245THF    H11 4623   5.346   2.012   5.141  1.3362 -0.5012 -0.5124
  245THF    H12 4624   5.569   1.956   5.111  2.6485  2.4232 -0.9589
  245THF    H13 4625   5.585   1.947   5.285  1.9169  0.9534  2.6112
  246THF     O1 4626   4.072   0.077   4.753 -0.0366  0.0788  0.0816
  246THF     C2 4627   4.010   0.111   4.631 -0.1820  0.5806 -0.6820
  246THF     C3 4628   4.193   0.011   4.722  0.3174  0.0017  0.2107
  246THF     H4 4629   4.042   0.211   4.585 -1.1322 -2.1730 -1.3187
  246THF     H5 4630   3.907   0.101   4.663  1.0728  0.6434  2.7799
  246THF     H6 4631   4.278   0.080   4.712  0.0850 -1.1686  1.3447
  246THF     H7 4632   4.224  -0.049   4.805 -2.7015  0.6568 -2.0632
  246THF     C8 4633   4.170  -0.067   4.593 -0.0369  0.4067 -0.2813
  246THF     C9 4634   4.055   0.001   4.541  1.0616  0.5301  0.2252
  246THF    H10 4635   4.153  -0.174   4.616 -1.4902 -0.2230  0.9492
  246THF    H11 4636   4.240  -0.050   4.519  0.6793 -2.5389  2.2836
  246THF    H12 4637   4.078   0.037   4.439  2.1884  0.2420  0.0068
  246THF    H13 4638   3.970  -0.076   4.537 -1.8415 -1.5553 -2.4027
  247THF     O1 4639   3.869   4.716   2.414 -0.3144  0.1255  0.4109
  247THF     C2 4640   3.967   4.795   2.344 -0.9549  0.5100 -0.6140
  247THF     C3 4641   3.740   4.746   2.353  0.0707 -0.4303 -0.5291
  247THF     H4 4642   4.058   4.750   2.378 -0.5403 -3.5030  1.4737
  247THF     H5 4643   3.960   4.904   2.357 -2.2144 -1.7479 -0.8082
  247THF     H6 4644   3.670   4.672   2.390  0.5166 -0.2253  2.0120
  247THF     H7 4645   3.698   4.844   2.379 -2.2104  1.1507 -1.5948
  247THF     C8 4646   3.782   4.730   2.206 -0.2441 -0.1991 -0.3834
  247THF     C9 4647   3.932   4.761   2.197  0.3140  0.0724  0.4824
  247THF    H10 4648   3.725   4.804   2.152  0.7571 -0.8666  1.5597
  247THF    H11 4649   3.749   4.639   2.154 -0.0822  2.2466  1.2334
  247THF    H12 4650   3.982   4.671   2.161  0.2797 -0.8786  0.1988
  247THF    H13 4651   3.957   4.840   2.126  0.1552  1.9406  0.3359
  248THF     O1 4652   4.225   5.198   2.622 -0.4933 -0.2245 -0.0219
  248THF     C2 4653   4.146   5.099   2.556 -0.4211 -0.7911 -0.1142
  248THF     C3 4654   4.142   5.256   2.722  0.3644 -0.1451  0.0418
  248THF     H4 4655   4.175   5.006   2.609  1.6149  0.4833 -1.9375
  248THF     H5 4656   4.158   5.096   2.448  0.8076  0.0231  2.2672
  248THF     H6 4657   4.150   5.195   2.809 -0.9410 -0.1505 -0.5225
  248THF     H7 4658   4.186   5.349   2.753  1.6798 -0.9262 -0.4632
  248THF     C8 4659   4.004   5.268   2.669  0.1009  0.0886 -0.1443
  248THF     C9 4660   3.998   5.141   2.579  0.7042 -0.1061  0.0742
  248THF    H10 4661   3.996   5.365   2.610 -1.1090 -0.5199 -0.5428
  248THF    H11 4662   3.924   5.269   2.740  3.2545 -0.6674 -0.4798
  248THF    H12 4663   3.951   5.059   2.642 -0.7806  0.9147 -1.4774
  248THF    H13 4664   3.926   5.143   2.493  1.2671 -0.6461 -0.0125
  249THF     O1 4665   0.141   2.207   3.428 -0.4254  0.0868  0.0821
  249THF     C2 4666   0.239   2.122   3.484 -0.5867 -0.3095  0.4130
  249THF     C3 4667   0.142   2.329   3.507 -0.4373  0.7173  0.2539
  249THF     H4 4668   0.244   2.038   3.417  3.2564  0.9321  0.5467
  249THF     H5 4669   0.225   2.076   3.582 -0.4036 -0.7815  0.1695
  249THF     H6 4670   0.081   2.396   3.451  0.6000  3.2699 -0.9804
  249THF     H7 4671   0.107   2.315   3.608  3.4792  1.8251  0.0932
  249THF     C8 4672   0.293   2.360   3.517 -0.4523  0.3736 -0.8683
  249THF     C9 4673   0.356   2.222   3.483  0.3851  0.1186 -0.0253
  249THF    H10 4674   0.317   2.400   3.614  1.0774  0.3668  1.7085
  249THF    H11 4675   0.331   2.438   3.446  0.0931  0.9360 -0.0537
  249THF    H12 4676   0.415   2.226   3.390  0.4623  0.9841  2.6200
  249THF    H13 4677   0.429   2.214   3.562 -0.7734  1.3473 -1.4558
  250THF     O1 4678   3.269   4.783   2.392 -0.6953  0.2625 -0.0033
  250THF     C2 4679   3.198   4.825   2.511  0.3416 -0.0746 -0.1834
  250THF     C3 4680   3.306   4.898   2.325  0.1968  0.2308 -0.2421
  250THF     H4 4681   3.267   4.830   2.597 -3.3766  3.0400  0.0095
  250THF     H5 4682   3.114   4.752   2.532 -0.9964 -2.9664 -1.0961
  250THF     H6 4683   3.398   4.942   2.363  2.3444 -0.2265 -1.2809
  250THF     H7 4684   3.333   4.872   2.227  1.4632  0.3010 -1.4680
  250THF     C8 4685   3.178   4.978   2.334 -0.0784  0.2589 -0.3429
  250THF     C9 4686   3.125   4.952   2.475  0.4766  0.7619  0.2549
  250THF    H10 4687   3.115   4.936   2.255 -0.6854 -1.6658 -1.7650
  250THF    H11 4688   3.186   5.082   2.298  0.4198 -1.4624 -1.1578
  250THF    H12 4689   3.143   5.036   2.536  1.0149 -1.4426 -1.9326
  250THF    H13 4690   3.020   4.926   2.467  0.6333  1.2721 -0.7020
  251THF     O1 4691   4.502   1.225   3.901 -0.5342 -0.0076 -0.0715
  251THF     C2 4692   4.641   1.221   3.898  0.5292  0.7218  0.0381
  251THF     C3 4693   4.455   1.320   4.001  1.0774  0.1721  0.9214
  251THF     H4 4694   4.681   1.194   3.801  0.9171 -2.5075  0.4897
  251THF     H5 4695   4.674   1.149   3.975  1.1675  1.9647  0.2010
  251THF     H6 4696   4.399   1.402   3.954  1.2125  0.7138 -1.4013
  251THF     H7 4697   4.390   1.262   4.068  2.4349  0.3817  1.1929
  251THF     C8 4698   4.576   1.379   4.070 -0.0378  0.5879 -1.0446
  251THF     C9 4699   4.681   1.351   3.961  0.4149  0.0084 -0.2022
  251THF    H10 4700   4.587   1.323   4.161 -0.7988  0.0625  1.8819
  251THF    H11 4701   4.564   1.485   4.102  1.3140 -0.8134  1.5039
  251THF    H12 4702   4.676   1.435   3.888  0.9765  2.2128  0.0204
  251THF    H13 4703   4.785   1.344   3.983 -1.3268  1.3132  2.6027
  252THF     O1 4704   3.018   5.210   1.857 -0.0804 -0.0649 -0.0024
  252THF     C2 4705   3.130   5.198   1.774  0.6799  0.0766 -0.8036
  252THF     C3 4706   3.067   5.264   1.985  0.7595  0.2239 -0.1232
  252THF     H4 4707   3.136   5.292   1.716 -0.8742  0.2591  0.3977
  252THF     H5 4708   3.116   5.109   1.719 -1.3172  0.0121  0.7489
  252THF     H6 4709   3.060   5.374   1.997  1.1845 -0.5557  1.3339
  252THF     H7 4710   2.997   5.224   2.056 -0.6901  1.2867 -1.8544
  252THF     C8 4711   3.207   5.208   2.006 -0.5355 -0.3400  0.1083
  252THF     C9 4712   3.252   5.201   1.863 -0.1331 -0.4300 -0.1956
  252THF    H10 4713   3.212   5.108   2.039  0.9569 -0.8810  0.5970
  252THF    H11 4714   3.275   5.255   2.075  0.9192 -1.7627 -1.0362
  252THF    H12 4715   3.313   5.291   1.839  1.8643 -0.9413  1.9167
  252THF    H13 4716   3.317   5.117   1.842  1.7971  0.2032 -1.9313
  253THF     O1 4717   1.719   5.473   1.522  0.3146  0.6951  0.2348
  253THF     C2 4718   1.638   5.463   1.406  0.1509 -0.4481  0.2775
  253THF     C3 4719   1.814   5.575   1.497  0.1640 -0.3491  0.0039
  253THF     H4 4720   1.547   5.408   1.411 -0.0823 -1.4660 -1.7167
  253THF     H5 4721   1.681   5.433   1.315 -2.0864 -1.4775 -2.1219
  253THF     H6 4722   1.854   5.613   1.587 -0.4762 -1.9643  1.9739
  253THF     H7 4723   1.907   5.557   1.443 -2.1355 -0.9800  0.3916
  253THF     C8 4724   1.741   5.686   1.415  0.1999  0.1144  0.6282
  253THF     C9 4725   1.611   5.612   1.372  0.3714  0.0033  0.7621
  253THF    H10 4726   1.794   5.727   1.330 -1.6979 -0.7024 -1.2990
  253THF    H11 4727   1.721   5.760   1.494  2.1302 -0.3125 -1.0923
  253THF    H12 4728   1.534   5.639   1.439 -1.9300 -1.3542 -1.7562
  253THF    H13 4729   1.561   5.632   1.274 -3.3013 -1.6507 -3.1907
  254THF     O1 4730   1.611   4.873   3.007  0.2396  0.3426  0.3540
  254THF     C2 4731   1.481   4.885   3.071  0.5427  0.0535  0.3896
  254THF     C3 4732   1.663   4.750   3.058 -0.1083 -1.2502  0.1533
  254THF     H4 4733   1.405   4.815   3.031  1.8244  0.2858  0.7065
  254THF     H5 4734   1.443   4.990   3.060  1.1475  0.7716  1.3468
  254THF     H6 4735   1.647   4.663   2.994 -0.1810 -0.2374  0.4164
  254THF     H7 4736   1.772   4.773   3.073  0.3571  2.6134  0.7917
  254THF     C8 4737   1.609   4.726   3.202  0.5369  0.7339 -0.9186
  254THF     C9 4738   1.502   4.836   3.217  0.3407  0.6826  0.0920
  254THF    H10 4739   1.687   4.742   3.272  0.7095 -2.3104 -0.1598
  254THF    H11 4740   1.560   4.624   3.222  1.7915 -0.3671 -2.7714
  254THF    H12 4741   1.406   4.805   3.261  1.5058  1.2454  0.7684
  254THF    H13 4742   1.534   4.920   3.271 -1.4789 -0.4807  2.8839
  255THF     O1 4743   4.734   1.741   0.907  0.4735 -0.5142  0.5559
  255THF     C2 4744   4.739   1.614   0.973 -0.7215  0.2684 -0.1234
  255THF     C3 4745   4.836   1.818   0.972 -0.6359  0.6905 -0.1773
  255THF     H4 4746   4.800   1.546   0.912 -1.2116 -1.7487 -0.0258
  255THF     H5 4747   4.638   1.571   0.979 -0.5949  0.9885 -2.1201
  255THF     H6 4748   4.934   1.774   0.947 -0.7206  2.2422  3.3563
  255THF     H7 4749   4.831   1.927   0.944 -1.1459 -0.7749  1.4143
  255THF     C8 4750   4.813   1.786   1.123  0.2385  0.1865 -0.5848
  255THF     C9 4751   4.799   1.639   1.114  0.1759  0.6747  0.2907
  255THF    H10 4752   4.732   1.847   1.159 -0.9563 -0.6081 -1.2320
  255THF    H11 4753   4.895   1.809   1.186 -0.7223  0.6628  0.6886
  255THF    H12 4754   4.906   1.601   1.112 -0.3559 -0.2678 -1.0359
  255THF    H13 4755   4.739   1.604   1.190 -3.2609  0.3733 -3.4913
  256THF     O1 4756   0.274   0.770   0.175 -0.1036 -0.4224 -0.9097
  256THF     C2 4757   0.412   0.739   0.161 -0.2915  0.3980 -0.3540
  256THF     C3 4758   0.240   0.750   0.314  0.6055  0.8758  0.3151
  256THF     H4 4759   0.471   0.822   0.197 -2.6425 -2.9639  1.2430
  256THF     H5 4760   0.440   0.711   0.062  2.8393  0.6235  1.0725
  256THF     H6 4761   0.224   0.846   0.366 -1.1486  2.2628  1.0294
  256THF     H7 4762   0.143   0.696   0.328 -0.2095  0.2273 -1.3121
  256THF     C8 4763   0.344   0.651   0.374 -1.2182  0.4872  0.8725
  256THF     C9 4764   0.437   0.626   0.249  0.4508 -0.3112  0.2208
  256THF    H10 4765   0.310   0.566   0.429 -0.5114  2.4830  0.2214
  256THF    H11 4766   0.411   0.704   0.448  1.3045  0.0281  0.4815
  256THF    H12 4767   0.533   0.609   0.284 -1.8123  1.1559 -0.4205
  256THF    H13 4768   0.385   0.538   0.203 -2.5826 -0.6772  0.4796
  257THF     O1 4769   1.914   3.878   4.267 -0.3047  0.2199  0.2484
  257THF     C2 4770   1.964   4.011   4.305 -0.0059 -1.0309  0.5042
  257THF     C3 4771   1.940   3.789   4.370  0.3147  0.0390 -0.5183
  257THF     H4 4772   1.925   4.094   4.244  1.0744  0.4150 -1.8104
  257THF     H5 4773   2.065   3.998   4.290  1.1515 -0.1263  0.3403
  257THF     H6 4774   1.873   3.703   4.359  0.0419  0.0124 -2.0038
  257THF     H7 4775   2.046   3.756   4.363 -1.5103 -1.6586  0.8011
  257THF     C8 4776   1.924   3.871   4.499  0.9565 -0.2909 -0.0206
  257THF     C9 4777   1.925   4.014   4.455 -0.0601 -0.0836 -0.2307
  257THF    H10 4778   2.000   3.843   4.578  0.8998  2.1002  1.7987
  257THF    H11 4779   1.823   3.849   4.529 -1.2168  0.3688 -0.6134
  257THF    H12 4780   1.818   4.050   4.473  0.4991 -1.5774  1.6362
  257THF    H13 4781   2.001   4.068   4.510  1.5846  2.4294  2.6318
  258THF     O1 4782   0.586   3.467   4.876  0.1759  0.0635  0.1268
  258THF     C2 4783   0.617   3.587   4.818  0.0050  0.0891 -0.7784
  258THF     C3 4784   0.673   3.454   4.988  0.5825  0.2520  0.6659
  258THF     H4 4785   0.532   3.639   4.785 -0.6654 -0.0414 -3.1805
  258THF     H5 4786   0.673   3.591   4.726  0.7891  1.0632  0.1759
  258THF     H6 4787   0.637   3.369   5.056  1.3222 -1.1453 -0.5323
  258THF     H7 4788   0.767   3.420   4.962 -1.5172  2.3577  0.9798
  258THF     C8 4789   0.692   3.597   5.052  0.6859 -0.1772  0.2177
  258THF     C9 4790   0.686   3.676   4.929  0.3410 -0.1086  0.1413
  258THF    H10 4791   0.786   3.603   5.111 -0.6819  0.2399 -2.3636
  258THF    H11 4792   0.602   3.615   5.116 -0.6139  1.4220 -1.5595
  258THF    H12 4793   0.639   3.768   4.958  2.2231  2.7694  0.3940
  258THF    H13 4794   0.782   3.701   4.880 -0.4151  0.0324  0.9929
  259THF     O1 4795   0.861   5.030   3.756 -0.6057  0.0181  0.1856
  259THF     C2 4796   0.798   5.156   3.741  0.0118 -0.1908  0.5635
  259THF     C3 4797   0.786   4.954   3.847  0.1558  0.4178  0.0562
  259THF     H4 4798   0.801   5.189   3.640 -1.0353 -2.5439  3.2833
  259THF     H5 4799   0.820   5.230   3.821  1.2840  1.3567 -0.1593
  259THF     H6 4800   0.752   4.864   3.797  0.6029  1.8732 -2.1246
  259THF     H7 4801   0.854   4.935   3.940 -1.2543  2.1072  1.5809
  259THF     C8 4802   0.665   5.038   3.894 -0.5741 -0.3754 -0.7730
  259THF     C9 4803   0.648   5.130   3.774 -0.3059 -0.1458 -0.0148
  259THF    H10 4804   0.692   5.096   3.983 -1.0896 -0.6106 -0.7183
  259THF    H11 4805   0.582   4.968   3.914 -2.8841  1.1150  0.8230
  259THF    H12 4806   0.615   5.068   3.693 -1.7325 -2.6851  2.2413
  259THF    H13 4807   0.578   5.214   3.793  0.6138  0.8979 -0.0295
  260THF     O1 4808   4.112   1.884   1.383  0.1347 -0.3174 -0.4030
  260THF     C2 4809   4.149   1.745   1.380  0.1649  0.2609 -0.3584
  260THF     C3 4810   3.987   1.893   1.316 -0.1087  0.3216  0.5579
  260THF     H4 4811   4.136   1.712   1.480 -1.6595  0.2350 -0.3278
  260THF     H5 4812   4.250   1.720   1.348 -0.5941  0.8708 -2.1594
  260THF     H6 4813   3.899   1.880   1.383  0.1389 -0.1822  2.5447
  260THF     H7 4814   3.973   1.991   1.273 -0.5042  0.1996 -2.5281
  260THF     C8 4815   3.973   1.773   1.213  0.3200  0.0043  0.5726
  260THF     C9 4816   4.051   1.665   1.294 -0.2031 -0.6680 -0.5595
  260THF    H10 4817   4.005   1.791   1.110 -0.2246  0.8802  1.1102
  260THF    H11 4818   3.868   1.745   1.201  0.2304 -0.9897 -1.1570
  260THF    H12 4819   3.984   1.605   1.355 -1.5293 -2.4103  0.1222
  260THF    H13 4820   4.104   1.592   1.228  1.0028  3.6545 -0.0303
  261THF     O1 4821   3.540   3.625   1.564  0.0166  0.0537  0.2524
  261THF     C2 4822   3.575   3.720   1.667  0.2404 -0.5025 -0.0557
  261THF     C3 4823   3.416   3.671   1.511  0.0548  0.1970 -0.1282
  261THF     H4 4824   3.670   3.771   1.646  1.1506 -0.0539 -0.7774
  261THF     H5 4825   3.601   3.670   1.763  0.3913  2.0358  0.2599
  261THF     H6 4826   3.419   3.653   1.405 -0.1551  1.8527 -0.7197
  261THF     H7 4827   3.327   3.619   1.545  1.9171 -0.6745 -2.5513
  261THF     C8 4828   3.407   3.818   1.533 -0.7959 -0.8199  0.3097
  261THF     C9 4829   3.460   3.820   1.671  0.7864 -0.0704  0.4710
  261THF    H10 4830   3.306   3.856   1.515 -1.4616  0.0127  0.5098
  261THF    H11 4831   3.475   3.871   1.461 -0.1014  1.5232  1.3917
  261THF    H12 4832   3.488   3.918   1.710  1.2225  2.3038  2.1468
  261THF    H13 4833   3.379   3.777   1.731 -2.0343  2.8121 -0.2486
  262THF     O1 4834   2.070   4.347   2.294 -0.2798 -0.1228  0.1498
  262THF     C2 4835   2.177   4.263   2.249  0.0980  0.1453 -1.3149
  262THF     C3 4836   2.123   4.479   2.299  0.5100 -0.1635 -0.1787
  262THF     H4 4837   2.174   4.267   2.142 -0.5890 -1.1338  1.3862
  262THF     H5 4838   2.161   4.166   2.300  2.1664 -0.1125 -0.1410
  262THF     H6 4839   2.127   4.527   2.202  0.0338  0.9365  3.7990
  262THF     H7 4840   2.056   4.554   2.353 -1.4899 -0.8120 -2.7255
  262THF     C8 4841   2.260   4.460   2.351 -0.9879 -0.4362 -0.1765
  262THF     C9 4842   2.307   4.331   2.292  0.2800  0.4118 -0.2952
  262THF    H10 4843   2.243   4.462   2.467 -1.2344  1.2725  0.8411
  262THF    H11 4844   2.321   4.544   2.318 -0.1974 -1.1053 -1.0460
  262THF    H12 4845   2.371   4.354   2.211  1.9303 -2.2207 -1.5043
  262THF    H13 4846   2.357   4.268   2.373 -1.9751 -2.0901 -0.7871
  263THF     O1 4847   4.705   1.808   1.544 -0.0484  0.0740 -0.3939
  263THF     C2 4848   4.685   1.672   1.517 -0.6512 -0.2870  0.2366
  263THF     C3 4849   4.611   1.885   1.464  0.4414  0.3549 -0.3352
  263THF     H4 4850   4.731   1.616   1.596 -1.8052 -0.7408 -0.1298
  263THF     H5 4851   4.724   1.644   1.418  0.2769 -1.0596 -1.8732
  263THF     H6 4852   4.574   1.968   1.529 -0.0616  0.6125 -1.4151
  263THF     H7 4853   4.660   1.906   1.365  1.5686 -1.2982 -1.0824
  263THF     C8 4854   4.490   1.801   1.443 -0.7285  0.3625 -0.1825
  263THF     C9 4855   4.534   1.672   1.496 -0.1940 -0.1473  0.8920
  263THF    H10 4856   4.462   1.802   1.339  1.3687  2.4686  0.3243
  263THF    H11 4857   4.408   1.846   1.498 -2.2277  2.7501  2.0729
  263THF    H12 4858   4.489   1.653   1.595 -0.6172 -0.7322  0.9436
  263THF    H13 4859   4.498   1.599   1.425  0.5978  2.6982 -1.1522
  264THF     O1 4860   1.996   4.836   5.071 -0.7531  0.2851  0.5098
  264THF     C2 4861   1.865   4.841   5.112 -0.3622  0.3687 -0.5544
  264THF     C3 4862   2.074   4.895   5.184  0.1408  0.5328 -0.4572
  264THF     H4 4863   1.814   4.771   5.045  1.5709  3.0394  0.3920
  264THF     H5 4864   1.818   4.941   5.107  0.7382  1.8716  0.0172
  264THF     H6 4865   2.181   4.877   5.176  0.8381  1.1564 -1.2870
  264THF     H7 4866   2.049   4.999   5.185  1.0362  3.6317 -1.2115
  264THF     C8 4867   2.008   4.817   5.294 -0.9792 -0.3125  0.0438
  264THF     C9 4868   1.860   4.803   5.257  0.1709  0.2413  0.5008
  264THF    H10 4869   2.012   4.863   5.392 -2.9391  0.9031 -0.8455
  264THF    H11 4870   2.045   4.713   5.307 -1.8933 -1.1751 -1.0166
  264THF    H12 4871   1.814   4.700   5.259 -2.0199  1.7286  1.5828
  264THF    H13 4872   1.791   4.866   5.315  2.6781  0.0817  1.5155
  265THF     O1 4873   1.923   2.366   0.634 -0.2485  0.0860  0.3092
  265THF     C2 4874   1.930   2.221   0.648 -0.6691  0.5543 -0.0035
  265THF     C3 4875   2.058   2.405   0.600  0.3790 -0.0974  0.1971
  265THF     H4 4876   1.913   2.158   0.552  3.3078 -3.5759 -0.3814
  265THF     H5 4877   1.850   2.193   0.716 -1.1746 -1.3266  3.7235
  265THF     H6 4878   2.092   2.363   0.509 -1.5771  2.2439  2.2267
  265THF     H7 4879   2.063   2.516   0.597  1.2375 -0.5674 -0.9511
  265THF     C8 4880   2.133   2.345   0.714 -0.3948  0.0743  0.1956
  265THF     C9 4881   2.072   2.211   0.715  0.3720 -0.2239 -0.1572
  265THF    H10 4882   2.110   2.412   0.801  2.2304  1.6523 -2.6808
  265THF    H11 4883   2.235   2.343   0.693 -1.1509 -0.5814 -0.6126
  265THF    H12 4884   2.134   2.148   0.660 -2.4447  0.0369  0.2350
  265THF    H13 4885   2.065   2.163   0.814  0.5036 -3.1029 -1.6913
  266THF     O1 4886   0.496   2.521   3.949  0.1989  0.3118  0.1475
  266THF     C2 4887   0.539   2.538   3.813  0.9204  0.1608  0.4220
  266THF     C3 4888   0.391   2.611   3.985  0.2861  0.5873  0.0008
  266THF     H4 4889   0.544   2.441   3.758 -3.1911 -1.7544 -0.6639
  266THF     H5 4890   0.638   2.586   3.811 -0.8212  0.3532 -0.5306
  266THF     H6 4891   0.327   2.564   4.057  1.3108 -0.1887  0.1724
  266THF     H7 4892   0.427   2.699   4.038 -2.4775 -1.0362 -1.7090
  266THF     C8 4893   0.325   2.638   3.854 -0.4605 -0.1695  0.6795
  266THF     C9 4894   0.450   2.653   3.769  0.0815 -0.2275  0.8793
  266THF    H10 4895   0.258   2.730   3.864 -2.7985 -0.8612  0.9851
  266THF    H11 4896   0.269   2.555   3.827  2.9386 -1.5878  0.6884
  266THF    H12 4897   0.417   2.639   3.670 -0.2204 -1.5158  2.4664
  266THF    H13 4898   0.511   2.743   3.762  0.8224  1.1101 -0.0242
  267THF     O1 4899   2.421   1.195   4.376 -0.3070 -0.1266  0.1144
  267THF     C2 4900   2.300   1.133   4.366  0.3324  0.4994 -0.0756
  267THF     C3 4901   2.476   1.219   4.244 -0.0526 -1.0452 -0.6037
  267THF     H4 4902   2.231   1.213   4.327 -1.0340  0.2770  0.8043
  267THF     H5 4903   2.259   1.103   4.459 -0.7871 -2.6391 -0.2894
  267THF     H6 4904   2.452   1.317   4.211 -1.9642  0.5908  1.5027
  267THF     H7 4905   2.586   1.214   4.244  0.0528  2.8691  0.5526
  267THF     C8 4906   2.413   1.109   4.160  0.3569  0.0541 -0.7042
  267THF     C9 4907   2.331   1.032   4.264  0.6208  0.1969  0.7462
  267THF    H10 4908   2.473   1.038   4.106 -1.6319  1.9897  1.3326
  267THF    H11 4909   2.338   1.152   4.081 -1.1721  3.2893  2.5691
  267THF    H12 4910   2.236   0.987   4.223 -0.8703  0.6734  0.8310
  267THF    H13 4911   2.398   0.955   4.312 -0.2960 -0.6808  1.1148
  268THF     O1 4912   3.620   4.646   1.708  0.8143  0.0899  0.4792
  268THF     C2 4913   3.731   4.623   1.793  0.3841  0.3169  0.1413
  268THF     C3 4914   3.655   4.750   1.619  1.4752 -0.7450 -0.3424
  268THF     H4 4915   3.789   4.550   1.738  0.0037  1.2920 -1.1717
  268THF     H5 4916   3.686   4.576   1.881 -0.9503 -1.8773 -0.1948
  268THF     H6 4917   3.719   4.709   1.542 -0.9172  0.8745  1.0922
  268THF     H7 4918   3.572   4.804   1.572 -1.2959 -1.4912 -0.0607
  268THF     C8 4919   3.737   4.840   1.719 -0.3149  0.2215 -0.0825
  268THF     C9 4920   3.802   4.756   1.825 -0.1805  0.3066  0.7623
  268THF    H10 4921   3.668   4.919   1.761 -0.4824 -1.9011  0.7222
  268THF    H11 4922   3.806   4.892   1.656 -4.0745 -0.0105  1.8524
  268THF    H12 4923   3.916   4.749   1.814 -0.9519  1.6564 -0.5256
  268THF    H13 4924   3.784   4.793   1.924  2.4770  1.7228  0.8989
  269THF     O1 4925   4.589   5.449   1.948 -0.4859  0.2094  0.1920
  269THF     C2 4926   4.594   5.329   1.867  0.7158 -0.0203  0.2415
  269THF     C3 4927   4.713   5.467   2.003  0.5186 -0.8928 -0.3073
  269THF     H4 4928   4.506   5.322   1.795  0.7438 -1.5818 -1.7796
  269THF     H5 4929   4.594   5.247   1.941  4.1481  1.1981  1.9788
  269THF     H6 4930   4.723   5.577   2.034  0.3955  0.9826 -0.9120
  269THF     H7 4931   4.727   5.396   2.085  0.3568 -1.4300 -0.0076
  269THF     C8 4932   4.809   5.431   1.886  0.3729  1.0273  0.2384
  269THF     C9 4933   4.730   5.335   1.799 -1.0778 -0.0800  0.5591
  269THF    H10 4934   4.900   5.384   1.911  1.7056  2.1809 -0.7737
  269THF    H11 4935   4.839   5.525   1.838  0.1078 -0.0543 -2.9841
  269THF    H12 4936   4.720   5.368   1.694 -2.3579 -1.6741  1.2394
  269THF    H13 4937   4.784   5.241   1.804 -0.5502 -0.4208 -2.1818
  270THF     O1 4938   3.877   2.537   4.291  0.1904 -0.0023  0.8966
  270THF     C2 4939   3.917   2.663   4.339  0.1407 -0.5232 -0.0133
  270THF     C3 4940   3.780   2.557   4.186 -0.8434 -0.1066  0.1494
  270THF     H4 4941   4.024   2.667   4.363 -0.6468 -0.0896 -1.6943
  270THF     H5 4942   3.862   2.699   4.424  2.8962 -0.4132 -3.9975
  270THF     H6 4943   3.774   2.473   4.116 -2.0836 -0.7981 -2.7166
  270THF     H7 4944   3.683   2.548   4.228  1.3394 -0.6668 -0.5149
  270THF     C8 4945   3.783   2.704   4.136 -0.1093  0.3271  0.0846
  270THF     C9 4946   3.889   2.765   4.226 -0.8442  0.3534 -0.1510
  270THF    H10 4947   3.681   2.754   4.143  0.8568  0.4228  0.1883
  270THF    H11 4948   3.800   2.708   4.026 -1.4049 -2.0182 -1.5653
  270THF    H12 4949   3.972   2.774   4.162 -2.0569 -0.5336  1.5290
  270THF    H13 4950   3.867   2.862   4.254  2.0516  0.5058  2.1403
  271THF     O1 4951   4.790   1.785   5.204  0.0116  0.0278 -0.3106
  271THF     C2 4952   4.751   1.781   5.068 -0.0818  0.4071  0.5595
  271THF     C3 4953   4.927   1.725   5.216  0.3779 -0.5548 -0.7415
  271THF     H4 4954   4.777   1.877   5.022  1.6179  1.5777 -2.6265
  271THF     H5 4955   4.643   1.773   5.079 -0.1667 -0.4600  0.9954
  271THF     H6 4956   4.984   1.795   5.261 -0.5287 -2.4122 -1.8108
  271THF     H7 4957   4.930   1.651   5.292  1.4132  0.9572 -0.1578
  271THF     C8 4958   4.960   1.670   5.078  0.4704  0.3489  0.2180
  271THF     C9 4959   4.825   1.663   5.009 -0.6827 -0.1220 -0.8790
  271THF    H10 4960   5.009   1.572   5.076  0.1349 -2.8906 -3.9601
  271THF    H11 4961   5.032   1.735   5.030  0.6249 -2.4890 -0.0249
  271THF    H12 4962   4.841   1.665   4.894 -0.7323 -0.0336  0.0120
  271THF    H13 4963   4.776   1.578   5.036  1.9028 -0.7838 -2.2999
  272THF     O1 4964   1.407   4.771   2.077  0.4431  0.5342 -0.8359
  272THF     C2 4965   1.402   4.627   2.085 -0.0065  0.3053 -0.0067
  272THF     C3 4966   1.409   4.802   1.940 -0.4584  0.2892 -0.2797
  272THF     H4 4967   1.300   4.591   2.071  3.7709 -3.0985  0.7559
  272THF     H5 4968   1.433   4.587   2.181  1.1345 -2.5535  1.5236
  272THF     H6 4969   1.315   4.795   1.892  1.4676 -2.0052 -1.1690
  272THF     H7 4970   1.445   4.905   1.924 -0.1593  2.1527 -0.8411
  272THF     C8 4971   1.510   4.701   1.884 -0.2243  1.1359  0.0982
  272THF     C9 4972   1.495   4.579   1.969 -0.1557 -0.7536 -0.5358
  272THF    H10 4973   1.611   4.742   1.888 -0.4165 -1.1582 -0.9418
  272THF    H11 4974   1.502   4.682   1.776  0.1688  0.2479 -0.3447
  272THF    H12 4975   1.454   4.492   1.916  0.5446 -1.6699  0.4677
  272THF    H13 4976   1.589   4.560   2.019  0.4858  2.1684 -0.0581
  273THF     O1 4977   1.586   2.371   4.298 -0.1511  0.3116  0.3849
  273THF     C2 4978   1.573   2.231   4.340  1.0384  0.9991 -0.0168
  273THF     C3 4979   1.637   2.447   4.407 -0.3513 -0.1377  0.6570
  273THF     H4 4980   1.623   2.178   4.269 -1.3736  1.2088 -2.1284
  273THF     H5 4981   1.475   2.197   4.362  1.7887 -0.8695  0.1347
  273THF     H6 4982   1.742   2.473   4.368  2.0296  0.6718  1.5320
  273THF     H7 4983   1.575   2.529   4.421  0.0079 -1.5101  2.2839
  273THF     C8 4984   1.643   2.360   4.536  0.2604  0.2181  0.0507
  273THF     C9 4985   1.658   2.225   4.461 -0.1986 -0.2212 -0.3648
  273THF    H10 4986   1.552   2.360   4.588 -1.4793 -0.5755 -1.4566
  273THF    H11 4987   1.733   2.390   4.593 -0.0428  0.9434 -2.3072
  273THF    H12 4988   1.767   2.207   4.438  2.4775 -0.5309  1.5179
  273THF    H13 4989   1.627   2.139   4.520 -2.3777  0.0504  0.0256
  274THF     O1 4990   4.255   0.334   2.120 -0.1851 -0.7506 -0.2341
  274THF     C2 4991   4.315   0.462   2.121 -0.6741  0.1369 -0.0116
  274THF     C3 4992   4.350   0.240   2.173 -0.1438 -0.5431 -0.4149
  274THF     H4 4993   4.240   0.539   2.143 -0.2611 -1.7114 -1.2241
  274THF     H5 4994   4.363   0.484   2.025 -5.7768 -0.2321  0.8512
  274THF     H6 4995   4.287   0.195   2.251  1.1608  0.8598  1.1813
  274THF     H7 4996   4.358   0.150   2.111 -0.7942  2.2803  1.1371
  274THF     C8 4997   4.477   0.313   2.216  0.3060 -0.3341 -0.6624
  274THF     C9 4998   4.417   0.456   2.231  0.0107  0.9628  0.5123
  274THF    H10 4999   4.542   0.302   2.127  0.9048 -1.8369 -0.3108
  274THF    H11 5000   4.528   0.270   2.293 -0.5974  1.1228 -2.1333
  274THF    H12 5001   4.375   0.476   2.332  1.7065  0.8746 -1.5957
  274THF    H13 5002   4.504   0.520   2.221 -2.1078 -0.5268  0.4461
  275THF     O1 5003   1.691   3.989   0.278 -0.6556 -0.4669 -0.0265
  275THF     C2 5004   1.641   4.022   0.142  0.4268 -0.4723  0.5065
  275THF     C3 5005   1.790   4.075   0.313  0.1545 -0.1113 -0.4665
  275THF     H4 5006   1.531   4.009   0.126  0.7527  0.5176 -1.8822
  275THF     H5 5007   1.686   3.958   0.059  0.2685 -1.0951 -2.8277
  275THF     H6 5008   1.812   4.086   0.418  1.1469  1.0606 -0.8346
  275THF     H7 5009   1.881   4.041   0.258  0.3450 -1.9671  0.9149
  275THF     C8 5010   1.731   4.204   0.254 -0.2195  0.9059 -0.4341
  275THF     C9 5011   1.674   4.166   0.121  0.3543 -0.9123 -0.5891
  275THF    H10 5012   1.801   4.288   0.246 -4.9639 -0.4513  3.2926
  275THF    H11 5013   1.658   4.258   0.315  0.4466  1.4351  0.3686
  275THF    H12 5014   1.587   4.234   0.099 -3.8162  2.3279 -0.1922
  275THF    H13 5015   1.756   4.179   0.045  0.2202  0.5552 -2.1697
  276THF     O1 5016   0.527   1.523   5.007 -0.0349  0.1596  0.0267
  276THF     C2 5017   0.637   1.616   5.039  0.1683 -0.4496  0.5360
  276THF     C3 5018   0.561   1.419   4.918  1.4129 -0.0417  0.2187
  276THF     H4 5019   0.648   1.627   5.142  0.4225  1.9361  0.7831
  276THF     H5 5020   0.626   1.716   5.003  1.5930 -2.4728  2.5908
  276THF     H6 5021   0.497   1.330   4.940 -4.3850  1.6572 -2.1028
  276THF     H7 5022   0.550   1.453   4.814 -1.2404  0.8668  0.4342
  276THF     C8 5023   0.706   1.411   4.947 -0.0083  0.4016 -0.2149
  276THF     C9 5024   0.750   1.555   4.963  0.0317  0.9755  0.1353
  276THF    H10 5025   0.759   1.360   4.861 -1.1621  0.5520 -2.5094
  276THF    H11 5026   0.728   1.364   5.038  0.3389  0.6413 -1.9735
  276THF    H12 5027   0.840   1.550   5.022  2.2727 -0.4451  3.0939
  276THF    H13 5028   0.772   1.591   4.859 -0.2085 -1.0262 -2.0804
  277THF     O1 5029   0.868   0.811   1.047 -0.4750  0.2245 -0.3060
  277THF     C2 5030   0.748   0.879   1.021  0.4710 -0.3898 -0.4646
  277THF     C3 5031   0.963   0.866   0.946  0.4961  0.3102  0.0344
  277THF     H4 5032   0.682   0.894   1.105  2.6799 -1.4714  2.7221
  277THF     H5 5033   0.702   0.821   0.944  0.8382  1.0868 -1.4662
  277THF     H6 5034   1.065   0.844   0.963 -0.1305 -0.7189 -1.4591
  277THF     H7 5035   0.925   0.826   0.851  1.7990 -1.3556  0.6255
  277THF     C8 5036   0.927   1.012   0.941 -0.2487 -0.6948  0.6436
  277THF     C9 5037   0.785   1.026   0.983  0.2810 -0.3736 -0.0948
  277THF    H10 5038   0.945   1.072   0.849 -2.0563  1.2165  0.2708
  277THF    H11 5039   0.984   1.046   1.025 -0.3918 -1.5163 -0.7353
  277THF    H12 5040   0.788   1.092   1.067  0.1169 -3.1673 -0.2291
  277THF    H13 5041   0.714   1.064   0.906 -1.4122  4.1755  0.8430
  278THF     O1 5042   1.940   3.167   4.383 -0.4275  0.1622  0.5419
  278THF     C2 5043   2.057   3.175   4.458  0.2278  0.8041  0.4572
  278THF     C3 5044   1.869   3.291   4.403  0.5955  0.2016  0.3364
  278THF     H4 5045   2.134   3.108   4.428 -0.8925  0.8384 -1.4000
  278THF     H5 5046   2.023   3.155   4.562 -2.1641  0.1233 -1.1078
  278THF     H6 5047   1.815   3.300   4.305 -3.8421  1.7358 -0.1412
  278THF     H7 5048   1.788   3.293   4.478  2.2187  1.3250 -0.5528
  278THF     C8 5049   1.975   3.405   4.431 -0.1131  0.6524  0.0358
  278THF     C9 5050   2.102   3.320   4.432  0.3193 -0.6727  1.2629
  278THF    H10 5051   1.964   3.437   4.533  1.1127  1.3854 -0.6126
  278THF    H11 5052   1.977   3.481   4.355 -0.4224 -1.3115 -2.0110
  278THF    H12 5053   2.147   3.324   4.329  0.3844  0.7373  4.5820
  278THF    H13 5054   2.184   3.346   4.497 -1.4951 -0.7870 -0.9236
  279THF     O1 5055   0.647   1.976   3.219 -0.3872 -0.2025 -0.4059
  279THF     C2 5056   0.513   1.960   3.208 -0.5155  0.1291 -0.4456
  279THF     C3 5057   0.706   1.851   3.178 -0.5945  0.2935 -0.0078
  279THF     H4 5058   0.457   2.053   3.215  2.2197  1.1942  2.7440
  279THF     H5 5059   0.475   1.906   3.293  0.2209  0.9620 -1.0394
  279THF     H6 5060   0.812   1.851   3.182  2.3459 -2.1677  1.7869
  279THF     H7 5061   0.687   1.779   3.264 -0.1840  0.8195 -0.3093
  279THF     C8 5062   0.632   1.811   3.055  0.0580 -0.4031 -0.0076
  279THF     C9 5063   0.508   1.899   3.067 -0.7476  0.0904 -0.3690
  279THF    H10 5064   0.607   1.703   3.058  0.4885 -0.6470  0.0037
  279THF    H11 5065   0.691   1.828   2.964 -1.8755 -1.0794  1.1574
  279THF    H12 5066   0.532   1.979   2.989 -0.9312  0.7540 -0.1944
  279THF    H13 5067   0.416   1.858   3.030  0.6210 -0.2327  1.0979
  280THF     O1 5068   3.808   4.731   2.982 -0.3533 -0.9009 -0.5145
  280THF     C2 5069   3.730   4.666   2.876  0.1127  0.2759 -0.1011
  280THF     C3 5070   3.933   4.772   2.920  0.5330  0.0055  0.4526
  280THF     H4 5071   3.622   4.686   2.891 -3.1539  0.2033  3.2681
  280THF     H5 5072   3.735   4.552   2.880 -0.7402 -1.3801 -0.7753
  280THF     H6 5073   3.946   4.881   2.953 -0.8663  2.1525 -2.0075
  280THF     H7 5074   4.020   4.715   2.955  1.0552  2.8721 -1.2791
  280THF     C8 5075   3.924   4.747   2.769  0.2100 -0.2523  0.3555
  280THF     C9 5076   3.777   4.716   2.742  0.7470 -0.6562  0.3685
  280THF    H10 5077   3.993   4.668   2.740  1.5223  0.5256 -1.2371
  280THF    H11 5078   3.962   4.838   2.718  0.6054  0.5374 -1.2006
  280THF    H12 5079   3.715   4.802   2.709 -1.5018  0.8762 -0.5563
  280THF    H13 5080   3.766   4.635   2.674  2.9410  0.4644  0.8534
  281THF     O1 5081   1.776   2.076   2.268  0.2542 -0.2582 -0.0044
  281THF     C2 5082   1.717   1.989   2.368 -0.8414  0.7740 -1.2442
  281THF     C3 5083   1.915   2.068   2.277 -0.1307  0.3838  0.6136
  281THF     H4 5084   1.633   1.924   2.340 -0.2011 -1.2327 -0.0742
  281THF     H5 5085   1.665   2.053   2.434 -0.6078  0.2769  0.2956
  281THF     H6 5086   1.959   1.995   2.196 -0.8229 -2.1317 -1.1728
  281THF     H7 5087   1.971   2.159   2.269  1.3689  1.1061 -1.1355
  281THF     C8 5088   1.943   2.011   2.415 -0.4763 -0.1474  0.3695
  281THF     C9 5089   1.827   1.919   2.442 -0.4897 -0.0282 -0.1760
  281THF    H10 5090   1.949   2.091   2.490 -0.3746 -0.8533  1.7263
  281THF    H11 5091   2.030   1.954   2.410  0.9859  2.0893 -1.4761
  281THF    H12 5092   1.848   1.819   2.397 -1.9338 -1.1425  1.6828
  281THF    H13 5093   1.802   1.908   2.549  0.4677  1.3337  0.0411
  282THF     O1 5094   1.101   2.082   4.606  0.4171  0.3276 -0.5251
  282THF     C2 5095   0.970   2.024   4.609  0.4167 -0.1492  0.7025
  282THF     C3 5096   1.179   1.982   4.550  0.1891 -0.3762  0.3393
  282THF     H4 5097   0.924   2.022   4.512  2.6192  1.8036 -0.1571
  282THF     H5 5098   0.925   2.086   4.693  0.0703  1.4679 -1.0917
  282THF     H6 5099   1.181   1.996   4.442 -3.2637 -1.5635 -0.3302
  282THF     H7 5100   1.283   1.991   4.584 -2.4900  1.1893 -0.5497
  282THF     C8 5101   1.124   1.849   4.598 -0.7498  0.3054  0.0437
  282THF     C9 5102   0.992   1.879   4.662 -0.3990  0.2578 -0.4733
  282THF    H10 5103   1.190   1.815   4.674  0.0484  2.9044 -1.9343
  282THF    H11 5104   1.120   1.772   4.522  2.1916  0.3406  2.3832
  282THF    H12 5105   0.911   1.808   4.641  0.5600  0.7971 -1.6057
  282THF    H13 5106   1.004   1.890   4.769 -0.9265  1.1354 -0.2565
  283THF     O1 5107   0.429   2.561   0.741  0.5932 -0.3237  0.0619
  283THF     C2 5108   0.475   2.661   0.832 -0.2248  0.2116  0.5854
  283THF     C3 5109   0.493   2.437   0.783  0.5063 -0.0147  0.1047
  283THF     H4 5110   0.423   2.757   0.839 -1.1338  1.6038 -2.4414
  283THF     H5 5111   0.581   2.690   0.821 -0.4863  1.2587 -0.6649
  283THF     H6 5112   0.446   2.354   0.745  0.6944  0.6028 -1.0500
  283THF     H7 5113   0.590   2.439   0.734  1.6724 -0.6925  1.2406
  283THF     C8 5114   0.510   2.453   0.935  0.1587  0.3017 -0.0144
  283THF     C9 5115   0.473   2.591   0.966  0.4590  0.8362 -0.5588
  283THF    H10 5116   0.615   2.432   0.959  0.0550 -3.6344 -3.0046
  283THF    H11 5117   0.440   2.389   0.976 -1.1763 -1.2722  0.6695
  283THF    H12 5118   0.370   2.590   0.996  1.1612 -0.6550  0.7306
  283THF    H13 5119   0.540   2.634   1.042 -1.2799  0.8031 -1.4140
  284THF     O1 5120   0.392   3.380   1.951  0.5532  0.3048  0.3737
  284THF     C2 5121   0.346   3.255   1.889 -0.2737 -0.5314  0.0367
  284THF     C3 5122   0.343   3.384   2.088 -0.0672  0.1568 -0.1749
  284THF     H4 5123   0.423   3.186   1.902  1.0254  2.5514 -0.1868
  284THF     H5 5124   0.334   3.254   1.781  1.6644 -2.5293  0.9782
  284THF     H6 5125   0.418   3.384   2.170  0.3883  1.9320 -0.8557
  284THF     H7 5126   0.284   3.471   2.110  0.9860 -0.9974  0.9392
  284THF     C8 5127   0.255   3.256   2.108  0.4533 -0.1197 -0.9468
  284THF     C9 5128   0.225   3.208   1.969 -0.8722  0.7812  0.6889
  284THF    H10 5129   0.171   3.264   2.180  0.7105 -2.1520  3.2613
  284THF    H11 5130   0.312   3.173   2.148 -1.6729  0.2575 -2.5351
  284THF    H12 5131   0.204   3.100   1.965 -0.0816 -0.7813  2.2311
  284THF    H13 5132   0.147   3.269   1.938 -0.8337 -0.1175  0.5879
  285THF     O1 5133   5.361   5.488   3.851 -0.2372  0.1885  0.2174
  285THF     C2 5134   5.389   5.554   3.726 -0.0135  0.1332 -0.0570
  285THF     C3 5135   5.480   5.442   3.900  0.2711  0.2036  0.7694
  285THF     H4 5136   5.308   5.613   3.684 -0.1046  0.7922 -2.7774
  285THF     H5 5137   5.413   5.476   3.654  0.2672  1.7336  0.3241
  285THF     H6 5138   5.479   5.425   4.007 -0.5851  0.3567  0.3673
  285THF     H7 5139   5.504   5.352   3.850 -0.4440 -1.9169 -2.1431
  285THF     C8 5140   5.579   5.555   3.864 -0.9255  0.5292  0.1714
  285THF     C9 5141   5.518   5.628   3.742  0.0782  0.2374  0.8442
  285THF    H10 5142   5.687   5.526   3.846 -1.3637 -0.6543 -2.9717
  285THF    H11 5143   5.569   5.627   3.946 -3.6107  1.9593 -0.9087
  285THF    H12 5144   5.496   5.730   3.758  1.9038 -1.9685  1.3077
  285THF    H13 5145   5.580   5.615   3.647  0.2327  1.4586  2.7026
  286THF     O1 5146   3.811   3.213   5.077  0.5860  0.8199 -0.3624
  286THF     C2 5147   3.829   3.341   5.125 -0.0572 -0.0015  0.1968
  286THF     C3 5148   3.872   3.116   5.165 -0.3120  0.3102  0.2556
  286THF     H4 5149   3.745   3.400   5.103  1.7523 -0.3038 -0.8495
  286THF     H5 5150   3.915   3.387   5.080  1.3114  1.5442  0.7248
  286THF     H6 5151   3.823   3.022   5.159 -0.1345 -0.2574  0.4173
  286THF     H7 5152   3.976   3.106   5.134  0.3964 -0.4441  0.0088
  286THF     C8 5153   3.863   3.184   5.301  0.3314  0.2726 -0.0810
  286THF     C9 5154   3.867   3.326   5.274 -0.6519  0.1203  0.4192
  286THF    H10 5155   3.950   3.160   5.358  1.8437  2.1825  0.7639
  286THF    H11 5156   3.777   3.145   5.360  1.7670 -1.3457  1.7233
  286THF    H12 5157   3.795   3.368   5.334  1.7842 -0.5760 -0.8444
  286THF    H13 5158   3.967   3.373   5.295 -0.9937 -1.0494 -1.8881
  287THF     O1 5159   1.427   0.245   3.138 -0.4051 -0.2457  0.4666
  287THF     C2 5160   1.554   0.288   3.189  0.3213  0.5594  0.7815
  287THF     C3 5161   1.377   0.354   3.064 -0.8553 -0.0448  0.4218
  287THF     H4 5162   1.622   0.210   3.234  1.7855  0.6460  3.0500
  287THF     H5 5163   1.532   0.360   3.271  0.9264 -1.0128 -2.1547
  287THF     H6 5164   1.292   0.331   3.003 -0.5339  0.7619  0.8731
  287THF     H7 5165   1.352   0.431   3.140 -0.1774  0.4690 -1.8246
  287THF     C8 5166   1.500   0.402   2.990  0.3474  0.2083 -0.0938
  287THF     C9 5167   1.613   0.371   3.083  0.5349 -0.1019  0.6597
  287THF    H10 5168   1.511   0.505   2.971  0.2039 -1.5356  0.7950
  287THF    H11 5169   1.509   0.347   2.895 -1.1837  1.0865  0.7787
  287THF    H12 5170   1.696   0.324   3.026  0.5175 -0.2079  0.6004
  287THF    H13 5171   1.667   0.458   3.129  1.3400 -0.2797 -0.2024
  288THF     O1 5172   3.840   4.174   2.765 -0.1820 -0.0398 -0.3370
  288THF     C2 5173   3.715   4.141   2.707 -0.7426  0.3906  0.6211
  288THF     C3 5174   3.815   4.229   2.892 -0.1708  0.1093 -0.1477
  288THF     H4 5175   3.733   4.045   2.661  1.5226 -1.0505  0.1292
  288THF     H5 5176   3.684   4.213   2.629 -1.5157 -1.7709  0.3616
  288THF     H6 5177   3.840   4.162   2.975 -1.6588  1.9397 -0.7905
  288THF     H7 5178   3.872   4.318   2.909 -1.3501 -0.8809  1.0382
  288THF     C8 5179   3.662   4.246   2.916  0.2537 -0.2309 -0.0621
  288THF     C9 5180   3.618   4.132   2.822  0.4594 -0.1781 -0.2567
  288THF    H10 5181   3.620   4.340   2.879 -0.6852 -1.1386 -0.2180
  288THF    H11 5182   3.635   4.235   3.021  3.1868 -2.8667  0.7696
  288THF    H12 5183   3.631   4.035   2.876  0.1854 -1.7228  1.7457
  288THF    H13 5184   3.511   4.144   2.799 -1.4959 -0.7199 -2.1495
  289THF     O1 5185   4.344   1.438   2.796 -0.1587 -0.6735 -0.3744
  289THF     C2 5186   4.347   1.292   2.819  0.1525  0.3245  1.2541
  289THF     C3 5187   4.211   1.486   2.803  0.6983 -0.5725 -0.2037
  289THF     H4 5188   4.334   1.259   2.915 -0.5433 -2.3199  1.4033
  289THF     H5 5189   4.444   1.242   2.801  0.1656  0.9381 -0.6796
  289THF     H6 5190   4.182   1.500   2.910 -2.3614  2.4651  0.5481
  289THF     H7 5191   4.207   1.586   2.753  0.5983 -1.6579 -1.8063
  289THF     C8 5192   4.129   1.374   2.737 -0.2907 -0.2974 -0.3572
  289THF     C9 5193   4.219   1.247   2.736  0.0765 -0.2763 -0.1273
  289THF    H10 5194   4.110   1.399   2.630  0.3672  0.7119 -0.3669
  289THF    H11 5195   4.040   1.359   2.795  1.5273 -1.7087 -2.1700
  289THF    H12 5196   4.170   1.157   2.770  0.8716 -1.3564 -1.9195
  289THF    H13 5197   4.248   1.232   2.636  1.9672  1.3459  0.5137
  290THF     O1 5198   4.589   2.475   2.401 -0.6067  0.6879  0.4625
  290THF     C2 5199   4.511   2.370   2.463 -0.3707 -0.2153 -0.0669
  290THF     C3 5200   4.625   2.433   2.267 -1.0280  0.5277 -0.2047
  290THF     H4 5201   4.438   2.398   2.543 -0.0732  2.2144 -0.9933
  290THF     H5 5202   4.575   2.293   2.496  1.0861  0.1589  2.0721
  290THF     H6 5203   4.671   2.514   2.208 -0.8106  0.9597 -0.9593
  290THF     H7 5204   4.689   2.339   2.265  1.6350  0.5115 -0.5058
  290THF     C8 5205   4.489   2.376   2.212  0.4530  0.3898  0.6886
  290THF     C9 5206   4.425   2.320   2.343 -0.2840 -0.1639 -0.3996
  290THF    H10 5207   4.484   2.301   2.139 -1.1799  0.9331  2.1586
  290THF    H11 5208   4.428   2.454   2.181 -1.0910 -0.9056  0.4284
  290THF    H12 5209   4.323   2.362   2.358  2.0397  0.0750 -0.8204
  290THF    H13 5210   4.425   2.210   2.336  0.8640 -1.7304  0.5054
  291THF     O1 5211   2.719   0.757   3.008 -0.1018 -0.1356 -0.1541
  291THF     C2 5212   2.829   0.800   2.931 -0.4139 -0.5111  0.1413
  291THF     C3 5213   2.763   0.712   3.133 -0.1785  0.3561 -0.3316
  291THF     H4 5214   2.835   0.905   2.940 -2.0967  0.2833  2.1942
  291THF     H5 5215   2.823   0.760   2.833 -1.0361  0.6165  0.3275
  291THF     H6 5216   2.783   0.792   3.198 -0.4038 -3.6833  0.7014
  291THF     H7 5217   2.693   0.641   3.190  0.9587 -0.6607  3.5829
  291THF     C8 5218   2.887   0.637   3.099  0.7009  0.8001  0.1874
  291THF     C9 5219   2.945   0.748   3.007 -0.0693  0.3765  0.8422
  291THF    H10 5220   2.874   0.538   3.048 -0.1876  0.0194 -0.4269
  291THF    H11 5221   2.947   0.622   3.190 -0.1988 -2.5136 -0.2303
  291THF    H12 5222   2.984   0.827   3.077 -0.5767  2.1069  1.1384
  291THF    H13 5223   3.019   0.704   2.938  0.6770 -2.1119  1.2650
  292THF     O1 5224   1.766   0.440   1.909 -0.0201 -0.3144 -0.0129
  292THF     C2 5225   1.840   0.342   1.836 -0.3263  0.4791 -0.1984
  292THF     C3 5226   1.626   0.400   1.913  0.3036  0.0569 -0.1280
  292THF     H4 5227   1.939   0.330   1.869 -2.4215  0.1819  2.6808
  292THF     H5 5228   1.835   0.370   1.729 -1.0419  2.4964 -1.0829
  292THF     H6 5229   1.582   0.470   1.986  2.1051  3.6065 -1.2512
  292THF     H7 5230   1.570   0.416   1.818 -0.0037  0.2579 -1.0270
  292THF     C8 5231   1.637   0.255   1.953 -0.0141 -0.2036  0.5413
  292THF     C9 5232   1.757   0.210   1.867 -0.2976  0.0867  0.3426
  292THF    H10 5233   1.547   0.203   1.927 -0.4224  1.8569 -0.8838
  292THF    H11 5234   1.656   0.251   2.055  0.4186  2.2185 -0.8205
  292THF    H12 5235   1.822   0.134   1.915 -0.8651  1.4694  1.5441
  292THF    H13 5236   1.724   0.179   1.762  0.1619 -1.3120 -1.9357
  293THF     O1 5237   4.067   4.948   4.391 -0.0360  0.0267  0.0222
  293THF     C2 5238   3.940   4.896   4.342 -0.3331  0.2930 -0.0900
  293THF     C3 5239   4.164   4.844   4.377  0.5988  0.0668  0.1239
  293THF     H4 5240   3.933   4.924   4.242 -1.3579 -1.4827  1.3106
  293THF     H5 5241   3.855   4.941   4.398  2.7557  1.2894  0.6544
  293THF     H6 5242   4.231   4.873   4.298  1.8535 -1.1468 -0.0565
  293THF     H7 5243   4.224   4.837   4.463 -1.2609  1.0425 -0.2389
  293THF     C8 5244   4.093   4.721   4.328  0.5241  0.8306  0.1386
  293THF     C9 5245   3.949   4.739   4.366  0.0582  0.1083 -0.0970
  293THF    H10 5246   4.124   4.616   4.365 -0.4652 -1.2797  0.5091
  293THF    H11 5247   4.099   4.714   4.221  0.3400 -0.3900 -0.5141
  293THF    H12 5248   3.874   4.676   4.315  1.0130 -0.7849  1.1799
  293THF    H13 5249   3.926   4.725   4.473 -1.0421  2.5789  1.1706
  294THF     O1 5250   1.061   3.845   1.067  0.1493 -0.3728 -0.0299
  294THF     C2 5251   0.955   3.826   1.155  0.2650 -0.5075  0.3505
  294THF     C3 5252   1.127   3.960   1.096 -0.3115  0.2550 -0.3876
  294THF     H4 5253   0.977   3.763   1.241 -2.5940  0.3121 -0.0352
  294THF     H5 5254   0.876   3.773   1.109 -0.2130  2.1249  1.7257
  294THF     H6 5255   1.233   3.943   1.100 -0.4417  3.2732 -1.3667
  294THF     H7 5256   1.105   4.043   1.022 -1.0197  2.1797  2.3626
  294THF     C8 5257   1.059   4.013   1.228  0.4315  0.5944 -0.1135
  294THF     C9 5258   0.922   3.952   1.225 -0.0972 -0.0296  0.1813
  294THF    H10 5259   1.057   4.121   1.243 -0.6237  0.7669 -1.1625
  294THF    H11 5260   1.099   3.963   1.314  2.0120 -0.2873  2.1151
  294THF    H12 5261   0.867   3.945   1.311  0.7453 -0.5758 -2.1218
  294THF    H13 5262   0.863   4.010   1.157 -1.2985  0.1864 -0.6876
  295THF     O1 5263   0.602   1.980   5.075 -0.1402  0.3886 -0.5074
  295THF     C2 5264   0.467   1.968   5.057  0.7865 -0.3151 -0.0245
  295THF     C3 5265   0.647   2.092   4.993  0.6446  0.3834 -0.0623
  295THF     H4 5266   0.412   2.048   5.103  2.2856 -0.0024 -1.8735
  295THF     H5 5267   0.421   1.884   5.103  1.3367 -2.1614  2.7235
  295THF     H6 5268   0.617   2.180   5.040 -1.7623 -0.5505 -0.7479
  295THF     H7 5269   0.753   2.096   4.996 -2.7537 -3.2418 -0.3443
  295THF     C8 5270   0.579   2.056   4.860  0.1041  0.0023 -0.3917
  295THF     C9 5271   0.455   1.984   4.906 -0.1192 -0.0266 -0.4153
  295THF    H10 5272   0.641   2.001   4.787 -1.0876  0.4815 -1.8704
  295THF    H11 5273   0.559   2.142   4.801  0.9388 -1.3470 -0.0870
  295THF    H12 5274   0.366   2.037   4.883  1.4000 -1.8913 -4.2169
  295THF    H13 5275   0.455   1.886   4.864  3.1314  2.9906 -1.0715
  296THF     O1 5276   4.853   1.438   1.391 -0.3003 -0.5024  0.3096
  296THF     C2 5277   4.980   1.373   1.416 -0.1797  0.1428 -0.4293
  296THF     C3 5278   4.748   1.337   1.390 -0.2913 -0.1189 -0.0863
  296THF     H4 5279   5.054   1.445   1.437  0.6075  0.3399 -1.2290
  296THF     H5 5280   5.011   1.321   1.323 -0.6142 -0.1159  2.6501
  296THF     H6 5281   4.646   1.354   1.402  1.1177 -0.4277  2.6823
  296THF     H7 5282   4.743   1.289   1.290 -1.9699 -0.8718 -1.0609
  296THF     C8 5283   4.805   1.239   1.502 -0.3320  0.6266  0.3978
  296THF     C9 5284   4.947   1.273   1.521  0.3164 -0.4006 -0.1589
  296THF    H10 5285   4.791   1.132   1.484  1.8724  2.6401  0.8321
  296THF    H11 5286   4.749   1.260   1.597  1.8122  1.6635  1.6436
  296THF    H12 5287   4.967   1.307   1.619 -1.2848 -2.3287  0.0653
  296THF    H13 5288   5.001   1.185   1.496 -1.1591 -0.2612  4.6044
  297THF     O1 5289   1.139   3.855   5.012  0.0960  0.2413 -0.3677
  297THF     C2 5290   1.112   3.885   5.144 -1.1003 -0.6228  0.4205
  297THF     C3 5291   1.026   3.867   4.928  0.4461  0.5327 -0.1342
  297THF     H4 5292   1.187   3.923   5.210 -1.9426  1.2417 -2.1201
  297THF     H5 5293   1.074   3.797   5.196 -0.6429  0.7358  0.7324
  297THF     H6 5294   1.057   3.882   4.824 -0.3986  0.2134  1.9257
  297THF     H7 5295   0.973   3.772   4.942 -0.2152  0.9264  2.8592
  297THF     C8 5296   0.957   3.979   4.994 -0.1989 -0.1298 -0.4016
  297THF     C9 5297   1.010   3.993   5.137  0.3809  0.1253  0.4850
  297THF    H10 5298   0.853   3.961   4.985  1.6513  1.3100  0.0767
  297THF    H11 5299   0.981   4.070   4.932  1.4503  1.7631 -0.2759
  297THF    H12 5300   1.058   4.087   5.149  0.6298 -0.5236  2.0989
  297THF    H13 5301   0.937   3.983   5.220  0.0548  1.8708  0.0454
  298THF     O1 5302   3.432   1.091   0.811 -0.4128  0.1521 -0.4158
  298THF     C2 5303   3.429   1.235   0.856  0.1520 -0.8741  0.0417
  298THF     C3 5304   3.329   1.024   0.886  0.1714  0.8624 -0.0367
  298THF     H4 5305   3.357   1.289   0.789 -2.2256 -0.4210 -1.0996
  298THF     H5 5306   3.534   1.277   0.828  0.1285  0.8798 -3.2321
  298THF     H6 5307   3.233   1.049   0.846  0.3486 -0.9482  1.6724
  298THF     H7 5308   3.336   0.913   0.875 -1.6916 -0.4367 -0.8419
  298THF     C8 5309   3.355   1.078   1.026 -0.6372 -0.0720 -0.1220
  298THF     C9 5310   3.376   1.230   1.007 -0.0414 -0.6886  0.5762
  298THF    H10 5311   3.453   1.031   1.056  0.0375  2.4017  1.5303
  298THF    H11 5312   3.291   1.042   1.111  0.3015 -1.4573  4.1189
  298THF    H12 5313   3.282   1.285   1.016 -0.3994 -0.2862  0.7725
  298THF    H13 5314   3.455   1.272   1.074 -1.4819 -1.4462 -1.9147
  299THF     O1 5315   2.275   0.827   2.663  0.2980 -0.0259 -0.9668
  299THF     C2 5316   2.274   0.889   2.792 -0.0756  0.0842 -0.3405
  299THF     C3 5317   2.318   0.911   2.560 -0.0388 -0.0071 -0.3053
  299THF     H4 5318   2.336   0.844   2.864  1.8418  1.2523  0.6402
  299THF     H5 5319   2.178   0.883   2.828 -0.7047  0.9162 -3.0622
  299THF     H6 5320   2.427   0.914   2.560 -0.7008 -0.9405 -1.6541
  299THF     H7 5321   2.288   0.885   2.456  1.0132  1.1395 -3.0646
  299THF     C8 5322   2.279   1.048   2.607 -0.3714 -0.4144 -0.0470
  299THF     C9 5323   2.312   1.039   2.756  0.6224 -0.8265  0.0689
  299THF    H10 5324   2.179   1.063   2.572 -0.8057 -0.8402 -2.1791
  299THF    H11 5325   2.345   1.120   2.564  0.3533  0.1304  1.5868
  299THF    H12 5326   2.410   1.080   2.777  0.6852  0.5987  0.5604
  299THF    H13 5327   2.250   1.112   2.813 -2.0065  0.8100 -1.4614
  300THF     O1 5328   0.267   2.462   2.158  0.0577 -0.3307  0.1221
  300THF     C2 5329   0.267   2.575   2.071  0.2947 -0.1216 -0.1673
  300THF     C3 5330   0.129   2.430   2.193 -0.1640  0.4310  0.7375
  300THF     H4 5331   0.270   2.541   1.962  1.6844 -1.7520  0.8037
  300THF     H5 5332   0.360   2.638   2.079  1.6939 -1.3752 -2.3253
  300THF     H6 5333   0.102   2.323   2.173  1.3913 -1.6161  1.4569
  300THF     H7 5334   0.131   2.440   2.305 -1.6042 -0.2650  0.8508
  300THF     C8 5335   0.037   2.538   2.134 -0.4040  0.2611  0.5658
  300THF     C9 5336   0.138   2.654   2.112 -0.5163 -0.3801  0.3295
  300THF    H10 5337  -0.040   2.585   2.188 -1.0386  1.1370  0.0325
  300THF    H11 5338  -0.009   2.514   2.033 -0.7410  3.0560 -1.3992
  300THF    H12 5339   0.100   2.722   2.035 -1.6176 -1.0157 -0.3029
  300THF    H13 5340   0.144   2.705   2.206  0.1552 -2.3689  0.6612
  301THF     O1 5341   3.998   2.566   5.288 -0.1967 -0.5670 -0.7593
  301THF     C2 5342   4.138   2.564   5.325 -0.3479 -1.1890  0.0143
  301THF     C3 5343   3.983   2.693   5.223  0.4925 -0.1004 -0.5957
  301THF     H4 5344   4.195   2.541   5.237 -1.8306  0.3432  2.2536
  301THF     H5 5345   4.133   2.488   5.405  0.1576  1.7400  2.6861
  301THF     H6 5346   4.043   2.692   5.131  0.3507 -4.1766 -0.6175
  301THF     H7 5347   3.879   2.734   5.206 -1.6049  2.7416  1.2644
  301THF     C8 5348   4.046   2.794   5.316 -0.4555 -0.1502 -0.6375
  301THF     C9 5349   4.156   2.706   5.389  0.0651  0.2364 -0.2389
  301THF    H10 5350   3.967   2.833   5.382 -1.1719 -1.1577  0.4637
  301THF    H11 5351   4.087   2.874   5.264 -0.2152  1.2342  2.1846
  301THF    H12 5352   4.253   2.755   5.396 -1.3154  1.4005  1.5347
  301THF    H13 5353   4.120   2.685   5.492 -2.1289 -0.6647 -0.2474
  302THF     O1 5354   1.230   0.572   0.090 -0.0707  0.0887  0.0496
  302THF     C2 5355   1.357   0.500   0.079 -0.5346  0.3784  0.1894
  302THF     C3 5356   1.161   0.519   0.204  1.1372  0.0399 -0.5791
  302THF     H4 5357   1.439   0.563   0.128  1.8516 -1.2917  0.9639
  302THF     H5 5358   1.398   0.484  -0.026  0.9956  1.6639 -1.9582
  302THF     H6 5359   1.180   0.562   0.301 -2.3434 -0.7928 -0.8406
  302THF     H7 5360   1.050   0.531   0.200 -3.4692  2.5207 -1.1132
  302THF     C8 5361   1.198   0.374   0.199 -0.2093  0.0629  0.2839
  302THF     C9 5362   1.344   0.366   0.153 -0.0226 -0.2803 -0.6069
  302THF    H10 5363   1.132   0.331   0.122 -2.6223  2.4946 -1.0336
  302THF    H11 5364   1.188   0.318   0.293  2.4013 -0.6239 -0.1740
  302THF    H12 5365   1.405   0.348   0.243 -0.4389  0.5499  1.1497
  302THF    H13 5366   1.362   0.278   0.083  0.9558  1.7092  0.6655
  303THF     O1 5367   2.087   2.854   1.888 -0.3652 -0.4235  0.6639
  303THF     C2 5368   2.128   2.930   2.005  0.7022  0.2481 -0.3409
  303THF     C3 5369   2.150   2.920   1.778  0.3726 -0.0092  0.9414
  303THF     H4 5370   2.114   2.863   2.088  1.2015 -2.6579  0.3628
  303THF     H5 5371   2.059   3.017   2.021  0.3639 -2.5294 -0.7170
  303THF     H6 5372   2.165   2.857   1.689 -0.3364  2.8615  1.5901
  303THF     H7 5373   2.082   3.004   1.742 -1.0939  0.6082 -1.1980
  303THF     C8 5374   2.279   2.973   1.832 -0.4043  0.2410 -0.2239
  303THF     C9 5375   2.267   2.975   1.989 -0.4979  0.6454 -0.2330
  303THF    H10 5376   2.295   3.074   1.796  0.2503  3.0445 -0.0487
  303THF    H11 5377   2.370   2.921   1.801  1.0120  0.3001  1.3076
  303THF    H12 5378   2.331   2.896   2.035 -0.6533 -0.9695  2.7347
  303THF    H13 5379   2.292   3.071   2.029 -1.4509 -0.2036 -0.3546
  304THF     O1 5380   1.637   3.417   4.706  0.0712 -0.8403  0.3338
  304THF     C2 5381   1.706   3.538   4.743 -0.2471 -0.5373 -0.0537
  304THF     C3 5382   1.532   3.429   4.804  0.4923 -0.1356 -0.3434
  304THF     H4 5383   1.797   3.539   4.673  1.3203  1.3490  1.3207
  304THF     H5 5384   1.750   3.535   4.844 -0.5976 -0.8754  0.6569
  304THF     H6 5385   1.463   3.354   4.785 -0.4889  3.5108  1.9422
  304THF     H7 5386   1.567   3.404   4.906  0.6808 -0.1592  1.6383
  304THF     C8 5387   1.480   3.569   4.795 -0.7385  0.8190 -0.2885
  304THF     C9 5388   1.600   3.642   4.728 -0.3103  0.0788 -0.5708
  304THF    H10 5389   1.438   3.597   4.895  0.3512 -1.7567 -1.5826
  304THF    H11 5390   1.389   3.570   4.733  0.3902 -0.5151 -2.9012
  304THF    H12 5391   1.580   3.667   4.625 -0.1672 -0.2776 -0.4721
  304THF    H13 5392   1.633   3.731   4.789  0.5146  1.7179 -0.1666
  305THF     O1 5393   5.035   2.799   1.519 -0.3321  0.2430  0.0426
  305THF     C2 5394   5.086   2.670   1.564 -0.6694  0.2847 -0.1067
  305THF     C3 5395   4.895   2.809   1.561  0.4450 -0.2993  0.3122
  305THF     H4 5396   5.107   2.668   1.671  0.6511 -0.9486  1.1158
  305THF     H5 5397   5.176   2.637   1.510 -1.0563 -0.6463  0.8339
  305THF     H6 5398   4.899   2.823   1.666 -0.9352 -1.0751  0.8146
  305THF     H7 5399   4.846   2.893   1.516 -0.0379 -1.0904  0.0066
  305THF     C8 5400   4.838   2.680   1.515 -0.2670 -0.0926  0.1995
  305THF     C9 5401   4.957   2.585   1.537 -0.1924  0.1573  0.4011
  305THF    H10 5402   4.805   2.680   1.409  0.5535  0.8864 -0.9472
  305THF    H11 5403   4.746   2.662   1.573 -1.9217 -1.7540 -0.8609
  305THF    H12 5404   4.935   2.522   1.620 -0.0203  2.0299 -0.2662
  305THF    H13 5405   4.985   2.518   1.456  1.3799 -0.8418 -0.5448
  306THF     O1 5406   2.479   4.651   5.150 -0.3521  1.3760 -0.2655
  306THF     C2 5407   2.581   4.637   5.066 -0.3342 -0.6249 -0.7246
  306THF     C3 5408   2.492   4.777   5.217  0.2382 -0.1655 -0.1032
  306THF     H4 5409   2.560   4.563   4.990 -1.2760  0.0212  2.4223
  306THF     H5 5410   2.673   4.603   5.124 -0.8914 -0.8851  4.1376
  306THF     H6 5411   2.391   4.815   5.233 -0.9578  0.7399  0.4858
  306THF     H7 5412   2.539   4.762   5.314 -1.5785 -2.1281 -1.7068
  306THF     C8 5413   2.556   4.869   5.117  0.2681  0.7774  0.2374
  306THF     C9 5414   2.602   4.775   5.002  0.0287 -0.0160  0.5221
  306THF    H10 5415   2.642   4.928   5.159  1.8310  2.3798 -2.3129
  306THF    H11 5416   2.476   4.940   5.081  0.2915 -0.9217 -1.7884
  306THF    H12 5417   2.541   4.794   4.910  0.2696  1.5256 -2.1147
  306THF    H13 5418   2.705   4.805   4.980  2.2792  0.1201  0.3561
  307THF     O1 5419   1.698   0.068   2.593 -0.2744  1.1138 -0.1230
  307THF     C2 5420   1.678   0.209   2.552 -0.4162 -0.5486 -0.3135
  307THF     C3 5421   1.810   0.065   2.686  0.0112 -0.2887 -0.3327
  307THF     H4 5422   1.572   0.248   2.560 -2.6871 -2.4852 -2.1485
  307THF     H5 5423   1.712   0.225   2.445 -2.2570  2.4032 -0.1383
  307THF     H6 5424   1.764   0.069   2.791  1.2453 -1.2031  2.2799
  307THF     H7 5425   1.872  -0.023   2.676  0.3428 -3.3244 -0.3897
  307THF     C8 5426   1.884   0.196   2.669  0.1592 -0.0091 -0.2211
  307THF     C9 5427   1.769   0.294   2.649  0.4653  0.2640 -0.4352
  307THF    H10 5428   1.957   0.203   2.584 -2.9779 -2.5103 -1.1037
  307THF    H11 5429   1.941   0.223   2.753 -1.6467  1.6161 -0.9109
  307THF    H12 5430   1.721   0.310   2.744  1.5896 -3.0747 -0.7841
  307THF    H13 5431   1.810   0.379   2.598  0.7369 -1.5287 -0.1372
  308THF     O1 5432   4.839   2.253   4.381 -0.3631  0.5701 -0.4158
  308THF     C2 5433   4.800   2.218   4.254  0.0462 -0.7075  0.7178
  308THF     C3 5434   4.908   2.149   4.456 -0.2227 -0.1721  1.1588
  308THF     H4 5435   4.860   2.252   4.172  1.4280 -1.4162  0.7534
  308THF     H5 5436   4.701   2.254   4.240 -2.3092 -1.8795 -0.7545
  308THF     H6 5437   5.012   2.152   4.429 -0.7162 -0.3258  2.8332
  308THF     H7 5438   4.896   2.154   4.566 -1.4555 -3.7087 -0.8370
  308THF     C8 5439   4.837   2.026   4.399 -1.2292 -0.2391  0.7222
  308THF     C9 5440   4.814   2.062   4.252 -0.1128 -0.3324  0.1113
  308THF    H10 5441   4.744   2.028   4.439  3.2361  0.9948 -0.7550
  308THF    H11 5442   4.880   1.924   4.415 -3.0815 -3.6387 -2.0582
  308THF    H12 5443   4.901   2.024   4.203 -1.5461 -2.5479  0.1921
  308THF    H13 5444   4.733   2.008   4.204  2.1901  0.7534 -0.5004
  309THF     O1 5445   3.981   0.831   0.179  0.5404  0.4100 -0.0853
  309THF     C2 5446   4.023   0.969   0.193 -0.2970 -1.2311 -0.1683
  309THF     C3 5447   3.838   0.823   0.183  0.9121  0.2598  0.3438
  309THF     H4 5448   4.113   0.997   0.137 -0.8742 -0.1517 -0.3147
  309THF     H5 5449   4.044   0.970   0.300  0.2957  0.6609  0.9654
  309THF     H6 5450   3.807   0.737   0.125  1.5089 -0.9967 -0.0039
  309THF     H7 5451   3.802   0.814   0.288 -0.8279  1.4629  1.4695
  309THF     C8 5452   3.787   0.960   0.127 -0.4082  0.7900  0.2937
  309THF     C9 5453   3.902   1.055   0.158  0.1958  0.4157 -0.4964
  309THF    H10 5454   3.688   0.987   0.168 -1.6552  1.1005  0.2233
  309THF    H11 5455   3.782   0.947   0.016 -1.3369 -1.3942 -2.0067
  309THF    H12 5456   3.906   1.122   0.072 -0.0301  0.3780 -0.4252
  309THF    H13 5457   3.876   1.115   0.248 -0.1661 -1.4156 -0.1660
  310THF     O1 5458   4.751   2.311   1.818 -0.1094  0.0537 -0.3680
  310THF     C2 5459   4.709   2.279   1.681  0.3409 -0.5985  0.3757
  310THF     C3 5460   4.663   2.404   1.881  0.0296  0.3323 -0.4931
  310THF     H4 5461   4.767   2.195   1.638  2.7376  1.2540 -1.3344
  310THF     H5 5462   4.716   2.363   1.609  0.9762  2.5091 -0.4205
  310THF     H6 5463   4.670   2.406   1.993  0.5076 -0.3891 -1.5647
  310THF     H7 5464   4.684   2.503   1.851 -2.4800  0.7510 -1.2530
  310THF     C8 5465   4.536   2.351   1.822  0.1601  0.4479  0.3669
  310THF     C9 5466   4.566   2.247   1.715 -0.5892 -0.2461  0.7571
  310THF    H10 5467   4.489   2.439   1.782  0.0909  0.0704 -0.5233
  310THF    H11 5468   4.482   2.305   1.899 -0.9921 -0.3939 -1.5555
  310THF    H12 5469   4.569   2.147   1.755  2.2436  2.6020 -1.2017
  310THF    H13 5470   4.495   2.246   1.632  0.5715 -0.5164  1.4677
  311THF     O1 5471   3.205   5.444   3.711 -0.1403 -0.7746 -0.1197
  311THF     C2 5472   3.108   5.401   3.808  0.3494 -0.4661 -0.0774
  311THF     C3 5473   3.323   5.490   3.778 -0.1754  0.7430 -0.1197
  311THF     H4 5474   3.026   5.343   3.764 -0.6885  0.7494  0.8258
  311THF     H5 5475   3.068   5.487   3.862 -1.9755  1.0730  0.6913
  311THF     H6 5476   3.414   5.495   3.728 -2.0497  1.6537 -1.5156
  311THF     H7 5477   3.301   5.587   3.812 -0.5972  0.5478 -1.0228
  311THF     C8 5478   3.330   5.393   3.896 -0.0392  0.1027 -0.5661
  311THF     C9 5479   3.197   5.318   3.896 -0.2628 -0.0141  0.3033
  311THF    H10 5480   3.344   5.455   3.986  0.7323 -0.1510 -2.0007
  311THF    H11 5481   3.409   5.321   3.888 -3.7362 -1.3114 -0.7130
  311THF    H12 5482   3.219   5.223   3.857  3.5482 -0.1380 -0.1828
  311THF    H13 5483   3.152   5.299   3.998 -0.9522 -1.9124  2.3556
  312THF     O1 5484   3.962   2.587   1.567 -0.3294  0.2491 -0.0055
  312THF     C2 5485   3.959   2.647   1.435  0.4779  0.0398  0.2615
  312THF     C3 5486   3.848   2.632   1.633  0.4773 -0.2658  0.0269
  312THF     H4 5487   4.025   2.597   1.369 -0.3266 -0.5518 -2.4080
  312THF     H5 5488   4.010   2.738   1.451  0.8645  0.4233 -0.4099
  312THF     H6 5489   3.823   2.569   1.718  1.3064  0.5324 -1.9826
  312THF     H7 5490   3.861   2.731   1.679  0.7518 -0.5402  2.2592
  312THF     C8 5491   3.737   2.632   1.530  0.2977  0.6351  0.7132
  312THF     C9 5492   3.813   2.662   1.398 -0.0315  0.0986  0.1907
  312THF    H10 5493   3.663   2.712   1.544  0.8434 -0.7713  0.3668
  312THF    H11 5494   3.685   2.531   1.526  0.0409 -2.9000  0.5137
  312THF    H12 5495   3.779   2.591   1.327 -1.7432 -0.6854 -0.0849
  312THF    H13 5496   3.797   2.776   1.372 -2.6047 -2.4723 -0.2018
  313THF     O1 5497   4.379   1.453   2.413 -0.4892  0.0849 -0.4004
  313THF     C2 5498   4.344   1.576   2.474  0.0486  0.2960 -0.4808
  313THF     C3 5499   4.473   1.481   2.312 -0.6795 -0.9310 -1.2338
  313THF     H4 5500   4.424   1.624   2.538  0.9801 -0.3615 -0.3616
  313THF     H5 5501   4.261   1.573   2.543  1.4178  1.4749 -3.3682
  313THF     H6 5502   4.573   1.491   2.352  2.0503  0.6816  0.3235
  313THF     H7 5503   4.471   1.403   2.235 -1.9108 -2.2567  1.1682
  313THF     C8 5504   4.410   1.600   2.239 -0.2189  0.2465  0.3810
  313THF     C9 5505   4.322   1.655   2.351 -0.2406  0.7131 -0.1087
  313THF    H10 5506   4.351   1.561   2.149  1.7392 -0.5453 -0.2347
  313THF    H11 5507   4.500   1.660   2.215  0.4489  0.3488  0.7381
  313THF    H12 5508   4.339   1.762   2.370  0.9339  0.4077 -0.2587
  313THF    H13 5509   4.215   1.646   2.320 -0.6242 -3.1736  1.8641
  314THF     O1 5510   1.422   2.264   5.020 -0.4073  0.0697 -0.5759
  314THF     C2 5511   1.500   2.175   4.937 -0.1628 -0.1172  0.9435
  314THF     C3 5512   1.286   2.235   5.005 -0.4593  0.1112  0.1160
  314THF     H4 5513   1.575   2.123   4.992  2.0662  1.3433  0.7000
  314THF     H5 5514   1.550   2.230   4.860  1.7564 -0.4538  1.7170
  314THF     H6 5515   1.258   2.162   5.083 -2.6558 -2.1030 -1.2497
  314THF     H7 5516   1.226   2.324   5.007  0.4576  3.8849  0.4011
  314THF     C8 5517   1.274   2.165   4.864  0.0575  0.6613  0.0129
  314THF     C9 5518   1.406   2.090   4.862  0.6799 -0.8061 -0.1838
  314THF    H10 5519   1.267   2.237   4.784  1.3134 -1.2550  0.5802
  314THF    H11 5520   1.190   2.099   4.853 -1.0967  3.0098 -0.6666
  314THF    H12 5521   1.391   1.993   4.915 -2.4389 -3.5337  0.0969
  314THF    H13 5522   1.450   2.069   4.770 -1.2670  0.1954  0.1780
  315THF     O1 5523   1.240   1.982   1.813  0.4500  0.2145 -0.3749
  315THF     C2 5524   1.263   1.889   1.921 -0.1598 -0.0151  0.3747
  315THF     C3 5525   1.111   1.965   1.775  0.1618 -0.7126 -0.3885
  315THF     H4 5526   1.226   1.929   2.014  0.7047 -1.6355 -0.4250
  315THF     H5 5527   1.372   1.887   1.923 -1.2127 -0.1479  0.3883
  315THF     H6 5528   1.049   2.005   1.854 -0.8144  0.8571 -0.6383
  315THF     H7 5529   1.092   2.018   1.686 -2.6856  3.4607 -0.6421
  315THF     C8 5530   1.107   1.814   1.762  0.4394 -0.5922 -0.3581
  315THF     C9 5531   1.194   1.767   1.872 -0.1095  0.5822 -0.2302
  315THF    H10 5532   1.153   1.779   1.672 -0.3779  1.1517 -0.9983
  315THF    H11 5533   1.002   1.778   1.762 -1.3923  0.4331  1.3550
  315THF    H12 5534   1.146   1.702   1.946 -0.4294  1.0940  1.6173
  315THF    H13 5535   1.269   1.693   1.842 -1.4155  0.1430 -3.0652
  316THF     O1 5536   4.928   1.106   2.792 -0.0103 -0.1157  0.6307
  316THF     C2 5537   4.949   0.964   2.809 -0.0590 -0.7507 -0.4423
  316THF     C3 5538   5.045   1.180   2.809  0.2643  0.5093 -0.7181
  316THF     H4 5539   4.887   0.896   2.743  1.1012 -0.2367  0.2545
  316THF     H5 5540   4.930   0.941   2.911 -3.0765  1.3538 -0.5184
  316THF     H6 5541   5.042   1.260   2.741 -1.0868  1.0726  1.9137
  316THF     H7 5542   5.033   1.223   2.906 -0.3494  0.7214 -3.1078
  316THF     C8 5543   5.161   1.082   2.785 -0.6391  0.2865 -0.8307
  316THF     C9 5544   5.092   0.947   2.772 -0.2128 -1.1657  0.0297
  316THF    H10 5545   5.233   1.091   2.864 -0.8894  2.0524 -0.1808
  316THF    H11 5546   5.215   1.112   2.696 -0.7128 -1.3708 -0.2189
  316THF    H12 5547   5.088   0.916   2.669  3.1069  0.3702  0.0388
  316THF    H13 5548   5.141   0.872   2.830 -0.5173  0.3187  0.2650
  317THF     O1 5549   2.769   3.800   1.042  0.3696  0.0681 -0.1793
  317THF     C2 5550   2.814   3.926   1.099 -0.6154  0.2842 -0.1010
  317THF     C3 5551   2.880   3.734   0.982 -0.3222  0.0633 -0.6610
  317THF     H4 5552   2.800   3.931   1.214 -0.1604 -0.7984  2.4627
  317THF     H5 5553   2.750   4.001   1.054 -0.6150  0.6833  1.6157
  317THF     H6 5554   2.922   3.655   1.043  0.7930 -1.2698 -0.2322
  317THF     H7 5555   2.848   3.683   0.894  0.3023  0.3168 -0.2990
  317THF     C8 5556   2.986   3.837   0.961 -0.2138 -0.0158  0.5803
  317THF     C9 5557   2.964   3.938   1.066 -0.5777 -0.0240  0.1941
  317THF    H10 5558   2.958   3.880   0.859  2.5600 -1.6175  1.3125
  317THF    H11 5559   3.085   3.790   0.948  0.4504 -0.6745 -1.4431
  317THF    H12 5560   3.018   3.908   1.152  0.8582 -1.3996 -0.2628
  317THF    H13 5561   2.993   4.041   1.039 -0.0141  2.2510  0.0474
  318THF     O1 5562   2.072   0.301   1.435  0.0492  0.0304  0.4918
  318THF     C2 5563   2.129   0.299   1.565  0.3211  0.1117  0.2051
  318THF     C3 5564   2.172   0.335   1.339  0.1127 -1.0806  0.1235
  318THF     H4 5565   2.067   0.252   1.633  1.5266  0.3345 -2.2171
  318THF     H5 5566   2.140   0.404   1.589  0.5320 -3.7329 -0.9138
  318THF     H6 5567   2.154   0.312   1.242 -2.1098 -0.2158 -0.1047
  318THF     H7 5568   2.203   0.436   1.358  1.5002  2.3832 -0.7219
  318THF     C8 5569   2.288   0.248   1.387  0.9204  0.2026  0.0445
  318THF     C9 5570   2.269   0.233   1.539  0.6874  0.2273 -0.6317
  318THF    H10 5571   2.382   0.300   1.368  0.8694 -0.3181  0.2729
  318THF    H11 5572   2.287   0.143   1.340  0.0669  1.2369  0.7264
  318THF    H12 5573   2.261   0.131   1.568 -0.6591 -1.1757 -0.3719
  318THF    H13 5574   2.349   0.273   1.604 -1.9744 -0.4933  2.4803
  319THF     O1 5575   0.978   1.503   1.749  0.5220 -0.0587  0.0234
  319THF     C2 5576   1.092   1.435   1.801  0.0435  0.0406 -0.5530
  319THF     C3 5577   0.866   1.422   1.775 -0.1028  0.3115  0.5802
  319THF     H4 5578   1.091   1.420   1.916 -2.5765  1.4896  0.5607
  319THF     H5 5579   1.181   1.497   1.769  0.6901 -0.9122  0.5916
  319THF     H6 5580   0.835   1.443   1.873  3.0783 -0.5240 -1.8907
  319THF     H7 5581   0.774   1.441   1.716 -2.7055  1.2608  0.2437
  319THF     C8 5582   0.925   1.280   1.759  0.4246 -0.2358  0.2806
  319THF     C9 5583   1.074   1.308   1.729  0.0156  0.6111  0.4001
  319THF    H10 5584   0.876   1.217   1.682  0.3718 -0.6627 -2.2901
  319THF    H11 5585   0.906   1.225   1.851 -3.5418 -0.9348 -0.8715
  319THF    H12 5586   1.139   1.220   1.748  0.6320 -2.1245 -0.5223
  319THF    H13 5587   1.078   1.333   1.624  1.9313  1.8706 -2.2204
  320THF     O1 5588   1.767   3.695   3.867 -0.5306 -0.1115 -0.3772
  320THF     C2 5589   1.649   3.747   3.811 -0.2719  0.2640 -0.3589
  320THF     C3 5590   1.757   3.713   4.007 -0.0286 -0.8583 -0.6127
  320THF     H4 5591   1.575   3.665   3.792  0.0812  0.2994  0.8582
  320THF     H5 5592   1.686   3.785   3.719 -0.3180 -0.0015  1.4448
  320THF     H6 5593   1.685   3.644   4.054  1.1628 -2.9795 -1.0167
  320THF     H7 5594   1.859   3.719   4.055 -0.0040  0.3516 -3.1212
  320THF     C8 5595   1.693   3.847   4.037 -0.7469 -0.3079  0.2371
  320THF     C9 5596   1.614   3.868   3.906  0.0989 -0.4827  0.8092
  320THF    H10 5597   1.769   3.923   4.055 -1.3417  1.7405  0.9641
  320THF    H11 5598   1.628   3.854   4.123 -1.0378 -0.9616  0.5953
  320THF    H12 5599   1.508   3.869   3.921  1.3670  1.0275  0.5012
  320THF    H13 5600   1.650   3.955   3.839  0.5673  2.0565 -0.9689
  321THF     O1 5601   2.620   1.188   2.667 -0.4829 -0.8210  0.1020
  321THF     C2 5602   2.663   1.226   2.534  0.5048  0.1779 -0.3074
  321THF     C3 5603   2.698   1.066   2.708 -0.1507 -0.6675  0.8311
  321THF     H4 5604   2.639   1.333   2.531 -0.3510 -0.8757  1.4819
  321THF     H5 5605   2.613   1.166   2.467  0.9023  1.8589  2.0840
  321THF     H6 5606   2.707   1.044   2.815 -1.7928 -2.9837 -0.1726
  321THF     H7 5607   2.641   0.987   2.662 -1.6475  1.2171  0.9421
  321THF     C8 5608   2.838   1.080   2.643  0.1326  0.2309  0.1185
  321THF     C9 5609   2.813   1.192   2.543 -0.3071 -0.6840 -0.1271
  321THF    H10 5610   2.874   0.991   2.598  0.1670  0.7971 -0.5582
  321THF    H11 5611   2.904   1.125   2.714 -1.0906 -0.0389  0.4701
  321THF    H12 5612   2.872   1.281   2.570 -1.5873 -1.8370  0.0058
  321THF    H13 5613   2.845   1.169   2.437 -0.6932  1.4414 -0.0307
  322THF     O1 5614   5.141   1.816   1.663  0.0642  0.0270  0.3286
  322THF     C2 5615   5.275   1.826   1.619  0.2866 -0.2821  0.6896
  322THF     C3 5616   5.055   1.777   1.553 -0.5784 -0.5427  0.1357
  322THF     H4 5617   5.336   1.772   1.681 -2.0843  1.6264 -3.5862
  322THF     H5 5618   5.299   1.932   1.620  1.2870  0.7233  1.8298
  322THF     H6 5619   5.049   1.668   1.541 -0.3776  0.0601  1.6615
  322THF     H7 5620   4.962   1.820   1.545  2.2398 -0.4730  4.8867
  322THF     C8 5621   5.141   1.807   1.430  0.2141  1.3905 -0.1845
  322THF     C9 5622   5.280   1.771   1.483 -0.0768 -0.4796 -1.1764
  322THF    H10 5623   5.132   1.905   1.404 -3.7445 -2.5645 -2.6622
  322THF    H11 5624   5.106   1.743   1.346  1.3330  2.3730  0.4020
  322THF    H12 5625   5.317   1.667   1.491 -0.0981  0.8018  1.8367
  322THF    H13 5626   5.357   1.830   1.433 -1.3818  1.7824 -2.9215
  323THF     O1 5627   3.264   0.138   2.965  0.4472  0.3782  0.2227
  323THF     C2 5628   3.262   0.251   3.050  0.2668  0.5300 -0.6916
  323THF     C3 5629   3.334   0.179   2.850 -0.2871 -0.5328 -0.8239
  323THF     H4 5630   3.355   0.240   3.102  0.0759  3.8198  1.4282
  323THF     H5 5631   3.184   0.239   3.129 -3.1209 -0.0852 -0.3574
  323THF     H6 5632   3.439   0.183   2.868 -0.9812 -0.8640 -0.7078
  323THF     H7 5633   3.325   0.115   2.766  2.3704 -1.1538  1.8928
  323THF     C8 5634   3.295   0.329   2.828  0.3695 -0.0621 -0.4235
  323THF     C9 5635   3.261   0.380   2.969  0.4479  0.3344  0.5965
  323THF    H10 5636   3.197   0.325   2.779  0.2866 -1.8255  1.5135
  323THF    H11 5637   3.365   0.397   2.770  1.0019 -1.3347 -0.1277
  323THF    H12 5638   3.337   0.453   2.990  0.7545 -0.0830 -0.1209
  323THF    H13 5639   3.165   0.427   2.990 -0.6174 -4.3178  2.0694
  324THF     O1 5640   5.162   5.239   0.383  0.5059 -0.6307 -0.4055
  324THF     C2 5641   5.296   5.249   0.347 -0.2207  0.4300  0.0357
  324THF     C3 5642   5.093   5.365   0.363 -0.1867 -0.5753  0.1166
  324THF     H4 5643   5.328   5.149   0.317 -0.2896 -4.6168  0.8939
  324THF     H5 5644   5.349   5.276   0.441  1.2859 -0.0344 -1.0176
  324THF     H6 5645   4.999   5.364   0.299  0.9883 -0.6486 -0.6418
  324THF     H7 5646   5.072   5.407   0.457 -0.8839  2.7864 -2.5937
  324THF     C8 5647   5.203   5.453   0.286  0.1391  0.1623 -0.2243
  324THF     C9 5648   5.307   5.351   0.234 -0.2428  0.5786  0.0159
  324THF    H10 5649   5.256   5.519   0.357 -1.0052 -0.7431  0.4055
  324THF    H11 5650   5.161   5.520   0.208 -2.1297 -2.8882  0.6277
  324THF    H12 5651   5.277   5.289   0.150 -2.2301 -1.8486  3.5481
  324THF    H13 5652   5.410   5.387   0.225  0.0328 -2.5395  1.7942
  325THF     O1 5653   5.236   3.620   1.179 -0.5073  0.2592 -0.2076
  325THF     C2 5654   5.370   3.575   1.209  0.2468 -0.5341 -0.1020
  325THF     C3 5655   5.216   3.740   1.250 -0.3783  0.1378 -0.9278
  325THF     H4 5656   5.411   3.506   1.134  2.7978 -0.6818  0.0734
  325THF     H5 5657   5.372   3.520   1.309 -0.7707 -0.8378 -1.1537
  325THF     H6 5658   5.149   3.800   1.192 -0.1926  1.6789  0.3618
  325THF     H7 5659   5.177   3.723   1.346 -2.4951  0.7039 -1.3403
  325THF     C8 5660   5.344   3.819   1.236 -0.1377  0.2485  0.0068
  325THF     C9 5661   5.448   3.705   1.207  0.8827  0.2046 -0.1144
  325THF    H10 5662   5.356   3.886   1.319 -0.1362  0.3629 -3.2362
  325THF    H11 5663   5.341   3.887   1.148 -1.2737 -0.0307 -1.0620
  325THF    H12 5664   5.510   3.722   1.116 -0.7334  1.4398 -0.2236
  325THF    H13 5665   5.512   3.713   1.290 -1.2467 -1.5372  1.0573
  326THF     O1 5666   0.573   0.641   4.357 -0.5653  0.1867  0.0577
  326THF     C2 5667   0.454   0.647   4.435  0.1645 -0.0495 -0.0524
  326THF     C3 5668   0.614   0.504   4.341 -0.4808 -0.1137 -0.2692
  326THF     H4 5669   0.368   0.646   4.365  0.2119 -0.1561  0.8496
  326THF     H5 5670   0.435   0.742   4.494 -0.6386  0.3437  5.3572
  326THF     H6 5671   0.617   0.489   4.229 -1.8173  1.7288  1.2338
  326THF     H7 5672   0.715   0.499   4.389 -0.7363  0.0245  1.3348
  326THF     C8 5673   0.514   0.426   4.424  0.3955 -0.1693  0.0838
  326THF     C9 5674   0.463   0.530   4.520  0.5006  0.3684  0.1281
  326THF    H10 5675   0.570   0.342   4.465  2.7090  3.1353  1.0932
  326THF    H11 5676   0.431   0.385   4.364 -3.1240  0.3651 -1.6813
  326THF    H12 5677   0.368   0.504   4.567 -3.8783  0.9404  0.8936
  326THF    H13 5678   0.539   0.548   4.600 -1.1927  0.1598  2.1829
  327THF     O1 5679   3.760   0.235   1.510  0.4353 -0.7599  0.3116
  327THF     C2 5680   3.709   0.357   1.561  0.2094 -0.2614  0.2157
  327THF     C3 5681   3.725   0.219   1.373 -0.1018 -0.3806  0.8364
  327THF     H4 5682   3.787   0.434   1.544 -0.4508  0.5623  1.8656
  327THF     H5 5683   3.686   0.358   1.669  0.1261 -0.9155  0.0758
  327THF     H6 5684   3.812   0.215   1.311  2.2111  1.2290  0.1674
  327THF     H7 5685   3.657   0.128   1.360 -1.3625 -0.3111 -1.1507
  327THF     C8 5686   3.640   0.342   1.337 -0.0182 -0.2480  0.9164
  327THF     C9 5687   3.593   0.382   1.472  1.0987  0.1202 -0.0585
  327THF    H10 5688   3.546   0.327   1.270 -1.0939 -1.3283 -1.2821
  327THF    H11 5689   3.705   0.404   1.284 -1.0280  2.3061  1.6981
  327THF    H12 5690   3.565   0.485   1.478 -0.9939  0.2921  0.5004
  327THF    H13 5691   3.508   0.317   1.494 -0.0238  0.8688 -0.0565
  328THF     O1 5692   2.382   2.012   2.669 -0.0731  0.1958 -0.2565
  328THF     C2 5693   2.491   1.941   2.628 -0.2940 -0.9767  0.4752
  328THF     C3 5694   2.285   2.001   2.565 -0.5053  0.3951  0.0707
  328THF     H4 5695   2.466   1.839   2.653  0.9116 -0.2315 -0.7172
  328THF     H5 5696   2.576   1.977   2.678 -1.0507  0.9315 -1.8258
  328THF     H6 5697   2.242   1.901   2.573 -0.8383  2.1392 -0.1812
  328THF     H7 5698   2.207   2.074   2.577  1.7112 -0.6372 -1.0912
  328THF     C8 5699   2.376   2.024   2.438  0.5093 -0.1379  0.2519
  328THF     C9 5700   2.514   1.961   2.479  0.2013 -0.3075  1.0354
  328THF    H10 5701   2.386   2.133   2.404 -0.0055  1.2643 -0.8758
  328THF    H11 5702   2.329   1.965   2.357 -1.0573  1.0868 -0.9896
  328THF    H12 5703   2.535   1.864   2.425  0.1108  0.3308  0.8640
  328THF    H13 5704   2.594   2.029   2.453 -1.0066  0.4712  3.0440
  329THF     O1 5705   2.269   1.862   1.401  0.0746 -0.2966 -0.7064
  329THF     C2 5706   2.226   1.729   1.430 -0.1062 -0.1780 -0.0658
  329THF     C3 5707   2.161   1.956   1.411  1.0288  0.6855  0.0410
  329THF     H4 5708   2.310   1.656   1.453  2.8777  0.9978 -0.5791
  329THF     H5 5709   2.160   1.688   1.355  2.7817 -2.5006 -0.9406
  329THF     H6 5710   2.183   2.058   1.422  1.7023 -1.1339  0.2484
  329THF     H7 5711   2.104   1.951   1.319  2.0779  1.7362 -0.0114
  329THF     C8 5712   2.092   1.897   1.530  0.2316 -0.4029 -1.0788
  329THF     C9 5713   2.149   1.757   1.557 -0.2960 -0.4007  0.0048
  329THF    H10 5714   1.984   1.890   1.518  0.2889 -0.2680  2.7418
  329THF    H11 5715   2.101   1.969   1.610 -0.6458 -0.6934 -0.8405
  329THF    H12 5716   2.205   1.775   1.646 -2.8785 -0.5565 -0.2720
  329THF    H13 5717   2.078   1.677   1.569 -0.2126  0.1543  0.3983
  330THF     O1 5718   0.149   1.433   3.995 -0.4620  0.0306  0.2899
  330THF     C2 5719   0.191   1.463   3.863  0.7700 -0.6955  0.6313
  330THF     C3 5720   0.061   1.330   3.988 -0.2979  0.3298 -1.2728
  330THF     H4 5721   0.268   1.394   3.838  0.7295 -1.6996  0.9353
  330THF     H5 5722   0.246   1.559   3.857  1.0321  0.7629 -1.5757
  330THF     H6 5723   0.103   1.229   3.967 -2.1074  1.6866 -0.8622
  330THF     H7 5724   0.008   1.322   4.081  1.3066  0.8153 -1.2604
  330THF     C8 5725  -0.027   1.373   3.871 -0.0988  0.1266  0.3590
  330THF     C9 5726   0.066   1.452   3.781  0.4109  0.2448 -0.2151
  330THF    H10 5727  -0.096   1.447   3.905  0.9076  1.8978  0.4426
  330THF    H11 5728  -0.093   1.291   3.835 -0.5801 -2.0974  2.5595
  330THF    H12 5729   0.091   1.386   3.690 -2.3231 -2.9952  0.2049
  330THF    H13 5730   0.032   1.547   3.740 -2.0013  1.3720 -1.6710
  331THF     O1 5731   1.613   2.515   5.062 -0.5425  0.5525  0.3233
  331THF     C2 5732   1.744   2.544   5.015 -0.3014  0.2891 -0.4081
  331THF     C3 5733   1.517   2.559   4.969 -0.3336  0.5624 -0.0755
  331THF     H4 5734   1.819   2.473   5.040  0.1004  3.4945 -0.6605
  331THF     H5 5735   1.771   2.645   5.040  1.8593 -1.3672  2.0272
  331THF     H6 5736   1.420   2.526   4.980  0.9854  0.7313 -0.6715
  331THF     H7 5737   1.513   2.665   4.996  0.7790 -0.9089  1.5650
  331THF     C8 5738   1.579   2.549   4.833 -0.7703  0.5909 -0.3185
  331THF     C9 5739   1.727   2.546   4.862 -0.5154  0.1971 -0.7736
  331THF    H10 5740   1.527   2.624   4.759 -1.2289  0.2229 -1.7012
  331THF    H11 5741   1.548   2.454   4.794  0.6975  1.6464 -1.0801
  331THF    H12 5742   1.775   2.464   4.806  3.0791  0.1150 -0.0830
  331THF    H13 5743   1.775   2.645   4.838 -0.7406 -0.2733  0.0464
  332THF     O1 5744   4.956   1.728   0.512  0.7488  1.4218 -0.1014
  332THF     C2 5745   4.945   1.726   0.655  0.4052  0.0996 -0.7666
  332THF     C3 5746   4.989   1.591   0.477 -0.1624  0.5846 -1.2226
  332THF     H4 5747   4.848   1.686   0.678 -0.3644  1.3409  1.9659
  332THF     H5 5748   4.953   1.829   0.692  0.3081  2.1600  0.6814
  332THF     H6 5749   4.901   1.528   0.508 -0.2399 -1.5749 -1.1711
  332THF     H7 5750   5.010   1.573   0.376  1.6747 -0.4524  0.2981
  332THF     C8 5751   5.109   1.575   0.567 -0.4552  0.5288 -0.1564
  332THF     C9 5752   5.060   1.634   0.704  0.6577 -0.3891  0.1115
  332THF    H10 5753   5.191   1.644   0.520  0.9904 -0.0337  0.2707
  332THF    H11 5754   5.142   1.471   0.577  0.9463 -0.0813  2.4572
  332THF    H12 5755   5.026   1.564   0.783 -0.6231 -0.4957  0.5273
  332THF    H13 5756   5.144   1.687   0.754 -0.0229 -0.9079  1.5835
  333THF     O1 5757   3.686   3.554   3.802 -0.6228  0.3145  0.1795
  333THF     C2 5758   3.713   3.663   3.711  0.0130  0.0380  0.5076
  333THF     C3 5759   3.744   3.439   3.738  0.0436  0.3964  0.5573
  333THF     H4 5760   3.815   3.700   3.725 -1.2680  0.3887 -1.7935
  333THF     H5 5761   3.639   3.741   3.722 -1.1338 -0.2666 -1.8124
  333THF     H6 5762   3.852   3.427   3.761  2.8681 -0.3974 -0.1690
  333THF     H7 5763   3.705   3.340   3.771 -2.3225  1.0720 -0.7729
  333THF     C8 5764   3.731   3.453   3.585 -0.2963 -0.2694 -0.9066
  333THF     C9 5765   3.696   3.600   3.570 -0.3073  0.2749 -0.0475
  333THF    H10 5766   3.651   3.389   3.535 -1.2149 -1.4358  4.2541
  333THF    H11 5767   3.820   3.426   3.538 -0.7767  0.5393  0.5814
  333THF    H12 5768   3.761   3.646   3.492 -1.9899  1.2052  1.6562
  333THF    H13 5769   3.596   3.597   3.533 -0.2429  2.8031  0.6567
  334THF     O1 5770   2.470   0.831   2.004 -0.0294 -0.5588  0.2170
  334THF     C2 5771   2.568   0.752   2.068  0.5148 -0.2953  0.1305
  334THF     C3 5772   2.525   0.962   2.000 -0.1115  0.2960 -0.4979
  334THF     H4 5773   2.630   0.718   1.985 -0.6177  1.5657 -0.2924
  334THF     H5 5774   2.519   0.663   2.116  1.3470 -1.5708 -0.8671
  334THF     H6 5775   2.545   0.989   1.894 -2.6002 -1.1311  1.6816
  334THF     H7 5776   2.453   1.033   2.024  0.7239  1.2673 -0.0509
  334THF     C8 5777   2.642   0.978   2.093  0.0454  0.0091 -0.0848
  334THF     C9 5778   2.642   0.843   2.171  0.3229 -0.4901 -0.6808
  334THF    H10 5779   2.630   1.076   2.147 -0.5648  1.6938  0.6074
  334THF    H11 5780   2.728   0.973   2.032  1.4018  1.7028  0.7178
  334THF    H12 5781   2.742   0.806   2.193 -1.1136  1.8265 -2.7200
  334THF    H13 5782   2.584   0.834   2.262  0.3518  1.1084 -0.2422
  335THF     O1 5783   1.696   4.904   0.483  0.5868 -0.0385 -0.2021
  335THF     C2 5784   1.630   5.007   0.414  0.3975  0.4967 -0.0101
  335THF     C3 5785   1.628   4.904   0.614  0.7732 -0.0615  0.1753
  335THF     H4 5786   1.622   4.991   0.301  1.9375 -0.8531 -0.1631
  335THF     H5 5787   1.690   5.090   0.440 -3.0745 -0.1797  1.5830
  335THF     H6 5788   1.578   4.807   0.633 -1.0238 -1.1729 -1.5652
  335THF     H7 5789   1.700   4.927   0.691  0.5374  1.3560  0.7070
  335THF     C8 5790   1.504   4.999   0.612  0.2114  0.3122 -0.3944
  335THF     C9 5791   1.495   5.025   0.466 -0.3246  0.3220 -0.5260
  335THF    H10 5792   1.528   5.084   0.674  0.3472  0.9081 -0.6882
  335THF    H11 5793   1.412   4.951   0.647  1.1737 -0.5342 -2.6609
  335THF    H12 5794   1.424   4.950   0.416 -2.0066 -0.8644 -0.2547
  335THF    H13 5795   1.453   5.120   0.448 -1.0756  1.5778  1.1872
  336THF     O1 5796   1.756   0.965   4.116  0.1327 -0.4127  0.2426
  336THF     C2 5797   1.712   0.857   4.036  0.1866 -0.3414  0.3683
  336THF     C3 5798   1.895   0.988   4.087 -0.2340  0.2665 -0.2671
  336THF     H4 5799   1.716   0.886   3.935  1.7538  0.9621  0.5778
  336THF     H5 5800   1.609   0.829   4.065 -0.8374  0.9071  2.8790
  336THF     H6 5801   1.912   1.048   3.997  0.5037 -0.6436  1.2056
  336THF     H7 5802   1.932   1.051   4.162  1.2236  3.0426 -0.3671
  336THF     C8 5803   1.948   0.845   4.082  0.7205 -0.1162 -0.4846
  336THF     C9 5804   1.821   0.759   4.038  0.1324 -0.0256  0.5604
  336THF    H10 5805   1.979   0.814   4.177  1.7898  1.3697 -0.6261
  336THF    H11 5806   2.036   0.826   4.019  1.1899 -2.1486  1.9316
  336THF    H12 5807   1.835   0.703   3.947 -0.8454  0.3826  1.4155
  336THF    H13 5808   1.799   0.689   4.119 -1.3861  0.4824  0.6536
  337THF     O1 5809   4.745   2.952   2.298 -0.2576 -0.2001 -0.3566
  337THF     C2 5810   4.863   3.032   2.314 -0.2308 -0.5684 -0.5170
  337THF     C3 5811   4.734   2.881   2.418  0.1782  0.7403 -0.1072
  337THF     H4 5812   4.860   3.116   2.245  1.5099  1.5217 -0.0090
  337THF     H5 5813   4.951   2.983   2.285  1.3778  0.3008 -0.1745
  337THF     H6 5814   4.627   2.850   2.433  0.3030 -0.1585 -2.2780
  337THF     H7 5815   4.801   2.795   2.415 -1.6520 -1.6099  0.7688
  337THF     C8 5816   4.791   2.964   2.537  0.1780  0.0658 -0.7146
  337THF     C9 5817   4.867   3.076   2.460  0.0775 -0.1722 -0.3557
  337THF    H10 5818   4.849   2.920   2.619 -0.1776  2.7546 -0.0303
  337THF    H11 5819   4.699   3.002   2.578  1.3116 -1.7911 -0.6170
  337THF    H12 5820   4.819   3.169   2.477  0.4353  0.2575 -0.7384
  337THF    H13 5821   4.973   3.086   2.490  1.4440 -1.5840  0.8192
  338THF     O1 5822   4.517   2.508   3.490 -0.2294 -0.8873  0.5325
  338THF     C2 5823   4.629   2.594   3.450  0.8700  0.4997  0.6301
  338THF     C3 5824   4.436   2.582   3.582  0.1513 -0.1729  0.3576
  338THF     H4 5825   4.655   2.589   3.343 -1.0392  1.4632  1.4558
  338THF     H5 5826   4.721   2.573   3.507 -0.2167 -0.6153 -1.9140
  338THF     H6 5827   4.336   2.544   3.589  1.2862 -1.1282 -1.3053
  338THF     H7 5828   4.476   2.579   3.680 -0.0664 -0.0716  1.5051
  338THF     C8 5829   4.442   2.727   3.529 -0.1495 -0.3200 -0.3620
  338THF     C9 5830   4.588   2.734   3.487 -0.5820 -0.5161  0.0886
  338THF    H10 5831   4.410   2.792   3.618  1.2094  1.0389  2.1384
  338THF    H11 5832   4.366   2.731   3.449  0.1210 -0.2378  1.8590
  338THF    H12 5833   4.613   2.806   3.411 -0.9035  1.2232 -0.5911
  338THF    H13 5834   4.649   2.760   3.580  3.7711  0.9087 -0.1432
  339THF     O1 5835   0.651   2.452   4.890 -0.0665  0.0839  0.3625
  339THF     C2 5836   0.521   2.502   4.898 -0.6611  0.3795 -0.5070
  339THF     C3 5837   0.703   2.460   4.758 -0.4294  0.8127  0.0588
  339THF     H4 5838   0.523   2.609   4.914  1.2182  2.4016  1.7100
  339THF     H5 5839   0.472   2.453   4.985 -2.1963 -0.1294 -1.9104
  339THF     H6 5840   0.789   2.526   4.751  2.4239 -1.5965 -1.0275
  339THF     H7 5841   0.740   2.358   4.740  1.4240 -0.1564  0.5354
  339THF     C8 5842   0.579   2.505   4.679 -0.1179  0.7160 -0.2866
  339THF     C9 5843   0.466   2.488   4.769  0.0163 -0.0759  0.4806
  339THF    H10 5844   0.562   2.458   4.581 -0.7140 -1.3412 -3.2790
  339THF    H11 5845   0.587   2.610   4.671  1.0708 -1.0196 -0.0144
  339THF    H12 5846   0.380   2.544   4.754 -0.2605 -2.2867  1.6955
  339THF    H13 5847   0.433   2.387   4.769  1.5345  2.7516  0.0768
  340THF     O1 5848   4.603   0.272   3.125 -0.3361  0.3726 -0.2030
  340THF     C2 5849   4.666   0.192   3.226 -0.0214 -0.1653 -0.6694
  340THF     C3 5850   4.473   0.317   3.171  0.2859  0.9038 -0.2295
  340THF     H4 5851   4.753   0.239   3.265 -1.7867  2.0880  1.5012
  340THF     H5 5852   4.676   0.093   3.184 -0.2746 -0.9955 -2.3722
  340THF     H6 5853   4.484   0.411   3.219 -0.1011 -3.0894 -1.4674
  340THF     H7 5854   4.403   0.323   3.094  0.8818 -1.5165 -0.0750
  340THF     C8 5855   4.431   0.204   3.261 -1.3458  0.4957  0.0078
  340THF     C9 5856   4.561   0.189   3.343  0.4406 -0.1171  0.6624
  340THF    H10 5857   4.405   0.116   3.201 -0.5312 -0.5291  1.5650
  340THF    H11 5858   4.343   0.230   3.321 -3.2405 -0.7135  1.9393
  340THF    H12 5859   4.569   0.282   3.409  0.3472  0.3270 -0.0964
  340THF    H13 5860   4.570   0.102   3.411 -1.4911 -0.6201  1.4263
  341THF     O1 5861   2.262   0.865   0.188 -0.5158 -0.5764 -0.4763
  341THF     C2 5862   2.337   0.805   0.078 -0.1996 -0.3347 -0.0040
  341THF     C3 5863   2.134   0.897   0.140 -0.6447  0.4143  0.1792
  341THF     H4 5864   2.431   0.752   0.109 -0.1346 -0.5632  1.4167
  341THF     H5 5865   2.374   0.898   0.024  0.6945 -0.0698  0.5675
  341THF     H6 5866   2.068   0.889   0.221  1.3665 -1.8783 -1.8001
  341THF     H7 5867   2.131   1.004   0.110 -1.2811  2.1637 -1.0315
  341THF     C8 5868   2.105   0.796   0.029 -0.4686 -0.6691  0.2214
  341THF     C9 5869   2.234   0.717   0.010 -0.0437 -0.0185  0.2439
  341THF    H10 5870   2.068   0.842  -0.059  0.4056  0.7785  4.3912
  341THF    H11 5871   2.014   0.740   0.053 -0.5478 -0.7268 -1.1449
  341THF    H12 5872   2.211   0.616   0.049 -2.3533 -2.3621  0.5907
  341THF    H13 5873   2.263   0.703  -0.094  1.7318 -0.7390 -0.2283
  342THF     O1 5874   1.118   2.137   0.217  0.5879  0.4321  0.1996
  342THF     C2 5875   1.037   2.245   0.255  0.5970 -1.0628 -0.7780
  342THF     C3 5876   1.249   2.167   0.243 -0.3353  0.2916 -0.5345
  342THF     H4 5877   1.025   2.252   0.367  0.6275 -0.0875  2.1187
  342THF     H5 5878   0.941   2.234   0.208  1.3419  0.1519  2.9539
  342THF     H6 5879   1.267   2.147   0.345  0.8160  1.1683 -2.1485
  342THF     H7 5880   1.323   2.101   0.190  1.2616  0.1171 -0.0681
  342THF     C8 5881   1.261   2.315   0.199 -0.5251  0.3128  0.1802
  342THF     C9 5882   1.117   2.371   0.211 -0.0431 -0.6322  0.2058
  342THF    H10 5883   1.286   2.320   0.092 -1.5800  1.5631 -0.9014
  342THF    H11 5884   1.344   2.368   0.242  0.8482  0.0657 -0.1509
  342THF    H12 5885   1.111   2.451   0.284 -0.9878  1.0724  0.8277
  342THF    H13 5886   1.085   2.412   0.113  1.3014  0.4721  0.8846
  343THF     O1 5887   2.050   1.992   3.749 -0.0436  0.0964 -0.0402
  343THF     C2 5888   1.995   1.944   3.630  0.2358 -0.0094  0.5609
  343THF     C3 5889   2.141   1.892   3.800  0.0809  0.2844 -0.2934
  343THF     H4 5890   1.957   2.026   3.575 -1.5210  0.4304  1.5975
  343THF     H5 5891   1.915   1.876   3.658  1.8367 -3.4504  2.0989
  343THF     H6 5892   2.199   1.931   3.879  0.2126 -0.8903 -1.6323
  343THF     H7 5893   2.073   1.822   3.840  0.2550  3.1554  2.6794
  343THF     C8 5894   2.211   1.833   3.673  0.0017  0.5029 -0.0931
  343THF     C9 5895   2.109   1.852   3.567  0.2471 -0.1127  0.9077
  343THF    H10 5896   2.236   1.727   3.677  0.4573  1.1770  1.6349
  343THF    H11 5897   2.298   1.896   3.656  1.0081 -0.4933 -1.9057
  343THF    H12 5898   2.155   1.888   3.474  4.2648  1.4356  0.3880
  343THF    H13 5899   2.083   1.755   3.529  3.1426  0.6067 -1.2477
  344THF     O1 5900   2.301   4.819   4.742  0.7338  0.3923 -0.0686
  344THF     C2 5901   2.237   4.710   4.677 -0.4459  0.2797  0.2365
  344THF     C3 5902   2.254   4.819   4.875  0.1607  0.5300  0.6113
  344THF     H4 5903   2.288   4.678   4.590 -2.4592 -0.0282  1.3311
  344THF     H5 5904   2.134   4.728   4.647  0.7629 -3.7727  2.8091
  344THF     H6 5905   2.320   4.884   4.940 -0.3368  0.3937 -0.7984
  344THF     H7 5906   2.154   4.863   4.862 -0.2807  0.0649  1.3054
  344THF     C8 5907   2.252   4.673   4.912  0.0712  0.0859 -0.2189
  344THF     C9 5908   2.246   4.596   4.780 -1.0097  0.5611 -0.4351
  344THF    H10 5909   2.161   4.645   4.970 -1.9948  1.5809 -1.7479
  344THF    H11 5910   2.339   4.630   4.960  0.7596 -0.4462  2.5417
  344THF    H12 5911   2.342   4.538   4.760  0.1116 -2.6437 -3.2200
  344THF    H13 5912   2.174   4.514   4.771 -2.8636 -0.6339  0.7405
  345THF     O1 5913   1.069   4.563   0.571 -0.8900 -0.7705  0.2378
  345THF     C2 5914   1.120   4.538   0.436  0.2608  0.2813  0.7141
  345THF     C3 5915   1.143   4.669   0.633  0.9262 -0.0834 -0.2433
  345THF     H4 5916   1.037   4.558   0.371 -1.6046 -0.2386  0.2804
  345THF     H5 5917   1.147   4.436   0.419  0.6692 -1.7441 -2.7432
  345THF     H6 5918   1.085   4.759   0.622  0.2033  0.7909 -0.3450
  345THF     H7 5919   1.148   4.644   0.739 -0.1582 -0.4351  0.8475
  345THF     C8 5920   1.275   4.668   0.564 -0.8498 -0.1694 -0.2327
  345THF     C9 5921   1.231   4.645   0.423  0.0513  0.3915 -0.4996
  345THF    H10 5922   1.325   4.580   0.596 -0.0544 -0.2647 -3.4321
  345THF    H11 5923   1.348   4.746   0.565  3.4524 -1.1137  0.4678
  345THF    H12 5924   1.180   4.728   0.372 -1.0922 -0.5016  1.0731
  345THF    H13 5925   1.310   4.621   0.352  1.5427  2.1076 -0.8600
  346THF     O1 5926   4.128   2.873   4.979  0.0811 -0.2208  0.0891
  346THF     C2 5927   4.124   2.987   4.894  0.5759  0.6292 -0.3427
  346THF     C3 5928   4.263   2.840   4.991  0.9040 -0.6063  0.1711
  346THF     H4 5929   4.024   3.037   4.881 -1.6294  0.2442  1.0039
  346THF     H5 5930   4.144   2.951   4.796  0.9860  1.5324 -0.1521
  346THF     H6 5931   4.272   2.780   5.084 -1.3647 -1.5469 -2.4363
  346THF     H7 5932   4.307   2.791   4.904  1.7034  1.2528 -0.2649
  346THF     C8 5933   4.333   2.973   5.010 -0.2898  0.4168  0.4290
  346THF     C9 5934   4.231   3.068   4.957 -0.3814 -0.0263  0.0173
  346THF    H10 5935   4.423   2.972   4.953  0.1665 -1.7010 -0.4221
  346THF    H11 5936   4.352   3.002   5.112  1.8058  2.6575 -1.2607
  346THF    H12 5937   4.196   3.135   5.041  1.2365  2.2535  0.4336
  346THF    H13 5938   4.281   3.139   4.885  0.7852  3.2075  2.8593
  347THF     O1 5939   1.562   1.679   5.101 -0.5853  0.4223  0.3653
  347THF     C2 5940   1.544   1.545   5.135  0.4001 -0.0612 -0.1709
  347THF     C3 5941   1.537   1.687   4.963  0.3659  0.6805  0.3337
  347THF     H4 5942   1.537   1.520   5.243  0.3456  1.0623 -0.5067
  347THF     H5 5943   1.628   1.482   5.100  0.8789 -2.4196 -0.9122
  347THF     H6 5944   1.489   1.783   4.957  0.2151  0.9156  1.3540
  347THF     H7 5945   1.628   1.681   4.897  1.3321 -0.8034 -2.4770
  347THF     C8 5946   1.431   1.583   4.936  1.0948  0.0563 -0.1662
  347THF     C9 5947   1.418   1.508   5.069  0.2701 -0.0708 -0.2184
  347THF    H10 5948   1.455   1.515   4.860 -0.2259 -1.8895 -0.3169
  347THF    H11 5949   1.333   1.619   4.904  0.2565  0.2116  1.0915
  347THF    H12 5950   1.331   1.536   5.133 -0.1963 -1.3003 -0.1221
  347THF    H13 5951   1.417   1.403   5.050  0.4536 -1.4093 -0.1668
  348THF     O1 5952   0.137   2.992   0.318 -0.7152 -0.1065 -0.2659
  348THF     C2 5953   0.078   3.032   0.196  0.4944 -0.0715 -0.8557
  348THF     C3 5954   0.264   3.046   0.335  0.2345 -0.4806 -0.6523
  348THF     H4 5955   0.020   3.120   0.219  0.1558  1.5470  0.4926
  348THF     H5 5956   0.019   2.955   0.146  1.6342  0.3669 -1.0538
  348THF     H6 5957   0.267   3.096   0.435 -0.8943 -1.0746 -0.1438
  348THF     H7 5958   0.329   2.963   0.344 -0.8421  0.5295 -1.6575
  348THF     C8 5959   0.286   3.139   0.215  0.7770 -0.3088  0.5871
  348THF     C9 5960   0.203   3.072   0.116 -0.2660 -0.6549  0.5449
  348THF    H10 5961   0.387   3.141   0.177  0.1335 -2.6738  2.8498
  348THF    H11 5962   0.251   3.238   0.224 -1.5448 -0.3711 -3.9947
  348THF    H12 5963   0.178   3.141   0.031 -1.7446 -1.4131  1.2684
  348THF    H13 5964   0.257   2.988   0.077  1.9946 -1.9506  2.7833
  349THF     O1 5965   5.384   2.008   1.135  0.7251  0.0907 -0.1927
  349THF     C2 5966   5.261   2.075   1.147 -0.0469  0.0835  0.7825
  349THF     C3 5967   5.357   1.874   1.099  0.5497  0.2694  0.6096
  349THF     H4 5968   5.267   2.179   1.132 -0.5421 -0.1236 -0.8532
  349THF     H5 5969   5.204   2.051   1.234 -0.7736  0.6867 -3.6160
  349THF     H6 5970   5.450   1.825   1.068  0.2276 -0.5633 -1.5941
  349THF     H7 5971   5.335   1.818   1.189 -0.2056 -0.3391  0.7062
  349THF     C8 5972   5.236   1.879   1.005  0.3266  0.7200 -0.4532
  349THF     C9 5973   5.170   2.019   1.034  0.2571 -0.1999  0.3314
  349THF    H10 5974   5.163   1.796   1.033 -1.2744 -3.8222  1.5360
  349THF    H11 5975   5.268   1.866   0.903 -1.0351  0.5537 -2.2995
  349THF    H12 5976   5.167   2.082   0.948  2.6295  0.2252 -0.0001
  349THF    H13 5977   5.071   1.987   1.071 -0.4518  1.5271 -0.0266
  350THF     O1 5978   2.489   5.178   5.245 -0.5493  0.0804  0.0275
  350THF     C2 5979   2.511   5.321   5.230 -0.9520 -0.1175  0.0500
  350THF     C3 5980   2.353   5.161   5.289  0.2593  0.0132 -0.0880
  350THF     H4 5981   2.532   5.343   5.122  2.3730 -2.5988  0.3673
  350THF     H5 5982   2.589   5.364   5.294 -2.1210 -2.2301  0.0415
  350THF     H6 5983   2.318   5.069   5.250 -0.7535  1.2078 -0.7279
  350THF     H7 5984   2.351   5.156   5.399  0.7062  0.6927 -0.4082
  350THF     C8 5985   2.279   5.280   5.226  0.1213 -0.3846 -0.5813
  350THF     C9 5986   2.375   5.392   5.253 -0.8299  0.6936  0.6752
  350THF    H10 5987   2.183   5.298   5.285  1.8566  0.6707 -1.1841
  350THF    H11 5988   2.256   5.251   5.130 -1.1871 -3.0465  1.0309
  350THF    H12 5989   2.369   5.469   5.184 -2.4321  0.0122  0.4164
  350THF    H13 5990   2.378   5.424   5.352 -1.3848 -0.8347 -0.4270
  351THF     O1 5991   1.356   3.289   4.294 -0.3941 -0.0330 -0.5654
  351THF     C2 5992   1.478   3.276   4.230  0.1056 -0.4739  0.1908
  351THF     C3 5993   1.380   3.376   4.408  0.2863 -0.1264 -0.3363
  351THF     H4 5994   1.456   3.250   4.127 -1.0733 -1.2112  1.0116
  351THF     H5 5995   1.541   3.200   4.281  0.4915 -1.7747 -2.8923
  351THF     H6 5996   1.285   3.414   4.448 -1.4127 -0.8049  2.8918
  351THF     H7 5997   1.406   3.306   4.484 -0.7953  0.6971  1.1088
  351THF     C8 5998   1.498   3.470   4.367  0.2756  0.7901 -0.0747
  351THF     C9 5999   1.545   3.411   4.240  0.3391  0.4323 -0.1556
  351THF    H10 6000   1.571   3.474   4.450 -0.0562 -0.3937  1.5689
  351THF    H11 6001   1.483   3.577   4.357  0.8614  1.9049 -0.3196
  351THF    H12 6002   1.515   3.479   4.163 -0.5593  1.1407  0.3079
  351THF    H13 6003   1.650   3.411   4.233 -0.4234  0.5230  1.9415
  352THF     O1 6004   4.274   4.210   0.229 -0.2033 -0.6085  0.2133
  352THF     C2 6005   4.359   4.137   0.140  0.3573  0.1756 -0.1204
  352THF     C3 6006   4.306   4.151   0.357  0.2566 -0.3663 -0.5086
  352THF     H4 6007   4.366   4.184   0.049  0.8761  1.2577 -1.0347
  352THF     H5 6008   4.322   4.038   0.121  0.5790 -0.6933 -2.1498
  352THF     H6 6009   4.280   4.237   0.424  2.1497 -0.7615 -0.6316
  352THF     H7 6010   4.266   4.056   0.366 -1.5574  3.0055 -1.2301
  352THF     C8 6011   4.459   4.134   0.354 -0.3338 -0.6734 -0.1689
  352THF     C9 6012   4.496   4.137   0.206  0.4580  1.0488 -0.1701
  352THF    H10 6013   4.479   4.043   0.406  0.1804  1.2965  0.5170
  352THF    H11 6014   4.513   4.220   0.392  1.2359  0.2597 -1.3123
  352THF    H12 6015   4.548   4.228   0.181 -2.2891  0.2690 -2.9885
  352THF    H13 6016   4.552   4.048   0.184  1.6154  0.0393 -0.7072
  353THF     O1 6017   0.439   3.890   3.133  0.4242  0.1543  0.8469
  353THF     C2 6018   0.522   4.001   3.110  0.1640 -0.4667 -0.1768
  353THF     C3 6019   0.450   3.860   3.272  0.1544 -0.8731  0.1790
  353THF     H4 6020   0.481   4.071   3.038  0.7477  1.5860  0.0232
  353THF     H5 6021   0.614   3.958   3.086 -0.9236  0.7331  1.4844
  353THF     H6 6022   0.374   3.803   3.314  0.6518 -0.2685 -1.6919
  353THF     H7 6023   0.540   3.812   3.291 -0.2814 -0.3046 -0.9040
  353THF     C8 6024   0.444   4.003   3.328 -0.0519  0.5251  0.1820
  353THF     C9 6025   0.532   4.086   3.236 -0.2744 -0.3735 -0.2446
  353THF    H10 6026   0.479   4.002   3.430  0.4268  1.8347  1.5494
  353THF    H11 6027   0.341   4.041   3.307  0.8306  1.6624 -1.3705
  353THF    H12 6028   0.516   4.190   3.216  0.9579  3.4706  2.0722
  353THF    H13 6029   0.628   4.085   3.281 -0.7555 -0.9542  1.2509
  354THF     O1 6030   3.906   3.706   0.292 -0.3104 -0.2033  0.1957
  354THF     C2 6031   4.014   3.795   0.300 -0.0623  0.2938 -0.5827
  354THF     C3 6032   3.951   3.591   0.223  0.1469  0.1988  0.0818
  354THF     H4 6033   4.073   3.765   0.386 -0.4545  0.5821  1.0877
  354THF     H5 6034   3.976   3.895   0.301 -0.5370 -0.4068 -1.6772
  354THF     H6 6035   3.937   3.516   0.301  0.4253  0.3628 -1.0733
  354THF     H7 6036   3.891   3.571   0.140 -1.0101  2.4802 -1.4698
  354THF     C8 6037   4.097   3.614   0.179 -0.0432  1.6824  1.2466
  354THF     C9 6038   4.101   3.761   0.175  0.3777 -0.3208  0.4832
  354THF    H10 6039   4.117   3.569   0.084  0.2836 -1.5806  1.4727
  354THF    H11 6040   4.165   3.564   0.251  2.1194  0.4713 -0.3268
  354THF    H12 6041   4.207   3.801   0.193  1.4970  2.3824 -1.5500
  354THF    H13 6042   4.056   3.799   0.081 -0.4257 -1.4412  0.8821
  355THF     O1 6043   4.549   2.659   2.045  0.4450 -0.2420  0.2754
  355THF     C2 6044   4.520   2.730   2.164  0.4100  0.0739 -0.7335
  355THF     C3 6045   4.579   2.766   1.961 -0.2223  0.4540 -0.4803
  355THF     H4 6046   4.612   2.757   2.213 -1.4213 -1.7758  0.3396
  355THF     H5 6047   4.477   2.655   2.231 -0.7686 -0.8017  1.0585
  355THF     H6 6048   4.674   2.823   1.983 -0.7408 -0.1623  1.5528
  355THF     H7 6049   4.587   2.737   1.854  0.1752 -0.9776 -1.3914
  355THF     C8 6050   4.479   2.874   1.982  0.7185  0.1307  0.4876
  355THF     C9 6051   4.432   2.847   2.123  0.0320  0.4324  0.2005
  355THF    H10 6052   4.401   2.871   1.911  0.4842 -3.7224  1.6136
  355THF    H11 6053   4.520   2.976   1.969  1.3275  0.8956  1.4107
  355THF    H12 6054   4.428   2.927   2.205 -2.9467 -0.3034 -0.9749
  355THF    H13 6055   4.324   2.824   2.119  0.7775  0.5248  0.5406
  356THF     O1 6056   3.195   0.589   1.400 -0.0700 -0.5913 -0.3615
  356THF     C2 6057   3.244   0.682   1.306 -0.1762 -0.0977  0.2122
  356THF     C3 6058   3.065   0.549   1.370 -0.5167 -0.0266  0.0445
  356THF     H4 6059   3.343   0.650   1.279  2.7924 -1.1241 -1.5836
  356THF     H5 6060   3.251   0.782   1.346 -0.7510  0.6730 -1.4013
  356THF     H6 6061   3.078   0.447   1.345 -2.5258  2.8889 -0.5942
  356THF     H7 6062   3.003   0.556   1.463 -0.5311  1.3370 -0.7147
  356THF     C8 6063   3.017   0.639   1.257 -0.1985  0.2118 -0.1908
  356THF     C9 6064   3.146   0.686   1.195 -0.2308 -0.2826  0.1370
  356THF    H10 6065   2.947   0.721   1.287 -0.4489 -2.2007 -0.2831
  356THF    H11 6066   2.957   0.572   1.185 -1.2796 -3.3119 -1.5013
  356THF    H12 6067   3.188   0.611   1.125  3.2167 -2.6202 -0.5333
  356THF    H13 6068   3.133   0.786   1.153  0.3182 -0.2460  0.2094
  357THF     O1 6069   4.110   4.967   4.925  0.2367  0.4596 -0.0847
  357THF     C2 6070   4.157   4.941   4.790 -0.5114 -0.0496  0.7434
  357THF     C3 6071   4.207   5.051   4.980 -0.3078  0.4388  0.1744
  357THF     H4 6072   4.086   4.899   4.724 -1.2116 -0.1658  4.0737
  357THF     H5 6073   4.246   4.873   4.797  3.9610 -1.3001 -0.6167
  357THF     H6 6074   4.166   5.091   5.069  1.0761 -0.0849  0.5958
  357THF     H7 6075   4.304   5.010   5.005 -0.2015  1.9365 -1.5780
  357THF     C8 6076   4.222   5.160   4.869 -0.0933 -0.1420 -0.3338
  357THF     C9 6077   4.197   5.083   4.744 -0.0070  0.8663 -0.6482
  357THF    H10 6078   4.316   5.207   4.879 -1.0530 -2.8785  0.5071
  357THF    H11 6079   4.140   5.235   4.878 -0.5476 -0.0178  0.9807
  357THF    H12 6080   4.114   5.136   4.693  0.6997 -0.7313  2.0386
  357THF    H13 6081   4.280   5.085   4.673 -0.4105 -0.5865 -0.4297
  358THF     O1 6082   1.448   4.443   1.354  0.6768 -0.2458  0.2678
  358THF     C2 6083   1.429   4.510   1.479 -0.0016 -0.2600  0.2322
  358THF     C3 6084   1.514   4.325   1.383 -0.3867 -0.9401  0.3837
  358THF     H4 6085   1.337   4.568   1.473 -1.5243 -1.6396 -0.5754
  358THF     H5 6086   1.516   4.575   1.485  0.9181  0.5867  1.8845
  358THF     H6 6087   1.495   4.262   1.296 -1.0955  0.0524 -2.3481
  358THF     H7 6088   1.625   4.322   1.400 -1.0172  2.9744 -0.5700
  358THF     C8 6089   1.431   4.284   1.508 -0.0319  0.1356 -0.0085
  358THF     C9 6090   1.430   4.409   1.595  0.3087 -0.3169  0.5643
  358THF    H10 6091   1.472   4.193   1.557 -2.4232 -1.6339  2.5444
  358THF    H11 6092   1.335   4.259   1.462  2.1872  1.0694 -1.9472
  358THF    H12 6093   1.346   4.427   1.663  1.1970  1.1190 -3.7494
  358THF    H13 6094   1.521   4.408   1.654 -0.9868 -1.6209  1.2524
  359THF     O1 6095   4.885   0.844   5.236 -0.5452 -0.1782 -0.8032
  359THF     C2 6096   5.002   0.843   5.327 -0.0183  0.5099 -0.6625
  359THF     C3 6097   4.782   0.912   5.313  0.7917  0.8382 -0.2939
  359THF     H4 6098   5.060   0.930   5.341  3.1229  0.0986  4.3000
  359THF     H5 6099   5.071   0.769   5.289  1.2560 -0.6250 -1.7341
  359THF     H6 6100   4.797   1.023   5.296 -0.4081  2.8732 -1.7554
  359THF     H7 6101   4.682   0.882   5.293 -1.0062 -1.3457  1.5342
  359THF     C8 6102   4.810   0.882   5.462  0.2153  0.1440  0.2436
  359THF     C9 6103   4.941   0.797   5.457  0.2345 -0.0409  0.7974
  359THF    H10 6104   4.731   0.826   5.506 -2.4567  1.2094 -1.0690
  359THF    H11 6105   4.825   0.968   5.529  0.1433 -1.0452 -1.9320
  359THF    H12 6106   5.003   0.829   5.539 -2.7643 -0.4838  0.1161
  359THF    H13 6107   4.921   0.694   5.465  4.4390  0.6126  1.6844
  360THF     O1 6108   0.570   3.576   3.491 -0.3524 -0.5144 -0.0119
  360THF     C2 6109   0.700   3.570   3.431  0.6083  0.3694  0.4093
  360THF     C3 6110   0.508   3.460   3.456  1.1099 -0.5628  0.0455
  360THF     H4 6111   0.763   3.645   3.479 -0.3708 -3.4117  0.3893
  360THF     H5 6112   0.682   3.584   3.327  0.2253 -0.3990 -1.1624
  360THF     H6 6113   0.429   3.448   3.520  1.3424  2.7661  0.2464
  360THF     H7 6114   0.456   3.460   3.354  0.2040 -2.1544 -2.7895
  360THF     C8 6115   0.607   3.348   3.465  0.6856 -0.4826 -0.1131
  360THF     C9 6116   0.739   3.423   3.452  0.2700  0.1723  0.1864
  360THF    H10 6117   0.578   3.267   3.394 -0.3874  0.2747 -0.5727
  360THF    H11 6118   0.601   3.295   3.559 -1.8916 -1.7236 -1.2761
  360THF    H12 6119   0.807   3.414   3.531 -2.3712  2.3614  0.1194
  360THF    H13 6120   0.793   3.396   3.365  0.7591  2.3420 -0.0358
  361THF     O1 6121   0.849   1.841   1.541  0.6409 -0.6651 -0.0809
  361THF     C2 6122   0.915   1.892   1.421 -0.3834  0.3670  0.7844
  361THF     C3 6123   0.785   1.720   1.515  0.3639  0.8595  0.6925
  361THF     H4 6124   1.017   1.862   1.409 -0.9849  0.5151  0.5957
  361THF     H5 6125   0.905   1.996   1.428  1.7955 -1.2459  1.1219
  361THF     H6 6126   0.866   1.647   1.506  2.8671 -0.2272 -2.4770
  361THF     H7 6127   0.704   1.688   1.586 -1.7189 -1.2608  4.0293
  361THF     C8 6128   0.726   1.741   1.370  0.2368  0.6949  0.2367
  361THF     C9 6129   0.828   1.827   1.306 -0.8264 -0.0950 -0.4247
  361THF    H10 6130   0.636   1.802   1.366  0.3250  0.7168 -1.0535
  361THF    H11 6131   0.706   1.648   1.313  0.1658  1.4132  2.7655
  361THF    H12 6132   0.882   1.758   1.249  0.6645  1.1908  0.4501
  361THF    H13 6133   0.792   1.905   1.242 -0.7008  0.3426  1.6921
  362THF     O1 6134   0.143   4.317   2.251 -0.1399 -0.0135 -0.2591
  362THF     C2 6135   0.096   4.447   2.199 -0.1260  0.3383 -0.0279
  362THF     C3 6136   0.038   4.240   2.314 -0.1668  0.1085  0.2119
  362THF     H4 6137   0.147   4.468   2.105  0.4617 -0.3074 -2.2857
  362THF     H5 6138   0.124   4.535   2.265 -2.3298 -3.3501  1.5447
  362THF     H6 6139   0.071   4.138   2.301 -0.6328  0.5171 -0.1297
  362THF     H7 6140   0.020   4.263   2.426 -0.0227  0.3821  1.6604
  362THF     C8 6141  -0.078   4.277   2.220 -0.0370  0.2032  0.0281
  362THF     C9 6142  -0.057   4.432   2.200 -0.7867  0.6010  0.2264
  362THF    H10 6143  -0.178   4.268   2.253  0.9055  2.1888  0.7593
  362THF    H11 6144  -0.074   4.233   2.118 -2.9562  1.4967  0.4606
  362THF    H12 6145  -0.112   4.475   2.113 -1.5760  3.8971  0.2107
  362THF    H13 6146  -0.101   4.467   2.295 -1.8254  0.4684 -1.1061
  363THF     O1 6147   1.144   4.728   3.518  0.2033  0.0215 -0.3001
  363THF     C2 6148   1.069   4.824   3.589 -0.0608  0.0937  0.2190
  363THF     C3 6149   1.108   4.741   3.380  0.4614  0.0069  0.0727
  363THF     H4 6150   1.115   4.851   3.681 -2.5746 -1.4358  2.1019
  363THF     H5 6151   0.971   4.794   3.627  2.7678 -0.5092  0.7846
  363THF     H6 6152   1.168   4.698   3.305  3.8445  1.0907  1.3493
  363THF     H7 6153   1.010   4.712   3.364  1.1256  3.0198  1.5272
  363THF     C8 6154   1.105   4.899   3.367 -0.8253  0.1165 -0.7041
  363THF     C9 6155   1.056   4.947   3.500 -0.7248 -0.6566 -0.0131
  363THF    H10 6156   1.048   4.926   3.281  1.0223 -0.5862 -3.3580
  363THF    H11 6157   1.211   4.934   3.360 -0.8926  1.7020  2.3487
  363THF    H12 6158   1.106   5.027   3.545  2.1732 -2.8813  2.3153
  363THF    H13 6159   0.948   4.972   3.475 -0.9754  0.6476 -2.1563
  364THF     O1 6160   3.427   3.874   2.383 -0.4889 -0.4417  0.4491
  364THF     C2 6161   3.385   3.888   2.247 -0.8118  0.7948  0.3975
  364THF     C3 6162   3.349   3.953   2.461  0.1332 -0.3433 -0.4579
  364THF     H4 6163   3.348   3.791   2.211  0.2151 -0.8900 -0.4900
  364THF     H5 6164   3.477   3.923   2.207 -0.2015 -0.4792  3.4866
  364THF     H6 6165   3.261   3.892   2.488  0.6332  0.0788 -1.7762
  364THF     H7 6166   3.407   3.993   2.549  0.5307 -0.6227  0.6676
  364THF     C8 6167   3.298   4.064   2.366  0.2523  0.3756 -0.6901
  364THF     C9 6168   3.276   3.989   2.236  0.3302  0.2194  0.5695
  364THF    H10 6169   3.364   4.145   2.346 -0.6966 -1.4901 -0.0660
  364THF    H11 6170   3.199   4.111   2.402 -0.2989  0.3639 -1.8993
  364THF    H12 6171   3.182   3.935   2.239  1.2508  0.9643 -2.4341
  364THF    H13 6172   3.283   4.046   2.143  2.8519 -0.0963  0.4129
  365THF     O1 6173   0.009   2.478   2.975 -0.7141 -0.5756  0.2467
  365THF     C2 6174   0.143   2.439   2.948 -0.1496  0.6215  0.0633
  365THF     C3 6175  -0.057   2.352   2.986  0.1250  0.7887  0.9813
  365THF     H4 6176   0.215   2.513   2.979  0.0199 -2.9197  0.2103
  365THF     H5 6177   0.162   2.407   2.845 -2.0758 -0.4595 -1.2078
  365THF     H6 6178  -0.149   2.359   3.048 -4.3585  0.9995 -2.8993
  365THF     H7 6179  -0.109   2.325   2.894 -3.2220 -2.2241 -1.3996
  365THF     C8 6180   0.036   2.248   3.039 -0.6907  0.1571  0.7637
  365THF     C9 6181   0.168   2.313   3.034  0.0708  0.3683 -0.1440
  365THF    H10 6182   0.028   2.150   2.978  1.8906 -0.9056 -0.4270
  365THF    H11 6183   0.006   2.221   3.134 -0.1925  1.8302 -0.3981
  365THF    H12 6184   0.178   2.338   3.139  1.6605 -1.8420 -0.2581
  365THF    H13 6185   0.260   2.257   3.009 -0.0925 -0.2408 -1.6918
  366THF     O1 6186   4.102   0.713   1.835 -0.1291  0.0502  0.4552
  366THF     C2 6187   4.039   0.750   1.954 -0.3911 -0.1828 -0.0573
  366THF     C3 6188   4.032   0.774   1.725  0.0228 -0.0240 -0.1269
  366THF     H4 6189   4.113   0.739   2.036 -3.1316 -1.2413 -1.7277
  366THF     H5 6190   3.950   0.688   1.970  0.7084 -1.2201 -0.0543
  366THF     H6 6191   4.094   0.806   1.639 -0.3333  0.2836  0.8065
  366THF     H7 6192   3.961   0.698   1.694 -2.5516  0.3337  0.7547
  366THF     C8 6193   3.954   0.888   1.783 -0.0621 -0.0924 -1.1263
  366THF     C9 6194   3.993   0.893   1.935 -0.1691  0.0209  0.7063
  366THF    H10 6195   3.852   0.859   1.778 -1.7571 -0.5955 -0.9192
  366THF    H11 6196   3.971   0.985   1.740  0.4596 -0.5230 -0.2646
  366THF    H12 6197   4.081   0.958   1.947  1.0715  0.1711 -0.1579
  366THF    H13 6198   3.913   0.920   2.010 -1.2783 -0.7009  0.5695
  367THF     O1 6199   5.315   1.270   1.890  0.3781 -0.2036  0.2393
  367THF     C2 6200   5.185   1.307   1.850  0.5195  0.0892  0.9430
  367THF     C3 6201   5.389   1.392   1.893  0.8712 -0.5136  0.6307
  367THF     H4 6202   5.126   1.329   1.933  1.4500 -1.9386 -0.0807
  367THF     H5 6203   5.140   1.227   1.797  1.2433  0.7562 -0.0105
  367THF     H6 6204   5.384   1.438   1.996 -3.0201 -0.3990  0.1196
  367THF     H7 6205   5.493   1.375   1.870 -1.9598 -0.0665 -1.3220
  367THF     C8 6206   5.339   1.472   1.773 -0.3916  0.0630  0.6382
  367THF     C9 6207   5.198   1.432   1.768 -0.5266 -0.9779  0.1787
  367THF    H10 6208   5.393   1.445   1.685  1.6343 -1.3206 -2.7100
  367THF    H11 6209   5.347   1.580   1.795 -1.7426  2.2325 -2.6213
  367THF    H12 6210   5.143   1.509   1.819  1.6598 -0.6736  2.3782
  367THF    H13 6211   5.163   1.411   1.669  0.9319  0.1687  1.6442
  368THF     O1 6212   1.005   1.341   0.480 -0.2119 -0.0808 -0.0085
  368THF     C2 6213   1.057   1.401   0.355  0.0755  0.0078 -0.4533
  368THF     C3 6214   1.020   1.434   0.588 -0.1667  0.0795  0.4498
  368THF     H4 6215   1.007   1.359   0.274 -1.7690  1.5776  1.8996
  368THF     H5 6216   1.167   1.386   0.354  1.2485  1.1071  1.8259
  368THF     H6 6217   0.960   1.415   0.674  0.2644  0.1007 -2.9042
  368THF     H7 6218   1.130   1.446   0.606  0.0197  1.5206 -2.2368
  368THF     C8 6219   0.981   1.563   0.508 -0.4243 -0.0822 -0.6791
  368THF     C9 6220   1.019   1.547   0.363  0.4174 -0.7238 -0.0290
  368THF    H10 6221   1.030   1.646   0.550  0.2244 -1.3180 -0.4660
  368THF    H11 6222   0.876   1.586   0.513 -0.7158 -1.4220 -1.0072
  368THF    H12 6223   0.935   1.586   0.315 -2.1066  0.3592  3.0430
  368THF    H13 6224   1.104   1.605   0.330  0.9948 -2.9246  1.4170
  369THF     O1 6225   3.359   0.659   3.197  0.6095  0.1364 -0.1099
  369THF     C2 6226   3.320   0.699   3.326  0.5778  0.2485 -0.5442
  369THF     C3 6227   3.394   0.772   3.126  0.2768 -0.9639  0.2599
  369THF     H4 6228   3.343   0.622   3.402  1.5562 -2.5513  0.2938
  369THF     H5 6229   3.207   0.719   3.326 -0.0504 -0.7855  0.0401
  369THF     H6 6230   3.448   0.742   3.037 -1.1661 -2.6250 -0.0455
  369THF     H7 6231   3.292   0.814   3.089 -0.4508 -1.5211  1.6832
  369THF     C8 6232   3.462   0.861   3.220 -0.0108 -0.8345  0.6067
  369THF     C9 6233   3.386   0.838   3.347 -0.0983 -0.1658 -0.0704
  369THF    H10 6234   3.453   0.965   3.178 -0.1600 -1.7278  0.3089
  369THF    H11 6235   3.571   0.830   3.232  0.8222 -1.6666 -1.0209
  369THF    H12 6236   3.444   0.854   3.431 -1.6462  3.9230 -1.7723
  369THF    H13 6237   3.311   0.919   3.354  0.3184  0.4040  0.2256
  370THF     O1 6238   0.287   3.652   5.379 -0.0881  0.2732 -0.1353
  370THF     C2 6239   0.163   3.689   5.418  0.3559  0.4035 -0.4871
  370THF     C3 6240   0.321   3.538   5.448 -0.8593  0.5161  0.0087
  370THF     H4 6241   0.096   3.609   5.385 -0.8332 -1.5219 -1.4529
  370THF     H5 6242   0.137   3.784   5.370  3.2929 -1.1723  1.1776
  370THF     H6 6243   0.259   3.459   5.401 -2.8970 -0.3766  0.2454
  370THF     H7 6244   0.425   3.502   5.435 -0.1682 -0.9272 -1.0664
  370THF     C8 6245   0.276   3.569   5.590 -0.2955 -0.2959  0.5316
  370THF     C9 6246   0.169   3.680   5.566 -0.7524  0.3230 -0.2694
  370THF    H10 6247   0.354   3.605   5.648  2.6641  0.6922 -0.5519
  370THF    H11 6248   0.235   3.478   5.632  0.5498 -0.9071 -1.0827
  370THF    H12 6249   0.072   3.652   5.613 -1.3629  0.7143 -2.2570
  370THF    H13 6250   0.197   3.778   5.611 -0.8042  3.9386 -0.3300
  371THF     O1 6251   3.304   1.401   2.135 -0.2255  0.5479 -0.4603
  371THF     C2 6252   3.346   1.512   2.057 -0.0571  1.1286  0.6544
  371THF     C3 6253   3.350   1.402   2.270 -0.4837 -0.1905  0.3851
  371THF     H4 6254   3.273   1.530   1.976  3.0599 -1.9827 -0.9751
  371THF     H5 6255   3.436   1.496   2.001  0.8078 -1.0092 -1.3726
  371THF     H6 6256   3.261   1.402   2.333 -0.7570  0.1780  1.5110
  371THF     H7 6257   3.416   1.322   2.292  0.2715 -1.9544  1.0108
  371THF     C8 6258   3.421   1.532   2.273  0.0661 -0.6615  0.3100
  371THF     C9 6259   3.358   1.619   2.163  0.0714 -0.2603 -0.4958
  371THF    H10 6260   3.528   1.520   2.259 -0.4081  3.0792  0.4218
  371THF    H11 6261   3.415   1.575   2.377 -1.1621 -0.1902 -1.2673
  371THF    H12 6262   3.259   1.646   2.188  2.9145  3.0833  1.9768
  371THF    H13 6263   3.420   1.701   2.125 -0.9153  0.5624  0.4330
  372THF     O1 6264   1.695   2.441   0.375  0.1313 -0.0914  0.2232
  372THF     C2 6265   1.729   2.302   0.378  0.0104 -0.3852  0.2396
  372THF     C3 6266   1.814   2.521   0.369 -0.5829 -0.4967 -0.8341
  372THF     H4 6267   1.651   2.229   0.357 -1.3764  1.0824  0.2299
  372THF     H5 6268   1.749   2.277   0.481  0.6095 -0.2737  1.8726
  372THF     H6 6269   1.786   2.625   0.341 -1.8244  3.3737  0.2811
  372THF     H7 6270   1.863   2.536   0.463 -1.4377 -2.6718 -1.3247
  372THF     C8 6271   1.896   2.436   0.263 -0.2273  0.6430 -0.2010
  372THF     C9 6272   1.851   2.292   0.285 -0.2419 -0.4038 -0.0630
  372THF    H10 6273   2.007   2.454   0.282  2.2577  4.5806  1.1431
  372THF    H11 6274   1.882   2.465   0.157  3.3216  2.0446 -0.6177
  372THF    H12 6275   1.817   2.259   0.186  2.0673  2.9870 -1.0986
  372THF    H13 6276   1.926   2.226   0.322 -2.2000 -1.9709  0.2762
  373THF     O1 6277   2.506   2.857   0.852  0.4976 -0.1488  0.0732
  373THF     C2 6278   2.389   2.884   0.926 -0.5897  0.2896 -0.0401
  373THF     C3 6279   2.545   2.729   0.901  0.2784 -0.4808 -0.1488
  373THF     H4 6280   2.340   2.960   0.867  0.5520  0.9431  0.4701
  373THF     H5 6281   2.420   2.922   1.024 -0.0555  2.0999  0.9697
  373THF     H6 6282   2.607   2.681   0.823  3.2843  0.5636 -1.5051
  373THF     H7 6283   2.608   2.738   0.990 -0.0054  0.7426 -0.7701
  373THF     C8 6284   2.419   2.650   0.934 -0.6635 -0.6719 -0.7570
  373THF     C9 6285   2.310   2.756   0.944 -0.0420  0.5067  0.4494
  373THF    H10 6286   2.428   2.602   1.032  0.3859 -1.6253  1.1035
  373THF    H11 6287   2.396   2.582   0.850 -0.3053 -0.9773 -0.0678
  373THF    H12 6288   2.234   2.735   0.866  0.2664  2.4439  0.9288
  373THF    H13 6289   2.266   2.764   1.039 -2.1661 -0.4058 -0.8500
  374THF     O1 6290   1.444   4.328   0.772  0.2070  0.1717 -0.1293
  374THF     C2 6291   1.529   4.317   0.884 -0.7420  0.2603  0.2470
  374THF     C3 6292   1.326   4.390   0.820  0.1591 -0.2485 -0.5273
  374THF     H4 6293   1.579   4.413   0.909  3.6959 -0.0489  0.7565
  374THF     H5 6294   1.604   4.237   0.866  0.3989 -0.6631 -0.3140
  374THF     H6 6295   1.337   4.493   0.835  0.6098  1.0620 -1.0994
  374THF     H7 6296   1.243   4.393   0.752  0.3292  0.4587 -2.2888
  374THF     C8 6297   1.295   4.321   0.951  0.1871 -0.4065 -0.1621
  374THF     C9 6298   1.432   4.278   1.003 -0.6494  0.1489 -0.7331
  374THF    H10 6299   1.230   4.230   0.934 -1.5937 -1.8999 -1.1723
  374THF    H11 6300   1.242   4.382   1.020 -1.6170  1.1708 -1.8656
  374THF    H12 6301   1.445   4.328   1.093 -1.6442 -0.1588 -0.7465
  374THF    H13 6302   1.438   4.176   1.029  2.4243  0.4575 -1.5450
  375THF     O1 6303   4.362   3.645   0.474  0.1524  0.1476  0.2842
  375THF     C2 6304   4.415   3.609   0.347 -0.5265  0.4592 -0.3645
  375THF     C3 6305   4.431   3.747   0.531 -0.5650 -0.1765 -0.1020
  375THF     H4 6306   4.388   3.686   0.274  0.0909 -1.5370 -1.3276
  375THF     H5 6307   4.393   3.503   0.317  0.5796 -2.8658  1.8493
  375THF     H6 6308   4.378   3.847   0.507 -3.4298 -1.6142 -0.6850
  375THF     H7 6309   4.433   3.739   0.638  0.2812 -0.0987 -2.3943
  375THF     C8 6310   4.567   3.750   0.458 -0.5777 -0.2390 -0.7025
  375THF     C9 6311   4.559   3.625   0.374  0.0774 -0.2907 -0.3431
  375THF    H10 6312   4.647   3.739   0.526  0.4763  1.0151  1.2623
  375THF    H11 6313   4.594   3.830   0.389 -1.6765 -0.7653 -1.4830
  375THF    H12 6314   4.613   3.648   0.279 -1.7324  2.2775 -0.2043
  375THF    H13 6315   4.612   3.537   0.427 -1.6026 -1.4565 -0.4917
  376THF     O1 6316   5.355   3.928   0.044 -0.4867 -0.2566 -0.4065
  376THF     C2 6317   5.437   4.046   0.034 -0.3677  0.4642  0.4799
  376THF     C3 6318   5.339   3.880   0.174 -0.2671  0.0934  0.6005
  376THF     H4 6319   5.384   4.130  -0.022  1.1195 -1.5048 -0.3570
  376THF     H5 6320   5.518   4.021  -0.033  2.1984 -3.9578  3.7514
  376THF     H6 6321   5.235   3.904   0.194  1.3285  1.6823 -2.0547
  376THF     H7 6322   5.354   3.769   0.175 -0.1478 -2.2643 -0.8207
  376THF     C8 6323   5.436   3.953   0.260 -1.0716  0.8786 -0.1454
  376THF     C9 6324   5.459   4.080   0.181  0.3733 -0.5841  0.6423
  376THF    H10 6325   5.528   3.894   0.269  0.9835  2.4276 -0.2041
  376THF    H11 6326   5.384   3.959   0.356  1.0247  2.6963  1.1287
  376THF    H12 6327   5.385   4.155   0.212 -1.3630  1.5049  2.0076
  376THF    H13 6328   5.559   4.111   0.209  0.2097  1.7052  1.9100
  377THF     O1 6329   5.023   0.283   2.073 -0.1472 -0.4351 -0.0800
  377THF     C2 6330   5.058   0.300   2.212  0.5809  0.5590 -0.0852
  377THF     C3 6331   4.914   0.361   2.038  0.3981 -0.8633 -0.4954
  377THF     H4 6332   5.158   0.253   2.214 -2.7870  0.0914 -0.2555
  377THF     H5 6333   4.980   0.246   2.270  2.3314  1.2749 -1.4711
  377THF     H6 6334   4.915   0.395   1.933  1.8475  0.2592  0.5825
  377THF     H7 6335   4.820   0.312   2.066  1.0972  0.8152 -0.2442
  377THF     C8 6336   4.936   0.481   2.135  0.1367 -0.4731  0.8567
  377THF     C9 6337   5.055   0.448   2.225  0.3904  0.2129  0.5334
  377THF    H10 6338   4.851   0.513   2.192 -1.1461  0.5353 -0.0982
  377THF    H11 6339   4.958   0.576   2.072 -0.4795  0.1758 -3.2579
  377THF    H12 6340   5.145   0.490   2.181  1.6200 -0.8639 -0.9255
  377THF    H13 6341   5.055   0.486   2.325  1.0391  0.7770  1.7511
  378THF     O1 6342   4.955   4.866   2.764  0.5670  0.0046  0.1810
  378THF     C2 6343   4.901   4.976   2.843 -0.0622  0.7211 -0.3377
  378THF     C3 6344   4.995   4.916   2.635  0.6507  0.6316  0.1745
  378THF     H4 6345   4.963   4.980   2.931  1.9596  0.0762 -1.3033
  378THF     H5 6346   4.795   4.957   2.874 -2.0600 -0.3076 -0.1940
  378THF     H6 6347   5.066   4.851   2.592 -1.9909  0.9293 -2.8783
  378THF     H7 6348   4.912   4.916   2.569 -0.4168  0.5249  1.0925
  378THF     C8 6349   5.038   5.057   2.664  0.6900 -0.3705 -0.2700
  378THF     C9 6350   4.926   5.102   2.755  0.7742  0.0431  0.1750
  378THF    H10 6351   5.045   5.121   2.573 -0.2666  0.0782 -1.8577
  378THF    H11 6352   5.132   5.051   2.714 -0.9349  1.1108  0.5526
  378THF    H12 6353   4.956   5.186   2.817  0.3278 -0.8798  0.4424
  378THF    H13 6354   4.835   5.126   2.703  0.3507 -1.8912  1.9605
  379THF     O1 6355   3.990   2.197   0.558  0.3939 -0.3295  0.5372
  379THF     C2 6356   3.995   2.075   0.476 -0.1311 -0.2722  0.3166
  379THF     C3 6357   4.075   2.167   0.672  0.1213  0.5464 -0.4475
  379THF     H4 6358   4.073   2.070   0.393 -0.2162  0.0638 -3.0698
  379THF     H5 6359   3.901   2.085   0.430 -1.4499 -0.5582 -2.9986
  379THF     H6 6360   4.171   2.172   0.631 -0.3230 -1.5574 -0.6385
  379THF     H7 6361   4.055   2.236   0.756  0.2764 -2.1318 -0.0662
  379THF     C8 6362   4.030   2.026   0.710  0.0980  0.1513  0.8148
  379THF     C9 6363   3.992   1.958   0.574 -1.0076  0.4903 -0.1547
  379THF    H10 6364   3.948   2.034   0.777  0.7004 -0.2930  0.9751
  379THF    H11 6365   4.109   1.973   0.765  2.3402  1.4675  0.3141
  379THF    H12 6366   4.055   1.882   0.533  0.7102 -1.1112 -0.2501
  379THF    H13 6367   3.890   1.922   0.582 -0.7873 -1.7120 -2.2296
  380THF     O1 6368   1.045   1.479   3.644  0.2753 -0.5588 -0.2752
  380THF     C2 6369   0.905   1.464   3.671 -0.1144  0.2209  0.5726
  380THF     C3 6370   1.119   1.460   3.760  0.0773  0.2129  0.2502
  380THF     H4 6371   0.881   1.363   3.668 -1.1406 -0.6642 -2.2108
  380THF     H5 6372   0.852   1.520   3.593  1.0126 -2.3341 -1.7677
  380THF     H6 6373   1.112   1.354   3.798 -0.3572  1.7917  0.9480
  380THF     H7 6374   1.216   1.500   3.761 -1.7916  2.8665 -0.4064
  380THF     C8 6375   1.043   1.538   3.874 -0.5939 -0.5272  0.3496
  380THF     C9 6376   0.899   1.534   3.810  0.0925 -0.1517  0.4932
  380THF    H10 6377   1.074   1.640   3.861 -0.6075  0.4838  0.0433
  380THF    H11 6378   1.057   1.492   3.974 -3.0737 -0.3224  0.3444
  380THF    H12 6379   0.823   1.484   3.870 -1.3840 -2.4901  2.9697
  380THF    H13 6380   0.869   1.634   3.792  1.3999 -3.1031 -1.5004
  381THF     O1 6381   5.405   1.158   4.744 -0.1142  0.4840 -0.7583
  381THF     C2 6382   5.293   1.077   4.782 -0.2910  0.5455  0.0212
  381THF     C3 6383   5.474   1.097   4.631 -0.4360 -0.4049  0.3214
  381THF     H4 6384   5.197   1.115   4.739  0.4491  0.4194  0.8246
  381THF     H5 6385   5.285   1.096   4.890 -1.6418 -0.7596 -1.2325
  381THF     H6 6386   5.409   1.108   4.540 -1.1155  0.6542 -2.2583
  381THF     H7 6387   5.574   1.145   4.629  0.4139 -2.6633 -0.9579
  381THF     C8 6388   5.473   0.956   4.691 -0.2787  0.1139  0.0651
  381THF     C9 6389   5.333   0.939   4.746 -0.5662  0.3027 -0.4194
  381THF    H10 6390   5.548   0.961   4.769 -1.9829  1.6030 -0.6785
  381THF    H11 6391   5.496   0.878   4.619  1.6376  1.7595  1.9588
  381THF    H12 6392   5.266   0.892   4.670 -1.1145  0.7933 -1.6269
  381THF    H13 6393   5.330   0.871   4.833  0.7749 -1.9287 -1.3472
  382THF     O1 6394   1.535   3.783   0.667  0.0378  0.3246 -0.2633
  382THF     C2 6395   1.628   3.701   0.746 -0.1124  0.1921  0.9376
  382THF     C3 6396   1.454   3.858   0.758 -0.3491 -0.0734  0.4426
  382THF     H4 6397   1.714   3.754   0.781  2.4020  1.1625 -0.7269
  382THF     H5 6398   1.670   3.619   0.692  1.0891  0.8658  1.2278
  382THF     H6 6399   1.505   3.942   0.805 -0.1704 -0.1878  0.2065
  382THF     H7 6400   1.361   3.878   0.713  0.3412 -0.3453 -0.4163
  382THF     C8 6401   1.433   3.759   0.875  0.0269  0.4345  0.6853
  382THF     C9 6402   1.543   3.654   0.866  0.3804 -0.3439  0.6218
  382THF    H10 6403   1.340   3.713   0.859  1.0664  1.3364  0.4371
  382THF    H11 6404   1.433   3.797   0.976 -3.6966 -2.3931 -1.0116
  382THF    H12 6405   1.600   3.647   0.957  0.9071  3.2242  1.1213
  382THF    H13 6406   1.508   3.552   0.857  1.8727 -0.5466 -1.8613
  383THF     O1 6407   2.120   1.229   1.169  0.3884 -0.0794 -0.2885
  383THF     C2 6408   2.191   1.350   1.188 -0.9876  0.1835 -0.0792
  383THF     C3 6409   2.002   1.259   1.097 -0.6741 -0.0923  0.0702
  383THF     H4 6410   2.296   1.331   1.220  1.4260 -0.9673 -0.1105
  383THF     H5 6411   2.141   1.399   1.270 -2.3348  0.6450  0.3173
  383THF     H6 6412   1.945   1.183   1.053 -0.0806 -2.2252  1.2288
  383THF     H7 6413   1.934   1.298   1.173  0.4820 -2.9526  1.6802
  383THF     C8 6414   2.054   1.365   0.994 -0.2666  1.2314 -1.0051
  383THF     C9 6415   2.189   1.414   1.051 -1.0201 -0.0828 -0.0266
  383THF    H10 6416   1.992   1.450   0.993  0.6892  0.7464 -1.3336
  383THF    H11 6417   2.060   1.323   0.893  0.4109  1.1520  0.9779
  383THF    H12 6418   2.272   1.382   0.994 -1.3073  0.1402 -3.1106
  383THF    H13 6419   2.199   1.522   1.055 -0.9286  0.5619 -0.6732
  384THF     O1 6420   4.670   2.396   0.818  0.2809 -0.2558 -0.1660
  384THF     C2 6421   4.781   2.410   0.733 -0.0612 -0.5933 -0.1817
  384THF     C3 6422   4.552   2.410   0.739 -0.4330 -0.2900 -0.4082
  384THF     H4 6423   4.800   2.313   0.694  0.0256  2.1387 -0.2522
  384THF     H5 6424   4.875   2.444   0.775 -0.9752 -0.9570 -1.0060
  384THF     H6 6425   4.522   2.311   0.703 -0.0974 -1.5699 -1.3002
  384THF     H7 6426   4.465   2.449   0.799 -0.6331  3.3094 -0.3666
  384THF     C8 6427   4.577   2.505   0.623  0.1593  0.2039  0.2190
  384THF     C9 6428   4.731   2.506   0.622 -0.6039  0.6171  0.3048
  384THF    H10 6429   4.537   2.605   0.635 -2.4941  3.4575 -0.6578
  384THF    H11 6430   4.535   2.447   0.538 -2.0739 -2.3180  1.0575
  384THF    H12 6431   4.777   2.473   0.533  0.7442  2.3516  0.3001
  384THF    H13 6432   4.771   2.605   0.633 -1.3761 -0.1205  2.5402
  385THF     O1 6433   0.482   4.027   0.661  0.3631  0.2746 -0.9851
  385THF     C2 6434   0.464   3.964   0.783  0.6599  0.0645  0.1247
  385THF     C3 6435   0.485   3.911   0.571  0.2206  0.3198 -0.4983
  385THF     H4 6436   0.426   4.035   0.860 -0.9514  1.8507 -2.8720
  385THF     H5 6437   0.563   3.930   0.822  1.5154  0.5636  0.7450
  385THF     H6 6438   0.473   3.942   0.471 -1.2289 -2.6074  0.9597
  385THF     H7 6439   0.577   3.847   0.573 -3.3838 -0.0023  0.7151
  385THF     C8 6440   0.367   3.822   0.619  0.3001  0.2070 -0.5512
  385THF     C9 6441   0.360   3.857   0.763 -0.3078 -0.2337 -0.2875
  385THF    H10 6442   0.396   3.720   0.614 -1.4977  2.8350  2.1513
  385THF    H11 6443   0.271   3.831   0.566 -0.0726 -2.3893 -2.7695
  385THF    H12 6444   0.257   3.888   0.782 -2.3242 -3.0698 -1.0651
  385THF    H13 6445   0.386   3.769   0.828  1.3106 -0.4735  0.3280
  386THF     O1 6446   2.734   3.113   3.582  0.1919  0.3963 -0.0180
  386THF     C2 6447   2.682   3.093   3.712  0.4978 -0.0769  0.9440
  386THF     C3 6448   2.764   3.251   3.569 -0.6983  0.1015  0.6359
  386THF     H4 6449   2.715   3.001   3.769 -2.4453 -1.8071  2.1051
  386THF     H5 6450   2.576   3.075   3.699  0.7244  1.4919  0.3381
  386THF     H6 6451   2.837   3.272   3.485 -2.0998 -0.8053 -0.1052
  386THF     H7 6452   2.681   3.307   3.533 -0.2252  2.0643 -1.2422
  386THF     C8 6453   2.809   3.292   3.702 -0.3200  0.3095 -0.1562
  386THF     C9 6454   2.709   3.231   3.794  0.0427 -0.7253  0.1849
  386THF    H10 6455   2.820   3.400   3.696 -0.2911  2.1946 -0.1070
  386THF    H11 6456   2.905   3.235   3.722 -0.2116 -0.9980 -0.6542
  386THF    H12 6457   2.750   3.221   3.893 -1.3216 -0.1674  1.4300
  386THF    H13 6458   2.611   3.280   3.800 -0.5383 -0.8959 -1.0454
  387THF     O1 6459   3.029   4.520   3.652 -0.1860 -0.3114 -0.3210
  387THF     C2 6460   3.028   4.398   3.717 -0.5459  0.2080 -0.4150
  387THF     C3 6461   3.144   4.529   3.565  0.3949 -0.2165 -0.2456
  387THF     H4 6462   2.929   4.381   3.747 -0.0700  0.1193  1.8896
  387THF     H5 6463   3.091   4.393   3.803  2.8262 -0.8011  1.7601
  387THF     H6 6464   3.125   4.592   3.481  0.2229 -3.0894  1.2564
  387THF     H7 6465   3.217   4.576   3.627 -1.8614  0.3267 -0.7912
  387THF     C8 6466   3.183   4.390   3.534 -0.7262 -0.1411  0.0092
  387THF     C9 6467   3.071   4.316   3.594  0.5415  0.2176  0.7403
  387THF    H10 6468   3.273   4.371   3.587 -1.8200  0.3690 -1.3890
  387THF    H11 6469   3.191   4.370   3.420  0.3257 -1.0215 -2.2477
  387THF    H12 6470   3.005   4.295   3.513  0.0681 -1.3199 -1.0022
  387THF    H13 6471   3.101   4.218   3.625  2.1568  0.8651 -0.1472
  388THF     O1 6472   1.481   0.818   1.537 -0.2206  1.0083 -0.0976
  388THF     C2 6473   1.561   0.917   1.606 -0.0192 -0.5337 -0.0336
  388THF     C3 6474   1.412   0.741   1.629 -0.4295 -0.6451 -0.7050
  388THF     H4 6475   1.513   1.011   1.608 -2.0532 -1.5897  0.5107
  388THF     H5 6476   1.641   0.929   1.536 -1.2347  1.9737  0.0614
  388THF     H6 6477   1.324   0.794   1.671 -0.9390 -0.9986 -0.1759
  388THF     H7 6478   1.396   0.638   1.600  0.2061  1.3580 -1.7062
  388THF     C8 6479   1.520   0.723   1.729  0.0908 -0.0943  0.1176
  388THF     C9 6480   1.597   0.851   1.734 -0.3778 -0.3777 -0.3070
  388THF    H10 6481   1.595   0.643   1.695  1.4945 -1.4581 -2.7735
  388THF    H11 6482   1.476   0.693   1.832  0.4939 -1.6863  0.8964
  388THF    H12 6483   1.562   0.908   1.827 -1.0285  1.3630  2.5207
  388THF    H13 6484   1.706   0.848   1.743  0.8771 -0.3224 -0.2179
  389THF     O1 6485   1.028   3.663   4.267 -0.1738 -0.3375  0.3597
  389THF     C2 6486   0.977   3.797   4.283  0.2099  0.2715  0.1480
  389THF     C3 6487   1.059   3.603   4.397  0.6783  0.0480 -0.0840
  389THF     H4 6488   0.903   3.819   4.204 -1.8398 -3.3374 -0.5175
  389THF     H5 6489   1.064   3.869   4.288  2.2108  0.1012 -1.8253
  389THF     H6 6490   1.045   3.492   4.389  0.4624  0.8020 -3.3156
  389THF     H7 6491   1.157   3.616   4.443  1.0171  0.5540  2.7856
  389THF     C8 6492   0.965   3.674   4.489  0.1721  0.6348  0.0940
  389THF     C9 6493   0.916   3.791   4.420  0.1689 -0.0207  0.9979
  389THF    H10 6494   1.002   3.695   4.584 -0.5816  1.5993 -1.5770
  389THF    H11 6495   0.875   3.610   4.497 -2.7697 -0.0583  0.4924
  389THF    H12 6496   0.806   3.809   4.413  0.8027  2.6229  0.5179
  389THF    H13 6497   0.951   3.876   4.479  0.4919  1.9071  0.1326
  390THF     O1 6498   2.674   2.421   0.411 -0.4903  0.1803  0.0548
  390THF     C2 6499   2.693   2.367   0.541  0.2404 -0.3528 -0.3739
  390THF     C3 6500   2.556   2.497   0.419 -0.2607 -0.6096  0.1371
  390THF     H4 6501   2.797   2.349   0.552 -1.2945  0.2350 -1.1810
  390THF     H5 6502   2.628   2.279   0.553 -0.9185  0.2748 -2.2765
  390THF     H6 6503   2.545   2.574   0.341 -0.0989  1.0968  0.4614
  390THF     H7 6504   2.462   2.439   0.415  0.0585 -1.2816 -0.8955
  390THF     C8 6505   2.585   2.577   0.547 -0.0477  0.7048 -0.4259
  390THF     C9 6506   2.649   2.475   0.641 -0.0402  0.3094  0.4951
  390THF    H10 6507   2.504   2.617   0.601  0.5051 -0.7687 -0.3635
  390THF    H11 6508   2.650   2.664   0.520  0.2417  2.9245  1.7765
  390THF    H12 6509   2.729   2.515   0.703  3.2868  2.6766  0.2776
  390THF    H13 6510   2.578   2.429   0.711 -2.0382  3.1148  2.2645
  391THF     O1 6511   5.495   0.715   1.406  0.3347  0.8382  0.2040
  391THF     C2 6512   5.619   0.677   1.355  0.4021 -0.1832  0.2559
  391THF     C3 6513   5.397   0.719   1.303 -0.2533  0.9546  0.3143
  391THF     H4 6514   5.642   0.574   1.360 -1.0844 -0.2127  1.6089
  391THF     H5 6515   5.709   0.713   1.402 -0.5001  0.5251  0.0239
  391THF     H6 6516   5.317   0.644   1.311 -0.7223  1.1770 -0.9642
  391THF     H7 6517   5.331   0.806   1.318  0.5953  0.9421  1.0817
  391THF     C8 6518   5.479   0.726   1.171 -0.0458 -0.0357  0.7230
  391THF     C9 6519   5.623   0.724   1.209  0.2687  0.3725  0.2192
  391THF    H10 6520   5.457   0.811   1.106 -2.1436  0.9014 -1.5137
  391THF    H11 6521   5.447   0.642   1.104  0.3929 -1.4350 -2.6770
  391THF    H12 6522   5.680   0.660   1.144  1.9777 -1.6591  2.2994
  391THF    H13 6523   5.657   0.828   1.200 -0.8773  2.9350  0.0614
  392THF     O1 6524   3.506   3.337   0.127 -0.0081 -0.3797  0.1671
  392THF     C2 6525   3.587   3.268   0.226  0.4853 -0.2607 -0.1139
  392THF     C3 6526   3.513   3.265   0.006  0.5666  0.2939  0.8349
  392THF     H4 6527   3.532   3.286   0.314 -1.6590  2.7249 -0.0090
  392THF     H5 6528   3.679   3.321   0.244 -3.0165  0.9026  1.5768
  392THF     H6 6529   3.421   3.282  -0.054  1.4977 -0.1887  1.4193
  392THF     H7 6530   3.605   3.291  -0.039  1.9893  0.0122  0.8100
  392THF     C8 6531   3.516   3.115   0.053 -0.1385  0.2100 -0.4855
  392THF     C9 6532   3.601   3.120   0.185 -0.0962  0.5343 -0.2750
  392THF    H10 6533   3.559   3.059  -0.026  0.1371  1.6070  0.5145
  392THF    H11 6534   3.418   3.076   0.073 -0.6720 -2.8224 -1.8026
  392THF    H12 6535   3.563   3.055   0.267 -1.3437  0.0991  0.6844
  392THF    H13 6536   3.703   3.087   0.169 -0.1520 -0.6933 -1.4828
  393THF     O1 6537   3.729   4.099   1.645  0.9169 -0.0020 -0.0718
  393THF     C2 6538   3.776   4.097   1.512  0.2589  0.7055 -0.1076
  393THF     C3 6539   3.739   4.234   1.694  0.2020 -0.1025  0.7242
  393THF     H4 6540   3.756   4.006   1.449 -0.4449  2.1159  0.9891
  393THF     H5 6541   3.881   4.116   1.504  2.4686 -0.7392 -2.7427
  393THF     H6 6542   3.671   4.239   1.780 -0.3825  3.0876  1.7868
  393THF     H7 6543   3.835   4.270   1.720 -1.1797  0.0315  4.5142
  393THF     C8 6544   3.694   4.309   1.569  1.4626  0.1029  0.5624
  393THF     C9 6545   3.705   4.215   1.450 -0.8592  0.3929  0.1132
  393THF    H10 6546   3.743   4.404   1.559  1.8030  1.2332  0.1351
  393THF    H11 6547   3.589   4.329   1.587 -2.4225 -0.2724 -0.0530
  393THF    H12 6548   3.611   4.189   1.421 -0.0811 -3.2901  0.4222
  393THF    H13 6549   3.754   4.247   1.358  0.3160 -1.6833 -1.7672
  394THF     O1 6550   5.294   4.934   5.276 -0.0181  0.3704 -0.3863
  394THF     C2 6551   5.379   4.896   5.390  0.7089 -0.3754 -0.8451
  394THF     C3 6552   5.291   4.829   5.180  0.0119  0.0984 -0.0668
  394THF     H4 6553   5.324   4.835   5.459  1.3501  0.7559  1.3540
  394THF     H5 6554   5.434   4.975   5.436 -2.2929  0.3428 -1.1124
  394THF     H6 6555   5.194   4.792   5.149  1.0166  0.3857  1.4671
  394THF     H7 6556   5.342   4.878   5.091 -0.8248  0.2637 -0.9914
  394THF     C8 6557   5.389   4.724   5.234 -0.0796 -0.0739 -0.3406
  394THF     C9 6558   5.483   4.805   5.329 -0.2539  0.3652  0.3036
  394THF    H10 6559   5.438   4.667   5.161  1.3531  2.6618  2.4300
  394THF    H11 6560   5.336   4.656   5.299 -0.0462 -1.7978 -2.6304
  394THF    H12 6561   5.544   4.752   5.408  2.0592 -0.4370 -0.0634
  394THF    H13 6562   5.564   4.857   5.271  0.6134  2.5261  0.3848
  395THF     O1 6563   2.152   1.033   4.982 -0.2606 -0.1495  0.4651
  395THF     C2 6564   2.214   1.010   4.854 -0.0180 -0.7094  0.1777
  395THF     C3 6565   2.193   1.161   5.035 -0.8887 -0.8584 -0.0070
  395THF     H4 6566   2.143   0.959   4.784 -0.5733  1.1358  1.7389
  395THF     H5 6567   2.310   0.966   4.858 -0.9828  1.2869  0.8135
  395THF     H6 6568   2.145   1.201   5.127  0.8719 -2.0915  0.6480
  395THF     H7 6569   2.298   1.169   5.065 -0.8138 -2.4958  3.2456
  395THF     C8 6570   2.185   1.239   4.913 -0.2777 -0.1183  0.1624
  395THF     C9 6571   2.245   1.149   4.808  0.0237  0.8952 -0.9774
  395THF    H10 6572   2.233   1.336   4.919  1.0453 -1.8077  0.7000
  395THF    H11 6573   2.077   1.241   4.904  2.8898 -3.0268 -1.6391
  395THF    H12 6574   2.202   1.170   4.708  0.4076 -1.0863 -0.8250
  395THF    H13 6575   2.358   1.155   4.804  1.3783  0.4644  1.0143
  396THF     O1 6576   1.248   2.537   1.359  0.6028  0.7595  0.3404
  396THF     C2 6577   1.278   2.472   1.242  0.1407 -0.7719  0.6595
  396THF     C3 6578   1.133   2.618   1.335 -0.5881 -0.2220  0.0436
  396THF     H4 6579   1.221   2.378   1.232  1.3129 -1.9907 -0.0950
  396THF     H5 6580   1.386   2.445   1.251 -0.2864  0.6560  0.5318
  396THF     H6 6581   1.048   2.557   1.364 -0.8946 -2.2990  0.4126
  396THF     H7 6582   1.146   2.704   1.399 -2.2660 -1.5514  0.3746
  396THF     C8 6583   1.124   2.641   1.182 -0.2310  0.1658  0.0987
  396THF     C9 6584   1.248   2.565   1.129 -0.1631  0.5206  0.3279
  396THF    H10 6585   1.134   2.745   1.159 -1.4213 -1.3457  1.8596
  396THF    H11 6586   1.028   2.598   1.147 -3.3384 -0.1946  1.5503
  396THF    H12 6587   1.228   2.527   1.032  0.2992  3.4087  0.9830
  396THF    H13 6588   1.328   2.640   1.123  0.3756 -2.1125 -1.6416
  397THF     O1 6589   3.871   5.168   4.189  0.3881 -0.0498  0.1923
  397THF     C2 6590   3.905   5.235   4.312  0.4955  0.2210  0.1487
  397THF     C3 6591   3.808   5.249   4.089  0.1317  0.5411 -0.7589
  397THF     H4 6592   4.006   5.279   4.287  0.3301 -1.3788  0.1323
  397THF     H5 6593   3.918   5.167   4.394  0.2130  2.1193 -1.2620
  397THF     H6 6594   3.888   5.282   4.028 -0.5999 -1.4180  0.8811
  397THF     H7 6595   3.740   5.205   4.014 -0.2294 -1.7130  0.1053
  397THF     C8 6596   3.751   5.360   4.171 -0.1673  0.4781  0.0461
  397THF     C9 6597   3.808   5.344   4.312 -0.3230  0.2772 -0.9084
  397THF    H10 6598   3.643   5.368   4.165  2.7673 -0.8485  1.0542
  397THF    H11 6599   3.782   5.443   4.124  0.9451 -2.1218 -0.3022
  397THF    H12 6600   3.853   5.436   4.349 -2.8118 -0.9887  0.5856
  397THF    H13 6601   3.729   5.337   4.388  0.5019 -0.0126 -1.4639
  398THF     O1 6602   4.446   2.765   4.346 -0.0019  0.2800  0.2975
  398THF     C2 6603   4.514   2.695   4.240  0.0008 -0.5065  0.0533
  398THF     C3 6604   4.316   2.714   4.361  0.6119  0.4646  0.1899
  398THF     H4 6605   4.620   2.720   4.246  2.0084 -0.4358  0.0962
  398THF     H5 6606   4.486   2.748   4.148  0.5166  0.0294 -2.9610
  398THF     H6 6607   4.293   2.720   4.466 -1.4763  0.4779 -1.0769
  398THF     H7 6608   4.240   2.770   4.303 -1.6176  0.7123  0.5454
  398THF     C8 6609   4.323   2.567   4.324 -0.1857 -0.6028  0.0850
  398THF     C9 6610   4.459   2.551   4.255 -0.1259  0.5694 -0.1247
  398THF    H10 6611   4.240   2.531   4.259  0.8534  0.8439  0.9554
  398THF    H11 6612   4.327   2.511   4.420 -0.6438 -0.3961  0.8301
  398THF    H12 6613   4.525   2.486   4.315  2.4883  4.5861  1.5145
  398THF    H13 6614   4.451   2.505   4.158 -2.9303  2.0252  0.7506
  399THF     O1 6615   2.418   1.267   0.782 -0.2426  0.1667 -0.2367
  399THF     C2 6616   2.551   1.269   0.732 -0.6802 -0.3677 -0.0561
  399THF     C3 6617   2.393   1.138   0.838 -0.0309  0.0275  1.1072
  399THF     H4 6618   2.583   1.377   0.719  2.0589  1.5847 -0.5099
  399THF     H5 6619   2.559   1.219   0.634 -2.7093  1.0420  1.9830
  399THF     H6 6620   2.316   1.153   0.914  1.0756 -0.6226 -0.6080
  399THF     H7 6621   2.357   1.061   0.762 -0.6466  0.2217 -0.7154
  399THF     C8 6622   2.530   1.093   0.894 -0.0179 -0.3044 -0.1009
  399THF     C9 6623   2.630   1.198   0.838 -0.1466  0.1110 -0.2859
  399THF    H10 6624   2.545   0.989   0.873 -1.1823 -1.4145  2.2601
  399THF    H11 6625   2.522   1.114   1.000  1.7678 -1.9289  3.0057
  399THF    H12 6626   2.663   1.263   0.916 -4.2466 -0.6330 -1.0190
  399THF    H13 6627   2.719   1.142   0.809  0.4641  1.2008  0.9545
  400THF     O1 6628   1.965   0.441   5.383  0.4663  0.2864 -0.5715
  400THF     C2 6629   2.095   0.445   5.335  0.0715  0.0308  0.2261
  400THF     C3 6630   1.904   0.311   5.372  0.2335 -0.5093  0.8128
  400THF     H4 6631   2.159   0.524   5.377  2.3317 -0.5116  0.6752
  400THF     H5 6632   2.102   0.457   5.228  0.1956  2.6358 -0.0497
  400THF     H6 6633   1.840   0.284   5.458 -1.5614 -2.0424  0.0505
  400THF     H7 6634   1.846   0.317   5.280  2.6779  0.9355 -0.2386
  400THF     C8 6635   2.022   0.220   5.366 -0.1475 -0.3786 -0.5712
  400THF     C9 6636   2.143   0.309   5.384  0.7412  0.2844 -0.4009
  400THF    H10 6637   2.021   0.179   5.268 -1.5970  3.5242  0.9451
  400THF    H11 6638   2.017   0.135   5.439  0.2735  0.7306  1.9024
  400THF    H12 6639   2.171   0.318   5.487  0.5982  0.3591 -1.0470
  400THF    H13 6640   2.237   0.282   5.339  0.3770 -1.3124 -0.7699
  401THF     O1 6641   4.913   4.169   3.128  0.3866  0.1659  0.0895
  401THF     C2 6642   5.025   4.230   3.185 -0.1398  0.0244 -0.3177
  401THF     C3 6643   4.913   4.200   2.987  0.7577 -0.1082  0.3245
  401THF     H4 6644   5.051   4.178   3.282  0.8592  1.0834 -0.2445
  401THF     H5 6645   5.000   4.334   3.205  3.2212  0.7264 -0.0873
  401THF     H6 6646   4.850   4.134   2.920 -0.1180  1.8208  1.0717
  401THF     H7 6647   4.883   4.307   2.973 -2.2568 -0.6163  1.1491
  401THF     C8 6648   5.065   4.169   2.959 -0.9598 -0.0183 -0.6238
  401THF     C9 6649   5.137   4.218   3.088 -0.6590  0.7839 -0.8372
  401THF    H10 6650   5.108   4.215   2.871 -1.9619  0.6759  2.6071
  401THF    H11 6651   5.088   4.069   2.941 -0.9647  3.6998  0.7368
  401THF    H12 6652   5.214   4.145   3.120  1.0975 -0.0163  1.9940
  401THF    H13 6653   5.183   4.314   3.072  0.2893  1.8524 -0.6815
  402THF     O1 6654   4.803   3.093   0.778 -0.1993 -0.2990  0.1074
  402THF     C2 6655   4.775   3.051   0.645 -0.6443 -0.7758 -0.9078
  402THF     C3 6656   4.944   3.104   0.781  0.7678 -0.1857 -0.0430
  402THF     H4 6657   4.786   3.138   0.574 -2.2682 -0.7151  1.6926
  402THF     H5 6658   4.675   3.021   0.636  2.4786  1.0524 -1.0363
  402THF     H6 6659   4.973   3.199   0.732 -1.0513  1.4922 -0.8622
  402THF     H7 6660   4.971   3.106   0.889 -0.3740 -1.4331 -0.9007
  402THF     C8 6661   4.985   2.977   0.710  0.0654  0.0517 -0.4203
  402THF     C9 6662   4.872   2.937   0.617  0.1635 -0.9850 -0.6499
  402THF    H10 6663   4.978   2.888   0.774 -1.5071 -0.3410 -1.8081
  402THF    H11 6664   5.089   2.981   0.672 -0.5259 -0.0022  0.5923
  402THF    H12 6665   4.914   2.933   0.518 -1.0324 -0.1560  2.4645
  402THF    H13 6666   4.817   2.854   0.655 -2.4712  0.2170  0.7733
  403THF     O1 6667   5.025   2.613   1.906 -0.1339 -0.1397 -0.0814
  403THF     C2 6668   4.932   2.693   1.967  0.5844 -0.4029  0.4552
  403THF     C3 6669   5.149   2.661   1.941  0.0384 -0.1999  0.3560
  403THF     H4 6670   4.848   2.639   1.993  2.3820  0.4365 -2.9070
  403THF     H5 6671   4.912   2.771   1.899  2.9294 -0.5339  2.0388
  403THF     H6 6672   5.214   2.578   1.928 -0.7429  0.3315 -1.0168
  403THF     H7 6673   5.175   2.747   1.885 -3.3731 -2.7198  0.0760
  403THF     C8 6674   5.131   2.688   2.091 -0.5909  0.4488  0.5840
  403THF     C9 6675   4.997   2.755   2.093 -0.5237 -0.2642  0.4423
  403THF    H10 6676   5.187   2.759   2.145 -1.5790 -1.2611  1.9071
  403THF    H11 6677   5.128   2.601   2.159  1.8515  0.5449  1.2210
  403THF    H12 6678   4.948   2.737   2.189  0.4406  1.0971  0.9267
  403THF    H13 6679   5.008   2.863   2.091  2.4389 -1.4953 -1.1329
  404THF     O1 6680   1.433   1.689   4.108 -0.0456  1.0449  0.1798
  404THF     C2 6681   1.440   1.779   4.210  0.2227  0.3374  0.3700
  404THF     C3 6682   1.424   1.751   3.980  0.2538 -0.2272  0.2110
  404THF     H4 6683   1.543   1.816   4.223 -1.3510 -0.1788  0.3620
  404THF     H5 6684   1.404   1.722   4.293 -0.1663  0.4473 -1.9247
  404THF     H6 6685   1.521   1.796   3.946  1.8956 -1.0241  0.5682
  404THF     H7 6686   1.385   1.694   3.895  2.9093 -0.8921  0.5607
  404THF     C8 6687   1.329   1.858   4.017  0.4456 -1.1257 -0.0769
  404THF     C9 6688   1.345   1.892   4.161 -0.3590 -0.1386  0.0883
  404THF    H10 6689   1.232   1.814   4.001 -0.7641 -0.4270  0.8453
  404THF    H11 6690   1.337   1.942   3.953 -0.1629 -2.4010 -2.0606
  404THF    H12 6691   1.385   1.991   4.186 -0.9353 -2.9872 -0.3843
  404THF    H13 6692   1.249   1.894   4.221  2.5779  0.9685  1.4421
  405THF     O1 6693   2.605   5.101   1.609 -0.3918 -0.0014 -0.0494
  405THF     C2 6694   2.717   5.077   1.520  0.2892 -0.8589 -0.5133
  405THF     C3 6695   2.538   4.978   1.638  0.4137  0.5256 -0.5473
  405THF     H4 6696   2.810   5.086   1.577 -0.4041 -0.2713 -0.0390
  405THF     H5 6697   2.723   5.143   1.427  2.6083 -0.4655 -0.5593
  405THF     H6 6698   2.594   4.938   1.726  0.1314  2.0427  1.6588
  405THF     H7 6699   2.431   5.002   1.652 -0.8879  1.5554  4.3668
  405THF     C8 6700   2.569   4.887   1.520  0.5289 -0.2234  0.2249
  405THF     C9 6701   2.710   4.925   1.476 -0.2512 -0.5331 -0.5927
  405THF    H10 6702   2.493   4.894   1.435  0.3412 -0.7364  0.2238
  405THF    H11 6703   2.570   4.783   1.550  0.9791  0.4920  1.1202
  405THF    H12 6704   2.794   4.862   1.517  1.2434  0.2779  0.1551
  405THF    H13 6705   2.712   4.939   1.370  0.9258  0.5714 -0.9187
  406THF     O1 6706   0.166   3.053   5.109  0.6219 -0.4102  0.2318
  406THF     C2 6707   0.024   3.043   5.100 -0.4376  0.1310  0.4518
  406THF     C3 6708   0.219   2.992   4.998 -0.0960 -0.7863  0.9702
  406THF     H4 6709  -0.016   3.143   5.080 -0.1992  0.2664 -1.7979
  406THF     H5 6710  -0.019   3.007   5.199 -1.4379  1.5012 -2.4095
  406THF     H6 6711   0.240   3.062   4.912  0.3655 -1.3105 -1.9150
  406THF     H7 6712   0.312   2.948   5.027 -1.5626 -1.1218 -3.1203
  406THF     C8 6713   0.129   2.882   4.957 -0.8463  0.6279  0.0606
  406THF     C9 6714  -0.010   2.944   4.982 -0.8489 -0.5112  0.7918
  406THF    H10 6715   0.139   2.795   5.024  1.2920 -0.7094  1.8528
  406THF    H11 6716   0.143   2.845   4.858  1.2817 -0.5059 -0.8628
  406THF    H12 6717  -0.047   2.997   4.894 -0.1868 -1.2040 -2.0388
  406THF    H13 6718  -0.088   2.863   5.019 -2.8136 -0.2829  0.8263
  407THF     O1 6719   1.800   4.353   3.462  0.1285  0.2537  0.2068
  407THF     C2 6720   1.821   4.214   3.463 -0.1564 -0.3719  0.2609
  407THF     C3 6721   1.764   4.387   3.330  0.9934 -0.3301  0.2125
  407THF     H4 6722   1.728   4.150   3.444 -2.6415  1.9569 -2.6112
  407THF     H5 6723   1.876   4.173   3.543 -1.1138  0.4186 -0.5337
  407THF     H6 6724   1.668   4.347   3.297 -0.1814  2.0727  0.8605
  407THF     H7 6725   1.744   4.494   3.321 -2.1925  0.9352  2.0549
  407THF     C8 6726   1.864   4.315   3.249  0.1347 -0.1300 -0.6268
  407THF     C9 6727   1.905   4.194   3.337 -0.6276  0.1182  0.2037
  407THF    H10 6728   1.957   4.376   3.243 -1.4387  3.8670  0.7324
  407THF    H11 6729   1.835   4.304   3.144 -0.3261 -1.7740  1.1602
  407THF    H12 6730   1.878   4.093   3.290  2.4728 -0.3308  1.2112
  407THF    H13 6731   2.013   4.195   3.358 -0.0092  1.9286 -0.0031
  408THF     O1 6732   5.363   0.743   5.232  0.2938 -0.1551 -0.7718
  408THF     C2 6733   5.341   0.880   5.215  0.1485 -0.2746  0.6133
  408THF     C3 6734   5.380   0.726   5.371 -0.7155 -0.4423 -0.3139
  408THF     H4 6735   5.237   0.893   5.208 -1.7506  0.8314 -0.8614
  408THF     H5 6736   5.361   0.926   5.115 -0.8247 -0.0200 -0.6536
  408THF     H6 6737   5.278   0.716   5.414  1.0524  1.0197  1.4452
  408THF     H7 6738   5.448   0.644   5.378  1.2109  3.0982 -0.0164
  408THF     C8 6739   5.447   0.857   5.426 -0.0202 -0.0543 -1.2440
  408THF     C9 6740   5.408   0.967   5.329 -0.8197 -0.7576  0.1375
  408THF    H10 6741   5.559   0.855   5.428 -0.1857  1.5731 -2.0080
  408THF    H11 6742   5.426   0.869   5.532  1.4825 -0.8243 -1.1540
  408THF    H12 6743   5.336   1.037   5.378  1.3444  0.5075 -2.1950
  408THF    H13 6744   5.485   1.030   5.285 -2.5301  1.7535  1.4001
  409THF     O1 6745   4.131   4.718   1.032 -0.1029 -0.6712  0.0658
  409THF     C2 6746   4.147   4.851   0.991 -0.7127 -0.6618 -0.4464
  409THF     C3 6747   4.197   4.705   1.160  0.0548 -1.0442  0.4751
  409THF     H4 6748   4.069   4.903   1.048  0.1677 -3.2310 -2.0394
  409THF     H5 6749   4.126   4.865   0.881 -1.5611  0.4305  1.3169
  409THF     H6 6750   4.117   4.731   1.235  0.5355  0.4841 -0.2054
  409THF     H7 6751   4.234   4.601   1.173  0.9972  0.0317  0.1627
  409THF     C8 6752   4.315   4.801   1.159  0.4852 -0.7227  0.2245
  409THF     C9 6753   4.291   4.877   1.031  0.0430  0.0485 -0.1053
  409THF    H10 6754   4.413   4.765   1.153  0.9219  1.5678  1.2766
  409THF    H11 6755   4.311   4.874   1.245  0.5962  2.1737  3.3752
  409THF    H12 6756   4.325   4.978   1.031  0.0269  1.5473 -1.7140
  409THF    H13 6757   4.341   4.829   0.950  2.8386  0.3303 -0.6281
  410THF     O1 6758   2.463   5.138   2.268  0.3809  0.2398  0.5087
  410THF     C2 6759   2.374   5.257   2.275 -0.3526  0.0048  0.4900
  410THF     C3 6760   2.572   5.167   2.185 -0.0066 -0.0131  0.0268
  410THF     H4 6761   2.315   5.253   2.368 -1.5130  1.0431 -0.7707
  410THF     H5 6762   2.303   5.261   2.192  3.3071 -2.3505 -2.4552
  410THF     H6 6763   2.663   5.095   2.187  0.6473 -0.3530  1.6975
  410THF     H7 6764   2.535   5.166   2.081 -1.2467 -3.3278 -3.7391
  410THF     C8 6765   2.609   5.301   2.235 -0.0607  0.0378 -0.0482
  410THF     C9 6766   2.478   5.373   2.273 -0.8567  0.4877 -0.4247
  410THF    H10 6767   2.662   5.357   2.161 -1.8318  1.2697 -0.3640
  410THF    H11 6768   2.675   5.285   2.322 -0.1020  0.6584  1.3832
  410THF    H12 6769   2.489   5.406   2.378  0.6739 -0.1769 -0.6335
  410THF    H13 6770   2.442   5.464   2.220 -0.5833  3.0847 -0.5331
  411THF     O1 6771   0.443   2.903   1.698 -0.1662 -0.6637  0.0971
  411THF     C2 6772   0.313   2.877   1.652  0.2140  0.0809  0.5256
  411THF     C3 6773   0.527   2.952   1.583 -0.3376 -0.0276 -0.3071
  411THF     H4 6774   0.249   2.965   1.677  2.1634  3.5620 -0.1126
  411THF     H5 6775   0.258   2.782   1.689  2.3320 -0.6671 -0.3972
  411THF     H6 6776   0.522   3.060   1.566  1.6239 -0.1679  0.9038
  411THF     H7 6777   0.629   2.919   1.605 -0.0568  3.3525 -0.2061
  411THF     C8 6778   0.470   2.864   1.467  0.1705 -0.1245 -0.7223
  411THF     C9 6779   0.323   2.865   1.496  0.2744  0.0070 -0.0638
  411THF    H10 6780   0.498   2.757   1.471 -1.6887 -0.6160 -0.8055
  411THF    H11 6781   0.490   2.889   1.365  0.3634  0.4540  2.6040
  411THF    H12 6782   0.258   2.937   1.452 -1.2752  1.2321  1.7354
  411THF    H13 6783   0.284   2.768   1.475  0.2918 -0.1656  1.6755
  412THF     O1 6784   0.348   2.499   2.600  0.0351  0.9571  0.2230
  412THF     C2 6785   0.291   2.622   2.645 -0.6469  0.5593  0.2885
  412THF     C3 6786   0.490   2.517   2.586  0.4856 -0.4113  0.4011
  412THF     H4 6787   0.189   2.620   2.683  1.2729 -1.2857 -1.4176
  412THF     H5 6788   0.295   2.678   2.549  1.0341 -2.9425 -0.5949
  412THF     H6 6789   0.537   2.428   2.613 -1.4156 -0.0096 -1.0298
  412THF     H7 6790   0.505   2.543   2.478  2.0028  1.2856 -2.9923
  412THF     C8 6791   0.525   2.632   2.673  0.0934 -0.0448 -0.1206
  412THF     C9 6792   0.397   2.669   2.746 -0.4383 -0.0106  0.7080
  412THF    H10 6793   0.556   2.704   2.598 -2.7605  0.5868 -0.1629
  412THF    H11 6794   0.600   2.603   2.742 -2.6324 -2.5052 -1.1891
  412THF    H12 6795   0.407   2.605   2.836 -1.5379  0.4687  0.0022
  412THF    H13 6796   0.389   2.770   2.790  3.8167  0.3005  2.7565
  413THF     O1 6797   1.021   4.745   0.002  0.2553  0.3990 -0.7277
  413THF     C2 6798   0.986   4.853  -0.082  0.0877  0.2471 -0.0668
  413THF     C3 6799   1.153   4.761   0.046  0.0729  0.1044 -0.3427
  413THF     H4 6800   0.937   4.922  -0.021  4.5827  1.5822  0.3774
  413THF     H5 6801   0.932   4.815  -0.165  2.1327  3.1829  0.5589
  413THF     H6 6802   1.159   4.830   0.129 -0.1849 -4.2151 -0.3864
  413THF     H7 6803   1.202   4.664   0.074 -1.6828  0.2665 -1.1760
  413THF     C8 6804   1.216   4.816  -0.085  0.0247 -0.2239  0.0378
  413THF     C9 6805   1.113   4.915  -0.134 -0.1960 -0.1136  0.2427
  413THF    H10 6806   1.251   4.749  -0.157 -1.1108  0.0343  2.3045
  413THF    H11 6807   1.304   4.869  -0.065 -0.2928 -3.2200  0.1045
  413THF    H12 6808   1.113   5.016  -0.088  0.0413 -1.1629  1.4043
  413THF    H13 6809   1.139   4.922  -0.239  1.2259 -2.4422 -1.6959
  414THF     O1 6810   0.223   0.369   2.233  0.3440 -0.0282 -0.6638
  414THF     C2 6811   0.125   0.429   2.152  0.0570 -0.6312 -0.0617
  414THF     C3 6812   0.232   0.231   2.202 -0.3494  0.4754  0.0047
  414THF     H4 6813   0.165   0.515   2.100  0.9483 -1.3986  2.1021
  414THF     H5 6814   0.048   0.460   2.229  0.4791 -1.5512  0.9478
  414THF     H6 6815   0.324   0.224   2.145 -1.7414  0.9714 -0.5864
  414THF     H7 6816   0.234   0.169   2.288  1.2025  1.0631 -0.8982
  414THF     C8 6817   0.106   0.192   2.115 -0.0356 -0.5062 -0.3504
  414THF     C9 6818   0.071   0.326   2.053 -0.5808 -0.0350  0.2606
  414THF    H10 6819   0.025   0.165   2.183  0.3312  4.1948  0.5901
  414THF    H11 6820   0.119   0.113   2.035  0.5091 -0.9566 -2.1924
  414THF    H12 6821   0.110   0.328   1.954 -0.4461 -1.9497  1.1201
  414THF    H13 6822  -0.035   0.326   2.055 -0.7950 -2.2957 -0.6254
  415THF     O1 6823   4.520   5.162   0.345  0.2015 -0.2202 -0.0219
  415THF     C2 6824   4.658   5.157   0.401 -0.6122 -0.3024  0.2101
  415THF     C3 6825   4.497   5.303   0.322 -0.0869 -0.3651 -0.8713
  415THF     H4 6826   4.726   5.124   0.325 -0.6536  2.6145 -0.9887
  415THF     H5 6827   4.662   5.105   0.493 -0.4390 -0.5391 -1.5139
  415THF     H6 6828   4.535   5.343   0.235 -2.9435  1.2287  3.7399
  415THF     H7 6829   4.390   5.310   0.325 -0.2608  2.9367 -0.6695
  415THF     C8 6830   4.561   5.375   0.444  1.1389  0.1540  0.0615
  415THF     C9 6831   4.693   5.306   0.448 -0.5207  0.2645  0.6353
  415THF    H10 6832   4.512   5.365   0.536  0.8996  0.4905  1.5476
  415THF    H11 6833   4.577   5.487   0.426  0.8542  2.6226  0.0929
  415THF    H12 6834   4.764   5.355   0.377 -2.3689  1.2820 -2.6283
  415THF    H13 6835   4.735   5.316   0.543 -0.8486 -0.0626  2.4044
  416THF     O1 6836   2.381   5.475   0.262  0.7726 -0.2008 -0.3403
  416THF     C2 6837   2.478   5.424   0.351  0.6080 -0.4557 -0.5749
  416THF     C3 6838   2.320   5.368   0.187 -0.7537 -0.0353 -0.1204
  416THF     H4 6839   2.448   5.424   0.454 -2.9949 -1.8925  1.9865
  416THF     H5 6840   2.570   5.488   0.337  1.4219  2.6347  1.5695
  416THF     H6 6841   2.232   5.336   0.242  2.7766  0.4789  1.4630
  416THF     H7 6842   2.289   5.402   0.092  1.3051  2.7708  1.1685
  416THF     C8 6843   2.435   5.262   0.186  0.1669  0.0894 -0.6714
  416THF     C9 6844   2.498   5.276   0.319  0.1626 -0.8408  0.1303
  416THF    H10 6845   2.503   5.281   0.114 -2.8133 -0.3028  1.9220
  416THF    H11 6846   2.397   5.159   0.164  0.1186  2.4690  1.0935
  416THF    H12 6847   2.456   5.203   0.395  0.2746 -1.0121  0.2051
  416THF    H13 6848   2.608   5.261   0.327  0.2531 -2.7929  0.7472
  417THF     O1 6849   2.339   2.964   2.663 -0.0032  0.1706  0.3463
  417THF     C2 6850   2.465   3.015   2.718  0.9800 -0.3809  0.2447
  417THF     C3 6851   2.298   2.842   2.714 -0.1854  0.5179 -0.4692
  417THF     H4 6852   2.443   3.072   2.805  3.7079  0.6114  1.6214
  417THF     H5 6853   2.532   3.073   2.645  1.5804  0.5466  2.3379
  417THF     H6 6854   2.208   2.879   2.773  0.4627  1.1619  0.0783
  417THF     H7 6855   2.275   2.770   2.642  1.6562  1.7140  0.8795
  417THF     C8 6856   2.412   2.798   2.802  0.0352 -0.3076  0.1356
  417THF     C9 6857   2.529   2.879   2.753  0.1144 -0.5234  0.1556
  417THF    H10 6858   2.421   2.691   2.789 -3.1170  1.4875  0.5563
  417THF    H11 6859   2.373   2.811   2.910  0.0599  0.7305 -0.8355
  417THF    H12 6860   2.598   2.890   2.835 -2.8211  2.1603 -0.4755
  417THF    H13 6861   2.582   2.838   2.668  2.0622 -1.6839  1.5170
  418THF     O1 6862   0.918   1.410   0.936  0.4517 -0.6348  0.7858
  418THF     C2 6863   0.846   1.394   1.054 -0.1430  0.2101 -0.2991
  418THF     C3 6864   1.035   1.484   0.950 -0.1279  0.3784 -0.8178
  418THF     H4 6865   0.772   1.314   1.050  0.9672 -0.3949  0.1009
  418THF     H5 6866   0.804   1.487   1.078 -1.7122  1.1431 -0.7572
  418THF     H6 6867   1.094   1.467   0.857  0.8711 -6.1072  2.0305
  418THF     H7 6868   1.013   1.583   0.953 -0.1726 -2.7366  2.4965
  418THF     C8 6869   1.086   1.428   1.074  0.4042 -0.4531  0.6036
  418THF     C9 6870   0.963   1.360   1.142 -0.4725  0.2358  0.3700
  418THF    H10 6871   1.116   1.511   1.133  1.6105  0.8207 -2.8060
  418THF    H11 6872   1.176   1.366   1.055 -2.6083  0.7827  1.3636
  418THF    H12 6873   0.975   1.248   1.156 -4.8712  0.5851 -1.1680
  418THF    H13 6874   0.948   1.403   1.239 -1.7371  1.1030 -0.5523
  419THF     O1 6875   0.840   0.510   5.393 -0.0471 -0.3032  0.0425
  419THF     C2 6876   0.892   0.638   5.438 -0.0145 -0.5176  0.0671
  419THF     C3 6877   0.838   0.442   5.515 -0.0616 -0.5712  0.2706
  419THF     H4 6878   0.905   0.717   5.359 -0.9515 -0.2477 -0.2248
  419THF     H5 6879   0.996   0.621   5.470  1.1862  0.9284 -0.3845
  419THF     H6 6880   0.775   0.351   5.509 -2.9210 -0.7661  0.0660
  419THF     H7 6881   0.946   0.429   5.545  1.7130 -1.3360 -2.7579
  419THF     C8 6882   0.767   0.538   5.609 -0.5117  0.0927 -0.1006
  419THF     C9 6883   0.795   0.676   5.558 -0.0442 -0.6858 -0.8366
  419THF    H10 6884   0.816   0.520   5.707  2.4892  2.0311 -0.8927
  419THF    H11 6885   0.660   0.521   5.625 -0.0559 -1.8391 -2.3998
  419THF    H12 6886   0.714   0.746   5.532 -0.5126  1.0958  0.1939
  419THF    H13 6887   0.852   0.732   5.634  0.7648  3.1398 -3.9363
  420THF     O1 6888   3.379   1.950   2.685 -0.2747  0.2399  0.3855
  420THF     C2 6889   3.283   1.844   2.692 -0.0754 -0.5038  0.8213
  420THF     C3 6890   3.410   1.974   2.545 -0.0453  0.4738 -0.1418
  420THF     H4 6891   3.191   1.870   2.749 -0.8211  0.7915 -0.8301
  420THF     H5 6892   3.335   1.763   2.735  0.9938  2.1286  2.4483
  420THF     H6 6893   3.357   2.071   2.522 -1.3714  0.4080  1.7303
  420THF     H7 6894   3.515   1.979   2.535 -1.6725 -1.4165 -1.0336
  420THF     C8 6895   3.353   1.852   2.467 -0.0980  0.8002 -0.9757
  420THF     C9 6896   3.236   1.815   2.548  0.3667 -0.1306  0.4027
  420THF    H10 6897   3.431   1.775   2.460 -0.0619 -0.2294 -0.3839
  420THF    H11 6898   3.318   1.876   2.366 -1.4869 -1.7290  1.5744
  420THF    H12 6899   3.158   1.883   2.505 -1.2541 -0.6587 -3.5776
  420THF    H13 6900   3.212   1.711   2.531  3.7516 -1.7420 -0.8830
  421THF     O1 6901   2.591   5.326   1.038 -0.1673  0.5112 -0.1647
  421THF     C2 6902   2.462   5.268   1.067  0.1296 -0.2169 -1.1985
  421THF     C3 6903   2.640   5.358   1.164  0.7250  0.4467  0.0457
  421THF     H4 6904   2.465   5.158   1.076 -0.0851  0.3445  0.9243
  421THF     H5 6905   2.404   5.286   0.985 -1.0971  0.0955  2.3245
  421THF     H6 6906   2.655   5.273   1.227 -0.7803 -0.3782 -2.1746
  421THF     H7 6907   2.728   5.413   1.172  0.1226  0.2678 -0.3145
  421THF     C8 6908   2.519   5.439   1.219  0.4786  0.4161  1.0140
  421THF     C9 6909   2.405   5.348   1.182 -0.0954  0.2506 -0.3795
  421THF    H10 6910   2.505   5.535   1.171  0.8621 -0.1488  0.2731
  421THF    H11 6911   2.526   5.445   1.327  0.4139  2.1410 -1.4074
  421THF    H12 6912   2.397   5.280   1.264 -1.6262 -0.2538  1.2229
  421THF    H13 6913   2.308   5.399   1.167  1.9222  0.8671  0.1275
  422THF     O1 6914   3.145   3.700   4.581 -0.3449  0.7180 -0.2968
  422THF     C2 6915   3.078   3.732   4.458  0.4634 -0.4191  0.3185
  422THF     C3 6916   3.286   3.708   4.560 -0.1686  0.5426  0.3114
  422THF     H4 6917   2.980   3.769   4.487  0.7407 -1.1962 -1.4200
  422THF     H5 6918   3.076   3.637   4.392  0.3306  0.8175  4.1145
  422THF     H6 6919   3.351   3.704   4.643 -1.2752  1.2645 -0.3018
  422THF     H7 6920   3.319   3.621   4.496 -0.2080  1.6996 -2.4532
  422THF     C8 6921   3.299   3.835   4.480 -0.8323 -0.4393  0.2308
  422THF     C9 6922   3.156   3.862   4.422 -0.5826  0.4963 -0.1930
  422THF    H10 6923   3.380   3.823   4.406 -2.6364  0.5220 -1.9920
  422THF    H11 6924   3.332   3.903   4.549  0.0805 -0.6129 -2.0359
  422THF    H12 6925   3.115   3.937   4.482 -2.4872 -1.6456 -2.2142
  422THF    H13 6926   3.154   3.901   4.323  0.7609  0.5337  0.2277
  423THF     O1 6927   1.493   4.661   0.086 -0.0311 -0.1209  0.3316
  423THF     C2 6928   1.548   4.570   0.182 -1.1345 -0.4689 -0.0903
  423THF     C3 6929   1.584   4.766   0.070 -0.5676 -0.2758  1.0452
  423THF     H4 6930   1.488   4.470   0.187  2.8344 -1.0913 -3.2031
  423THF     H5 6931   1.544   4.625   0.276  2.1101  0.0286  0.3829
  423THF     H6 6932   1.563   4.817  -0.021  0.1353 -0.7677 -2.0278
  423THF     H7 6933   1.565   4.837   0.148  1.5555 -0.1461 -0.2807
  423THF     C8 6934   1.720   4.701   0.084 -0.2992 -0.2823 -0.1068
  423THF     C9 6935   1.689   4.563   0.145 -0.1324  0.7903 -1.0605
  423THF    H10 6936   1.781   4.762   0.142  0.2575 -0.7700  0.2199
  423THF    H11 6937   1.764   4.688  -0.015 -1.5952 -0.9861 -1.5211
  423THF    H12 6938   1.703   4.483   0.068 -1.4868  2.5230  1.5590
  423THF    H13 6939   1.759   4.543   0.228 -0.7667 -0.3992  1.6083
  424THF     O1 6940   0.792   0.846   4.706  0.2904 -0.8284  0.3580
  424THF     C2 6941   0.671   0.922   4.666  0.5106  0.7078 -0.1927
  424THF     C3 6942   0.888   0.856   4.603 -0.3625 -0.4096 -0.0865
  424THF     H4 6943   0.617   0.971   4.747  3.6876 -0.7370  0.4917
  424THF     H5 6944   0.602   0.869   4.601  0.8895 -0.0921  0.6832
  424THF     H6 6945   0.983   0.823   4.629 -2.3014 -0.9246 -0.8381
  424THF     H7 6946   0.856   0.800   4.518 -3.4697  1.4900  0.6954
  424THF     C8 6947   0.876   1.002   4.566  0.7910 -1.1272  0.5939
  424THF     C9 6948   0.720   1.030   4.567 -0.2991 -0.7771 -0.5479
  424THF    H10 6949   0.919   1.022   4.473  0.6115 -1.4310  1.0342
  424THF    H11 6950   0.928   1.057   4.638 -0.5240  0.2801 -3.7661
  424THF    H12 6951   0.703   1.127   4.607  0.1898 -1.3145 -1.1342
  424THF    H13 6952   0.680   1.025   4.472  0.5409 -1.7882  1.1032
  425THF     O1 6953   2.526   1.449   5.392 -0.3917  0.0451 -0.1688
  425THF     C2 6954   2.537   1.516   5.263 -0.5077 -0.5513 -0.2636
  425THF     C3 6955   2.654   1.427   5.444  0.1338  0.1158 -0.8579
  425THF     H4 6956   2.450   1.558   5.234  1.5724  0.2904 -1.1658
  425THF     H5 6957   2.551   1.449   5.181 -1.3986 -0.8747  3.0571
  425THF     H6 6958   2.658   1.419   5.555 -1.6942  0.1514  0.2014
  425THF     H7 6959   2.686   1.328   5.411 -0.6731 -0.5474 -0.8576
  425THF     C8 6960   2.745   1.539   5.391  0.5827  0.6439  0.0079
  425THF     C9 6961   2.656   1.613   5.293  0.5175  0.0876  0.4851
  425THF    H10 6962   2.836   1.495   5.347  2.4038  0.9117 -0.6420
  425THF    H11 6963   2.781   1.606   5.464  0.9539 -0.8674  2.0628
  425THF    H12 6964   2.607   1.698   5.341 -0.3407 -0.0270 -2.3148
  425THF    H13 6965   2.701   1.627   5.190  1.1407  0.2733 -2.3947
  426THF     O1 6966   0.468   1.393   2.800  0.0679 -0.5759 -0.1988
  426THF     C2 6967   0.332   1.395   2.838 -0.3341  0.6933  0.6087
  426THF     C3 6968   0.552   1.349   2.908  0.1224 -0.1363 -0.3963
  426THF     H4 6969   0.270   1.385   2.747  2.6106  1.6499  0.8253
  426THF     H5 6970   0.313   1.489   2.888  0.5788  2.1485 -0.4013
  426THF     H6 6971   0.625   1.271   2.883  1.6834 -1.1330  1.2548
  426THF     H7 6972   0.600   1.436   2.953  1.9282 -0.9903 -1.3052
  426THF     C8 6973   0.454   1.282   3.005  0.0859  0.6953  0.1602
  426THF     C9 6974   0.316   1.283   2.936  0.4263 -0.4552  0.9387
  426THF    H10 6975   0.446   1.351   3.089  0.5503 -2.6992  1.0570
  426THF    H11 6976   0.498   1.184   3.029  1.6176 -1.3811  0.8603
  426THF    H12 6977   0.292   1.184   2.897  1.1805  1.8761 -2.9131
  426THF    H13 6978   0.233   1.303   3.009 -0.0626 -0.3864 -1.0083
  427THF     O1 6979   4.023   3.646   0.662  0.4257  0.1822  0.3798
  427THF     C2 6980   3.939   3.591   0.757 -0.8663  0.7446 -0.3111
  427THF     C3 6981   4.131   3.712   0.723 -0.6321  0.2616 -0.2479
  427THF     H4 6982   3.872   3.510   0.726 -1.0860 -0.5053 -0.5291
  427THF     H5 6983   3.865   3.662   0.796 -0.0897  1.4358 -0.5462
  427THF     H6 6984   4.231   3.697   0.673  2.3873  1.6564  0.2585
  427THF     H7 6985   4.099   3.812   0.730  2.1942 -1.7193  0.3224
  427THF     C8 6986   4.131   3.665   0.864 -0.8090 -0.5023 -0.2696
  427THF     C9 6987   4.032   3.550   0.869  0.0963  0.5684  0.5826
  427THF    H10 6988   4.115   3.747   0.937 -0.1199  0.3899  0.5346
  427THF    H11 6989   4.229   3.629   0.895 -1.2387  0.1989  3.7692
  427THF    H12 6990   4.089   3.461   0.847 -0.0612  0.6863  0.9070
  427THF    H13 6991   3.996   3.540   0.975 -1.4141 -0.9335  0.2749
  428THF     O1 6992   3.866   1.487   0.847 -0.1889  0.3008 -0.2757
  428THF     C2 6993   3.875   1.487   0.708  0.3758 -0.2101  0.3865
  428THF     C3 6994   3.985   1.533   0.897 -0.5252 -0.1970  1.0640
  428THF     H4 6995   3.771   1.484   0.669 -0.9360 -0.3391  0.7285
  428THF     H5 6996   3.928   1.401   0.671 -0.0273  1.5123  0.4143
  428THF     H6 6997   3.979   1.564   1.007 -0.0566  1.7800 -0.0092
  428THF     H7 6998   4.061   1.460   0.873  1.2474  2.4989 -0.6861
  428THF     C8 6999   4.021   1.647   0.800 -0.3508 -0.5977 -0.0979
  428THF     C9 7000   3.940   1.618   0.675 -0.9882 -0.1811 -0.0325
  428THF    H10 7001   4.129   1.664   0.779 -1.5686 -2.2465 -1.5384
  428THF    H11 7002   3.989   1.742   0.846  0.3508  0.3715  0.1344
  428THF    H12 7003   3.861   1.689   0.661 -0.3583  2.7922 -0.4866
  428THF    H13 7004   3.994   1.608   0.575  3.1151  0.9136 -2.2003
  429THF     O1 7005   5.237   2.520   0.054 -0.8832 -0.5285  0.5388
  429THF     C2 7006   5.261   2.471  -0.084  0.2215 -0.3291  0.5042
  429THF     C3 7007   5.183   2.652   0.050  0.2091 -0.6864 -0.3234
  429THF     H4 7008   5.174   2.413  -0.122  1.2317 -1.4653  1.2406
  429THF     H5 7009   5.350   2.413  -0.085  0.0302  2.0242 -1.2014
  429THF     H6 7010   5.082   2.650   0.021 -0.8870 -0.7569  2.4189
  429THF     H7 7011   5.202   2.706   0.139  2.8312  0.8674  0.1148
  429THF     C8 7012   5.271   2.710  -0.058  0.3909 -0.1350 -0.1939
  429THF     C9 7013   5.285   2.599  -0.159  0.5407 -0.1329  0.6269
  429THF    H10 7014   5.369   2.722  -0.010  2.2025  0.2506 -0.4421
  429THF    H11 7015   5.237   2.808  -0.086 -0.7909  0.5547  1.8980
  429THF    H12 7016   5.205   2.608  -0.238  1.4466 -2.0594 -0.0389
  429THF    H13 7017   5.391   2.607  -0.206  1.1511  0.5551 -0.0651
  430THF     O1 7018   4.445   2.331   5.312 -0.0593  0.5445 -0.4483
  430THF     C2 7019   4.463   2.404   5.428  0.5489  0.6886  0.5859
  430THF     C3 7020   4.565   2.355   5.236 -0.0007 -0.2758 -0.4592
  430THF     H4 7021   4.537   2.358   5.495  1.1608  0.0362 -1.2538
  430THF     H5 7022   4.368   2.412   5.483  1.6591 -1.4462 -0.0837
  430THF     H6 7023   4.648   2.310   5.279 -3.5646  0.3378 -2.2553
  430THF     H7 7024   4.560   2.317   5.133  0.9709 -0.8989  0.1222
  430THF     C8 7025   4.586   2.504   5.244  0.4330 -0.1694  0.3281
  430THF     C9 7026   4.505   2.537   5.375 -0.2491  0.0120  0.2905
  430THF    H10 7027   4.520   2.553   5.170 -0.7851 -0.8434  1.0933
  430THF    H11 7028   4.688   2.545   5.239  0.1620  0.7963  1.6498
  430THF    H12 7029   4.572   2.586   5.447 -1.6155  0.7716 -0.9184
  430THF    H13 7030   4.424   2.597   5.349  3.0218 -0.0854  0.9109
  431THF     O1 7031   5.351   3.356   5.292 -0.5308  0.3746  0.2784
  431THF     C2 7032   5.415   3.272   5.383 -0.5221 -0.1791  0.5989
  431THF     C3 7033   5.235   3.411   5.358 -0.2348  0.4608 -0.7521
  431THF     H4 7034   5.510   3.243   5.346 -3.4768  2.1022 -0.1199
  431THF     H5 7035   5.365   3.186   5.420  0.2268  0.3418 -1.6917
  431THF     H6 7036   5.206   3.507   5.312 -2.2861  0.6850 -1.0129
  431THF     H7 7037   5.152   3.346   5.338  1.8325  0.8055  1.0895
  431THF     C8 7038   5.272   3.426   5.507  0.9769  0.0230 -0.1661
  431THF     C9 7039   5.413   3.366   5.504  0.2642  0.0178  0.1279
  431THF    H10 7040   5.196   3.369   5.555 -2.1466 -2.2845 -2.4272
  431THF    H11 7041   5.265   3.526   5.540 -0.4960  1.3974  0.0355
  431THF    H12 7042   5.491   3.443   5.473  3.7045 -0.5879 -2.8482
  431THF    H13 7043   5.446   3.320   5.600  0.2175  1.4076 -1.2321
  432THF     O1 7044   2.003   1.124   1.720  0.0427  0.5283 -1.0548
  432THF     C2 7045   1.916   1.216   1.649 -0.2118 -0.5987 -0.6240
  432THF     C3 7046   2.070   1.052   1.621  0.0702  0.0367 -0.4534
  432THF     H4 7047   1.883   1.307   1.712 -1.1531  0.3172  0.9389
  432THF     H5 7048   1.825   1.162   1.619  2.6318  1.0349 -0.4379
  432THF     H6 7049   2.166   1.016   1.658 -0.1965  1.0423 -0.3520
  432THF     H7 7050   2.016   0.961   1.594  0.6140  0.5935 -3.3620
  432THF     C8 7051   2.097   1.140   1.499  0.8047  0.0773  0.4868
  432THF     C9 7052   2.000   1.254   1.530  0.1668  0.2642  0.4035
  432THF    H10 7053   2.086   1.089   1.404  0.5185  0.3306  5.1998
  432THF    H11 7054   2.195   1.190   1.504 -1.6750 -0.8949  3.6969
  432THF    H12 7055   2.044   1.345   1.551 -3.2825  0.0950  0.5391
  432THF    H13 7056   1.939   1.266   1.440  0.5940  1.4409  1.1164
  433THF     O1 7057   4.264   1.747   3.943 -0.3106 -0.1560  0.2070
  433THF     C2 7058   4.126   1.780   3.914  0.0843  0.1493  0.1021
  433THF     C3 7059   4.279   1.766   4.082 -0.4913  0.0567 -0.3691
  433THF     H4 7060   4.096   1.751   3.819 -2.0979 -0.5490 -2.7201
  433THF     H5 7061   4.116   1.891   3.917  0.1758  0.5555  0.2983
  433THF     H6 7062   4.362   1.697   4.118  0.3277  1.9099  0.9443
  433THF     H7 7063   4.313   1.861   4.124 -3.2806  0.6234  0.8714
  433THF     C8 7064   4.146   1.712   4.134 -0.3300 -1.6496  0.0480
  433THF     C9 7065   4.062   1.691   4.022 -0.8474  0.0905  0.6411
  433THF    H10 7066   4.101   1.786   4.198  2.5278  0.7305 -1.4035
  433THF    H11 7067   4.156   1.621   4.195  0.7881  0.7292 -0.9385
  433THF    H12 7068   4.060   1.580   4.000 -0.1966 -4.7926 -0.4404
  433THF    H13 7069   3.955   1.719   4.040 -4.8562 -0.6825  0.9348
  434THF     O1 7070   4.018   1.348   1.649 -0.6334 -0.5963 -0.1283
  434THF     C2 7071   4.097   1.242   1.606 -1.1547 -0.1048 -0.5099
  434THF     C3 7072   3.902   1.354   1.564 -0.3674 -0.7542 -0.0945
  434THF     H4 7073   4.108   1.175   1.686 -0.4610  0.5878 -1.3150
  434THF     H5 7074   4.194   1.264   1.560 -1.2610  1.1687  1.5908
  434THF     H6 7075   3.822   1.407   1.612 -1.4120  1.1044 -1.3618
  434THF     H7 7076   3.935   1.416   1.484 -0.3481 -1.3034  0.5001
  434THF     C8 7077   3.872   1.211   1.524  0.6626 -1.2175 -0.5384
  434THF     C9 7078   4.014   1.177   1.498 -0.1158 -0.1516 -0.0610
  434THF    H10 7079   3.800   1.217   1.442 -0.8522  1.4011  0.1506
  434THF    H11 7080   3.837   1.152   1.608 -0.8294  0.2816  2.5278
  434THF    H12 7081   4.021   1.072   1.478 -0.7314 -0.0162  1.0559
  434THF    H13 7082   4.048   1.217   1.401  1.8759  0.2938  0.9459
  435THF     O1 7083   3.417   1.776   3.265  0.2884 -0.5256  0.1203
  435THF     C2 7084   3.539   1.815   3.201  0.3223 -0.6649  0.8869
  435THF     C3 7085   3.345   1.687   3.183  0.0731 -0.5639  0.2819
  435THF     H4 7086   3.632   1.782   3.249  0.3993  2.5655  0.2847
  435THF     H5 7087   3.543   1.926   3.192 -0.9218  0.0791 -2.6543
  435THF     H6 7088   3.361   1.583   3.206 -0.4511 -0.6275  0.0306
  435THF     H7 7089   3.237   1.690   3.201  1.0705  0.8715 -0.2524
  435THF     C8 7090   3.378   1.734   3.044 -0.4033 -1.3000  0.5468
  435THF     C9 7091   3.524   1.754   3.057 -0.4785 -0.4749 -0.5812
  435THF    H10 7092   3.335   1.835   3.019 -2.2625  2.3304  1.2100
  435THF    H11 7093   3.355   1.672   2.957  0.7043 -0.5664 -1.6978
  435THF    H12 7094   3.565   1.653   3.059 -2.5321 -2.5113 -3.4870
  435THF    H13 7095   3.563   1.816   2.974 -1.6911 -0.1835 -1.7172
  436THF     O1 7096   3.380   0.576   3.741  0.2654  0.4655 -0.8377
  436THF     C2 7097   3.352   0.601   3.884  0.2509 -0.1906 -0.3962
  436THF     C3 7098   3.460   0.691   3.703 -0.0759 -0.2054 -0.2539
  436THF     H4 7099   3.446   0.559   3.931 -0.9880  0.8250  3.0327
  436THF     H5 7100   3.258   0.542   3.895 -0.5468 -2.7562 -0.8629
  436THF     H6 7101   3.557   0.681   3.759 -1.1686 -1.7612  1.4665
  436THF     H7 7102   3.473   0.703   3.591 -1.8041 -1.2475 -3.1474
  436THF     C8 7103   3.384   0.807   3.773 -0.5422 -0.4830  0.2921
  436THF     C9 7104   3.325   0.753   3.903 -0.3581 -0.0237 -0.1590
  436THF    H10 7105   3.299   0.839   3.706  1.3019  1.9190 -0.1202
  436THF    H11 7106   3.446   0.895   3.790  1.0633 -1.6483 -0.6770
  436THF    H12 7107   3.379   0.791   3.988  1.3460  0.6676  1.8136
  436THF    H13 7108   3.221   0.784   3.907  1.1476 -0.7099  0.4501
  437THF     O1 7109   4.030   0.736   1.419  0.1561  0.8065 -0.5767
  437THF     C2 7110   4.080   0.755   1.288  0.9350  0.2088  0.3262
  437THF     C3 7111   3.884   0.717   1.403  0.3840 -0.3771 -0.5864
  437THF     H4 7112   4.183   0.745   1.280 -1.8747 -0.7457 -0.3133
  437THF     H5 7113   4.041   0.855   1.256 -1.3297  1.3936  1.3254
  437THF     H6 7114   3.858   0.664   1.491  0.3745 -0.3292 -1.4353
  437THF     H7 7115   3.832   0.811   1.394 -0.4397  0.1307  2.6383
  437THF     C8 7116   3.874   0.636   1.276 -0.3082 -0.7388  0.9642
  437THF     C9 7117   4.010   0.657   1.202  0.0083 -0.1895 -0.6377
  437THF    H10 7118   3.786   0.677   1.218 -0.2274  5.3940 -1.3204
  437THF    H11 7119   3.870   0.527   1.304  2.2571 -2.2674  1.5371
  437THF    H12 7120   4.077   0.571   1.212 -0.2976 -0.8339 -1.1201
  437THF    H13 7121   3.997   0.685   1.100 -0.2374  0.5401 -0.0490
  438THF     O1 7122   3.302   2.580   5.007 -0.3062  0.0017 -1.0094
  438THF     C2 7123   3.298   2.497   4.889 -1.0586 -0.4726  0.2559
  438THF     C3 7124   3.178   2.653   5.003  0.3858  0.2763 -0.3689
  438THF     H4 7125   3.233   2.413   4.909 -1.1200  0.5812 -0.1903
  438THF     H5 7126   3.394   2.457   4.866  0.0308 -0.4234 -1.8975
  438THF     H6 7127   3.112   2.594   5.063  0.8648  3.8378 -3.3403
  438THF     H7 7128   3.192   2.753   5.058  1.2073 -0.3438  0.1242
  438THF     C8 7129   3.151   2.682   4.852  0.1353 -0.4420 -0.4897
  438THF     C9 7130   3.233   2.579   4.777  0.4354  0.3560  0.1463
  438THF    H10 7131   3.193   2.779   4.824  0.9715  0.5996 -1.2431
  438THF    H11 7132   3.050   2.681   4.820  1.6055  1.6555  0.4723
  438THF    H12 7133   3.182   2.518   4.713 -0.4210  1.5042  1.0772
  438THF    H13 7134   3.306   2.622   4.706 -0.0908 -3.3326 -1.4300
  439THF     O1 7135   0.617   3.972   2.557  0.0192  0.0096 -0.2443
  439THF     C2 7136   0.690   4.080   2.607 -0.3329  0.4313 -0.5961
  439THF     C3 7137   0.636   3.861   2.644 -0.4131 -0.2050 -0.0908
  439THF     H4 7138   0.642   4.166   2.569 -0.7028  2.1912  1.3134
  439THF     H5 7139   0.792   4.103   2.568  0.1593 -0.5375  0.9719
  439THF     H6 7140   0.571   3.782   2.613 -1.3544 -1.0689 -1.5011
  439THF     H7 7141   0.734   3.815   2.634  1.1914 -3.0840  0.2153
  439THF     C8 7142   0.614   3.935   2.780 -0.2905 -0.2691  0.5177
  439THF     C9 7143   0.691   4.067   2.757 -0.6270 -0.2246 -0.5046
  439THF    H10 7144   0.651   3.890   2.865  1.3609  1.4839 -0.5848
  439THF    H11 7145   0.509   3.948   2.799  0.2479 -0.5731  0.0165
  439THF    H12 7146   0.643   4.143   2.817 -1.3532 -3.7302 -1.2549
  439THF    H13 7147   0.791   4.052   2.807 -0.9117 -0.2854 -0.5744
  440THF     O1 7148   4.316   0.748   2.898  0.0210 -0.1028  0.2916
  440THF     C2 7149   4.341   0.843   2.998 -0.1388  0.1072 -0.2035
  440THF     C3 7150   4.362   0.622   2.950 -0.0836  0.1204  0.0736
  440THF     H4 7151   4.260   0.843   3.068  0.7948  2.3404 -0.7739
  440THF     H5 7152   4.358   0.934   2.944 -0.0149  0.2350 -0.1178
  440THF     H6 7153   4.299   0.585   3.033 -0.0746 -0.0416  4.1761
  440THF     H7 7154   4.350   0.538   2.877  0.4745 -0.0152  1.6568
  440THF     C8 7155   4.494   0.661   3.009  0.3337 -0.5707 -0.0805
  440THF     C9 7156   4.469   0.799   3.072  0.1815 -0.0374  0.1514
  440THF    H10 7157   4.561   0.680   2.926 -2.2600  0.8289  1.9247
  440THF    H11 7158   4.529   0.600   3.086  2.5152 -0.7977 -2.6435
  440THF    H12 7159   4.432   0.802   3.171 -1.5619 -0.7231  0.8771
  440THF    H13 7160   4.553   0.869   3.060  0.4971 -0.8273  1.2442
  441THF     O1 7161   1.102   0.018   1.682  0.0381  0.1006  0.1749
  441THF     C2 7162   1.231   0.026   1.743  0.1098 -0.5077 -0.0513
  441THF     C3 7163   1.104   0.051   1.541  0.1483  0.2222 -0.8417
  441THF     H4 7164   1.266  -0.065   1.778 -0.2007  1.5517 -3.9236
  441THF     H5 7165   1.226   0.100   1.825  3.9531  2.6880 -0.1325
  441THF     H6 7166   1.033  -0.005   1.487  1.3787  0.1413  2.1433
  441THF     H7 7167   1.097   0.159   1.518 -0.6289  0.7070  0.3896
  441THF     C8 7168   1.249   0.011   1.500  0.9924  0.3408  0.5912
  441THF     C9 7169   1.323   0.069   1.626  0.0987 -0.6294 -0.1392
  441THF    H10 7170   1.279   0.058   1.401  0.3144  1.6524 -0.1061
  441THF    H11 7171   1.263  -0.096   1.487  2.0288 -1.8108 -1.3768
  441THF    H12 7172   1.421   0.024   1.623  1.5348  1.3818 -0.9781
  441THF    H13 7173   1.327   0.174   1.614  0.9284  0.5290 -0.7631
  442THF     O1 7174   1.851   2.608   3.119  0.2909  0.6322 -0.6774
  442THF     C2 7175   1.886   2.542   3.239  0.1367  0.1460 -0.6657
  442THF     C3 7176   1.930   2.728   3.112  0.5048  0.2584  0.0531
  442THF     H4 7177   1.864   2.434   3.231 -0.6633  0.3554  0.9625
  442THF     H5 7178   1.826   2.591   3.318  2.7505  0.0861  1.4596
  442THF     H6 7179   1.955   2.757   3.011 -0.0004  2.0667  0.0904
  442THF     H7 7180   1.891   2.808   3.175  0.2621  0.5357  0.3449
  442THF     C8 7181   2.059   2.686   3.164 -1.0761  0.3054 -0.5480
  442THF     C9 7182   2.034   2.578   3.259 -0.5690 -0.3430 -0.5145
  442THF    H10 7183   2.112   2.768   3.206 -1.9331 -1.9606 -1.5997
  442THF    H11 7184   2.130   2.649   3.084 -0.2744  0.0830 -1.0391
  442THF    H12 7185   2.106   2.490   3.241  1.1644 -0.9433  1.3425
  442THF    H13 7186   2.057   2.618   3.364 -3.0445  0.2646  1.9367
  443THF     O1 7187   5.340   1.392   2.869 -0.0085  0.5677  0.7715
  443THF     C2 7188   5.317   1.511   2.940  0.3904  0.3436  0.0457
  443THF     C3 7189   5.424   1.428   2.756 -0.5484 -0.1403 -0.5988
  443THF     H4 7190   5.356   1.499   3.035 -0.1423  0.2565 -1.0171
  443THF     H5 7191   5.212   1.546   2.943  0.9901  1.5981  0.7049
  443THF     H6 7192   5.495   1.346   2.722  1.0358  0.4016  0.5614
  443THF     H7 7193   5.354   1.463   2.671 -0.4450  1.3388 -1.3023
  443THF     C8 7194   5.502   1.548   2.799 -0.8508 -0.0489  0.5990
  443THF     C9 7195   5.397   1.623   2.877  0.1846 -0.6507 -0.5650
  443THF    H10 7196   5.534   1.602   2.707  1.5238  1.7792 -0.1840
  443THF    H11 7197   5.585   1.518   2.852  2.8233 -0.2007 -0.2934
  443THF    H12 7198   5.421   1.693   2.961 -1.0157  1.7959  1.0565
  443THF    H13 7199   5.334   1.673   2.802 -1.6020 -1.1726 -1.3864
  444THF     O1 7200   5.300   0.861   3.748 -0.0121  0.0776  0.2459
  444THF     C2 7201   5.344   0.856   3.881 -0.5302  0.3189  0.4298
  444THF     C3 7202   5.186   0.945   3.745 -0.4007 -0.0721  0.6148
  444THF     H4 7203   5.441   0.889   3.889  1.0959 -1.0650 -1.4374
  444THF     H5 7204   5.362   0.747   3.910  2.3280 -1.4609 -2.6771
  444THF     H6 7205   5.188   1.015   3.659  0.8860 -0.7646 -0.4268
  444THF     H7 7206   5.095   0.883   3.728  1.2068 -0.6764 -0.7493
  444THF     C8 7207   5.174   1.025   3.877  0.0824  0.4508  0.0070
  444THF     C9 7208   5.239   0.925   3.974  0.2361 -0.0557  0.5106
  444THF    H10 7209   5.074   1.061   3.904  1.8290 -0.9896  0.6054
  444THF    H11 7210   5.232   1.117   3.868  0.3691  0.6713 -0.5827
  444THF    H12 7211   5.294   0.970   4.055 -1.9708  0.0120  0.9012
  444THF    H13 7212   5.172   0.853   4.021  0.2701 -1.7280 -0.6071
  445THF     O1 7213   4.485   1.123   5.365 -0.4759  0.6776  0.4871
  445THF     C2 7214   4.352   1.151   5.320  0.7181 -1.1115 -0.2237
  445THF     C3 7215   4.484   1.112   5.507 -0.1283  0.0581  0.0446
  445THF     H4 7216   4.339   1.125   5.214  2.1869  0.4670  0.0150
  445THF     H5 7217   4.325   1.255   5.343 -1.0856 -2.1476  2.6124
  445THF     H6 7218   4.571   1.060   5.535 -2.3933  0.3837 -1.0223
  445THF     H7 7219   4.500   1.214   5.546  0.5651  2.6725  0.8805
  445THF     C8 7220   4.346   1.066   5.540 -0.5822 -0.4354  0.7732
  445THF     C9 7221   4.268   1.068   5.411 -0.1034  0.2567  0.7122
  445THF    H10 7222   4.304   1.123   5.616  0.5261 -1.7738 -0.6607
  445THF    H11 7223   4.350   0.965   5.584  0.6700 -1.3137  0.6238
  445THF    H12 7224   4.243   0.963   5.376 -1.5733  1.2866 -0.7306
  445THF    H13 7225   4.172   1.123   5.410 -3.1474  0.5803 -0.0439
  446THF     O1 7226   0.179   0.413   5.066 -0.0707 -0.6435 -0.1672
  446THF     C2 7227   0.070   0.488   5.111  0.0409 -0.6519  0.5204
  446THF     C3 7228   0.210   0.429   4.922  0.3235 -0.1278 -0.6002
  446THF     H4 7229   0.095   0.530   5.210 -2.6476 -1.9673 -0.1588
  446THF     H5 7230  -0.024   0.442   5.116  1.1480  1.2934  0.2344
  446THF     H6 7231   0.312   0.405   4.888  2.1268  0.2272  0.9830
  446THF     H7 7232   0.136   0.389   4.853 -0.1563  0.2384  0.9877
  446THF     C8 7233   0.192   0.583   4.916 -0.3300  0.9915 -0.4268
  446THF     C9 7234   0.072   0.599   5.004  0.5898 -0.0584  0.0387
  446THF    H10 7235   0.175   0.618   4.811 -0.8830  0.1443  1.7292
  446THF    H11 7236   0.275   0.636   4.955 -0.1408  1.0663 -1.4185
  446THF    H12 7237   0.063   0.697   5.049 -1.2784  0.4513 -1.0870
  446THF    H13 7238  -0.017   0.586   4.945  0.0186  0.5971 -0.1356
  447THF     O1 7239   1.817   1.793   0.334 -0.1843  0.4102  0.0458
  447THF     C2 7240   1.864   1.693   0.245 -0.5602  0.2459  0.0663
  447THF     C3 7241   1.875   1.921   0.300 -0.0102  0.6829  0.0087
  447THF     H4 7242   1.805   1.608   0.237  1.4346  1.5691 -3.1495
  447THF     H5 7243   1.970   1.676   0.271 -2.3546  1.1360 -0.8921
  447THF     H6 7244   1.813   2.005   0.316 -0.5030  0.6871 -1.7185
  447THF     H7 7245   1.967   1.931   0.358  0.5325  1.8730 -1.0090
  447THF     C8 7246   1.897   1.919   0.154  0.3299 -0.5772 -0.8576
  447THF     C9 7247   1.885   1.770   0.120 -0.4171 -0.7131  0.1756
  447THF    H10 7248   1.993   1.954   0.125  0.4842  1.5349 -1.0636
  447THF    H11 7249   1.817   1.981   0.102 -2.2342  0.8013  0.7837
  447THF    H12 7250   1.802   1.762   0.049  0.1809  1.7002  0.7151
  447THF    H13 7251   1.974   1.738   0.058 -0.3746  0.9751 -0.2924
  448THF     O1 7252   0.042   1.109   2.199 -0.0823  0.0009 -0.5350
  448THF     C2 7253   0.178   1.149   2.179 -0.6960 -0.3435 -0.2665
  448THF     C3 7254   0.021   1.099   2.347 -0.2203  0.3007 -0.2101
  448THF     H4 7255   0.199   1.195   2.083  1.2873 -0.8591 -0.2216
  448THF     H5 7256   0.251   1.074   2.207 -2.2799  1.3297  0.0464
  448THF     H6 7257  -0.080   1.133   2.387 -3.9194 -0.1053  1.1968
  448THF     H7 7258   0.046   1.004   2.388 -2.0234 -0.5805  1.5937
  448THF     C8 7259   0.127   1.187   2.408  0.6950 -0.1449  0.1699
  448THF     C9 7260   0.185   1.253   2.294 -0.3985  0.6084  0.2781
  448THF    H10 7261   0.198   1.134   2.462 -0.7003  0.3031 -2.0730
  448THF    H11 7262   0.086   1.253   2.488  0.3798 -0.4301  1.0857
  448THF    H12 7263   0.131   1.341   2.262  0.6220 -1.5500  2.8874
  448THF    H13 7264   0.286   1.278   2.313  0.1909  0.2713 -1.6448
  449THF     O1 7265   4.078   0.629   4.813  0.2270  0.4457  0.0136
  449THF     C2 7266   3.996   0.514   4.835  0.7556  0.1939  0.3396
  449THF     C3 7267   4.083   0.675   4.684  0.6858  0.3216  0.5540
  449THF     H4 7268   3.944   0.530   4.924  0.1723 -1.5645 -1.5810
  449THF     H5 7269   4.063   0.426   4.839  1.2167  0.2638 -0.2633
  449THF     H6 7270   4.124   0.773   4.673  2.9708 -2.3185  0.9405
  449THF     H7 7271   4.155   0.615   4.631  2.0221 -2.3350 -0.0956
  449THF     C8 7272   3.946   0.647   4.636  0.6412  1.2571 -0.4701
  449THF     C9 7273   3.921   0.510   4.696 -0.0187 -0.1654 -0.2237
  449THF    H10 7274   3.940   0.647   4.523  1.9728  0.2563  3.4887
  449THF    H11 7275   3.882   0.728   4.672 -1.9027  2.1296 -0.0394
  449THF    H12 7276   3.817   0.514   4.709  0.6221 -0.8537  1.8100
  449THF    H13 7277   3.943   0.426   4.628  1.8821 -4.0109  1.2021
  450THF     O1 7278   4.628   0.358   1.308 -0.3202 -0.0046 -0.0654
  450THF     C2 7279   4.574   0.373   1.182  0.3372  0.3172  0.3125
  450THF     C3 7280   4.617   0.223   1.342  0.7318  0.4195 -0.6884
  450THF     H4 7281   4.637   0.458   1.148 -1.9222  0.6550  1.0395
  450THF     H5 7282   4.466   0.393   1.182  0.4065  0.8263 -1.1596
  450THF     H6 7283   4.674   0.195   1.423 -1.1500 -0.4442  0.0509
  450THF     H7 7284   4.517   0.197   1.370  1.6274  0.9776 -0.6184
  450THF     C8 7285   4.656   0.150   1.208  0.2817  0.8725 -0.0876
  450THF     C9 7286   4.608   0.246   1.099 -0.0177 -0.3619 -0.2385
  450THF    H10 7287   4.611   0.049   1.209  1.0766 -0.1460  0.6067
  450THF    H11 7288   4.766   0.131   1.210  1.4862 -1.1345  1.8303
  450THF    H12 7289   4.691   0.266   1.034  2.9078  1.0852  0.4560
  450THF    H13 7290   4.529   0.208   1.034  0.4252 -0.6432  2.1145
  451THF     O1 7291   1.672   2.911   2.819  0.2335 -0.0760 -0.0687
  451THF     C2 7292   1.703   2.776   2.767 -0.0417  0.0331 -0.3921
  451THF     C3 7293   1.549   2.960   2.763  0.1860 -0.2950  0.0944
  451THF     H4 7294   1.775   2.731   2.827  0.9817  0.1120  0.0254
  451THF     H5 7295   1.744   2.769   2.666  2.4176  2.2530 -1.0187
  451THF     H6 7296   1.484   3.019   2.836  0.8418 -1.0805  0.0636
  451THF     H7 7297   1.575   3.027   2.686 -2.5889  0.4698 -0.9163
  451THF     C8 7298   1.477   2.832   2.710 -0.2599 -0.3600  0.6980
  451THF     C9 7299   1.555   2.716   2.773 -0.4514 -0.1650 -0.3879
  451THF    H10 7300   1.493   2.820   2.597 -0.9479 -1.4689 -1.7308
  451THF    H11 7301   1.369   2.838   2.724 -0.3552 -0.5645 -2.3347
  451THF    H12 7302   1.535   2.703   2.881  0.5595  1.0166  1.2110
  451THF    H13 7303   1.537   2.618   2.720  1.5261  1.8768  1.5916
  452THF     O1 7304   1.060   2.472   0.892 -0.1562 -0.0382  0.4584
  452THF     C2 7305   0.921   2.502   0.898 -0.5636 -0.8471 -0.2813
  452THF     C3 7306   1.099   2.476   0.751  0.1874 -0.8738 -0.8973
  452THF     H4 7307   0.905   2.546   0.991 -0.9039 -2.2623 -3.5128
  452THF     H5 7308   0.855   2.412   0.878  1.4343  3.4244 -1.0198
  452THF     H6 7309   1.208   2.485   0.743  1.1974  1.4582  0.5195
  452THF     H7 7310   1.073   2.382   0.708  0.0156  0.9403  0.0222
  452THF     C8 7311   1.009   2.588   0.691 -0.6929 -0.0510  0.1136
  452THF     C9 7312   0.896   2.606   0.783 -0.0649  0.4321 -0.0534
  452THF    H10 7313   0.985   2.547   0.594  2.8443 -0.9288  1.0030
  452THF    H11 7314   1.070   2.685   0.673 -0.7470  0.9592  1.0169
  452THF    H12 7315   0.899   2.711   0.817 -0.9179  1.7363  3.2082
  452THF    H13 7316   0.809   2.586   0.727  1.3853  2.1995  0.9421
  453THF     O1 7317   5.410   4.987   1.531  0.4132  0.1661  0.7633
  453THF     C2 7318   5.274   5.027   1.572 -0.6557  0.6521 -0.6912
  453THF     C3 7319   5.410   4.925   1.406 -0.0741  0.0354  0.3895
  453THF     H4 7320   5.268   5.134   1.588 -2.0142  0.1988 -0.6321
  453THF     H5 7321   5.247   4.978   1.663  2.2516  4.0682  0.9595
  453THF     H6 7322   5.437   5.010   1.329  0.9525  1.8513 -0.0085
  453THF     H7 7323   5.483   4.841   1.418  3.0898 -0.3313 -0.7954
  453THF     C8 7324   5.271   4.877   1.378 -0.3048 -0.5714 -0.1350
  453THF     C9 7325   5.196   4.977   1.452  0.3403 -0.0705  0.2186
  453THF    H10 7326   5.258   4.782   1.428 -1.0837 -0.1418  0.8112
  453THF    H11 7327   5.245   4.864   1.277 -0.5524  1.8451  0.8255
  453THF    H12 7328   5.181   5.053   1.377 -0.5817 -1.1807  1.6589
  453THF    H13 7329   5.095   4.941   1.470 -1.0634 -0.6699 -0.2002
  454THF     O1 7330   0.677   3.489   1.012  0.4632 -0.4579 -0.1355
  454THF     C2 7331   0.562   3.437   0.962 -0.4712 -0.0690  0.1289
  454THF     C3 7332   0.744   3.549   0.899  0.7814 -0.2493  0.3426
  454THF     H4 7333   0.488   3.427   1.038 -2.0396 -1.3041 -1.5913
  454THF     H5 7334   0.572   3.344   0.905 -1.0649 -1.4706 -1.4782
  454THF     H6 7335   0.826   3.618   0.929  2.8956 -1.7056 -2.5878
  454THF     H7 7336   0.785   3.466   0.827  0.5222 -0.7083 -0.7961
  454THF     C8 7337   0.631   3.618   0.826  0.5732  0.5354 -0.1188
  454THF     C9 7338   0.509   3.534   0.858 -0.0296 -0.3203  0.2164
  454THF    H10 7339   0.650   3.617   0.720  2.1302  0.0710  1.7488
  454THF    H11 7340   0.610   3.718   0.863 -0.2462  3.1126 -1.8664
  454THF    H12 7341   0.436   3.598   0.907  3.6281  1.1299 -1.3662
  454THF    H13 7342   0.464   3.489   0.772 -0.0384  3.2795 -0.3058
  455THF     O1 7343   2.397   1.467   2.252 -0.7151  0.1709  0.2466
  455THF     C2 7344   2.432   1.557   2.355  0.2981  0.8206 -0.5326
  455THF     C3 7345   2.318   1.356   2.307 -0.7083  0.2887 -0.3916
  455THF     H4 7346   2.405   1.660   2.322 -1.8405  0.3154  1.6814
  455THF     H5 7347   2.538   1.538   2.376  0.8755  0.5483  0.2555
  455THF     H6 7348   2.262   1.306   2.229  0.5783  1.0268 -0.7178
  455THF     H7 7349   2.400   1.293   2.346 -0.6415  1.1873 -1.3539
  455THF     C8 7350   2.246   1.423   2.427  0.3788  0.2840 -0.2711
  455THF     C9 7351   2.352   1.517   2.484 -0.1480  0.1662  0.7982
  455THF    H10 7352   2.217   1.351   2.501 -0.6006  1.2985 -0.9843
  455THF    H11 7353   2.164   1.482   2.383  1.1454 -0.2537 -0.0517
  455THF    H12 7354   2.320   1.592   2.548  1.2734 -1.1050  1.8304
  455THF    H13 7355   2.413   1.461   2.558  0.3285  0.2941 -0.8963
  456THF     O1 7356   3.045   0.813   3.625  0.3814 -0.1945  0.4551
  456THF     C2 7357   2.965   0.852   3.519  0.1141  0.3206  0.2766
  456THF     C3 7358   3.079   0.677   3.599  0.5345 -0.3958  0.7268
  456THF     H4 7359   3.007   0.852   3.425 -3.2737  1.0650 -0.1711
  456THF     H5 7360   2.923   0.951   3.530 -2.3225  1.2617  0.2955
  456THF     H6 7361   3.172   0.662   3.550 -0.0278 -0.0915 -0.6176
  456THF     H7 7362   3.094   0.637   3.695 -0.6805 -1.1345 -1.6844
  456THF     C8 7363   2.960   0.624   3.529 -0.0856 -0.4260 -0.7803
  456THF     C9 7364   2.862   0.736   3.513 -0.5088 -0.1269 -0.1844
  456THF    H10 7365   2.930   0.522   3.569 -0.5330 -2.7128  3.3250
  456THF    H11 7366   2.987   0.613   3.426 -2.5258 -1.2961 -1.6051
  456THF    H12 7367   2.809   0.754   3.420 -1.2218 -1.4850 -0.1759
  456THF    H13 7368   2.789   0.733   3.595  1.4892 -0.8484  0.4301
  457THF     O1 7369   4.246   5.188   1.516 -0.2045 -0.0617  0.0841
  457THF     C2 7370   4.246   5.103   1.635 -0.1880 -0.3442  0.5208
  457THF     C3 7371   4.144   5.137   1.432  1.0938 -0.2918  0.2405
  457THF     H4 7372   4.272   5.164   1.726  1.1252  1.5954 -0.2887
  457THF     H5 7373   4.301   5.010   1.635 -2.3071  0.7076  0.7612
  457THF     H6 7374   4.120   5.213   1.359 -0.6608  0.0457 -0.6013
  457THF     H7 7375   4.184   5.051   1.373  0.9951 -2.1137 -1.2545
  457THF     C8 7376   4.028   5.090   1.521 -0.4540  0.4987 -0.3848
  457THF     C9 7377   4.101   5.070   1.651  0.3252  0.3592  0.3978
  457THF    H10 7378   3.980   5.001   1.488  1.8143  1.6231 -2.6862
  457THF    H11 7379   3.958   5.168   1.527 -3.0286 -1.6430  0.9684
  457THF    H12 7380   4.058   5.137   1.731 -0.6515  0.1223 -0.4266
  457THF    H13 7381   4.096   4.975   1.706 -0.4511  2.0984  1.2565
  458THF     O1 7382   3.686   2.768   1.860 -0.1315 -0.0771 -0.0852
  458THF     C2 7383   3.545   2.805   1.868  0.1593 -0.6645  0.5371
  458THF     C3 7384   3.705   2.701   1.977  0.2457 -0.4194  0.0047
  458THF     H4 7385   3.485   2.729   1.817  0.7922 -0.2467 -0.0222
  458THF     H5 7386   3.522   2.900   1.813  2.2178  1.0243 -2.1903
  458THF     H6 7387   3.665   2.600   1.967 -3.9435  1.2137 -3.2586
  458THF     H7 7388   3.806   2.691   1.994 -3.1190 -1.2571 -3.7895
  458THF     C8 7389   3.640   2.782   2.085  0.6484  0.4333 -0.0733
  458THF     C9 7390   3.507   2.814   2.019 -0.6420  0.1935 -0.1470
  458THF    H10 7391   3.689   2.877   2.096  0.2877  0.7593 -2.5893
  458THF    H11 7392   3.628   2.725   2.184  0.4200 -0.1679  1.8019
  458THF    H12 7393   3.426   2.758   2.061  1.2161  0.6406 -1.3984
  458THF    H13 7394   3.492   2.917   2.044 -1.4871 -1.0078 -0.6345
  459THF     O1 7395   2.585   4.511   4.164 -0.1845  0.3224  0.1885
  459THF     C2 7396   2.593   4.641   4.103  0.2016 -0.1589 -0.5059
  459THF     C3 7397   2.538   4.428   4.062  0.4936  0.4119  0.2949
  459THF     H4 7398   2.663   4.713   4.162  1.9647  1.2870  2.6399
  459THF     H5 7399   2.496   4.689   4.101  1.3270 -0.5410 -1.4852
  459THF     H6 7400   2.562   4.331   4.096  0.4314  2.7370 -0.3868
  459THF     H7 7401   2.439   4.453   4.040  0.5690  1.4884 -2.0903
  459THF     C8 7402   2.634   4.464   3.954  0.7814  0.4738 -0.5405
  459THF     C9 7403   2.628   4.609   3.952  0.2889 -0.2399  1.1725
  459THF    H10 7404   2.610   4.419   3.854  1.1365 -1.8552 -1.2326
  459THF    H11 7405   2.730   4.416   3.989  1.6658 -0.5076 -0.2466
  459THF    H12 7406   2.726   4.643   3.907  0.3004 -0.7768 -0.4162
  459THF    H13 7407   2.543   4.643   3.888 -0.5898 -1.3194 -1.3111
  460THF     O1 7408   2.239   4.871   3.766 -0.1448 -0.1316 -0.4079
  460THF     C2 7409   2.248   4.889   3.905  0.2144 -0.6215  0.2817
  460THF     C3 7410   2.300   4.984   3.701  0.3550 -0.0569  0.4440
  460THF     H4 7411   2.227   4.794   3.960 -0.6057 -1.6654  2.5783
  460THF     H5 7412   2.173   4.964   3.945 -3.9623 -2.7850  0.1617
  460THF     H6 7413   2.313   4.968   3.592 -0.9197  0.2501 -1.3714
  460THF     H7 7414   2.235   5.065   3.692 -1.3033  1.1283 -0.6785
  460THF     C8 7415   2.421   5.013   3.796  0.3060 -0.3595  0.3772
  460THF     C9 7416   2.395   4.939   3.927  0.3266 -0.5669  0.2511
  460THF    H10 7417   2.431   5.113   3.822 -0.0909  0.0323 -0.2666
  460THF    H11 7418   2.511   4.989   3.756 -0.6482 -0.6231 -1.1292
  460THF    H12 7419   2.466   4.854   3.924  3.0271  2.6721  0.1650
  460THF    H13 7420   2.411   4.992   4.013  0.9815  0.3949  0.6449
  461THF     O1 7421   1.178   2.907   0.138  0.2690 -0.2139 -0.4185
  461THF     C2 7422   1.092   2.849   0.232  0.0924 -1.0671  0.2664
  461THF     C3 7423   1.097   2.961   0.038  0.8797 -0.6788  0.0414
  461THF     H4 7424   1.077   2.933   0.303  0.0847 -0.9374 -1.9254
  461THF     H5 7425   1.141   2.769   0.283 -0.4858 -1.6038 -0.4508
  461THF     H6 7426   1.053   3.053   0.068 -1.5769 -1.1056 -0.0821
  461THF     H7 7427   1.154   2.979  -0.053 -0.3598 -1.2572 -0.3578
  461THF     C8 7428   0.987   2.857   0.018  0.1680 -0.2192  0.0428
  461THF     C9 7429   0.960   2.811   0.167  0.0480 -0.1338  0.5861
  461THF    H10 7430   1.032   2.791  -0.042  2.0561  0.3132  1.8011
  461THF    H11 7431   0.904   2.894  -0.040  3.0397 -0.8703  1.1834
  461THF    H12 7432   0.880   2.857   0.216  2.1791 -0.6461  1.3004
  461THF    H13 7433   0.950   2.701   0.170 -0.7398  0.9814 -1.1149
  462THF     O1 7434   3.660   2.061   4.019  0.1077 -0.2809  0.1391
  462THF     C2 7435   3.642   2.190   4.067  0.8310 -0.2049 -0.9983
  462THF     C3 7436   3.733   1.979   4.116 -0.3493 -0.4948 -0.2002
  462THF     H4 7437   3.558   2.239   4.014 -2.5496  1.3206  1.3207
  462THF     H5 7438   3.722   2.258   4.045  1.2827 -0.6036 -1.3597
  462THF     H6 7439   3.691   1.888   4.131 -0.3482  1.1684  0.0714
  462THF     H7 7440   3.845   1.976   4.082 -0.0426 -0.4106  1.6443
  462THF     C8 7441   3.717   2.065   4.245 -1.1704 -0.5813 -0.2143
  462THF     C9 7442   3.612   2.170   4.216  0.5763  0.5327 -0.3108
  462THF    H10 7443   3.817   2.109   4.280  0.3121  1.0949 -2.4184
  462THF    H11 7444   3.688   2.013   4.331 -0.2494  2.5213 -1.0668
  462THF    H12 7445   3.508   2.121   4.222 -0.2368 -1.1324 -0.4800
  462THF    H13 7446   3.616   2.261   4.280  1.9998  0.5355 -0.1644
  463THF     O1 7447   5.280   4.622   4.620  0.0248 -0.0441  0.3232
  463THF     C2 7448   5.219   4.742   4.674 -0.4244 -0.3790 -0.1211
  463THF     C3 7449   5.289   4.526   4.721 -0.5576  0.1028  0.6157
  463THF     H4 7450   5.116   4.717   4.676  1.7670 -2.3217 -2.7236
  463THF     H5 7451   5.225   4.837   4.621 -0.3844 -2.7183  0.9354
  463THF     H6 7452   5.186   4.494   4.737 -0.4411 -0.4368 -0.0776
  463THF     H7 7453   5.343   4.428   4.714  0.5104 -0.3475  1.4064
  463THF     C8 7454   5.338   4.613   4.836 -0.2339 -0.3671 -1.1081
  463THF     C9 7455   5.264   4.742   4.821 -0.3087 -0.1634  0.1934
  463THF    H10 7456   5.443   4.636   4.817  0.8312 -0.1146  2.2236
  463THF    H11 7457   5.331   4.562   4.935  0.7673  1.3772  2.8877
  463THF    H12 7458   5.173   4.756   4.876  0.8277 -2.0948 -1.7958
  463THF    H13 7459   5.328   4.829   4.839 -0.9303  1.1287 -1.6542
  464THF     O1 7460   0.909   3.658   5.405  0.3310  0.1074 -0.0882
  464THF     C2 7461   0.981   3.737   5.505  0.2449  0.5921 -0.2070
  464THF     C3 7462   0.767   3.679   5.415  0.9716  0.6129 -0.0735
  464THF     H4 7463   0.985   3.837   5.474 -0.2421 -0.1598  0.4145
  464THF     H5 7464   1.079   3.696   5.526 -0.6973  1.2617 -1.0371
  464THF     H6 7465   0.744   3.782   5.381  0.8969 -0.5345 -2.1073
  464THF     H7 7466   0.723   3.612   5.352  1.7914  1.4483 -0.5174
  464THF     C8 7467   0.746   3.674   5.564 -0.9781  0.5831  0.2804
  464THF     C9 7468   0.878   3.728   5.623  0.2360 -0.2525 -0.6568
  464THF    H10 7469   0.736   3.566   5.583 -0.8929 -0.2574 -2.4926
  464THF    H11 7470   0.654   3.722   5.603 -0.7590  1.5382  2.0880
  464THF    H12 7471   0.859   3.827   5.650  0.5511 -1.0576 -1.0245
  464THF    H13 7472   0.916   3.693   5.719 -0.3550  0.4563 -1.2147
  465THF     O1 7473   4.648   1.370   2.019 -0.2030 -0.3734 -0.2711
  465THF     C2 7474   4.727   1.491   2.002  0.2669 -0.2544  0.2661
  465THF     C3 7475   4.590   1.335   1.892 -0.3948 -0.0184 -0.1569
  465THF     H4 7476   4.830   1.469   1.994 -2.6117 -0.1719 -2.1336
  465THF     H5 7477   4.711   1.566   2.084 -0.1108  0.8798 -2.2420
  465THF     H6 7478   4.620   1.233   1.854 -2.1199  1.2836 -1.5850
  465THF     H7 7479   4.480   1.334   1.883 -0.3122  1.3779 -1.8679
  465THF     C8 7480   4.637   1.450   1.798  0.2574 -0.3205 -0.8918
  465THF     C9 7481   4.673   1.575   1.882 -0.2761  0.2272  0.1697
  465THF    H10 7482   4.553   1.467   1.731  0.4914 -0.3372 -0.7564
  465THF    H11 7483   4.715   1.410   1.733 -1.1891 -2.9352  1.5353
  465THF    H12 7484   4.743   1.643   1.831  0.5146 -0.8319 -1.5027
  465THF    H13 7485   4.578   1.620   1.916  0.5577 -1.3810  1.1069
  466THF     O1 7486   5.150   0.004   1.578  0.6445  0.1732  0.2289
  466THF     C2 7487   5.063   0.009   1.467 -0.1406  0.3748  1.3808
  466THF     C3 7488   5.113   0.087   1.683 -0.1604  1.1767 -1.1534
  466THF     H4 7489   5.057  -0.092   1.424  0.0428  2.1604 -0.7452
  466THF     H5 7490   5.104   0.070   1.396  0.4683  2.0955  1.8591
  466THF     H6 7491   5.087   0.028   1.770  0.0645  2.0355  0.8878
  466THF     H7 7492   5.198   0.149   1.707 -0.7547  0.2839  3.2464
  466THF     C8 7493   4.992   0.171   1.626  0.9943  1.5046 -0.5207
  466THF     C9 7494   4.938   0.074   1.528 -0.5434 -0.0866  0.4148
  466THF    H10 7495   5.024   0.254   1.564 -0.8193  0.2676 -0.8444
  466THF    H11 7496   4.917   0.202   1.704 -1.0946 -1.5943 -1.1165
  466THF    H12 7497   4.890  -0.006   1.584  0.0285  0.5769 -0.5804
  466THF    H13 7498   4.873   0.118   1.449 -2.3480 -3.4673  0.3931
  467THF     O1 7499   5.106   1.727   4.049 -0.0200  0.5702 -0.5289
  467THF     C2 7500   5.144   1.603   4.003  0.5009 -0.2799  0.1130
  467THF     C3 7501   4.977   1.767   4.009  0.2743 -0.9920  0.4577
  467THF     H4 7502   5.220   1.561   4.062  1.8311  0.9796 -0.8684
  467THF     H5 7503   5.165   1.591   3.900 -0.0834 -0.9954  0.5326
  467THF     H6 7504   4.951   1.854   4.072 -2.7026  1.6367  1.2221
  467THF     H7 7505   4.976   1.805   3.904 -2.8255 -0.3139 -0.1236
  467THF     C8 7506   4.898   1.639   4.024 -0.6731 -0.6336 -0.9632
  467THF     C9 7507   5.006   1.534   4.027  0.2654  0.1218  0.4271
  467THF    H10 7508   4.836   1.635   3.933  0.8943  1.8221  0.6988
  467THF    H11 7509   4.834   1.641   4.114  0.7086  0.1614 -0.2914
  467THF    H12 7510   5.002   1.480   4.124 -1.2386 -0.6710  0.6411
  467THF    H13 7511   4.994   1.460   3.951  1.6227 -0.1671  0.1676
  468THF     O1 7512   3.199   3.626   3.208 -0.0516  0.1248  0.3437
  468THF     C2 7513   3.062   3.603   3.199  0.2066  0.4622  0.6905
  468THF     C3 7514   3.272   3.504   3.204  0.0925 -0.2312 -0.1412
  468THF     H4 7515   3.017   3.682   3.132 -1.5447 -0.2081 -0.8657
  468THF     H5 7516   3.013   3.610   3.295  3.1494  0.1236 -3.5103
  468THF     H6 7517   3.372   3.517   3.154 -0.1170 -1.7221  0.1519
  468THF     H7 7518   3.288   3.473   3.308 -2.5096  0.3630  0.7596
  468THF     C8 7519   3.176   3.412   3.121  0.3983  0.3821 -0.2433
  468THF     C9 7520   3.040   3.483   3.116  0.1119  0.1903  0.1395
  468THF    H10 7521   3.164   3.310   3.164  0.7530 -0.4535  2.0110
  468THF    H11 7522   3.216   3.402   3.018 -2.8236  0.6159  1.7161
  468THF    H12 7523   3.022   3.518   3.016  0.1437  2.1130 -0.7742
  468THF    H13 7524   2.961   3.419   3.146  0.8950  0.2291 -0.5178
  469THF     O1 7525   1.987   0.492   2.430 -0.2556 -0.1637 -0.2569
  469THF     C2 7526   1.901   0.455   2.322 -0.7155  0.6422 -0.6264
  469THF     C3 7527   2.029   0.628   2.406  0.9059 -0.0949  0.1871
  469THF     H4 7528   1.792   0.466   2.342 -1.2611  0.2941  1.4830
  469THF     H5 7529   1.928   0.349   2.308  0.3771 -2.7475  2.3798
  469THF     H6 7530   1.953   0.706   2.418  0.3552  1.8189 -1.6496
  469THF     H7 7531   2.114   0.654   2.463 -0.1821 -1.4086 -2.0707
  469THF     C8 7532   2.057   0.625   2.254 -0.0511 -0.5065 -0.0441
  469THF     C9 7533   1.943   0.532   2.194 -0.6847 -0.0950  0.2029
  469THF    H10 7534   2.153   0.574   2.238  0.8828  0.3509  0.3802
  469THF    H11 7535   2.072   0.721   2.221 -0.1399 -0.1950  0.2977
  469THF    H12 7536   1.864   0.594   2.154  1.5632  1.3623  1.2171
  469THF    H13 7537   1.986   0.461   2.113  1.1329 -1.5381 -3.0114
  470THF     O1 7538   5.390   1.088   0.674  0.4119  0.2148  0.3856
  470THF     C2 7539   5.430   0.991   0.574 -0.2392 -0.3061 -0.1287
  470THF     C3 7540   5.384   1.214   0.607  0.2042  0.4846 -0.0992
  470THF     H4 7541   5.330   0.951   0.545 -2.1116  3.0096  1.6721
  470THF     H5 7542   5.502   0.927   0.628 -1.0172 -0.5336 -0.6322
  470THF     H6 7543   5.288   1.235   0.557  2.2008 -0.5286  4.3678
  470THF     H7 7544   5.396   1.291   0.682 -0.1066 -1.3067 -0.9581
  470THF     C8 7545   5.504   1.214   0.512  0.0194 -0.2262  0.2239
  470THF     C9 7546   5.495   1.072   0.462  1.1808 -0.3219 -0.4362
  470THF    H10 7547   5.588   1.226   0.577  0.9172  1.9304 -0.2499
  470THF    H11 7548   5.490   1.297   0.437  0.0038 -0.8792 -0.8744
  470THF    H12 7549   5.420   1.070   0.379 -0.1899 -2.7998 -1.2374
  470THF    H13 7550   5.593   1.035   0.435 -0.0543 -0.4703  0.4360
  471THF     O1 7551   0.163   4.933   3.770  0.4341  0.8162  0.0774
  471THF     C2 7552   0.258   4.833   3.744  0.9731 -0.1809 -0.4704
  471THF     C3 7553   0.216   5.000   3.876  0.0302  0.1403 -0.5382
  471THF     H4 7554   0.359   4.870   3.708  1.4720  1.3835  1.0781
  471THF     H5 7555   0.226   4.758   3.673 -0.9301  2.0243  1.1522
  471THF     H6 7556   0.299   5.057   3.838  0.9602 -0.3421  2.1819
  471THF     H7 7557   0.149   5.063   3.934 -0.9583  0.7004  0.0536
  471THF     C8 7558   0.284   4.896   3.970 -0.7197 -0.9146  0.7009
  471THF     C9 7559   0.271   4.773   3.884  0.5128 -0.3188  0.1111
  471THF    H10 7560   0.223   4.885   4.068 -4.4622  2.5552  0.9074
  471THF    H11 7561   0.382   4.930   3.997  2.0721 -2.5554  0.0457
  471THF    H12 7562   0.337   4.691   3.893 -0.8896  0.0598  1.1478
  471THF    H13 7563   0.173   4.728   3.915 -0.7563 -0.5780 -0.7895
  472THF     O1 7564   4.592   2.627   3.896  0.7977 -0.2388  0.2306
  472THF     C2 7565   4.625   2.496   3.908 -0.2672 -0.0464 -0.2298
  472THF     C3 7566   4.713   2.705   3.885 -0.2668  0.3309  0.1954
  472THF     H4 7567   4.664   2.453   3.814 -0.7855  3.4442  0.5548
  472THF     H5 7568   4.545   2.433   3.942 -1.1698  0.8601  1.4644
  472THF     H6 7569   4.760   2.699   3.791 -0.1121 -2.1503  1.8632
  472THF     H7 7570   4.690   2.811   3.897  2.1020 -0.5537  1.6885
  472THF     C8 7571   4.797   2.645   3.998  0.2957 -0.1089 -0.1498
  472THF     C9 7572   4.732   2.511   4.011  0.5894  0.4961 -0.0604
  472THF    H10 7573   4.787   2.693   4.088 -1.0368  0.7545 -1.0634
  472THF    H11 7574   4.902   2.643   3.959 -3.0382  0.0593 -0.8178
  472THF    H12 7575   4.803   2.427   4.004  0.1026 -0.8715 -0.4175
  472THF    H13 7576   4.693   2.493   4.108  1.9717  0.2407  0.6302
  473THF     O1 7577   1.618   3.336   1.173  0.6572 -1.0446  0.0051
  473THF     C2 7578   1.692   3.466   1.184 -0.7536  0.4664 -0.2513
  473THF     C3 7579   1.565   3.308   1.301  0.0193 -0.7761 -0.3464
  473THF     H4 7580   1.678   3.534   1.107 -2.1107 -2.2077  1.0866
  473THF     H5 7581   1.792   3.441   1.179  2.4306 -0.8950 -0.8094
  473THF     H6 7582   1.478   3.249   1.316 -3.3264  0.9437 -0.3071
  473THF     H7 7583   1.644   3.266   1.355 -1.7216  0.3650 -0.6369
  473THF     C8 7584   1.533   3.449   1.363  0.0036  0.0623 -0.2057
  473THF     C9 7585   1.652   3.535   1.312 -0.7399 -0.6420 -0.4804
  473THF    H10 7586   1.511   3.438   1.462 -0.1641  1.0621 -1.7400
  473THF    H11 7587   1.444   3.486   1.317  1.1510 -0.0219  2.1962
  473THF    H12 7588   1.619   3.636   1.300 -0.6391 -2.2911  0.1253
  473THF    H13 7589   1.729   3.538   1.390  1.3552  0.1845  1.8442
  474THF     O1 7590   1.997   3.716   3.404  0.5118  0.2007  0.2182
  474THF     C2 7591   1.972   3.674   3.533 -0.1793 -0.0568  0.2741
  474THF     C3 7592   2.048   3.610   3.321  0.0736  0.0950  0.8083
  474THF     H4 7593   1.911   3.744   3.590  0.0605 -3.7764  0.3678
  474THF     H5 7594   2.069   3.663   3.579 -0.5738 -1.3687  0.3343
  474THF     H6 7595   2.031   3.633   3.214  1.7237 -1.2599 -2.1434
  474THF     H7 7596   2.156   3.591   3.339  0.6330  0.2839  1.0142
  474THF     C8 7597   1.965   3.492   3.368 -0.1441 -0.4372  0.1078
  474THF     C9 7598   1.911   3.539   3.501 -1.0200  0.0704 -0.0412
  474THF    H10 7599   2.013   3.396   3.369 -0.8639 -0.4542 -2.2725
  474THF    H11 7600   1.888   3.475   3.294 -3.0259  0.6724  1.2237
  474THF    H12 7601   1.805   3.552   3.503  1.9688  3.2178 -1.1572
  474THF    H13 7602   1.920   3.470   3.582 -1.5797 -0.9746  3.3861
  475THF     O1 7603   2.450   0.242   4.827 -0.2855 -0.3500  0.1491
  475THF     C2 7604   2.416   0.169   4.937  0.3697 -0.6343 -0.7983
  475THF     C3 7605   2.341   0.319   4.778 -0.3689  0.2726  0.1256
  475THF     H4 7606   2.443   0.223   5.032 -1.9613  1.6978  1.9039
  475THF     H5 7607   2.467   0.075   4.942  1.6981 -0.3397 -0.7651
  475THF     H6 7608   2.381   0.415   4.762 -0.4064  0.5083 -0.8789
  475THF     H7 7609   2.303   0.277   4.678 -0.2809  0.4404  0.0253
  475THF     C8 7610   2.235   0.319   4.887 -0.4435  0.1495  0.6689
  475THF     C9 7611   2.260   0.179   4.940 -0.1936  0.4301  0.1967
  475THF    H10 7612   2.145   0.337   4.832 -0.7155  0.3742 -0.2041
  475THF    H11 7613   2.250   0.401   4.956 -0.7919 -1.5682 -2.1906
  475THF    H12 7614   2.203   0.166   5.032  1.1830 -1.2395 -0.0676
  475THF    H13 7615   2.222   0.102   4.872 -0.0749 -1.9412  1.7719
  476THF     O1 7616   5.026   2.022   5.024  0.4557  0.2968 -0.4544
  476THF     C2 7617   4.953   2.135   5.062 -0.1852  0.4503  0.1495
  476THF     C3 7618   5.140   2.062   4.949  0.1728  0.3892  0.2147
  476THF     H4 7619   4.915   2.104   5.158 -1.3007 -2.0776 -0.2355
  476THF     H5 7620   4.873   2.170   4.989  0.3821 -2.0598 -2.1231
  476THF     H6 7621   5.218   1.988   4.975  3.5423  0.4280  2.2400
  476THF     H7 7622   5.124   2.061   4.842 -3.4716 -1.3392  0.4342
  476THF     C8 7623   5.172   2.199   4.989  0.3379 -0.1341 -0.5874
  476THF     C9 7624   5.063   2.236   5.098 -0.2283  0.2361  0.3093
  476THF    H10 7625   5.181   2.263   4.903 -0.4918 -2.3734 -0.6797
  476THF    H11 7626   5.264   2.213   5.048 -1.1641 -1.8648  2.7181
  476THF    H12 7627   5.093   2.226   5.198  2.2736 -0.0205 -0.3936
  476THF    H13 7628   5.032   2.339   5.077  2.3055  0.1292  0.5289
  477THF     O1 7629   3.991   1.182   2.107  0.7309  0.1690 -0.1350
  477THF     C2 7630   4.065   1.122   2.210  0.3276  0.0545 -0.5845
  477THF     C3 7631   4.074   1.272   2.036 -0.2441  0.0931 -0.1604
  477THF     H4 7632   4.109   1.036   2.155 -1.7521 -1.9710 -2.6097
  477THF     H5 7633   3.977   1.096   2.270 -1.8120  0.8586  0.4868
  477THF     H6 7634   4.136   1.220   1.960  0.8694  0.4609  0.0281
  477THF     H7 7635   4.009   1.339   1.983 -1.9673  0.8053 -0.0007
  477THF     C8 7636   4.164   1.333   2.144 -0.2291  0.2297  0.3540
  477THF     C9 7637   4.171   1.230   2.255  0.0265 -0.4643  0.3173
  477THF    H10 7638   4.104   1.415   2.183 -1.2056 -1.9593  0.0740
  477THF    H11 7639   4.255   1.363   2.093 -4.9039 -0.0542 -2.4793
  477THF    H12 7640   4.274   1.191   2.273  0.9884  0.2406  1.5739
  477THF    H13 7641   4.136   1.287   2.342 -1.1031  1.6356  1.4203
  478THF     O1 7642   1.640   0.074   0.363  0.3777 -0.7498  0.1379
  478THF     C2 7643   1.547  -0.008   0.295  0.0730 -0.3803  0.1422
  478THF     C3 7644   1.594   0.122   0.492 -0.7390 -0.5863 -0.5743
  478THF     H4 7645   1.602  -0.062   0.207 -0.2445 -1.8134 -2.0085
  478THF     H5 7646   1.480   0.066   0.256 -0.6395 -0.7727 -1.8199
  478THF     H6 7647   1.675   0.113   0.560  0.4410 -6.0388  0.9659
  478THF     H7 7648   1.537   0.214   0.495 -0.3789  0.4307  3.3886
  478THF     C8 7649   1.492   0.016   0.532 -0.7331 -0.4829 -0.1441
  478THF     C9 7650   1.504  -0.090   0.421 -0.2393 -0.7514  0.0787
  478THF    H10 7651   1.397   0.069   0.523  1.1936  0.7551  0.7907
  478THF    H11 7652   1.508  -0.016   0.640  0.7778 -2.4579 -0.3972
  478THF    H12 7653   1.583  -0.163   0.449 -0.0226 -0.6078  1.1072
  478THF    H13 7654   1.410  -0.138   0.396 -0.4667  0.8104  0.5255
  479THF     O1 7655   1.220   1.758   0.507 -0.0244  0.1065 -0.5490
  479THF     C2 7656   1.345   1.689   0.496 -0.0134 -0.4964 -0.6515
  479THF     C3 7657   1.204   1.864   0.415  0.2056 -0.5348 -1.0838
  479THF     H4 7658   1.334   1.580   0.500  0.2736 -1.6974  0.5764
  479THF     H5 7659   1.405   1.721   0.580 -0.7578 -1.8433 -1.1930
  479THF     H6 7660   1.113   1.858   0.350  0.1850  2.8989 -2.0200
  479THF     H7 7661   1.180   1.950   0.472  2.6578 -1.1919 -1.4453
  479THF     C8 7662   1.341   1.865   0.346  0.1745  0.5441  0.8089
  479THF     C9 7663   1.405   1.729   0.357  0.3072 -0.1589 -0.0596
  479THF    H10 7664   1.395   1.951   0.395 -0.1169 -1.3829 -0.1365
  479THF    H11 7665   1.324   1.886   0.239  2.2869  0.5704 -2.0585
  479THF    H12 7666   1.356   1.664   0.286  0.5158  0.3026  0.6284
  479THF    H13 7667   1.512   1.727   0.346  2.2784 -2.2488 -0.4549
  480THF     O1 7668   5.260   2.515   1.112 -0.4178 -0.1542  0.0554
  480THF     C2 7669   5.187   2.594   1.012 -0.2443 -0.5371  0.0018
  480THF     C3 7670   5.182   2.514   1.229  0.3726  0.1787  0.3606
  480THF     H4 7671   5.099   2.539   0.981 -0.4294 -1.7809 -0.4615
  480THF     H5 7672   5.259   2.622   0.936 -1.8291 -1.4557  0.5058
  480THF     H6 7673   5.091   2.456   1.222  1.1683 -0.8997 -1.5673
  480THF     H7 7674   5.217   2.486   1.331 -0.0518 -1.8672 -0.7628
  480THF     C8 7675   5.145   2.660   1.237  0.1519  0.1174 -0.4353
  480THF     C9 7676   5.129   2.708   1.094  0.4615 -0.0685 -0.4280
  480THF    H10 7677   5.223   2.719   1.281 -4.5198  1.3552 -1.2229
  480THF    H11 7678   5.059   2.665   1.299 -0.7508 -1.7216 -0.4468
  480THF    H12 7679   5.024   2.717   1.077  1.8906  1.4121  2.4683
  480THF    H13 7680   5.185   2.804   1.087  1.1290  1.1295  0.3865
  481THF     O1 7681   5.369   4.385   3.526 -0.1766 -0.4510  0.7472
  481THF     C2 7682   5.302   4.363   3.646 -0.2518  0.0189  0.4463
  481THF     C3 7683   5.336   4.514   3.477  0.4279 -0.0089 -0.1208
  481THF     H4 7684   5.355   4.284   3.709  0.9421 -1.1788  0.1659
  481THF     H5 7685   5.200   4.333   3.634 -0.9103  0.9800  0.9897
  481THF     H6 7686   5.404   4.547   3.396  2.8554 -0.7037  1.0080
  481THF     H7 7687   5.237   4.537   3.446  2.2479  3.0755 -0.0351
  481THF     C8 7688   5.361   4.594   3.604  0.4332 -0.4856  0.4751
  481THF     C9 7689   5.314   4.503   3.715 -0.3117 -0.5222  0.0746
  481THF    H10 7690   5.300   4.690   3.597  0.7385  3.0263 -1.5544
  481THF    H11 7691   5.468   4.612   3.610 -0.2798 -0.9400 -0.4228
  481THF    H12 7692   5.389   4.510   3.789  0.9402  0.7154 -1.1643
  481THF    H13 7693   5.227   4.548   3.758  0.0033  4.3873 -4.1990
  482THF     O1 7694   1.405   5.432   2.239  0.5450 -0.0487 -0.5323
  482THF     C2 7695   1.312   5.519   2.175 -0.0472 -0.2265 -0.1427
  482THF     C3 7696   1.456   5.507   2.348 -0.7442  0.8859 -0.0146
  482THF     H4 7697   1.204   5.512   2.200 -4.9729  0.4789 -0.4397
  482THF     H5 7698   1.314   5.492   2.073 -0.9821  1.6992  3.0841
  482THF     H6 7699   1.376   5.487   2.426  0.1518 -0.9805  0.1516
  482THF     H7 7700   1.549   5.464   2.376  0.4548  0.5622  1.1442
  482THF     C8 7701   1.480   5.649   2.298 -0.9819  0.7199  0.3837
  482THF     C9 7702   1.371   5.659   2.197 -0.3122 -0.3067  0.2219
  482THF    H10 7703   1.581   5.669   2.256 -1.6330  0.3020 -0.9236
  482THF    H11 7704   1.467   5.707   2.382  0.1735 -2.1512  0.3638
  482THF    H12 7705   1.292   5.727   2.224 -0.1606 -0.7050  0.5371
  482THF    H13 7706   1.411   5.692   2.104 -0.7031  3.0885 -0.9019
  483THF     O1 7707   2.112   2.967   3.009 -0.1515  0.3895  0.6581
  483THF     C2 7708   2.014   3.026   2.930 -0.2623 -0.2951  0.6131
  483THF     C3 7709   2.144   3.047   3.122 -0.2033 -0.3318 -0.2173
  483THF     H4 7710   1.980   2.965   2.845 -1.1988  0.7145  0.2810
  483THF     H5 7711   2.069   3.111   2.890 -0.8500  1.0751  3.1428
  483THF     H6 7712   2.196   2.987   3.197 -0.2441 -2.1585 -2.2788
  483THF     H7 7713   2.213   3.126   3.092  1.7909 -0.3436 -1.0357
  483THF     C8 7714   2.001   3.084   3.167  0.2773  0.0019 -0.1833
  483THF     C9 7715   1.915   3.084   3.035 -0.1713  0.2152 -0.1736
  483THF    H10 7716   1.991   3.186   3.210  0.1349  2.0551 -2.1702
  483THF    H11 7717   1.961   3.010   3.240 -1.5253 -0.3239  1.6882
  483THF    H12 7718   1.825   3.024   3.052  1.3031  1.9696  2.0469
  483THF    H13 7719   1.890   3.192   3.009  0.0051  2.2090  1.7581
  484THF     O1 7720   1.269   2.634   4.638  1.0327 -0.4316 -0.2026
  484THF     C2 7721   1.177   2.725   4.704 -0.0891  0.0216  0.5630
  484THF     C3 7722   1.234   2.507   4.672  0.3396  0.0523 -0.1910
  484THF     H4 7723   1.183   2.832   4.669  0.8420 -1.1687 -3.6148
  484THF     H5 7724   1.178   2.718   4.810  0.5264 -0.4352 -0.9586
  484THF     H6 7725   1.280   2.442   4.599  1.1752  1.3636 -0.8800
  484THF     H7 7726   1.266   2.496   4.778 -2.4999 -2.7019  0.9483
  484THF     C8 7727   1.088   2.512   4.677  0.7915 -0.2640  0.0641
  484THF     C9 7728   1.043   2.652   4.678  0.3523  0.0885 -0.0029
  484THF    H10 7729   1.052   2.464   4.775 -5.6823 -0.7394  0.4827
  484THF    H11 7730   1.042   2.458   4.596  2.6712  1.3536  1.8986
  484THF    H12 7731   1.017   2.672   4.577  1.9684 -0.5174 -1.5898
  484THF    H13 7732   0.959   2.662   4.747 -1.0247  0.1093  2.0173
  485THF     O1 7733   1.018   4.603   1.965 -0.2414  0.0608 -0.5082
  485THF     C2 7734   1.029   4.743   1.990  0.3632 -0.2596  0.5054
  485THF     C3 7735   1.082   4.579   1.842  0.1090 -0.6026  0.1243
  485THF     H4 7736   1.125   4.777   2.022  0.9161  4.8212  1.3883
  485THF     H5 7737   0.957   4.766   2.073 -0.4828 -0.7812  1.2150
  485THF     H6 7738   1.186   4.554   1.848  0.5065 -3.3721  0.5076
  485THF     H7 7739   1.046   4.490   1.792  0.8682 -1.5834 -0.3026
  485THF     C8 7740   1.062   4.701   1.760 -0.7527  0.0911 -0.0452
  485THF     C9 7741   0.993   4.795   1.857 -0.8098 -0.4352 -0.3950
  485THF    H10 7742   1.004   4.679   1.674  2.9621 -0.1218  1.2069
  485THF    H11 7743   1.161   4.745   1.739  1.8554 -0.8477  1.0741
  485THF    H12 7744   1.014   4.902   1.848  0.3360  0.5474  2.6513
  485THF    H13 7745   0.880   4.786   1.863  1.8447 -1.7076  3.2240
  486THF     O1 7746   3.796   3.009   1.094  0.0067 -0.2956  0.8107
  486THF     C2 7747   3.913   3.090   1.116  0.0940  0.3360  0.5994
  486THF     C3 7748   3.845   2.879   1.074  0.6746 -0.1729  0.1352
  486THF     H4 7749   3.956   3.089   1.215 -0.1883  1.7943  0.4192
  486THF     H5 7750   3.886   3.192   1.097  0.1378  0.2555  0.5139
  486THF     H6 7751   3.875   2.834   1.166 -2.1798  1.7765 -2.0814
  486THF     H7 7752   3.768   2.818   1.024 -1.6185  1.8845 -1.5429
  486THF     C8 7753   3.953   2.899   0.965 -0.4154 -1.0630  0.8231
  486THF     C9 7754   4.015   3.034   1.011  0.2820  0.0632 -0.1991
  486THF    H10 7755   3.910   2.920   0.860  2.2251  0.5199 -0.7528
  486THF    H11 7756   4.025   2.819   0.957 -1.9415 -0.7223 -2.5159
  486THF    H12 7757   4.111   3.023   1.061  2.3836  1.3464 -0.7490
  486THF    H13 7758   4.031   3.091   0.924  1.0869 -4.3253 -0.2854
  487THF     O1 7759   5.275   2.690   0.444  0.0137 -0.4828  0.1592
  487THF     C2 7760   5.186   2.696   0.551 -0.5598  0.9787  0.3117
  487THF     C3 7761   5.313   2.555   0.439  0.0223 -0.1699  0.2451
  487THF     H4 7762   5.118   2.777   0.527  1.0506 -0.9919  1.3361
  487THF     H5 7763   5.247   2.720   0.642 -0.3179  0.5013 -0.2659
  487THF     H6 7764   5.367   2.530   0.349 -0.0467 -2.4297  1.8230
  487THF     H7 7765   5.373   2.532   0.523 -3.2072  2.0046  1.7932
  487THF     C8 7766   5.181   2.481   0.449 -0.6486  0.4192  0.0416
  487THF     C9 7767   5.104   2.557   0.554  0.7919  0.0834  0.9233
  487THF    H10 7768   5.192   2.380   0.490 -0.9512 -3.4208 -1.3657
  487THF    H11 7769   5.127   2.481   0.350 -0.3363 -0.4571  1.6254
  487THF    H12 7770   4.999   2.565   0.518  1.8736  2.4994 -0.5374
  487THF    H13 7771   5.115   2.511   0.652  1.2720 -0.2889  0.3257
  488THF     O1 7772   2.548   0.836   1.451  0.0108  0.4863  0.7663
  488THF     C2 7773   2.408   0.848   1.426  0.3153 -0.2631  0.8938
  488THF     C3 7774   2.607   0.823   1.324  0.1506  0.2995  0.1408
  488THF     H4 7775   2.357   0.875   1.515  3.4397 -3.1444 -1.6273
  488THF     H5 7776   2.351   0.763   1.381 -0.0857  0.0181 -0.1500
  488THF     H6 7777   2.717   0.815   1.330 -0.6135 -2.7103  0.1711
  488THF     H7 7778   2.565   0.731   1.282  1.7584 -0.3803  2.0360
  488THF     C8 7779   2.549   0.935   1.244 -1.0539 -1.2675 -0.4958
  488THF     C9 7780   2.421   0.965   1.328  0.0387 -0.3443 -0.3055
  488THF    H10 7781   2.534   0.922   1.135 -0.6166  2.7565 -1.0389
  488THF    H11 7782   2.623   1.017   1.248  0.5930 -0.1039  0.6187
  488THF    H12 7783   2.425   1.058   1.384  0.3016  0.9478  0.8338
  488THF    H13 7784   2.337   0.973   1.260 -1.5495 -1.2826  0.4948
  489THF     O1 7785   0.139   4.820   3.241  0.3194 -0.4362 -0.2355
  489THF     C2 7786   0.005   4.817   3.178  0.5858 -0.6771  0.1487
  489THF     C3 7787   0.219   4.905   3.165  1.0651 -0.0260  0.6587
  489THF     H4 7788  -0.064   4.858   3.244  1.2201  0.1742  0.3256
  489THF     H5 7789  -0.031   4.716   3.165  1.9618 -1.7520 -0.1753
  489THF     H6 7790   0.198   5.004   3.200  0.8598 -0.8166  0.9952
  489THF     H7 7791   0.327   4.883   3.162 -0.8732 -2.7860  0.0531
  489THF     C8 7792   0.159   4.885   3.022 -0.1231 -0.6030 -0.4190
  489THF     C9 7793   0.014   4.896   3.043 -0.1410  0.0161 -0.0960
  489THF    H10 7794   0.190   4.788   2.982 -2.6089 -2.8371 -4.1166
  489THF    H11 7795   0.196   4.965   2.955  0.0877  0.7159  0.3903
  489THF    H12 7796  -0.038   4.991   3.049  0.0365 -1.2619  1.5951
  489THF    H13 7797  -0.042   4.845   2.968  1.5773 -0.0941  0.5225
  490THF     O1 7798   1.742   2.888   2.296 -0.0237  0.4104 -0.4602
  490THF     C2 7799   1.745   2.962   2.417  0.1888  0.9609 -0.2430
  490THF     C3 7800   1.872   2.826   2.269 -0.2708  0.0348 -0.2411
  490THF     H4 7801   1.737   2.881   2.492  1.5537 -1.7314  1.3397
  490THF     H5 7802   1.677   3.039   2.437  0.5618 -3.3125 -0.5410
  490THF     H6 7803   1.867   2.720   2.264 -0.0921  0.0161 -2.1035
  490THF     H7 7804   1.915   2.864   2.175  1.0931 -2.4987 -1.1593
  490THF     C8 7805   1.965   2.887   2.377 -0.1652 -0.7190 -0.1387
  490THF     C9 7806   1.888   3.005   2.429 -0.1436 -0.7854 -0.3320
  490THF    H10 7807   2.068   2.902   2.333  2.2138 -1.5198  1.1307
  490THF    H11 7808   2.003   2.815   2.457  0.4932 -1.4466  3.7264
  490THF    H12 7809   1.926   3.034   2.527  0.1480  1.0744  0.5740
  490THF    H13 7810   1.899   3.092   2.363 -2.3041 -0.6107 -0.7198
  491THF     O1 7811   0.181   1.668   0.621  0.0842 -0.0460  0.2923
  491THF     C2 7812   0.114   1.540   0.634 -0.4368 -0.6936 -0.3851
  491THF     C3 7813   0.100   1.769   0.674 -0.1308  0.1359 -0.4034
  491THF     H4 7814   0.122   1.505   0.730  2.5088 -0.2064 -0.8901
  491THF     H5 7815   0.158   1.462   0.571 -3.7834 -1.3660  0.4754
  491THF     H6 7816   0.106   1.770   0.778 -4.6982 -0.9983 -1.3062
  491THF     H7 7817   0.136   1.859   0.632  0.6440  0.2185  0.5526
  491THF     C8 7818  -0.038   1.732   0.619 -0.2280 -0.2449  0.2879
  491THF     C9 7819  -0.030   1.578   0.595  0.3087  0.1974 -0.3043
  491THF    H10 7820  -0.051   1.770   0.517  1.0908  0.4055  0.6014
  491THF    H11 7821  -0.118   1.751   0.690 -1.5188 -0.6930  2.4340
  491THF    H12 7822  -0.095   1.522   0.653 -0.2476 -1.4702 -0.4723
  491THF    H13 7823  -0.053   1.545   0.497 -3.2142 -0.0567 -1.3857
  492THF     O1 7824   1.889   2.000   1.037  0.1188 -0.6877  0.2576
  492THF     C2 7825   1.814   1.936   1.132  0.1665  0.1931  0.2009
  492THF     C3 7826   1.821   2.126   1.017 -1.0597 -0.2200  0.0629
  492THF     H4 7827   1.836   1.973   1.231  1.5288  1.3142 -1.2443
  492THF     H5 7828   1.837   1.832   1.122 -0.6977  0.0033  1.0756
  492THF     H6 7829   1.836   2.195   1.090 -0.0013 -3.4891 -1.2241
  492THF     H7 7830   1.869   2.167   0.927 -0.5971 -0.8126  1.7444
  492THF     C8 7831   1.680   2.099   1.014  0.6563  0.3248 -0.0129
  492THF     C9 7832   1.670   1.965   1.087  0.8450  0.3446  0.5281
  492THF    H10 7833   1.655   2.074   0.910 -1.3326 -1.9963  0.4271
  492THF    H11 7834   1.628   2.173   1.062 -0.6840 -0.8825  1.1928
  492THF    H12 7835   1.609   1.989   1.173  0.4791  0.7892  1.3673
  492THF    H13 7836   1.610   1.887   1.030 -3.4679 -1.4027  1.3373
  493THF     O1 7837   0.752   0.604   0.431 -0.4933  0.4875  0.0870
  493THF     C2 7838   0.746   0.744   0.445  0.5487 -0.9473  0.5267
  493THF     C3 7839   0.870   0.567   0.504  0.7615 -0.2283  0.0868
  493THF     H4 7840   0.645   0.797   0.424 -3.5468 -2.4058 -0.1771
  493THF     H5 7841   0.821   0.785   0.374  2.8618 -0.0218  0.8439
  493THF     H6 7842   0.866   0.464   0.537 -1.2379 -1.5054 -2.1976
  493THF     H7 7843   0.947   0.567   0.417  2.1577  3.4270 -0.6175
  493THF     C8 7844   0.896   0.672   0.616 -0.2330  0.0924  0.0725
  493THF     C9 7845   0.795   0.775   0.582 -0.0722  0.4880 -0.7145
  493THF    H10 7846   0.995   0.714   0.593 -1.0792  1.4600 -2.6391
  493THF    H11 7847   0.893   0.639   0.715 -0.0964 -1.8756 -0.8060
  493THF    H12 7848   0.712   0.773   0.660 -0.3171  0.7359 -1.6840
  493THF    H13 7849   0.841   0.870   0.593  0.3230 -2.6546 -0.2645
  494THF     O1 7850   3.767   2.175   2.256  0.3812  0.3290 -0.0050
  494THF     C2 7851   3.723   2.298   2.205 -0.2933  0.6181  0.2771
  494THF     C3 7852   3.673   2.133   2.353  1.0232 -0.0304 -0.5107
  494THF     H4 7853   3.643   2.276   2.132 -1.0547 -0.6379 -0.4858
  494THF     H5 7854   3.794   2.364   2.153  1.6247 -2.6524 -0.3974
  494THF     H6 7855   3.588   2.078   2.305 -0.4491  0.2159  3.5669
  494THF     H7 7856   3.719   2.070   2.424  0.6446 -2.0201 -0.2975
  494THF     C8 7857   3.617   2.257   2.417 -0.6780 -0.0432 -0.1181
  494THF     C9 7858   3.660   2.367   2.325  1.0207 -0.2673 -0.3353
  494THF    H10 7859   3.641   2.263   2.527  1.9515 -1.1136  2.6625
  494THF    H11 7860   3.508   2.259   2.412 -0.7385 -1.6306 -0.5610
  494THF    H12 7861   3.582   2.425   2.286  2.2815 -0.7076  1.0664
  494THF    H13 7862   3.731   2.437   2.373 -1.7789 -0.5814  1.1879
  495THF     O1 7863   4.780   5.472   3.004  0.5160  0.2096 -0.0952
  495THF     C2 7864   4.726   5.345   3.020 -0.5791  0.9290 -0.2384
  495THF     C3 7865   4.726   5.524   2.881 -0.4335 -0.3442 -0.5489
  495THF     H4 7866   4.744   5.312   3.121  1.3339  1.2784  1.3997
  495THF     H5 7867   4.775   5.275   2.961 -2.2468  3.0275 -1.4908
  495THF     H6 7868   4.755   5.626   2.878 -2.7474  0.3383  1.3256
  495THF     H7 7869   4.754   5.469   2.794  0.9527  0.7252 -0.5394
  495THF     C8 7870   4.577   5.493   2.901  0.0808  0.2555  0.5377
  495THF     C9 7871   4.583   5.365   2.975  0.1809 -0.1788  0.3726
  495THF    H10 7872   4.527   5.490   2.806 -0.5762  0.9840 -0.0021
  495THF    H11 7873   4.529   5.570   2.965 -0.2427  1.2150 -0.3949
  495THF    H12 7874   4.524   5.373   3.068 -0.6678 -0.3409  2.0937
  495THF    H13 7875   4.542   5.280   2.924 -0.4670  3.7246  3.8876
  496THF     O1 7876   1.666   2.391   0.900  0.2696 -0.2160  0.5152
  496THF     C2 7877   1.769   2.486   0.871  0.1130  0.5150  1.0417
  496THF     C3 7878   1.543   2.465   0.910 -0.8989  0.2402 -0.2698
  496THF     H4 7879   1.758   2.514   0.765 -2.9741 -1.4853 -2.1499
  496THF     H5 7880   1.857   2.429   0.894 -1.1449  0.2128  1.8148
  496THF     H6 7881   1.492   2.484   0.814  1.4948  2.4347 -4.3864
  496THF     H7 7882   1.466   2.414   0.965  0.3229 -1.1833  1.1862
  496THF     C8 7883   1.591   2.593   0.974  1.1832  0.7386 -0.1188
  496THF     C9 7884   1.744   2.602   0.966 -0.2271  0.0748  1.4206
  496THF    H10 7885   1.557   2.595   1.078 -0.5941  0.4707  0.7467
  496THF    H11 7886   1.539   2.671   0.919  1.2497  0.4268  0.7897
  496THF    H12 7887   1.781   2.696   0.928 -1.6783 -0.5880 -0.5055
  496THF    H13 7888   1.782   2.572   1.062  0.9370 -3.6850 -1.3763
  497THF     O1 7889   1.464   2.422   5.359  0.3653 -0.1394  0.0117
  497THF     C2 7890   1.520   2.479   5.473  0.5836 -0.4117 -0.6700
  497THF     C3 7891   1.339   2.484   5.337  0.0038  0.4918 -0.1733
  497THF     H4 7892   1.632   2.488   5.490  1.2658 -0.3684  3.8209
  497THF     H5 7893   1.474   2.416   5.549  0.6215 -2.3440 -0.4673
  497THF     H6 7894   1.303   2.476   5.234 -2.3148  1.0857  2.2668
  497THF     H7 7895   1.265   2.428   5.396 -0.3507  1.6934  0.2817
  497THF     C8 7896   1.357   2.623   5.386 -0.0077  0.2200  0.3139
  497THF     C9 7897   1.466   2.619   5.489 -0.7869 -0.2497  0.2041
  497THF    H10 7898   1.265   2.666   5.421  0.3376  0.6345  1.2753
  497THF    H11 7899   1.396   2.693   5.308 -3.0134 -1.6962 -2.3954
  497THF    H12 7900   1.547   2.699   5.469 -0.1251  1.1200 -0.5331
  497THF    H13 7901   1.427   2.628   5.594  0.3095  0.6244  2.1262
  498THF     O1 7902   0.182   0.758   2.319  0.3415 -0.9681  0.9780
  498THF     C2 7903   0.321   0.779   2.308 -0.3499 -0.5705  0.6772
  498THF     C3 7904   0.177   0.685   2.439 -0.0654  0.1848 -0.0050
  498THF     H4 7905   0.344   0.864   2.245 -1.5713 -0.3412 -1.6842
  498THF     H5 7906   0.367   0.695   2.265  0.1074  0.5725 -2.7620
  498THF     H6 7907   0.074   0.684   2.488  1.3748 -3.8668  0.4922
  498THF     H7 7908   0.212   0.589   2.414 -2.2395  1.8326 -3.1275
  498THF     C8 7909   0.276   0.745   2.537  1.1758  0.8112 -0.0924
  498THF     C9 7910   0.377   0.808   2.442  0.2113  0.4370  0.5897
  498THF    H10 7911   0.314   0.680   2.609 -1.6587 -1.5930  1.0185
  498THF    H11 7912   0.225   0.832   2.577 -2.7310  0.2033 -0.3584
  498THF    H12 7913   0.396   0.918   2.437 -0.3457  0.7957  0.7630
  498THF    H13 7914   0.470   0.761   2.443  0.8965 -1.8362  0.0048
  499THF     O1 7915   1.248   3.385   5.135 -0.2751  0.2630  0.6264
  499THF     C2 7916   1.211   3.408   5.001  0.8270  0.8535  0.6780
  499THF     C3 7917   1.149   3.451   5.213 -0.9154 -0.3942 -0.5850
  499THF     H4 7918   1.253   3.335   4.929 -0.6022 -0.4079 -0.1975
  499THF     H5 7919   1.243   3.508   4.977  1.9450  2.3760  1.0449
  499THF     H6 7920   1.164   3.430   5.315 -0.3087 -3.4287 -1.0787
  499THF     H7 7921   1.147   3.561   5.197  2.3237  0.0159 -1.0595
  499THF     C8 7922   1.016   3.394   5.158  0.1382 -0.4563  0.2241
  499THF     C9 7923   1.055   3.405   5.010 -0.2793 -0.0126  0.1131
  499THF    H10 7924   0.938   3.452   5.188  2.4890 -1.8038  1.2720
  499THF    H11 7925   1.008   3.293   5.193 -1.1283  3.7134 -1.0929
  499THF    H12 7926   1.018   3.320   4.954  0.6511 -1.0086  0.3738
  499THF    H13 7927   1.005   3.496   4.965 -1.2821  2.4272 -3.1498
  500THF     O1 7928   1.697   0.717   2.836  0.3453 -0.4727  0.1495
  500THF     C2 7929   1.728   0.839   2.772  0.0680  0.5099  0.5504
  500THF     C3 7930   1.817   0.639   2.837  0.4959 -0.3546 -0.1991
  500THF     H4 7931   1.740   0.920   2.844  3.2305 -1.2244  1.6484
  500THF     H5 7932   1.637   0.870   2.721 -0.5648  0.6118  0.2641
  500THF     H6 7933   1.855   0.610   2.939  1.4454  0.9155  1.1626
  500THF     H7 7934   1.795   0.551   2.784  0.6699  1.1154 -1.9661
  500THF     C8 7935   1.930   0.715   2.763  0.4576  0.0589  0.4461
  500THF     C9 7936   1.854   0.822   2.684  0.1918 -0.2540 -0.2654
  500THF    H10 7937   1.971   0.651   2.683  0.1213  1.7191 -2.3715
  500THF    H11 7938   2.006   0.758   2.826  0.9503  0.1743 -0.7395
  500THF    H12 7939   1.919   0.909   2.674 -1.1934 -1.7176  1.6282
  500THF    H13 7940   1.825   0.786   2.587 -1.6984  0.9634 -0.0939
  501THF     O1 7941   0.381   3.696   1.160  0.0862 -0.3673 -0.2225
  501THF     C2 7942   0.327   3.825   1.159 -1.2902 -0.6217 -0.3146
  501THF     C3 7943   0.493   3.692   1.238  0.2519 -0.1558  0.0487
  501THF     H4 7944   0.274   3.837   1.261 -0.9635 -0.1919  0.9017
  501THF     H5 7945   0.257   3.842   1.084 -1.0036 -1.7394 -0.5091
  501THF     H6 7946   0.453   3.687   1.338 -0.8344 -2.5843 -0.7016
  501THF     H7 7947   0.548   3.601   1.210 -2.3559 -0.3827  0.3740
  501THF     C8 7948   0.564   3.826   1.208  0.1029  0.0238  0.6130
  501THF     C9 7949   0.450   3.913   1.160 -0.0431 -0.0223 -0.1548
  501THF    H10 7950   0.638   3.809   1.124 -1.3097 -1.5987  1.7673
  501THF    H11 7951   0.616   3.873   1.296  1.5805  1.8832  0.2430
  501THF    H12 7952   0.432   3.983   1.245 -1.6266 -2.0295  0.4563
  501THF    H13 7953   0.470   3.975   1.075 -0.5938 -0.7387  0.2684
  502THF     O1 7954   1.097   0.869   1.315  0.4885 -0.6513  0.3496
  502THF     C2 7955   1.022   0.985   1.343  0.0619 -0.0959 -0.4035
  502THF     C3 7956   1.153   0.822   1.433  0.6437  0.1213  0.3391
  502THF     H4 7957   0.933   0.991   1.278  1.1531 -1.9462  1.7670
  502THF     H5 7958   1.091   1.068   1.329  0.0213  1.0058  2.9189
  502THF     H6 7959   1.191   0.718   1.419 -0.1863  0.0470  0.0141
  502THF     H7 7960   1.234   0.883   1.462 -0.5552 -2.4407 -1.2963
  502THF     C8 7961   1.038   0.838   1.540 -0.0833  0.3143 -0.4433
  502THF     C9 7962   0.971   0.973   1.495 -0.0882 -0.2356  0.4150
  502THF    H10 7963   1.081   0.852   1.639  0.2904  1.0502  1.5923
  502THF    H11 7964   0.965   0.763   1.540 -2.4346  2.0211 -5.2564
  502THF    H12 7965   0.865   0.992   1.515  1.0028 -3.2856  0.9439
  502THF    H13 7966   1.016   1.051   1.551  0.3975  0.2762  0.8856
  503THF     O1 7967   4.561   4.327   3.401 -0.0600  0.5071 -0.5312
  503THF     C2 7968   4.538   4.195   3.448  0.6930 -0.1819 -0.0945
  503THF     C3 7969   4.654   4.317   3.292 -0.0315 -0.5777  0.2031
  503THF     H4 7970   4.448   4.183   3.507 -1.1358  0.1754  2.8257
  503THF     H5 7971   4.613   4.175   3.518  0.8966  1.3878  2.7591
  503THF     H6 7972   4.668   4.414   3.245 -0.9390 -1.0408 -0.7295
  503THF     H7 7973   4.755   4.302   3.337  0.3599  1.8284 -1.9121
  503THF     C8 7974   4.590   4.207   3.215  0.4244  0.2821  0.7804
  503THF     C9 7975   4.547   4.104   3.323 -0.2394  0.0005 -0.1654
  503THF    H10 7976   4.647   4.177   3.126  1.7529  0.3688  2.0547
  503THF    H11 7977   4.498   4.260   3.173 -2.0329 -2.4622 -0.4218
  503THF    H12 7978   4.447   4.060   3.306 -0.6693  1.3056  0.4151
  503THF    H13 7979   4.629   4.028   3.318 -2.3302  1.0963 -0.1844
  504THF     O1 7980   5.145   0.623   0.157  0.8055 -0.4218 -0.1047
  504THF     C2 7981   5.055   0.578   0.258 -0.5752  0.3606 -0.0917
  504THF     C3 7982   5.222   0.727   0.221 -0.7147 -0.2669  0.6075
  504THF     H4 7983   5.002   0.487   0.237 -1.8513  2.6781  0.8257
  504THF     H5 7984   4.981   0.655   0.275 -0.2635 -1.6863  1.4293
  504THF     H6 7985   5.323   0.734   0.168  1.4370  1.0342  0.4231
  504THF     H7 7986   5.173   0.820   0.207  0.8895 -2.0468 -0.1379
  504THF     C8 7987   5.238   0.688   0.362 -0.2892 -0.0242 -0.0628
  504THF     C9 7988   5.147   0.572   0.379  0.2410 -0.2887 -0.6064
  504THF    H10 7989   5.215   0.778   0.430  0.1829  2.4059  0.5123
  504THF    H11 7990   5.342   0.661   0.378  1.2942 -1.1191 -1.2330
  504THF    H12 7991   5.194   0.477   0.384  0.2708  0.8975  0.0807
  504THF    H13 7992   5.085   0.595   0.468 -0.8337  1.2608  1.9186
  505THF     O1 7993   2.885   3.194   2.492  0.3817 -0.0425 -0.2004
  505THF     C2 7994   2.907   3.206   2.631 -0.0501  0.6489 -0.5076
  505THF     C3 7995   2.948   3.304   2.425 -1.0116  0.3152  0.1917
  505THF     H4 7996   2.994   3.136   2.649  1.0999  0.3154  1.4960
  505THF     H5 7997   2.822   3.181   2.690  1.1496  1.9896 -0.7654
  505THF     H6 7998   3.052   3.291   2.404  1.0250  2.8240  1.8703
  505THF     H7 7999   2.885   3.332   2.336 -2.2148 -1.6615  0.0240
  505THF     C8 8000   2.942   3.415   2.532 -0.1796  0.4905 -0.7623
  505THF     C9 8001   2.971   3.339   2.660 -0.1181 -0.0767  0.4707
  505THF    H10 8002   2.846   3.467   2.526 -1.2077  1.7837 -0.3122
  505THF    H11 8003   3.021   3.494   2.525 -0.3123  1.0241  0.9854
  505THF    H12 8004   3.078   3.331   2.672  0.9823 -0.0738  0.7196
  505THF    H13 8005   2.939   3.377   2.753  0.0716  1.5817  0.9326
  506THF     O1 8006   4.477   1.409   1.199 -0.0981  0.0312 -0.1820
  506THF     C2 8007   4.342   1.390   1.248 -0.1447 -0.5080 -0.0395
  506THF     C3 8008   4.489   1.293   1.113 -0.3638 -0.4488 -0.2068
  506THF     H4 8009   4.308   1.492   1.284 -1.1487  0.6620 -1.1375
  506THF     H5 8010   4.337   1.321   1.336 -1.6761  0.3862 -0.3990
  506THF     H6 8011   4.569   1.312   1.037 -0.8749  0.8295 -0.1556
  506THF     H7 8012   4.505   1.199   1.172 -1.0820  2.5000  0.0671
  506THF     C8 8013   4.355   1.283   1.035 -0.4628 -0.1635 -0.0866
  506THF     C9 8014   4.253   1.340   1.133  0.4962 -0.3789 -0.5036
  506THF    H10 8015   4.318   1.172   1.030  0.1396 -2.3280  5.0540
  506THF    H11 8016   4.352   1.342   0.937 -3.6942  1.1308 -0.7990
  506THF    H12 8017   4.195   1.419   1.088 -0.0068 -0.6539 -2.0560
  506THF    H13 8018   4.184   1.270   1.178 -0.0121 -0.5913  0.8294
  507THF     O1 8019   3.121   2.872   4.110  0.0571  1.0800  0.0883
  507THF     C2 8020   3.152   3.014   4.112 -0.2148  0.1422  0.2760
  507THF     C3 8021   3.110   2.822   3.981 -1.1505 -0.3010 -0.2061
  507THF     H4 8022   3.262   3.028   4.105 -0.0828  2.4025  0.4048
  507THF     H5 8023   3.110   3.061   4.197 -2.6021 -2.6957 -1.6928
  507THF     H6 8024   3.206   2.771   3.957 -0.1221 -0.4724  1.1772
  507THF     H7 8025   3.023   2.762   3.962  0.1007  0.2984 -2.5000
  507THF     C8 8026   3.103   2.943   3.894 -0.5807  0.7506  0.1181
  507THF     C9 8027   3.080   3.057   3.986  0.0331 -0.0018  0.7186
  507THF    H10 8028   3.028   2.924   3.818 -2.3336 -1.0909  0.7268
  507THF    H11 8029   3.202   2.960   3.829 -1.4825  3.8779  0.1811
  507THF    H12 8030   3.103   3.152   3.938 -1.2630  0.3559 -0.1673
  507THF    H13 8031   2.974   3.058   4.005  0.1691  1.6872 -1.8982
  508THF     O1 8032   2.112   1.871   3.179 -0.3703 -0.9970  0.0373
  508THF     C2 8033   2.097   2.012   3.179 -0.8856  0.3402 -0.0857
  508THF     C3 8034   2.117   1.833   3.042  0.0101 -0.5936 -0.2331
  508THF     H4 8035   2.115   2.056   3.274  0.4795 -2.0480 -1.9805
  508THF     H5 8036   1.998   2.047   3.150 -0.9372  2.9354 -0.4669
  508THF     H6 8037   2.133   1.727   3.017  1.0314 -1.9512 -1.5768
  508THF     H7 8038   2.021   1.857   3.014  2.6611  2.4335 -1.0527
  508THF     C8 8039   2.209   1.938   2.971 -0.1264  0.4462  0.2688
  508THF     C9 8040   2.204   2.055   3.069  0.6581  0.2548  0.0912
  508THF    H10 8041   2.172   1.968   2.876 -4.0441  2.6152  0.2585
  508THF    H11 8042   2.312   1.904   2.968 -0.5457 -1.7099 -0.1883
  508THF    H12 8043   2.298   2.081   3.110  0.8024  1.4114 -1.8084
  508THF    H13 8044   2.172   2.151   3.019 -1.6866  0.7637  1.1273
  509THF     O1 8045   3.507   1.113   1.894  0.3822  0.5458  0.6865
  509THF     C2 8046   3.640   1.126   1.946  0.2246  0.1885 -0.0051
  509THF     C3 8047   3.409   1.094   2.000 -0.8035 -0.5197  0.1160
  509THF     H4 8048   3.693   1.214   1.901 -1.4548 -0.6849 -2.8351
  509THF     H5 8049   3.693   1.035   1.921  1.9398  1.5226  0.9921
  509THF     H6 8050   3.361   1.197   2.010  0.8987  1.4507  1.5784
  509THF     H7 8051   3.340   1.013   1.977  2.4089 -0.6194  1.8585
  509THF     C8 8052   3.496   1.062   2.125  0.4833  0.6035  0.6045
  509THF     C9 8053   3.620   1.144   2.097  0.1655  0.4573  0.1514
  509THF    H10 8054   3.515   0.954   2.125 -0.0926 -0.0510 -1.5291
  509THF    H11 8055   3.441   1.085   2.214 -1.7813  0.4872 -0.3584
  509THF    H12 8056   3.610   1.247   2.121 -1.1233  0.0143 -0.0505
  509THF    H13 8057   3.707   1.112   2.153 -0.0401 -1.5137  0.5372
  510THF     O1 8058   4.885   4.476   5.303  0.2834  0.0012 -1.0731
  510THF     C2 8059   4.819   4.378   5.383 -1.3561  0.3712 -0.2768
  510THF     C3 8060   4.943   4.584   5.382 -0.2167  0.2262 -0.2781
  510THF     H4 8061   4.835   4.283   5.343 -1.0958  0.8372  1.6968
  510THF     H5 8062   4.715   4.395   5.390  0.9363 -2.3359 -1.2179
  510THF     H6 8063   5.052   4.592   5.347  0.0438  1.8523 -2.0432
  510THF     H7 8064   4.895   4.682   5.366 -0.6946  0.7290  0.9745
  510THF     C8 8065   4.914   4.534   5.524 -0.1100 -0.4009  0.3626
  510THF     C9 8066   4.893   4.389   5.513  0.2319  0.5661 -0.2696
  510THF    H10 8067   4.824   4.587   5.556 -0.6265 -0.9886 -0.4507
  510THF    H11 8068   4.991   4.569   5.592  2.0521 -0.2071 -1.0685
  510THF    H12 8069   4.987   4.333   5.520  1.7634 -2.3118  1.1848
  510THF    H13 8070   4.823   4.367   5.594 -1.3020  0.5616 -0.0488
  511THF     O1 8071   1.571   4.741   5.127  0.0550  0.1842  0.1494
  511THF     C2 8072   1.533   4.872   5.096  0.2634  0.1183 -0.3427
  511THF     C3 8073   1.467   4.648   5.109 -0.1414 -0.9904 -0.2216
  511THF     H4 8074   1.619   4.936   5.058  1.5662 -1.0323 -0.9712
  511THF     H5 8075   1.479   4.926   5.173 -0.1462  0.6309 -1.3918
  511THF     H6 8076   1.495   4.567   5.038 -1.6512  0.7436 -1.5150
  511THF     H7 8077   1.446   4.606   5.200 -0.8628 -0.2994  0.3631
  511THF     C8 8078   1.353   4.721   5.047  0.9629 -0.3308  0.1402
  511THF     C9 8079   1.435   4.836   4.982  0.4216  0.1612 -0.6809
  511THF    H10 8080   1.289   4.770   5.124  0.0420 -0.7847  0.5824
  511THF    H11 8081   1.298   4.662   4.972  1.5036  0.1247  4.3323
  511THF    H12 8082   1.500   4.811   4.901  0.8680 -0.2768 -1.5205
  511THF    H13 8083   1.382   4.926   4.963  2.5230  0.6852 -1.4878
  512THF     O1 8084   1.359   2.838   0.450  0.0853  0.3398 -0.3394
  512THF     C2 8085   1.360   2.869   0.589  0.2104  0.3440 -0.2555
  512THF     C3 8086   1.414   2.705   0.429  0.5984 -0.0754 -0.2164
  512THF     H4 8087   1.272   2.811   0.610  2.0916 -2.6077  0.2223
  512THF     H5 8088   1.348   2.976   0.603  0.4041  0.1073 -0.6408
  512THF     H6 8089   1.334   2.630   0.458 -1.0603 -1.6538  2.8934
  512THF     H7 8090   1.432   2.679   0.327  0.5844  0.5716 -0.7834
  512THF     C8 8091   1.533   2.703   0.528 -0.2479  0.0385  0.3653
  512THF     C9 8092   1.484   2.789   0.643  0.5473  0.2586  0.1308
  512THF    H10 8093   1.618   2.742   0.479 -0.4123 -2.0121 -1.0875
  512THF    H11 8094   1.539   2.593   0.548  0.4144 -0.2110  0.8801
  512THF    H12 8095   1.441   2.724   0.717 -0.4247  0.9587  2.3758
  512THF    H13 8096   1.562   2.855   0.678 -0.9370  1.5354 -1.2071
  513THF     O1 8097   2.349   0.586   4.561  0.8337  0.2040  0.1098
  513THF     C2 8098   2.236   0.633   4.641  0.0382 -0.1819 -0.6845
  513THF     C3 8099   2.329   0.641   4.429  0.0202 -0.0151 -0.4257
  513THF     H4 8100   2.286   0.643   4.739 -1.6978 -1.5833  1.7838
  513THF     H5 8101   2.151   0.561   4.660  1.0305  0.6000 -0.3900
  513THF     H6 8102   2.415   0.707   4.406  1.1474  0.1687  1.4305
  513THF     H7 8103   2.320   0.564   4.349  1.4562  1.5125 -1.0159
  513THF     C8 8104   2.201   0.725   4.433 -0.3088 -0.1797 -0.1617
  513THF     C9 8105   2.190   0.761   4.575  0.4923  0.0495 -0.4114
  513THF    H10 8106   2.113   0.678   4.401  1.6764  1.7404 -0.2137
  513THF    H11 8107   2.196   0.807   4.367  0.4293  0.0883  0.1337
  513THF    H12 8108   2.257   0.840   4.592 -0.0174  2.5647 -1.9278
  513THF    H13 8109   2.090   0.800   4.595  2.3934 -0.8363 -1.5343
  514THF     O1 8110   4.256   1.986   2.174  0.1424 -0.4316  0.3154
  514THF     C2 8111   4.127   1.931   2.192  0.1937 -0.3198 -0.0039
  514THF     C3 8112   4.244   2.114   2.109 -0.0986  0.5523 -0.0900
  514THF     H4 8113   4.104   1.961   2.291 -3.4390  0.1902  1.9194
  514THF     H5 8114   4.122   1.818   2.182  0.9085 -0.3387 -0.0116
  514THF     H6 8115   4.276   2.190   2.173  2.8372 -1.0217 -1.3795
  514THF     H7 8116   4.295   2.128   2.012 -0.6544 -1.4895 -0.7880
  514THF     C8 8117   4.095   2.143   2.083  0.3300 -0.6382 -0.0057
  514THF     C9 8118   4.039   2.002   2.092  0.7941  0.2991 -0.7331
  514THF    H10 8119   4.077   2.204   1.991 -0.8134 -0.3339  1.6914
  514THF    H11 8120   4.052   2.200   2.168  0.0638 -1.0585  0.7889
  514THF    H12 8121   3.939   2.024   2.132  0.9245 -0.7867 -0.1545
  514THF    H13 8122   4.029   1.947   2.001 -2.5885  0.6171  0.1365
  515THF     O1 8123   2.336   0.158   2.167  0.5967  0.0182  0.8690
  515THF     C2 8124   2.221   0.236   2.153  0.4350  0.0960 -0.2818
  515THF     C3 8125   2.413   0.177   2.043 -0.8312 -0.4899 -0.1141
  515THF     H4 8126   2.185   0.288   2.239 -0.2722  1.9254 -1.4811
  515THF     H5 8127   2.147   0.163   2.120 -0.3731 -1.3555  0.0092
  515THF     H6 8128   2.518   0.142   2.057  0.5461 -0.3356 -1.0256
  515THF     H7 8129   2.361   0.123   1.969 -0.6703  2.5772  2.8720
  515THF     C8 8130   2.404   0.326   2.015 -0.1451 -0.1979 -0.0954
  515THF     C9 8131   2.253   0.344   2.044  0.5091 -0.4500 -0.0072
  515THF    H10 8132   2.414   0.322   1.905 -0.4747 -1.5687 -2.4670
  515THF    H11 8133   2.462   0.393   2.067 -0.5241 -2.9917 -0.0679
  515THF    H12 8134   2.236   0.444   2.086  2.4584 -0.3101  0.6479
  515THF    H13 8135   2.191   0.307   1.964 -2.8619 -3.0536  0.2894
  516THF     O1 8136   4.185   0.610   5.497  0.1793 -0.2742  0.6687
  516THF     C2 8137   4.260   0.499   5.537 -0.2006 -0.7354  0.3767
  516THF     C3 8138   4.277   0.710   5.447 -0.3056  0.0270  0.5603
  516THF     H4 8139   4.271   0.440   5.451  0.2016 -0.5159  0.8359
  516THF     H5 8140   4.214   0.444   5.617 -1.6057  1.5985  0.4845
  516THF     H6 8141   4.268   0.720   5.335  0.2437  1.6723 -0.4465
  516THF     H7 8142   4.256   0.794   5.517 -0.5867 -0.1823  0.5114
  516THF     C8 8143   4.420   0.662   5.475  0.3302 -0.0483  0.7013
  516THF     C9 8144   4.397   0.554   5.579  0.9334 -0.6399  0.1315
  516THF    H10 8145   4.490   0.735   5.497 -1.5602  0.8202  1.5774
  516THF    H11 8146   4.462   0.609   5.393 -0.6346  0.4690 -3.7708
  516THF    H12 8147   4.468   0.469   5.584  3.0203 -1.7505  2.1293
  516THF    H13 8148   4.385   0.600   5.683 -0.0559  1.2666  2.0191
  517THF     O1 8149   3.426   0.064   0.728 -0.6979  0.0412 -0.4671
  517THF     C2 8150   3.519   0.002   0.641 -0.2381 -0.7638  0.3758
  517THF     C3 8151   3.293   0.021   0.697  0.1296 -0.7889  0.0248
  517THF     H4 8152   3.615  -0.002   0.684 -0.5303  0.6299 -3.5605
  517THF     H5 8153   3.524   0.058   0.543  0.5771  0.3223 -2.9424
  517THF     H6 8154   3.249  -0.006   0.791  1.0780  3.3250  3.6318
  517THF     H7 8155   3.226   0.102   0.655  1.6268 -0.1804 -1.1251
  517THF     C8 8156   3.310  -0.090   0.592  0.6949 -0.5859 -0.0297
  517THF     C9 8157   3.454  -0.132   0.605  0.0769  0.1422  0.1213
  517THF    H10 8158   3.289  -0.046   0.489  1.5994  1.9331  1.6109
  517THF    H11 8159   3.241  -0.177   0.614  1.8826  0.7707 -0.6370
  517THF    H12 8160   3.471  -0.209   0.688  0.8500 -0.8228  3.0310
  517THF    H13 8161   3.502  -0.175   0.512  1.4506 -0.9220 -2.0466
  518THF     O1 8162   5.439   4.894   0.693  0.8195 -0.1977  0.3287
  518THF     C2 8163   5.382   4.863   0.825 -0.2412 -0.3563 -0.5402
  518THF     C3 8164   5.367   5.010   0.651 -0.0138  1.2314 -0.1601
  518THF     H4 8165   5.452   4.868   0.908 -2.2091  0.1623  1.8658
  518THF     H5 8166   5.357   4.761   0.819  1.5932  0.5172 -1.2890
  518THF     H6 8167   5.415   5.106   0.690 -1.8394  1.4656 -0.2678
  518THF     H7 8168   5.362   5.025   0.539 -0.6822  0.0889 -2.2840
  518THF     C8 8169   5.232   4.994   0.704 -0.1865 -0.0612  0.1143
  518THF     C9 8170   5.256   4.946   0.847 -0.5476 -0.6331 -0.3623
  518THF    H10 8171   5.178   4.917   0.645  0.1930  1.0184  2.8963
  518THF    H11 8172   5.173   5.087   0.707  0.4607 -1.6751 -1.0962
  518THF    H12 8173   5.273   5.030   0.914  0.5430 -0.6687  0.8059
  518THF    H13 8174   5.162   4.892   0.868  1.0059 -3.9907 -2.2327
  519THF     O1 8175   0.226   3.659   1.743 -0.2892 -0.3228 -0.8583
  519THF     C2 8176   0.304   3.626   1.630  0.0136  0.6016 -0.4228
  519THF     C3 8177   0.089   3.670   1.708  0.0501 -0.3865 -0.1157
  519THF     H4 8178   0.327   3.523   1.625  2.4425 -0.3281 -1.5155
  519THF     H5 8179   0.389   3.690   1.622 -1.0667 -0.9720  1.0730
  519THF     H6 8180   0.017   3.632   1.780  0.9546 -0.1544 -1.8756
  519THF     H7 8181   0.076   3.780   1.682  1.2840 -0.4027  0.6773
  519THF     C8 8182   0.074   3.627   1.571 -0.8064 -0.5009 -0.4569
  519THF     C9 8183   0.210   3.669   1.515  0.4843  1.0574 -0.1155
  519THF    H10 8184  -0.014   3.673   1.517 -0.8394  0.3689 -0.8865
  519THF    H11 8185   0.060   3.522   1.574  2.7706  1.3569  4.7451
  519THF    H12 8186   0.233   3.622   1.419 -1.0270  1.8844 -3.5444
  519THF    H13 8187   0.217   3.778   1.499  0.0698 -0.7208 -2.1416
  520THF     O1 8188   1.976   5.390   0.157  0.2857  0.0821 -0.1643
  520THF     C2 8189   1.947   5.520   0.210  0.2808 -0.0635 -0.1648
  520THF     C3 8190   1.937   5.300   0.256  0.2017 -0.2717 -0.0516
  520THF     H4 8191   1.839   5.529   0.206 -1.9216 -0.4586 -0.2049
  520THF     H5 8192   1.993   5.593   0.149  0.9210  0.3326  1.8799
  520THF     H6 8193   1.827   5.291   0.256 -0.1440 -0.6268  2.9931
  520THF     H7 8194   1.973   5.202   0.239 -1.0009  3.0512 -0.8928
  520THF     C8 8195   1.993   5.367   0.385 -0.0365 -0.2043  0.3894
  520THF     C9 8196   1.999   5.511   0.356 -0.0392 -0.3107 -0.1105
  520THF    H10 8197   2.089   5.328   0.392 -1.9469  2.6375  0.6480
  520THF    H11 8198   1.930   5.341   0.470  0.8357 -0.2876 -0.5374
  520THF    H12 8199   1.920   5.561   0.414  1.5332  0.0252 -1.7649
  520THF    H13 8200   2.098   5.554   0.364  2.9376  0.4525  0.4914
  521THF     O1 8201   0.546   0.902   2.045  0.4043 -0.5148 -0.5805
  521THF     C2 8202   0.603   1.028   2.065 -0.1292 -0.1968  0.2158
  521THF     C3 8203   0.655   0.802   2.033 -0.7878 -0.1477 -0.0149
  521THF     H4 8204   0.627   1.041   2.170  0.3960 -0.1844  0.6088
  521THF     H5 8205   0.539   1.111   2.041  0.9992 -1.0621  2.0283
  521THF     H6 8206   0.674   0.762   2.133  2.6354  0.8605  0.2959
  521THF     H7 8207   0.630   0.721   1.964  1.0704  0.4504  2.3771
  521THF     C8 8208   0.779   0.886   1.993  0.0609  0.8129  0.7199
  521THF     C9 8209   0.724   1.028   1.985 -0.0857 -0.1507 -0.0348
  521THF    H10 8210   0.824   0.872   1.898  0.2639  1.8588 -0.2803
  521THF    H11 8211   0.850   0.891   2.080  0.8880  1.5974  3.7487
  521THF    H12 8212   0.799   1.106   2.019  1.9429 -0.7784 -3.5809
  521THF    H13 8213   0.714   1.050   1.880  0.8260  1.4855  2.0024
  522THF     O1 8214   2.800   3.665   1.545  0.0453  0.1732  0.4402
  522THF     C2 8215   2.724   3.601   1.437  0.1441 -0.6094  0.3348
  522THF     C3 8216   2.713   3.727   1.635 -0.0792  0.1721  0.3996
  522THF     H4 8217   2.774   3.519   1.400  0.1722  0.2189 -2.1605
  522THF     H5 8218   2.722   3.676   1.356  1.6613  1.3538 -1.4566
  522THF     H6 8219   2.731   3.691   1.736  0.3655  2.1313 -0.1258
  522THF     H7 8220   2.730   3.831   1.645 -1.0276 -0.6956 -3.0353
  522THF     C8 8221   2.567   3.682   1.594 -0.8347  0.4300 -0.2371
  522THF     C9 8222   2.593   3.561   1.504  0.0486  0.5685  0.1925
  522THF    H10 8223   2.509   3.764   1.541 -3.0498  0.5539 -2.9473
  522THF    H11 8224   2.510   3.673   1.685  2.1280  0.6061  1.3610
  522THF    H12 8225   2.604   3.469   1.565  0.9543 -0.0796  0.5103
  522THF    H13 8226   2.517   3.526   1.433 -0.6931  0.7839  0.1793
  523THF     O1 8227   3.497   2.794   4.509  0.4208 -0.0723 -0.2873
  523THF     C2 8228   3.545   2.832   4.377  0.3268  0.1360 -0.1701
  523THF     C3 8229   3.363   2.859   4.512 -0.2560  0.4715 -0.6212
  523THF     H4 8230   3.518   2.756   4.301  2.3151 -0.6228 -0.5804
  523THF     H5 8231   3.653   2.826   4.382  1.2631  1.8822 -1.9972
  523THF     H6 8232   3.294   2.790   4.468  2.4404 -0.0964  1.2360
  523THF     H7 8233   3.328   2.881   4.615 -0.7916  1.1313  0.5051
  523THF     C8 8234   3.380   2.986   4.426 -0.0049  0.0488  0.4433
  523THF     C9 8235   3.500   2.975   4.343 -0.9718  0.1523  0.0543
  523THF    H10 8236   3.393   3.073   4.493  0.3075 -0.4679  0.9939
  523THF    H11 8237   3.293   3.005   4.364  2.1013  0.2563 -2.2214
  523THF    H12 8238   3.464   2.960   4.238 -0.9378 -1.4660 -0.5768
  523THF    H13 8239   3.570   3.056   4.336  0.5667  0.2253 -3.5254
  524THF     O1 8240   2.790   0.603   0.174  0.2232  0.5757 -0.5233
  524THF     C2 8241   2.750   0.658   0.052 -0.1412  0.0027  0.1881
  524THF     C3 8242   2.921   0.637   0.193 -0.6513 -0.5442  0.0882
  524THF     H4 8243   2.638   0.649   0.031  0.0834  0.0536 -0.0866
  524THF     H5 8244   2.800   0.594  -0.016  1.2631 -1.2498 -0.3008
  524THF     H6 8245   2.964   0.610   0.284  0.1614  1.1663 -2.6807
  524THF     H7 8246   2.974   0.585   0.119 -0.1321 -0.7391  1.4175
  524THF     C8 8247   2.926   0.785   0.163 -0.2573  0.1372 -0.3183
  524THF     C9 8248   2.810   0.803   0.063 -0.2294  0.2520  0.0051
  524THF    H10 8249   3.021   0.806   0.113 -2.1526 -0.0205  0.1834
  524THF    H11 8250   2.912   0.842   0.256 -1.2329 -1.2215 -2.1467
  524THF    H12 8251   2.730   0.864   0.101 -0.5459  1.0747  0.5617
  524THF    H13 8252   2.840   0.847  -0.030 -1.1299 -1.6246  0.8063
  525THF     O1 8253   0.222   0.291   3.185 -0.2259  0.1644  0.2645
  525THF     C2 8254   0.306   0.297   3.304 -0.1651  0.8185 -0.1306
  525THF     C3 8255   0.301   0.254   3.072 -0.1673 -0.6928 -0.1297
  525THF     H4 8256   0.249   0.238   3.383  0.3568 -0.9615 -0.7313
  525THF     H5 8257   0.323   0.408   3.329  2.9761 -1.4053 -0.1802
  525THF     H6 8258   0.271   0.158   3.031 -0.0928  1.3357  0.1440
  525THF     H7 8259   0.291   0.342   2.997 -2.1362  2.0000 -1.5221
  525THF     C8 8260   0.444   0.243   3.122  0.4439 -0.0686  0.0985
  525THF     C9 8261   0.433   0.216   3.273  0.4229 -0.4755  0.5828
  525THF    H10 8262   0.510   0.332   3.098  3.4615 -2.0959 -3.0506
  525THF    H11 8263   0.495   0.155   3.072  0.1033 -0.8885 -1.2445
  525THF    H12 8264   0.420   0.110   3.290 -1.8879 -1.3248  1.4608
  525THF    H13 8265   0.514   0.242   3.337 -0.8613  3.1575 -0.8171
  526THF     O1 8266   1.421   3.935   5.274  0.7130  0.6447 -0.0321
  526THF     C2 8267   1.512   3.938   5.162 -0.0685 -0.7815 -0.1868
  526THF     C3 8268   1.426   3.811   5.344  0.2164 -0.1250 -0.0494
  526THF     H4 8269   1.611   3.980   5.189 -0.4705  1.2287 -1.0294
  526THF     H5 8270   1.479   4.009   5.085 -1.0803 -1.5090  0.0599
  526THF     H6 8271   1.485   3.817   5.435 -0.4503 -2.3902 -1.7676
  526THF     H7 8272   1.328   3.774   5.369  2.0468  1.6372  0.9693
  526THF     C8 8273   1.486   3.715   5.236  0.2227 -0.4138 -0.0282
  526THF     C9 8274   1.510   3.794   5.107 -0.0959 -0.2231  0.6671
  526THF    H10 8275   1.419   3.629   5.215  1.2856 -0.9012 -0.9676
  526THF    H11 8276   1.584   3.677   5.276  2.0202 -1.6379  1.2964
  526THF    H12 8277   1.592   3.764   5.037  2.6735 -0.7638  2.3185
  526THF    H13 8278   1.414   3.790   5.058 -3.3436  2.6058  0.2902
  527THF     O1 8279   1.984   2.471   4.598 -0.0440  0.0579  0.2874
  527THF     C2 8280   2.068   2.510   4.701  0.3455  0.1668 -0.3139
  527THF     C3 8281   2.039   2.353   4.544 -0.6590 -0.0493  0.3902
  527THF     H4 8282   2.022   2.591   4.762 -1.1079  2.4063  1.2024
  527THF     H5 8283   2.163   2.548   4.663  1.7884 -1.5256 -0.3301
  527THF     H6 8284   1.957   2.301   4.491 -1.1579  1.5608 -2.1406
  527THF     H7 8285   2.117   2.382   4.470  1.4049  2.9596 -0.1765
  527THF     C8 8286   2.106   2.280   4.663 -0.6387 -0.1831  0.2210
  527THF     C9 8287   2.089   2.381   4.776 -0.3987 -0.1581 -0.1736
  527THF    H10 8288   2.207   2.267   4.646 -1.0495  1.4855 -1.3253
  527THF    H11 8289   2.056   2.181   4.670  4.0554  0.3236  3.5051
  527THF    H12 8290   2.000   2.361   4.834  2.1054  1.2016  1.5548
  527THF    H13 8291   2.160   2.374   4.853 -2.4847 -1.2807 -1.1831
  528THF     O1 8292   0.599   3.326   5.420  0.1459 -0.0906 -0.5291
  528THF     C2 8293   0.734   3.325   5.376 -0.4167  0.0976  0.3449
  528THF     C3 8294   0.538   3.201   5.372  0.3912 -0.5081 -0.0297
  528THF     H4 8295   0.797   3.392   5.424 -2.0063 -1.0405  0.1052
  528THF     H5 8296   0.730   3.349   5.266 -1.0718  1.6676 -2.5968
  528THF     H6 8297   0.448   3.175   5.422  0.3763 -4.1068  2.0088
  528THF     H7 8298   0.522   3.216   5.263  1.2055  0.9813 -3.6919
  528THF     C8 8299   0.648   3.105   5.401 -0.1309 -0.2163 -0.2938
  528THF     C9 8300   0.779   3.183   5.377  0.1308  0.1965 -1.1632
  528THF    H10 8301   0.640   3.017   5.345 -0.6747  0.8675  0.7201
  528THF    H11 8302   0.631   3.071   5.508 -1.8454  1.3190  3.0024
  528THF    H12 8303   0.847   3.165   5.463 -2.2763 -1.6596  2.0677
  528THF    H13 8304   0.845   3.157   5.295 -0.3861  2.2805 -0.2512
  529THF     O1 8305   1.012   0.360   3.890  0.5203 -0.1417 -0.3037
  529THF     C2 8306   0.980   0.400   3.760 -0.6804 -0.0251 -0.0509
  529THF     C3 8307   0.969   0.481   3.965  0.5873  0.5209 -0.3903
  529THF     H4 8308   0.873   0.392   3.753 -1.6099  1.5015 -0.9551
  529THF     H5 8309   1.023   0.334   3.687  1.0318 -0.9895 -1.3138
  529THF     H6 8310   0.861   0.498   3.967 -1.6897  1.5397  0.8864
  529THF     H7 8311   0.997   0.481   4.067  2.2607  0.3248 -0.9076
  529THF     C8 8312   1.024   0.595   3.886 -0.3409  0.0593 -0.5294
  529THF     C9 8313   1.031   0.544   3.748 -0.1230  0.2866 -0.7008
  529THF    H10 8314   1.118   0.626   3.917 -1.4038 -2.7587  2.3665
  529THF    H11 8315   0.955   0.680   3.894 -0.7999  3.1333  0.8800
  529THF    H12 8316   0.973   0.599   3.679  0.0226 -2.4032 -1.7964
  529THF    H13 8317   1.142   0.549   3.723  0.2842  0.2315 -2.3329
  530THF     O1 8318   5.358   2.110   4.431 -0.9142  0.2831  0.4389
  530THF     C2 8319   5.316   2.217   4.348  0.6136  0.3338  0.4531
  530THF     C3 8320   5.420   2.014   4.341  0.2926  0.0315  0.0963
  530THF     H4 8321   5.401   2.267   4.311  2.1941 -1.2703 -0.9425
  530THF     H5 8322   5.252   2.282   4.402 -0.2439 -0.3866 -1.5784
  530THF     H6 8323   5.519   2.057   4.328 -0.1357  0.9917  1.1189
  530THF     H7 8324   5.428   1.910   4.384 -2.4676 -0.2680 -1.9479
  530THF     C8 8325   5.318   2.016   4.225  0.0251  0.1382 -0.2999
  530THF     C9 8326   5.252   2.154   4.227 -0.0499  0.0515 -0.2450
  530THF    H10 8327   5.238   1.945   4.237 -0.9003 -0.1221 -1.9251
  530THF    H11 8328   5.357   2.007   4.122 -0.2659  0.7097  2.1381
  530THF    H12 8329   5.258   2.214   4.139 -1.0833  1.2953 -0.3515
  530THF    H13 8330   5.142   2.149   4.241  1.0585 -0.5054  0.1230
  531THF     O1 8331   1.641   1.655   2.337  0.1492 -0.2020  0.6113
  531THF     C2 8332   1.640   1.617   2.196  0.4041  0.3596 -0.0533
  531THF     C3 8333   1.554   1.556   2.405  0.1685 -0.6572 -0.2021
  531THF     H4 8334   1.702   1.531   2.172 -1.2795  0.3692 -2.4154
  531THF     H5 8335   1.671   1.701   2.128 -4.3063  0.3018  0.8378
  531THF     H6 8336   1.617   1.471   2.427  0.6124 -0.8208  0.2945
  531THF     H7 8337   1.521   1.606   2.494 -0.6996 -0.9193 -0.4603
  531THF     C8 8338   1.447   1.519   2.300  0.4730 -0.4988 -0.4205
  531THF     C9 8339   1.493   1.575   2.166  0.0196 -0.0705  0.8775
  531THF    H10 8340   1.345   1.550   2.322 -3.5314 -1.0956 -1.4320
  531THF    H11 8341   1.434   1.411   2.291  0.0207 -1.8049  2.8759
  531THF    H12 8342   1.491   1.506   2.081 -0.1915 -2.0964  0.6466
  531THF    H13 8343   1.433   1.663   2.143 -1.6419 -1.3842  1.3077
  532THF     O1 8344   0.538   5.348   0.212  0.3163 -0.2033  0.3698
  532THF     C2 8345   0.479   5.371   0.081 -0.7549 -0.1605 -0.0449
  532THF     C3 8346   0.671   5.297   0.189 -0.3973  0.8092 -0.0312
  532THF     H4 8347   0.529   5.464   0.047 -0.8434 -2.6023 -0.9171
  532THF     H5 8348   0.372   5.376   0.075 -1.7043 -1.2836 -0.9863
  532THF     H6 8349   0.751   5.371   0.190  0.0733 -0.9608  2.2677
  532THF     H7 8350   0.688   5.221   0.262  1.3846  0.5609 -0.4707
  532THF     C8 8351   0.664   5.216   0.063 -0.1481 -0.4574  0.4316
  532THF     C9 8352   0.529   5.244   0.013 -0.4826  0.4447  0.5612
  532THF    H10 8353   0.680   5.109   0.096 -0.2208  0.7528  1.2313
  532THF    H11 8354   0.746   5.255  -0.007 -1.4196  1.5741 -1.1139
  532THF    H12 8355   0.524   5.258  -0.097  0.1218  0.1797  0.3827
  532THF    H13 8356   0.474   5.161   0.047 -1.1393 -0.8776  0.3387
  533THF     O1 8357   1.722   4.676   3.894 -0.2198 -0.6035 -0.0666
  533THF     C2 8358   1.823   4.622   3.986 -0.6936  0.3860  0.6137
  533THF     C3 8359   1.796   4.747   3.794  0.6081 -0.4545 -0.0518
  533THF     H4 8360   1.786   4.537   4.038 -0.7158 -0.4606 -0.8276
  533THF     H5 8361   1.843   4.691   4.068  1.0482  0.7418  1.5203
  533THF     H6 8362   1.776   4.696   3.698 -1.3742  2.7589 -1.6497
  533THF     H7 8363   1.761   4.848   3.786  1.0680 -0.2312  1.0561
  533THF     C8 8364   1.945   4.733   3.825 -0.2863  0.4780 -0.3955
  533THF     C9 8365   1.947   4.597   3.898  0.3139 -0.1745  0.7168
  533THF    H10 8366   1.971   4.811   3.901 -1.5704  0.5910  2.6516
  533THF    H11 8367   2.000   4.743   3.736  1.0881 -1.2489 -1.0320
  533THF    H12 8368   1.916   4.510   3.835 -1.0949 -1.4493  1.0169
  533THF    H13 8369   2.025   4.580   3.970 -0.3709  0.3145  0.8618
  534THF     O1 8370   0.933   1.752   5.460 -0.1264  0.2447 -0.4984
  534THF     C2 8371   0.907   1.615   5.484  0.2699  0.5369 -0.1036
  534THF     C3 8372   1.043   1.800   5.539 -0.0511  0.0406 -0.0219
  534THF     H4 8373   0.862   1.577   5.392 -0.6968 -2.2385 -0.4805
  534THF     H5 8374   0.854   1.594   5.581  1.0464 -3.3168  2.6268
  534THF     H6 8375   1.080   1.902   5.510  0.3068  1.1175  2.5952
  534THF     H7 8376   1.020   1.808   5.645  0.4042  0.4694 -1.2017
  534THF     C8 8377   1.137   1.688   5.517 -0.2374 -0.0388  0.6233
  534THF     C9 8378   1.054   1.563   5.490  0.1574 -0.7705  0.5865
  534THF    H10 8379   1.197   1.672   5.597 -1.5530 -0.7582 -2.8467
  534THF    H11 8380   1.202   1.719   5.433  4.2191  2.3924  0.1194
  534THF    H12 8381   1.072   1.522   5.387 -0.9794  0.9659  0.9547
  534THF    H13 8382   1.076   1.473   5.555  1.7876  0.6985  1.2326
  535THF     O1 8383   2.530   1.351   0.271  0.0599  0.1955 -0.3153
  535THF     C2 8384   2.551   1.212   0.302  0.2155  0.1398  0.4024
  535THF     C3 8385   2.395   1.356   0.223  0.9750  0.6765 -0.2427
  535THF     H4 8386   2.491   1.179   0.386 -1.0590  1.7180  0.7796
  535THF     H5 8387   2.655   1.189   0.324  0.6618 -2.6327 -1.1110
  535THF     H6 8388   2.316   1.354   0.295 -0.6412  0.9215  0.0528
  535THF     H7 8389   2.370   1.439   0.158  1.4611 -1.4399  0.5588
  535THF     C8 8390   2.374   1.231   0.139  0.4039  0.9142 -0.3863
  535THF     C9 8391   2.497   1.145   0.172  0.1578  0.4065  0.1242
  535THF    H10 8392   2.386   1.265   0.037  1.9150 -1.2235  0.1695
  535THF    H11 8393   2.287   1.176   0.147  3.0016 -1.2280  0.7627
  535THF    H12 8394   2.484   1.036   0.176 -0.4879  1.0677 -1.6806
  535THF    H13 8395   2.574   1.159   0.096 -0.7365  1.3057  0.9058
  536THF     O1 8396   4.281   1.232   4.904 -0.0933 -0.3583 -1.0784
  536THF     C2 8397   4.373   1.316   4.827  0.0557 -0.8181  0.5746
  536THF     C3 8398   4.214   1.310   5.005  0.1620 -0.2237 -0.2488
  536THF     H4 8399   4.320   1.346   4.736  2.2113  1.1165  0.7035
  536THF     H5 8400   4.458   1.267   4.794 -3.0636 -0.2138  0.9266
  536THF     H6 8401   4.102   1.316   4.987 -1.1536  2.7457 -1.8737
  536THF     H7 8402   4.233   1.262   5.102 -0.4327 -0.8011 -3.6316
  536THF     C8 8403   4.282   1.454   4.992 -0.3887  0.1193  0.4189
  536THF     C9 8404   4.411   1.433   4.921 -0.3605 -0.2068 -0.2141
  536THF    H10 8405   4.293   1.509   5.093  1.0684  1.9960  3.5892
  536THF    H11 8406   4.226   1.525   4.931  1.1318  0.0857  2.2245
  536THF    H12 8407   4.442   1.519   4.872 -1.0025 -0.2389 -1.8997
  536THF    H13 8408   4.492   1.400   4.988 -0.7866 -0.1371  0.8188
  537THF     O1 8409   0.555   5.071   3.250 -0.2924 -0.0629  0.1766
  537THF     C2 8410   0.541   5.196   3.314  0.3476 -0.3698 -0.2985
  537THF     C3 8411   0.655   5.076   3.153 -0.3246 -0.2066 -0.9117
  537THF     H4 8412   0.530   5.180   3.425  0.3421 -0.6188  0.8387
  537THF     H5 8413   0.458   5.246   3.268  1.4915 -1.0685 -0.3876
  537THF     H6 8414   0.706   4.976   3.145 -1.3146 -2.2684 -0.4328
  537THF     H7 8415   0.615   5.088   3.054  0.3007 -2.9765  1.9345
  537THF     C8 8416   0.753   5.186   3.189  0.4698  0.3799  0.4332
  537THF     C9 8417   0.673   5.273   3.294  0.7673 -0.0895  0.5752
  537THF    H10 8418   0.778   5.249   3.106 -2.0180 -0.8946  0.5448
  537THF    H11 8419   0.849   5.148   3.231  0.6777 -1.4651 -2.0978
  537THF    H12 8420   0.722   5.257   3.384 -1.2653  0.3688 -2.4734
  537THF    H13 8421   0.652   5.375   3.266  2.9330  0.8559  0.8975
  538THF     O1 8422   0.803   3.040   2.880 -0.4673 -0.5347 -0.1121
  538THF     C2 8423   0.778   3.079   3.016  0.1078  0.5476  0.2825
  538THF     C3 8424   0.680   3.042   2.807 -0.0870 -0.0783  0.0893
  538THF     H4 8425   0.773   3.186   3.028 -2.6448 -0.2974  1.1784
  538THF     H5 8426   0.863   3.052   3.074  0.0659 -0.7843  0.3031
  538THF     H6 8427   0.643   3.139   2.774  3.3935 -0.6439 -2.0717
  538THF     H7 8428   0.687   2.977   2.712  0.6842 -2.1657  0.4531
  538THF     C8 8429   0.601   2.959   2.903 -0.1195 -0.3950  0.3038
  538THF     C9 8430   0.652   3.000   3.038 -0.3717  0.0514  0.9475
  538THF    H10 8431   0.625   2.858   2.886  0.8588 -0.7565 -1.3764
  538THF    H11 8432   0.491   2.975   2.891 -0.6126 -0.5283  1.2836
  538THF    H12 8433   0.585   3.055   3.105 -0.3370 -3.1096 -1.8235
  538THF    H13 8434   0.662   2.901   3.091 -2.0319 -2.3770 -1.3798
  539THF     O1 8435   3.552   3.475   4.292  0.3938 -0.4414  0.1197
  539THF     C2 8436   3.559   3.349   4.236 -0.1273  0.3419  0.7776
  539THF     C3 8437   3.461   3.553   4.208  0.2440 -0.0922  0.2348
  539THF     H4 8438   3.469   3.300   4.270 -0.9116 -2.1558 -0.5447
  539THF     H5 8439   3.643   3.291   4.283  0.3416  0.2861  1.2298
  539THF     H6 8440   3.356   3.559   4.243 -0.7941 -0.0080  0.7903
  539THF     H7 8441   3.489   3.659   4.200 -0.1338  0.4843  0.3914
  539THF     C8 8442   3.459   3.486   4.074  0.3982  0.0281  0.2401
  539THF     C9 8443   3.551   3.373   4.086 -0.8411  0.6788  0.4962
  539THF    H10 8444   3.481   3.553   3.983  1.7179  0.0364 -0.6215
  539THF    H11 8445   3.352   3.453   4.058 -1.0674 -2.2000 -2.6226
  539THF    H12 8446   3.517   3.282   4.038 -0.3541 -0.7828 -0.4768
  539THF    H13 8447   3.649   3.395   4.041 -0.2122 -1.2368 -0.3732
  540THF     O1 8448   1.273   1.003   3.682  0.3334 -0.0750  0.2483
  540THF     C2 8449   1.193   0.941   3.771 -0.1062 -1.0219  0.2181
  540THF     C3 8450   1.312   1.129   3.736 -0.3226  0.2794  0.5165
  540THF     H4 8451   1.250   0.860   3.816  1.7061  2.5416  0.5423
  540THF     H5 8452   1.102   0.889   3.744  0.0368 -1.7549  2.3950
  540THF     H6 8453   1.418   1.139   3.720  0.1427  1.2575  1.5813
  540THF     H7 8454   1.265   1.210   3.686  1.3051 -0.5140  2.2373
  540THF     C8 8455   1.276   1.130   3.882 -0.8752  0.1590  0.1563
  540THF     C9 8456   1.155   1.035   3.888  0.0285 -0.0121 -0.1023
  540THF    H10 8457   1.263   1.230   3.917  0.3979 -1.4207 -0.4004
  540THF    H11 8458   1.358   1.092   3.933 -1.8999  0.0258 -2.7879
  540THF    H12 8459   1.129   0.986   3.986  0.1112  0.1171 -0.6859
  540THF    H13 8460   1.066   1.088   3.859  2.6481  0.6663  2.9611
  541THF     O1 8461   1.932   1.056   4.596 -0.8617 -0.2773 -0.5681
  541THF     C2 8462   1.818   1.082   4.674 -0.2306  0.1070  0.2284
  541THF     C3 8463   1.885   0.972   4.492 -0.5458  0.1714 -0.4880
  541THF     H4 8464   1.837   1.161   4.741  1.6871 -0.8121 -0.4662
  541THF     H5 8465   1.786   1.001   4.723  3.8890 -0.3641  1.3642
  541THF     H6 8466   1.941   0.970   4.401 -2.3171 -2.0359 -1.0269
  541THF     H7 8467   1.872   0.870   4.520 -0.7076 -0.2689 -0.3644
  541THF     C8 8468   1.748   1.030   4.461  0.0563  0.3846 -0.2884
  541THF     C9 8469   1.717   1.123   4.572 -0.0898 -0.3608  0.4303
  541THF    H10 8470   1.675   0.950   4.462 -0.7211  1.9101  0.1927
  541THF    H11 8471   1.736   1.076   4.363  1.3657  0.3008 -1.3570
  541THF    H12 8472   1.732   1.229   4.538  2.6562  2.4821  0.4310
  541THF    H13 8473   1.607   1.115   4.590  0.0310  1.0491 -1.5016
  542THF     O1 8474   2.368   1.491   3.255  0.2380  0.2977  0.6817
  542THF     C2 8475   2.236   1.528   3.212  0.2291 -0.4782 -0.2273
  542THF     C3 8476   2.341   1.457   3.393  0.4328 -0.5792  0.3981
  542THF     H4 8477   2.239   1.535   3.106  2.8294  0.3368  2.3663
  542THF     H5 8478   2.222   1.627   3.251  0.7942 -0.0322 -0.3635
  542THF     H6 8479   2.433   1.408   3.433  1.9936 -1.0460  0.8175
  542THF     H7 8480   2.336   1.556   3.446 -0.8984 -0.7865  3.6441
  542THF     C8 8481   2.215   1.370   3.385  0.2426 -0.3219 -0.3646
  542THF     C9 8482   2.147   1.424   3.263  0.4255 -0.6717 -0.4224
  542THF    H10 8483   2.161   1.369   3.476  3.3703 -0.4617  0.4554
  542THF    H11 8484   2.241   1.266   3.357 -1.3378 -2.4413 -1.0507
  542THF    H12 8485   2.137   1.341   3.197 -0.7570  2.6640 -1.5468
  542THF    H13 8486   2.058   1.480   3.296  0.1963  2.2463 -0.5860
  543THF     O1 8487   3.581   5.191   4.850 -0.3011 -0.4800 -0.2208
  543THF     C2 8488   3.631   5.294   4.777  0.2762  0.1521 -0.0270
  543THF     C3 8489   3.679   5.171   4.950 -0.5636  0.3761  0.2452
  543THF     H4 8490   3.592   5.389   4.801 -0.9647 -0.0979  0.5435
  543THF     H5 8491   3.591   5.280   4.669  0.2782  0.5348  1.2476
  543THF     H6 8492   3.678   5.253   5.025  0.1644  1.4464 -1.4300
  543THF     H7 8493   3.671   5.073   4.998  1.0812 -0.0774 -2.8688
  543THF     C8 8494   3.808   5.161   4.866 -0.7431 -0.1485  0.3338
  543THF     C9 8495   3.785   5.275   4.765  0.0035  0.5969 -0.2665
  543THF    H10 8496   3.810   5.068   4.815 -0.0603  0.0874 -1.5217
  543THF    H11 8497   3.903   5.178   4.920 -1.5654 -0.5549 -0.4204
  543THF    H12 8498   3.832   5.368   4.788 -2.3743  0.0324 -2.6488
  543THF    H13 8499   3.818   5.228   4.671  1.9704  0.1630 -1.2813
  544THF     O1 8500   4.226   4.851   3.014  0.6723  0.8141 -0.0720
  544THF     C2 8501   4.356   4.811   3.049 -0.6759 -0.5494 -0.0737
  544THF     C3 8502   4.233   4.908   2.887 -0.6943 -0.2269 -0.6183
  544THF     H4 8503   4.383   4.713   3.009 -1.5087 -1.3303 -1.1290
  544THF     H5 8504   4.366   4.809   3.156 -0.2670 -0.8680 -1.0577
  544THF     H6 8505   4.203   4.823   2.822  2.5984 -0.7894 -0.9157
  544THF     H7 8506   4.151   4.980   2.875  0.9069 -0.9793 -1.5889
  544THF     C8 8507   4.376   4.953   2.861 -0.6202  0.6262 -0.3980
  544THF     C9 8508   4.445   4.921   2.991  0.7391  0.2015 -0.0139
  544THF    H10 8509   4.376   5.058   2.854  1.7316  0.2538 -1.9155
  544THF    H11 8510   4.425   4.895   2.779  1.9091 -2.3415 -0.2726
  544THF    H12 8511   4.549   4.891   2.976 -1.9566 -1.4994 -1.1096
  544THF    H13 8512   4.441   5.009   3.057 -1.0382 -1.3581 -0.8966
  545THF     O1 8513   1.686   0.631   4.534 -0.2306 -0.1573  0.6331
  545THF     C2 8514   1.737   0.516   4.606 -0.1309 -0.0195  0.5864
  545THF     C3 8515   1.623   0.583   4.413 -0.2234 -0.5597  0.4310
  545THF     H4 8516   1.671   0.482   4.683 -0.7698 -1.0829  0.0880
  545THF     H5 8517   1.822   0.551   4.662 -0.3504 -0.6307  1.8536
  545THF     H6 8518   1.520   0.555   4.430 -1.8196  2.4083 -3.2709
  545THF     H7 8519   1.634   0.667   4.338 -1.0114  2.7644  0.8144
  545THF     C8 8520   1.717   0.470   4.366 -0.7111 -0.5874  0.3464
  545THF     C9 8521   1.782   0.413   4.494 -0.2048 -0.6653  0.1689
  545THF    H10 8522   1.800   0.520   4.316  0.4742  1.1564 -0.8486
  545THF    H11 8523   1.678   0.409   4.293 -0.5796  1.1827  0.6673
  545THF    H12 8524   1.740   0.316   4.520 -2.5542 -0.2926 -3.6859
  545THF    H13 8525   1.888   0.408   4.495 -0.6780 -0.9519  0.3603
  546THF     O1 8526   4.485   2.053   3.975 -0.0820  0.3600 -0.3763
  546THF     C2 8527   4.360   2.096   3.925  0.8017  0.0799 -0.1614
  546THF     C3 8528   4.535   1.951   3.887  0.1222  0.1154 -0.0279
  546THF     H4 8529   4.331   2.187   3.984 -1.2739  1.5912  2.7347
  546THF     H5 8530   4.282   2.023   3.939 -1.9578  0.1441  2.6534
  546THF     H6 8531   4.649   1.954   3.878  1.6035  2.4563  2.0197
  546THF     H7 8532   4.501   1.852   3.929 -0.1595 -0.7982 -0.7659
  546THF     C8 8533   4.468   1.987   3.750  0.2006  0.8371  0.1591
  546THF     C9 8534   4.396   2.117   3.777 -0.1606  0.0099 -0.7357
  546THF    H10 8535   4.398   1.905   3.729  0.2280  0.4227 -1.9317
  546THF    H11 8536   4.539   2.005   3.671 -0.3242  0.3841  1.0607
  546THF    H12 8537   4.461   2.203   3.767  2.9693 -1.6263  0.6814
  546THF    H13 8538   4.308   2.131   3.715  0.8947  0.6194 -0.8119
  547THF     O1 8539   1.305   3.902   1.483  0.4955  0.1679 -0.5200
  547THF     C2 8540   1.224   3.884   1.603 -0.3638  0.2399 -0.0568
  547THF     C3 8541   1.342   3.787   1.414 -0.4711 -0.2096  0.1217
  547THF     H4 8542   1.160   3.969   1.614 -2.3937  0.5829 -1.8568
  547THF     H5 8543   1.296   3.876   1.686  0.5188  2.7013  2.5478
  547THF     H6 8544   1.350   3.791   1.303  0.1622 -0.3873 -1.4506
  547THF     H7 8545   1.444   3.772   1.445  4.0559  0.1591 -0.9111
  547THF     C8 8546   1.269   3.670   1.484  0.1968 -0.5894  1.1459
  547THF     C9 8547   1.161   3.745   1.566  0.7584  0.6482  0.1242
  547THF    H10 8548   1.339   3.614   1.549  1.4398  0.0571  3.1311
  547THF    H11 8549   1.231   3.591   1.412 -1.7855  0.9113 -0.5562
  547THF    H12 8550   1.074   3.768   1.493  1.2488  2.5654 -0.4176
  547THF    H13 8551   1.126   3.685   1.655  1.5777  0.3483 -0.1100
  548THF     O1 8552   1.646   5.421   3.510  0.1667  0.4323 -0.2119
  548THF     C2 8553   1.717   5.295   3.492 -0.5131 -0.8991 -0.2203
  548THF     C3 8554   1.709   5.490   3.629 -0.4653  0.2157 -0.3401
  548THF     H4 8555   1.798   5.311   3.418  1.0592 -1.9084  0.2505
  548THF     H5 8556   1.646   5.216   3.463 -2.3053  1.3118  0.1003
  548THF     H6 8557   1.813   5.514   3.606  1.9247  0.1471  0.4292
  548THF     H7 8558   1.660   5.574   3.671 -1.2701  0.4779 -0.1218
  548THF     C8 8559   1.723   5.369   3.725  0.3878 -0.1965 -0.2765
  548THF     C9 8560   1.770   5.260   3.632 -0.2319 -0.0367  0.2002
  548THF    H10 8561   1.626   5.351   3.779 -1.4278  0.2117  0.7634
  548THF    H11 8562   1.794   5.402   3.806  2.2641 -0.6013 -1.1317
  548THF    H12 8563   1.873   5.242   3.632  0.5491 -1.7138 -0.1814
  548THF    H13 8564   1.724   5.169   3.658  0.1623 -0.5986 -2.3186
  549THF     O1 8565   2.329   3.887   0.277  0.0682  0.0543  0.4009
  549THF     C2 8566   2.218   3.804   0.251 -0.4935 -0.4835  0.0683
  549THF     C3 8567   2.293   3.999   0.196  0.2351  0.0455  0.0836
  549THF     H4 8568   2.127   3.835   0.293  2.8207 -0.4230 -1.9374
  549THF     H5 8569   2.229   3.704   0.295  0.9700  1.6716 -1.5555
  549THF     H6 8570   2.205   4.051   0.236 -0.3592  0.3207  1.4684
  549THF     H7 8571   2.375   4.076   0.194 -0.7735 -2.6025  1.0957
  549THF     C8 8572   2.266   3.926   0.063 -0.8190  0.0833 -0.3613
  549THF     C9 8573   2.217   3.791   0.099  0.1055  0.0564 -0.3622
  549THF    H10 8574   2.368   3.936   0.029 -2.3206 -0.8412  0.8008
  549THF    H11 8575   2.193   3.989   0.000  0.0805  1.1804 -0.3285
  549THF    H12 8576   2.114   3.767   0.064  0.7826  1.9594  0.6624
  549THF    H13 8577   2.280   3.717   0.057  0.5917 -0.4768  1.5932
  550THF     O1 8578   0.055   1.851   4.871 -0.0481  0.1000  0.0626
  550THF     C2 8579   0.156   1.776   4.804  0.9193 -0.2906  0.2719
  550THF     C3 8580  -0.020   1.918   4.780 -0.2821 -0.7161 -0.2821
  550THF     H4 8581   0.120   1.676   4.796  0.2198  0.2663  1.9613
  550THF     H5 8582   0.256   1.767   4.848  1.8262 -2.7385  0.0886
  550THF     H6 8583  -0.088   1.845   4.729  0.9273  0.6085 -2.6344
  550THF     H7 8584  -0.088   1.992   4.822 -0.4963 -0.8799 -0.3301
  550THF     C8 8585   0.091   1.971   4.693 -0.6627  0.1819 -0.3272
  550THF     C9 8586   0.176   1.843   4.673  0.3179 -0.0630  0.4703
  550THF    H10 8587   0.156   2.049   4.729  2.4064 -1.9267 -1.6891
  550THF    H11 8588   0.048   2.006   4.596 -0.2778 -0.8170  0.2392
  550THF    H12 8589   0.138   1.783   4.592  0.9725  3.2865 -1.4557
  550THF    H13 8590   0.283   1.875   4.645  1.9286 -2.1859 -1.7443
  551THF     O1 8591   2.209   4.954   4.217 -0.3339 -0.1827  0.2037
  551THF     C2 8592   2.313   4.958   4.315 -0.2525  0.0840 -0.6883
  551THF     C3 8593   2.089   4.929   4.284  0.0482 -0.1238  0.3549
  551THF     H4 8594   2.405   5.007   4.263 -0.3216  0.2363  1.8693
  551THF     H5 8595   2.355   4.854   4.338  1.0896  0.4108 -1.1309
  551THF     H6 8596   2.010   4.965   4.220  0.3910  0.5536 -1.8727
  551THF     H7 8597   2.072   4.824   4.299  0.3272 -0.3477  1.2678
  551THF     C8 8598   2.106   4.998   4.418  0.5360 -0.7590  0.3379
  551THF     C9 8599   2.255   5.037   4.438 -0.7183 -0.2943  0.2400
  551THF    H10 8600   2.072   4.935   4.501  0.8354 -1.5789  1.4891
  551THF    H11 8601   2.041   5.086   4.422  1.9425  0.0991 -1.2240
  551THF    H12 8602   2.265   5.142   4.420 -0.6790 -0.3504 -0.5575
  551THF    H13 8603   2.293   5.009   4.538  0.4141 -2.1408 -1.0770
  552THF     O1 8604   3.072   4.705   5.357 -0.0337 -0.0749 -0.5645
  552THF     C2 8605   3.030   4.581   5.310 -0.2930 -0.1403 -0.4481
  552THF     C3 8606   2.960   4.791   5.372 -0.4449  0.1581  0.6538
  552THF     H4 8607   2.988   4.528   5.401 -1.2039 -1.6157  2.8871
  552THF     H5 8608   3.119   4.533   5.258  0.0200 -1.9264  1.5500
  552THF     H6 8609   2.890   4.785   5.455 -1.3986  0.7103 -0.4672
  552THF     H7 8610   2.995   4.892   5.370 -0.3616 -1.4418  1.8256
  552THF     C8 8611   2.889   4.751   5.241 -0.7218  0.6074 -0.2599
  552THF     C9 8612   2.921   4.606   5.211  0.0657  0.3610  0.5961
  552THF    H10 8613   2.935   4.815   5.162  1.7474  0.1662 -0.9853
  552THF    H11 8614   2.780   4.773   5.246 -2.4607 -1.6504  2.5591
  552THF    H12 8615   2.845   4.532   5.234 -1.9548  0.2925  0.1850
  552THF    H13 8616   2.959   4.596   5.109  0.8424 -1.7863  2.3308
  553THF     O1 8617   2.901   2.042   2.988  0.1725  0.1579  0.1603
  553THF     C2 8618   3.024   2.006   2.925  0.1873  0.1088  0.4057
  553THF     C3 8619   2.809   2.085   2.889 -0.2972  0.5242  0.7658
  553THF     H4 8620   3.010   1.909   2.879 -1.0409 -1.5750 -0.4990
  553THF     H5 8621   3.106   2.006   2.992 -0.1568  0.6683 -0.6758
  553THF     H6 8622   2.763   2.000   2.834  0.8617  0.4770 -0.3661
  553THF     H7 8623   2.732   2.148   2.938  3.4913  1.6484 -0.1882
  553THF     C8 8624   2.905   2.153   2.784 -0.1196 -1.0262  0.3698
  553THF     C9 8625   3.044   2.116   2.826  0.3799 -0.8130 -0.0615
  553THF    H10 8626   2.893   2.264   2.786  0.9382  2.6974 -0.0563
  553THF    H11 8627   2.870   2.134   2.685  1.0378 -0.2211  0.0973
  553THF    H12 8628   3.095   2.079   2.740 -0.0268  3.1250  0.2427
  553THF    H13 8629   3.093   2.204   2.868 -1.2023 -3.0079  1.7211
  554THF     O1 8630   1.960   0.758   3.435  0.6354 -0.0025 -0.6574
  554THF     C2 8631   2.008   0.888   3.459 -0.4037 -0.1841 -0.3874
  554THF     C3 8632   2.018   0.708   3.311  0.2263  0.5810 -0.3544
  554THF     H4 8633   2.077   0.890   3.541 -0.6057  2.5068 -1.7569
  554THF     H5 8634   1.927   0.953   3.479 -2.2977  0.5892  0.3012
  554THF     H6 8635   2.057   0.608   3.317 -3.1064  2.4419  1.5970
  554THF     H7 8636   1.945   0.722   3.229  1.7179  0.5239  2.5943
  554THF     C8 8637   2.127   0.808   3.269  0.2411  0.8115  0.2644
  554THF     C9 8638   2.093   0.934   3.342  0.2600 -0.0233  0.7159
  554THF    H10 8639   2.139   0.824   3.163 -2.9786 -2.7046  1.3131
  554THF    H11 8640   2.224   0.773   3.315  1.4168  0.6938 -1.1276
  554THF    H12 8641   2.180   0.994   3.373 -2.0604 -0.1360  4.5866
  554THF    H13 8642   2.043   1.000   3.278  2.5565  0.2655  0.8379
  555THF     O1 8643   5.040   3.752   5.470 -0.0476  0.2616 -0.2081
  555THF     C2 8644   5.012   3.697   5.599  0.0462  1.0604  0.2103
  555THF     C3 8645   4.997   3.890   5.464 -0.2400 -0.7019 -1.0585
  555THF     H4 8646   5.099   3.682   5.661  1.1316  0.0954  1.0335
  555THF     H5 8647   4.971   3.600   5.585 -2.7658 -0.2322  0.0311
  555THF     H6 8648   5.074   3.961   5.496  0.5307 -1.3502  3.8993
  555THF     H7 8649   4.978   3.914   5.369 -0.0282 -0.1628  0.4303
  555THF     C8 8650   4.875   3.888   5.558  0.4035  0.7998 -0.1663
  555THF     C9 8651   4.914   3.787   5.668 -0.7348 -0.3467  0.1611
  555THF    H10 8652   4.794   3.847   5.508 -1.6563  2.0093  1.4084
  555THF    H11 8653   4.857   3.982   5.606 -0.9667 -1.4645  2.4206
  555THF    H12 8654   4.959   3.850   5.751  0.6742  3.2360  2.9646
  555THF    H13 8655   4.833   3.742   5.723 -0.9891  0.3478  0.0050
  556THF     O1 8656   1.940   2.767   3.569  0.0240 -0.0586  0.1310
  556THF     C2 8657   1.957   2.718   3.699  0.0135 -0.3721  0.2855
  556THF     C3 8658   1.798   2.771   3.536 -0.1386  0.2172 -0.7522
  556THF     H4 8659   1.943   2.799   3.774  0.5408  0.2385  2.1554
  556THF     H5 8660   2.057   2.678   3.696 -2.4752  0.1038  0.7955
  556THF     H6 8661   1.767   2.861   3.581  0.3667  0.1710  0.5210
  556THF     H7 8662   1.782   2.765   3.429  1.9283 -1.0601  1.3177
  556THF     C8 8663   1.737   2.655   3.618  0.5541  0.4255  0.0400
  556THF     C9 8664   1.846   2.622   3.722  0.8441  0.1407 -0.9135
  556THF    H10 8665   1.725   2.566   3.549 -0.2714 -1.6557 -0.2861
  556THF    H11 8666   1.642   2.687   3.668 -2.5318  0.1114  1.1979
  556THF    H12 8667   1.815   2.647   3.820 -1.7352  1.5896 -1.0683
  556THF    H13 8668   1.879   2.519   3.722 -1.5189  0.0646 -1.8332
  557THF     O1 8669   1.962   4.392   1.099  0.4196  0.0419 -0.2345
  557THF     C2 8670   1.908   4.529   1.093 -0.7867  0.3305  0.0835
  557THF     C3 8671   2.034   4.376   1.218 -0.2657  0.3646  0.0939
  557THF     H4 8672   1.834   4.554   1.018  1.9724  1.6911  2.9328
  557THF     H5 8673   1.984   4.610   1.075  0.2204 -1.7523 -0.7305
  557THF     H6 8674   2.047   4.273   1.241 -0.2186  1.7929 -1.4241
  557THF     H7 8675   2.125   4.428   1.222  2.0740  0.8934  3.9245
  557THF     C8 8676   1.927   4.436   1.315  0.1170  0.5652 -0.5294
  557THF     C9 8677   1.850   4.536   1.236 -0.7367 -0.9288  0.0775
  557THF    H10 8678   1.957   4.456   1.416  0.9999  0.0411  0.1408
  557THF    H11 8679   1.857   4.357   1.336 -0.8798 -1.6116  1.0367
  557THF    H12 8680   1.745   4.506   1.224 -3.1496 -1.4395  0.5769
  557THF    H13 8681   1.850   4.643   1.257 -2.3918 -0.8752 -0.8119
  558THF     O1 8682   4.149   0.763   0.558  0.5252 -0.1529 -0.1951
  558THF     C2 8683   4.035   0.728   0.628  0.3342 -0.5733 -0.1765
  558THF     C3 8684   4.159   0.682   0.440  0.5455 -0.0540  0.2814
  558THF     H4 8685   3.992   0.812   0.684  1.9093 -0.0981 -0.5042
  558THF     H5 8686   4.072   0.663   0.709  5.0245  1.2956  0.3159
  558THF     H6 8687   4.180   0.747   0.356  2.3883 -0.8437  1.6979
  558THF     H7 8688   4.249   0.620   0.450 -0.5702 -1.9006  0.3860
  558THF     C8 8689   4.035   0.592   0.444 -0.1303 -0.2930  0.6871
  558THF     C9 8690   3.942   0.661   0.531  0.2632 -0.3647  0.0248
  558THF    H10 8691   4.061   0.499   0.492  1.2456  2.4201  2.0370
  558THF    H11 8692   3.984   0.568   0.350 -0.6348  2.0370  0.8314
  558THF    H12 8693   3.891   0.740   0.478  0.4485  0.4393  1.0338
  558THF    H13 8694   3.875   0.599   0.581  1.4227  0.9570 -3.7412
  559THF     O1 8695   3.649   1.456   4.302  0.3650  0.1437 -0.1085
  559THF     C2 8696   3.706   1.420   4.174  0.2866  0.0171 -0.6603
  559THF     C3 8697   3.714   1.571   4.348  0.2070 -0.7107 -0.4886
  559THF     H4 8698   3.658   1.479   4.095 -1.3957 -0.5707 -0.2302
  559THF     H5 8699   3.695   1.314   4.153 -1.7731 -0.9198  0.5402
  559THF     H6 8700   3.687   1.651   4.283 -0.8618  1.6673  1.1470
  559THF     H7 8701   3.683   1.611   4.443 -0.4829  0.5594 -1.1595
  559THF     C8 8702   3.859   1.541   4.315  0.3173  0.2135 -0.0479
  559THF     C9 8703   3.857   1.449   4.194 -0.3169  0.1291 -0.0474
  559THF    H10 8704   3.915   1.496   4.395 -2.1956 -1.3138  2.8497
  559THF    H11 8705   3.908   1.639   4.294 -0.7513 -1.3430 -0.7180
  559THF    H12 8706   3.887   1.505   4.108 -1.9724 -0.3241 -0.1961
  559THF    H13 8707   3.918   1.365   4.207 -0.6284  1.2827  2.2205
  560THF     O1 8708   3.872   4.080   3.548  0.2360 -0.7699 -0.1555
  560THF     C2 8709   3.922   4.160   3.441  0.0013  0.2322 -0.0737
  560THF     C3 8710   3.936   3.948   3.534  0.0091 -0.4103 -0.2459
  560THF     H4 8711   4.014   4.199   3.481 -1.4714 -0.9046  2.1256
  560THF     H5 8712   3.852   4.240   3.412 -1.2435 -1.1068 -0.8948
  560THF     H6 8713   4.046   3.960   3.558  1.4671 -1.0968  1.0484
  560THF     H7 8714   3.883   3.862   3.585  0.9341  0.5601 -0.7342
  560THF     C8 8715   3.924   3.933   3.381 -0.3637 -0.1477  0.5051
  560THF     C9 8716   3.941   4.070   3.323 -0.4572  0.1417 -0.0407
  560THF    H10 8717   3.838   3.878   3.354 -1.1733  1.7287 -0.4636
  560THF    H11 8718   4.005   3.873   3.349  0.2065 -0.1856  1.0674
  560THF    H12 8719   4.043   4.086   3.290 -0.2356 -2.0253 -2.5870
  560THF    H13 8720   3.879   4.091   3.233 -2.1365 -2.6124  0.2973
  561THF     O1 8721   3.397   4.229   1.362 -0.3980 -0.1816  0.2095
  561THF     C2 8722   3.329   4.316   1.259  0.2181 -0.0594 -0.3113
  561THF     C3 8723   3.304   4.222   1.468  0.3389 -0.3333 -0.5063
  561THF     H4 8724   3.387   4.325   1.169 -0.5591  0.3117  0.0212
  561THF     H5 8725   3.340   4.418   1.298  0.1277  0.7878 -0.2367
  561THF     H6 8726   3.320   4.132   1.519  0.3393  0.4827 -1.4367
  561THF     H7 8727   3.321   4.302   1.540  0.5349  0.4093 -0.2089
  561THF     C8 8728   3.163   4.227   1.406 -0.3312 -0.2391 -0.7485
  561THF     C9 8729   3.185   4.267   1.254 -0.1107 -0.0801  0.2628
  561THF    H10 8730   3.095   4.286   1.469  0.1052 -1.8741  1.5009
  561THF    H11 8731   3.131   4.120   1.402  1.9198  0.4224 -0.3784
  561THF    H12 8732   3.175   4.171   1.191  0.8218 -3.0817 -0.3163
  561THF    H13 8733   3.100   4.328   1.228 -1.9680 -0.0523  1.4954
  562THF     O1 8734   3.901   3.530   2.410  0.3190 -0.7493 -0.4521
  562THF     C2 8735   3.923   3.669   2.398  0.0960 -0.0837  0.9912
  562THF     C3 8736   3.814   3.468   2.319  0.2031  0.6428  0.0598
  562THF     H4 8737   3.998   3.702   2.318 -0.9671  0.7412 -2.9140
  562THF     H5 8738   3.959   3.704   2.494 -1.1451 -2.1719  0.6804
  562THF     H6 8739   3.865   3.414   2.239 -0.5603 -1.5840  2.5490
  562THF     H7 8740   3.744   3.400   2.373 -0.8482  2.0014  1.7341
  562THF     C8 8741   3.743   3.593   2.259 -0.0091  0.2870  0.0828
  562THF     C9 8742   3.782   3.708   2.356 -0.2432  0.0720  0.3160
  562THF    H10 8743   3.635   3.597   2.249 -0.3480 -0.0504  1.3381
  562THF    H11 8744   3.796   3.609   2.164 -1.5668 -1.0858 -1.1776
  562THF    H12 8745   3.767   3.811   2.314  0.9854  1.2735  0.1458
  562THF    H13 8746   3.708   3.710   2.439  1.0525  1.1395  1.1140
  563THF     O1 8747   4.479   4.702   0.119  0.2486  0.1052 -0.1915
  563THF     C2 8748   4.493   4.587   0.198 -0.2900 -0.2654 -0.2557
  563THF     C3 8749   4.563   4.802   0.178 -0.3374  0.4661  0.4633
  563THF     H4 8750   4.590   4.531   0.187  1.8046 -0.4983 -0.8440
  563THF     H5 8751   4.421   4.506   0.168  0.4155 -0.1524 -0.7611
  563THF     H6 8752   4.666   4.791   0.136 -0.9936 -1.1808  1.7368
  563THF     H7 8753   4.526   4.905   0.171 -1.3546 -0.4135 -2.1350
  563THF     C8 8754   4.566   4.767   0.324 -0.0177 -0.2441  0.5658
  563THF     C9 8755   4.485   4.638   0.341 -0.6236 -0.1237  0.1974
  563THF    H10 8756   4.544   4.854   0.379  3.0608 -0.2221  2.4675
  563THF    H11 8757   4.668   4.741   0.360 -0.0114 -0.7375 -0.2869
  563THF    H12 8758   4.543   4.575   0.408 -0.3627 -2.9509 -1.3899
  563THF    H13 8759   4.385   4.642   0.386  2.2423 -1.0905  0.5218
  564THF     O1 8760   2.811   2.495   2.487  0.7162  0.5961 -0.0251
  564THF     C2 8761   2.700   2.587   2.523 -0.3204  0.3230  0.5222
  564THF     C3 8762   2.745   2.365   2.483 -0.7118  0.0215  0.2137
  564THF     H4 8763   2.642   2.617   2.434  0.8071 -3.0012 -0.5365
  564THF     H5 8764   2.741   2.687   2.550  1.4973  1.4295  0.8431
  564THF     H6 8765   2.695   2.357   2.395  0.6807 -0.2407 -2.1079
  564THF     H7 8766   2.812   2.283   2.506 -1.5331  0.5660 -1.3053
  564THF     C8 8767   2.632   2.375   2.590  0.4247 -0.5709  0.1292
  564THF     C9 8768   2.609   2.516   2.629  0.0825  0.1215  0.1587
  564THF    H10 8769   2.662   2.315   2.677 -2.0506 -0.7726 -1.7663
  564THF    H11 8770   2.546   2.337   2.542  0.3278  0.7717  2.6607
  564THF    H12 8771   2.505   2.544   2.608  1.1873  2.0319 -1.0830
  564THF    H13 8772   2.647   2.530   2.730  0.0919  2.2772  0.4569
  565THF     O1 8773   3.136   4.717   0.488 -0.5012  0.1388 -0.3004
  565THF     C2 8774   3.142   4.808   0.595 -0.3281  0.0693 -0.9189
  565THF     C3 8775   3.176   4.779   0.361 -0.8455  0.5647 -0.3101
  565THF     H4 8776   3.243   4.821   0.632  0.9020 -0.7188  2.2845
  565THF     H5 8777   3.076   4.783   0.677  1.1849 -0.4873 -2.4317
  565THF     H6 8778   3.275   4.763   0.334  2.2054  0.7870 -0.4325
  565THF     H7 8779   3.115   4.737   0.281 -0.0037 -2.5971 -0.0949
  565THF     C8 8780   3.166   4.929   0.391  0.6414 -0.4321 -0.1798
  565THF     C9 8781   3.095   4.936   0.527 -0.2375  0.3982  0.3722
  565THF    H10 8782   3.091   4.965   0.313  0.5847 -1.2139 -2.7788
  565THF    H11 8783   3.264   4.979   0.395 -0.6271 -0.3547  0.7032
  565THF    H12 8784   3.109   5.029   0.579  2.0471 -2.2664 -0.6987
  565THF    H13 8785   2.991   4.923   0.507 -1.7961 -3.3109 -1.7957
  566THF     O1 8786   3.870   3.673   1.932 -0.4919  0.1770  0.1775
  566THF     C2 8787   3.928   3.540   1.937 -0.0006  0.1001  0.0067
  566THF     C3 8788   3.976   3.771   1.949 -0.0777  0.7562  0.5173
  566THF     H4 8789   3.897   3.488   1.842 -1.0962  0.4994 -0.2181
  566THF     H5 8790   3.899   3.489   2.023 -1.8463 -0.8473 -0.5350
  566THF     H6 8791   3.964   3.871   1.900 -0.2747 -0.0334 -0.1645
  566THF     H7 8792   4.007   3.796   2.050 -0.3106 -1.9469 -0.8960
  566THF     C8 8793   4.094   3.699   1.883  1.3550  0.2850 -0.4575
  566THF     C9 8794   4.079   3.558   1.937 -0.2883  0.0879 -0.1503
  566THF    H10 8795   4.185   3.749   1.903  1.7706 -1.9412 -1.3301
  566THF    H11 8796   4.072   3.706   1.780 -1.1947 -0.9082  1.7803
  566THF    H12 8797   4.137   3.480   1.888 -0.3793  0.4075  1.2292
  566THF    H13 8798   4.115   3.558   2.038 -0.0656  2.5406 -0.9668
  567THF     O1 8799   5.325   1.360   1.241  0.2987 -0.1060  0.3192
  567THF     C2 8800   5.421   1.289   1.164  0.4346 -0.3365  0.4074
  567THF     C3 8801   5.307   1.495   1.193 -0.1989  0.6325  0.0792
  567THF     H4 8802   5.401   1.185   1.179 -0.6064 -2.0861  1.2067
  567THF     H5 8803   5.529   1.302   1.190  1.3524  0.1722  2.2151
  567THF     H6 8804   5.203   1.524   1.213  0.3708 -1.2039  0.7070
  567THF     H7 8805   5.370   1.566   1.247  1.4801 -1.9085  0.0246
  567THF     C8 8806   5.365   1.489   1.046  0.3414  0.5859  0.4884
  567THF     C9 8807   5.395   1.339   1.024  0.0597  0.3269 -0.2541
  567THF    H10 8808   5.460   1.540   1.027  0.9202 -1.2782 -2.4183
  567THF    H11 8809   5.293   1.520   0.969 -1.8178  0.2040  2.2845
  567THF    H12 8810   5.303   1.305   0.984  0.1416  2.2905  3.5471
  567THF    H13 8811   5.479   1.308   0.953 -1.2478  1.1045 -4.3801
  568THF     O1 8812   0.175   3.159   3.186 -0.1347 -0.3882  0.4424
  568THF     C2 8813   0.262   3.254   3.237  0.1074  0.0590  0.5591
  568THF     C3 8814   0.168   3.192   3.048 -0.6415  0.1026 -0.5821
  568THF     H4 8815   0.367   3.239   3.205  1.1322 -1.6481 -1.7265
  568THF     H5 8816   0.255   3.257   3.343 -1.5098  2.0386  0.1770
  568THF     H6 8817   0.263   3.172   2.992  0.6474 -0.7464 -1.8692
  568THF     H7 8818   0.095   3.124   3.007  1.4847 -0.6603  0.6437
  568THF     C8 8819   0.129   3.337   3.063 -0.4059 -0.0758  0.4520
  568THF     C9 8820   0.210   3.386   3.181  0.3768  0.6803 -0.4331
  568THF    H10 8821   0.025   3.339   3.085  1.3702 -2.1786 -2.1133
  568THF    H11 8822   0.148   3.384   2.962  2.5554  0.4550 -2.0261
  568THF    H12 8823   0.286   3.456   3.150 -0.0347  0.4225 -0.8522
  568THF    H13 8824   0.148   3.434   3.256  1.8638  0.0958 -1.2796
  569THF     O1 8825   3.801   1.012   3.534  0.3590 -0.6673 -0.0320
  569THF     C2 8826   3.699   1.090   3.472  0.0826 -0.2568  0.1260
  569THF     C3 8827   3.814   1.052   3.665  0.0904 -0.1394 -0.5127
  569THF     H4 8828   3.659   1.055   3.376 -0.9122 -0.1479  0.2540
  569THF     H5 8829   3.727   1.186   3.436  1.2420 -0.0171  1.7100
  569THF     H6 8830   3.862   0.981   3.730 -0.1483  0.1775 -1.2404
  569THF     H7 8831   3.882   1.135   3.660  2.9420  0.9686 -2.0021
  569THF     C8 8832   3.675   1.096   3.708  0.3435  0.4343 -0.1017
  569THF     C9 8833   3.589   1.110   3.579 -0.4221  0.8921 -0.4277
  569THF    H10 8834   3.684   1.191   3.765  3.6087  2.8543 -0.9823
  569THF    H11 8835   3.631   1.021   3.767  2.0162  1.4512 -1.5089
  569THF    H12 8836   3.519   1.028   3.577  1.0932 -1.8176 -0.6773
  569THF    H13 8837   3.539   1.207   3.558 -1.7884  4.2295  1.9324
  570THF     O1 8838   4.946   4.284   0.972  0.2488 -0.6743  0.0239
  570THF     C2 8839   5.039   4.372   0.900  0.0338 -0.9115 -0.1546
  570THF     C3 8840   4.944   4.327   1.109  0.9212 -0.0432 -0.1416
  570THF     H4 8841   5.002   4.478   0.882  1.1245  1.1573  1.1335
  570THF     H5 8842   5.072   4.329   0.806  0.4636 -0.3883 -1.6956
  570THF     H6 8843   4.886   4.423   1.125  1.1160  0.9512  0.6252
  570THF     H7 8844   4.898   4.245   1.165 -3.5511  3.0975  2.8346
  570THF     C8 8845   5.091   4.336   1.143 -0.9397  0.5615  0.2734
  570THF     C9 8846   5.153   4.374   1.005 -0.1906 -0.3692 -0.0167
  570THF    H10 8847   5.141   4.245   1.185 -0.0244 -0.4059  4.0503
  570THF    H11 8848   5.118   4.406   1.221  2.1158 -0.4479 -1.1814
  570THF    H12 8849   5.185   4.482   1.007  0.6077  0.6280 -0.8315
  570THF    H13 8850   5.246   4.325   0.975 -0.9856  1.7410 -1.6564
  571THF     O1 8851   3.782   1.958   1.749  0.2147  0.3073  0.8445
  571THF     C2 8852   3.715   2.057   1.823  0.3543  0.1120 -0.4762
  571THF     C3 8853   3.827   2.017   1.624 -0.3595  0.1521 -0.0815
  571THF     H4 8854   3.710   2.039   1.929  1.7462 -1.1836 -1.5703
  571THF     H5 8855   3.612   2.063   1.785 -1.2030  0.4198  0.0279
  571THF     H6 8856   3.929   1.983   1.592  0.7668  0.1057  0.1636
  571THF     H7 8857   3.764   1.986   1.546  1.0765  0.8097  1.9204
  571THF     C8 8858   3.818   2.171   1.645  0.5265  0.5981 -0.0145
  571THF     C9 8859   3.795   2.188   1.792  0.0422 -0.0698  0.2310
  571THF    H10 8860   3.730   2.207   1.598  3.0297 -0.8747  0.5575
  571THF    H11 8861   3.906   2.224   1.608  0.4109 -0.4234  1.3060
  571THF    H12 8862   3.897   2.191   1.834 -0.9065 -1.9907  0.3320
  571THF    H13 8863   3.744   2.280   1.814  1.2958 -2.2410  0.3853
  572THF     O1 8864   0.604   0.498   2.186 -0.0633  0.7338 -0.1911
  572THF     C2 8865   0.722   0.435   2.146  0.8222 -0.1905  0.4384
  572THF     C3 8866   0.572   0.469   2.317  0.2803  0.0244  0.2494
  572THF     H4 8867   0.793   0.521   2.148  1.8427  1.3789 -3.1440
  572THF     H5 8868   0.710   0.408   2.043 -0.4104 -0.2610  0.6752
  572THF     H6 8869   0.628   0.534   2.381 -1.6785 -0.8499  0.0228
  572THF     H7 8870   0.464   0.478   2.353  0.1103 -0.5312  0.9447
  572THF     C8 8871   0.628   0.332   2.344 -0.2185  0.2231 -0.0926
  572THF     C9 8872   0.751   0.324   2.248  0.2337 -0.3094 -0.0487
  572THF    H10 8873   0.554   0.257   2.326  1.0225 -0.5536  0.4288
  572THF    H11 8874   0.647   0.319   2.451  0.8356 -2.3655 -1.2189
  572THF    H12 8875   0.831   0.362   2.310  1.0232 -0.6476 -3.0094
  572THF    H13 8876   0.783   0.229   2.204 -0.0512  1.8054 -0.5673
  573THF     O1 8877   4.945   1.111   4.573  0.2992  0.0995  0.6274
  573THF     C2 8878   4.811   1.049   4.571 -0.3455  0.0612 -0.2207
  573THF     C3 8879   4.959   1.207   4.464  0.1909  0.0771  0.5513
  573THF     H4 8880   4.782   1.014   4.667 -1.6456  0.2870  1.4674
  573THF     H5 8881   4.801   0.964   4.498 -2.9499 -1.0882  0.8365
  573THF     H6 8882   5.002   1.295   4.503 -0.5410 -1.5449  1.5338
  573THF     H7 8883   5.021   1.192   4.384  1.6363  0.0454 -0.2013
  573THF     C8 8884   4.811   1.231   4.421 -0.4573  0.0785 -0.2223
  573THF     C9 8885   4.725   1.171   4.529  0.6730 -1.1345 -0.4064
  573THF    H10 8886   4.798   1.179   4.328 -0.6059  3.3425  0.3428
  573THF    H11 8887   4.769   1.328   4.409  1.3908 -1.8787 -2.2218
  573THF    H12 8888   4.709   1.251   4.603 -0.9086 -0.6467  1.7344
  573THF    H13 8889   4.622   1.149   4.496 -2.6444 -0.0574  0.9012
  574THF     O1 8890   0.166   2.011   0.193 -0.4781  0.2378  0.3253
  574THF     C2 8891   0.104   2.061   0.318 -0.4244  0.6481 -0.4712
  574THF     C3 8892   0.098   2.078   0.087 -0.3084  0.0720 -0.7599
  574THF     H4 8893   0.155   2.027   0.410 -0.4476 -4.0226  1.5120
  574THF     H5 8894   0.005   2.023   0.320  1.1679 -2.6684 -0.8854
  574THF     H6 8895   0.157   2.085  -0.003 -0.1458 -1.5046 -0.0469
  574THF     H7 8896   0.015   2.019   0.057 -2.1546 -0.6575 -2.2319
  574THF     C8 8897   0.069   2.221   0.143  0.3125  0.4500 -0.5218
  574THF     C9 8898   0.122   2.215   0.285 -0.3502 -0.2456  0.5061
  574THF    H10 8899  -0.040   2.235   0.148  1.2240  2.8874 -0.4125
  574THF    H11 8900   0.115   2.295   0.071 -1.5579 -0.2235  2.0673
  574THF    H12 8901   0.229   2.231   0.291  0.8108  2.3901 -2.6775
  574THF    H13 8902   0.068   2.278   0.357 -0.6969  1.1505 -0.1477
  575THF     O1 8903   4.617   0.485   1.873 -0.3470  0.3633 -1.0544
  575THF     C2 8904   4.637   0.577   1.769 -0.1412 -0.1960  0.1920
  575THF     C3 8905   4.599   0.355   1.817  0.5162  0.8730  0.2770
  575THF     H4 8906   4.727   0.643   1.793  0.8803  2.2464  2.0608
  575THF     H5 8907   4.548   0.642   1.749 -0.5223 -0.2565 -1.7728
  575THF     H6 8908   4.687   0.297   1.828 -2.8052  0.8182  1.5030
  575THF     H7 8909   4.525   0.288   1.863  2.2168  1.9033 -1.3387
  575THF     C8 8910   4.574   0.377   1.670 -0.3201 -0.0047  0.6830
  575THF     C9 8911   4.654   0.495   1.644  0.3211 -0.2469  0.2131
  575THF    H10 8912   4.477   0.413   1.640  1.1819 -1.5719  1.3069
  575THF    H11 8913   4.592   0.293   1.604  1.0454  1.4678  2.7050
  575THF    H12 8914   4.766   0.478   1.627  1.1688 -2.6262 -0.4333
  575THF    H13 8915   4.616   0.553   1.557  0.6109  1.2707 -2.8281
  576THF     O1 8916   1.687   3.900   1.095 -0.9049 -0.3347  0.1572
  576THF     C2 8917   1.717   3.944   1.227  0.8650  0.0059  0.1974
  576THF     C3 8918   1.789   3.957   1.009 -0.4876 -0.6215  0.0331
  576THF     H4 8919   1.797   3.880   1.262  2.4332  0.4613 -0.8066
  576THF     H5 8920   1.628   3.936   1.296 -1.3660  1.1972 -2.0736
  576THF     H6 8921   1.878   3.897   1.018 -2.8480  0.6440  0.8293
  576THF     H7 8922   1.765   3.960   0.904 -0.3846 -1.0856  0.4614
  576THF     C8 8923   1.815   4.097   1.066  0.3915  0.4339 -0.2474
  576THF     C9 8924   1.771   4.086   1.211  0.0475 -0.2818 -0.2285
  576THF    H10 8925   1.744   4.162   1.026  2.5454 -0.7353  2.4152
  576THF    H11 8926   1.914   4.140   1.037  1.3406 -0.8897 -2.0908
  576THF    H12 8927   1.854   4.105   1.280 -0.7004  1.6246  2.9158
  576THF    H13 8928   1.699   4.166   1.230  0.2835 -0.6567  1.2478
  577THF     O1 8929   4.466   1.568   4.633 -0.2996 -0.4669  0.3048
  577THF     C2 8930   4.385   1.575   4.522 -0.4721 -0.0494  0.1621
  577THF     C3 8931   4.587   1.636   4.610 -0.1286 -0.1608 -0.4704
  577THF     H4 8932   4.303   1.644   4.538  0.3671 -2.9219  2.6454
  577THF     H5 8933   4.342   1.478   4.499  1.0235 -1.3829  0.3851
  577THF     H6 8934   4.617   1.701   4.695 -0.6626  2.4581  0.3201
  577THF     H7 8935   4.661   1.555   4.586 -0.0378 -2.8788  0.1499
  577THF     C8 8936   4.551   1.721   4.485  0.9152 -0.5202  0.6029
  577THF     C9 8937   4.465   1.633   4.405  0.3951  0.8419  0.0940
  577THF    H10 8938   4.641   1.746   4.425 -2.1037  0.2478  0.5422
  577THF    H11 8939   4.486   1.812   4.507 -3.0772 -0.1674  1.2538
  577THF    H12 8940   4.408   1.686   4.328  2.8582 -0.0779  1.3839
  577THF    H13 8941   4.524   1.550   4.353 -1.9084 -1.3047 -1.4369
  578THF     O1 8942   1.745   3.094   1.582 -0.5199 -0.0428 -0.1939
  578THF     C2 8943   1.769   2.963   1.625  0.7255  0.2257  0.0368
  578THF     C3 8944   1.868   3.130   1.517  0.1330  0.4622  0.2982
  578THF     H4 8945   1.680   2.904   1.650  0.4317 -0.7864  0.8971
  578THF     H5 8946   1.833   2.960   1.716  2.4339  1.2457  0.9260
  578THF     H6 8947   1.837   3.213   1.448 -1.7234  1.5616  0.2442
  578THF     H7 8948   1.947   3.161   1.590 -0.6066  0.6136 -0.7259
  578THF     C8 8949   1.909   3.005   1.436 -0.4068 -0.4472 -0.0606
  578THF     C9 8950   1.835   2.889   1.506  0.2962 -0.3080 -0.8552
  578THF    H10 8951   2.022   2.999   1.415 -0.4111  1.4278  0.9429
  578THF    H11 8952   1.875   3.031   1.339 -0.8387 -1.8191  0.0347
  578THF    H12 8953   1.765   2.834   1.447 -0.6315 -1.2442  0.2898
  578THF    H13 8954   1.906   2.817   1.543  0.0005  1.0140  1.6738
  579THF     O1 8955   0.642   2.392   1.725  0.0679 -0.2580 -0.2149
  579THF     C2 8956   0.782   2.435   1.725 -0.3925  0.5504  0.1378
  579THF     C3 8957   0.567   2.514   1.734  0.7560  0.0892 -0.2787
  579THF     H4 8958   0.817   2.475   1.627  1.1940  1.2883  0.8324
  579THF     H5 8959   0.854   2.349   1.737 -0.2790  2.1548  0.7643
  579THF     H6 8960   0.565   2.573   1.637  0.5147 -2.2728 -1.4038
  579THF     H7 8961   0.463   2.516   1.763  0.8900 -0.8877  1.8392
  579THF     C8 8962   0.647   2.601   1.821 -0.0001  0.8437  0.3671
  579THF     C9 8963   0.794   2.543   1.826  0.3509  0.2782 -0.2760
  579THF    H10 8964   0.611   2.598   1.922 -0.1636  0.8055  0.0628
  579THF    H11 8965   0.641   2.704   1.785  0.1609 -1.1466  1.3664
  579THF    H12 8966   0.875   2.601   1.787 -0.8656  1.6425 -0.3191
  579THF    H13 8967   0.812   2.501   1.919 -0.0805  0.5789 -1.3595
  580THF     O1 8968   4.918   4.219   0.508 -0.4634  0.1048  0.3012
  580THF     C2 8969   4.820   4.298   0.578  0.4652  0.0249  0.1985
  580THF     C3 8970   4.934   4.274   0.379  0.1614  0.9429  0.1951
  580THF     H4 8971   4.830   4.296   0.684  0.8216  3.0335 -2.0337
  580THF     H5 8972   4.722   4.269   0.546  0.6075 -0.7961  2.4682
  580THF     H6 8973   5.044   4.283   0.373 -1.5291 -0.6183 -0.9638
  580THF     H7 8974   4.897   4.193   0.307  0.8577 -1.0751 -0.3914
  580THF     C8 8975   4.863   4.404   0.370 -0.0554  0.2059 -0.3586
  580THF     C9 8976   4.862   4.434   0.523  0.2051  0.1729  0.0508
  580THF    H10 8977   4.765   4.388   0.325  3.3766  0.8716 -0.4614
  580THF    H11 8978   4.926   4.475   0.320 -1.1565  1.1549  0.4015
  580THF    H12 8979   4.956   4.462   0.565 -2.9494  4.0556  0.7412
  580THF    H13 8980   4.795   4.517   0.557  0.4760  1.4256 -0.8047
  581THF     O1 8981   3.872   0.777   3.175  0.0712 -0.3418 -0.3697
  581THF     C2 8982   3.864   0.723   3.044  0.0674 -0.5100 -0.2809
  581THF     C3 8983   3.859   0.918   3.167 -0.9031  0.5257  0.4651
  581THF     H4 8984   3.765   0.718   3.003  2.5714 -1.2909 -2.0466
  581THF     H5 8985   3.894   0.617   3.048 -1.3942  1.7718  2.7598
  581THF     H6 8986   3.757   0.924   3.151 -4.2396  1.0743  0.0378
  581THF     H7 8987   3.888   0.962   3.263  0.5293  2.1944 -0.6281
  581THF     C8 8988   3.947   0.953   3.039 -0.3156 -0.0959  0.1128
  581THF     C9 8989   3.951   0.815   2.967 -0.3731  0.6704 -0.0711
  581THF    H10 8990   4.043   0.990   3.065 -0.8575  1.2494  2.2385
  581THF    H11 8991   3.896   1.020   2.973  1.5781 -1.3689 -0.7708
  581THF    H12 8992   3.927   0.824   2.861 -1.2384  0.7967  1.3839
  581THF    H13 8993   4.049   0.766   2.968 -1.1244 -2.1215  3.2643
  582THF     O1 8994   2.376   3.087   4.186  0.1416 -0.7312  0.9828
  582THF     C2 8995   2.418   3.216   4.149 -0.6570  0.2434  0.2596
  582THF     C3 8996   2.498   3.029   4.247 -0.8456  0.2750  0.1586
  582THF     H4 8997   2.330   3.272   4.119 -1.9065  0.6597  0.3781
  582THF     H5 8998   2.482   3.200   4.066 -1.5708 -1.2227  1.8070
  582THF     H6 8999   2.478   2.943   4.314  1.4214  0.1280  2.0341
  582THF     H7 9000   2.561   2.995   4.169 -2.6092 -0.4620  0.4978
  582THF     C8 9001   2.559   3.151   4.328  0.0415 -0.1250  0.1625
  582THF     C9 9002   2.498   3.274   4.265 -0.8420  0.0084 -0.0948
  582THF    H10 9003   2.666   3.160   4.328  0.8885  0.0691 -0.8547
  582THF    H11 9004   2.524   3.162   4.435 -1.0915 -3.4047  2.7258
  582THF    H12 9005   2.428   3.312   4.333 -0.7063  0.5799  1.5913
  582THF    H13 9006   2.566   3.353   4.228 -1.4103  1.2152  0.8429
  583THF     O1 9007   0.565   0.404   5.215  0.1123 -0.0639  0.4689
  583THF     C2 9008   0.506   0.298   5.292 -0.3951  0.5202  0.4525
  583THF     C3 9009   0.479   0.519   5.210 -0.1654  0.2821 -0.2165
  583THF     H4 9010   0.576   0.275   5.374  0.2686 -0.0856 -3.9771
  583THF     H5 9011   0.493   0.213   5.223 -2.4637  1.5632 -0.2848
  583THF     H6 9012   0.536   0.616   5.203  2.9426  1.6721 -0.4937
  583THF     H7 9013   0.407   0.525   5.131 -1.6786  0.5400 -0.1028
  583THF     C8 9014   0.405   0.501   5.340  0.0891  0.1838  0.2733
  583THF     C9 9015   0.375   0.351   5.351  0.0588 -0.8108 -0.1720
  583THF    H10 9016   0.319   0.573   5.361  1.1851 -0.8840 -0.7337
  583THF    H11 9017   0.476   0.529   5.416  1.0165  1.8527 -0.6884
  583THF    H12 9018   0.363   0.313   5.454  1.0304 -1.2403  0.3299
  583THF    H13 9019   0.287   0.321   5.292  0.7230 -2.6448 -0.4697
  584THF     O1 9020   2.092   4.083   1.400 -1.0545  0.4173  0.0089
  584THF     C2 9021   2.200   4.155   1.455  0.1033 -0.3406 -0.5850
  584THF     C3 9022   2.069   3.963   1.464 -0.2899 -0.9420 -0.3362
  584THF     H4 9023   2.170   4.214   1.540  0.5061  1.3215  1.5206
  584THF     H5 9024   2.261   4.219   1.391  0.6837 -1.8725  2.0686
  584THF     H6 9025   1.977   3.959   1.523  1.3036 -0.7929  1.3579
  584THF     H7 9026   2.056   3.882   1.394  0.1649  1.4874  2.1243
  584THF     C8 9027   2.183   3.950   1.558  0.7437  0.1138 -0.5996
  584THF     C9 9028   2.292   4.045   1.521  0.0260 -0.0002  0.4979
  584THF    H10 9029   2.206   3.843   1.567 -0.8162  1.1526  1.8195
  584THF    H11 9030   2.142   3.985   1.653  0.3329 -1.3388 -1.1741
  584THF    H12 9031   2.357   4.080   1.598  0.0120 -1.6994 -0.3401
  584THF    H13 9032   2.359   3.993   1.456 -3.1343  2.8133  0.5006
  585THF     O1 9033   1.298   4.746   4.065  0.4282 -0.0171 -0.2775
  585THF     C2 9034   1.363   4.658   3.976  0.4077 -0.2587  0.8218
  585THF     C3 9035   1.163   4.758   4.025 -0.1455 -0.0145 -0.1621
  585THF     H4 9036   1.460   4.622   4.014  2.3252 -1.2430 -1.5676
  585THF     H5 9037   1.375   4.714   3.880 -1.9302  0.0646  1.5803
  585THF     H6 9038   1.096   4.797   4.104 -0.7877 -3.5690 -1.1477
  585THF     H7 9039   1.170   4.828   3.945  1.6349 -1.6563  2.9669
  585THF     C8 9040   1.126   4.616   3.980 -0.0324 -0.0071 -0.1657
  585THF     C9 9041   1.259   4.549   3.955  0.2490  0.0808 -0.1932
  585THF    H10 9042   1.057   4.619   3.891 -0.8299 -0.6793 -1.1846
  585THF    H11 9043   1.070   4.571   4.062 -0.8937 -1.1088 -1.7416
  585THF    H12 9044   1.274   4.461   4.014 -1.0791 -0.7524  1.0649
  585THF    H13 9045   1.267   4.507   3.856 -0.2807 -0.0411  3.8035
  586THF     O1 9046   2.478   3.635   0.536  0.4488  0.9077 -0.0588
  586THF     C2 9047   2.453   3.732   0.643 -0.4391 -0.0134  0.4009
  586THF     C3 9048   2.605   3.578   0.558  0.2413  0.5598  0.1757
  586THF     H4 9049   2.348   3.759   0.656 -0.5949  1.8606  0.2008
  586THF     H5 9050   2.505   3.822   0.607 -0.8690 -1.7555 -0.3126
  586THF     H6 9051   2.647   3.504   0.487  1.5295 -0.8055 -0.1203
  586THF     H7 9052   2.671   3.662   0.538  1.1488 -0.4650  1.5261
  586THF     C8 9053   2.598   3.550   0.708 -1.2106  0.0891  0.3345
  586THF     C9 9054   2.531   3.676   0.764  0.1727  0.5544 -1.0984
  586THF    H10 9055   2.695   3.521   0.755  5.0367 -1.0788 -2.7659
  586THF    H11 9056   2.537   3.463   0.735  3.1200 -0.4075  0.9704
  586THF    H12 9057   2.460   3.636   0.834  2.0612 -1.1315  1.3861
  586THF    H13 9058   2.584   3.752   0.823  0.9151  0.6498  0.7883
  587THF     O1 9059   3.600   5.383   3.242 -0.2161 -0.1263  0.4003
  587THF     C2 9060   3.559   5.339   3.366  0.0693 -0.1527  0.4806
  587THF     C3 9061   3.510   5.467   3.176 -0.3400 -0.1695  0.6337
  587THF     H4 9062   3.641   5.355   3.433 -0.4577  1.0890 -1.3511
  587THF     H5 9063   3.520   5.238   3.365  3.0833  0.3317 -0.7735
  587THF     H6 9064   3.561   5.560   3.145  0.3510  0.8293  0.2238
  587THF     H7 9065   3.477   5.427   3.081  1.4558  2.1399 -1.1322
  587THF     C8 9066   3.389   5.486   3.280  0.4757 -0.2246  0.6378
  587THF     C9 9067   3.458   5.446   3.408 -0.2019  0.0582 -0.2860
  587THF    H10 9068   3.312   5.406   3.248  1.1205  1.8014 -0.0870
  587THF    H11 9069   3.350   5.585   3.279  0.4762 -0.2407 -0.6210
  587THF    H12 9070   3.518   5.530   3.430  1.0738 -1.6906  2.1140
  587THF    H13 9071   3.395   5.426   3.494 -1.5985  0.0079  0.0212
  588THF     O1 9072   4.181   4.810   0.423 -0.7783 -0.4956  0.0521
  588THF     C2 9073   4.150   4.915   0.518  0.2429 -0.1583  0.2611
  588THF     C3 9074   4.164   4.852   0.293 -0.0315 -0.0131  0.2312
  588THF     H4 9075   4.183   4.898   0.624  0.4623  0.2086 -0.3439
  588THF     H5 9076   4.040   4.945   0.507  0.7056 -1.0513 -1.5001
  588THF     H6 9077   4.250   4.809   0.230  2.3729 -1.4044  1.6576
  588THF     H7 9078   4.067   4.822   0.240 -3.3597 -1.2211  1.0101
  588THF     C8 9079   4.186   5.000   0.310 -0.5314 -0.5958 -0.2667
  588THF     C9 9080   4.243   5.021   0.454 -0.2462  1.3211  0.8097
  588THF    H10 9081   4.095   5.052   0.322  0.2808 -0.3913 -1.1911
  588THF    H11 9082   4.259   5.035   0.235 -0.2569 -0.0191  0.9882
  588THF    H12 9083   4.349   4.992   0.457 -1.1094 -2.8031  1.5509
  588THF    H13 9084   4.238   5.126   0.488  0.1583  0.0628  0.9464
  589THF     O1 9085   4.710   4.917   1.750 -0.3860 -0.1924 -0.0638
  589THF     C2 9086   4.624   4.980   1.651 -0.3404 -0.1018 -0.2438
  589THF     C3 9087   4.758   4.800   1.692 -0.2259 -0.7871 -0.0115
  589THF     H4 9088   4.668   5.058   1.596 -0.3193 -0.5911  3.6797
  589THF     H5 9089   4.533   5.022   1.698  0.5330  0.9417 -1.2349
  589THF     H6 9090   4.849   4.815   1.628  1.7649  2.1754 -2.0208
  589THF     H7 9091   4.787   4.726   1.764  2.4851  0.0941  2.8104
  589THF     C8 9092   4.649   4.750   1.608  0.1398 -0.2127  0.0193
  589THF     C9 9093   4.598   4.874   1.537  0.0454  0.4887 -0.0173
  589THF    H10 9094   4.576   4.711   1.682  1.7133 -3.1834 -2.7141
  589THF    H11 9095   4.679   4.676   1.533  3.6388 -0.6439 -1.9670
  589THF    H12 9096   4.665   4.898   1.451  0.5681 -1.4131 -1.1159
  589THF    H13 9097   4.497   4.873   1.507 -3.2558 -1.5689  1.0682
  590THF     O1 9098   4.596   5.342   2.344  0.1868 -0.4089 -0.0232
  590THF     C2 9099   4.463   5.316   2.390 -0.3996 -0.5803  0.2717
  590THF     C3 9100   4.623   5.477   2.375  0.7055  0.2269 -0.0274
  590THF     H4 9101   4.444   5.210   2.399 -0.9819 -0.6975  0.2011
  590THF     H5 9102   4.393   5.368   2.328  1.0575  0.3516 -0.3247
  590THF     H6 9103   4.728   5.511   2.360  0.2755  1.5036 -0.9695
  590THF     H7 9104   4.563   5.544   2.316 -1.6815  0.1254 -2.9280
  590THF     C8 9105   4.580   5.480   2.520  0.5243 -0.4026 -0.2193
  590THF     C9 9106   4.475   5.368   2.528 -0.1590 -0.6215 -0.4663
  590THF    H10 9107   4.529   5.577   2.553 -1.0268  0.8378  0.6178
  590THF    H11 9108   4.674   5.471   2.579  1.2314  1.4287 -1.4186
  590THF    H12 9109   4.520   5.295   2.590  3.0989 -0.0341 -0.8106
  590THF    H13 9110   4.388   5.396   2.579  2.0691  2.6370  0.8873
  591THF     O1 9111   2.891   4.185   4.714  0.7056  0.0182 -0.1729
  591THF     C2 9112   2.901   4.251   4.841 -0.1494 -0.5748 -0.5056
  591THF     C3 9113   2.765   4.212   4.658  1.0857  0.2175 -0.7350
  591THF     H4 9114   2.993   4.316   4.825 -1.4011 -0.4754  0.6582
  591THF     H5 9115   2.925   4.189   4.926 -0.7323  1.6986 -0.4612
  591THF     H6 9116   2.753   4.281   4.579  0.6220  0.0722  2.0687
  591THF     H7 9117   2.740   4.113   4.612 -1.5553  0.4443 -1.7655
  591THF     C8 9118   2.675   4.247   4.778 -0.2981  0.2237  0.1610
  591THF     C9 9119   2.773   4.327   4.865 -0.3456  0.0094 -0.3870
  591THF    H10 9120   2.645   4.155   4.826  0.1147  0.0778 -0.1621
  591THF    H11 9121   2.581   4.305   4.750  0.8468 -0.9678 -0.1816
  591THF    H12 9122   2.783   4.425   4.832  3.4849  1.9734 -2.2568
  591THF    H13 9123   2.744   4.321   4.970  3.1840  1.1802 -0.1314
  592THF     O1 9124   4.006   1.766   4.993 -0.1280  0.2700  0.0055
  592THF     C2 9125   3.943   1.897   5.013 -1.0247  0.4231 -0.2590
  592THF     C3 9126   4.018   1.731   4.854  0.4301 -0.3005 -0.0262
  592THF     H4 9127   4.012   1.975   5.049 -0.1144  1.2902  2.3950
  592THF     H5 9128   3.863   1.896   5.092 -0.8595  0.1466 -0.7383
  592THF     H6 9129   4.113   1.702   4.815  1.5453  1.9960  0.3561
  592THF     H7 9130   3.948   1.647   4.834  0.9182 -0.0490 -0.5511
  592THF     C8 9131   3.976   1.863   4.778  0.2062 -0.0657 -0.2638
  592THF     C9 9132   3.879   1.930   4.877  0.1346  0.9123 -0.5550
  592THF    H10 9133   3.919   1.833   4.692  1.6606 -0.4779 -1.9442
  592THF    H11 9134   4.068   1.926   4.761  0.3872  1.0204 -1.7065
  592THF    H12 9135   3.872   2.028   4.855 -0.8728 -0.3072  2.1109
  592THF    H13 9136   3.777   1.898   4.864 -0.5078  0.3779  0.7124
  593THF     O1 9137   4.429   3.211   3.056 -0.0347 -0.6481  0.0748
  593THF     C2 9138   4.317   3.214   2.968 -0.0447  0.3616  0.7905
  593THF     C3 9139   4.422   3.326   3.142 -1.2799 -0.1652  0.3085
  593THF     H4 9140   4.298   3.114   2.923 -1.9018 -0.8204 -2.9671
  593THF     H5 9141   4.336   3.286   2.884  0.7636  0.8565  1.4811
  593THF     H6 9142   4.456   3.307   3.238 -1.6922  0.3271 -1.8143
  593THF     H7 9143   4.479   3.405   3.090 -1.6126  1.2569  1.9709
  593THF     C8 9144   4.273   3.363   3.148  0.1168  0.2094  0.8060
  593THF     C9 9145   4.203   3.255   3.060 -0.0945  0.1773  0.0664
  593THF    H10 9146   4.265   3.465   3.117  0.3741  1.4829 -0.1072
  593THF    H11 9147   4.233   3.364   3.254 -0.0624 -0.2485  1.9959
  593THF    H12 9148   4.172   3.167   3.114 -3.6024  0.5348  1.0233
  593THF    H13 9149   4.127   3.292   2.993  0.9583  1.1664 -0.9779
  594THF     O1 9150   5.460   0.970   1.883 -0.9473 -0.1583 -0.0080
  594THF     C2 9151   5.600   0.926   1.874  0.9066 -0.0917 -0.9541
  594THF     C3 9152   5.400   0.964   1.750 -0.1903  0.1752  0.8542
  594THF     H4 9153   5.583   0.819   1.878  0.7137  1.2285 -0.6248
  594THF     H5 9154   5.664   0.968   1.947  0.6162 -1.0765  0.1207
  594THF     H6 9155   5.305   0.909   1.745  1.6875 -0.7898 -0.7023
  594THF     H7 9156   5.383   1.066   1.732  0.8700 -0.4691  2.1494
  594THF     C8 9157   5.510   0.909   1.651 -0.5096 -0.3177 -0.8497
  594THF     C9 9158   5.628   0.951   1.725 -0.0983  0.3126 -0.0569
  594THF    H10 9159   5.498   0.961   1.555  1.9673  0.0828 -1.9526
  594THF    H11 9160   5.516   0.801   1.628 -3.1889 -2.1358  2.3964
  594THF    H12 9161   5.731   0.923   1.695 -0.3234  0.3725  0.7145
  594THF    H13 9162   5.637   1.055   1.713  0.0885 -0.3433  2.8670
  595THF     O1 9163   3.816   4.382   2.226 -0.2348 -0.1708  0.0924
  595THF     C2 9164   3.852   4.296   2.121 -0.8434 -0.6970  1.1025
  595THF     C3 9165   3.694   4.335   2.282 -1.2821 -0.0077 -0.5310
  595THF     H4 9166   3.900   4.202   2.161  3.1412 -3.0160 -1.0124
  595THF     H5 9167   3.927   4.351   2.060 -1.5241  1.4137  1.3302
  595THF     H6 9168   3.715   4.251   2.352  0.6211 -0.1201  0.5862
  595THF     H7 9169   3.636   4.415   2.335 -0.9155  0.3980 -0.5119
  595THF     C8 9170   3.621   4.297   2.157  0.4311 -0.4364 -0.3220
  595THF     C9 9171   3.721   4.286   2.044 -0.1931 -0.7967  0.0412
  595THF    H10 9172   3.539   4.374   2.141  0.2319  1.8900 -1.7133
  595THF    H11 9173   3.573   4.197   2.166 -0.2704 -2.2771 -1.2476
  595THF    H12 9174   3.711   4.189   2.002 -0.4711 -0.4679  2.6113
  595THF    H13 9175   3.710   4.354   1.964 -3.1889  0.3613  1.9747
  596THF     O1 9176   2.034   3.612   1.229 -0.3105  0.4478  0.3572
  596THF     C2 9177   2.147   3.558   1.308 -0.6209  0.3076  0.0604
  596THF     C3 9178   2.090   3.704   1.139 -0.3021  0.3678  0.4420
  596THF     H4 9179   2.129   3.462   1.359  1.4100 -2.7183  3.4033
  596THF     H5 9180   2.169   3.625   1.390  0.5030  0.5493  2.6445
  596THF     H6 9181   2.049   3.698   1.044  0.7883  2.7545  1.0948
  596THF     H7 9182   2.073   3.810   1.171  1.7050 -0.7455  1.5271
  596THF     C8 9183   2.240   3.677   1.129 -0.4625 -0.3767 -0.1482
  596THF     C9 9184   2.256   3.549   1.210 -0.0579 -0.1340  0.1314
  596THF    H10 9185   2.310   3.751   1.167  1.5802 -1.9566 -0.3170
  596THF    H11 9186   2.283   3.655   1.034 -1.4595  1.5655  2.1233
  596THF    H12 9187   2.249   3.472   1.141 -0.3120 -0.7504  0.2433
  596THF    H13 9188   2.354   3.537   1.260 -0.7543 -0.9639  0.0315
  597THF     O1 9189   0.421   2.246   0.541  0.0144  0.0169  0.4910
  597THF     C2 9190   0.521   2.228   0.439 -0.3696 -0.9836 -0.5533
  597THF     C3 9191   0.418   2.120   0.615 -0.4333 -0.0637 -0.2464
  597THF     H4 9192   0.617   2.227   0.483 -1.2717 -1.9345 -0.1009
  597THF     H5 9193   0.509   2.305   0.358 -1.0065  1.6798  1.3616
  597THF     H6 9194   0.485   2.124   0.698 -2.3864  0.4990  0.8512
  597THF     H7 9195   0.321   2.100   0.648  0.0446 -0.3444  0.7534
  597THF     C8 9196   0.449   2.008   0.516 -0.4013 -0.2185 -0.1095
  597THF     C9 9197   0.490   2.094   0.393 -0.2692  0.2842 -0.5536
  597THF    H10 9198   0.368   1.942   0.495 -1.0302  0.8033  1.8235
  597THF    H11 9199   0.524   1.944   0.548 -0.5313  0.1650 -0.3780
  597THF    H12 9200   0.582   2.055   0.347  0.3604  0.8729  1.6951
  597THF    H13 9201   0.406   2.100   0.324 -2.0834 -2.9935  2.5107
  598THF     O1 9202   0.160   2.325   4.920 -0.1525 -0.1962 -0.4530
  598THF     C2 9203   0.044   2.406   4.938  0.4629 -0.0804  0.1520
  598THF     C3 9204   0.174   2.238   5.033  0.1245  0.1465  0.1901
  598THF     H4 9205  -0.046   2.350   4.891 -1.5263 -0.0915 -0.4367
  598THF     H5 9206   0.044   2.507   4.887 -0.3924 -1.2169  0.5742
  598THF     H6 9207   0.150   2.134   4.997 -1.0597  1.4147 -1.5597
  598THF     H7 9208   0.279   2.255   5.054 -1.3920  3.3835 -4.5621
  598THF     C8 9209   0.066   2.280   5.137 -0.4636 -0.0891 -0.3616
  598THF     C9 9210   0.019   2.414   5.089 -0.2034  0.2203  0.3464
  598THF    H10 9211   0.125   2.287   5.227 -1.5722  1.7112  1.3761
  598THF    H11 9212  -0.011   2.200   5.136 -0.3874 -0.5504  0.8264
  598THF    H12 9213  -0.083   2.437   5.121 -1.7723 -3.0195 -1.2089
  598THF    H13 9214   0.083   2.490   5.138  1.1287  2.9271  0.2594
  599THF     O1 9215   4.206   3.159   3.931 -0.3430  0.4668  0.2358
  599THF     C2 9216   4.210   3.207   4.063  0.5573  0.0734  0.5278
  599THF     C3 9217   4.284   3.039   3.932 -0.3355 -0.9003 -0.3167
  599THF     H4 9218   4.128   3.268   4.079 -2.8056  0.9645 -0.4414
  599THF     H5 9219   4.303   3.266   4.067  2.4286  0.2515 -1.0252
  599THF     H6 9220   4.233   2.949   3.882 -3.4595  1.4032  0.0608
  599THF     H7 9221   4.385   3.061   3.886  1.0268 -0.1902  5.3960
  599THF     C8 9222   4.301   2.998   4.078 -0.1136 -0.1235 -0.1689
  599THF     C9 9223   4.203   3.090   4.149 -0.2809  0.2371 -0.0999
  599THF    H10 9224   4.399   3.023   4.109 -0.7280 -1.2231  0.7278
  599THF    H11 9225   4.276   2.892   4.100  0.7709  1.6406 -2.0250
  599THF    H12 9226   4.097   3.058   4.164 -1.4760  0.2909 -1.8532
  599THF    H13 9227   4.237   3.109   4.249 -0.3394 -1.5544 -3.3815
  600THF     O1 9228   2.933   0.105   4.120 -0.0278  0.0646 -0.1290
  600THF     C2 9229   3.044   0.073   4.205 -0.5179 -0.0497 -0.1193
  600THF     C3 9230   2.960   0.215   4.042 -0.2363 -0.1802  0.0050
  600THF     H4 9231   3.093  -0.022   4.168 -0.3246  1.2437 -0.4600
  600THF     H5 9232   3.012   0.037   4.302 -0.3004 -1.9762  0.4378
  600THF     H6 9233   2.950   0.208   3.937  1.3527  1.0329  1.0937
  600THF     H7 9234   2.899   0.300   4.087 -2.7349 -0.0537 -0.9239
  600THF     C8 9235   3.112   0.244   4.059  0.3563 -0.1346 -0.3313
  600THF     C9 9236   3.139   0.189   4.192 -0.8952  0.1405  0.3752
  600THF    H10 9237   3.135   0.350   4.046  1.1821 -1.3233 -2.1650
  600THF    H11 9238   3.167   0.199   3.977 -2.6840 -0.5932  0.4674
  600THF    H12 9239   3.243   0.144   4.202  2.0479  0.9759  1.8033
  600THF    H13 9240   3.108   0.268   4.258  0.0636 -0.1501  1.1903
  601THF     O1 9241   2.543   3.070   1.400 -0.4663 -0.3793  0.9366
  601THF     C2 9242   2.442   2.973   1.364  0.1629  0.5000  0.0186
  601THF     C3 9243   2.482   3.191   1.420 -0.3523 -0.0827 -0.0786
  601THF     H4 9244   2.482   2.863   1.361  0.7494  0.0067  0.0779
  601THF     H5 9245   2.417   3.004   1.266  1.4208  1.4867  1.9957
  601THF     H6 9246   2.558   3.259   1.464 -3.0556 -0.8842 -1.4867
  601THF     H7 9247   2.447   3.232   1.327 -1.8600  0.5076 -1.5381
  601THF     C8 9248   2.366   3.154   1.502 -0.5041 -0.2679 -0.2429
  601THF     C9 9249   2.341   3.011   1.473  0.4377 -0.4449 -0.0823
  601THF    H10 9250   2.284   3.224   1.476  0.7117  0.2536  2.2426
  601THF    H11 9251   2.382   3.162   1.603  1.8647  0.0684 -1.7609
  601THF    H12 9252   2.353   2.950   1.560  2.3058  0.0948 -2.7308
  601THF    H13 9253   2.249   2.977   1.432 -0.0492 -0.2622 -0.2192
  602THF     O1 9254   5.178   2.545   4.342  0.1435  0.2494 -0.0570
  602THF     C2 9255   5.048   2.529   4.286 -0.8308  0.5021  0.2241
  602THF     C3 9256   5.158   2.581   4.477 -0.1771 -0.0495  0.5622
  602THF     H4 9257   5.022   2.421   4.280 -0.8257  1.1931  0.3476
  602THF     H5 9258   5.054   2.564   4.179 -1.1078  0.5346 -1.3139
  602THF     H6 9259   5.203   2.513   4.544  0.6652  1.7598  1.8979
  602THF     H7 9260   5.225   2.664   4.486 -0.0860 -0.3868  2.5870
  602THF     C8 9261   5.017   2.615   4.506  0.2566 -0.0960 -0.0553
  602THF     C9 9262   4.961   2.617   4.366 -0.1662  0.1582  0.1290
  602THF    H10 9263   5.005   2.700   4.571 -1.5403  1.3017 -1.6478
  602THF    H11 9264   4.970   2.528   4.549 -1.4941  2.1888  0.6075
  602THF    H12 9265   4.857   2.591   4.363 -1.2817 -0.2195 -0.4791
  602THF    H13 9266   4.963   2.714   4.321 -3.0938 -1.4949 -0.5013
  603THF     O1 9267   2.069   3.422   0.583 -0.1398 -0.6493  0.4258
  603THF     C2 9268   2.007   3.390   0.709  0.2788 -0.6620 -0.0565
  603THF     C3 9269   2.205   3.375   0.584 -0.1204  0.4140  0.5384
  603THF     H4 9270   1.911   3.328   0.703 -2.1445 -2.3986 -0.1080
  603THF     H5 9271   1.963   3.483   0.753  0.6858  0.4341 -0.7134
  603THF     H6 9272   2.221   3.272   0.547  0.5867  1.5734  0.0101
  603THF     H7 9273   2.262   3.444   0.520 -0.2213  0.6701 -0.0341
  603THF     C8 9274   2.242   3.385   0.727 -0.0126  0.6138 -0.2206
  603THF     C9 9275   2.116   3.325   0.788 -1.1425 -0.0800  0.2791
  603THF    H10 9276   2.250   3.487   0.760  0.1214 -1.0912  1.1729
  603THF    H11 9277   2.325   3.325   0.758 -2.2506  1.7959  1.2485
  603THF    H12 9278   2.122   3.215   0.779 -1.5392  1.1692 -0.9649
  603THF    H13 9279   2.109   3.346   0.898  2.0118 -2.1848 -2.2444
  604THF     O1 9280   2.271   5.374   3.883  0.2548 -0.4113 -0.0187
  604THF     C2 9281   2.337   5.435   3.997 -0.2469  0.5883  0.0297
  604THF     C3 9282   2.164   5.293   3.932  0.2526 -0.0624  0.2994
  604THF     H4 9283   2.314   5.542   4.010 -1.0114  2.6506 -2.3934
  604THF     H5 9284   2.443   5.425   3.999  0.2892 -0.3672 -3.1472
  604THF     H6 9285   2.075   5.358   3.934 -2.2991 -2.2074 -1.1896
  604THF     H7 9286   2.157   5.209   3.871  1.7781 -0.5226 -0.6901
  604THF     C8 9287   2.204   5.252   4.075  0.8868  0.3357  0.2495
  604THF     C9 9288   2.290   5.367   4.118  0.9842 -0.4991 -0.3201
  604THF    H10 9289   2.260   5.170   4.082  1.3133  3.1638 -0.1679
  604THF    H11 9290   2.120   5.242   4.140  0.7566  2.1210 -2.4928
  604THF    H12 9291   2.233   5.436   4.179 -0.9442 -0.0529 -1.1788
  604THF    H13 9292   2.363   5.317   4.176 -0.4384 -0.3504 -0.7340
  605THF     O1 9293   4.059   1.652   3.397 -0.6750 -0.0833 -0.0160
  605THF     C2 9294   4.138   1.767   3.381 -0.1632  0.4369  0.3921
  605THF     C3 9295   3.956   1.652   3.306 -0.9382  0.2270  0.2577
  605THF     H4 9296   4.232   1.756   3.430  1.7036 -0.1116  0.1999
  605THF     H5 9297   4.098   1.859   3.413  1.0005 -1.2630 -0.4591
  605THF     H6 9298   3.912   1.552   3.279 -1.6160 -2.9452 -0.4738
  605THF     H7 9299   3.872   1.720   3.336  1.0851 -0.1390  0.8869
  605THF     C8 9300   4.025   1.691   3.178 -0.2273  0.0536 -0.8253
  605THF     C9 9301   4.154   1.769   3.232  0.6841 -0.4132  0.3674
  605THF    H10 9302   3.960   1.734   3.110 -2.7071 -0.0884 -0.3208
  605THF    H11 9303   4.056   1.599   3.131  1.1169 -0.3584 -0.8267
  605THF    H12 9304   4.239   1.712   3.197 -0.4334 -0.1097  0.8703
  605THF    H13 9305   4.148   1.869   3.180 -0.7564  1.2623 -1.2936
  606THF     O1 9306   1.685   5.193   4.724  0.5383  0.0624  0.1467
  606THF     C2 9307   1.691   5.143   4.854  0.2033 -0.0725  0.5767
  606THF     C3 9308   1.781   5.128   4.650  0.0546 -0.0111 -0.0895
  606THF     H4 9309   1.616   5.058   4.861 -0.3392 -0.5004  1.7567
  606THF     H5 9310   1.659   5.221   4.932  0.0787  4.4090  0.9022
  606THF     H6 9311   1.739   5.031   4.619 -0.4398 -0.8096  1.4246
  606THF     H7 9312   1.801   5.189   4.565  0.4174 -0.4265 -1.6082
  606THF     C8 9313   1.906   5.104   4.736  0.1913 -0.7819  0.1638
  606THF     C9 9314   1.836   5.093   4.874  0.8185  0.1225  0.1420
  606THF    H10 9315   1.981   5.183   4.738  2.4433  0.1658 -3.5975
  606THF    H11 9316   1.946   5.008   4.717 -0.9245  0.2182  1.6727
  606THF    H12 9317   1.840   4.997   4.913  0.9851  2.4333 -0.7682
  606THF    H13 9318   1.882   5.135   4.962 -0.1839 -0.3674 -0.3735
  607THF     O1 9319   1.910   4.631   0.722 -0.0610  0.3016 -0.0182
  607THF     C2 9320   2.039   4.578   0.755 -0.3123 -0.0034 -0.2049
  607THF     C3 9321   1.839   4.523   0.658  0.6129 -0.1601  0.1237
  607THF     H4 9322   2.037   4.505   0.834  0.8396 -0.0417  0.3320
  607THF     H5 9323   2.113   4.660   0.773  0.2001  0.0537 -1.8585
  607THF     H6 9324   1.771   4.454   0.723 -2.8775 -1.3346  2.7892
  607THF     H7 9325   1.767   4.575   0.594  0.5305 -0.5116  1.5089
  607THF     C8 9326   1.952   4.453   0.573 -0.2988 -0.1698 -0.8447
  607THF     C9 9327   2.080   4.516   0.623 -0.4723 -0.1602 -0.1991
  607THF    H10 9328   1.938   4.472   0.468  1.4806 -2.2129  0.6660
  607THF    H11 9329   1.947   4.346   0.604  1.0272 -2.3341  1.7312
  607THF    H12 9330   2.160   4.445   0.654 -0.0295 -2.2746  0.0914
  607THF    H13 9331   2.124   4.591   0.560  1.0980  2.7199 -1.7248
  608THF     O1 9332   2.000   1.237   5.440  0.2583 -0.4221  0.5081
  608THF     C2 9333   2.070   1.359   5.436 -0.4853  0.3683  0.2436
  608THF     C3 9334   1.915   1.221   5.325  0.1502 -0.1590  0.3089
  608THF     H4 9335   2.176   1.337   5.441 -2.6342 -0.9271 -3.2255
  608THF     H5 9336   2.042   1.416   5.528  0.2627  0.1315  1.1944
  608THF     H6 9337   1.958   1.152   5.251 -0.0250 -4.8328  1.7600
  608THF     H7 9338   1.820   1.179   5.361  1.9220 -1.1256 -1.2927
  608THF     C8 9339   1.907   1.360   5.261 -1.0345  0.4663  0.3679
  608THF     C9 9340   2.032   1.431   5.303  0.4624 -1.0471 -0.1145
  608THF    H10 9341   1.822   1.413   5.297 -3.1722 -1.9251 -0.7058
  608THF    H11 9342   1.905   1.359   5.155 -0.8636  2.0392  2.8178
  608THF    H12 9343   2.122   1.428   5.239  0.5024  1.0008  0.8817
  608THF    H13 9344   2.016   1.531   5.319 -0.5215 -1.2230  0.6792
  609THF     O1 9345   1.896   3.178   4.057  0.0576 -0.0950  0.3444
  609THF     C2 9346   1.827   3.274   3.977 -0.1888 -0.7321  0.3800
  609THF     C3 9347   2.036   3.182   4.026  0.2986 -0.3728  0.1910
  609THF     H4 9348   1.749   3.315   4.035  1.2579  1.6704  0.4228
  609THF     H5 9349   1.776   3.223   3.887 -0.6869  1.0661 -0.5071
  609THF     H6 9350   2.090   3.129   4.109 -2.0447 -1.0352 -2.2771
  609THF     H7 9351   2.054   3.139   3.927  1.6008 -0.5252 -0.8130
  609THF     C8 9352   2.051   3.342   4.023 -0.3034  0.3241  0.4937
  609THF     C9 9353   1.934   3.378   3.939 -0.0776 -0.0401  0.6677
  609THF    H10 9354   2.152   3.375   3.989  1.9327 -0.4913  0.8824
  609THF    H11 9355   2.037   3.378   4.128 -1.6528  1.5136  0.8080
  609THF    H12 9356   1.902   3.482   3.964  3.6885  0.8621  0.4223
  609THF    H13 9357   1.957   3.362   3.832  1.7662  0.7454  2.3455
  610THF     O1 9358   2.709   0.270   5.443  0.2406  0.5895  0.4271
  610THF     C2 9359   2.632   0.160   5.483 -0.1382  0.4504 -0.0304
  610THF     C3 9360   2.798   0.288   5.546 -0.8858 -0.1245  0.4461
  610THF     H4 9361   2.614   0.103   5.395  1.7934 -0.1080  0.5997
  610THF     H5 9362   2.543   0.178   5.539  1.1685 -3.6383 -2.1762
  610THF     H6 9363   2.867   0.363   5.517 -1.2464  0.6735  1.3156
  610THF     H7 9364   2.749   0.344   5.627  0.8452 -3.6032 -0.4535
  610THF     C8 9365   2.848   0.154   5.591  0.6224 -0.6062 -1.1141
  610THF     C9 9366   2.725   0.074   5.564 -0.3017 -0.6726  0.7376
  610THF    H10 9367   2.885   0.155   5.694  1.7561  0.7289  1.8875
  610THF    H11 9368   2.925   0.124   5.518  0.0988 -0.2712  0.3156
  610THF    H12 9369   2.744  -0.016   5.507  2.9525  0.9468 -1.9084
  610THF    H13 9370   2.677   0.051   5.660  0.2638  2.7031  1.0130
  611THF     O1 9371   4.687   0.936   2.394 -0.2028 -0.5587 -0.2361
  611THF     C2 9372   4.728   1.016   2.498 -0.2568  0.3975  0.4345
  611THF     C3 9373   4.549   0.907   2.407  0.0909  0.1411 -0.3240
  611THF     H4 9374   4.733   1.117   2.456  1.2807  0.2059  2.3077
  611THF     H5 9375   4.818   0.973   2.536 -1.6525  1.5620 -2.0754
  611THF     H6 9376   4.496   0.989   2.366  0.9538  0.9901 -2.1535
  611THF     H7 9377   4.541   0.807   2.353  0.4332 -0.4171 -2.0396
  611THF     C8 9378   4.527   0.894   2.554  0.4124 -0.0857  0.3823
  611THF     C9 9379   4.613   1.007   2.600  0.0913 -0.0491  0.1199
  611THF    H10 9380   4.556   0.797   2.601 -1.8811  0.9452  0.1206
  611THF    H11 9381   4.421   0.916   2.569  1.0766 -2.4131  1.1735
  611THF    H12 9382   4.550   1.094   2.600 -1.1964 -1.1906 -1.3010
  611THF    H13 9383   4.641   0.995   2.704  0.4986  2.2685 -1.3352
  612THF     O1 9384   2.905   0.254   3.180  0.6370  0.1697 -0.2047
  612THF     C2 9385   2.778   0.290   3.243  1.0124  0.4240  0.8955
  612THF     C3 9386   2.896   0.123   3.138 -0.0377  0.6930  0.4297
  612THF     H4 9387   2.730   0.376   3.193 -0.6175 -0.7104 -0.9951
  612THF     H5 9388   2.776   0.309   3.349 -0.8822 -0.8968 -0.7839
  612THF     H6 9389   2.880   0.124   3.025 -1.2090 -0.4451 -1.0215
  612THF     H7 9390   2.982   0.077   3.167 -0.0483  1.7413  1.5672
  612THF     C8 9391   2.773   0.056   3.204  0.0833 -0.4433 -0.4102
  612THF     C9 9392   2.680   0.171   3.205 -0.1398  0.3621  0.0750
  612THF    H10 9393   2.798   0.033   3.306 -1.7007 -2.4430 -1.7970
  612THF    H11 9394   2.729  -0.027   3.149  0.3799 -1.0770  3.2047
  612THF    H12 9395   2.632   0.188   3.110  0.4206  0.9314  1.3469
  612THF    H13 9396   2.600   0.165   3.280  1.1114  0.2812  1.6198
  613THF     O1 9397   1.026   0.853   2.495 -0.3227  0.5086 -0.1152
  613THF     C2 9398   0.889   0.881   2.535 -0.4185  0.2347 -0.3647
  613THF     C3 9399   1.012   0.773   2.383  0.2515  0.2146 -0.5458
  613THF     H4 9400   0.841   0.962   2.482  2.0474  1.1022 -0.4609
  613THF     H5 9401   0.892   0.902   2.642 -2.2838  0.9460  1.2367
  613THF     H6 9402   1.027   0.809   2.282  2.5331  0.1074  1.1359
  613THF     H7 9403   1.093   0.696   2.389  1.9001 -1.0007 -0.9920
  613THF     C8 9404   0.877   0.700   2.396  0.7068  0.2685  0.0751
  613THF     C9 9405   0.811   0.751   2.529 -0.0973  0.6601  0.6133
  613THF    H10 9406   0.892   0.598   2.395 -2.5303  2.1200  0.4532
  613THF    H11 9407   0.823   0.718   2.310 -0.1906 -1.2574  0.1526
  613THF    H12 9408   0.699   0.756   2.520 -0.1549 -0.6691  1.6371
  613THF    H13 9409   0.844   0.675   2.603 -0.1924  0.6737 -1.3255
  614THF     O1 9410   4.771   4.802   1.249  0.9228  0.0859 -0.1469
  614THF     C2 9411   4.716   4.734   1.138  0.2987  0.4854 -0.1774
  614THF     C3 9412   4.903   4.758   1.261 -0.6401  0.0805 -0.4321
  614THF     H4 9413   4.627   4.777   1.101 -2.4703  0.5326  0.1044
  614THF     H5 9414   4.694   4.637   1.173  1.1971  0.0282  1.7552
  614THF     H6 9415   4.966   4.833   1.311 -0.5251  0.4406 -1.3368
  614THF     H7 9416   4.909   4.678   1.331 -0.0896  1.0268  0.8138
  614THF     C8 9417   4.964   4.738   1.116 -0.0032 -0.1690 -1.3941
  614THF     C9 9418   4.837   4.727   1.037 -0.0289 -0.1875 -0.3183
  614THF    H10 9419   5.028   4.655   1.097 -2.5874 -0.6685 -1.2301
  614THF    H11 9420   5.032   4.820   1.093  0.6645 -0.4834 -0.0081
  614THF    H12 9421   4.838   4.813   0.969 -1.1040  1.3253 -0.9763
  614THF    H13 9422   4.830   4.643   0.974 -3.4944  4.4782 -0.8873
  615THF     O1 9423   1.497   2.926   1.008 -0.6195 -0.2148 -0.1961
  615THF     C2 9424   1.611   2.973   1.078 -0.6249  0.5484 -0.2317
  615THF     C3 9425   1.390   2.964   1.095 -0.4412  0.3721 -0.2482
  615THF     H4 9426   1.638   3.079   1.063 -0.2766  1.6712 -1.0030
  615THF     H5 9427   1.693   2.915   1.042  0.0123 -1.7098 -0.8756
  615THF     H6 9428   1.384   3.071   1.076 -0.9913 -1.8384 -0.5823
  615THF     H7 9429   1.298   2.922   1.062  3.6452  2.2957 -0.5227
  615THF     C8 9430   1.435   2.913   1.234 -0.0377 -0.1097 -0.4194
  615THF     C9 9431   1.582   2.928   1.222 -0.4850  0.1431  0.7870
  615THF    H10 9432   1.404   2.805   1.239  0.5273  0.0640 -3.0249
  615THF    H11 9433   1.406   2.966   1.326  0.8950  2.5128  0.6253
  615THF    H12 9434   1.615   2.995   1.297 -2.4230 -0.1828  0.2831
  615THF    H13 9435   1.644   2.842   1.241 -0.5752  1.6657 -2.1597
  616THF     O1 9436   3.949   2.111   2.632  0.3521  0.2454 -0.4624
  616THF     C2 9437   3.975   2.181   2.517 -0.0731 -0.5646 -0.0373
  616THF     C3 9438   4.053   2.012   2.643 -0.0418 -1.0228 -0.1109
  616THF     H4 9439   3.920   2.272   2.513 -0.7031  0.5869 -0.7055
  616THF     H5 9440   3.955   2.117   2.436  1.3239  1.5567  1.7821
  616THF     H6 9441   4.077   1.995   2.748 -2.6252  2.1530 -4.0312
  616THF     H7 9442   4.021   1.920   2.588 -0.8563  0.2394 -0.6447
  616THF     C8 9443   4.182   2.081   2.596 -0.0275  0.9153 -0.3308
  616THF     C9 9444   4.126   2.205   2.520 -0.9210  0.5898  0.4452
  616THF    H10 9445   4.238   2.015   2.529  0.0871  3.6643  3.7275
  616THF    H11 9446   4.250   2.105   2.677  2.3490  1.1094 -0.3094
  616THF    H12 9447   4.152   2.291   2.570  0.8160 -0.3286 -0.8065
  616THF    H13 9448   4.179   2.208   2.427  1.5813 -0.5861  2.7559
  617THF     O1 9449   3.267   1.939   0.501 -0.3549 -0.9105 -0.1330
  617THF     C2 9450   3.349   1.876   0.403  0.8780  0.2710 -0.9827
  617THF     C3 9451   3.213   1.834   0.576  0.0110 -0.5250  0.0190
  617THF     H4 9452   3.425   1.948   0.349 -1.4371 -0.9535 -0.6038
  617THF     H5 9453   3.292   1.820   0.328  0.5850 -0.0767 -3.2536
  617THF     H6 9454   3.195   1.862   0.673  3.3304 -0.6023 -1.9361
  617THF     H7 9455   3.113   1.814   0.528 -2.3739 -2.4183 -0.1823
  617THF     C8 9456   3.311   1.714   0.568  0.8768 -0.3790 -0.2051
  617THF     C9 9457   3.415   1.755   0.476 -0.0175 -0.1686  0.2922
  617THF    H10 9458   3.261   1.630   0.515  0.5902 -1.8180 -1.4586
  617THF    H11 9459   3.339   1.678   0.664 -0.0563  1.4518  1.2635
  617THF    H12 9460   3.498   1.794   0.532  0.1022  2.3167  1.8757
  617THF    H13 9461   3.451   1.671   0.414 -0.3745 -0.3623 -2.6637
  618THF     O1 9462   3.598   4.231   5.377 -0.6349 -0.4097  0.1511
  618THF     C2 9463   3.701   4.146   5.327 -0.6999 -0.3413 -0.0190
  618THF     C3 9464   3.526   4.283   5.266  0.0778  0.0497  0.1074
  618THF     H4 9465   3.666   4.041   5.301 -0.2341 -1.3816  0.0211
  618THF     H5 9466   3.782   4.122   5.395 -2.0127  0.0250  2.0293
  618THF     H6 9467   3.455   4.202   5.247  0.8760  0.6371  1.0769
  618THF     H7 9468   3.462   4.367   5.294  0.3161 -2.2249 -1.0768
  618THF     C8 9469   3.629   4.307   5.158  0.1822  0.4908  0.1716
  618THF     C9 9470   3.747   4.214   5.191 -0.4808 -0.1933 -0.4030
  618THF    H10 9471   3.672   4.407   5.144  1.0296  0.2709 -0.0276
  618THF    H11 9472   3.585   4.276   5.059 -2.1711  2.3383  3.3325
  618THF    H12 9473   3.750   4.146   5.109 -3.0269 -0.2173  0.1236
  618THF    H13 9474   3.831   4.280   5.211  0.7669  4.1155 -0.2253
  619THF     O1 9475   3.195   2.476   3.486  0.1637 -0.1186  0.6472
  619THF     C2 9476   3.086   2.449   3.582  0.0214  0.5910  0.1992
  619THF     C3 9477   3.287   2.556   3.554 -0.8608 -0.8842 -0.0705
  619THF     H4 9478   3.041   2.350   3.563 -0.4434  0.8966  2.4286
  619THF     H5 9479   3.017   2.527   3.569  0.1449 -0.6992  2.4586
  619THF     H6 9480   3.378   2.495   3.560 -0.0901  2.4232  0.6800
  619THF     H7 9481   3.321   2.650   3.496  0.6692  1.8110 -2.5996
  619THF     C8 9482   3.234   2.584   3.702 -0.5584 -0.0202  0.6144
  619THF     C9 9483   3.148   2.461   3.721 -0.7481  0.7282  0.0362
  619THF    H10 9484   3.170   2.670   3.707 -1.7967  2.4958  0.2342
  619THF    H11 9485   3.312   2.607   3.781  0.7455  1.7789 -0.3934
  619THF    H12 9486   3.210   2.376   3.758  1.4788 -0.1030  1.7499
  619THF    H13 9487   3.074   2.472   3.796  0.4527  0.6115 -1.1472
  620THF     O1 9488   2.651   2.215   4.745 -0.0706 -0.3462 -0.2882
  620THF     C2 9489   2.754   2.230   4.847  0.1182 -0.1632 -0.7587
  620THF     C3 9490   2.647   2.332   4.667  0.7956  0.3274 -0.0300
  620THF     H4 9491   2.779   2.137   4.901  0.2133 -1.0954  1.6862
  620THF     H5 9492   2.727   2.304   4.922  0.6396 -0.7911  2.3982
  620THF     H6 9493   2.619   2.300   4.570  0.5886 -0.1281 -1.1224
  620THF     H7 9494   2.575   2.401   4.702 -3.6348 -0.4649  0.8110
  620THF     C8 9495   2.788   2.387   4.678  0.2619  0.5269  0.6668
  620THF     C9 9496   2.868   2.286   4.766  0.1093  0.2497 -0.3080
  620THF    H10 9497   2.784   2.485   4.721  0.8260 -1.8371 -0.2129
  620THF    H11 9498   2.816   2.399   4.575 -0.4381 -2.0217 -1.3369
  620THF    H12 9499   2.913   2.213   4.698  0.1262 -2.3496 -0.5016
  620THF    H13 9500   2.943   2.329   4.828 -3.9383  2.7359  1.0317
  621THF     O1 9501   4.126   2.656   1.985 -0.1603 -0.1364 -0.4874
  621THF     C2 9502   4.183   2.528   2.004  0.0349  0.2010 -0.3692
  621THF     C3 9503   4.144   2.704   1.853  0.2641  0.3078  0.1061
  621THF     H4 9504   4.123   2.474   2.080 -0.2042 -0.7661  0.9608
  621THF     H5 9505   4.287   2.539   2.035 -0.8625  1.0135  1.5642
  621THF     H6 9506   4.047   2.727   1.809 -0.4244  2.5391  0.3650
  621THF     H7 9507   4.210   2.792   1.849  0.5422 -0.7448 -1.5850
  621THF     C8 9508   4.215   2.589   1.785  0.6855 -0.6137  0.7630
  621THF     C9 9509   4.179   2.467   1.866 -0.3912 -0.5839  0.0636
  621THF    H10 9510   4.323   2.610   1.771 -0.0730 -3.0987 -5.5153
  621THF    H11 9511   4.186   2.583   1.678  1.6026  0.1955  1.3868
  621THF    H12 9512   4.077   2.441   1.842  0.2330  1.7461  2.3096
  621THF    H13 9513   4.243   2.382   1.861  1.1935  1.9631  0.1521
  622THF     O1 9514   4.199   3.972   2.316  0.1657 -0.1625  0.0531
  622THF     C2 9515   4.290   3.912   2.226  0.1096 -0.6176 -0.3270
  622THF     C3 9516   4.080   4.001   2.250 -0.2451 -0.1082  0.1003
  622THF     H4 9517   4.292   3.804   2.237 -0.7879  1.0907 -0.4245
  622THF     H5 9518   4.383   3.942   2.264 -0.0010 -0.8672  1.7110
  622THF     H6 9519   4.017   3.916   2.239  0.2385 -2.0911 -0.2125
  622THF     H7 9520   4.035   4.089   2.303  1.4975  0.0698 -2.0182
  622THF     C8 9521   4.133   4.056   2.117 -0.0373  0.1022  0.0356
  622THF     C9 9522   4.259   3.980   2.091 -0.4811  0.0948 -0.0348
  622THF    H10 9523   4.156   4.160   2.134 -3.1026  1.6520 -2.0718
  622THF    H11 9524   4.060   4.055   2.037  2.5029 -1.0473  0.7383
  622THF    H12 9525   4.232   3.893   2.026 -0.1275 -1.0022  0.2257
  622THF    H13 9526   4.346   4.039   2.049  2.0979 -0.3267 -1.3228
  623THF     O1 9527   0.373   1.091   5.018  0.0792  0.0868  0.2723
  623THF     C2 9528   0.288   0.979   5.020 -0.8953  0.2857 -0.2212
  623THF     C3 9529   0.368   1.157   5.143 -1.1348  0.3936 -0.2828
  623THF     H4 9530   0.319   0.905   4.945 -1.0172  0.3003  1.2629
  623THF     H5 9531   0.182   1.000   4.999  1.7196  1.5685  1.3624
  623THF     H6 9532   0.471   1.189   5.163  1.3370  5.1535  1.0025
  623THF     H7 9533   0.305   1.246   5.127  0.8773 -0.5562 -1.2447
  623THF     C8 9534   0.313   1.054   5.237 -0.5816  0.1046  0.2523
  623THF     C9 9535   0.295   0.920   5.159  0.3841  0.2212 -0.2929
  623THF    H10 9536   0.220   1.096   5.272  0.7614  0.3794  0.2641
  623THF    H11 9537   0.379   1.034   5.321  1.2892  0.4875 -2.3634
  623THF    H12 9538   0.386   0.862   5.181 -1.1974 -2.0097  1.0320
  623THF    H13 9539   0.201   0.863   5.193 -0.0850  0.9249 -0.5548
  624THF     O1 9540   2.999   1.213   0.426  0.4854  0.4815 -0.1044
  624THF     C2 9541   3.021   1.252   0.295 -0.1868 -0.5298 -0.4925
  624THF     C3 9542   3.094   1.102   0.441  0.8048 -0.4563 -0.7758
  624THF     H4 9543   2.961   1.337   0.267 -1.1240  1.0461  0.6290
  624THF     H5 9544   2.992   1.183   0.223  1.3361  0.4565  0.4420
  624THF     H6 9545   3.092   1.063   0.537 -1.4464  0.6545 -2.3499
  624THF     H7 9546   3.047   1.024   0.381  0.2920 -0.7118  0.0927
  624THF     C8 9547   3.220   1.159   0.379 -0.0178 -0.3256  0.2472
  624THF     C9 9548   3.172   1.272   0.285 -0.6307 -0.7923  0.0441
  624THF    H10 9549   3.263   1.073   0.317 -0.5912 -0.5123  2.1206
  624THF    H11 9550   3.296   1.203   0.441 -2.4788 -1.6306 -1.1212
  624THF    H12 9551   3.196   1.373   0.312  1.0276 -0.4757 -0.1565
  624THF    H13 9552   3.207   1.252   0.185  2.1717  1.2241  2.1655
  625THF     O1 9553   3.264   3.004   3.440 -0.4497 -0.2570 -0.2357
  625THF     C2 9554   3.373   2.966   3.353  0.2028  0.4222 -0.0527
  625THF     C3 9555   3.249   3.145   3.409  0.6753 -0.5705 -0.3059
  625THF     H4 9556   3.320   2.954   3.259  0.4933  0.8449  0.3376
  625THF     H5 9557   3.413   2.868   3.365 -0.1329  0.1341  0.8394
  625THF     H6 9558   3.179   3.150   3.330 -0.4920 -2.2957  2.6792
  625THF     H7 9559   3.193   3.183   3.494 -1.1695 -0.4176  0.2480
  625THF     C8 9560   3.395   3.200   3.395 -0.4670  0.4117 -0.2083
  625THF     C9 9561   3.477   3.078   3.357 -0.1198  0.6486 -0.5537
  625THF    H10 9562   3.416   3.246   3.483  0.0517 -2.1045 -0.5758
  625THF    H11 9563   3.391   3.278   3.311  0.1710  1.0266 -0.0814
  625THF    H12 9564   3.525   3.095   3.265  1.4865 -1.4984 -1.4613
  625THF    H13 9565   3.555   3.045   3.427 -0.1341  5.7691 -3.6281
  626THF     O1 9566   2.261   1.616   0.614 -0.0201  0.1356 -0.5192
  626THF     C2 9567   2.310   1.734   0.555  0.1765  0.2850  0.4326
  626THF     C3 9568   2.330   1.615   0.741 -0.2489 -0.3340 -0.3287
  626THF     H4 9569   2.242   1.768   0.478  2.3281 -1.8098 -0.2155
  626THF     H5 9570   2.404   1.714   0.508 -0.8419 -0.1630  1.3742
  626THF     H6 9571   2.272   1.556   0.808 -1.9088  2.4495  0.8984
  626THF     H7 9572   2.422   1.557   0.740 -0.0815  2.3082 -0.0254
  626THF     C8 9573   2.340   1.760   0.787  0.2647 -0.5907 -0.6478
  626THF     C9 9574   2.330   1.843   0.662  0.7725  0.1356 -0.3458
  626THF    H10 9575   2.430   1.782   0.851  0.0799  1.2843  1.6523
  626THF    H11 9576   2.259   1.781   0.854  0.0788 -1.5388 -0.7353
  626THF    H12 9577   2.238   1.900   0.665  0.7851 -0.1195 -1.4769
  626THF    H13 9578   2.415   1.904   0.650 -0.3869 -0.4248 -0.2052
  627THF     O1 9579   1.270   0.296   2.636  0.4355 -0.6582  0.4478
  627THF     C2 9580   1.169   0.278   2.539 -0.6589 -0.7752  0.5403
  627THF     C3 9581   1.225   0.409   2.713 -0.1429 -0.5430  0.2671
  627THF     H4 9582   1.075   0.233   2.584  0.1668  1.3994 -2.4675
  627THF     H5 9583   1.213   0.215   2.463  0.5477 -2.3051 -0.2134
  627THF     H6 9584   1.161   0.384   2.798 -3.1044 -2.3506  0.5362
  627THF     H7 9585   1.311   0.466   2.757 -0.3122  1.9593 -0.1467
  627THF     C8 9586   1.137   0.485   2.617 -0.3420  0.4481  0.0955
  627THF     C9 9587   1.142   0.416   2.487 -0.0498 -0.7523  0.3921
  627THF    H10 9588   1.166   0.589   2.606 -1.8551  0.0249 -0.2587
  627THF    H11 9589   1.032   0.479   2.647 -0.1136  1.4835  0.0873
  627THF    H12 9590   1.053   0.418   2.424  2.2541  0.0328  0.1574
  627THF    H13 9591   1.219   0.459   2.428  1.5000 -3.3037  0.2005
  628THF     O1 9592   0.658   2.763   0.264 -0.0893 -0.0132  0.1312
  628THF     C2 9593   0.614   2.639   0.221 -0.0869  0.1058 -0.1755
  628THF     C3 9594   0.645   2.776   0.400  0.5134  0.3012 -0.7863
  628THF     H4 9595   0.678   2.584   0.148  1.1544  0.8575 -1.0620
  628THF     H5 9596   0.520   2.652   0.174 -1.2635  1.1517  0.4783
  628THF     H6 9597   0.714   2.839   0.453 -0.5724 -1.1265  0.1881
  628THF     H7 9598   0.544   2.811   0.416  1.0257 -0.0897  0.1362
  628THF     C8 9599   0.660   2.635   0.455  0.4455  0.0484  0.7116
  628THF     C9 9600   0.603   2.552   0.342 -0.4921  0.4978 -0.2667
  628THF    H10 9601   0.600   2.625   0.548 -1.5049 -0.5391 -1.7122
  628THF    H11 9602   0.764   2.607   0.473 -3.4231 -0.9106 -0.4404
  628THF    H12 9603   0.648   2.450   0.324 -0.7297 -1.5181 -0.1310
  628THF    H13 9604   0.498   2.534   0.360 -1.0498 -0.9914  0.1232
  629THF     O1 9605   0.472   4.613   4.923 -0.2958 -0.0567 -0.5981
  629THF     C2 9606   0.389   4.733   4.900 -0.5813  0.4309  0.5769
  629THF     C3 9607   0.497   4.547   4.796 -0.3757 -0.6619  0.6590
  629THF     H4 9608   0.449   4.808   4.843 -1.1518  0.7250  1.5653
  629THF     H5 9609   0.354   4.763   4.997  2.2771  0.7558  1.1058
  629THF     H6 9610   0.558   4.622   4.745  0.5742  3.2807  1.4870
  629THF     H7 9611   0.543   4.453   4.801 -3.0279 -1.2481  1.9024
  629THF     C8 9612   0.350   4.555   4.746  0.0237 -0.0147 -0.0756
  629THF     C9 9613   0.287   4.689   4.806  1.0441  1.0235  0.3576
  629THF    H10 9614   0.297   4.471   4.781 -0.0177  1.5141  0.2447
  629THF    H11 9615   0.340   4.544   4.635 -0.2375  1.1750 -3.2950
  629THF    H12 9616   0.270   4.768   4.737 -1.1375 -2.1653 -2.8032
  629THF    H13 9617   0.188   4.667   4.850 -0.5817  0.1968 -0.3838
  630THF     O1 9618   0.450   5.232   4.263  0.3541  0.6317  0.5473
  630THF     C2 9619   0.386   5.186   4.145  0.3149  1.0038 -0.4171
  630THF     C3 9620   0.532   5.352   4.238 -0.0539 -0.1965 -0.1439
  630THF     H4 9621   0.287   5.137   4.157 -3.8344 -2.6599  0.1740
  630THF     H5 9622   0.454   5.102   4.119  1.0521  1.8951  0.6362
  630THF     H6 9623   0.481   5.425   4.298  1.3400 -0.0695  0.2432
  630THF     H7 9624   0.641   5.346   4.269  4.1290 -1.2019  1.6702
  630THF     C8 9625   0.517   5.369   4.087  0.5756 -0.0675 -0.4347
  630THF     C9 9626   0.387   5.302   4.049  0.5835 -0.2760  0.2496
  630THF    H10 9627   0.602   5.314   4.046  0.2918  0.7182 -0.3726
  630THF    H11 9628   0.538   5.477   4.055  1.0026 -0.5605 -3.1430
  630THF    H12 9629   0.300   5.365   4.076  0.7040 -1.1112  1.0873
  630THF    H13 9630   0.396   5.271   3.946  1.5571 -1.8801 -2.2005
  631THF     O1 9631   3.163   4.803   4.071  0.4013 -0.4966  0.2443
  631THF     C2 9632   3.074   4.877   3.983  0.9942 -0.3086 -0.4575
  631THF     C3 9633   3.155   4.667   4.031  0.0609 -0.8629 -0.1696
  631THF     H4 9634   3.127   4.894   3.889 -3.2842 -0.7413  0.2589
  631THF     H5 9635   3.039   4.965   4.034  0.0588  1.6589 -1.7077
  631THF     H6 9636   3.200   4.644   3.928 -0.8808  1.3911 -1.9551
  631THF     H7 9637   3.191   4.595   4.100 -1.6266 -2.4006  0.6091
  631THF     C8 9638   3.003   4.646   4.023 -0.3532  0.6818 -0.2342
  631THF     C9 9639   2.953   4.780   3.963  0.1228  0.2374  0.5650
  631THF    H10 9640   2.961   4.620   4.126  1.0119 -1.7230  3.2043
  631THF    H11 9641   2.984   4.558   3.960  0.6681 -0.5734  3.5275
  631THF    H12 9642   2.924   4.779   3.853  2.1843 -0.6308  1.2187
  631THF    H13 9643   2.861   4.808   4.024  0.2380 -1.7014 -1.3138
  632THF     O1 9644   2.178   2.488   2.640 -0.9334  0.5241 -0.2612
  632THF     C2 9645   2.173   2.495   2.785  0.3878 -0.8007  0.8859
  632THF     C3 9646   2.149   2.350   2.607 -0.4602  0.9080  0.1987
  632THF     H4 9647   2.169   2.600   2.827  0.9283 -0.3898  2.5242
  632THF     H5 9648   2.261   2.455   2.836 -1.1210  0.1677  0.3187
  632THF     H6 9649   2.089   2.346   2.521  2.9491 -0.2045  3.3836
  632THF     H7 9650   2.232   2.287   2.593 -3.1356 -0.6275 -0.6799
  632THF     C8 9651   2.063   2.303   2.731 -0.2099  0.2813 -0.1605
  632THF     C9 9652   2.050   2.418   2.824 -0.7248  1.4508  0.1227
  632THF    H10 9653   2.122   2.219   2.775 -0.0691  1.8339 -0.5017
  632THF    H11 9654   1.964   2.279   2.695 -0.2913 -0.4938 -2.3775
  632THF    H12 9655   1.955   2.469   2.816  0.6341 -0.7339 -0.9863
  632THF    H13 9656   2.052   2.377   2.926 -1.5481  0.4347  1.9002
  633THF     O1 9657   4.584   1.206   0.786 -0.1657 -0.1901  0.1362
  633THF     C2 9658   4.590   1.333   0.746 -0.1953 -0.1428  0.3836
  633THF     C3 9659   4.720   1.160   0.796 -0.2636  0.2563 -0.1705
  633THF     H4 9660   4.616   1.393   0.831 -1.6932 -0.9279  0.9478
  633THF     H5 9661   4.495   1.375   0.722  1.0803 -0.3689  0.2425
  633THF     H6 9662   4.760   1.163   0.897 -0.0168  0.6694  3.6525
  633THF     H7 9663   4.731   1.057   0.752 -1.1394  1.1542 -1.9370
  633THF     C8 9664   4.795   1.248   0.694 -0.1493 -0.1352 -0.8915
  633THF     C9 9665   4.683   1.324   0.632  0.1242 -0.6320  0.0937
  633THF    H10 9666   4.861   1.192   0.626 -1.1965  0.5939  2.3235
  633THF    H11 9667   4.855   1.313   0.751 -0.2087 -1.2728 -0.5253
  633THF    H12 9668   4.705   1.425   0.605  1.7657 -0.1587  1.3251
  633THF    H13 9669   4.643   1.266   0.546  0.2606 -3.4562  1.1036
  634THF     O1 9670   2.267   3.231   3.442 -0.0670  0.1015  0.3021
  634THF     C2 9671   2.363   3.331   3.452 -0.5163  0.5021 -0.0737
  634THF     C3 9672   2.265   3.177   3.578  0.0158 -0.2175 -0.0836
  634THF     H4 9673   2.368   3.375   3.353  0.6451 -1.4358 -2.2940
  634THF     H5 9674   2.467   3.284   3.482  1.7716  0.4248  0.4345
  634THF     H6 9675   2.163   3.140   3.576 -0.5371  0.9691  0.6060
  634THF     H7 9676   2.337   3.099   3.594 -1.8310  0.9190 -0.1142
  634THF     C8 9677   2.288   3.301   3.676 -0.6788  0.3895  0.8761
  634THF     C9 9678   2.318   3.412   3.570 -0.4930 -0.5957 -0.4573
  634THF    H10 9679   2.376   3.295   3.743  0.4099  0.7712 -0.4230
  634THF    H11 9680   2.205   3.322   3.737 -0.8819 -1.2914 -4.0300
  634THF    H12 9681   2.226   3.459   3.555  0.9583  1.2368 -1.0994
  634THF    H13 9682   2.389   3.492   3.610  0.5308  3.0186 -0.0324
  635THF     O1 9683   4.331   0.019   4.097  0.0808 -0.2267  0.4575
  635THF     C2 9684   4.348   0.162   4.115 -0.1444  0.6635 -0.0237
  635THF     C3 9685   4.195  -0.021   4.107 -0.4720  0.1004  0.2788
  635THF     H4 9686   4.349   0.218   4.020 -1.0703 -1.5130  1.1201
  635THF     H5 9687   4.446   0.179   4.156  0.2759 -0.7059  2.0861
  635THF     H6 9688   4.164  -0.083   4.023 -0.3889 -1.2360  1.7641
  635THF     H7 9689   4.192  -0.096   4.194 -2.1735  2.3631  1.6649
  635THF     C8 9690   4.116   0.107   4.150 -0.1746 -0.4158 -0.0962
  635THF     C9 9691   4.226   0.200   4.207  1.0335 -0.3366  0.1666
  635THF    H10 9692   4.029   0.077   4.209  1.1164 -0.4739 -1.8580
  635THF    H11 9693   4.069   0.159   4.069 -0.1964  1.1732  1.9407
  635THF    H12 9694   4.204   0.306   4.208  2.0121 -2.5718  1.8206
  635THF    H13 9695   4.251   0.172   4.305  0.8198 -0.8592 -0.2920
  636THF     O1 9696   1.305   4.614   4.574 -0.2469 -0.2400 -0.1623
  636THF     C2 9697   1.275   4.733   4.653  0.1460  1.0202 -0.5640
  636THF     C3 9698   1.287   4.655   4.437  0.2638  0.6778 -0.0644
  636THF     H4 9699   1.299   4.731   4.753 -2.0499 -0.8225 -1.7153
  636THF     H5 9700   1.172   4.755   4.654  1.2107  1.0388 -1.9197
  636THF     H6 9701   1.322   4.578   4.372  0.0675 -0.7965  2.6955
  636THF     H7 9702   1.181   4.642   4.425 -2.5334  2.7276  2.4535
  636THF     C8 9703   1.336   4.799   4.431 -0.1459  0.4235 -0.1302
  636THF     C9 9704   1.354   4.839   4.577 -0.3544 -0.5226  1.0182
  636THF    H10 9705   1.274   4.860   4.376  2.2859  1.4112  0.5205
  636THF    H11 9706   1.433   4.794   4.382  0.2363 -0.9760  0.5972
  636THF    H12 9707   1.457   4.846   4.606 -2.3976  0.2719  1.3281
  636THF    H13 9708   1.316   4.945   4.594  0.0199  3.8533  1.5402
  637THF     O1 9709   2.162   1.250   3.840 -0.0778 -0.1471 -0.7091
  637THF     C2 9710   2.039   1.263   3.762  0.5058 -0.4223  0.0307
  637THF     C3 9711   2.207   1.381   3.871  0.9920  0.0915 -0.0644
  637THF     H4 9712   1.958   1.209   3.799  1.3606  1.1010 -0.8350
  637THF     H5 9713   2.032   1.227   3.663 -0.0890 -1.4710  1.8794
  637THF     H6 9714   2.265   1.387   3.959  1.0479 -4.0191 -0.7196
  637THF     H7 9715   2.255   1.423   3.784 -1.3501  0.6397  0.6516
  637THF     C8 9716   2.087   1.474   3.876  0.2708 -0.1066  0.1068
  637THF     C9 9717   2.002   1.408   3.768  0.0681 -0.3157 -0.4962
  637THF    H10 9718   2.110   1.578   3.851  0.9553 -3.2102  1.9779
  637THF    H11 9719   2.036   1.470   3.977 -0.4774 -0.4189 -0.2299
  637THF    H12 9720   1.899   1.427   3.800 -3.6088 -1.0942 -0.3816
  637THF    H13 9721   2.014   1.446   3.671  2.4393  0.5809  1.8476
  638THF     O1 9722   2.815   4.115   1.493 -0.0034  0.2122  0.2570
  638THF     C2 9723   2.686   4.137   1.434 -0.2445 -0.4912  0.4885
  638THF     C3 9724   2.824   4.170   1.627  0.3021 -0.0328  0.2546
  638THF     H4 9725   2.613   4.064   1.457 -1.2942  2.6006 -1.3333
  638THF     H5 9726   2.704   4.157   1.326  2.3454 -1.4675 -0.5468
  638THF     H6 9727   2.842   4.099   1.711  0.0619 -4.6667  1.5447
  638THF     H7 9728   2.901   4.240   1.639  0.7681 -1.1073 -2.4491
  638THF     C8 9729   2.693   4.239   1.648  0.1100 -0.7176  0.4240
  638THF     C9 9730   2.644   4.268   1.502  0.3898  0.1904 -0.0132
  638THF    H10 9731   2.707   4.332   1.699  0.7672  0.6263 -2.1925
  638THF    H11 9732   2.618   4.182   1.705  0.7917 -0.5961 -0.9633
  638THF    H12 9733   2.530   4.283   1.501 -1.4317  0.1343 -0.5201
  638THF    H13 9734   2.697   4.348   1.449  0.8266  1.3518 -1.2584
  639THF     O1 9735   0.349   4.082   0.181 -0.3018  0.0647  0.0544
  639THF     C2 9736   0.473   4.005   0.164  0.6456 -0.2422 -0.2899
  639THF     C3 9737   0.338   4.164   0.067  0.8071 -0.5627 -0.2558
  639THF     H4 9738   0.482   3.915   0.224  0.9922 -1.0829 -0.7015
  639THF     H5 9739   0.560   4.066   0.186  0.5456  1.8968  0.3374
  639THF     H6 9740   0.230   4.183   0.051  0.6375  1.2992 -0.1182
  639THF     H7 9741   0.374   4.261   0.103 -1.2577 -0.5888  1.2157
  639THF     C8 9742   0.404   4.093  -0.052 -0.7203  0.1048  0.2361
  639THF     C9 9743   0.483   3.983   0.016 -0.2018  0.3321  0.2891
  639THF    H10 9744   0.467   4.169  -0.108  1.4877  1.8254  1.5709
  639THF    H11 9745   0.317   4.055  -0.107 -0.4115 -1.9114 -0.0006
  639THF    H12 9746   0.443   3.886  -0.012  1.5390 -0.2720  0.1787
  639THF    H13 9747   0.589   3.971  -0.012  0.6127  0.0818  1.3340
  640THF     O1 9748   0.803   4.368   2.978 -0.2410  0.7535  0.5064
  640THF     C2 9749   0.730   4.445   3.073  0.4543  0.4341  0.9454
  640THF     C3 9750   0.904   4.302   3.054 -0.7343 -0.4402  0.3556
  640THF     H4 9751   0.662   4.391   3.135 -0.7845  2.3153 -0.9527
  640THF     H5 9752   0.667   4.511   3.022 -1.5916  0.4714 -0.0928
  640THF     H6 9753   0.856   4.223   3.116 -1.2135  0.5165  0.6336
  640THF     H7 9754   0.981   4.260   2.996 -0.8630 -1.0778  1.3153
  640THF     C8 9755   0.950   4.404   3.161  0.2147  0.3241  0.1146
  640THF     C9 9756   0.846   4.514   3.149 -0.3734  0.4147 -0.1493
  640THF    H10 9757   1.046   4.453   3.137  0.9746  0.7293 -0.6826
  640THF    H11 9758   0.946   4.371   3.266  1.2292  0.8222 -0.0046
  640THF    H12 9759   0.821   4.552   3.251  0.2338  0.6521  0.3475
  640THF    H13 9760   0.891   4.606   3.106 -1.4904  0.2668  0.9957
  641THF     O1 9761   5.019   4.535   2.238  0.7078 -0.0317 -0.4093
  641THF     C2 9762   4.886   4.556   2.269 -0.2956 -0.0398  0.7492
  641THF     C3 9763   5.086   4.470   2.350 -0.1694 -0.0831  0.1703
  641THF     H4 9764   4.825   4.472   2.242  0.0266 -3.7079 -3.5974
  641THF     H5 9765   4.854   4.642   2.216 -2.0163  3.0911 -0.7377
  641THF     H6 9766   5.088   4.363   2.329  0.4210 -1.1676 -0.2569
  641THF     H7 9767   5.189   4.507   2.359  0.4431  1.6676  2.1398
  641THF     C8 9768   4.994   4.505   2.469  0.1614  0.3614 -0.3573
  641THF     C9 9769   4.888   4.590   2.414  0.5685 -0.1264  1.7947
  641THF    H10 9770   5.057   4.563   2.545  0.6631  1.0437 -0.5857
  641THF    H11 9771   4.965   4.410   2.521 -3.3628 -0.2583 -1.2551
  641THF    H12 9772   4.789   4.601   2.463  0.4348  2.8240 -4.4656
  641THF    H13 9773   4.929   4.687   2.421 -0.8274  1.2200 -2.4997
  642THF     O1 9774   5.326   4.488   4.198 -0.8300 -0.3846  0.5369
  642THF     C2 9775   5.273   4.612   4.241  0.4141 -0.1314 -0.2030
  642THF     C3 9776   5.241   4.428   4.103 -0.3324  0.9018 -0.0698
  642THF     H4 9777   5.317   4.680   4.170  0.0116 -0.1734 -0.0387
  642THF     H5 9778   5.310   4.638   4.339  0.0747 -0.6451 -2.8056
  642THF     H6 9779   5.253   4.462   4.006 -1.5870 -2.1136 -0.2826
  642THF     H7 9780   5.256   4.320   4.100  0.9791  0.4723 -1.0167
  642THF     C8 9781   5.099   4.470   4.163  0.0226 -0.3637 -0.2936
  642THF     C9 9782   5.122   4.611   4.220  0.0899  0.0627 -0.3357
  642THF    H10 9783   5.063   4.406   4.236  0.6810  2.3335 -0.7542
  642THF    H11 9784   5.034   4.468   4.078 -1.2789 -1.9673  2.5324
  642THF    H12 9785   5.099   4.687   4.140  0.9759  3.2412 -0.9317
  642THF    H13 9786   5.068   4.632   4.310 -0.1859 -0.3909  0.2888
  643THF     O1 9787   4.091   3.182   2.119  0.0978  0.2264  0.3649
  643THF     C2 9788   4.200   3.132   2.039  0.6253 -0.3960 -0.1939
  643THF     C3 9789   4.145   3.234   2.242  0.4262  0.1897  0.6581
  643THF     H4 9790   4.173   3.099   1.936  2.1925  1.4026 -2.5237
  643THF     H5 9791   4.227   3.038   2.092  0.3876  0.8928  0.4079
  643THF     H6 9792   4.076   3.309   2.277  0.0635  1.8662 -0.9510
  643THF     H7 9793   4.163   3.173   2.332  1.4071 -1.3632  0.2283
  643THF     C8 9794   4.283   3.286   2.203 -0.1952  0.2142 -0.1504
  643THF     C9 9795   4.306   3.235   2.054  0.0122  0.2181  0.3510
  643THF    H10 9796   4.353   3.239   2.268  0.2076  1.6525 -1.9341
  643THF    H11 9797   4.295   3.391   2.197  1.2375 -0.9707 -0.0620
  643THF    H12 9798   4.272   3.317   1.983  1.3090 -0.1032  2.3938
  643THF    H13 9799   4.407   3.213   2.035 -2.8841  0.0888  0.6532
  644THF     O1 9800   4.763   0.891   0.437  0.1944 -0.2926 -0.0498
  644THF     C2 9801   4.643   0.890   0.518 -0.1717 -0.4930  0.0494
  644THF     C3 9802   4.747   0.790   0.334  0.5439 -0.4242  0.7291
  644THF     H4 9803   4.617   0.988   0.563 -0.3826  2.1848  1.7483
  644THF     H5 9804   4.679   0.825   0.605 -1.2070  1.3276 -0.9413
  644THF     H6 9805   4.820   0.801   0.248 -0.5882  0.4452 -1.2970
  644THF     H7 9806   4.784   0.693   0.376  0.6025  1.8062  2.4538
  644THF     C8 9807   4.593   0.792   0.303  0.1941  0.2720 -0.3664
  644THF     C9 9808   4.535   0.815   0.443  0.7565 -0.4319 -0.5527
  644THF    H10 9809   4.571   0.697   0.260 -0.9560 -1.6727 -1.7369
  644THF    H11 9810   4.566   0.875   0.237 -0.0645  0.5641  0.1990
  644THF    H12 9811   4.439   0.867   0.442 -0.2852  0.2659 -3.6277
  644THF    H13 9812   4.514   0.719   0.490 -0.1682  0.1305 -1.2020
  645THF     O1 9813   0.014   2.865   1.600  0.2642  0.1055 -0.3766
  645THF     C2 9814  -0.023   2.989   1.557 -0.1435 -0.4030  0.1935
  645THF     C3 9815  -0.099   2.806   1.650  0.1036  0.0142  0.1230
  645THF     H4 9816  -0.089   2.980   1.472  1.5643  2.2688  2.7140
  645THF     H5 9817   0.068   3.037   1.535  0.9026  2.6421  0.8028
  645THF     H6 9818  -0.164   2.776   1.572 -0.5423  1.2399 -2.0097
  645THF     H7 9819  -0.077   2.717   1.711 -1.8850  0.5315 -0.2759
  645THF     C8 9820  -0.167   2.915   1.735  0.0637  0.1411 -0.3618
  645THF     C9 9821  -0.116   3.038   1.676 -0.1563  0.1189  0.2919
  645THF    H10 9822  -0.136   2.901   1.837 -0.6472 -1.8711 -1.3437
  645THF    H11 9823  -0.275   2.915   1.729  0.5877  1.4256  0.9361
  645THF    H12 9824  -0.203   3.107   1.644 -4.0405  2.7686 -0.5970
  645THF    H13 9825  -0.058   3.092   1.757 -2.8684 -1.2939 -1.4916
  646THF     O1 9826   3.666   1.712   2.602 -0.6823  0.1130 -0.6445
  646THF     C2 9827   3.794   1.665   2.565 -0.2872 -0.1781  0.1458
  646THF     C3 9828   3.685   1.824   2.687 -0.5793  0.0117  0.1377
  646THF     H4 9829   3.862   1.736   2.519 -1.8500  0.3233 -0.6411
  646THF     H5 9830   3.797   1.570   2.513 -0.2425 -2.5890 -0.6922
  646THF     H6 9831   3.724   1.910   2.628 -2.7648  0.3517 -0.6243
  646THF     H7 9832   3.593   1.850   2.746 -0.7725 -0.6330  2.7457
  646THF     C8 9833   3.786   1.756   2.781 -0.0584 -0.4058  0.0192
  646THF     C9 9834   3.843   1.637   2.708  0.7996  0.0798 -0.3922
  646THF    H10 9835   3.744   1.716   2.876 -1.8346  1.4058 -1.4960
  646THF    H11 9836   3.869   1.825   2.800 -0.0556 -1.3532  0.2361
  646THF    H12 9837   3.957   1.630   2.708  2.9552 -1.2737 -0.6870
  646THF    H13 9838   3.801   1.549   2.757 -0.9591  2.7331  1.1707
  647THF     O1 9839   4.456   4.710   2.077  0.1523  0.3321  0.2125
  647THF     C2 9840   4.421   4.661   1.952 -1.1678 -0.7845 -0.5027
  647THF     C3 9841   4.544   4.629   2.142 -0.0196  0.1733 -0.0878
  647THF     H4 9842   4.499   4.681   1.877  1.6668  0.7292  1.1168
  647THF     H5 9843   4.330   4.710   1.922 -1.2750  1.7233  0.5634
  647THF     H6 9844   4.647   4.641   2.105  1.7180 -0.8569 -0.8861
  647THF     H7 9845   4.541   4.664   2.249  0.4864  0.3623 -0.3825
  647THF     C8 9846   4.489   4.488   2.109 -0.0711 -0.1336 -0.0653
  647THF     C9 9847   4.399   4.516   1.983 -0.0051  0.7163 -0.5328
  647THF    H10 9848   4.428   4.447   2.195 -0.0739  1.6504  1.9026
  647THF    H11 9849   4.569   4.424   2.076 -2.9252  1.1244  1.4003
  647THF    H12 9850   4.439   4.451   1.904  0.7649  0.9530  0.8126
  647THF    H13 9851   4.301   4.485   2.009 -0.3064  2.1276  1.8242
  648THF     O1 9852   0.016   3.492   0.640 -0.3185  0.1207 -0.2763
  648THF     C2 9853   0.029   3.639   0.655  0.1488 -0.2441  0.0175
  648THF     C3 9854   0.054   3.462   0.505  0.1868 -0.1601 -1.1078
  648THF     H4 9855   0.127   3.664   0.678 -0.3924  2.6662 -1.5451
  648THF     H5 9856  -0.041   3.675   0.734 -2.5845 -2.1547 -2.1396
  648THF     H6 9857   0.160   3.449   0.503  0.8978  0.5398 -1.0526
  648THF     H7 9858   0.015   3.369   0.475 -1.2404  1.9518 -0.9936
  648THF     C8 9859   0.012   3.586   0.422  0.9112 -0.0838  0.3836
  648THF     C9 9860  -0.020   3.695   0.516 -0.2679 -0.3015 -0.4092
  648THF    H10 9861  -0.078   3.575   0.358 -0.1955  0.0952  3.1375
  648THF    H11 9862   0.097   3.611   0.355 -0.8251 -2.1106 -0.4058
  648THF    H12 9863   0.030   3.790   0.491 -1.2343  1.5483  0.1195
  648THF    H13 9864  -0.125   3.721   0.525 -0.0358  3.2678 -1.6269
  649THF     O1 9865   0.120   0.060   4.474 -0.2514 -0.2202 -0.0038
  649THF     C2 9866   0.125   0.195   4.433 -0.3508 -0.2620  0.4602
  649THF     C3 9867   0.228  -0.007   4.409 -0.1711 -0.0593  0.2520
  649THF     H4 9868   0.198   0.253   4.490 -0.9105 -0.6753 -2.3769
  649THF     H5 9869   0.034   0.255   4.444  0.7498 -0.2246  1.0526
  649THF     H6 9870   0.306  -0.016   4.479 -2.0302 -0.1309  0.0807
  649THF     H7 9871   0.197  -0.101   4.375 -1.2375  1.0677 -0.3261
  649THF     C8 9872   0.278   0.086   4.301  0.5642 -0.5402  0.4849
  649THF     C9 9873   0.172   0.199   4.291 -0.2952 -0.2770 -0.1408
  649THF    H10 9874   0.289   0.032   4.208 -0.2837 -0.6392 -0.6862
  649THF    H11 9875   0.375   0.116   4.331 -2.3624 -3.6197 -0.2730
  649THF    H12 9876   0.218   0.297   4.281 -2.9775  0.9236  1.7231
  649THF    H13 9877   0.092   0.176   4.220 -1.3810 -2.4750  0.4092
  650THF     O1 9878   3.092   3.404   4.172  0.1453 -0.5144  0.0561
  650THF     C2 9879   2.964   3.351   4.206 -0.1650  0.2555  0.2558
  650THF     C3 9880   3.076   3.535   4.117  0.6520 -0.4010 -1.1040
  650THF     H4 9881   2.930   3.380   4.307 -1.3133  2.6328 -0.3538
  650THF     H5 9882   2.957   3.238   4.210 -2.3739  0.0990 -0.1637
  650THF     H6 9883   3.118   3.613   4.180  0.1991  0.3008 -2.6506
  650THF     H7 9884   3.137   3.533   4.022 -0.3885  1.0464  2.4878
  650THF     C8 9885   2.926   3.553   4.096 -0.1027 -0.3515  0.5636
  650THF     C9 9886   2.871   3.414   4.106 -0.5863 -0.4671 -0.2579
  650THF    H10 9887   2.914   3.598   3.993 -4.0023 -1.6199 -1.9374
  650THF    H11 9888   2.874   3.617   4.164  0.1844 -1.3753 -1.0687
  650THF    H12 9889   2.767   3.412   4.135  0.1322 -0.8654  1.1626
  650THF    H13 9890   2.905   3.372   4.012  1.0951  0.5921 -0.7791
  651THF     O1 9891   2.162   1.641   5.041  0.1476 -0.0595  0.5344
  651THF     C2 9892   2.123   1.607   4.911 -0.5593  0.3022  0.3521
  651THF     C3 9893   2.083   1.745   5.091 -0.6528 -0.1401 -0.2715
  651THF     H4 9894   2.061   1.518   4.895 -0.3068 -0.1501  0.1628
  651THF     H5 9895   2.217   1.581   4.859 -1.7760  2.0763 -2.1364
  651THF     H6 9896   2.012   1.709   5.164  0.2149 -0.3990 -0.8940
  651THF     H7 9897   2.137   1.810   5.153 -0.9004 -0.3929  0.4592
  651THF     C8 9898   2.035   1.823   4.968  0.5155  0.3971 -0.2331
  651THF     C9 9899   2.056   1.729   4.854  0.0116 -0.5184  0.9952
  651THF    H10 9900   2.090   1.922   4.952 -0.5942 -3.0620 -1.7101
  651THF    H11 9901   1.930   1.849   4.977  0.1791  1.3970 -1.6952
  651THF    H12 9902   1.962   1.692   4.820  2.2608  0.0039 -0.1595
  651THF    H13 9903   2.118   1.780   4.779 -0.7741  1.5699 -0.7506
  652THF     O1 9904   0.836   0.546   1.466 -0.5408 -0.3838  0.1041
  652THF     C2 9905   0.933   0.451   1.502  0.2516  0.7215  0.7847
  652THF     C3 9906   0.723   0.522   1.549  1.2006  0.1408 -0.2109
  652THF     H4 9907   1.024   0.498   1.470 -1.7264  0.3800 -0.9918
  652THF     H5 9908   0.911   0.359   1.444  0.4455 -0.9184  0.6159
  652THF     H6 9909   0.668   0.615   1.555 -1.1808 -0.2999 -2.3311
  652THF     H7 9910   0.651   0.447   1.504 -1.5325 -0.7146  0.3451
  652THF     C8 9911   0.775   0.475   1.688 -0.1272 -0.4689  0.8351
  652THF     C9 9912   0.923   0.441   1.657 -0.1249 -1.2881  0.2183
  652THF    H10 9913   0.717   0.409   1.738  4.2675  1.6353 -2.4283
  652THF    H11 9914   0.771   0.568   1.736 -3.5740 -1.5997 -0.6862
  652THF    H12 9915   0.974   0.525   1.710 -0.8641 -3.1397 -1.3107
  652THF    H13 9916   0.958   0.351   1.707  1.0799  2.6205  1.2570
  653THF     O1 9917   3.068   0.516   5.180 -0.7708  0.4905  0.1517
  653THF     C2 9918   3.103   0.489   5.045 -0.2283  0.2451 -0.3039
  653THF     C3 9919   2.982   0.625   5.199 -0.5036  0.6291  0.0411
  653THF     H4 9920   3.045   0.403   5.012  1.2556  2.1575  2.4817
  653THF     H5 9921   3.203   0.459   5.029  0.6105  1.9610  0.8845
  653THF     H6 9922   2.891   0.594   5.258  2.5072  0.9052  0.0487
  653THF     H7 9923   3.043   0.700   5.255 -0.7638 -2.6521  1.3260
  653THF     C8 9924   2.938   0.662   5.056 -0.3619 -0.2012 -0.2347
  653THF     C9 9925   3.058   0.616   4.972  0.8245  0.5172 -0.3999
  653THF    H10 9926   2.916   0.766   5.039 -0.8125 -1.4296  0.3760
  653THF    H11 9927   2.860   0.597   5.015  0.5501 -0.3113 -0.9602
  653THF    H12 9928   3.037   0.600   4.864  1.5159 -0.8918 -3.6278
  653THF    H13 9929   3.124   0.699   4.964 -2.7350 -2.0728 -1.1756
  654THF     O1 9930   1.172   2.973   2.683  0.4741 -0.6915  0.3660
  654THF     C2 9931   1.080   2.943   2.588 -0.5813 -0.4093 -0.2187
  654THF     C3 9932   1.248   3.072   2.612 -0.1498  0.3474  0.2437
  654THF     H4 9933   1.008   3.020   2.580 -1.4291  0.6401  0.2313
  654THF     H5 9934   1.020   2.853   2.624  1.2658 -1.6356  0.8762
  654THF     H6 9935   1.181   3.155   2.598  1.9003 -2.1960  0.9278
  654THF     H7 9936   1.328   3.117   2.666 -1.2944  0.5027  0.5875
  654THF     C8 9937   1.267   3.014   2.471 -0.2279  0.0712  0.7314
  654THF     C9 9938   1.155   2.917   2.461 -0.2744  0.3180 -0.1881
  654THF    H10 9939   1.363   2.965   2.456 -2.3296  0.8201  2.3252
  654THF    H11 9940   1.255   3.082   2.388  1.0418  0.1081  1.2057
  654THF    H12 9941   1.102   2.938   2.369  0.4785  2.4145 -0.9559
  654THF    H13 9942   1.203   2.817   2.449  0.6309 -0.6878  1.7400
  655THF     O1 9943   4.007   5.261   3.054  0.0118 -0.2846 -0.4955
  655THF     C2 9944   4.122   5.358   3.068 -0.3911 -0.0144 -0.5313
  655THF     C3 9945   4.019   5.167   3.154  0.1431 -0.5121  0.6552
  655THF     H4 9946   4.082   5.457   3.097 -0.9732  1.9126 -0.6635
  655THF     H5 9947   4.185   5.363   2.980  0.2858  0.9655 -0.2290
  655THF     H6 9948   3.949   5.201   3.239 -0.8876  2.5007  3.1443
  655THF     H7 9949   3.981   5.065   3.130  0.8447  1.8296 -0.6112
  655THF     C8 9950   4.161   5.163   3.196  0.1518  0.4660 -0.3696
  655THF     C9 9951   4.213   5.299   3.179  0.3099 -0.3137 -0.7174
  655THF    H10 9952   4.221   5.091   3.140 -0.2269 -0.7626  0.3793
  655THF    H11 9953   4.167   5.121   3.304 -0.4569 -0.9850  2.9694
  655THF    H12 9954   4.209   5.351   3.275  1.0620 -2.5769  0.6549
  655THF    H13 9955   4.322   5.299   3.156  1.4076 -3.1231 -0.8037
  656THF     O1 9956   1.408   4.129   4.804  0.5483 -0.0349 -0.5891
  656THF     C2 9957   1.401   4.262   4.750  0.4811 -0.3339  0.0765
  656THF     C3 9958   1.286   4.106   4.871 -0.2947 -0.2618 -0.6518
  656THF     H4 9959   1.484   4.279   4.680 -0.9325  0.4572 -0.8452
  656THF     H5 9960   1.419   4.325   4.839  1.0029  0.4406  0.3938
  656THF     H6 9961   1.268   3.992   4.874 -0.7827  1.6525  0.1663
  656THF     H7 9962   1.283   4.149   4.970 -0.2529  2.6446  0.0376
  656THF     C8 9963   1.187   4.164   4.770  0.3809 -0.6882  0.2271
  656THF     C9 9964   1.265   4.262   4.688 -0.0175 -0.0431 -0.1972
  656THF    H10 9965   1.115   4.231   4.815 -0.5949  0.0788 -0.1070
  656THF    H11 9966   1.147   4.081   4.707  1.0659  0.7604  0.8211
  656THF    H12 9967   1.274   4.226   4.589 -1.2861  0.1838 -0.2380
  656THF    H13 9968   1.233   4.360   4.674 -2.2168 -1.7643 -2.2261
  657THF     O1 9969   0.950   3.186   0.599  0.2773 -0.3253 -0.3118
  657THF     C2 9970   0.968   3.159   0.740 -0.2618  0.1393 -0.4079
  657THF     C3 9971   1.000   3.078   0.519  0.4018 -0.0708  0.3267
  657THF     H4 9972   0.886   3.209   0.804 -3.2830  2.5142  2.9140
  657THF     H5 9973   1.068   3.181   0.778  2.4580 -0.0224  0.1860
  657THF     H6 9974   0.949   3.060   0.429 -1.0181  3.3232  2.3919
  657THF     H7 9975   1.100   3.099   0.493 -0.7068 -0.2160 -0.1804
  657THF     C8 9976   0.979   2.954   0.608  0.6976  0.1861 -0.3855
  657THF     C9 9977   0.954   3.010   0.743  0.2777  0.2829  0.9657
  657THF    H10 9978   1.069   2.900   0.603  0.5214  0.9266 -1.6632
  657THF    H11 9979   0.899   2.894   0.572  0.6195 -0.5343 -0.9606
  657THF    H12 9980   0.852   2.995   0.769 -1.1010 -1.2800 -0.1398
  657THF    H13 9981   1.016   2.970   0.827  0.8512 -1.5461  0.6086
  658THF     O1 9982   2.038   4.365   4.335  0.2110 -0.1351  0.4914
  658THF     C2 9983   2.137   4.333   4.442  0.7526  0.2290 -0.9241
  658THF     C3 9984   2.059   4.491   4.286 -0.2414 -0.4898  0.5888
  658THF     H4 9985   2.162   4.229   4.435  0.4184  2.9214 -2.0028
  658THF     H5 9986   2.105   4.346   4.545 -0.7960 -0.3382  1.2158
  658THF     H6 9987   2.013   4.498   4.189 -0.5918  0.1137  3.1226
  658THF     H7 9988   2.030   4.562   4.360 -0.2318  0.3450 -0.0530
  658THF     C8 9989   2.216   4.493   4.282 -0.2818 -0.3232 -0.1118
  658THF     C9 9990   2.257   4.417   4.405 -0.0750  0.3025 -0.8631
  658THF    H10 9991   2.269   4.586   4.267  0.5689 -0.7590 -1.7390
  658THF    H11 9992   2.240   4.425   4.199  0.1992 -2.5793  3.6339
  658THF    H12 9993   2.339   4.343   4.389  2.0772  1.2643 -0.7267
  658THF    H13 9994   2.272   4.488   4.484 -0.4474 -1.1822 -1.7067
  659THF     O1 9995   4.218   1.234   0.400 -0.1802  0.3715  0.9260
  659THF     C2 9996   4.301   1.130   0.447 -0.5218 -0.2067  0.8032
  659THF     C3 9997   4.103   1.235   0.488  0.1936  0.1134  0.1973
  659THF     H4 9998   4.404   1.127   0.412  0.7696 -0.2924 -0.6027
  659THF     H5 9999   4.253   1.037   0.410 -0.5468  1.0844 -1.2331
  659THF     H610000   4.053   1.329   0.464 -2.3784  1.8875  1.3928
  659THF     H710001   4.037   1.155   0.455  0.9960 -0.9699 -1.3065
  659THF     C810002   4.172   1.217   0.628  0.3983 -0.0455  0.5990
  659THF     C910003   4.297   1.140   0.599  0.2621 -0.2453  0.5156
  659THF    H1010004   4.110   1.189   0.716 -1.9720 -1.3702  2.2152
  659THF    H1110005   4.202   1.309   0.669 -0.7927 -0.0258  0.8978
  659THF    H1210006   4.385   1.191   0.637  1.1844 -0.1348  0.0766
  659THF    H1310007   4.300   1.038   0.646  1.4645 -2.4214 -1.1983
  660THF     O110008   1.447   2.410   3.371 -0.2360  0.1388 -0.0485
  660THF     C210009   1.567   2.493   3.345  0.4249 -0.0891 -0.3002
  660THF     C310010   1.424   2.336   3.249 -0.3041  0.1037 -0.2733
  660THF     H410011   1.662   2.437   3.364 -0.6166 -0.1508  0.1596
  660THF     H510012   1.567   2.582   3.400  1.0916 -0.4355  1.7754
  660THF     H610013   1.503   2.266   3.214 -1.0686  0.1362 -1.1827
  660THF     H710014   1.332   2.281   3.248  1.5084 -0.5864 -0.6713
  660THF     C810015   1.435   2.454   3.142  0.1074 -0.1618  0.1641
  660THF     C910016   1.546   2.539   3.204  0.9226 -0.0962 -0.0787
  660THF    H1010017   1.338   2.511   3.149 -1.7184  2.0875  0.1701
  660THF    H1110018   1.461   2.431   3.036 -0.0705  0.6827  0.0947
  660THF    H1210019   1.636   2.535   3.151 -0.1615  1.2616 -2.3007
  660THF    H1310020   1.524   2.645   3.202  1.1397 -0.2959 -3.5439
  661THF     O110021   5.212   1.257   5.381 -0.2733 -0.6676 -0.2788
  661THF     C210022   5.242   1.389   5.428  0.0570  0.1500 -0.2139
  661THF     C310023   5.069   1.234   5.395  0.1864 -0.2767 -0.7795
  661THF     H410024   5.338   1.433   5.410 -2.9521  1.0392 -1.4506
  661THF     H510025   5.244   1.380   5.536 -1.3680 -2.1409 -3.1761
  661THF     H610026   5.034   1.175   5.311  2.5287 -0.6759 -1.4808
  661THF     H710027   5.043   1.173   5.479 -0.4902 -3.1248  0.2223
  661THF     C810028   5.004   1.378   5.400  0.3812 -0.0476  0.8614
  661THF     C910029   5.126   1.472   5.374 -0.0781  0.6335 -0.1580
  661THF    H1010030   4.971   1.402   5.500  0.7528 -1.8036  1.3467
  661THF    H1110031   4.925   1.382   5.312  2.0617 -0.6363 -3.9012
  661THF    H1210032   5.135   1.487   5.268 -1.2805 -1.1467 -0.1343
  661THF    H1310033   5.127   1.572   5.420  1.4111  1.5094 -3.3534
  662THF     O110034   0.701   2.127   0.059  0.1168 -0.0585 -0.3367
  662THF     C210035   0.568   2.146   0.014 -0.7046 -0.3001 -0.6484
  662THF     C310036   0.753   2.024  -0.019 -0.2968  0.3845  0.5937
  662THF     H410037   0.541   2.249   0.044  1.7419  0.9759 -0.8258
  662THF     H510038   0.508   2.079   0.067 -0.0180  2.4413  0.4413
  662THF     H610039   0.855   2.010  -0.020 -0.5093 -0.4015 -0.1390
  662THF     H710040   0.705   1.940   0.023 -0.0477 -0.8329  0.1465
  662THF     C810041   0.700   2.048  -0.162  0.4787 -0.1740 -0.4329
  662THF     C910042   0.564   2.108  -0.137  0.2355 -0.4385  0.1042
  662THF    H1010043   0.679   1.945  -0.201  1.6074  1.9043  0.1558
  662THF    H1110044   0.748   2.121  -0.227  1.2244  0.4869  2.1051
  662THF    H1210045   0.560   2.183  -0.214 -1.2250 -1.6381  0.8333
  662THF    H1310046   0.474   2.044  -0.157 -1.5752  1.2094 -0.7011
  663THF     O110047   2.978   1.923   4.723  0.8981 -0.6868 -0.1328
  663THF     C210048   2.851   1.866   4.731 -1.3552  0.3145 -0.6906
  663THF     C310049   3.022   1.941   4.856 -0.5125 -0.4197  0.4937
  663THF     H410050   2.814   1.823   4.647 -0.1925  2.6190 -0.8574
  663THF     H510051   2.782   1.934   4.760  1.4787 -0.7392 -1.5479
  663THF     H610052   3.127   1.966   4.856  2.3677  1.3230 -0.3645
  663THF     H710053   2.975   2.024   4.908  0.1783 -0.2300 -0.7641
  663THF     C810054   2.980   1.814   4.927  0.4647  0.2060  0.2865
  663THF     C910055   2.860   1.767   4.846  0.1445  0.6551  0.2698
  663THF    H1010056   2.949   1.831   5.030  1.3674  2.0533  1.2781
  663THF    H1110057   3.063   1.748   4.921  0.2203  1.5861 -1.7925
  663THF    H1210058   2.871   1.660   4.814 -0.6186 -1.8259 -1.1501
  663THF    H1310059   2.771   1.765   4.902 -1.6340  2.4667 -0.6760
  664THF     O110060   0.859   2.167   3.400  0.2200 -0.3786  0.7580
  664THF     C210061   0.748   2.235   3.451 -0.6124 -0.0389 -0.9295
  664THF     C310062   0.977   2.215   3.463 -0.2384  0.0398  0.3704
  664THF     H410063   0.689   2.176   3.514 -0.7539 -0.3356 -2.3762
  664THF     H510064   0.673   2.256   3.373 -0.9746 -0.9931 -0.3239
  664THF     H610065   1.001   2.159   3.556 -1.3630 -1.4892  0.0300
  664THF     H710066   1.069   2.218   3.401  1.3465  1.9535  0.3456
  664THF     C810067   0.958   2.362   3.494 -0.4382 -0.4996 -0.2595
  664THF     C910068   0.803   2.363   3.512 -0.7123  0.8992  0.0915
  664THF    H1010069   0.969   2.417   3.403 -2.9976 -1.5707 -1.3322
  664THF    H1110070   1.017   2.397   3.580 -0.6501 -1.7947 -1.3447
  664THF    H1210071   0.764   2.366   3.616 -0.9775  1.1158 -1.0059
  664THF    H1310072   0.745   2.441   3.461 -0.2050 -1.6837 -1.7647
  665THF     O110073   3.230   1.479   4.652  0.4536  0.3703  0.0900
  665THF     C210074   3.283   1.533   4.537  0.2216 -0.5354 -0.0371
  665THF     C310075   3.197   1.577   4.748  0.3840  0.7397  0.5236
  665THF     H410076   3.205   1.536   4.462  0.0028  0.6276  0.0867
  665THF     H510077   3.357   1.482   4.482 -1.7289  0.3094 -0.5843
  665THF     H610078   3.105   1.630   4.722  1.4892 -1.1054  1.4937
  665THF     H710079   3.188   1.545   4.848 -0.9475  1.7884  1.0558
  665THF     C810080   3.311   1.676   4.726  0.5416  0.0796  0.5612
  665THF     C910081   3.336   1.666   4.573  0.0185  0.3109  0.4349
  665THF    H1010082   3.395   1.640   4.789  1.1829 -3.0870 -0.1711
  665THF    H1110083   3.289   1.779   4.761 -2.7626 -1.9743  0.3877
  665THF    H1210084   3.276   1.746   4.519 -0.4908 -0.8253 -0.8529
  665THF    H1310085   3.444   1.666   4.550 -1.1914 -2.0699  2.6287
  666THF     O110086   2.785   0.365   4.458 -0.5696  0.3087  0.2563
  666THF     C210087   2.926   0.365   4.459  0.6856  0.4851 -0.0051
  666THF     C310088   2.738   0.341   4.596  0.3101  0.0032 -0.0087
  666THF     H410089   2.963   0.437   4.384 -2.5204  1.6297 -0.7493
  666THF     H510090   2.966   0.273   4.428 -1.0714 -0.5763 -0.7558
  666THF     H610091   2.660   0.416   4.621 -4.1842  0.2644  3.6909
  666THF     H710092   2.687   0.240   4.601  0.2192 -1.1523 -0.6299
  666THF     C810093   2.855   0.349   4.688  0.3486 -0.2159  0.0703
  666THF     C910094   2.963   0.410   4.603  0.5448 -0.3514  0.1660
  666THF    H1010095   2.884   0.244   4.701 -0.8439  2.8328 -0.3713
  666THF    H1110096   2.839   0.405   4.779  3.5502  0.3168  2.8106
  666THF    H1210097   2.968   0.515   4.615  1.9100  0.3615 -0.8236
  666THF    H1310098   3.062   0.380   4.636  0.0841 -0.3725  0.9900
  667THF     O110099   1.435   2.418   2.434  0.3444  0.6908 -0.2139
  667THF     C210100   1.488   2.507   2.342 -0.2670 -0.2782 -0.7773
  667THF     C310101   1.547   2.332   2.466  0.2774 -0.1208  0.2017
  667THF     H410102   1.418   2.583   2.326  3.4089 -2.0989 -0.0699
  667THF     H510103   1.508   2.453   2.249  2.8377 -0.0605  0.8333
  667THF     H610104   1.539   2.266   2.554 -1.4527  2.8976 -0.5551
  667THF     H710105   1.569   2.267   2.380  1.8250 -0.8295 -0.2357
  667THF     C810106   1.666   2.428   2.484 -0.3306 -0.4337  0.1193
  667THF     C910107   1.623   2.549   2.406 -0.1776 -0.7229  0.2971
  667THF    H1010108   1.752   2.376   2.445  0.5851  2.3038 -1.1763
  667THF    H1110109   1.689   2.461   2.587  0.5707  0.7743  0.9029
  667THF    H1210110   1.601   2.643   2.466 -1.1918  0.5136 -1.5976
  667THF    H1310111   1.691   2.565   2.319 -1.5069 -0.6755 -0.5941
  668THF     O110112   0.933   3.638   0.676  0.3978  0.1525 -0.0743
  668THF     C210113   0.912   3.645   0.532 -0.2178  0.1164  0.2670
  668THF     C310114   1.058   3.571   0.708  0.2140 -0.0404  0.3244
  668THF     H410115   0.890   3.743   0.492 -1.4444 -0.1000 -1.1049
  668THF     H510116   0.826   3.581   0.510  4.0809 -0.1287  0.8674
  668THF     H610117   1.101   3.611   0.799 -0.2355 -0.9610 -2.8187
  668THF     H710118   1.042   3.464   0.722  0.8920  1.7443 -1.7717
  668THF     C810119   1.148   3.610   0.591 -0.3192 -0.2821 -0.3487
  668THF     C910120   1.051   3.588   0.483 -0.5691  0.0824  0.8880
  668THF    H1010121   1.249   3.554   0.591 -0.5996  0.5928  3.5729
  668THF    H1110122   1.160   3.720   0.603  1.3778  1.8185  1.2869
  668THF    H1210123   1.089   3.643   0.400  0.2816  0.7090  1.5392
  668THF    H1310124   1.045   3.481   0.473 -0.4014 -1.7787  2.3597
  669THF     O110125   4.054   1.347   0.001  0.2242 -0.3867 -0.0712
  669THF     C210126   3.957   1.415  -0.071  0.7106 -0.5303 -0.2543
  669THF     C310127   4.044   1.384   0.141 -0.2208 -0.4371  0.2996
  669THF     H410128   3.880   1.342  -0.100  0.5374 -0.3041  1.1121
  669THF     H510129   3.989   1.464  -0.166 -2.2928  2.4173 -1.6262
  669THF     H610130   4.045   1.305   0.211 -0.4864  1.1732 -1.6267
  669THF     H710131   4.124   1.448   0.168 -4.1642  3.4139  1.9368
  669THF     C810132   3.916   1.460   0.160  0.2695  0.6009 -0.4244
  669THF     C910133   3.879   1.514   0.023  0.5562 -1.0145 -0.0389
  669THF    H1010134   3.917   1.543   0.239 -0.0926  0.0213 -1.3863
  669THF    H1110135   3.831   1.392   0.173 -3.9278 -0.7947  0.2636
  669THF    H1210136   3.771   1.534  -0.009 -0.3455 -1.7335 -1.7834
  669THF    H1310137   3.926   1.611   0.020  0.4887 -2.0439 -0.1374
  670THF     O110138   5.456   2.986   2.288 -0.2715 -0.1429  0.2787
  670THF     C210139   5.362   3.053   2.384  0.1354  0.0749 -0.4410
  670THF     C310140   5.397   2.966   2.159 -0.2484 -0.7204  0.5957
  670THF     H410141   5.405   3.153   2.420 -0.3771  3.9200  0.5525
  670THF     H510142   5.338   2.994   2.477 -1.6145 -1.9912  0.9178
  670THF     H610143   5.477   2.972   2.078  1.6113 -1.3667  0.6116
  670THF     H710144   5.359   2.866   2.161 -1.3357 -0.9969  3.8952
  670THF     C810145   5.292   3.068   2.155  0.3448 -0.3558 -0.0398
  670THF     C910146   5.237   3.057   2.298 -0.1042 -0.6266 -0.5837
  670THF    H1010147   5.216   3.045   2.088 -0.9327 -1.0085  3.9244
  670THF    H1110148   5.326   3.171   2.129  0.2406 -0.4049  0.2189
  670THF    H1210149   5.171   3.143   2.328 -0.1825 -1.0261  0.2454
  670THF    H1310150   5.178   2.969   2.318  1.3487  1.2109  2.7489
  671THF     O110151   4.150   4.525   4.923 -0.0010 -0.0809 -0.3327
  671THF     C210152   4.277   4.535   4.855 -0.3097 -0.2701  0.1260
  671THF     C310153   4.051   4.580   4.841 -0.0487  0.1243 -0.1885
  671THF     H410154   4.335   4.443   4.867 -3.1965 -0.3009 -0.6580
  671THF     H510155   4.344   4.613   4.881  5.4436 -1.8226 -1.5857
  671THF     H610156   3.959   4.541   4.870 -1.3661 -1.7720 -4.0189
  671THF     H710157   4.047   4.692   4.846 -0.8857  0.7660  1.1000
  671THF     C810158   4.081   4.527   4.703  0.1307 -0.8646  0.5705
  671THF     C910159   4.235   4.541   4.704 -0.1863 -0.1184 -0.4014
  671THF    H1010160   4.023   4.571   4.622 -0.0044  2.1457  0.2950
  671THF    H1110161   4.052   4.423   4.717 -1.1067  1.5912  1.9568
  671THF    H1210162   4.281   4.455   4.656 -1.4704 -1.3142  0.1056
  671THF    H1310163   4.264   4.641   4.663 -0.5842 -0.4099 -0.8916
  672THF     O110164   0.215   4.229   3.637 -0.0306 -0.6307  0.5026
  672THF     C210165   0.198   4.361   3.585 -0.5556 -0.3563  0.1620
  672THF     C310166   0.342   4.227   3.695  0.1623  0.1128 -0.2778
  672THF     H410167   0.174   4.442   3.653  0.1842 -2.3067 -1.2902
  672THF     H510168   0.123   4.363   3.502  0.0025  0.8660  0.5167
  672THF     H610169   0.336   4.239   3.807  2.8882 -4.2440  1.6425
  672THF     H710170   0.388   4.126   3.668 -2.1874 -2.9133  0.7016
  672THF     C810171   0.425   4.337   3.631  0.0034  0.1929 -0.0843
  672THF     C910172   0.336   4.391   3.524  0.2442  0.0518 -0.3541
  672THF    H1010173   0.511   4.308   3.579  0.3869  0.3653 -1.6755
  672THF    H1110174   0.448   4.407   3.711  1.2622  1.9984  2.7964
  672THF    H1210175   0.341   4.502   3.500 -3.1194  0.3573 -4.0797
  672THF    H1310176   0.347   4.338   3.431 -1.6688 -2.0959  1.1081
  673THF     O110177   3.685   4.645   3.402 -0.4544 -0.1001  0.3499
  673THF     C210178   3.713   4.604   3.265  0.3843  0.3986  0.1246
  673THF     C310179   3.558   4.607   3.438 -0.0998  0.3313 -0.2684
  673THF     H410180   3.821   4.586   3.253  2.5671  0.0663 -1.5971
  673THF     H510181   3.666   4.688   3.204  1.2073  0.9685  0.8467
  673THF     H610182   3.555   4.602   3.548  0.9978 -2.1585  0.3855
  673THF     H710183   3.495   4.676   3.392  2.3833 -1.4548 -1.9075
  673THF     C810184   3.545   4.470   3.376  0.1427  0.1760  0.3889
  673THF     C910185   3.629   4.477   3.242  0.1008 -0.5566 -0.2934
  673THF    H1010186   3.443   4.449   3.351  1.6751 -1.4582  3.1118
  673THF    H1110187   3.577   4.396   3.447 -0.9779 -0.1967  2.2859
  673THF    H1210188   3.690   4.386   3.233 -0.6256 -0.2524  1.7325
  673THF    H1310189   3.555   4.481   3.167 -1.9286  1.1281  0.1631
  674THF     O110190   1.872   0.408   3.323 -0.4249 -0.0336 -0.0690
  674THF     C210191   1.793   0.453   3.435 -0.3151  0.0411 -0.1835
  674THF     C310192   1.980   0.335   3.376 -0.0949  0.6009  0.4108
  674THF     H410193   1.693   0.488   3.398  0.1834  0.0484  0.9865
  674THF     H510194   1.830   0.527   3.499  1.6213 -0.4398  2.6747
  674THF     H610195   2.014   0.261   3.305 -0.9647  1.0694  2.2517
  674THF     H710196   2.071   0.401   3.380 -1.1127  2.8759 -0.8875
  674THF     C810197   1.940   0.279   3.518 -0.2546 -0.5736 -0.2016
  674THF     C910198   1.794   0.328   3.527 -1.1014  0.2839 -0.6967
  674THF    H1010199   2.002   0.328   3.588  1.2348 -0.5794  1.1209
  674THF    H1110200   1.967   0.180   3.534  1.2306 -2.1358 -1.7527
  674THF    H1210201   1.728   0.265   3.476 -2.3286 -4.2069 -1.9610
  674THF    H1310202   1.771   0.343   3.637  1.3566 -0.2565 -1.1542
  675THF     O110203   0.659   3.599   1.662 -0.3287 -0.2872  0.3180
  675THF     C210204   0.687   3.473   1.599 -0.4814  0.1840  0.0289
  675THF     C310205   0.709   3.587   1.796 -0.2312  0.5391  0.3233
  675THF     H410206   0.674   3.481   1.492 -1.2823 -0.5174  1.2877
  675THF     H510207   0.632   3.389   1.638 -1.1382 -0.3119 -1.1085
  675THF     H610208   0.696   3.679   1.850 -1.4217  1.5122 -0.9618
  675THF     H710209   0.649   3.513   1.846 -0.2295 -0.5573  0.6009
  675THF     C810210   0.853   3.537   1.766  0.5994 -0.0803 -0.4701
  675THF     C910211   0.836   3.461   1.637 -0.1018 -0.5313  0.1158
  675THF    H1010212   0.882   3.465   1.850  0.6418 -0.1657  2.3881
  675THF    H1110213   0.920   3.618   1.748 -2.1301  1.9616  1.4654
  675THF    H1210214   0.897   3.510   1.555  2.0957 -0.5051 -1.9226
  675THF    H1310215   0.873   3.363   1.657 -1.9405 -1.3797 -0.6203
  676THF     O110216   4.160   3.160   3.447  0.1007 -0.3947  0.0611
  676THF     C210217   4.025   3.196   3.442 -0.0994  0.1187  0.0466
  676THF     C310218   4.195   3.129   3.585 -1.3347  0.2645 -0.0701
  676THF     H410219   3.985   3.177   3.341  0.6441 -1.6603 -0.9128
  676THF     H510220   4.007   3.297   3.483 -1.5660  0.2390 -0.0821
  676THF     H610221   4.258   3.040   3.598 -0.4485 -0.3882  4.3388
  676THF     H710222   4.238   3.211   3.648  2.0469 -0.2340  1.9857
  676THF     C810223   4.061   3.120   3.659  1.0631 -0.1183  0.3875
  676THF     C910224   3.961   3.102   3.540 -0.4566 -0.5969 -0.0162
  676THF    H1010225   4.037   3.214   3.697  0.6198 -1.3022  0.5792
  676THF    H1110226   4.049   3.039   3.725  0.0311  0.0533  0.6323
  676THF    H1210227   3.969   3.002   3.493 -0.4653  1.0631  1.2008
  676THF    H1310228   3.857   3.110   3.572 -2.3267  1.0255  0.5010
  677THF     O110229   3.324   4.288   4.737  0.1731  0.6906  0.3648
  677THF     C210230   3.265   4.165   4.778  0.2929  0.1016  0.2073
  677THF     C310231   3.289   4.388   4.824  0.1730 -0.4372 -0.4685
  677THF     H410232   3.320   4.076   4.739 -1.5093 -1.8691 -3.1381
  677THF     H510233   3.162   4.175   4.744 -2.5946  0.2254 -1.5584
  677THF     H610234   3.370   4.460   4.827 -1.3663  2.9588  1.6953
  677THF     H710235   3.205   4.442   4.790 -1.8669  1.0858 -2.1285
  677THF     C810236   3.267   4.320   4.962 -0.3499 -0.0987  0.1506
  677THF     C910237   3.276   4.171   4.928  0.6999 -0.2894  0.1138
  677THF    H1010238   3.173   4.348   5.005  0.7033 -2.0791  0.3986
  677THF    H1110239   3.348   4.333   5.032  0.1316  0.2358 -3.6880
  677THF    H1210240   3.378   4.147   4.943 -0.6060  1.6136 -1.0086
  677THF    H1310241   3.220   4.094   4.971  0.2839  0.0406  0.6799
  678THF     O110242   0.581   3.185   3.979  0.4276 -0.0179 -0.2222
  678THF     C210243   0.584   3.137   3.848 -0.1652 -0.1483 -0.5911
  678THF     C310244   0.510   3.094   4.058 -0.3343  0.1618 -0.1667
  678THF     H410245   0.661   3.052   3.844  0.1064 -1.9738  1.6824
  678THF     H510246   0.598   3.218   3.787 -0.7615 -0.6041  1.1615
  678THF     H610247   0.583   3.013   4.082  4.3633 -1.9198  2.2527
  678THF     H710248   0.482   3.134   4.157 -0.7869 -2.5466 -1.0471
  678THF     C810249   0.397   3.038   3.970 -0.4711  0.0615  0.3576
  678THF     C910250   0.445   3.075   3.823  0.3389  0.1987  0.8338
  678THF    H1010251   0.297   3.078   3.989 -0.3635  0.0624 -0.1138
  678THF    H1110252   0.390   2.932   3.977  2.6437  2.0811 -0.1555
  678THF    H1210253   0.441   2.990   3.747  0.8024 -1.9498  0.4966
  678THF    H1310254   0.395   3.157   3.771  2.2707 -0.6206 -0.3577
  679THF     O110255   5.044   4.255   3.930  0.3615 -0.2793 -0.4965
  679THF     C210256   5.063   4.145   3.846 -0.2023  0.6343  0.1643
  679THF     C310257   4.905   4.270   3.952 -0.3730  0.2644 -0.3802
  679THF     H410258   5.058   4.053   3.918  0.3369 -0.8339  3.8939
  679THF     H510259   5.158   4.146   3.793 -2.4912 -2.6338 -1.2291
  679THF     H610260   4.870   4.207   4.036  2.1687 -0.9995  1.5037
  679THF     H710261   4.867   4.363   3.991  2.9213 -0.1335 -0.6452
  679THF     C810262   4.833   4.232   3.828  0.3240 -0.6685 -0.1612
  679THF     C910263   4.947   4.158   3.750 -0.2315 -0.7418 -0.3647
  679THF    H1010264   4.797   4.320   3.775  3.5125  0.1457  1.1194
  679THF    H1110265   4.751   4.165   3.852  1.1218 -0.9832  0.9924
  679THF    H1210266   4.909   4.069   3.697 -1.2872  0.0827 -1.8664
  679THF    H1310267   4.973   4.235   3.678  0.2757 -1.0995  0.3206
  680THF     O110268   2.997   1.699   1.280 -0.3403 -0.0135 -0.2140
  680THF     C210269   3.116   1.621   1.305  0.3471  0.1105  0.3554
  680THF     C310270   2.951   1.668   1.146  0.6724  0.2320 -0.3644
  680THF     H410271   3.072   1.522   1.312 -2.5310 -0.3808 -2.6123
  680THF     H510272   3.163   1.657   1.401  1.0930  1.7085 -0.5454
  680THF     H610273   2.886   1.582   1.133  1.1921  0.7136  0.3335
  680THF     H710274   2.900   1.754   1.106 -2.1357 -3.3902  1.3453
  680THF     C810275   3.083   1.640   1.070  0.2347  0.3814 -0.9330
  680THF     C910276   3.193   1.634   1.177 -0.5113 -0.4030 -0.2618
  680THF    H1010277   3.114   1.708   0.997 -2.0752  2.5488  0.2123
  680THF    H1110278   3.077   1.537   1.035 -0.2524 -2.0535  0.1900
  680THF    H1210279   3.266   1.554   1.178  2.0859 -2.0374  0.5116
  680THF    H1310280   3.245   1.729   1.178 -2.3620 -1.3846 -1.8650
  681THF     O110281   3.678   0.484   2.800  0.0432 -0.3153 -0.0137
  681THF     C210282   3.776   0.444   2.708 -0.6448  0.4317 -0.6847
  681THF     C310283   3.629   0.608   2.748 -0.1470  0.6310 -0.0390
  681THF     H410284   3.773   0.329   2.725 -0.1383 -1.1313 -2.0624
  681THF     H510285   3.873   0.480   2.730 -0.5984  1.1998  0.8702
  681THF     H610286   3.534   0.647   2.785 -1.1906 -0.1079 -1.5103
  681THF     H710287   3.701   0.682   2.775  1.0290 -0.5274  1.6761
  681THF     C810288   3.631   0.588   2.598  0.3383 -0.6867 -0.3499
  681THF     C910289   3.732   0.479   2.567  0.1872 -0.0339  1.1522
  681THF    H1010290   3.649   0.693   2.557 -1.1605  0.9145  2.3033
  681THF    H1110291   3.526   0.568   2.560  0.9722 -2.6473 -3.1783
  681THF    H1210292   3.675   0.389   2.547 -0.5697  0.8363  1.4461
  681THF    H1310293   3.806   0.493   2.490 -1.7698 -0.6196 -0.4898
  682THF     O110294   0.021   4.608   0.315  0.4914  0.0164 -0.4076
  682THF     C210295  -0.038   4.624   0.185  0.1960  0.2998  0.1135
  682THF     C310296   0.151   4.566   0.284  0.4655  0.8992  0.5149
  682THF     H410297  -0.005   4.719   0.150  1.2423  0.6292  1.1432
  682THF     H510298  -0.144   4.646   0.194 -0.8955 -0.8075 -1.7244
  682THF     H610299   0.212   4.655   0.265 -0.4680 -0.0413  2.3635
  682THF     H710300   0.196   4.511   0.370  0.1712  0.2402  0.3215
  682THF     C810301   0.134   4.463   0.165 -0.0866 -0.1640  0.3444
  682THF     C910302   0.001   4.506   0.104 -0.8971  0.9793 -0.4668
  682THF    H1010303   0.139   4.356   0.197  1.2248 -2.1919 -3.0718
  682THF    H1110304   0.212   4.481   0.095 -2.0284 -1.3487  1.1751
  682THF    H1210305   0.015   4.532   0.006  0.1022  0.9560  3.4480
  682THF    H1310306  -0.068   4.429   0.123  1.0797 -0.8179 -0.4684
  683THF     O110307   3.232   3.501   3.758  0.6272  0.4093  0.1172
  683THF     C210308   3.345   3.506   3.674 -0.2216 -0.1048  0.0363
  683THF     C310309   3.118   3.516   3.680 -0.8899 -0.8608 -0.1275
  683THF     H410310   3.353   3.409   3.633 -3.7899 -1.1927  0.4371
  683THF     H510311   3.430   3.535   3.736 -0.5615 -0.5836 -0.9105
  683THF     H610312   3.097   3.413   3.645 -0.4108 -1.5306  1.6908
  683THF     H710313   3.037   3.546   3.738  2.2209  0.3916 -1.7500
  683THF     C810314   3.157   3.601   3.554 -0.9841 -0.4599  0.9887
  683THF     C910315   3.300   3.622   3.576  0.2945  1.2693 -0.3416
  683THF    H1010316   3.107   3.703   3.546 -1.8915  2.3817  0.4582
  683THF    H1110317   3.147   3.535   3.468 -1.5212  1.4443 -0.6922
  683THF    H1210318   3.355   3.637   3.481 -0.0370  2.3068 -0.8351
  683THF    H1310319   3.307   3.717   3.629  2.2461  0.8784 -0.9549
  684THF     O110320   2.319   2.895   4.886 -0.1899  0.2260 -1.0989
  684THF     C210321   2.436   2.934   4.820  0.3324 -0.1937  0.2816
  684THF     C310322   2.239   2.824   4.797 -0.6262 -0.1943 -0.6012
  684THF     H410323   2.498   2.842   4.804 -0.6749 -1.1733  1.7738
  684THF     H510324   2.499   3.012   4.871  0.3612  2.0637 -0.7718
  684THF     H610325   2.287   2.733   4.758 -0.5888 -2.9825 -1.8748
  684THF     H710326   2.149   2.802   4.849  2.9917 -0.0348 -0.8912
  684THF     C810327   2.239   2.919   4.678  0.6802 -0.2202  0.3520
  684THF     C910328   2.384   2.978   4.680  0.4645 -0.1592 -0.3882
  684THF    H1010329   2.172   3.001   4.684  3.5034  0.0403 -0.7242
  684THF    H1110330   2.214   2.871   4.589  0.5781 -1.6633 -1.2470
  684THF    H1210331   2.437   2.913   4.606 -2.1192  1.2810  0.0054
  684THF    H1310332   2.378   3.078   4.653 -0.0813 -2.5951  1.0497
  685THF     O110333   0.615   3.212   0.359  0.0107 -0.2647  0.5559
  685THF     C210334   0.572   3.231   0.490  0.3294  0.0265 -0.2780
  685THF     C310335   0.630   3.339   0.295  0.1379 -0.9882  0.0072
  685THF     H410336   0.662   3.229   0.550 -1.1228  1.8750 -0.0439
  685THF     H510337   0.501   3.156   0.524 -2.0874  3.2206  1.8480
  685THF     H610338   0.718   3.384   0.328 -0.9003 -0.4088 -2.0673
  685THF     H710339   0.632   3.327   0.188  1.4702 -2.1134  0.3526
  685THF     C810340   0.514   3.421   0.349  0.7808  0.6509  0.0367
  685THF     C910341   0.504   3.366   0.490  0.3711  0.0428  0.0481
  685THF    H1010342   0.426   3.404   0.289 -5.1959  2.4239 -0.1843
  685THF    H1110343   0.530   3.529   0.354  2.7945  3.3415  1.6291
  685THF    H1210344   0.553   3.438   0.554  1.2193  0.8408  0.9583
  685THF    H1310345   0.400   3.355   0.524 -2.9108 -0.6214  0.3260
  686THF     O110346   2.562   0.471   1.805 -0.0681 -0.0397  0.7211
  686THF     C210347   2.548   0.582   1.718 -0.1621  0.4803  0.2911
  686THF     C310348   2.669   0.385   1.758  0.6610 -0.2763  0.3064
  686THF     H410349   2.590   0.679   1.755 -0.7258  2.2076 -0.9998
  686THF     H510350   2.442   0.592   1.691 -1.1314 -0.4667 -2.7986
  686THF     H610351   2.760   0.427   1.801  0.8044  0.0969  4.3711
  686THF     H710352   2.657   0.286   1.794  1.9064 -1.3791 -0.3514
  686THF     C810353   2.672   0.395   1.604  0.2272  0.3621 -0.0542
  686THF     C910354   2.617   0.535   1.586  0.2465  0.2502  0.0420
  686THF    H1010355   2.609   0.323   1.563 -0.2402 -1.0595  0.0147
  686THF    H1110356   2.771   0.390   1.563  0.6249 -2.0491  0.8139
  686THF    H1210357   2.685   0.610   1.541 -2.8501  0.1692  1.1159
  686THF    H1310358   2.551   0.540   1.501  1.1441 -0.1957  0.7886
  687THF     O110359   4.911   3.540   2.568  0.6994 -0.1889 -0.2604
  687THF     C210360   5.001   3.433   2.594  0.0688 -0.3775 -0.5740
  687THF     C310361   4.997   3.642   2.517 -0.1005 -0.2816  0.2122
  687THF     H410362   4.943   3.341   2.593  2.1916 -0.9034  0.1038
  687THF     H510363   5.047   3.442   2.696  0.6821 -0.0293 -0.3293
  687THF     H610364   4.957   3.682   2.426 -1.1527 -1.0979  0.1900
  687THF     H710365   5.011   3.725   2.592  0.7865 -0.1073  0.8071
  687THF     C810366   5.135   3.581   2.477  0.8027 -0.1531  0.4996
  687THF     C910367   5.100   3.434   2.481  0.8859  0.2130  0.3692
  687THF    H1010368   5.213   3.601   2.555 -1.9067  1.6294 -1.5374
  687THF    H1110369   5.175   3.611   2.380  2.3379  0.0999 -3.8918
  687THF    H1210370   5.058   3.392   2.390  1.2178 -0.7319 -0.9699
  687THF    H1310371   5.188   3.376   2.510  1.8397 -1.5049 -2.1953
  688THF     O110372   3.404   1.690   1.554 -0.3364 -0.2143  0.3008
  688THF     C210373   3.457   1.710   1.426  0.2620  0.3867 -0.3669
  688THF     C310374   3.461   1.789   1.631  1.0336 -0.3436  0.2675
  688THF     H410375   3.391   1.661   1.354  2.3718  0.1315 -1.1290
  688THF     H510376   3.549   1.658   1.420 -1.0711 -0.3887  2.3878
  688THF     H610377   3.411   1.784   1.730 -1.1530  0.3752  1.2288
  688THF     H710378   3.560   1.758   1.658  0.4477 -1.2977  3.6338
  688THF     C810379   3.447   1.910   1.551  0.5175  0.2109  0.1747
  688THF     C910380   3.462   1.866   1.407 -0.4131 -0.8575 -0.4917
  688THF    H1010381   3.520   1.971   1.598 -2.3229 -0.3980  2.7683
  688THF    H1110382   3.352   1.956   1.567 -1.3872 -2.2475 -3.7883
  688THF    H1210383   3.389   1.909   1.340 -1.1734 -1.4419  1.1653
  688THF    H1310384   3.562   1.884   1.370 -0.5003 -0.6711  1.6688
  689THF     O110385   4.090   3.679   3.620  0.1509  0.1555 -0.1090
  689THF     C210386   4.198   3.648   3.706 -0.1233  0.3828  0.5951
  689THF     C310387   4.087   3.606   3.500 -0.2637 -0.0256 -0.2028
  689THF     H410388   4.167   3.665   3.804 -0.8097  0.5368  1.2144
  689THF     H510389   4.285   3.706   3.687  0.3161 -0.1857  0.1910
  689THF     H610390   4.003   3.540   3.486  1.4871 -1.3445  1.7087
  689THF     H710391   4.113   3.672   3.417  4.4128 -0.6066  1.6329
  689THF     C810392   4.214   3.514   3.518 -0.5420 -0.0239  0.2313
  689THF     C910393   4.241   3.508   3.665 -0.0512 -0.2055  0.2799
  689THF    H1010394   4.285   3.567   3.454 -1.9025 -0.7760 -0.9554
  689THF    H1110395   4.195   3.412   3.492  1.5051 -0.2974 -2.3374
  689THF    H1210396   4.172   3.432   3.711 -0.1508 -1.0130  0.2008
  689THF    H1310397   4.347   3.485   3.679  1.2959  0.6584 -1.0499
  690THF     O110398   5.225   0.899   2.201 -0.2741  0.5509  0.1438
  690THF     C210399   5.126   0.936   2.303  0.3928 -0.1910 -0.3046
  690THF     C310400   5.324   0.817   2.260  0.9116  0.4219 -0.2317
  690THF     H410401   5.038   0.978   2.257 -0.5599 -3.1140  0.5296
  690THF     H510402   5.167   1.014   2.358 -2.7964 -1.0192  2.3950
  690THF     H610403   5.367   0.749   2.190  1.5916 -0.4947  0.5846
  690THF     H710404   5.404   0.882   2.298 -0.9564  0.5141  0.9980
  690THF     C810405   5.253   0.747   2.378 -0.4243 -0.1235  0.1858
  690THF     C910406   5.118   0.812   2.383  0.4714  0.1372  0.3297
  690THF    H1010407   5.304   0.774   2.470  1.7832 -0.6939 -1.3234
  690THF    H1110408   5.259   0.645   2.370  3.0714 -4.0985  1.5614
  690THF    H1210409   5.058   0.737   2.334  0.5889  0.2118 -0.9873
  690THF    H1310410   5.069   0.828   2.487 -0.3814 -0.9210 -0.2489
  691THF     O110411   3.030   1.974   3.380 -0.5145 -0.9428 -0.3702
  691THF     C210412   3.128   1.991   3.287  0.6905 -0.8462  0.1614
  691THF     C310413   2.922   2.053   3.336  0.0091 -0.2081  0.5001
  691THF     H410414   3.101   1.930   3.196 -0.9431 -1.3781 -0.6763
  691THF     H510415   3.217   1.942   3.321 -0.2448 -1.1735  3.8208
  691THF     H610416   2.866   1.994   3.265 -1.4760  0.0166  1.9789
  691THF     H710417   2.852   2.073   3.425  2.9973 -1.0539  3.0175
  691THF     C810418   2.984   2.175   3.277  0.0126 -0.6149  0.0465
  691THF     C910419   3.132   2.140   3.259 -0.7506 -0.1993  0.0310
  691THF    H1010420   2.982   2.256   3.346 -1.5566 -1.5539  0.2536
  691THF    H1110421   2.940   2.208   3.186  0.3981 -1.7045  1.3703
  691THF    H1210422   3.160   2.161   3.155 -0.5260  0.8361  0.3090
  691THF    H1310423   3.189   2.211   3.328 -1.5145  1.4588  1.8328
  692THF     O110424   2.959   1.362   4.850  0.3677  0.2602  0.1481
  692THF     C210425   2.963   1.386   4.992  0.3544 -0.0616 -0.1098
  692THF     C310426   2.821   1.359   4.803  0.0563 -0.0066 -0.1189
  692THF     H410427   2.966   1.495   5.007 -1.1768 -2.9900 -0.1526
  692THF     H510428   3.053   1.352   5.045  0.1678 -1.4589  0.0849
  692THF     H610429   2.801   1.448   4.737  0.2037 -1.5875  0.8227
  692THF     H710430   2.794   1.262   4.747  1.2824 -0.5200  1.7090
  692THF     C810431   2.733   1.355   4.928 -0.7253  0.3899 -0.6747
  692THF     C910432   2.838   1.319   5.039  0.1344 -0.3931 -0.5207
  692THF    H1010433   2.657   1.282   4.915  0.1521  1.3326  2.1318
  692THF    H1110434   2.693   1.463   4.943 -0.8266 -0.9612 -1.0073
  692THF    H1210435   2.803   1.347   5.139 -0.7055  2.3965  1.1325
  692THF    H1310436   2.855   1.210   5.039 -1.3073  1.0620  1.0834
  693THF     O110437   4.516   3.652   2.158 -0.5060  0.4281 -0.4645
  693THF     C210438   4.597   3.748   2.222  0.4024  0.3085 -0.4091
  693THF     C310439   4.602   3.589   2.064 -0.1992  0.6608 -0.2615
  693THF     H410440   4.551   3.769   2.315  1.0305  1.1607 -1.3637
  693THF     H510441   4.603   3.841   2.159 -1.3209 -0.7519 -0.8992
  693THF     H610442   4.556   3.502   2.022  0.7387 -0.6222 -1.4325
  693THF     H710443   4.623   3.649   1.975 -1.1655 -1.2309 -1.8591
  693THF     C810444   4.736   3.570   2.134 -0.6893 -0.2119  0.1005
  693THF     C910445   4.731   3.679   2.240  0.1790 -0.2226  0.1510
  693THF    H1010446   4.821   3.579   2.078  0.9941  3.7418  1.6092
  693THF    H1110447   4.737   3.466   2.169  0.9191 -0.3283  5.7717
  693THF    H1210448   4.742   3.637   2.341  1.0889 -1.6685 -0.2326
  693THF    H1310449   4.804   3.757   2.225  1.5122 -1.0004 -0.9028
  694THF     O110450   4.575   0.932   2.103 -0.1444 -0.1659  0.6459
  694THF     C210451   4.492   1.034   2.045  0.2877  0.8863 -0.0480
  694THF     C310452   4.562   0.812   2.034  0.0701 -0.1100 -0.3879
  694THF     H410453   4.533   1.051   1.950 -0.7225 -0.5236  0.8646
  694THF     H510454   4.486   1.123   2.101 -3.1210  0.7233  0.4322
  694THF     H610455   4.632   0.810   1.945  0.0773 -0.9963 -1.8657
  694THF     H710456   4.591   0.725   2.091  2.4912  0.7741 -0.6257
  694THF     C810457   4.413   0.818   1.998  0.1429 -0.5756  0.8177
  694THF     C910458   4.360   0.965   2.026 -0.9994 -0.1235  0.1034
  694THF    H1010459   4.371   0.749   2.073  0.8948 -0.6164  3.3146
  694THF    H1110460   4.378   0.785   1.906 -1.1015  3.9811  0.2616
  694THF    H1210461   4.297   1.012   1.952  2.6652  1.1889 -2.7421
  694THF    H1310462   4.310   0.956   2.125 -1.6314  0.9459 -1.1904
  695THF     O110463   0.565   4.619   3.410 -0.0569 -0.0909 -0.4397
  695THF     C210464   0.580   4.660   3.543  0.0984  0.8829  0.2822
  695THF     C310465   0.571   4.733   3.322  0.0642 -0.7554 -0.6355
  695THF     H410466   0.626   4.568   3.597 -0.7587 -1.0760  1.5139
  695THF     H510467   0.482   4.698   3.584 -1.1921 -1.9589 -2.1702
  695THF     H610468   0.597   4.710   3.218  2.6569  1.4286  0.3942
  695THF     H710469   0.477   4.792   3.320 -2.5112  1.0733 -0.8455
  695THF     C810470   0.681   4.803   3.395  0.5084  0.7621  0.2545
  695THF     C910471   0.679   4.765   3.543  0.1477  0.5076  0.5664
  695THF    H1010472   0.669   4.915   3.399  1.3846  3.7146  0.9384
  695THF    H1110473   0.776   4.790   3.349  1.2033  1.1712 -0.2936
  695THF    H1210474   0.773   4.727   3.560 -0.2763 -1.1624  0.3665
  695THF    H1310475   0.658   4.842   3.616 -1.1696 -1.8632  1.4554
  696THF     O110476   4.131   2.420   3.921  0.1987  0.0082 -0.1776
  696THF     C210477   4.072   2.526   3.990  1.0063  0.0745  0.2109
  696THF     C310478   4.176   2.480   3.801  0.1785 -0.5671 -0.1615
  696THF     H410479   4.068   2.505   4.098  0.3842 -1.5496 -0.8374
  696THF     H510480   3.972   2.546   3.964 -1.7873  1.8715 -2.1765
  696THF     H610481   4.267   2.433   3.775 -5.4601 -0.5872  0.1163
  696THF     H710482   4.115   2.473   3.716  2.5408  0.3873 -1.1781
  696THF     C810483   4.202   2.631   3.833  0.0913 -0.4539  0.7104
  696THF     C910484   4.148   2.653   3.973  0.4022 -0.4135  0.5199
  696THF    H1010485   4.142   2.686   3.763  1.0364 -1.4039  1.0368
  696THF    H1110486   4.301   2.658   3.814  0.0433 -1.4074 -0.8605
  696THF    H1210487   4.232   2.663   4.031  0.4421  0.2775  0.9895
  696THF    H1310488   4.086   2.736   3.988  1.3118  2.0686 -1.6857
  697THF     O110489   0.439   1.128   1.075  0.4993  0.3415 -0.3699
  697THF     C210490   0.359   1.034   1.003  0.2177  1.2704  0.3702
  697THF     C310491   0.404   1.251   1.033  0.5121 -0.6865 -0.5019
  697THF     H410492   0.326   0.952   1.059 -0.3297 -2.0091 -0.7205
  697THF     H510493   0.416   1.009   0.910 -1.6269 -1.8170 -1.2778
  697THF     H610494   0.394   1.315   1.118  1.0017  3.5586 -2.5307
  697THF     H710495   0.485   1.301   0.980  4.1620  0.7145  2.5648
  697THF     C810496   0.277   1.246   0.948  0.3745  0.1547 -0.3037
  697THF     C910497   0.229   1.106   0.977 -0.7031  0.0108  0.3727
  697THF    H1010498   0.300   1.268   0.839 -2.1471  1.6914 -1.2635
  697THF    H1110499   0.207   1.325   0.983  0.0671 -0.5347 -1.6508
  697THF    H1210500   0.162   1.120   1.066  1.5189  4.0808  1.5206
  697THF    H1310501   0.172   1.067   0.893  1.1938 -0.3482  0.4046
  698THF     O110502   4.074   4.343   3.249 -0.1941  0.2352 -0.2277
  698THF     C210503   4.033   4.341   3.117 -0.1563  0.4125 -0.4436
  698THF     C310504   4.210   4.329   3.261 -0.1467  0.0253  0.0181
  698THF     H410505   3.934   4.371   3.125  1.7842  1.6502  0.2521
  698THF     H510506   4.040   4.246   3.064  0.5931 -0.4259 -0.3120
  698THF     H610507   4.251   4.343   3.357 -1.3534 -0.9017 -1.9231
  698THF     H710508   4.233   4.231   3.235  0.0603 -0.7258 -0.2044
  698THF     C810509   4.259   4.416   3.153  0.3439 -0.2925 -0.0530
  698THF     C910510   4.131   4.447   3.075 -0.3252 -0.1543 -0.1978
  698THF    H1010511   4.332   4.367   3.086  1.1480  0.0983 -0.7280
  698THF    H1110512   4.298   4.508   3.187 -2.1404 -0.3767 -1.5614
  698THF    H1210513   4.090   4.541   3.108 -1.1271 -1.0046 -0.8352
  698THF    H1310514   4.136   4.432   2.968  1.4968 -1.4855  2.3657
  699THF     O110515   2.384   5.489   2.891 -0.5994  0.1253 -0.1831
  699THF     C210516   2.265   5.424   2.915  0.2072 -0.2499  0.2130
  699THF     C310517   2.451   5.431   2.778 -0.6806 -0.2347  0.7057
  699THF     H410518   2.201   5.506   2.948 -1.7187 -0.9440  0.5955
  699THF     H510519   2.286   5.367   3.003  0.2561 -1.4593 -1.1364
  699THF     H610520   2.519   5.491   2.724  0.7826  0.5185 -0.8881
  699THF     H710521   2.499   5.335   2.816  1.8660 -2.3245  2.3351
  699THF     C810522   2.325   5.395   2.687  0.6637  0.0924 -0.0137
  699THF     C910523   2.223   5.345   2.789  0.3432  0.1906 -0.5056
  699THF    H1010524   2.341   5.317   2.619 -2.1281 -1.9113 -0.0569
  699THF    H1110525   2.281   5.477   2.630 -0.5599 -0.9323 -1.4961
  699THF    H1210526   2.121   5.367   2.754 -0.7439 -0.6997  0.4846
  699THF    H1310527   2.235   5.241   2.824  2.7950 -2.8130 -0.3442
  700THF     O110528   3.218   0.128   1.598  0.4151 -1.0068  0.4388
  700THF     C210529   3.321   0.054   1.547  0.4727 -0.2754  0.0459
  700THF     C310530   3.203   0.247   1.520  0.1504  0.3661 -0.2577
  700THF     H410531   3.315  -0.054   1.572  1.9981  1.5234  2.3254
  700THF     H510532   3.414   0.101   1.588  2.8121 -0.5560  1.6062
  700THF     H610533   3.109   0.294   1.520  0.9914  0.0580 -0.0916
  700THF     H710534   3.272   0.324   1.563 -1.0230 -0.2926  2.8825
  700THF     C810535   3.246   0.205   1.377  1.0175  0.5164  0.3477
  700THF     C910536   3.316   0.072   1.398 -0.7263 -0.0394  0.8537
  700THF    H1010537   3.294   0.282   1.324  1.2286  0.5791  1.7010
  700THF    H1110538   3.157   0.181   1.328 -2.6965  3.2108 -1.9325
  700THF    H1210539   3.257  -0.014   1.356 -0.6096 -1.1094  0.8524
  700THF    H1310540   3.412   0.069   1.344  0.2064 -0.3029 -0.8551
  701THF     O110541   5.010   3.870   0.836  0.5203  0.6790 -0.3513
  701THF     C210542   5.087   3.950   0.920 -0.5787 -0.1180  0.1092
  701THF     C310543   5.011   3.926   0.706  0.5997 -0.3747 -0.5709
  701THF     H410544   5.111   3.893   1.019 -0.6558 -0.5922 -0.1757
  701THF     H510545   5.040   4.040   0.944  0.8658 -3.8363  0.9217
  701THF     H610546   4.986   3.865   0.620 -0.9131 -1.8703  4.6707
  701THF     H710547   4.938   4.008   0.694 -3.0580 -2.2226  2.2838
  701THF     C810548   5.159   3.966   0.682 -0.2814  0.1997 -0.5961
  701THF     C910549   5.213   3.962   0.825  0.9088 -0.7013  0.5493
  701THF    H1010550   5.184   4.063   0.644 -0.2782  3.7198 -0.0010
  701THF    H1110551   5.216   3.917   0.603  0.0465 -3.3106 -2.8763
  701THF    H1210552   5.260   3.864   0.827 -0.8402 -1.2956  0.0149
  701THF    H1310553   5.279   4.050   0.850 -0.1944  0.0667  0.3214
  702THF     O110554   1.354   2.996   4.964  0.4531  0.0156  0.2038
  702THF     C210555   1.432   3.047   5.075  0.5385 -0.1774  0.2623
  702THF     C310556   1.221   3.017   4.994 -0.4338 -0.0483  0.6684
  702THF     H410557   1.448   3.150   5.070  0.8572 -0.0382  0.6566
  702THF     H510558   1.534   2.999   5.074 -1.0694 -1.7504 -1.3812
  702THF     H610559   1.181   3.098   4.936  2.2541 -1.7420 -2.6484
  702THF     H710560   1.165   2.928   4.961  0.1876 -1.8207  0.6240
  702THF     C810561   1.205   3.040   5.145 -0.2420 -0.0159  0.2730
  702THF     C910562   1.345   3.021   5.195 -0.6394 -0.1329 -0.4468
  702THF    H1010563   1.140   2.957   5.181 -0.9930 -1.3828 -4.1410
  702THF    H1110564   1.171   3.140   5.156  2.2922  0.3694 -0.1772
  702THF    H1210565   1.358   3.101   5.270 -0.9499 -0.3492 -1.7456
  702THF    H1310566   1.351   2.915   5.232 -1.0000 -1.2205 -2.0272
  703THF     O110567   3.289   0.596   1.891 -0.4989 -0.3288 -0.2859
  703THF     C210568   3.192   0.514   1.829  0.1166  0.1249  0.1518
  703THF     C310569   3.284   0.724   1.840 -0.1370 -0.0664  0.4835
  703THF     H410570   3.169   0.422   1.889  0.5723 -3.5641 -2.3820
  703THF     H510571   3.226   0.484   1.722  1.6446 -2.2850  0.3797
  703THF     H610572   3.314   0.798   1.910 -2.1240 -0.7292  0.6260
  703THF     H710573   3.343   0.723   1.751 -0.3220  0.2834  2.4700
  703THF     C810574   3.142   0.738   1.813  0.3776 -0.3727 -0.1267
  703THF     C910575   3.078   0.606   1.831 -0.3795  0.2121 -0.3806
  703THF    H1010576   3.134   0.779   1.709  1.6924  0.0214 -2.0956
  703THF    H1110577   3.113   0.818   1.879  0.4247  0.6254 -0.5391
  703THF    H1210578   3.029   0.604   1.925  2.5275 -1.3058 -0.0100
  703THF    H1310579   2.996   0.589   1.763  0.1151 -0.3021  2.5438
  704THF     O110580   3.788   1.171   1.149  0.2608  0.4703 -0.4995
  704THF     C210581   3.821   1.254   1.042  0.1219 -0.0708 -1.1783
  704THF     C310582   3.776   1.043   1.086  0.6564 -0.0803  0.1940
  704THF     H410583   3.859   1.356   1.067  1.4974  0.4313  0.8424
  704THF     H510584   3.726   1.266   0.984 -2.4416 -3.3738  0.3259
  704THF     H610585   3.782   0.970   1.165 -0.0136  1.5022  0.5840
  704THF     H710586   3.683   1.040   1.033 -2.3659  0.9419  2.2351
  704THF     C810587   3.892   1.035   0.995 -0.5602 -0.4179 -0.0491
  704THF     C910588   3.928   1.177   0.960  0.5061  0.5988  0.7805
  704THF    H1010589   3.876   0.964   0.915 -3.0603 -1.4622  0.7501
  704THF    H1110590   3.979   0.999   1.052 -0.7959  0.3865  1.2814
  704THF    H1210591   4.031   1.204   0.979 -0.2950 -0.9778  0.1808
  704THF    H1310592   3.908   1.199   0.855  0.0283  3.1193 -1.4973
  705THF     O110593   4.381   3.140   5.328 -0.2882  0.2331 -0.2699
  705THF     C210594   4.360   3.077   5.460  0.6104 -0.2736 -0.0771
  705THF     C310595   4.295   3.249   5.314 -0.1719  0.3774 -0.4632
  705THF     H410596   4.444   3.095   5.526 -2.0729 -1.5297 -0.1113
  705THF     H510597   4.345   2.965   5.461 -0.9531 -1.0541  0.7759
  705THF     H610598   4.356   3.326   5.279  1.9139 -2.6431 -4.2417
  705THF     H710599   4.221   3.225   5.241  1.3952  0.9511 -3.1144
  705THF     C810600   4.245   3.284   5.457  0.7933  0.1979  0.0286
  705THF     C910601   4.237   3.149   5.519  0.1324  0.3640 -0.3448
  705THF    H1010602   4.145   3.326   5.454 -0.4359 -0.6533  0.6243
  705THF    H1110603   4.316   3.349   5.506 -1.8061 -0.7521  0.1027
  705THF    H1210604   4.254   3.152   5.624  0.9062 -0.5551 -3.2768
  705THF    H1310605   4.138   3.095   5.487  0.7108 -4.3989  1.9496
  706THF     O110606   2.558   2.054   5.038  0.0363  0.4101  0.8234
  706THF     C210607   2.453   2.153   5.051 -0.5856  0.4794  0.0335
  706THF     C310608   2.513   1.945   4.961 -0.5317  0.5465  0.0321
  706THF     H410609   2.489   2.256   5.045  0.9461 -0.7459  1.0058
  706THF     H510610   2.427   2.139   5.157  0.2590  2.7170  0.9164
  706THF     H610611   2.572   1.941   4.869  2.0643  0.6244  0.3363
  706THF     H710612   2.531   1.863   5.030  0.7261 -1.0686  0.1090
  706THF     C810613   2.367   1.960   4.937 -0.5673 -0.5533  0.7365
  706THF     C910614   2.348   2.113   4.942  0.5834  0.0144 -0.5885
  706THF    H1010615   2.309   1.905   5.010 -1.8140 -1.0845  0.8264
  706THF    H1110616   2.332   1.910   4.844 -0.3204  0.0392 -2.1252
  706THF    H1210617   2.384   2.159   4.843 -2.1273 -0.1910 -0.4330
  706THF    H1310618   2.253   2.159   4.963  1.8647 -1.1560 -0.5256
  707THF     O110619   2.050   1.575   4.533 -1.3549 -0.0031 -0.5164
  707THF     C210620   2.116   1.557   4.407 -0.5703  0.4311  0.6793
  707THF     C310621   1.975   1.457   4.565  0.2194 -0.1559 -0.6150
  707THF     H410622   2.214   1.518   4.422 -2.0931 -0.1658  2.5252
  707THF     H510623   2.137   1.648   4.354  3.9006  1.0941  1.8747
  707THF     H610624   2.047   1.378   4.602  0.0188 -4.7286 -1.5180
  707THF     H710625   1.902   1.473   4.650  0.2829  1.5427 -2.2000
  707THF     C810626   1.913   1.417   4.434 -0.6512 -0.4188 -0.3372
  707THF     C910627   2.026   1.464   4.327 -0.9054 -0.0861 -0.1844
  707THF    H1010628   1.823   1.480   4.422 -0.2695  1.3832 -3.5841
  707THF    H1110629   1.889   1.314   4.424  3.2999  0.1673  1.0478
  707THF    H1210630   2.075   1.385   4.272 -2.6738  1.4189  0.5370
  707THF    H1310631   1.967   1.520   4.254  2.2879  1.0860 -2.1897
  708THF     O110632   2.233   2.048   4.384 -0.1415  0.5205 -0.3283
  708THF     C210633   2.325   2.080   4.285 -0.2368  0.1700  0.5384
  708THF     C310634   2.308   1.974   4.484 -0.7033  0.1066 -0.3665
  708THF     H410635   2.270   2.153   4.224 -2.8012  0.1834 -2.8239
  708THF     H510636   2.343   1.986   4.226  1.0932 -0.9341 -1.2214
  708THF     H610637   2.256   1.977   4.583  2.7010  1.1965 -1.8889
  708THF     H710638   2.313   1.864   4.449 -2.9579 -3.7372 -0.3682
  708THF     C810639   2.445   2.049   4.499 -0.2608 -0.4977 -0.1203
  708THF     C910640   2.448   2.130   4.372  0.5409  0.0182  0.6723
  708THF    H1010641   2.530   1.980   4.514  0.0762 -1.5631 -0.7082
  708THF    H1110642   2.437   2.118   4.584 -0.8975  0.1307  1.4990
  708THF    H1210643   2.448   2.243   4.383 -0.1168 -0.6335 -1.4095
  708THF    H1310644   2.532   2.099   4.312 -0.7568  1.4411  2.5814
  709THF     O110645   1.144   3.862   2.451  0.1246  0.4905 -0.7145
  709THF     C210646   1.006   3.833   2.461 -0.2205 -0.0663  0.2627
  709THF     C310647   1.190   3.760   2.370 -0.4507 -0.2293 -0.3948
  709THF     H410648   0.965   3.876   2.368  0.4055 -1.2889 -1.7790
  709THF     H510649   0.956   3.874   2.543  2.7929 -0.5055  2.2986
  709THF     H610650   1.173   3.777   2.264 -1.3625  0.9166  1.7181
  709THF     H710651   1.295   3.755   2.377 -1.3024 -0.3043 -0.9145
  709THF     C810652   1.119   3.638   2.416 -0.6187 -0.2040 -0.2721
  709THF     C910653   0.979   3.685   2.463  0.6181 -0.3838 -0.1180
  709THF    H1010654   1.173   3.599   2.497 -0.1091  0.9989  2.9536
  709THF    H1110655   1.106   3.567   2.337  0.2886  2.3384  0.0937
  709THF    H1210656   0.892   3.682   2.393 -0.4230  1.3322 -2.9354
  709THF    H1310657   0.963   3.644   2.564  0.5648 -0.2532  0.5487
  710THF     O110658   1.084   3.221   4.659 -0.1814  0.1049  0.2358
  710THF     C210659   0.945   3.211   4.631 -0.4351 -0.3314  0.2429
  710THF     C310660   1.146   3.133   4.572  0.5614  0.2991  0.3187
  710THF     H410661   0.897   3.309   4.651  1.8112  0.6180 -1.6649
  710THF     H510662   0.894   3.140   4.695  2.0506  4.3497 -0.3521
  710THF     H610663   1.241   3.154   4.527 -0.9965 -0.5469 -0.9190
  710THF     H710664   1.162   3.044   4.632 -2.1016  0.7427  0.9115
  710THF     C810665   1.053   3.102   4.454 -0.6347 -0.2837  0.3402
  710THF     C910666   0.937   3.194   4.478  0.7939 -0.2352 -0.3168
  710THF    H1010667   1.028   2.995   4.447  0.3697 -0.2908 -2.2683
  710THF    H1110668   1.101   3.119   4.358  0.8778 -0.4531  0.4266
  710THF    H1210669   0.937   3.288   4.425 -1.5715 -1.6143 -1.6534
  710THF    H1310670   0.850   3.145   4.452 -0.6140  0.8737 -1.9425
  711THF     O110671   1.764   2.581   1.354 -0.3184 -0.3584 -0.2956
  711THF     C210672   1.850   2.481   1.407 -0.5321  0.1351 -0.2969
  711THF     C310673   1.632   2.542   1.382  0.3135  0.0709 -0.1673
  711THF     H410674   1.879   2.505   1.505  0.7296 -3.3521  0.1796
  711THF     H510675   1.939   2.475   1.343 -0.2620  0.6405 -1.5405
  711THF     H610676   1.625   2.563   1.492 -0.1635  1.4498 -1.4450
  711THF     H710677   1.554   2.580   1.330 -0.0617  2.8283  0.6635
  711THF     C810678   1.644   2.391   1.356  0.4873 -0.2697 -0.3830
  711THF     C910679   1.773   2.347   1.414 -0.1111 -0.7900 -0.3676
  711THF    H1010680   1.649   2.373   1.248  4.6862  1.2428 -0.0836
  711THF    H1110681   1.563   2.335   1.385 -0.8402 -1.1520 -0.9871
  711THF    H1210682   1.763   2.311   1.518  0.9168 -1.7730 -0.1762
  711THF    H1310683   1.829   2.270   1.363  0.3293  1.2141  0.6923
  712THF     O110684   5.379   3.122   4.485  0.4535  0.5453 -0.9786
  712THF     C210685   5.297   3.013   4.521  0.8731  0.3303  0.0824
  712THF     C310686   5.336   3.188   4.366 -0.4461 -0.5588 -0.5368
  712THF     H410687   5.240   3.043   4.610 -0.7342  0.3431 -1.5692
  712THF     H510688   5.347   2.918   4.548 -0.2836 -1.7563  4.0221
  712THF     H610689   5.319   3.297   4.377  0.5301  0.7076 -1.2226
  712THF     H710690   5.411   3.178   4.294  1.2213  1.4726  2.8823
  712THF     C810691   5.191   3.137   4.345 -0.6283 -0.6497 -0.1775
  712THF     C910692   5.189   2.999   4.411  0.3666 -0.3356 -0.4481
  712THF    H1010693   5.155   3.128   4.241  0.0496  0.7832 -0.4218
  712THF    H1110694   5.124   3.212   4.387 -1.8074  1.0864 -2.0698
  712THF    H1210695   5.089   2.982   4.448 -2.3933  0.8795  0.7317
  712THF    H1310696   5.208   2.921   4.340 -1.1351  2.3633 -3.3566
  713THF     O110697   2.765   0.039   5.059 -0.4842 -0.0430  0.6667
  713THF     C210698   2.805  -0.043   4.950 -0.0624 -0.3190 -0.4874
  713THF     C310699   2.819   0.171   5.033 -0.2967 -0.0513  0.5106
  713THF     H410700   2.744  -0.018   4.864 -0.9220 -1.5231 -0.6946
  713THF     H510701   2.795  -0.148   4.967 -1.3880 -0.5762 -1.1458
  713THF     H610702   2.768   0.216   4.950  1.5373  0.8599  0.4283
  713THF     H710703   2.810   0.239   5.116 -1.4330  0.3665 -0.1697
  713THF     C810704   2.961   0.141   4.986  0.6223 -0.9246 -0.0283
  713THF     C910705   2.948   0.002   4.924  0.2375 -0.5443 -0.4199
  713THF    H1010706   3.028   0.137   5.064  0.2686 -0.1834 -0.5395
  713THF    H1110707   2.995   0.223   4.918 -0.5495  0.3946 -1.2380
  713THF    H1210708   2.985  -0.003   4.819 -0.5017 -1.5843  2.3629
  713THF    H1310709   3.012  -0.059   4.980 -0.1755 -0.0951 -0.0582
  714THF     O110710   4.481   0.879   1.126  0.2787 -0.1244  0.1520
  714THF     C210711   4.435   0.752   1.091  0.3327  0.1900 -0.2008
  714THF     C310712   4.590   0.898   1.044  0.1938 -0.0472  0.2255
  714THF     H410713   4.331   0.730   1.139 -1.0634 -2.4780 -1.3935
  714THF     H510714   4.495   0.672   1.131  3.5461 -1.1082  2.6392
  714THF     H610715   4.631   0.997   1.049 -1.3808 -0.2134 -0.2843
  714THF     H710716   4.683   0.841   1.079 -1.3276 -3.3172 -2.1973
  714THF     C810717   4.546   0.859   0.905 -0.3657 -0.6896  0.5323
  714THF     C910718   4.442   0.750   0.934 -0.4237 -0.3857  0.5180
  714THF    H1010719   4.627   0.830   0.836  1.1432  1.1463 -2.3033
  714THF    H1110720   4.488   0.939   0.862 -1.7997 -1.8904 -0.3399
  714THF    H1210721   4.343   0.775   0.887 -0.1043 -2.5927 -0.7908
  714THF    H1310722   4.467   0.656   0.889 -1.8848  0.5385 -1.7225
  715THF     O110723   4.136   2.688   2.662 -0.5590 -0.0820 -0.6485
  715THF     C210724   4.224   2.718   2.559  0.2969  0.2834  0.3413
  715THF     C310725   4.094   2.815   2.713 -0.5331  0.2985 -0.4594
  715THF     H410726   4.158   2.745   2.480  0.2886 -0.6179 -1.8205
  715THF     H510727   4.271   2.633   2.510  0.7725  0.1815 -0.7786
  715THF     H610728   4.016   2.858   2.648 -0.9583 -1.9372  0.5460
  715THF     H710729   4.048   2.816   2.809  0.1039 -1.4148  0.3136
  715THF     C810730   4.227   2.899   2.712  0.2296  0.2572 -0.0626
  715THF     C910731   4.318   2.819   2.614 -0.3374 -0.2879  0.3541
  715THF    H1010732   4.286   2.895   2.803 -2.0933 -0.1003  0.0240
  715THF    H1110733   4.216   3.002   2.679 -0.7823 -0.0037  1.4142
  715THF    H1210734   4.362   2.881   2.536 -1.9073  1.9993  3.0662
  715THF    H1310735   4.399   2.766   2.664  0.0882  0.6800 -0.6958
  716THF     O110736   3.041   5.212   4.783 -0.1098  0.5295  0.1241
  716THF     C210737   2.933   5.143   4.726  0.2226  0.0297  0.3694
  716THF     C310738   3.095   5.149   4.904 -0.2527  0.0675  0.0604
  716THF     H410739   2.963   5.074   4.642  1.6186 -3.2319  0.9959
  716THF     H510740   2.847   5.213   4.699  0.5279  0.1855 -0.1267
  716THF     H610741   3.205   5.136   4.897  0.8913  1.3477  1.5420
  716THF     H710742   3.074   5.203   4.994 -0.1823  0.3935 -1.5139
  716THF     C810743   3.032   5.014   4.902 -0.0964 -0.3645 -1.1636
  716THF     C910744   2.899   5.043   4.835 -0.0392  0.1672 -0.1945
  716THF    H1010745   3.024   4.980   5.004  0.7685 -0.8985  1.6856
  716THF    H1110746   3.099   4.942   4.841 -1.0693  0.1741 -1.6232
  716THF    H1210747   2.847   4.956   4.803  0.8574 -0.5328  2.0136
  716THF    H1310748   2.832   5.094   4.912 -3.3409 -0.1183  3.7647
  717THF     O110749   4.972   1.647   4.458 -0.2104 -0.1324 -0.0166
  717THF     C210750   5.028   1.624   4.589 -0.4478  0.8705 -0.0080
  717THF     C310751   5.090   1.684   4.391 -0.5858  0.0145 -0.5321
  717THF     H410752   5.100   1.548   4.594 -1.4415 -1.1514 -1.6544
  717THF     H510753   4.946   1.600   4.656 -0.6256  2.9295  0.6452
  717THF     H610754   5.143   1.589   4.371 -1.2570  1.1111 -0.2919
  717THF     H710755   5.071   1.733   4.300 -1.2013 -2.9221 -2.3245
  717THF     C810756   5.151   1.784   4.491 -0.8279 -0.8803  0.1992
  717THF     C910757   5.081   1.762   4.621  0.3384  1.0149 -0.0587
  717THF    H1010758   5.139   1.893   4.456  0.2054 -0.9247 -0.6498
  717THF    H1110759   5.258   1.772   4.492 -0.8138 -0.3548 -0.1477
  717THF    H1210760   5.150   1.759   4.710  1.4190 -1.5702  1.1538
  717THF    H1310761   5.000   1.831   4.653 -0.6379 -0.7238  0.6219
  718THF     O110762   0.930   3.109   1.614 -0.0884  0.3964  0.6462
  718THF     C210763   0.899   3.013   1.510  0.0962  0.0308  1.2518
  718THF     C310764   0.861   3.059   1.729 -0.2864  0.6145  0.1437
  718THF     H410765   0.954   3.020   1.408 -0.1514 -2.5996  0.2191
  718THF     H510766   0.796   3.033   1.477  0.0967  1.0571 -1.6839
  718THF     H610767   0.886   3.109   1.826 -1.6272 -2.1230 -1.6653
  718THF     H710768   0.754   3.071   1.727  0.4211 -1.8839  2.7924
  718THF     C810769   0.896   2.908   1.729 -0.0495 -0.6573 -0.5322
  718THF     C910770   0.917   2.877   1.584 -0.0886 -0.1836 -0.4879
  718THF    H1010771   0.824   2.851   1.780  0.3301  0.1293 -1.6904
  718THF    H1110772   0.991   2.905   1.790 -0.0318  0.6974  0.0485
  718THF    H1210773   1.012   2.828   1.575 -0.2801 -3.3924 -1.4894
  718THF    H1310774   0.848   2.801   1.554 -0.9831  0.4876 -0.0882
  719THF     O110775   0.748   2.445   2.992  0.2204  0.2249  0.2806
  719THF     C210776   0.677   2.336   2.932 -0.0767  0.0416  0.2726
  719THF     C310777   0.676   2.488   3.110  0.1877 -0.9645 -0.5252
  719THF     H410778   0.714   2.238   2.964 -0.6886  0.3299  1.4604
  719THF     H510779   0.692   2.335   2.827 -2.5046 -0.5061  1.5154
  719THF     H610780   0.722   2.471   3.206 -0.9416  0.5001  0.3677
  719THF     H710781   0.670   2.593   3.103  1.7737  1.1343  0.9775
  719THF     C810782   0.552   2.414   3.112  0.0405  0.3922  0.1464
  719THF     C910783   0.534   2.360   2.973 -0.0174  0.7675  0.4501
  719THF    H1010784   0.466   2.467   3.147  4.5560 -0.5865  1.2563
  719THF    H1110785   0.567   2.326   3.175 -1.2549 -0.4011  3.1290
  719THF    H1210786   0.478   2.263   2.970 -0.1182 -1.5744 -1.9851
  719THF    H1310787   0.487   2.429   2.899 -1.4732 -1.5255  0.1567
  720THF     O110788   0.037   0.883   2.921  0.7482 -0.4147 -0.0243
  720THF     C210789   0.164   0.923   2.883  0.5631 -0.4247 -0.0233
  720THF     C310790  -0.036   0.856   2.803  0.4909  0.1717  0.9543
  720THF     H410791   0.220   0.836   2.850 -0.0999  1.0702  0.6490
  720THF     H510792   0.209   0.970   2.969 -1.0423 -0.2048 -1.2533
  720THF     H610793  -0.019   0.756   2.766 -0.8471 -0.8783 -1.8235
  720THF     H710794  -0.140   0.865   2.827 -0.2629  0.5231 -2.9939
  720THF     C810795   0.016   0.958   2.705 -0.1565 -0.2118  0.0532
  720THF     C910796   0.130   1.029   2.777 -0.4572  0.5049 -0.6022
  720THF    H1010797  -0.065   1.036   2.682  0.0243 -0.6060  2.4261
  720THF    H1110798   0.038   0.927   2.603 -2.7106  1.7429  1.1325
  720THF    H1210799   0.202   1.046   2.694 -3.5235  3.0797  0.1880
  720THF    H1310800   0.101   1.121   2.822  1.6415  1.6716  0.4675
  721THF     O110801   4.915   5.460   3.831  0.3404 -0.0350  0.1911
  721THF     C210802   5.036   5.487   3.767 -0.2020  0.1407 -0.6432
  721THF     C310803   4.827   5.391   3.742 -0.2102  0.3873  0.6020
  721THF     H410804   5.116   5.447   3.829 -0.2387 -0.0126  0.8358
  721THF     H510805   5.065   5.594   3.744  2.3679 -0.4915 -0.1408
  721THF     H610806   4.752   5.328   3.776  1.0232  1.6670 -1.3844
  721THF     H710807   4.775   5.464   3.681 -0.8565  2.2207  0.4369
  721THF     C810808   4.930   5.318   3.654  0.6201  0.4174  0.5006
  721THF     C910809   5.034   5.430   3.634 -0.7325  0.0060  0.0477
  721THF    H1010810   4.882   5.291   3.565  0.9318 -0.9331  0.7909
  721THF    H1110811   4.973   5.230   3.718 -0.0377 -0.6910  1.2614
  721THF    H1210812   5.139   5.398   3.611 -1.1914 -0.3991 -0.8297
  721THF    H1310813   5.004   5.506   3.558  0.8061 -1.1091 -0.7825
  722THF     O110814   1.252   2.488   1.716 -0.1730  0.8033 -0.2152
  722THF     C210815   1.371   2.525   1.653 -0.4185  0.2332  1.1348
  722THF     C310816   1.163   2.595   1.717  0.4511 -0.7399 -0.7946
  722THF     H410817   1.384   2.493   1.557  1.2924 -2.7280  4.4490
  722THF     H510818   1.454   2.476   1.698 -3.1162  1.0498  1.8035
  722THF     H610819   1.107   2.606   1.627  1.3119  2.3606  3.0304
  722THF     H710820   1.092   2.596   1.798 -0.5778 -0.5394 -1.0368
  722THF     C810821   1.258   2.717   1.728  0.1412  0.1393  0.7181
  722THF     C910822   1.392   2.678   1.664 -0.7693 -0.0053  0.0050
  722THF    H1010823   1.275   2.742   1.837  2.8191 -2.8778  3.9753
  722THF    H1110824   1.217   2.801   1.684  0.0651  1.4104 -2.3259
  722THF    H1210825   1.410   2.717   1.564 -2.0609  1.5711  2.8009
  722THF    H1310826   1.486   2.699   1.724 -1.9424 -0.6883  2.3274
  723THF     O110827   3.316   3.144   5.252 -0.4213  0.4377 -0.0082
  723THF     C210828   3.375   3.213   5.145  0.4711 -0.4555 -0.8457
  723THF     C310829   3.175   3.125   5.217 -0.0346  0.6285 -0.3111
  723THF     H410830   3.478   3.200   5.144 -2.0354  2.5520  1.2528
  723THF     H510831   3.356   3.321   5.152  1.5278  0.3999 -1.7320
  723THF     H610832   3.123   3.045   5.274  0.8360 -1.1419 -1.4783
  723THF     H710833   3.123   3.221   5.245 -2.9491  2.7592  1.6326
  723THF     C810834   3.174   3.089   5.068 -0.1565  0.7807  0.1312
  723THF     C910835   3.301   3.158   5.021  0.5615 -0.6580 -0.5579
  723THF    H1010836   3.084   3.121   5.019  0.6395  0.2757 -1.0413
  723THF    H1110837   3.173   2.978   5.054  0.4239 -2.1447 -1.2890
  723THF    H1210838   3.361   3.079   4.980 -3.5077 -1.6548  0.1792
  723THF    H1310839   3.299   3.235   4.946  2.6719  0.8699  0.1163
  724THF     O110840   0.731   1.303   0.004 -0.3199 -0.1440 -0.1534
  724THF     C210841   0.783   1.203   0.083 -0.8270 -0.4746 -0.6062
  724THF     C310842   0.702   1.235  -0.121 -0.5118 -0.5318 -0.6359
  724THF     H410843   0.781   1.232   0.192 -0.6271 -1.5501 -0.5744
  724THF     H510844   0.886   1.183   0.040 -1.3501 -0.4613  0.9601
  724THF     H610845   0.632   1.297  -0.188 -0.5187 -0.9180  1.7947
  724THF     H710846   0.790   1.221  -0.187 -0.7048  3.3814 -0.7753
  724THF     C810847   0.628   1.113  -0.077  0.0363  0.8413 -0.0565
  724THF     C910848   0.683   1.093   0.065 -0.7751 -0.4265 -0.3738
  724THF    H1010849   0.635   1.029  -0.155 -1.5932  0.0142 -2.1595
  724THF    H1110850   0.521   1.131  -0.072 -1.4765 -2.2704 -1.6665
  724THF    H1210851   0.601   1.103   0.134  1.3177 -0.2058  2.5282
  724THF    H1310852   0.741   1.006   0.080 -2.0825  0.8172 -0.3986
  725THF     O110853   4.444   1.897   4.955  1.1876 -0.3078 -0.1300
  725THF     C210854   4.333   1.866   5.041  0.2886 -0.6996  0.9318
  725THF     C310855   4.469   2.036   4.975 -1.1060  0.6897  0.1985
  725THF     H410856   4.317   1.758   5.061 -0.4058 -0.2031 -1.2091
  725THF     H510857   4.238   1.901   5.005 -1.2948  1.7175 -0.9937
  725THF     H610858   4.570   2.056   4.948  0.2533  0.0739  0.3836
  725THF     H710859   4.411   2.089   4.898 -1.3112  1.2669  0.8980
  725THF     C810860   4.422   2.069   5.114 -0.1662  0.0280 -0.5648
  725THF     C910861   4.376   1.942   5.171 -0.2769 -0.5312  0.1192
  725THF    H1010862   4.353   2.150   5.108  0.4036  0.0111 -0.5916
  725THF    H1110863   4.506   2.094   5.177  0.0061  0.7662 -0.1627
  725THF    H1210864   4.452   1.878   5.214  0.1927  1.4695 -0.6901
  725THF    H1310865   4.289   1.955   5.223 -0.8076  2.6812  0.7262
  726THF     O110866   4.388   4.828   2.401  0.0259 -0.5599  0.4705
  726THF     C210867   4.375   4.719   2.489 -1.1370  0.5425  0.1216
  726THF     C310868   4.486   4.916   2.456 -0.0694 -0.5703 -0.3776
  726THF     H410869   4.341   4.628   2.433 -0.4601 -0.3548  0.7871
  726THF     H510870   4.299   4.736   2.566  0.3970 -2.1767  1.2269
  726THF     H610871   4.520   4.985   2.384 -3.1687  1.8720  0.5177
  726THF     H710872   4.442   4.977   2.535 -0.1342 -1.2514  0.2328
  726THF     C810873   4.585   4.828   2.527  0.3271  0.1222  0.2541
  726THF     C910874   4.506   4.703   2.559 -0.1354 -0.2744  0.6107
  726THF    H1010875   4.613   4.874   2.619 -0.7098 -0.3208 -0.5803
  726THF    H1110876   4.671   4.803   2.469  0.3429  0.8404  2.6090
  726THF    H1210877   4.568   4.617   2.527 -2.0615 -1.3133 -0.2061
  726THF    H1310878   4.485   4.697   2.663  1.5213 -1.3439  3.4722
  727THF     O110879   4.801   3.027   5.099  0.0294 -0.2564 -1.3241
  727THF     C210880   4.750   2.956   4.988 -0.2090  0.8338 -0.0364
  727THF     C310881   4.711   2.990   5.206  0.2261 -0.5927 -1.3637
  727THF     H410882   4.828   2.944   4.907  2.2450  1.5691 -0.2434
  727THF     H510883   4.661   3.020   4.959 -2.5583 -1.0000  1.1917
  727THF     H610884   4.744   3.009   5.311 -0.0942 -0.6930 -0.1894
  727THF     H710885   4.622   3.052   5.201  0.1782 -1.0234  2.6893
  727THF     C810886   4.692   2.837   5.191  0.1535 -0.5617  0.2101
  727THF     C910887   4.699   2.819   5.041  0.2290 -0.0297  0.7325
  727THF    H1010888   4.595   2.816   5.225  1.4532  0.9972 -1.4409
  727THF    H1110889   4.761   2.768   5.237 -3.2992 -0.4405 -1.6574
  727THF    H1210890   4.760   2.735   5.020  0.7702  1.2875 -0.2238
  727THF    H1310891   4.604   2.800   4.994  2.0601  0.8727 -0.7477
  728THF     O110892   1.115   5.204   4.274  0.4585 -0.0650  0.2817
  728THF     C210893   1.013   5.293   4.231 -0.5245 -0.3281 -0.2208
  728THF     C310894   1.164   5.151   4.155 -0.2577  0.4735 -0.0789
  728THF     H410895   1.042   5.390   4.197  2.8304  2.0307 -3.5101
  728THF     H510896   0.951   5.312   4.319 -0.7373 -1.8469 -0.6783
  728THF     H610897   1.247   5.209   4.109  0.5562  0.8506 -1.3464
  728THF     H710898   1.192   5.051   4.164 -0.9141  1.7127 -1.8787
  728THF     C810899   1.053   5.158   4.050  0.0245 -0.1806 -0.1477
  728THF     C910900   0.934   5.223   4.119  0.0614 -0.6000  0.7272
  728THF    H1010901   1.015   5.060   4.011 -2.6110 -1.4269 -0.6227
  728THF    H1110902   1.083   5.233   3.969 -1.4857 -0.0106  1.6769
  728THF    H1210903   0.889   5.288   4.052 -0.8470 -2.3934  0.7965
  728THF    H1310904   0.861   5.151   4.165 -0.2262 -3.5275  0.8261
  729THF     O110905   2.400   0.697   0.446  0.2808  0.3348 -0.1910
  729THF     C210906   2.366   0.804   0.528 -0.5322 -0.1061  0.6421
  729THF     C310907   2.537   0.709   0.406  0.3349 -0.3052  0.5060
  729THF     H410908   2.387   0.772   0.632 -0.5976  1.5805 -2.8766
  729THF     H510909   2.263   0.827   0.532 -0.1223  0.0527 -2.8082
  729THF     H610910   2.589   0.653   0.484 -1.6883 -1.2702 -0.1779
  729THF     H710911   2.549   0.659   0.310  1.9562  0.0473 -0.7277
  729THF     C810912   2.575   0.857   0.412  0.4426  0.5970 -0.2377
  729THF     C910913   2.455   0.919   0.481  1.0200 -0.4053 -0.9115
  729THF    H1010914   2.582   0.900   0.315 -1.2744  1.3712  1.1473
  729THF    H1110915   2.677   0.873   0.460  1.1415  0.3144 -0.5711
  729THF    H1210916   2.486   0.989   0.563 -0.5009 -1.0947 -2.3141
  729THF    H1310917   2.394   0.976   0.410  0.8123 -2.6801 -0.6280
  730THF     O110918   4.244   1.795   0.996 -0.0442  0.0290  0.3850
  730THF     C210919   4.383   1.773   0.983 -0.3446  0.0933  0.0225
  730THF     C310920   4.229   1.932   1.048 -0.5625 -1.0237  0.1409
  730THF     H410921   4.407   1.690   0.910 -0.0980 -0.5490 -0.5517
  730THF     H510922   4.434   1.752   1.082  0.3012  0.1601 -0.1365
  730THF     H610923   4.128   1.975   1.052 -0.3567  0.1804  2.8934
  730THF     H710924   4.261   1.937   1.153 -2.0639  1.9698 -0.2856
  730THF     C810925   4.335   2.010   0.969  0.6734 -0.1005 -0.8644
  730THF     C910926   4.435   1.904   0.921  0.4334 -0.0562  0.0720
  730THF    H1010927   4.388   2.085   1.038 -1.5709 -0.0423  0.9171
  730THF    H1110928   4.289   2.068   0.890  2.2721  0.5993 -2.0693
  730THF    H1210929   4.444   1.910   0.806  2.9277  0.9456 -3.3861
  730THF    H1310930   4.535   1.930   0.951  1.1013  3.2681  0.5194
  731THF     O110931   2.105   1.858   2.075  0.3771  0.2279  0.1218
  731THF     C210932   2.057   1.787   1.968  0.3272  0.8985 -0.3056
  731THF     C310933   2.140   1.779   2.193 -0.5694 -0.3147  0.2277
  731THF     H410934   2.142   1.788   1.891 -0.6386  0.2992 -2.0337
  731THF     H510935   1.966   1.834   1.924 -0.6900  0.5058  1.5690
  731THF     H610936   2.247   1.741   2.191  2.0671  3.8289 -0.2171
  731THF     H710937   2.138   1.838   2.283 -0.1465  2.4254 -0.4453
  731THF     C810938   2.035   1.668   2.180 -0.3911  0.2006 -0.0941
  731THF     C910939   2.036   1.644   2.028  0.1077 -0.0857 -0.2208
  731THF    H1010940   1.935   1.706   2.194 -1.3101  1.1904  0.3375
  731THF    H1110941   2.049   1.572   2.237  1.3106 -2.3003 -3.2724
  731THF    H1210942   2.117   1.581   1.991  1.1406  0.3110  0.9992
  731THF    H1310943   1.946   1.587   1.996 -1.2304  1.1263  1.1604
  732THF     O110944   2.898   1.405   0.838  0.3436 -0.4666 -0.5073
  732THF     C210945   2.865   1.534   0.782  0.6510  0.7355 -0.6252
  732THF     C310946   2.978   1.334   0.743  0.3537 -0.2494  0.4156
  732THF     H410947   2.858   1.613   0.860 -0.5782  1.9700 -1.1702
  732THF     H510948   2.773   1.520   0.726 -1.7289 -1.0847 -0.1448
  732THF     H610949   3.033   1.241   0.761 -2.5275 -1.0164 -0.8484
  732THF     H710950   2.911   1.302   0.656  0.6027 -0.4485 -0.4941
  732THF     C810951   3.072   1.447   0.694  0.9478  0.7580 -0.6071
  732THF     C910952   2.985   1.572   0.696  0.6711  0.6237  0.4749
  732THF    H1010953   3.106   1.427   0.593  3.0098 -0.4329 -1.4201
  732THF    H1110954   3.148   1.453   0.771 -3.0257  1.8279  0.8464
  732THF    H1210955   3.035   1.666   0.730  2.4617  1.4026 -3.7677
  732THF    H1310956   2.953   1.585   0.595  0.8501  0.3590  2.4356
  733THF     O110957   2.811   1.017   4.585  0.4787 -0.5872 -0.0399
  733THF     C210958   2.685   1.065   4.535  0.2018 -0.3284  0.0724
  733THF     C310959   2.795   0.879   4.608  0.1321 -0.3503 -0.3744
  733THF     H410960   2.679   1.064   4.428 -1.4281 -2.2092  1.1225
  733THF     H510961   2.671   1.168   4.564  0.4051  0.7666 -1.0696
  733THF     H610962   2.801   0.830   4.508  0.8670  1.3483  0.4850
  733THF     H710963   2.866   0.846   4.693 -0.4858 -1.0631  2.3252
  733THF     C810964   2.657   0.866   4.665 -0.3127 -0.1268  0.3719
  733THF     C910965   2.578   0.970   4.594  0.4683  0.1661 -0.0926
  733THF    H1010966   2.654   0.896   4.766 -2.8157  1.0224  0.1270
  733THF    H1110967   2.611   0.775   4.662  0.8675  2.4320 -0.6282
  733THF    H1210968   2.507   0.921   4.526  0.3058 -0.0714  2.2114
  733THF    H1310969   2.511   1.022   4.665  0.4905 -0.5613 -0.3760
  734THF     O110970   2.680   0.926   5.080  0.0281 -0.1399  0.1712
  734THF     C210971   2.568   1.015   5.063 -0.7817  0.3102 -0.2453
  734THF     C310972   2.699   0.911   5.217  0.7634 -0.1778 -0.2368
  734THF     H410973   2.482   0.954   5.061  0.3691 -0.0873 -2.4771
  734THF     H510974   2.605   1.066   4.966 -0.8944 -0.1076 -2.5517
  734THF     H610975   2.625   0.841   5.265 -0.0233  0.1029  0.9873
  734THF     H710976   2.806   0.881   5.228  0.8096  1.8334 -0.3683
  734THF     C810977   2.681   1.053   5.266 -0.4224  0.8055 -0.3772
  734THF     C910978   2.576   1.107   5.177 -0.0854 -0.6528  0.1249
  734THF    H1010979   2.778   1.093   5.237 -2.2169  1.4573  2.3347
  734THF    H1110980   2.675   1.059   5.373 -0.7379  1.5615 -0.4800
  734THF    H1210981   2.482   1.108   5.231 -3.1956  1.6286  0.0046
  734THF    H1310982   2.603   1.214   5.157 -2.1630  0.9083 -1.4892
  735THF     O110983   3.498   0.698   0.193 -0.1172 -0.2904 -0.5946
  735THF     C210984   3.456   0.681   0.059  0.6076  0.0303  0.1590
  735THF     C310985   3.419   0.802   0.256  0.3286  0.1245 -0.8377
  735THF     H410986   3.490   0.590   0.015  0.9218 -0.6530 -0.3502
  735THF     H510987   3.500   0.765   0.004 -4.4345  0.5507  3.0777
  735THF     H610988   3.410   0.773   0.363  0.0968  0.4863  1.5257
  735THF     H710989   3.461   0.900   0.242 -2.1846 -0.8303  0.1580
  735THF     C810990   3.289   0.799   0.186 -0.4644  0.1402 -0.0766
  735THF     C910991   3.306   0.703   0.071 -0.0580  0.3524  0.1117
  735THF    H1010992   3.267   0.900   0.145 -0.7224 -1.8848 -0.2615
  735THF    H1110993   3.203   0.770   0.245  0.5043  1.9825  1.0186
  735THF    H1210994   3.257   0.611   0.092 -1.0066  2.1464 -0.4935
  735THF    H1310995   3.264   0.751  -0.020  0.0774  0.7015  0.7856
  736THF     O110996   5.370   5.428   2.590 -0.0397 -0.6697  0.0646
  736THF     C210997   5.381   5.297   2.524  0.2633  0.2384  0.0885
  736THF     C310998   5.455   5.435   2.701 -0.2770 -0.0031  1.0225
  736THF     H410999   5.448   5.287   2.440 -0.1731 -2.9984  0.3245
  736THF     H511000   5.284   5.261   2.495 -0.3599 -0.8352  1.9299
  736THF     H611001   5.563   5.458   2.679  3.0325  0.3567  2.1723
  736THF     H711002   5.429   5.502   2.778 -1.7855 -1.8839  2.2222
  736THF     C811003   5.439   5.296   2.761 -0.4264  0.2834  0.2930
  736THF     C911004   5.434   5.208   2.634 -0.5413 -0.0460 -0.6345
  736THF    H1011005   5.342   5.294   2.816 -3.2540  3.1159 -0.3255
  736THF    H1111006   5.518   5.274   2.832 -0.0367  3.9824 -0.5794
  736THF    H1211007   5.516   5.146   2.601  0.8764 -3.3101  0.7932
  736THF    H1311008   5.348   5.137   2.644 -3.6870  0.0041  2.1130
  737THF     O111009   1.990   3.324   0.124  0.3210 -0.4466 -0.0510
  737THF     C211010   2.073   3.220   0.077  0.7805 -0.3637 -0.8730
  737THF     C311011   2.066   3.448   0.116 -0.9099 -0.0559  0.3349
  737THF     H411012   2.040   3.198  -0.021  2.9280  0.1238  0.0475
  737THF     H511013   2.064   3.134   0.144 -1.9924  0.4209 -1.5034
  737THF     H611014   2.014   3.530   0.063  1.4413  2.0984 -1.5581
  737THF     H711015   2.094   3.491   0.215 -0.6860  1.3226 -3.0299
  737THF     C811016   2.195   3.418   0.049 -0.2901  0.4102 -0.8363
  737THF     C911017   2.210   3.271   0.084 -0.1760 -0.5727  0.0018
  737THF    H1011018   2.278   3.458   0.099  1.1656 -0.4620 -1.9168
  737THF    H1111019   2.204   3.433  -0.062 -1.2939 -0.0201  1.6013
  737THF    H1211020   2.280   3.220   0.018  1.8902  0.6483  0.5776
  737THF    H1311021   2.257   3.274   0.183 -1.0137 -1.8275  3.2936
  738THF     O111022   4.247   1.141   3.492  0.5480 -0.3006 -0.1507
  738THF     C211023   4.303   1.120   3.363 -0.8101 -0.7139 -0.7929
  738THF     C311024   4.109   1.149   3.489 -0.8970  0.0935  0.2157
  738THF     H411025   4.327   1.020   3.342  0.6175 -0.4142  0.3500
  738THF     H511026   4.396   1.171   3.345  4.0883  1.0532  0.4081
  738THF     H611027   4.056   1.063   3.469 -1.6154 -0.9978  0.4628
  738THF     H711028   4.083   1.195   3.581  1.6958 -0.9313  2.0560
  738THF     C811029   4.098   1.245   3.372 -0.3925  0.6668 -0.2026
  738THF     C911030   4.194   1.179   3.277 -0.7335  0.0276  0.3669
  738THF    H1011031   4.123   1.348   3.404  0.2317  3.4776 -2.6782
  738THF    H1111032   3.993   1.253   3.327  1.1144 -1.7284  1.6325
  738THF    H1211033   4.135   1.098   3.237  1.2341 -1.6295  2.5409
  738THF    H1311034   4.229   1.234   3.198  0.0912 -2.5713  0.3315
  739THF     O111035   0.422   4.715   2.711  0.9507  0.1329  0.2179
  739THF     C211036   0.406   4.803   2.601  0.0740 -0.1923  0.3334
  739THF     C311037   0.477   4.783   2.826  0.3920  0.2439  0.1645
  739THF     H411038   0.316   4.766   2.544  0.5697  1.0929  0.5960
  739THF     H511039   0.497   4.812   2.542  0.8039  0.3536 -1.7858
  739THF     H611040   0.419   4.754   2.910  0.9163 -0.2879 -0.0849
  739THF     H711041   0.580   4.753   2.845  1.8294 -1.1003  0.0094
  739THF     C811042   0.458   4.927   2.785 -0.6068 -0.5555  0.1391
  739THF     C911043   0.385   4.943   2.657  0.1959 -0.0970 -1.1802
  739THF    H1011044   0.555   4.961   2.756 -2.2191 -0.9875 -0.7219
  739THF    H1111045   0.424   4.988   2.865 -2.5895 -2.2526 -0.6347
  739THF    H1211046   0.278   4.964   2.671 -1.5663  1.9560 -0.9874
  739THF    H1311047   0.420   5.021   2.604  0.7495 -3.2117 -0.1518
  740THF     O111048   4.949   0.094   2.495  0.5188 -0.0779  0.3371
  740THF     C211049   5.057   0.048   2.574  0.3941  0.0093 -0.3708
  740THF     C311050   4.884   0.197   2.570 -0.5706  0.0967 -0.1431
  740THF     H411051   5.133   0.021   2.505 -0.4940 -0.3633 -1.9129
  740THF     H511052   5.035  -0.039   2.635  1.2385  1.0663 -1.3015
  740THF     H611053   4.819   0.263   2.500 -2.2454  1.0860 -0.5831
  740THF     H711054   4.826   0.151   2.650  0.8092 -2.4786  0.9953
  740THF     C811055   5.004   0.274   2.624 -0.1089 -0.5138  0.2768
  740THF     C911056   5.103   0.164   2.653 -0.8159 -0.2808 -0.5647
  740THF    H1011057   4.986   0.339   2.715 -2.6101 -1.6480 -0.9861
  740THF    H1111058   5.048   0.335   2.546  1.3555  0.8355  2.1657
  740THF    H1211059   5.199   0.191   2.617  0.9770 -0.3567 -1.2722
  740THF    H1311060   5.110   0.140   2.760  1.7650  0.9452  0.6859
  741THF     O111061   4.654   3.252   4.045  0.0386  0.1050 -0.2315
  741THF     C211062   4.719   3.232   4.171 -0.0251 -0.1069  0.1457
  741THF     C311063   4.736   3.207   3.933  0.1826  0.1475  0.2215
  741THF     H411064   4.654   3.229   4.254 -0.9012  1.8154  0.6404
  741THF     H511065   4.771   3.321   4.193  0.8643 -0.4800  1.2574
  741THF     H611066   4.670   3.164   3.854 -0.9931  0.9210 -1.8023
  741THF     H711067   4.809   3.280   3.897  0.2186  2.8366  0.4941
  741THF     C811068   4.784   3.073   4.004  0.3976  0.3969  0.3424
  741THF     C911069   4.821   3.117   4.146  0.1110 -0.1187 -0.9299
  741THF    H1011070   4.862   3.026   3.950 -0.7689 -3.0918  0.1846
  741THF    H1111071   4.706   2.996   4.007  1.5212 -0.5426 -0.4549
  741THF    H1211072   4.825   3.037   4.218 -3.3981 -0.6531  0.7974
  741THF    H1311073   4.921   3.167   4.143  0.4234 -1.0660  1.4752
  742THF     O111074   5.189   2.150   1.569  0.4706  0.3619  0.2280
  742THF     C211075   5.063   2.147   1.640  0.4871  0.3327 -0.4239
  742THF     C311076   5.266   2.250   1.627 -0.2687  0.0547  0.0013
  742THF     H411077   5.024   2.050   1.676  1.5647 -2.6182  0.9896
  742THF     H511078   4.982   2.192   1.575 -0.9257 -0.9185 -0.9825
  742THF     H611079   5.367   2.221   1.605 -2.4656 -0.9879 -3.2735
  742THF     H711080   5.263   2.344   1.573  0.7696 -0.1694 -1.6524
  742THF     C811081   5.233   2.253   1.772 -0.3573 -0.3446  0.7784
  742THF     C911082   5.080   2.236   1.774  0.0034 -0.1064  0.1582
  742THF    H1011083   5.243   2.356   1.812  3.1735  0.1335  2.3636
  742THF    H1111084   5.278   2.185   1.839 -0.0863 -1.6263 -0.9217
  742THF    H1211085   5.046   2.180   1.863 -0.5060  0.9737  1.5746
  742THF    H1311086   5.031   2.330   1.768 -0.3708  0.2588  0.0418
  743THF     O111087   3.210   4.244   4.201  0.1127 -0.1845  0.1790
  743THF     C211088   3.325   4.319   4.214  0.1305 -0.3347  0.3088
  743THF     C311089   3.112   4.292   4.288  0.6563  0.4017  0.0732
  743THF     H411090   3.314   4.395   4.133  1.9086 -0.8710  0.1624
  743THF     H511091   3.415   4.262   4.208  0.1628  0.5743 -2.9145
  743THF     H611092   3.042   4.370   4.240 -2.1526  1.4687 -3.0453
  743THF     H711093   3.045   4.208   4.308 -1.0096 -0.2468  0.3905
  743THF     C811094   3.195   4.321   4.411 -0.6104 -0.4711  0.9126
  743THF     C911095   3.309   4.399   4.340  0.1309 -0.1704 -0.2923
  743THF    H1011096   3.228   4.229   4.455  1.4085 -1.4042  1.9081
  743THF    H1111097   3.149   4.380   4.486 -0.2134  0.2323  1.4406
  743THF    H1211098   3.284   4.508   4.314  1.1208  4.0056 -0.3275
  743THF    H1311099   3.398   4.404   4.405  0.1975 -0.2055 -1.5635
  744THF     O111100   3.141   5.282   5.289 -0.6805  0.3178  0.1406
  744THF     C211101   3.045   5.378   5.304  0.1614  0.0586  0.8021
  744THF     C311102   3.092   5.153   5.327  0.5647  0.6123 -0.4693
  744THF     H411103   3.058   5.463   5.233 -1.1018 -1.5461  0.1233
  744THF     H511104   3.054   5.418   5.408 -2.2090 -0.7950  0.7154
  744THF     H611105   3.141   5.085   5.254 -1.4838 -0.0876  1.0149
  744THF     H711106   3.126   5.123   5.427  0.1025 -2.6037 -0.9048
  744THF     C811107   2.940   5.160   5.323  0.6326 -0.3535 -0.1385
  744THF     C911108   2.916   5.296   5.267 -0.3543  0.2661 -0.0672
  744THF    H1011109   2.903   5.148   5.423  2.7039  1.4913 -0.9104
  744THF    H1111110   2.886   5.096   5.257  0.6330  2.8499  0.8532
  744THF    H1211111   2.931   5.283   5.160  0.7288  0.8018 -0.2794
  744THF    H1311112   2.825   5.341   5.290  2.1263 -1.1920 -0.8419
  745THF     O111113   3.203   5.086   4.440  0.2836 -0.1715  0.6682
  745THF     C211114   3.311   5.123   4.523  0.0240 -1.0213  0.0258
  745THF     C311115   3.173   5.198   4.353 -0.1443  0.3068  0.9142
  745THF     H411116   3.370   5.031   4.557  2.0389  0.4179 -0.0229
  745THF     H511117   3.283   5.169   4.621  3.1560  1.9964  0.9261
  745THF     H611118   3.110   5.177   4.264 -3.4104  0.6609  2.2499
  745THF     H711119   3.104   5.254   4.412  0.7372 -0.7275  0.5837
  745THF     C811120   3.306   5.268   4.318  0.0511  0.3953  0.9158
  745THF     C911121   3.392   5.220   4.433 -0.3694 -0.3187 -0.4294
  745THF    H1011122   3.289   5.374   4.314 -0.4460 -1.7778  1.8338
  745THF    H1111123   3.342   5.234   4.220  3.1982 -0.9779 -2.3284
  745THF    H1211124   3.479   5.168   4.405 -1.6924  0.3149 -0.8848
  745THF    H1311125   3.426   5.310   4.484  0.3386  1.8998  0.7222
  746THF     O111126   0.883   4.859   4.481 -0.4026  0.6614  0.5900
  746THF     C211127   0.862   4.720   4.454  0.0568 -0.0895 -0.1804
  746THF     C311128   0.911   4.923   4.356  1.6718 -0.3075  0.9426
  746THF     H411129   0.809   4.670   4.539 -2.2371 -2.1261  0.9044
  746THF     H511130   0.961   4.675   4.452  0.1634 -1.6962  0.0396
  746THF     H611131   0.892   5.029   4.344 -1.8172 -0.2121  0.7489
  746THF     H711132   1.011   4.881   4.328  0.0500 -1.5962 -0.5499
  746THF     C811133   0.815   4.856   4.256  0.2826 -0.5436  0.2730
  746THF     C911134   0.795   4.711   4.312  0.3823  0.2194 -0.4105
  746THF    H1011135   0.851   4.865   4.157 -1.0986 -0.0162 -1.8551
  746THF    H1111136   0.716   4.905   4.258 -2.1999 -0.6999 -1.5098
  746THF    H1211137   0.692   4.677   4.307 -1.3209 -1.2292  1.6095
  746THF    H1311138   0.850   4.633   4.257  1.7978 -0.5804 -0.9279
  747THF     O111139   2.983   4.429   2.745  0.2645  0.5956  0.0151
  747THF     C211140   2.931   4.397   2.617 -0.8446 -0.9920  0.5555
  747THF     C311141   2.867   4.468   2.826 -0.2118 -0.1624 -0.0131
  747THF     H411142   2.873   4.305   2.615  0.7447 -1.2906 -1.9459
  747THF     H511143   3.003   4.395   2.532  1.0888  0.5754 -2.2867
  747THF     H611144   2.800   4.383   2.844  1.5707  2.7684  0.1911
  747THF     H711145   2.906   4.519   2.917  1.2519 -1.8577 -2.1563
  747THF     C811146   2.799   4.559   2.735  0.1292  0.5116  0.6781
  747THF     C911147   2.837   4.510   2.592  0.0112 -0.5780  0.7502
  747THF    H1011148   2.831   4.656   2.746 -0.9453 -1.5504  2.4161
  747THF    H1111149   2.692   4.552   2.729  0.5912 -1.0128 -0.5150
  747THF    H1211150   2.749   4.475   2.544  0.0850  3.3628  0.2241
  747THF    H1311151   2.875   4.589   2.526 -3.0074  0.2210  1.5807
  748THF     O111152   4.829   0.540   2.647  0.1128 -0.5143 -0.1210
  748THF     C211153   4.696   0.530   2.691  0.6237 -0.0166  0.1899
  748THF     C311154   4.821   0.607   2.524 -0.1882 -0.4088 -0.6744
  748THF     H411155   4.654   0.612   2.742 -0.8224 -0.0517 -2.0441
  748THF     H511156   4.702   0.446   2.763 -1.2853 -1.0596  0.8983
  748THF     H611157   4.791   0.709   2.533  1.7413 -0.2782 -3.9951
  748THF     H711158   4.915   0.607   2.483 -1.5373  0.1316  2.6950
  748THF     C811159   4.714   0.532   2.446 -0.1315  0.2113  0.7185
  748THF     C911160   4.617   0.508   2.561  0.4469 -0.4815  0.5917
  748THF    H1011161   4.735   0.437   2.402 -0.9983  1.0354  0.9617
  748THF    H1111162   4.670   0.592   2.367 -2.9027  0.2144  0.2238
  748THF    H1211163   4.526   0.569   2.555  0.0044  1.7874  0.8699
  748THF    H1311164   4.575   0.411   2.565  2.0099  1.0861  0.3796
  749THF     O111165   4.528   2.975   4.678  0.1141  0.0261 -0.2270
  749THF     C211166   4.555   3.029   4.553 -0.4872 -0.2245 -1.0544
  749THF     C311167   4.554   2.834   4.664 -0.1022 -0.2261 -0.3818
  749THF     H411168   4.582   3.134   4.566 -1.1059 -3.5762  0.7265
  749THF     H511169   4.468   3.015   4.486  0.6656 -0.3269  0.7220
  749THF     H611170   4.549   2.786   4.762  1.6041 -0.5363 -3.2696
  749THF     H711171   4.475   2.792   4.605 -1.6705 -0.8410  0.0096
  749THF     C811172   4.693   2.829   4.594 -0.3853 -0.1162 -0.2694
  749THF     C911173   4.684   2.959   4.503 -0.0338 -0.2453  0.1034
  749THF    H1011174   4.710   2.731   4.548 -1.1669  2.1963 -1.8455
  749THF    H1111175   4.772   2.834   4.675 -0.0995 -0.4800  1.4351
  749THF    H1211176   4.766   3.030   4.520  0.8246  0.4026  1.7210
  749THF    H1311177   4.683   2.930   4.397  1.1555  0.0634  2.2917
  750THF     O111178   2.008   3.026   4.932 -0.2014 -0.2280 -0.3568
  750THF     C211179   1.893   2.967   4.882 -0.1647  0.0024  0.5993
  750THF     C311180   1.988   3.167   4.912  0.3042  0.0046 -0.2260
  750THF     H411181   1.872   2.870   4.913 -1.0231 -2.2851 -1.2012
  750THF     H511182   1.889   2.972   4.772  3.7616  0.5040 -0.0710
  750THF     H611183   2.027   3.218   4.994  2.5087 -2.4881 -2.3881
  750THF     H711184   2.044   3.199   4.824 -0.6524  2.5617  1.7904
  750THF     C811185   1.837   3.190   4.894  0.3182  0.4686  0.1522
  750THF     C911186   1.783   3.060   4.934  0.8047 -0.0536 -0.4882
  750THF    H1011187   1.813   3.202   4.789  1.2939 -1.3133 -1.6787
  750THF    H1111188   1.801   3.274   4.951 -0.2098 -1.1449 -2.4995
  750THF    H1211189   1.784   3.037   5.041  1.1942 -0.7683 -2.0750
  750THF    H1311190   1.677   3.038   4.902  2.0128 -1.8042 -0.9897
  751THF     O111191   1.110   1.113   0.138 -0.5248 -0.3345 -0.2257
  751THF     C211192   1.085   1.040   0.261 -0.6707  0.4807 -0.8146
  751THF     C311193   1.176   1.037   0.037 -0.2677 -0.1797 -0.0634
  751THF     H411194   0.976   1.028   0.275 -0.8059 -0.0635 -1.6026
  751THF     H511195   1.131   1.093   0.341  0.7685 -0.2329  1.0132
  751THF     H611196   1.093   0.993  -0.025  0.7693 -0.3999  1.2555
  751THF     H711197   1.248   1.088  -0.022  0.2709 -1.2882  0.0428
  751THF     C811198   1.244   0.934   0.123 -0.5640  0.0073  0.3389
  751THF     C911199   1.147   0.906   0.234  0.0116 -0.2462 -0.0552
  751THF    H1011200   1.329   0.989   0.163 -0.1196 -1.7974  1.4610
  751THF    H1111201   1.275   0.841   0.069 -1.6709  1.6396  1.4754
  751THF    H1211202   1.072   0.836   0.194 -2.7708  2.7386 -0.4143
  751THF    H1311203   1.208   0.861   0.319 -2.0167 -2.2484  0.4420
  752THF     O111204   3.023   4.158   0.483  0.4194  0.0273  0.6047
  752THF     C211205   3.100   4.155   0.363 -0.0469  0.2841  0.2251
  752THF     C311206   3.055   4.045   0.557  0.1289  0.4443 -0.6675
  752THF     H411207   3.101   4.255   0.319  0.3743 -2.8186 -0.5234
  752THF     H511208   3.058   4.086   0.286 -1.7040  2.3879  1.7390
  752THF     H611209   3.061   4.087   0.658 -1.5490 -0.5379  2.2204
  752THF     H711210   2.986   3.964   0.553  0.3969 -0.8219  2.4492
  752THF     C811211   3.197   4.009   0.510 -0.8126 -0.9008 -0.4571
  752THF     C911212   3.240   4.123   0.421  0.8292 -0.8457 -0.1340
  752THF    H1011213   3.193   3.911   0.459  1.8448  3.1269 -0.2448
  752THF    H1111214   3.261   4.006   0.593 -0.7825 -0.0861  0.8453
  752THF    H1211215   3.279   4.199   0.490 -0.4867  0.2325  1.0199
  752THF    H1311216   3.322   4.098   0.349  1.1518 -1.4553 -1.0620
  753THF     O111217   0.483   5.376   2.635 -0.0667  0.0012 -0.0211
  753THF     C211218   0.559   5.324   2.745  0.0859  0.1244 -0.8764
  753THF     C311219   0.347   5.373   2.660 -0.5387 -0.3152 -0.1032
  753THF     H411220   0.656   5.371   2.746 -0.1754  1.3283 -1.0022
  753THF     H511221   0.568   5.216   2.725 -0.1060  2.2168  1.9854
  753THF     H611222   0.327   5.476   2.656 -0.8899 -2.9843 -1.3496
  753THF     H711223   0.290   5.323   2.582 -0.8379 -2.5240  0.8418
  753THF     C811224   0.337   5.310   2.800  0.1481  0.9292 -0.3642
  753THF     C911225   0.473   5.334   2.870  0.2102 -0.4763 -0.4392
  753THF    H1011226   0.316   5.204   2.782 -1.4665 -0.9161 -1.1947
  753THF    H1111227   0.253   5.340   2.859 -0.2373  0.4925  0.7310
  753THF    H1211228   0.484   5.427   2.927 -0.6509 -0.9280  0.3348
  753THF    H1311229   0.498   5.255   2.937 -1.2159 -2.6755  1.0084
  754THF     O111230   3.426   4.811   0.898  0.2985  0.0606 -0.5297
  754THF     C211231   3.344   4.794   1.008  0.5501  0.1268  0.0751
  754THF     C311232   3.429   4.951   0.864  0.9066  0.1636 -1.2976
  754THF     H411233   3.393   4.795   1.107 -0.7370 -0.1051 -0.9420
  754THF     H511234   3.298   4.695   0.996  2.1431  0.0732  0.4795
  754THF     H611235   3.495   4.997   0.935 -0.2403 -0.3853  0.9604
  754THF     H711236   3.466   4.976   0.765  2.6196  0.3373  1.2114
  754THF     C811237   3.288   5.001   0.898  0.2133  0.4581  0.2766
  754THF     C911238   3.233   4.906   0.999  0.9811  0.2709 -0.0827
  754THF    H1011239   3.218   5.002   0.817 -0.7389  1.0534 -1.4657
  754THF    H1111240   3.290   5.099   0.946 -3.4541  2.0046  2.0618
  754THF    H1211241   3.221   4.963   1.098  4.3292  0.2292 -1.4556
  754THF    H1311242   3.148   4.860   0.967  1.3654 -2.6640 -0.5290
  755THF     O111243   0.173   0.752   3.782 -0.2043  0.1217  1.1755
  755THF     C211244   0.231   0.762   3.651  0.1585 -0.2843 -0.1156
  755THF     C311245   0.107   0.627   3.803  0.5434 -0.2679 -0.3254
  755THF     H411246   0.321   0.821   3.652  5.8932  1.4553  1.4821
  755THF     H511247   0.156   0.795   3.578 -1.5219 -0.0333  1.8430
  755THF     H611248   0.133   0.588   3.900  1.7379  0.0843  1.3749
  755THF     H711249   0.001   0.635   3.822  0.1117 -2.0945  0.5269
  755THF     C811250   0.156   0.536   3.691  0.3447  0.4819  0.2127
  755THF     C911251   0.272   0.613   3.632 -0.0512 -0.0604  0.2082
  755THF    H1011252   0.074   0.522   3.614  0.8812  0.8836  1.6142
  755THF    H1111253   0.183   0.432   3.717  0.8271 -0.2313  0.1670
  755THF    H1211254   0.362   0.592   3.687 -1.7808  1.7361 -1.0716
  755THF    H1311255   0.282   0.589   3.522  2.5858  1.6556 -0.3289
  756THF     O111256   1.879   4.797   3.478  0.1645 -0.1675  0.2377
  756THF     C211257   1.855   4.929   3.489  0.8021  0.2875  0.0499
  756THF     C311258   1.970   4.774   3.366 -0.0688 -0.0566 -0.6498
  756THF     H411259   1.809   4.966   3.582 -0.4745 -2.6685 -0.1233
  756THF     H511260   1.777   4.950   3.416  2.0550  0.5802  1.0545
  756THF     H611261   2.022   4.678   3.382  1.7181  1.6072 -0.7620
  756THF     H711262   1.904   4.751   3.282  0.7054 -0.3287  0.4791
  756THF     C811263   2.057   4.902   3.365  0.5414 -0.3516 -1.0671
  756THF     C911264   1.985   4.995   3.456  0.6191 -0.4994  0.0181
  756THF    H1011265   2.085   4.943   3.271 -1.2939  0.8037  2.0338
  756THF    H1111266   2.151   4.895   3.420  0.7174 -0.9060  1.0677
  756THF    H1211267   2.031   5.016   3.551  1.9210  1.6233  0.4359
  756THF    H1311268   1.980   5.096   3.418 -0.0508 -0.6832  1.5794
  757THF     O111269   0.531   0.286   2.692 -0.4001  0.5738  0.4365
  757THF     C211270   0.522   0.411   2.756  0.7547  0.4760  0.5091
  757THF     C311271   0.614   0.204   2.767  0.0707 -0.1028  0.1263
  757THF     H411272   0.457   0.396   2.841  1.4325 -0.3288 -0.6964
  757THF     H511273   0.472   0.480   2.691  1.1474  3.8416  2.1828
  757THF     H611274   0.553   0.144   2.841 -2.7979 -0.2970  0.6343
  757THF     H711275   0.670   0.136   2.706  0.0028 -0.4542  1.3893
  757THF     C811276   0.713   0.303   2.831  0.2091 -0.3377 -0.2923
  757THF     C911277   0.666   0.440   2.797  0.1978 -0.5293  0.2895
  757THF    H1011278   0.818   0.296   2.799  0.3865 -0.3927 -0.3926
  757THF    H1111279   0.721   0.295   2.941 -1.6432  2.1594  3.0332
  757THF    H1211280   0.673   0.526   2.868 -0.4161  0.5957  2.0630
  757THF    H1311281   0.721   0.459   2.702  0.0922  0.9144 -0.0833
  758THF     O111282   0.727   5.196   1.750  1.0556 -0.4422  0.2196
  758THF     C211283   0.776   5.068   1.778 -0.5174 -0.4001  0.0075
  758THF     C311284   0.579   5.193   1.737 -1.1311  0.5760  0.1768
  758THF     H411285   0.784   5.053   1.887 -2.6817  0.5589 -0.7315
  758THF     H511286   0.876   5.046   1.728  2.4259  0.9697  0.3320
  758THF     H611287   0.523   5.182   1.832 -2.3438 -1.7907 -0.2665
  758THF     H711288   0.537   5.280   1.695  1.8451  0.5589  1.3573
  758THF     C811289   0.559   5.064   1.665  0.5671  0.0875  0.3441
  758THF     C911290   0.663   4.974   1.724 -0.6736  0.4357 -0.2411
  758THF    H1011291   0.571   5.074   1.558  0.9040 -1.8466 -0.6483
  758THF    H1111292   0.465   5.024   1.692  2.0905 -1.8248 -1.3710
  758THF    H1211293   0.616   4.918   1.805 -0.4080 -0.4374 -2.4867
  758THF    H1311294   0.682   4.897   1.654  1.8380  0.2491 -0.5115
  759THF     O111295   0.273   3.523   4.130  0.2990  0.3957  0.6684
  759THF     C211296   0.147   3.546   4.186  0.1883  0.3906  0.1466
  759THF     C311297   0.259   3.384   4.084  0.7478 -0.1430 -0.0450
  759THF     H411298   0.062   3.557   4.114 -0.7548 -0.3861 -1.0493
  759THF     H511299   0.150   3.635   4.246 -0.3587 -0.0574 -0.1371
  759THF     H611300   0.198   3.380   3.999  1.1978 -0.0405 -1.3943
  759THF     H711301   0.363   3.339   4.061  0.5896 -0.9207  0.2639
  759THF     C811302   0.186   3.310   4.198 -0.3853 -0.1567 -0.4246
  759THF     C911303   0.114   3.424   4.273  0.4425  0.3297 -0.0685
  759THF    H1011304   0.251   3.259   4.262 -0.0956  0.0095  1.5511
  759THF    H1111305   0.109   3.245   4.157 -0.2098 -0.6190 -1.6781
  759THF    H1211306   0.004   3.411   4.281  1.9180 -0.1640  1.8116
  759THF    H1311307   0.155   3.433   4.372  0.1018 -1.0474 -2.7178
  760THF     O111308   2.386   3.078   5.165  0.0923 -0.2604 -0.3518
  760THF     C211309   2.462   3.196   5.182 -0.6595 -0.0723 -0.0361
  760THF     C311310   2.253   3.120   5.138  0.0190 -0.4906 -0.7655
  760THF     H411311   2.493   3.245   5.093  0.3818  0.5651  1.8454
  760THF     H511312   2.549   3.177   5.244 -0.2656 -0.9880  0.0265
  760THF     H611313   2.253   3.158   5.032  0.1064  1.2191 -2.6650
  760THF     H711314   2.182   3.041   5.152  1.1623  2.3437  2.3500
  760THF     C811315   2.225   3.237   5.224 -0.4952 -0.4928 -0.3836
  760THF     C911316   2.365   3.284   5.262  0.6859 -0.6365  0.4371
  760THF    H1011317   2.177   3.207   5.317 -1.2126 -1.2514  0.1685
  760THF    H1111318   2.175   3.312   5.171  1.9177  0.6235  0.0911
  760THF    H1211319   2.381   3.390   5.230 -0.6724  0.6209  2.8501
  760THF    H1311320   2.385   3.269   5.366  1.4603  0.9421 -1.3063
  761THF     O111321   0.945   4.575   2.482  0.1503  0.0988  0.2066
  761THF     C211322   0.872   4.638   2.380  0.5300  0.7371 -0.4772
  761THF     C311323   0.861   4.491   2.558 -0.2610 -0.3548 -0.3224
  761THF     H411324   0.869   4.562   2.301 -5.2891 -0.7369 -2.3441
  761THF     H511325   0.922   4.725   2.335  0.6088  0.2472  0.0640
  761THF     H611326   0.847   4.399   2.504  1.7637 -3.2211  0.2290
  761THF     H711327   0.911   4.471   2.655 -1.1362 -0.5935  2.4553
  761THF     C811328   0.731   4.574   2.569 -0.1416  0.0637 -0.1639
  761THF     C911329   0.731   4.661   2.436 -0.7133  0.0743  0.4516
  761THF    H1011330   0.732   4.632   2.658  0.3148  1.3524 -0.0424
  761THF    H1111331   0.641   4.507   2.576  0.5940 -2.1505 -0.5372
  761THF    H1211332   0.656   4.627   2.370  0.1997 -2.4253  0.2753
  761THF    H1311333   0.709   4.766   2.463  0.0542  0.1089 -2.1189
  762THF     O111334   2.968   4.405   0.692  0.6895 -0.5085 -0.7531
  762THF     C211335   3.110   4.399   0.703 -0.1630 -0.1238 -0.3527
  762THF     C311336   2.917   4.488   0.792  0.4620  0.1708  0.6153
  762THF     H411337   3.171   4.468   0.650 -2.2753 -1.1452  0.4898
  762THF     H511338   3.135   4.305   0.655 -0.0120 -0.1161  0.4682
  762THF     H611339   2.954   4.583   0.769 -0.4364 -0.6383  1.2543
  762THF     H711340   2.806   4.489   0.797 -1.7160 -0.8833 -1.9147
  762THF     C811341   2.988   4.431   0.914  0.1702  0.1852  0.5057
  762THF     C911342   3.128   4.396   0.853  0.4389 -0.0503 -0.7565
  762THF    H1011343   2.933   4.339   0.957  0.3760  0.0371  1.5033
  762THF    H1111344   2.979   4.494   0.998 -2.6882 -1.5240 -1.6351
  762THF    H1211345   3.202   4.469   0.889 -1.3155  0.4158 -0.9931
  762THF    H1311346   3.171   4.302   0.889 -0.0162  0.4287  0.3295
  763THF     O111347   1.175   1.936   3.287  0.0959  0.1049 -0.1722
  763THF     C211348   1.141   1.797   3.285  0.5032  0.2413  0.8788
  763THF     C311349   1.253   1.964   3.398 -0.1942  0.3073  0.6188
  763THF     H411350   1.223   1.753   3.229 -1.0298  3.2208 -1.9565
  763THF     H511351   1.045   1.771   3.243 -3.1668  0.4028 -0.2716
  763THF     H611352   1.359   1.954   3.372 -1.0969 -0.2758 -0.3517
  763THF     H711353   1.238   2.071   3.422 -2.6761  1.9442  0.6500
  763THF     C811354   1.211   1.868   3.513  0.4257 -0.3350 -1.1555
  763THF     C911355   1.138   1.760   3.431  0.0168  0.1420 -0.6241
  763THF    H1011356   1.133   1.920   3.578  0.7849  0.7265  0.4565
  763THF    H1111357   1.280   1.837   3.591  0.9314  1.9490 -1.3871
  763THF    H1211358   1.181   1.663   3.440  1.2848  0.3793  1.2943
  763THF    H1311359   1.037   1.742   3.475 -0.1718 -0.1187 -0.9673
  764THF     O111360   1.376   3.933   4.568  0.0861 -0.0645 -0.2137
  764THF     C211361   1.503   3.971   4.514 -0.4673  0.6147  0.9366
  764THF     C311362   1.287   3.888   4.463  0.2830  0.2359  0.1321
  764THF     H411363   1.585   3.977   4.585  0.9677  2.4083  2.2968
  764THF     H511364   1.495   4.061   4.461  0.8151 -1.1933  0.1802
  764THF     H611365   1.220   3.817   4.510 -0.0625  0.2918 -1.0490
  764THF     H711366   1.225   3.969   4.431 -1.2863 -2.8011 -1.4663
  764THF     C811367   1.376   3.843   4.354 -1.0636  0.9635  0.5279
  764THF     C911368   1.520   3.856   4.406  0.0916  0.0284  0.2770
  764THF    H1011369   1.367   3.909   4.263 -0.7013 -1.6044 -0.3127
  764THF    H1111370   1.350   3.744   4.320  0.1569 -1.4201  1.3050
  764THF    H1211371   1.547   3.774   4.456  0.5405  4.8868 -0.0010
  764THF    H1311372   1.601   3.873   4.332 -0.0848  1.4243  1.2585
  765THF     O111373   0.967   3.369   4.095  0.1769  0.0697  0.1397
  765THF     C211374   1.105   3.331   4.113  0.6195 -0.1136  0.2188
  765THF     C311375   0.890   3.263   4.037 -1.1457  0.1285  0.0728
  765THF     H411376   1.121   3.327   4.222  0.9980  1.1086  1.7488
  765THF     H511377   1.184   3.394   4.071  0.6053 -0.9283  0.2390
  765THF     H611378   0.793   3.254   4.084 -0.3179 -1.4720 -0.2762
  765THF     H711379   0.879   3.270   3.924  0.9115 -0.1371  0.3504
  765THF     C811380   0.969   3.137   4.064  0.7945 -0.1296  0.2273
  765THF     C911381   1.114   3.182   4.066  0.2478  0.2575 -1.0337
  765THF    H1011382   0.936   3.050   4.009 -1.1163 -2.7971  0.6044
  765THF    H1111383   0.945   3.099   4.162  3.1304 -2.3300 -2.4725
  765THF    H1211384   1.178   3.129   4.137  0.2411 -0.9501 -0.5294
  765THF    H1311385   1.167   3.176   3.969  0.2257  3.0584  0.4356
  766THF     O111386   0.118   1.630   3.381  0.4254 -0.1504  0.7947
  766THF     C211387   0.064   1.503   3.347  0.2955 -0.1855 -0.0018
  766THF     C311388   0.132   1.711   3.266 -0.9642 -0.1094 -1.1635
  766THF     H411389  -0.046   1.511   3.335 -2.5272  0.4034  2.8006
  766THF     H511390   0.087   1.433   3.422 -0.7628  0.0296 -1.9855
  766THF     H611391   0.033   1.729   3.225  1.4090 -4.4893 -2.1301
  766THF     H711392   0.163   1.813   3.281 -1.7200 -2.3507 -1.3213
  766THF     C811393   0.205   1.607   3.173  0.7952  0.9182  0.2906
  766THF     C911394   0.154   1.480   3.226  0.2259  0.7244 -0.6267
  766THF    H1011395   0.311   1.604   3.179 -1.3109 -0.0349 -0.7205
  766THF    H1111396   0.175   1.641   3.075 -2.2973 -1.1452  0.2173
  766THF    H1211397   0.105   1.423   3.149  3.4746  0.1790  2.3350
  766THF    H1311398   0.238   1.419   3.260 -1.0162 -3.8326  0.5853
  767THF     O111399   3.943   3.014   0.186 -0.1635 -0.0391  0.1839
  767THF     C211400   4.016   3.056   0.296 -0.4697 -0.0841  0.0249
  767THF     C311401   3.913   2.880   0.215  0.2618  0.4855 -0.6300
  767THF     H411402   3.944   3.072   0.379 -1.3529 -0.6250  0.3314
  767THF     H511403   4.076   3.154   0.291  2.7038 -0.0578 -4.4801
  767THF     H611404   3.853   2.868   0.310 -3.6645  5.4953  0.6358
  767THF     H711405   3.858   2.844   0.131  0.3943  1.7810 -0.1727
  767THF     C811406   4.050   2.827   0.245  0.8629 -0.0584  0.1570
  767THF     C911407   4.111   2.937   0.323 -0.2593  0.1704  0.3134
  767THF    H1011408   4.095   2.817   0.150 -1.5009 -0.8065  0.9575
  767THF    H1111409   4.044   2.734   0.303 -1.7422  1.5111  1.0773
  767THF    H1211410   4.116   2.929   0.435  3.7263  0.4181  0.9212
  767THF    H1311411   4.215   2.950   0.300  0.4928 -2.7236 -0.2043
  768THF     O111412   2.150   3.945   3.100 -0.0638 -0.0989 -0.0087
  768THF     C211413   2.161   4.088   3.098  0.6248 -0.2435 -0.4712
  768THF     C311414   2.176   3.901   3.229  0.0172  1.2269 -0.4002
  768THF     H411415   2.064   4.133   3.116 -0.4700 -1.3063  1.6477
  768THF     H511416   2.210   4.123   3.010 -0.3528 -0.2240  0.2095
  768THF     H611417   2.093   3.916   3.286  1.6593  0.3680 -3.0272
  768THF     H711418   2.205   3.795   3.236  1.5996  0.1997  2.3613
  768THF     C811419   2.298   3.988   3.260 -0.0024  0.1829 -0.1808
  768THF     C911420   2.251   4.123   3.211  0.2680 -0.4411 -0.3446
  768THF    H1011421   2.379   3.944   3.206  0.7117 -3.1125  2.2185
  768THF    H1111422   2.325   3.990   3.365 -0.2032 -0.0909 -0.1718
  768THF    H1211423   2.210   4.189   3.293  0.5818 -1.2294  5.1714
  768THF    H1311424   2.342   4.182   3.178 -1.0354 -1.2554  2.7105
  769THF     O111425   5.228   5.039   3.908 -0.1997 -0.4915  0.3605
  769THF     C211426   5.325   5.099   3.826 -0.7686  0.0981  0.4116
  769THF     C311427   5.281   4.915   3.954 -0.3072  0.0221  0.7132
  769THF     H411428   5.410   5.142   3.885 -0.4221  0.5070  0.6336
  769THF     H511429   5.294   5.185   3.765  0.6435  1.5860 -0.3624
  769THF     H611430   5.358   4.940   4.028 -0.4477 -4.3356 -1.8916
  769THF     H711431   5.210   4.849   3.995  0.5116 -0.7918  0.6618
  769THF     C811432   5.359   4.860   3.837 -0.1863 -0.3124 -1.0261
  769THF     C911433   5.350   4.977   3.737  0.0418 -0.6333 -0.2719
  769THF    H1011434   5.316   4.768   3.804 -0.8922  1.0940 -1.2077
  769THF    H1111435   5.457   4.839   3.875 -1.9626 -0.2586  0.7945
  769THF    H1211436   5.445   4.991   3.681  0.8960  0.5437 -0.1956
  769THF    H1311437   5.269   4.966   3.670 -0.5034 -1.7587 -1.6220
  770THF     O111438   2.596   2.870   2.383 -0.2082  0.0464  0.0134
  770THF     C211439   2.694   2.974   2.385  0.0431  0.6958 -0.2742
  770THF     C311440   2.513   2.882   2.266 -0.2919  0.2536 -0.1029
  770THF     H411441   2.781   2.945   2.315  2.7382  1.3105 -1.6747
  770THF     H511442   2.735   2.985   2.489 -1.9304 -1.6086  1.7103
  770THF     H611443   2.574   2.846   2.178 -1.4651 -1.2195  2.5285
  770THF     H711444   2.424   2.834   2.283  1.8630  3.4906  0.0637
  770THF     C811445   2.489   3.032   2.274  0.1703  1.1851  0.3605
  770THF     C911446   2.614   3.092   2.332  0.2282  0.1752 -0.0204
  770THF    H1011447   2.412   3.066   2.345  0.9729  2.1086  0.9295
  770THF    H1111448   2.462   3.070   2.174  3.3303 -1.7420 -0.8104
  770THF    H1211449   2.663   3.155   2.258  0.8784  1.3326  2.8273
  770THF    H1311450   2.582   3.171   2.408 -2.3278  2.6190  1.0290
  771THF     O111451   3.999   3.559   4.179  0.4928  0.5654  0.0769
  771THF     C211452   3.914   3.586   4.293  0.2655  0.2911  0.0988
  771THF     C311453   3.922   3.593   4.065 -0.1819  0.6727  0.5501
  771THF     H411454   3.977   3.606   4.382 -3.1750 -0.3270  2.2654
  771THF     H511455   3.838   3.507   4.309  0.2501 -2.3414 -0.9649
  771THF     H611456   3.979   3.589   3.975 -1.2764  0.2905  0.5876
  771THF     H711457   3.850   3.515   4.039  2.5503 -1.6232 -0.2955
  771THF     C811458   3.860   3.725   4.101  0.6893 -0.0496 -0.5558
  771THF     C911459   3.845   3.712   4.250  0.6744  0.2528 -0.2056
  771THF    H1011460   3.767   3.751   4.050  0.4750  0.3857 -0.4812
  771THF    H1111461   3.926   3.810   4.091 -2.4234  1.5659  0.8526
  771THF    H1211462   3.901   3.794   4.293  0.9733 -0.1110 -3.4073
  771THF    H1311463   3.742   3.727   4.291 -2.0925  0.5874  0.4724
  772THF     O111464   4.792   3.408   3.011 -0.1073  0.4183  0.1022
  772THF     C211465   4.812   3.265   2.996  0.1569  0.1354 -0.7752
  772THF     C311466   4.746   3.474   2.894  0.0598  0.1024  0.8707
  772THF     H411467   4.747   3.216   3.073  0.0954 -0.3090  2.1379
  772THF     H511468   4.913   3.230   3.006  0.0345  1.1536  0.2725
  772THF     H611469   4.698   3.567   2.908  1.2326 -1.9291  1.3241
  772THF     H711470   4.837   3.492   2.833  1.3870 -0.6816 -1.0932
  772THF     C811471   4.668   3.355   2.823  0.3738 -0.4206 -0.9136
  772THF     C911472   4.759   3.233   2.857 -0.1824  0.2381 -0.0134
  772THF    H1011473   4.668   3.357   2.715 -2.1792 -0.8460 -0.4609
  772THF    H1111474   4.573   3.321   2.863 -2.0378 -0.8718 -0.4391
  772THF    H1211475   4.699   3.145   2.856 -0.8263  1.5574 -2.6316
  772THF    H1311476   4.838   3.223   2.780 -3.6344  1.5203 -2.5722
  773THF     O111477   1.289   3.097   2.080  0.3579 -0.0060 -0.2049
  773THF     C211478   1.321   2.956   2.080  0.4355  0.7410 -0.4106
  773THF     C311479   1.147   3.113   2.108  0.0148  0.4089  0.0046
  773THF     H411480   1.377   2.934   2.164 -3.5341  0.7368 -0.2533
  773THF     H511481   1.391   2.939   2.001  1.4896  1.1501 -0.4552
  773THF     H611482   1.128   3.104   2.214 -2.8096 -0.6100  0.5185
  773THF     H711483   1.098   3.205   2.067 -0.4745 -0.1936  0.2221
  773THF     C811484   1.087   2.992   2.050 -0.1951 -0.1765  0.1931
  773THF     C911485   1.181   2.882   2.081  0.3385 -0.1310  0.1140
  773THF    H1011486   1.092   3.000   1.943  3.1385 -0.2962  0.2832
  773THF    H1111487   0.987   2.976   2.078 -3.7568  1.8599 -1.8336
  773THF    H1211488   1.164   2.832   2.175  1.9768  1.1961 -0.1781
  773THF    H1311489   1.168   2.806   2.001 -0.1256 -0.5571  0.6589
  774THF     O111490   1.575   2.079   5.324 -0.0188 -0.8143  0.3106
  774THF     C211491   1.508   2.093   5.451  0.4278 -0.8257 -0.3090
  774THF     C311492   1.609   1.939   5.306  0.2385 -0.3201 -0.1858
  774THF     H411493   1.419   2.146   5.436  0.8357 -1.8162  1.7662
  774THF     H511494   1.577   2.144   5.520 -0.7529 -0.2342  0.8426
  774THF     H611495   1.612   1.911   5.207 -1.7198 -1.4915 -0.4705
  774THF     H711496   1.704   1.920   5.355 -0.6303  1.7918 -2.6387
  774THF     C811497   1.509   1.852   5.385 -0.3204 -0.6145 -0.6126
  774THF     C911498   1.477   1.954   5.501  0.6351  0.8301 -0.0003
  774THF    H1011499   1.544   1.750   5.411 -3.3674  0.7086 -0.9854
  774THF    H1111500   1.417   1.837   5.331  1.0971 -1.3909 -0.5863
  774THF    H1211501   1.377   1.948   5.538 -0.5558  1.7462 -0.2484
  774THF    H1311502   1.550   1.919   5.570  1.6988  1.5080 -2.9027
  775THF     O111503   2.303   1.428   1.649 -0.6440 -0.0213 -0.2803
  775THF     C211504   2.420   1.356   1.658 -0.1467  0.8319  0.6601
  775THF     C311505   2.234   1.409   1.764  0.4514  0.2765  0.1636
  775THF     H411506   2.495   1.399   1.593 -0.5988  0.7967  1.9747
  775THF     H511507   2.411   1.254   1.626  0.5334  0.0800  0.3156
  775THF     H611508   2.156   1.486   1.785  0.4181  1.1070  1.8531
  775THF     H711509   2.184   1.308   1.749 -2.0253 -2.5179  0.0025
  775THF     C811510   2.342   1.407   1.872  0.1572  0.6755  0.3589
  775THF     C911511   2.464   1.349   1.810  0.1170 -0.2064  0.0039
  775THF    H1011512   2.304   1.348   1.957 -0.2022  0.0007  0.5040
  775THF    H1111513   2.374   1.503   1.897  0.0475 -3.6496  0.2498
  775THF    H1211514   2.554   1.411   1.827  1.9809  1.1808 -0.4885
  775THF    H1311515   2.473   1.249   1.844 -0.9775 -1.3197 -1.8302
  776THF     O111516   2.507   2.236   0.196 -0.3785  0.1052  0.5459
  776THF     C211517   2.472   2.138   0.288 -0.2664  0.1112  0.1287
  776THF     C311518   2.396   2.265   0.107 -0.1628 -0.1594  0.0917
  776THF     H411519   2.545   2.144   0.373  3.4602 -0.3559  2.7235
  776THF     H511520   2.475   2.044   0.240 -1.8532  1.7572  1.3074
  776THF     H611521   2.402   2.365   0.069 -0.6273 -1.6630  3.2053
  776THF     H711522   2.396   2.202   0.015 -2.8345  1.1250 -0.6968
  776THF     C811523   2.272   2.244   0.199  0.0382  0.2980  0.0205
  776THF     C911524   2.320   2.167   0.319 -0.6720 -0.0398  0.0357
  776THF    H1011525   2.193   2.184   0.156  0.6264 -0.9243  2.6273
  776THF    H1111526   2.235   2.340   0.232 -1.4021 -0.4581 -0.3655
  776THF    H1211527   2.310   2.222   0.412  0.9714  3.1192  1.9423
  776THF    H1311528   2.268   2.073   0.330  1.6633 -1.5912  1.6239
  777THF     O111529   3.445   3.204   1.921  0.5743  0.4106 -0.3948
  777THF     C211530   3.438   3.322   2.009 -0.7041  0.1743  0.2335
  777THF     C311531   3.513   3.238   1.801  0.5680  0.5053  0.4394
  777THF     H411532   3.532   3.354   2.059  4.1946 -2.9235  0.2957
  777THF     H511533   3.362   3.305   2.084 -0.4621  1.2494  3.4695
  777THF     H611534   3.621   3.244   1.830 -0.0753  0.6059  1.1496
  777THF     H711535   3.499   3.167   1.714 -1.2856  0.4813 -3.2241
  777THF     C811536   3.470   3.378   1.771  0.2278 -0.1509 -0.1262
  777THF     C911537   3.404   3.419   1.903  0.1476  0.0440 -0.4310
  777THF    H1011538   3.409   3.386   1.687 -0.5122  0.0773  0.2054
  777THF    H1111539   3.553   3.440   1.760 -1.4592  2.9584 -1.1994
  777THF    H1211540   3.439   3.520   1.920 -0.6939 -0.1231 -2.4798
  777THF    H1311541   3.295   3.414   1.883  0.0053  1.1845 -1.4468
  778THF     O111542   4.816   0.526   0.570 -0.3995 -0.2935  0.1186
  778THF     C211543   4.896   0.413   0.606  0.5180 -0.2456  0.2409
  778THF     C311544   4.685   0.482   0.556 -0.5417 -0.2038 -0.5251
  778THF     H411545   4.897   0.396   0.713 -0.4197  0.5093 -2.0955
  778THF     H511546   4.998   0.432   0.582  0.3865  1.7740 -2.2325
  778THF     H611547   4.646   0.493   0.657  3.0407  3.1691  2.0102
  778THF     H711548   4.630   0.537   0.480  0.6248 -3.3191  0.4801
  778THF     C811549   4.690   0.339   0.515 -0.9521  0.1211  0.0219
  778THF     C911550   4.835   0.294   0.533 -0.2920 -0.2339  0.1228
  778THF    H1011551   4.660   0.324   0.414  1.4901  0.1719 -0.8759
  778THF    H1111552   4.623   0.284   0.582  0.1729  1.0056 -0.2594
  778THF    H1211553   4.850   0.202   0.591 -0.3273 -1.3399 -0.8217
  778THF    H1311554   4.877   0.274   0.432  2.8672 -0.7868  2.2106
  779THF     O111555   5.015   3.682   0.456 -0.2022 -0.1549  0.2013
  779THF     C211556   4.906   3.601   0.488  0.1114  0.8618 -0.0823
  779THF     C311557   5.138   3.621   0.484 -0.4592  0.4667 -0.0026
  779THF     H411558   4.814   3.618   0.430 -1.7340 -2.7132 -1.6055
  779THF     H511559   4.896   3.608   0.593  1.0850 -0.5218 -3.1239
  779THF     H611560   5.202   3.671   0.414  2.3602  1.9647 -0.2352
  779THF     H711561   5.165   3.658   0.582 -0.1549 -0.1522  1.5665
  779THF     C811562   5.112   3.473   0.467  0.0863  0.1180  1.0463
  779THF     C911563   4.957   3.462   0.445  0.1338  0.2173 -0.1694
  779THF    H1011564   5.153   3.426   0.553 -2.5414  2.6871  0.3420
  779THF    H1111565   5.158   3.436   0.369  1.7521 -0.4497 -2.1238
  779THF    H1211566   4.929   3.449   0.343  0.3355  1.5091 -1.0759
  779THF    H1311567   4.925   3.379   0.513 -0.0288  0.7166  3.1454
  780THF     O111568   4.156   3.128   1.591  0.0299 -0.0832 -0.0112
  780THF     C211569   4.106   3.011   1.526 -0.1111  0.0621  0.0302
  780THF     C311570   4.052   3.205   1.651  0.1811 -0.5010  0.7570
  780THF     H411571   4.153   2.930   1.569 -0.8093 -0.0837  2.1466
  780THF     H511572   4.132   3.006   1.424 -2.8099  1.1952 -1.0237
  780THF     H611573   4.069   3.197   1.761 -1.2305  1.8891  1.7622
  780THF     H711574   4.042   3.316   1.632  0.7317 -3.2713 -1.3200
  780THF     C811575   3.921   3.144   1.591  0.3602  0.3292  0.3725
  780THF     C911576   3.957   2.999   1.551 -0.0638 -0.4184 -0.2068
  780THF    H1011577   3.902   3.197   1.499  0.9519  0.4865  0.8000
  780THF    H1111578   3.841   3.159   1.651  1.4988 -1.2789 -1.9363
  780THF    H1211579   3.943   2.935   1.634 -0.4991 -2.9928 -1.6058
  780THF    H1311580   3.911   2.958   1.460  2.4417 -0.4577 -1.5539
  781THF     O111581   2.974   3.868   1.867 -0.4266  0.4879  0.3288
  781THF     C211582   2.984   3.833   1.999 -0.6999 -0.0973  0.4994
  781THF     C311583   3.037   3.767   1.785 -0.3544 -0.7351  0.1394
  781THF     H411584   2.879   3.814   2.019 -1.5075  3.7396  1.0832
  781THF     H511585   3.014   3.916   2.068 -0.2222  1.6454  0.0676
  781THF     H611586   2.984   3.752   1.694  0.7158  1.1337 -0.6831
  781THF     H711587   3.138   3.806   1.768 -2.7952 -1.6338  3.1790
  781THF     C811588   3.055   3.646   1.875  0.2547  0.6143 -0.1321
  781THF     C911589   3.079   3.711   2.013 -0.2477 -0.2561  0.4067
  781THF    H1011590   3.152   3.593   1.842  0.2960 -2.1290  1.2217
  781THF    H1111591   2.963   3.587   1.884 -0.1148 -1.9431  0.4657
  781THF    H1211592   3.057   3.644   2.099 -2.3989 -2.0742 -0.4248
  781THF    H1311593   3.185   3.746   2.026 -3.0209 -0.4429 -0.0024
  782THF     O111594   2.500   5.328   4.730 -0.1645  0.1287 -0.4620
  782THF     C211595   2.526   5.214   4.806 -0.0045  0.1348  0.0328
  782THF     C311596   2.391   5.302   4.651  0.7239  0.3267  0.1200
  782THF     H411597   2.567   5.241   4.903  0.4727  0.4705  2.0531
  782THF     H511598   2.612   5.173   4.748  0.5652  0.9410  1.6976
  782THF     H611599   2.337   5.393   4.621  0.8912  1.3519  2.2346
  782THF     H711600   2.418   5.245   4.564 -0.7137 -1.2608  0.6036
  782THF     C811601   2.303   5.222   4.743 -0.5621 -0.8023  0.1756
  782THF     C911602   2.397   5.138   4.821 -0.9537 -1.0613 -0.2907
  782THF    H1011603   2.227   5.170   4.695  0.3198  0.6444  0.2798
  782THF    H1111604   2.242   5.290   4.811  0.4267 -0.9857  0.5162
  782THF    H1211605   2.364   5.129   4.924 -0.8902  3.2033 -0.2516
  782THF    H1311606   2.398   5.041   4.783 -1.6687  1.1539  0.6031
  783THF     O111607   1.001   2.410   5.370 -0.0831 -0.4566 -0.7372
  783THF     C211608   0.874   2.468   5.364  0.2452  0.0461  0.6047
  783THF     C311609   0.998   2.283   5.324 -0.4539  0.1664 -0.1076
  783THF     H411610   0.883   2.574   5.362  0.9736 -1.6242 -1.6552
  783THF     H511611   0.820   2.447   5.444  0.1985  0.7263 -1.0282
  783THF     H611612   1.100   2.256   5.304 -0.9913  1.8172 -0.6505
  783THF     H711613   0.953   2.222   5.401  1.3204  0.6395 -1.5198
  783THF     C811614   0.937   2.320   5.186  0.0512 -0.0234  0.1928
  783THF     C911615   0.824   2.408   5.230 -0.2207  0.6077 -0.6894
  783THF    H1011616   0.904   2.232   5.133  1.1747  0.6196  4.3203
  783THF    H1111617   1.018   2.373   5.131  0.0335  1.3762 -1.1175
  783THF    H1211618   0.811   2.487   5.161 -0.9204  1.2564 -2.1222
  783THF    H1311619   0.731   2.347   5.236  0.1436 -2.2591 -1.2157
  784THF     O111620   3.451   1.808   1.052 -0.1170  0.4823 -0.3678
  784THF     C211621   3.562   1.718   1.059  0.1919  0.2739 -0.2957
  784THF     C311622   3.492   1.917   0.972  1.2222  0.2735  0.0875
  784THF     H411623   3.539   1.617   1.100  0.4021  0.3777 -2.6381
  784THF     H511624   3.636   1.764   1.133 -1.3541  0.5949  0.9272
  784THF     H611625   3.399   1.957   0.942  1.5766 -0.7711 -0.4475
  784THF     H711626   3.547   1.991   1.029  2.1292 -3.2141  0.5664
  784THF     C811627   3.591   1.851   0.874  0.1753  0.1099  0.0226
  784THF     C911628   3.625   1.709   0.926 -0.5929 -0.0585  0.5607
  784THF    H1011629   3.676   1.907   0.843  0.5782 -1.4876 -3.6578
  784THF    H1111630   3.525   1.840   0.787  1.7763 -1.2953  0.4687
  784THF    H1211631   3.569   1.638   0.856  1.5960  0.5404 -1.9936
  784THF    H1311632   3.732   1.685   0.926  2.5699 -1.6977  1.4208
  785THF     O111633   3.650   1.770   2.120  0.1511 -0.0246 -0.1799
  785THF     C211634   3.754   1.745   2.023 -0.5383  0.3386  0.2312
  785THF     C311635   3.710   1.774   2.248 -0.2922 -0.0655 -1.0584
  785THF     H411636   3.821   1.830   2.010  0.4448  0.0513 -2.7983
  785THF     H511637   3.711   1.713   1.930  0.6225  1.4609  1.5942
  785THF     H611638   3.778   1.861   2.254  1.1256  0.3034 -1.2024
  785THF     H711639   3.645   1.760   2.331  0.0452 -1.4349 -0.9481
  785THF     C811640   3.799   1.659   2.245  0.2110  0.9293 -0.1017
  785THF     C911641   3.828   1.633   2.095 -0.0484  0.0872  0.0530
  785THF    H1011642   3.754   1.564   2.290 -1.4478 -0.1667 -1.1122
  785THF    H1111643   3.893   1.668   2.294 -0.3271 -0.4903  2.3496
  785THF    H1211644   3.938   1.636   2.081  2.8076 -0.8123 -1.5694
  785THF    H1311645   3.787   1.541   2.054 -3.3786  0.3582  2.2981
  786THF     O111646   2.000   1.367   0.428 -0.1413 -0.2971 -0.6654
  786THF     C211647   2.073   1.356   0.544  0.4742 -0.2141  0.0738
  786THF     C311648   2.019   1.243   0.363  0.4862 -0.1423  0.0897
  786THF     H411649   2.043   1.427   0.620  0.0559 -2.4460  0.6048
  786THF     H511650   2.176   1.373   0.526 -0.3896  2.9209 -0.1677
  786THF     H611651   1.944   1.236   0.283 -0.5882  0.2786 -0.9531
  786THF     H711652   2.113   1.249   0.317 -1.4801  3.3438 -0.7700
  786THF     C811653   2.016   1.137   0.476  0.1893 -0.5397  0.1645
  786THF     C911654   2.053   1.216   0.597 -0.0833 -0.2138 -0.2732
  786THF    H1011655   2.072   1.054   0.457 -0.8111  2.1976 -0.2542
  786THF    H1111656   1.912   1.113   0.488 -0.4717 -0.5396  1.1325
  786THF    H1211657   1.971   1.208   0.668  0.4495  2.0290  1.8588
  786THF    H1311658   2.144   1.184   0.642  0.3548 -2.5076 -0.5261
  787THF     O111659   2.171   3.021   1.184 -0.7926 -0.3089  0.2290
  787THF     C211660   2.052   2.992   1.107 -0.1674 -0.0868 -0.7238
  787THF     C311661   2.200   3.158   1.160 -1.1413 -0.2498  0.3369
  787THF     H411662   2.005   2.913   1.159 -1.2639  0.9836 -0.5486
  787THF     H511663   2.070   2.946   1.011  0.1314  2.1310 -0.7479
  787THF     H611664   2.267   3.203   1.231 -0.6794  4.1613  2.3060
  787THF     H711665   2.254   3.166   1.064  0.1299 -0.5610 -3.3955
  787THF     C811666   2.061   3.223   1.168 -0.0789 -0.6911 -0.8338
  787THF     C911667   1.974   3.123   1.089 -0.1175  0.1695  0.5989
  787THF    H1011668   2.044   3.332   1.137 -1.6302  0.4599 -0.1826
  787THF    H1111669   2.031   3.211   1.270  1.7843 -2.3535  0.8798
  787THF    H1211670   1.880   3.128   1.133  0.1268  1.3510 -0.5431
  787THF    H1311671   1.955   3.158   0.984 -0.0311  0.1847  1.3314
  788THF     O111672   0.638   1.030   0.553 -0.7499  0.5324 -0.1812
  788THF     C211673   0.504   1.074   0.540 -0.2611 -0.3341  0.4367
  788THF     C311674   0.728   1.126   0.515 -0.6952 -0.4511  0.0278
  788THF     H411675   0.438   1.021   0.603 -0.3225 -0.0828 -0.4400
  788THF     H511676   0.482   1.050   0.442 -0.1833 -1.5747  0.4408
  788THF     H611677   0.826   1.108   0.562 -0.0363  0.9706 -2.0011
  788THF     H711678   0.746   1.138   0.405  0.7488 -0.8415 -2.6384
  788THF     C811679   0.668   1.246   0.574  0.1398  0.8129  0.1229
  788THF     C911680   0.517   1.223   0.571  0.0999  0.1981 -0.3808
  788THF    H1011681   0.696   1.335   0.527 -0.4540  2.4851  2.4034
  788THF    H1111682   0.689   1.255   0.683  3.6606  0.9717 -0.1391
  788THF    H1211683   0.478   1.257   0.663 -0.5183  1.2847 -0.9677
  788THF    H1311684   0.471   1.293   0.503  0.4405 -0.3155  0.5884
  789THF     O111685   3.533   0.642   5.119 -0.3054 -0.5299  0.0819
  789THF     C211686   3.613   0.702   5.022  0.1671  1.5595 -0.2443
  789THF     C311687   3.478   0.745   5.207  0.6499 -0.7940  0.5338
  789THF     H411688   3.632   0.644   4.927  0.3325  1.9242 -0.4663
  789THF     H511689   3.716   0.702   5.072 -0.5162 -0.9243  2.3554
  789THF     H611690   3.397   0.709   5.266  0.6064  2.0353  2.0428
  789THF     H711691   3.549   0.781   5.280 -0.1875 -0.5289  0.5872
  789THF     C811692   3.441   0.846   5.106 -0.6245  0.1302 -0.1460
  789THF     C911693   3.552   0.838   5.000  0.3872 -0.1266 -0.6757
  789THF    H1011694   3.429   0.940   5.156  0.4618 -0.8424 -1.1443
  789THF    H1111695   3.340   0.825   5.065 -1.5479  0.1815  0.1618
  789THF    H1211696   3.522   0.862   4.895  2.0254 -0.9581 -0.3982
  789THF    H1311697   3.623   0.918   5.028 -0.4994  0.8174 -2.3040
  790THF     O111698   5.077   0.998   2.004 -0.4818  0.7386 -0.6360
  790THF     C211699   4.953   1.070   2.011 -0.3079 -0.1539  0.2967
  790THF     C311700   5.064   0.878   1.934 -0.0971 -0.6596  0.7401
  790THF     H411701   4.962   1.180   2.008  3.0932  1.6085 -0.5047
  790THF     H511702   4.899   1.047   2.097  1.1070  1.3811 -1.2444
  790THF     H611703   5.172   0.852   1.897 -2.5735  2.3108  0.1219
  790THF     H711704   5.014   0.800   1.996 -2.4153 -3.8854  0.0352
  790THF     C811705   4.974   0.917   1.812 -0.1605 -0.2718 -0.7453
  790THF     C911706   4.885   1.026   1.877 -1.0791  0.3171  0.4317
  790THF    H1011707   4.910   0.826   1.789 -0.9160 -1.2638  1.4468
  790THF    H1111708   5.041   0.960   1.735  0.6376 -0.5580 -0.7857
  790THF    H1211709   4.877   1.108   1.809 -2.8594 -0.5195  0.4996
  790THF    H1311710   4.787   0.988   1.880 -0.6817  0.8458 -1.2892
  791THF     O111711   4.558   0.860   4.825 -0.2630 -0.2380 -0.3212
  791THF     C211712   4.540   0.925   4.955 -0.0283 -0.2649 -0.8916
  791THF     C311713   4.452   0.770   4.805  0.1478  0.0939  0.7755
  791THF     H411714   4.483   1.010   4.931  1.0110 -0.6802  1.3268
  791THF     H511715   4.637   0.950   4.998  0.9930  1.7415 -1.4903
  791THF     H611716   4.399   0.820   4.721 -0.2159  1.2828  0.5041
  791THF     H711717   4.491   0.674   4.780 -0.3221 -1.3936  3.0813
  791THF     C811718   4.371   0.765   4.927 -0.6310 -0.1635 -0.9964
  791THF     C911719   4.454   0.845   5.036 -0.2307  0.8580 -0.0047
  791THF    H1011720   4.349   0.663   4.957  0.0223  0.3452  1.1231
  791THF    H1111721   4.288   0.819   4.892  0.1557 -0.9515  0.5021
  791THF    H1211722   4.398   0.902   5.108 -1.1717 -2.0696  1.7017
  791THF    H1311723   4.523   0.776   5.087 -0.3534 -0.3757 -2.7703
  792THF     O111724   1.880   4.053   2.692  0.7752 -0.8251  0.2487
  792THF     C211725   1.995   3.990   2.646  0.1276  0.2197 -0.5906
  792THF     C311726   1.915   4.197   2.685  0.4032 -0.3797 -0.2257
  792THF     H411727   1.999   3.966   2.540 -0.8792 -1.9076  3.3166
  792THF     H511728   2.000   3.896   2.703 -0.1162  0.2678 -0.8209
  792THF     H611729   1.929   4.240   2.590  0.2922  1.8221  1.9198
  792THF     H711730   1.864   4.271   2.737 -0.8780 -0.3960  0.9597
  792THF     C811731   2.049   4.202   2.748 -0.3793 -0.1987 -0.0962
  792THF     C911732   2.111   4.072   2.695  0.0756 -0.3139 -0.4458
  792THF    H1011733   2.038   4.186   2.856  0.7994  1.7672  1.8375
  792THF    H1111734   2.112   4.287   2.725 -0.5022  0.3498 -0.5419
  792THF    H1211735   2.180   4.083   2.615 -0.7958 -0.6482 -0.9608
  792THF    H1311736   2.157   4.021   2.781 -0.6147  1.8487 -1.2489
  793THF     O111737   4.078   4.707   5.333  0.5102  0.1876 -0.1040
  793THF     C211738   4.164   4.738   5.439  0.3764 -0.0815 -0.5973
  793THF     C311739   4.163   4.687   5.217  0.7194  0.6115 -0.4351
  793THF     H411740   4.163   4.663   5.514  0.8487 -1.2637 -1.7406
  793THF     H511741   4.149   4.835   5.482  2.0559  1.3691 -1.1994
  793THF     H611742   4.180   4.579   5.204 -0.2504  1.2607  0.3301
  793THF     H711743   4.110   4.725   5.127 -0.5287  2.6552  1.1517
  793THF     C811744   4.288   4.765   5.234 -0.4157 -0.0153 -0.5109
  793THF     C911745   4.307   4.744   5.384 -0.3347 -0.6428  0.1184
  793THF    H1011746   4.252   4.865   5.225 -0.7414  0.4347 -0.5303
  793THF    H1111747   4.367   4.744   5.157 -3.3112  0.3822  2.1379
  793THF    H1211748   4.371   4.669   5.409 -2.8738  2.6943 -0.4589
  793THF    H1311749   4.357   4.831   5.418  0.4258  0.1643  1.5107
  794THF     O111750   1.771   1.545   3.256  0.0918  0.4099  0.4062
  794THF     C211751   1.673   1.557   3.355  0.2520  0.1153 -0.9700
  794THF     C311752   1.789   1.669   3.185 -0.0777 -0.5035  0.5073
  794THF     H411753   1.669   1.477   3.423 -0.7638 -2.8613 -0.6342
  794THF     H511754   1.570   1.569   3.326  1.0334  1.7162 -1.7968
  794THF     H611755   1.891   1.686   3.160  2.6414  0.4501  1.6616
  794THF     H711756   1.740   1.676   3.089 -0.2532 -3.1532  0.8401
  794THF     C811757   1.729   1.780   3.277 -0.6816  0.1393 -0.3651
  794THF     C911758   1.712   1.694   3.404 -0.5448  0.0653  0.5456
  794THF    H1011759   1.630   1.809   3.237 -2.2415 -0.4125  0.1750
  794THF    H1111760   1.801   1.863   3.288  1.1314 -2.0098 -0.9871
  794THF    H1211761   1.800   1.690   3.464 -2.7946  0.9620  1.4409
  794THF    H1311762   1.629   1.726   3.464 -0.3430  0.9873  0.3352
  795THF     O111763   4.630   1.365   3.026  0.6099  0.6825  0.1511
  795THF     C211764   4.626   1.339   3.166  0.3406  0.3074  0.0594
  795THF     C311765   4.748   1.290   2.991  0.2385 -0.6752  0.0773
  795THF     H411766   4.535   1.382   3.201  0.1018  2.0593  0.7079
  795THF     H511767   4.709   1.394   3.215  0.1176  1.4484 -1.8506
  795THF     H611768   4.746   1.280   2.879 -0.6097 -1.3587 -0.1427
  795THF     H711769   4.830   1.355   3.017  0.5759  0.6576  0.7253
  795THF     C811770   4.735   1.153   3.054  0.2066 -0.7326  0.6429
  795THF     C911771   4.655   1.188   3.178 -0.1712 -0.3147 -0.1826
  795THF    H1011772   4.836   1.123   3.062  2.7290 -0.5026 -0.4223
  795THF    H1111773   4.683   1.081   2.995 -0.6102 -1.7293  1.3009
  795THF    H1211774   4.565   1.127   3.179  1.3207 -0.5008  0.5853
  795THF    H1311775   4.714   1.159   3.266  1.0115  0.3907  1.5926
  796THF     O111776   3.361   3.671   5.067  0.4816  0.3459 -0.0531
  796THF     C211777   3.480   3.632   5.136 -0.6645  0.6818  0.0422
  796THF     C311778   3.372   3.805   5.022 -0.1400  0.5465 -0.3823
  796THF     H411779   3.555   3.617   5.064  1.1719 -1.7634 -1.2921
  796THF     H511780   3.461   3.533   5.185  2.9752 -0.0227  0.9757
  796THF     H611781   3.411   3.802   4.918 -1.2397 -0.1302 -0.4758
  796THF     H711782   3.276   3.839   5.010  2.1154 -3.1083 -0.4837
  796THF     C811783   3.467   3.873   5.123 -0.5068 -0.2938 -0.4417
  796THF     C911784   3.505   3.760   5.216  0.1055 -0.0094  0.0821
  796THF    H1011785   3.424   3.954   5.182 -2.7952 -0.0705 -1.6288
  796THF    H1111786   3.558   3.912   5.078 -0.4515 -0.2842  0.4945
  796THF    H1211787   3.604   3.769   5.256 -2.2799 -1.0808 -2.1077
  796THF    H1311788   3.439   3.770   5.303  0.5441  0.6728 -1.0172
  797THF     O111789   3.924   5.131   0.905 -0.1584 -0.3581  0.7861
  797THF     C211790   3.797   5.130   0.843 -0.2050  0.0208 -0.1698
  797THF     C311791   3.908   5.188   1.035 -0.2175 -0.0106  0.6742
  797THF     H411792   3.730   5.060   0.887 -1.3092  1.6630 -2.9796
  797THF     H511793   3.813   5.111   0.735 -1.6931  1.0762 -1.1162
  797THF     H611794   3.859   5.112   1.103 -1.2029 -1.5672 -0.2501
  797THF     H711795   4.005   5.206   1.083 -0.7026 -1.1094 -2.1903
  797THF     C811796   3.816   5.313   0.997  0.1692 -0.1475  1.0525
  797THF     C911797   3.739   5.271   0.868  0.6604 -0.1193 -0.7282
  797THF    H1011798   3.885   5.390   0.971 -1.5141 -1.5169 -0.6127
  797THF    H1111799   3.753   5.341   1.082 -1.8930 -1.9497  3.3968
  797THF    H1211800   3.633   5.275   0.887  0.8193  0.3115  0.3516
  797THF    H1311801   3.766   5.348   0.796  0.5776 -0.2935 -1.7554
  798THF     O111802   4.741   4.897   0.650 -0.5888  0.4373 -0.0954
  798THF     C211803   4.777   5.008   0.730 -0.3011  0.1323 -0.4219
  798THF     C311804   4.640   4.829   0.722  1.1637 -0.3139 -0.4885
  798THF     H411805   4.846   5.080   0.690  1.8887  0.8985 -0.6221
  798THF     H511806   4.837   4.978   0.822 -0.6932  1.2775 -1.6666
  798THF     H611807   4.577   4.766   0.663  0.7442  2.4759 -0.1029
  798THF     H711808   4.689   4.768   0.798 -0.4936  2.5364  2.0207
  798THF     C811809   4.557   4.933   0.791 -0.7720  0.4732 -0.0541
  798THF     C911810   4.641   5.056   0.771 -0.0471  0.1966  0.6580
  798THF    H1011811   4.553   4.896   0.892 -0.9996 -2.2322  1.1961
  798THF    H1111812   4.461   4.925   0.747  2.4994  2.4354  1.1127
  798THF    H1211813   4.609   5.129   0.704 -1.3424 -1.7842  2.3597
  798THF    H1311814   4.635   5.118   0.865 -0.1662  3.8803  1.5612
  799THF     O111815   5.215   5.366   3.228 -0.4649 -0.0198 -0.6769
  799THF     C211816   5.135   5.293   3.325  0.2252 -0.0993 -0.6148
  799THF     C311817   5.252   5.275   3.117  0.2937 -0.6229  0.8986
  799THF     H411818   5.039   5.344   3.345 -0.3218  2.1888  0.1164
  799THF     H511819   5.183   5.271   3.416 -1.2577 -2.2280  1.6362
  799THF     H611820   5.258   5.323   3.021  3.5145 -0.5581 -0.2299
  799THF     H711821   5.340   5.218   3.152  2.5567  0.9795  2.2611
  799THF     C811822   5.146   5.172   3.111  0.3050  0.1673 -0.4814
  799THF     C911823   5.099   5.158   3.254 -0.9933 -0.8338  0.0061
  799THF    H1011824   5.180   5.086   3.055 -0.1684 -0.5002  1.1571
  799THF    H1111825   5.067   5.213   3.056 -1.6293 -2.6083  1.7692
  799THF    H1211826   4.994   5.137   3.268 -1.4933 -0.0318  1.4603
  799THF    H1311827   5.165   5.072   3.293  0.9169  0.0072  1.8938
  800THF     O111828   0.133   3.780   3.729  0.1236 -0.0458  0.2095
  800THF     C211829   0.164   3.677   3.809  0.5310  0.1638 -0.0339
  800THF     C311830   0.250   3.832   3.676  0.1231  0.1036 -0.2902
  800THF     H411831   0.195   3.595   3.753 -1.6061  2.0768  0.7359
  800THF     H511832   0.075   3.635   3.867  0.4431  0.0809 -0.1137
  800THF     H611833   0.272   3.782   3.588 -1.0293 -0.8535  0.2083
  800THF     H711834   0.228   3.932   3.654 -0.3331  0.0026 -3.3664
  800THF     C811835   0.354   3.808   3.780 -0.3775  0.2192  0.2377
  800THF     C911836   0.279   3.730   3.883 -0.1345 -0.4045 -0.8035
  800THF    H1011837   0.397   3.902   3.820  0.9989  1.3050  1.9068
  800THF    H1111838   0.437   3.753   3.730 -2.0275  0.4152 -0.8643
  800THF    H1211839   0.343   3.647   3.921  1.2467  0.7997  0.4014
  800THF    H1311840   0.249   3.799   3.963 -1.2829  0.9115  0.7485
  801THF     O111841   4.387   1.074   1.549  0.4775  0.1917  0.0669
  801THF     C211842   4.482   1.004   1.628 -0.1562  0.3320  0.0749
  801THF     C311843   4.389   1.024   1.415  0.4900 -0.1285 -0.1844
  801THF     H411844   4.441   0.997   1.733 -2.2328 -2.5694 -0.2564
  801THF     H511845   4.573   1.063   1.621 -1.3081 -1.1068 -1.2837
  801THF     H611846   4.302   1.051   1.360 -1.7414 -0.5955 -1.7025
  801THF     H711847   4.475   1.056   1.360 -1.3111 -0.3315 -1.1813
  801THF     C811848   4.408   0.874   1.438  0.4199  0.1681  0.7536
  801THF     C911849   4.492   0.867   1.565  0.3794  0.3682 -1.0679
  801THF    H1011850   4.451   0.814   1.354  0.3777 -0.6605  0.6828
  801THF    H1111851   4.310   0.842   1.470  3.0511  0.5139 -1.3115
  801THF    H1211852   4.454   0.802   1.645  2.1049  1.3590  1.6186
  801THF    H1311853   4.596   0.822   1.544  0.5962 -2.1516 -0.1455
  802THF     O111854   2.951   5.090   1.276 -0.3597 -0.1618 -0.5386
  802THF     C211855   3.054   5.106   1.381  0.3836 -0.1597  0.3452
  802THF     C311856   2.985   5.186   1.173  0.3187  0.3134 -0.1226
  802THF     H411857   3.141   5.033   1.351  1.1338 -1.7617  1.1687
  802THF     H511858   3.015   5.077   1.480 -1.4689 -0.6778 -2.9114
  802THF     H611859   3.026   5.133   1.085 -3.3082  1.2104 -1.3812
  802THF     H711860   2.889   5.241   1.153 -0.1073  0.9026 -2.0006
  802THF     C811861   3.083   5.282   1.231  0.3598 -0.3221 -0.0352
  802THF     C911862   3.091   5.256   1.377 -0.5733 -0.0380  0.4361
  802THF    H1011863   3.060   5.390   1.206 -3.0214 -1.5489  0.2330
  802THF    H1111864   3.178   5.262   1.190 -1.4949 -0.6133 -1.1322
  802THF    H1211865   3.193   5.274   1.418 -1.3121  0.4837 -1.4396
  802THF    H1311866   3.015   5.307   1.434  0.9756 -0.8177  2.8550
  803THF     O111867   2.468   4.103   2.051 -0.0151  0.7621  0.8168
  803THF     C211868   2.358   4.040   1.998 -0.4444  0.1064  0.7853
  803THF     C311869   2.567   4.012   2.088 -0.2174 -0.1528 -0.4624
  803THF     H411870   2.301   4.101   1.920 -0.9456 -0.0246 -1.1942
  803THF     H511871   2.293   4.008   2.082 -0.5075  3.4507  0.6228
  803THF     H611872   2.665   4.064   2.090  0.6398 -2.4506  0.2451
  803THF     H711873   2.538   3.983   2.191  0.9457  1.9568 -1.9095
  803THF     C811874   2.562   3.903   1.985 -0.8840  0.6675 -0.1136
  803THF     C911875   2.425   3.921   1.926 -0.6099 -0.8472  0.2057
  803THF    H1011876   2.567   3.807   2.036  0.9388 -1.0987 -1.3008
  803THF    H1111877   2.636   3.924   1.910  2.2343  2.0988  1.5094
  803THF    H1211878   2.425   3.939   1.820 -0.5734  0.5904 -1.1349
  803THF    H1311879   2.364   3.832   1.944  0.1770  0.8315 -0.9096
  804THF     O111880   1.812   5.175   5.272 -0.0909 -0.1150  0.1916
  804THF     C211881   1.744   5.166   5.398 -0.1266  0.1712  1.0574
  804THF     C311882   1.822   5.313   5.240 -0.1719  0.4132 -0.0818
  804THF     H411883   1.822   5.178   5.478  1.1675 -0.9265  0.5413
  804THF     H511884   1.705   5.069   5.409 -0.0449 -0.6343  1.4301
  804THF     H611885   1.933   5.319   5.237 -1.5146  0.4345 -3.0586
  804THF     H711886   1.778   5.312   5.133 -1.4409 -0.5874 -3.1977
  804THF     C811887   1.751   5.397   5.344  0.2027 -0.0495 -0.7482
  804THF     C911888   1.662   5.291   5.412  0.8903 -0.0437 -0.4482
  804THF    H1011889   1.688   5.469   5.298 -0.8114 -0.4912  2.3969
  804THF    H1111890   1.814   5.455   5.409  0.2596  0.5873 -1.2162
  804THF    H1211891   1.621   5.327   5.506 -0.9874  1.3250 -0.4509
  804THF    H1311892   1.578   5.281   5.347  0.6884 -1.5217 -0.0314
  805THF     O111893   4.984   4.363   1.662 -0.1956 -0.0672 -0.2544
  805THF     C211894   5.032   4.376   1.528 -0.6549 -0.7945  0.8691
  805THF     C311895   4.946   4.492   1.695  0.1805 -0.1916  0.4227
  805THF     H411896   4.953   4.402   1.457 -0.1426 -1.8797 -1.2856
  805THF     H511897   5.086   4.284   1.492  1.7920 -0.3621 -1.5275
  805THF     H611898   4.853   4.517   1.642  2.7261  2.2686 -1.2314
  805THF     H711899   4.912   4.486   1.796  0.5117 -0.0135  1.1616
  805THF     C811900   5.065   4.573   1.656 -0.8360 -0.1534  0.4463
  805THF     C911901   5.127   4.498   1.537  0.1763  1.6288  0.0715
  805THF    H1011902   5.133   4.571   1.737 -0.8999 -0.4491  1.3810
  805THF    H1111903   5.044   4.676   1.648  0.9461  0.5806  0.6242
  805THF    H1211904   5.146   4.551   1.447  2.3667 -0.0358  0.2147
  805THF    H1311905   5.221   4.466   1.571 -0.6984  2.6701 -1.7191
  806THF     O111906   3.327   1.247   1.491  0.2684 -0.2029 -0.1604
  806THF     C211907   3.442   1.335   1.481  0.1858  0.9234 -0.4391
  806THF     C311908   3.297   1.227   1.630 -0.2021 -0.4406 -1.0562
  806THF     H411909   3.420   1.424   1.429  0.7419  0.0821  1.0239
  806THF     H511910   3.523   1.290   1.422  1.0375 -0.8437 -1.5182
  806THF     H611911   3.191   1.217   1.657 -0.4509 -1.0272  4.3554
  806THF     H711912   3.349   1.136   1.681 -0.8854  0.7958 -0.7047
  806THF     C811913   3.352   1.350   1.690 -0.0078 -0.4572 -0.1604
  806THF     C911914   3.487   1.369   1.621  0.8503 -0.2730 -0.5170
  806THF    H1011915   3.368   1.326   1.793 -2.1384 -1.6069 -0.9605
  806THF    H1111916   3.287   1.438   1.671 -0.2112 -0.9012 -0.7930
  806THF    H1211917   3.537   1.471   1.622 -0.6201  1.9595 -1.6998
  806THF    H1311918   3.554   1.291   1.656 -1.9631  2.1774  0.7669
  807THF     O111919   2.131   4.853   0.286  0.4574  0.5074 -0.0264
  807THF     C211920   2.229   4.866   0.384 -0.8853 -0.2467  0.2236
  807THF     C311921   2.009   4.919   0.319 -0.5606  0.6454 -0.5970
  807THF     H411922   2.288   4.956   0.358  4.3833  1.1754 -0.9019
  807THF     H511923   2.290   4.779   0.399  2.6332  1.1250 -0.1296
  807THF     H611924   1.983   4.994   0.242 -1.2913  1.8884  0.8179
  807THF     H711925   1.930   4.848   0.325 -0.3035 -0.1735  2.3960
  807THF     C811926   2.038   4.983   0.459 -0.2110  0.0784  0.1767
  807THF     C911927   2.145   4.898   0.510  0.3441 -0.1203 -0.2375
  807THF    H1011928   1.937   4.967   0.517 -1.2135 -0.7887  0.7582
  807THF    H1111929   2.065   5.090   0.460  1.1606  0.3476 -0.0237
  807THF    H1211930   2.202   4.939   0.587 -1.0009  0.3646  0.4837
  807THF    H1311931   2.106   4.802   0.548  2.7475  0.9472  2.4970
  808THF     O111932   1.244   5.461   0.045 -0.2187  0.1688 -0.1491
  808THF     C211933   1.153   5.385   0.110 -0.2638  0.0730 -0.1200
  808THF     C311934   1.236   5.436  -0.091  0.7466  0.4293  0.0980
  808THF     H411935   1.053   5.430   0.094 -0.7131  1.0694 -0.0227
  808THF     H511936   1.173   5.376   0.221  1.7897  0.0841  1.8201
  808THF     H611937   1.165   5.503  -0.130  0.2667  0.3388  0.5521
  808THF     H711938   1.327   5.451  -0.149  0.8477  1.1703 -1.5935
  808THF     C811939   1.179   5.294  -0.105  0.2903  0.1277 -0.4794
  808THF     C911940   1.161   5.251   0.039  0.5967  0.1468 -0.6420
  808THF    H1011941   1.242   5.231  -0.162  1.6700 -1.8512  0.1498
  808THF    H1111942   1.082   5.306  -0.157 -0.3743  1.3285  1.9109
  808THF    H1211943   1.075   5.187   0.059 -0.4566  0.7986  2.5751
  808THF    H1311944   1.253   5.197   0.072  3.4676 -0.4261  1.9060
  809THF     O111945   4.168   0.600   2.448 -0.2949 -0.3523  0.0353
  809THF     C211946   4.061   0.656   2.378 -0.2594 -0.4089  0.4033
  809THF     C311947   4.199   0.677   2.564  0.1717  0.6081 -0.2294
  809THF     H411948   3.967   0.590   2.384 -0.1371  1.7431 -2.8311
  809THF     H511949   4.086   0.665   2.272 -1.9846 -2.0913 -1.4730
  809THF     H611950   4.128   0.648   2.644 -0.0196 -2.9153  1.1086
  809THF     H711951   4.302   0.661   2.602 -2.5143 -1.2006  0.8584
  809THF     C811952   4.166   0.817   2.510  0.2757 -0.0636 -0.3485
  809THF     C911953   4.036   0.795   2.444 -0.1109  0.0407  0.1284
  809THF    H1011954   4.241   0.839   2.439  3.0597 -3.6732  0.8979
  809THF    H1111955   4.166   0.899   2.589  0.6936  5.1417  0.8200
  809THF    H1211956   3.956   0.796   2.511  1.9421 -1.1900  1.8735
  809THF    H1311957   4.004   0.876   2.380  0.5794  1.4891  1.5089
  810THF     O111958   0.081   3.876   2.147 -0.4390  0.2029  0.0233
  810THF     C211959  -0.048   3.881   2.206 -0.5115 -0.3892  0.0796
  810THF     C311960   0.116   3.737   2.131 -0.7468 -0.3069 -0.1304
  810THF     H411961  -0.122   3.895   2.126 -0.0855  1.5139 -1.5288
  810THF     H511962  -0.063   3.965   2.273  1.2584  1.2633  0.8625
  810THF     H611963   0.062   3.715   2.040  0.1571  1.0882 -0.4840
  810THF     H711964   0.221   3.718   2.108  1.5623 -0.0230  1.8347
  810THF     C811965   0.057   3.664   2.247 -0.1359  0.2335  0.1336
  810THF     C911966  -0.068   3.748   2.279 -0.5042  0.5932  0.1919
  810THF    H1011967   0.112   3.662   2.342  1.1413 -0.3320  2.9421
  810THF    H1111968   0.030   3.559   2.222  0.3976 -0.8492 -2.3390
  810THF    H1211969  -0.155   3.709   2.237 -0.4115 -0.0824  2.6561
  810THF    H1311970  -0.098   3.758   2.383 -1.6758  1.1645  0.1829
  811THF     O111971   0.700   5.170   0.853  0.2411  0.4801  0.1264
  811THF     C211972   0.710   5.027   0.850  0.7845 -0.4252  0.0703
  811THF     C311973   0.795   5.224   0.931 -1.0010  0.0356  0.5696
  811THF     H411974   0.676   4.995   0.746  2.2591  0.2724 -0.8712
  811THF     H511975   0.658   4.983   0.928  0.6429  3.1666 -0.8576
  811THF     H611976   0.836   5.311   0.876 -3.0307 -1.4307 -1.4475
  811THF     H711977   0.760   5.256   1.026  0.1182  0.9743 -1.7954
  811THF     C811978   0.898   5.116   0.959 -0.0056  0.6845 -0.0196
  811THF     C911979   0.859   5.011   0.858 -0.0038  0.0102  0.1369
  811THF    H1011980   0.874   5.080   1.062  1.4336  0.3704  0.1430
  811THF    H1111981   0.999   5.149   0.941 -0.8829 -0.7257 -1.1685
  811THF    H1211982   0.897   5.031   0.760  1.1787 -1.4210  1.4202
  811THF    H1311983   0.897   4.912   0.884 -0.3253  1.9544  0.8362
  812THF     O111984   2.795   5.315   0.661 -0.4096 -0.3827 -0.3654
  812THF     C211985   2.909   5.325   0.750 -0.7457  0.1407  0.7576
  812THF     C311986   2.771   5.446   0.602  0.3840 -0.5674 -0.9064
  812THF     H411987   3.004   5.312   0.694 -0.8695  0.1307 -0.3000
  812THF     H511988   2.913   5.247   0.825 -3.3309 -1.6775  0.6882
  812THF     H611989   2.817   5.454   0.503  0.7808 -1.1148  1.9472
  812THF     H711990   2.663   5.466   0.590 -0.7072 -0.2950 -1.6247
  812THF     C811991   2.837   5.542   0.695  0.1553 -0.1173 -0.1646
  812THF     C911992   2.893   5.466   0.815  0.5387  0.5558  0.2639
  812THF    H1011993   2.771   5.622   0.722  1.1965  1.4955  2.0535
  812THF    H1111994   2.917   5.594   0.633  1.6652 -1.2481 -0.9670
  812THF    H1211995   2.975   5.506   0.865  0.3729 -1.7216  0.3239
  812THF    H1311996   2.809   5.485   0.885 -0.5689  2.2342  2.4279
  813THF     O111997   2.514   3.418   2.940  0.6950 -0.0499 -0.3521
  813THF     C211998   2.641   3.417   2.874  0.1903 -0.2525 -0.3550
  813THF     C311999   2.542   3.479   3.064  0.5372 -0.3042  0.1799
  813THF     H412000   2.629   3.390   2.769  0.4315 -2.7623 -2.7158
  813THF     H512001   2.715   3.340   2.921  0.0243  0.9834  0.8535
  813THF     H612002   2.456   3.527   3.109 -0.3702  0.4879  0.7979
  813THF     H712003   2.566   3.403   3.136  2.1246 -1.5013 -0.1418
  813THF     C812004   2.657   3.581   3.048 -0.2677  0.4809  0.3919
  813THF     C912005   2.702   3.554   2.908 -0.0145 -0.5817  0.1235
  813THF    H1012006   2.740   3.562   3.119 -0.4225 -1.8468  0.2302
  813THF    H1112007   2.616   3.680   3.060 -1.7864 -0.0610  0.4976
  813THF    H1212008   2.663   3.629   2.847 -0.1952 -1.4361  0.5210
  813THF    H1312009   2.813   3.560   2.887  0.9572 -2.3743  0.8144
  814THF     O112010   5.288   0.320   0.608  0.0183  0.0577 -0.0902
  814THF     C212011   5.261   0.199   0.678 -0.5240  0.4073 -0.1255
  814THF     C312012   5.386   0.273   0.515  0.6456 -0.0247 -0.1351
  814THF     H412013   5.179   0.143   0.635 -1.8743 -0.9629  0.3668
  814THF     H512014   5.224   0.228   0.770 -0.5270 -0.7819 -1.1361
  814THF     H612015   5.351   0.234   0.419  0.7102 -1.2317 -1.8155
  814THF     H712016   5.443   0.355   0.477  0.5676 -2.8378 -0.7321
  814THF     C812017   5.477   0.177   0.591 -0.3543  0.1190  0.0789
  814THF     C912018   5.385   0.119   0.692 -0.4768 -0.7711  0.4523
  814THF    H1012019   5.552   0.240   0.649 -0.0110  1.2126  0.0622
  814THF    H1112020   5.529   0.105   0.522 -1.8863 -0.6009 -2.5994
  814THF    H1212021   5.368   0.016   0.652 -0.3100 -1.1560 -0.1003
  814THF    H1312022   5.430   0.124   0.789  0.0692  0.0626 -1.1498
  815THF     O112023   3.363   2.303   5.410  0.1552 -0.1151  0.2268
  815THF     C212024   3.424   2.375   5.519  0.1511  0.3777  0.4009
  815THF     C312025   3.312   2.182   5.449 -0.1654  0.0382 -0.0344
  815THF     H412026   3.363   2.445   5.565  0.9171 -1.7730  0.4126
  815THF     H512027   3.513   2.419   5.479  0.3035  1.1067  3.7475
  815THF     H612028   3.204   2.196   5.428 -1.6616  1.0386  2.8853
  815THF     H712029   3.356   2.100   5.386  1.8337  0.6690  0.2126
  815THF     C812030   3.347   2.167   5.603  0.3954  0.1071 -0.2625
  815THF     C912031   3.455   2.266   5.623  0.2655 -0.3916 -0.0966
  815THF    H1012032   3.364   2.063   5.637 -1.5477  2.0914 -0.2418
  815THF    H1112033   3.254   2.189   5.650 -1.1334  1.2282 -1.1558
  815THF    H1212034   3.454   2.287   5.727  0.9374 -1.1681 -1.9442
  815THF    H1312035   3.555   2.230   5.609 -0.7292  1.9197  1.3041
  816THF     O112036   1.029   5.150   0.546 -0.0204 -0.3212 -0.1383
  816THF     C212037   0.923   5.113   0.462 -0.1695 -0.2867  0.4225
  816THF     C312038   1.147   5.182   0.478  0.3496  0.5150  0.0864
  816THF     H412039   0.887   5.194   0.408 -0.1615 -3.0283  0.8107
  816THF     H512040   0.858   5.064   0.528 -0.6292 -0.0712  0.2291
  816THF     H612041   1.137   5.279   0.435 -0.0248  0.0695 -1.7756
  816THF     H712042   1.237   5.187   0.541  3.2322 -0.1754 -0.8979
  816THF     C812043   1.143   5.078   0.368 -0.1436 -0.4691  0.7146
  816THF     C912044   1.000   5.015   0.377  0.2931 -0.0479  0.5566
  816THF    H1012045   1.218   5.003   0.385  0.3487 -2.9045  1.1711
  816THF    H1112046   1.152   5.126   0.273 -0.3521  0.2342  1.8101
  816THF    H1212047   0.957   4.991   0.278  1.9579  3.0374  1.0869
  816THF    H1312048   1.000   4.923   0.432  3.7805  1.0545  3.6103
  817THF     O112049   1.911   4.325   5.148 -0.1892  0.1353  0.5306
  817THF     C212050   1.981   4.379   5.258  0.4614  0.0052 -0.3344
  817THF     C312051   1.805   4.406   5.102 -0.1312  0.1783 -0.1669
  817THF     H412052   2.043   4.472   5.237  0.8223 -0.2733  1.5522
  817THF     H512053   2.041   4.303   5.305  0.9818 -1.8006 -3.0378
  817THF     H612054   1.837   4.506   5.069  1.2302  1.3942  3.4421
  817THF     H712055   1.739   4.357   5.022  0.2343  1.1735 -0.7677
  817THF     C812056   1.739   4.418   5.241 -0.3686  0.0959  0.0812
  817THF     C912057   1.861   4.416   5.336  0.0739  0.2496  0.4479
  817THF    H1012058   1.687   4.325   5.267  1.0993 -1.3662 -0.1181
  817THF    H1112059   1.678   4.505   5.242  1.2275 -1.0974 -3.2031
  817THF    H1212060   1.874   4.513   5.388 -2.6029  2.1713  0.1451
  817THF    H1312061   1.849   4.340   5.415 -1.2630  2.5595  2.0286
  818THF     O112062   1.183   3.339   1.247 -0.2843  0.2944 -0.1781
  818THF     C212063   1.166   3.466   1.185 -0.3117 -0.4123  0.2846
  818THF     C312064   1.061   3.271   1.235  0.2364  0.5462 -0.5440
  818THF     H412065   1.272   3.515   1.179  1.9345  0.2006  0.8801
  818THF     H512066   1.104   3.527   1.247  1.7979  0.9366  0.0688
  818THF     H612067   1.076   3.164   1.254  0.4160  1.3451  2.4982
  818THF     H712068   0.988   3.306   1.303 -0.1109 -1.3085 -2.4809
  818THF     C812069   1.013   3.307   1.097 -0.2205  0.4064  0.8321
  818THF     C912070   1.102   3.419   1.054 -0.5531  0.1415 -0.5480
  818THF    H1012071   0.908   3.326   1.094 -0.2941  0.0327  0.3449
  818THF    H1112072   1.033   3.230   1.030 -0.9555 -1.7765  0.0997
  818THF    H1212073   1.181   3.379   0.983 -1.0877 -2.9080  0.8214
  818THF    H1312074   1.055   3.511   1.012  1.1516  1.9929 -2.9878
  819THF     O112075   1.745   0.615   1.252 -0.0149 -0.2052 -0.3833
  819THF     C212076   1.884   0.589   1.226  0.0831  0.4150 -0.2925
  819THF     C312077   1.733   0.680   1.377  0.0067  0.2417  0.7435
  819THF     H412078   1.903   0.608   1.120 -2.1053 -0.8843  0.9778
  819THF     H512079   1.900   0.480   1.255 -0.6152 -1.0534 -1.3821
  819THF     H612080   1.640   0.731   1.370  1.7654  1.3324 -0.1340
  819THF     H712081   1.737   0.599   1.449 -1.1728 -0.7100 -2.1033
  819THF     C812082   1.859   0.768   1.396 -0.5665  0.1407 -0.0042
  819THF     C912083   1.963   0.681   1.318 -0.0690 -0.7128 -0.1439
  819THF    H1012084   1.891   0.781   1.494 -2.2222 -1.0675  0.8803
  819THF    H1112085   1.860   0.868   1.344 -4.5282  0.0408 -0.5350
  819THF    H1212086   2.030   0.748   1.270 -1.2895 -0.0971 -1.2615
  819THF    H1312087   2.021   0.625   1.395 -0.4824  1.0377 -0.9472
  820THF     O112088   2.657   0.401   2.429 -0.0021  0.5065 -0.2812
  820THF     C212089   2.555   0.298   2.407  0.1072 -0.0186  0.2354
  820THF     C312090   2.591   0.526   2.446 -0.8782 -0.5205  0.8224
  820THF     H412091   2.582   0.207   2.464 -0.0129 -1.2311  0.1141
  820THF     H512092   2.543   0.275   2.295 -0.4004 -0.8816  3.7211
  820THF     H612093   2.652   0.602   2.493 -1.2220 -0.2566 -0.6750
  820THF     H712094   2.556   0.566   2.354 -0.2647 -2.7745  1.0650
  820THF     C812095   2.469   0.483   2.531 -0.6071 -0.8058  0.0542
  820THF     C912096   2.426   0.351   2.472 -0.0725 -0.1098 -0.4695
  820THF    H1012097   2.397   0.558   2.539 -1.8958 -0.4269 -2.0795
  820THF    H1112098   2.493   0.464   2.630  0.3687  0.7089 -0.7656
  820THF    H1212099   2.376   0.279   2.531  2.6892  2.5680  3.0706
  820THF    H1312100   2.354   0.375   2.391  0.9598  4.7983  1.2995
  821THF     O112101   3.187   4.609   1.557  0.0132  0.2532 -0.3203
  821THF     C212102   3.295   4.682   1.510  0.8704  0.0907  0.7101
  821THF     C312103   3.090   4.605   1.449 -0.0556 -0.4518 -0.1227
  821THF     H412104   3.365   4.613   1.456 -0.8088 -0.2066  0.0223
  821THF     H512105   3.345   4.716   1.604  0.7348 -0.3891 -0.9949
  821THF     H612106   3.126   4.551   1.355  2.0406  0.6941 -0.7418
  821THF     H712107   2.999   4.567   1.490 -1.0332  3.0648  0.3722
  821THF     C812108   3.090   4.752   1.419  0.0561  0.5523 -0.4797
  821THF     C912109   3.235   4.790   1.419 -0.2471 -0.0525 -0.5562
  821THF    H1012110   3.032   4.820   1.483  3.8856 -0.8035  0.6405
  821THF    H1112111   3.039   4.760   1.320 -0.7140  1.4270 -0.2558
  821THF    H1212112   3.280   4.790   1.323 -1.2024  1.4793 -1.2647
  821THF    H1312113   3.244   4.887   1.465 -2.8389 -1.6755 -1.9884
  822THF     O112114   3.292   4.603   3.167 -0.6517  0.1468 -0.1254
  822THF     C212115   3.289   4.631   3.029 -0.7146 -0.9534  0.4441
  822THF     C312116   3.229   4.713   3.233  0.2041 -0.2302  0.7202
  822THF     H412117   3.200   4.573   2.982  0.3416  1.4757 -2.0005
  822THF     H512118   3.376   4.595   2.975 -2.4150 -0.8324 -0.9099
  822THF     H612119   3.125   4.688   3.247 -0.1840  2.6871  1.8203
  822THF     H712120   3.281   4.716   3.330  1.6881 -0.5214 -0.3732
  822THF     C812121   3.267   4.838   3.150 -0.4517  0.2663  1.1318
  822THF     C912122   3.265   4.785   3.011  0.6687  0.2800  0.1275
  822THF    H1012123   3.357   4.882   3.184 -1.5243 -0.0838 -1.3285
  822THF    H1112124   3.190   4.906   3.173 -0.7614 -1.2404  3.4060
  822THF    H1212125   3.171   4.804   2.956 -0.8275 -0.8048 -0.0865
  822THF    H1312126   3.350   4.827   2.961 -0.5890 -2.4396  0.7320
  823THF     O112127   0.627   3.038   5.026  0.1101 -0.8778 -0.4839
  823THF     C212128   0.743   2.976   5.076 -0.3798  0.0701  0.2716
  823THF     C312129   0.625   3.017   4.881  0.6143  0.1199  0.4594
  823THF     H412130   0.721   2.910   5.157  0.7158  0.2989 -3.3454
  823THF     H512131   0.821   3.048   5.099 -1.2226  0.4971 -0.3722
  823THF     H612132   0.522   3.005   4.842  0.5043 -0.3828  1.4718
  823THF     H712133   0.678   3.092   4.817  2.3725 -0.0806 -1.0096
  823THF     C812134   0.692   2.884   4.864  0.1776 -0.2020 -0.7161
  823THF     C912135   0.803   2.892   4.966 -0.4022  0.7394  0.2479
  823THF    H1012136   0.738   2.866   4.765  0.4397  0.6381  0.1071
  823THF    H1112137   0.620   2.809   4.888  2.4738  3.1521 -0.4591
  823THF    H1212138   0.841   2.791   4.994  2.4344 -1.1706  0.0113
  823THF    H1312139   0.887   2.939   4.920 -5.0680 -0.3045  2.4314
  824THF     O112140   1.966   0.044   2.330  0.1502  0.0355 -0.2055
  824THF     C212141   1.854  -0.001   2.248  0.1579 -0.0234  0.0702
  824THF     C312142   2.030  -0.070   2.386  0.1083  0.0038  0.3014
  824THF     H412143   1.871   0.047   2.146  1.7793  1.2013 -4.8942
  824THF     H512144   1.758   0.025   2.289 -0.2621 -0.3595 -0.2825
  824THF     H612145   2.112  -0.075   2.317 -0.4038  1.2953  1.7640
  824THF     H712146   2.064  -0.057   2.488 -0.3392 -1.4197  0.3849
  824THF     C812147   1.937  -0.191   2.374  0.4389 -0.6985 -0.6544
  824THF     C912148   1.867  -0.156   2.246  0.2039  0.4181  0.6491
  824THF    H1012149   1.864  -0.186   2.456 -2.7070 -0.1352 -1.4193
  824THF    H1112150   2.000  -0.285   2.379  1.7610  0.4059  0.8107
  824THF    H1212151   1.928  -0.190   2.155 -0.7936  1.6501 -1.6856
  824THF    H1312152   1.776  -0.210   2.237 -2.1565  0.4464 -2.2464
  825THF     O112153   4.523   4.016   2.877 -0.6219  0.0610  0.5696
  825THF     C212154   4.474   3.955   2.761  0.0500 -0.0824  0.0498
  825THF     C312155   4.417   4.095   2.942 -0.1693  0.3396 -0.4470
  825THF     H412156   4.443   3.858   2.793 -1.2378 -1.3658 -0.2344
  825THF     H512157   4.551   3.951   2.690 -1.6478  0.2291  2.2094
  825THF     H612158   4.414   4.080   3.046 -2.4359 -2.6277 -2.5042
  825THF     H712159   4.446   4.198   2.923 -0.0834 -2.8784 -0.7267
  825THF     C812160   4.291   4.059   2.867  0.7397  0.4098 -0.7892
  825THF     C912161   4.349   4.037   2.722 -0.2338 -0.5198 -0.6850
  825THF    H1012162   4.228   4.150   2.863  1.1515  0.8041  0.0063
  825THF    H1112163   4.232   3.981   2.918 -0.7019  0.0857 -1.0921
  825THF    H1212164   4.290   3.976   2.656  0.4058 -1.0184  0.4700
  825THF    H1312165   4.369   4.132   2.669  0.8040  0.4795 -1.3452
  826THF     O112166   2.005   4.842   1.462 -0.5801 -0.3304 -0.1633
  826THF     C212167   1.872   4.829   1.509 -0.3683  0.1867  0.3222
  826THF     C312168   2.086   4.798   1.567  0.0765 -0.2297 -0.4041
  826THF     H412169   1.837   4.728   1.503 -2.7059 -0.3206  0.0752
  826THF     H512170   1.809   4.883   1.441 -0.9188  2.8566 -1.5731
  826THF     H612171   2.078   4.692   1.550 -1.6649 -0.0771 -0.2798
  826THF     H712172   2.187   4.844   1.553 -0.0705 -0.5780 -2.8289
  826THF     C812173   2.020   4.835   1.696 -0.8036 -0.4759 -0.8195
  826THF     C912174   1.884   4.882   1.650  0.3556  0.3905  0.3963
  826THF    H1012175   2.071   4.913   1.749  1.4022  0.7104 -0.3099
  826THF    H1112176   2.000   4.757   1.767  0.7846  1.7433 -0.8917
  826THF    H1212177   1.811   4.854   1.724 -3.0790  0.9315  0.1015
  826THF    H1312178   1.888   4.991   1.645  0.2107  0.2852 -0.2333
  827THF     O112179   2.544   1.752   3.315 -0.0883 -0.0500  1.1440
  827THF     C212180   2.519   1.824   3.440  0.3137  0.1932  0.2494
  827THF     C312181   2.503   1.842   3.209  0.1649 -0.1722  0.2467
  827THF     H412182   2.604   1.806   3.502  3.1409 -2.2543  0.3175
  827THF     H512183   2.419   1.793   3.471  1.1733 -0.8248  1.6896
  827THF     H612184   2.557   1.829   3.112  0.3633  0.0284 -1.4130
  827THF     H712185   2.394   1.835   3.188 -1.5847  0.3398 -0.9915
  827THF     C812186   2.535   1.978   3.258 -0.3004  0.6196  0.1070
  827THF     C912187   2.526   1.971   3.402  0.5707  0.2735 -0.9281
  827THF    H1012188   2.466   2.049   3.225 -2.8054 -0.3141 -3.6387
  827THF    H1112189   2.632   2.015   3.220 -0.3602 -1.9668  1.0705
  827THF    H1212190   2.616   2.018   3.444 -0.9506  1.0246 -0.9821
  827THF    H1312191   2.444   2.033   3.439 -2.3594 -3.0325 -0.7299
  828THF     O112192   0.104   5.440   1.732  0.4439  0.0953 -0.2941
  828THF     C212193   0.206   5.517   1.678  0.1874  0.1770 -0.7964
  828THF     C312194  -0.004   5.518   1.773  0.0425  0.0416  0.4591
  828THF     H412195   0.212   5.489   1.573 -0.9185  3.1074 -1.2196
  828THF     H512196   0.310   5.511   1.722 -1.5269  0.9767 -1.3394
  828THF     H612197  -0.099   5.466   1.746 -1.1076  1.4227  1.4938
  828THF     H712198  -0.001   5.543   1.877  1.0399 -0.9426  1.3092
  828THF     C812199   0.007   5.643   1.687  0.4683  0.6875 -0.0374
  828THF     C912200   0.155   5.661   1.699  0.6899  0.5459  0.2426
  828THF    H1012201  -0.048   5.734   1.723  0.2475 -0.2591  4.1279
  828THF    H1112202  -0.023   5.616   1.582 -1.6330  0.5022  0.8890
  828THF    H1212203   0.193   5.724   1.616 -0.9782 -2.3988 -3.7518
  828THF    H1312204   0.196   5.700   1.792  0.0095 -1.3221 -2.0773
  829THF     O112205   0.946   1.332   4.161 -0.3184  0.7824  0.1672
  829THF     C212206   0.937   1.227   4.064  0.4571  0.8243  0.3259
  829THF     C312207   0.864   1.291   4.271 -0.3163 -0.2194 -0.4218
  829THF     H412208   1.009   1.152   4.084  0.8493  1.5366 -0.4379
  829THF     H512209   0.944   1.264   3.961 -1.8036  1.3524 -0.8486
  829THF     H612210   0.915   1.222   4.334  0.5497  1.1502  1.8834
  829THF     H712211   0.824   1.369   4.332 -1.1565  0.5242  1.3165
  829THF     C812212   0.740   1.236   4.194  0.4624  0.6383 -0.3230
  829THF     C912213   0.792   1.176   4.066 -0.3919 -0.2374 -0.1539
  829THF    H1012214   0.669   1.316   4.166 -0.0025  1.0026 -0.4382
  829THF    H1112215   0.671   1.165   4.242  1.6702 -0.7318 -4.1252
  829THF    H1212216   0.786   1.073   4.048 -1.1271 -0.4906 -1.4219
  829THF    H1312217   0.728   1.221   3.986  1.0100  1.7995 -0.3736
  830THF     O112218   3.913   3.777   1.341  0.5890  0.1595  0.5172
  830THF     C212219   3.891   3.703   1.460  0.3530 -0.1220  0.5916
  830THF     C312220   3.954   3.684   1.248  0.1609 -0.5938  0.2350
  830THF     H412221   3.804   3.636   1.444 -1.6460 -0.8666  1.6769
  830THF     H512222   3.863   3.757   1.550 -4.0049 -0.5735  0.4355
  830THF     H612223   3.868   3.631   1.207 -0.4090  3.3903  1.7275
  830THF     H712224   4.015   3.741   1.178  0.1891  0.7441  2.0879
  830THF     C812225   4.054   3.586   1.319  0.0700 -0.1547  0.1415
  830THF     C912226   4.012   3.608   1.467  0.4450 -0.2068  0.3990
  830THF    H1012227   4.155   3.625   1.313 -1.8946 -1.3072 -4.1646
  830THF    H1112228   4.052   3.471   1.289  0.6012 -0.2543 -0.1585
  830THF    H1212229   3.983   3.510   1.519  2.1697  1.0360  2.2491
  830THF    H1312230   4.098   3.641   1.521 -1.5510  2.4478 -0.3824
  831THF     O112231   0.812   0.040   0.924  0.4501 -0.1430  0.2506
  831THF     C212232   0.748   0.094   1.041 -0.8109 -0.2035  0.4245
  831THF     C312233   0.930   0.112   0.908  0.1416  0.5060  1.2411
  831THF     H412234   0.677   0.017   1.075  0.0907 -0.7515 -0.0419
  831THF     H512235   0.683   0.169   1.015 -0.1791 -0.4475 -0.2577
  831THF     H612236   0.997   0.060   0.840 -0.5593 -0.8166 -1.4770
  831THF     H712237   0.893   0.198   0.852 -0.9491 -0.1672  1.5670
  831THF     C812238   0.982   0.146   1.036 -0.3856  0.1752 -0.3440
  831THF     C912239   0.865   0.123   1.133 -0.0654 -0.2314 -0.4421
  831THF    H1012240   1.013   0.252   1.046  0.6746  1.3290  0.6709
  831THF    H1112241   1.056   0.079   1.054 -0.2034  3.0693 -1.0874
  831THF    H1212242   0.883   0.033   1.189 -0.0232 -1.4177 -3.4406
  831THF    H1312243   0.837   0.205   1.202 -1.8115  1.9563 -1.0341
  832THF     O112244   3.010   1.276   4.269 -0.3463  0.0397  0.5609
  832THF     C212245   3.014   1.421   4.263 -0.0569  0.4497  0.2497
  832THF     C312246   2.882   1.231   4.274 -0.8837 -0.3538 -0.3823
  832THF     H412247   3.020   1.455   4.157 -0.1206  1.2447 -0.6408
  832THF     H512248   3.103   1.467   4.310 -0.6041  0.1195 -0.3587
  832THF     H612249   2.848   1.174   4.185 -0.9234 -1.5790 -0.0728
  832THF     H712250   2.875   1.164   4.360  2.0319  0.8848  0.2468
  832THF     C812251   2.788   1.356   4.304  0.4434  0.3446  0.0285
  832THF     C912252   2.892   1.460   4.338 -0.4886 -1.3262  0.0136
  832THF    H1012253   2.724   1.340   4.388 -0.2717 -1.9044  1.3271
  832THF    H1112254   2.730   1.392   4.219  1.3178 -1.2907  1.2059
  832THF    H1212255   2.868   1.562   4.309  0.5790  1.2624 -1.2598
  832THF    H1312256   2.904   1.462   4.447 -2.8998  1.7154  1.5125
  833THF     O112257   3.822   5.165   5.342 -0.7812  0.0446 -0.4044
  833THF     C212258   3.787   5.143   5.475 -0.5914 -0.5452 -0.5191
  833THF     C312259   3.795   5.048   5.270 -0.1567  0.2795 -0.3575
  833THF     H412260   3.682   5.177   5.497 -3.3020  1.9750 -1.6150
  833THF     H512261   3.850   5.200   5.547 -2.0045  1.0364 -0.4638
  833THF     H612262   3.690   5.047   5.255 -2.0673 -1.0655  1.6428
  833THF     H712263   3.838   5.036   5.172 -1.1219  0.3753 -1.6911
  833THF     C812264   3.837   4.937   5.368 -0.0547 -0.4222  0.5012
  833THF     C912265   3.797   4.994   5.501  0.3569  0.3733  0.1754
  833THF    H1012266   3.949   4.918   5.375  0.2484  0.3421  0.5599
  833THF    H1112267   3.783   4.841   5.340 -1.9884 -0.5031 -0.5998
  833THF    H1212268   3.702   4.957   5.535 -0.0515 -0.4930  0.9985
  833THF    H1312269   3.875   4.974   5.574 -0.7974  1.0793 -2.7483
  834THF     O112270   1.303   2.238   0.586 -0.0880 -0.1599  0.0510
  834THF     C212271   1.275   2.170   0.707 -0.0656 -0.5058 -0.7488
  834THF     C312272   1.429   2.294   0.598 -0.1850  0.6711  0.0069
  834THF     H412273   1.189   2.096   0.706  0.5335  2.1047 -2.3607
  834THF     H512274   1.236   2.235   0.789  0.5183 -0.0276 -0.2679
  834THF     H612275   1.480   2.333   0.510 -0.2169  1.0664  2.4081
  834THF     H712276   1.417   2.376   0.660  0.9941  0.3126 -0.0041
  834THF     C812277   1.507   2.187   0.667 -0.4120  0.3818 -0.2813
  834THF     C912278   1.406   2.095   0.734 -0.1957 -0.0862 -0.5110
  834THF    H1012279   1.582   2.228   0.734 -0.4998  0.7427  0.3453
  834THF    H1112280   1.554   2.128   0.590  0.1123  0.9088  1.7717
  834THF    H1212281   1.414   1.997   0.685  1.4198  0.8616  1.2986
  834THF    H1312282   1.430   2.102   0.839  1.6212  4.4013  0.2865
  835THF     O112283   4.548   4.486   2.914  0.7696 -0.2620 -0.2214
  835THF     C212284   4.604   4.450   2.789  0.4610 -0.2891  0.4067
  835THF     C312285   4.628   4.570   2.994  0.1502  0.6315  0.2731
  835THF     H412286   4.537   4.441   2.709  1.5403 -0.5273  0.9689
  835THF     H512287   4.617   4.342   2.808 -2.5400  0.2102 -1.4311
  835THF     H612288   4.587   4.619   3.089  3.9035 -2.0445  1.2031
  835THF     H712289   4.705   4.512   3.048  1.9448  1.0005 -0.8982
  835THF     C812290   4.706   4.653   2.891 -0.2459 -0.4592 -0.5019
  835THF     C912291   4.729   4.539   2.785 -0.0384  0.3116 -0.5858
  835THF    H1012292   4.801   4.681   2.942 -0.9239  1.7968  0.5079
  835THF    H1112293   4.654   4.738   2.851  2.3247  0.1001 -0.6898
  835THF    H1212294   4.753   4.579   2.687  1.0683 -1.1308 -0.3869
  835THF    H1312295   4.817   4.477   2.807  1.6296 -0.3126 -0.2364
  836THF     O112296   4.689   4.753   3.786  0.5502  0.0461 -0.1501
  836THF     C212297   4.794   4.698   3.861  0.3104 -0.6081 -1.3274
  836THF     C312298   4.733   4.886   3.748  0.2166  0.7191 -0.5069
  836THF     H412299   4.788   4.588   3.860 -3.8217  0.8977  0.8518
  836THF     H512300   4.783   4.741   3.962  0.0943  0.4959 -1.3624
  836THF     H612301   4.694   4.923   3.655 -2.8623 -0.8398  2.2701
  836THF     H712302   4.692   4.952   3.825  3.0895  2.3046  1.1681
  836THF     C812303   4.888   4.884   3.754 -0.0519 -0.0485 -0.8512
  836THF     C912304   4.921   4.746   3.796  0.4426  0.5038 -0.4280
  836THF    H1012305   4.910   4.958   3.835 -2.0595  3.1614 -2.4532
  836THF    H1112306   4.949   4.921   3.673 -0.8369  1.9407  0.1874
  836THF    H1212307   4.935   4.696   3.701  1.7173  3.7986  2.2020
  836THF    H1312308   5.009   4.716   3.861  2.0933 -3.1895 -0.1409
  837THF     O112309   3.037   0.280   3.679  1.2918 -0.0527  0.4839
  837THF     C212310   3.173   0.328   3.673  0.5467  1.1633  0.0023
  837THF     C312311   2.997   0.226   3.550 -0.6117  0.0575  0.5412
  837THF     H412312   3.247   0.260   3.723 -2.4395 -0.3911 -2.5857
  837THF     H512313   3.186   0.425   3.717 -0.8337  6.0369  0.8302
  837THF     H612314   2.935   0.140   3.566 -0.8777  0.6677  0.9946
  837THF     H712315   2.947   0.309   3.497  0.7439  1.1987 -1.7443
  837THF     C812316   3.129   0.202   3.479 -0.1370  0.6141  0.8069
  837THF     C912317   3.221   0.311   3.531 -0.2230 -0.1685  0.2557
  837THF    H1012318   3.128   0.185   3.371 -0.1883 -0.4062  0.6382
  837THF    H1112319   3.179   0.105   3.505  1.4807 -0.6945  0.5528
  837THF    H1212320   3.327   0.284   3.522  1.7283 -1.2867  2.0142
  837THF    H1312321   3.206   0.404   3.473 -0.2385 -1.0091  0.4966
  838THF     O112322   4.489   5.133   4.261 -0.1884 -0.9800 -0.3969
  838THF     C212323   4.401   5.233   4.195  0.1564  0.8127  0.4781
  838THF     C312324   4.508   5.024   4.169  0.3800  0.2428 -0.8647
  838THF     H412325   4.448   5.314   4.136  1.5661 -0.9933 -1.3608
  838THF     H512326   4.343   5.279   4.277 -2.1035  0.3647  0.1288
  838THF     H612327   4.596   5.047   4.103 -0.8712 -3.7520  1.7857
  838THF     H712328   4.538   4.927   4.214 -0.8911  3.2525  1.6107
  838THF     C812329   4.382   5.023   4.078  0.2388 -0.9342  0.1451
  838THF     C912330   4.300   5.144   4.119  0.0201 -0.8762  0.3370
  838THF    H1012331   4.320   4.935   4.101 -1.5501  0.7834  2.8500
  838THF    H1112332   4.411   5.030   3.970 -1.4020  1.0771 -2.1132
  838THF    H1212333   4.241   5.182   4.038 -0.2284 -0.7998  1.6862
  838THF    H1312334   4.239   5.105   4.195  1.7887  4.1505  1.5572
  839THF     O112335   2.271   4.235   4.685  0.4610  0.4895 -0.4146
  839THF     C212336   2.350   4.126   4.650 -0.4749 -0.1485  0.7302
  839THF     C312337   2.280   4.254   4.822 -0.7707 -0.6869  0.0637
  839THF     H412338   2.457   4.150   4.653  5.8060 -0.5902  1.7179
  839THF     H512339   2.330   4.082   4.546  3.7441 -0.3894 -0.2687
  839THF     H612340   2.363   4.327   4.844 -1.1815  1.5560  0.1225
  839THF     H712341   2.184   4.302   4.860 -0.7066  1.0385 -0.2078
  839THF     C812342   2.303   4.114   4.876  0.4826 -0.4161 -0.1912
  839THF     C912343   2.319   4.021   4.756 -0.5563 -0.6472 -0.2210
  839THF    H1012344   2.225   4.102   4.947  0.7326 -1.4804 -0.6707
  839THF    H1112345   2.404   4.111   4.925 -0.9994  0.2434  1.5086
  839THF    H1212346   2.395   3.944   4.772 -2.5603 -1.9891  1.6126
  839THF    H1312347   2.217   3.984   4.757  1.4194 -0.8735 -1.9990
  840THF     O112348   4.841   5.435   0.786  0.5349 -0.0209 -0.6841
  840THF     C212349   4.949   5.398   0.700  0.3337 -0.0095  0.4548
  840THF     C312350   4.894   5.536   0.871 -0.7394  0.3659  0.8186
  840THF     H412351   4.955   5.472   0.621 -0.2590  0.7966 -0.2051
  840THF     H512352   4.936   5.307   0.639 -1.2855 -1.4215 -1.6075
  840THF     H612353   4.916   5.627   0.812  1.1871 -0.0197  0.1084
  840THF     H712354   4.822   5.560   0.946  1.2568  1.2471  0.6474
  840THF     C812355   5.028   5.479   0.916 -0.1627 -0.4046 -0.0816
  840THF     C912356   5.070   5.402   0.790  0.8087  0.2874 -0.1298
  840THF    H1012357   5.014   5.431   1.010  1.9499  0.8135 -2.6492
  840THF    H1112358   5.109   5.555   0.920  0.5437 -0.8328 -0.2116
  840THF    H1212359   5.156   5.445   0.744 -0.9869  3.9518 -1.3736
  840THF    H1312360   5.097   5.309   0.826  2.7381  2.6281 -1.5948
  841THF     O112361   1.966   4.510   1.860 -0.0278  0.5707 -0.9669
  841THF     C212362   1.902   4.448   1.747  0.3183  0.2621 -0.0442
  841THF     C312363   1.912   4.460   1.987  0.1282 -0.4699 -0.1133
  841THF     H412364   1.967   4.455   1.658  1.4614 -0.5069 -0.6817
  841THF     H512365   1.817   4.505   1.721  0.7336  0.2691 -0.5592
  841THF     H612366   1.978   4.466   2.071  0.2904  1.3198 -0.0606
  841THF     H712367   1.826   4.511   2.018  1.8138  0.8703  2.0971
  841THF     C812368   1.898   4.312   1.947  0.3190 -0.0238 -0.1371
  841THF     C912369   1.872   4.304   1.791 -0.1649  0.1848  0.5141
  841THF    H1012370   1.821   4.252   2.005  1.5877 -2.4469 -0.9353
  841THF    H1112371   1.996   4.267   1.969  0.5177  0.3563  0.9734
  841THF    H1212372   1.938   4.228   1.749 -0.2611  2.6755 -0.8389
  841THF    H1312373   1.766   4.285   1.787  1.4127  1.0691 -0.5873
  842THF     O112374   1.702   0.485   0.143 -0.1968 -0.2900 -0.0092
  842THF     C212375   1.733   0.411   0.254  0.0867  0.2562  0.2707
  842THF     C312376   1.773   0.608   0.156  0.3256  0.2866 -0.1614
  842THF     H412377   1.838   0.382   0.234  2.2777 -0.4643  2.2958
  842THF     H512378   1.669   0.328   0.275  2.3519  1.6651  1.2552
  842THF     H612379   1.878   0.590   0.127  0.8407  1.7122  0.4057
  842THF     H712380   1.727   0.674   0.086 -0.2957 -0.5331  0.2438
  842THF     C812381   1.770   0.650   0.307 -0.5530 -0.4897  0.0852
  842THF     C912382   1.718   0.520   0.364 -0.0409 -0.1158  0.5315
  842THF    H1012383   1.709   0.739   0.322 -0.9049  0.2944 -1.0184
  842THF    H1112384   1.870   0.657   0.357  0.3355  1.3666 -0.5477
  842THF    H1212385   1.767   0.495   0.456  0.7167  0.2920 -0.5219
  842THF    H1312386   1.610   0.522   0.376  1.6759 -3.0622  0.2588
  843THF     O112387   1.713   2.232   2.786 -0.2152 -0.4302  0.5415
  843THF     C212388   1.688   2.101   2.846  0.0173 -0.1898  0.5324
  843THF     C312389   1.686   2.325   2.890 -1.0830 -0.5332  0.1237
  843THF     H412390   1.762   2.020   2.833  1.6777 -0.0988  2.4498
  843THF     H512391   1.583   2.066   2.819 -2.3909 -1.8996 -0.4435
  843THF     H612392   1.732   2.422   2.866 -0.7684 -0.6986 -0.2088
  843THF     H712393   1.580   2.326   2.906  0.3055 -2.0753 -1.9147
  843THF     C812394   1.748   2.253   3.016 -0.5113  0.4072 -0.3778
  843THF     C912395   1.692   2.118   2.999 -0.0572  0.1962  0.2775
  843THF    H1012396   1.713   2.300   3.111 -0.9019 -1.1476 -1.6153
  843THF    H1112397   1.862   2.246   3.014 -1.0891  1.3430  0.2104
  843THF    H1212398   1.752   2.043   3.059 -1.1225  0.4353  2.1676
  843THF    H1312399   1.589   2.133   3.034  2.7186 -0.1618  0.3461
  844THF     O112400   2.714   4.362   3.324  0.2197  0.1841 -0.3134
  844THF     C212401   2.719   4.403   3.456 -0.7035  0.0958 -0.5215
  844THF     C312402   2.766   4.224   3.318  0.4214  0.5440  0.0098
  844THF     H412403   2.657   4.492   3.469  0.5510 -0.7555 -1.2446
  844THF     H512404   2.820   4.435   3.479 -0.0832  2.5033  1.3296
  844THF     H612405   2.741   4.174   3.219 -2.0368  1.1509 -0.2193
  844THF     H712406   2.877   4.223   3.330 -1.0872  3.2281  1.8743
  844THF     C812407   2.690   4.167   3.441  0.2049 -0.3584 -0.0211
  844THF     C912408   2.676   4.283   3.541  0.0462 -0.0515  0.1230
  844THF    H1012409   2.739   4.079   3.490  0.1549 -1.0306 -1.7973
  844THF    H1112410   2.592   4.141   3.410  2.8120 -1.2359  0.3415
  844THF    H1212411   2.571   4.295   3.566  3.1763  0.9168 -0.4317
  844THF    H1312412   2.747   4.284   3.632  0.6398 -1.8492 -1.0101
  845THF     O112413   3.541   2.310   4.744  0.2939 -0.4630  0.2079
  845THF     C212414   3.672   2.243   4.748 -0.5580 -0.8900 -0.2046
  845THF     C312415   3.448   2.209   4.764  1.0342 -0.7075 -0.5429
  845THF     H412416   3.700   2.211   4.849 -0.5752 -2.2322 -1.0728
  845THF     H512417   3.748   2.310   4.708  0.1641  0.5857  1.9369
  845THF     H612418   3.443   2.195   4.871 -0.5541  0.1929  0.5533
  845THF     H712419   3.351   2.248   4.720  0.2529 -0.8091 -2.2277
  845THF     C812420   3.506   2.080   4.701  0.3047 -0.1637 -0.7055
  845THF     C912421   3.645   2.124   4.659  0.2116 -0.4661 -0.5991
  845THF    H1012422   3.448   2.033   4.617  0.3632 -0.3965 -2.3187
  845THF    H1112423   3.508   1.997   4.772 -0.6947 -0.8444 -0.1969
  845THF    H1212424   3.725   2.044   4.653  1.6693 -1.7067 -1.5688
  845THF    H1312425   3.634   2.166   4.554  0.3916 -2.1601 -0.7805
  846THF     O112426   3.265   2.499   2.722 -0.2448 -0.1546 -0.3416
  846THF     C212427   3.185   2.617   2.715  0.4962  0.0733 -0.1087
  846THF     C312428   3.272   2.440   2.596  0.1034 -0.1116  0.2610
  846THF     H412429   3.244   2.702   2.676 -0.7628  0.3989 -1.1626
  846THF     H512430   3.159   2.639   2.817 -2.0551 -3.6524  1.2302
  846THF     H612431   3.348   2.486   2.529  1.8722 -0.7155  0.0788
  846THF     H712432   3.309   2.339   2.608 -1.6437  2.0364 -1.2555
  846THF     C812433   3.130   2.454   2.543 -0.4049  0.1088  0.8418
  846THF     C912434   3.070   2.562   2.624  0.7640  0.6771 -0.3364
  846THF    H1012435   3.080   2.363   2.575 -1.3077 -1.2554 -0.1076
  846THF    H1112436   3.123   2.479   2.434  2.2677  1.6391 -1.1473
  846THF    H1212437   3.046   2.649   2.564 -0.3716 -2.0980  2.7723
  846THF    H1312438   2.994   2.523   2.695  2.4542 -2.9439  0.1701
  847THF     O112439   3.755   1.274   2.545 -0.3644 -0.0281 -0.0186
  847THF     C212440   3.809   1.172   2.626 -0.1620 -0.0574  0.4326
  847THF     C312441   3.742   1.230   2.411  0.3914  0.0581  0.1298
  847THF     H412442   3.802   1.179   2.732 -4.1277 -2.2956  2.5102
  847THF     H512443   3.915   1.169   2.594 -0.3531  1.2282  1.6450
  847THF     H612444   3.664   1.284   2.360 -1.7248 -0.9794 -1.0941
  847THF     H712445   3.837   1.257   2.368 -0.2712 -3.4126  0.3808
  847THF     C812446   3.699   1.086   2.436 -0.2428 -0.6536  0.3961
  847THF     C912447   3.739   1.049   2.574  0.7093 -0.2704 -0.5049
  847THF    H1012448   3.720   1.022   2.352  2.4165  0.7152 -0.1758
  847THF    H1112449   3.587   1.093   2.448 -0.2983 -1.2477 -0.8397
  847THF    H1212450   3.653   1.043   2.633  4.1069 -0.4259  1.5626
  847THF    H1312451   3.801   0.957   2.579  1.0597  1.4236  0.9761
  848THF     O112452   3.417   5.414   0.199  0.0192 -0.9498 -0.3384
  848THF     C212453   3.280   5.404   0.161 -0.0453  0.0022  0.6029
  848THF     C312454   3.480   5.293   0.156 -0.1042  0.3274  0.8874
  848THF     H412455   3.260   5.422   0.057  1.9633  0.8991  2.8398
  848THF     H512456   3.228   5.470   0.231 -1.0821 -1.1278 -0.8332
  848THF     H612457   3.494   5.305   0.043 -2.2804  0.4338 -2.6408
  848THF     H712458   3.583   5.277   0.193  3.2841 -1.0697  0.6949
  848THF     C812459   3.374   5.194   0.206 -0.2344  0.7250 -0.4178
  848THF     C912460   3.239   5.261   0.209 -0.0952  0.4189 -0.7603
  848THF    H1012461   3.412   5.176   0.307  0.8878 -0.6712 -0.7070
  848THF    H1112462   3.367   5.100   0.153 -2.0597  0.5036 -1.4611
  848THF    H1212463   3.158   5.222   0.141  1.0181  0.1963 -2.2098
  848THF    H1312464   3.193   5.278   0.308 -0.5866  0.3319  0.5450
  849THF     O112465   1.427   4.407   3.019 -0.6060 -0.4381  0.0891
  849THF     C212466   1.362   4.402   3.144 -0.8919 -0.2442 -0.4752
  849THF     C312467   1.521   4.296   3.016  0.8233 -0.1688  0.2363
  849THF     H412468   1.269   4.460   3.145 -0.5716 -1.7695  1.6588
  849THF     H512469   1.426   4.446   3.216 -2.1859 -2.1649  0.5502
  849THF     H612470   1.545   4.273   2.914 -0.9018  1.6412  2.4936
  849THF     H712471   1.611   4.331   3.066  1.8183 -1.0509 -1.1666
  849THF     C812472   1.444   4.187   3.091 -0.8535 -0.3075  0.3112
  849THF     C912473   1.341   4.256   3.176 -0.7362  0.0775  0.1916
  849THF    H1012474   1.514   4.130   3.156 -2.5626  1.5357  0.0269
  849THF    H1112475   1.402   4.117   3.024  0.4830 -1.8505 -1.6430
  849THF    H1212476   1.240   4.223   3.150 -0.6364  1.5284  0.8186
  849THF    H1312477   1.349   4.240   3.283 -1.3688  1.9007  1.3469
  850THF     O112478   4.939   4.610   3.313 -0.3103  0.5725  0.1833
  850THF     C212479   4.966   4.697   3.425 -0.1814  0.4500 -0.3752
  850THF     C312480   4.959   4.680   3.192 -0.5531  1.0202  0.6442
  850THF     H412481   5.023   4.634   3.496  0.8706  2.1624  2.5394
  850THF     H512482   4.881   4.723   3.485 -0.1983  2.1186  0.4615
  850THF     H612483   4.978   4.598   3.110  1.8438 -0.8950 -1.6313
  850THF     H712484   4.869   4.743   3.166  0.2713 -1.0090  0.5886
  850THF     C812485   5.085   4.757   3.229  0.0523  0.4748 -1.0885
  850THF     C912486   5.054   4.810   3.371 -0.0391  0.1524  0.4024
  850THF    H1012487   5.106   4.831   3.153  2.0816 -0.6495 -0.7353
  850THF    H1112488   5.172   4.688   3.223 -1.2628  1.0107 -1.7233
  850THF    H1212489   5.141   4.804   3.446  0.5653 -0.1682  1.5362
  850THF    H1312490   4.993   4.901   3.397  2.2517 -0.6506  0.6447
  851THF     O112491   1.462   4.369   3.475 -0.6341  0.2318  0.2157
  851THF     C212492   1.520   4.333   3.601 -0.1201  0.5576 -0.1724
  851THF     C312493   1.379   4.478   3.504  0.5888  0.2267 -0.0589
  851THF     H412494   1.596   4.250   3.606  0.4710 -0.6503 -0.7001
  851THF     H512495   1.451   4.283   3.654 -0.7203  1.0449 -0.5823
  851THF     H612496   1.355   4.540   3.416  1.7239  2.4744  1.5508
  851THF     H712497   1.287   4.448   3.556  1.8124 -1.7333  0.3389
  851THF     C812498   1.459   4.556   3.611  0.1509 -0.7193  0.3291
  851THF     C912499   1.560   4.463   3.668 -0.2734 -0.0077  0.2934
  851THF    H1012500   1.389   4.606   3.680  1.7794 -2.1727 -1.9966
  851THF    H1112501   1.507   4.636   3.561 -0.2872  0.3480  2.2601
  851THF    H1212502   1.662   4.499   3.640 -1.2292  0.0987 -0.0909
  851THF    H1312503   1.551   4.458   3.778 -0.1871  0.3204  0.0114
  852THF     O112504   1.299   3.225   1.823 -0.7156 -0.4955  0.3406
  852THF     C212505   1.198   3.295   1.751 -0.5971 -0.0034  0.1970
  852THF     C312506   1.326   3.109   1.758  0.3383  0.3851 -0.6248
  852THF     H412507   1.189   3.395   1.790  0.8021  0.9508 -2.3947
  852THF     H512508   1.098   3.250   1.770 -1.4826 -0.1928 -1.0459
  852THF     H612509   1.428   3.076   1.770  1.5607  3.1867 -1.2087
  852THF     H712510   1.269   3.031   1.813 -0.9158  0.4774 -0.1893
  852THF     C812511   1.280   3.117   1.613 -0.7797 -0.1992  0.5938
  852THF     C912512   1.236   3.264   1.604  0.4942 -0.1723  0.6513
  852THF    H1012513   1.200   3.052   1.599  1.0476  2.2804  0.7746
  852THF    H1112514   1.345   3.083   1.531 -1.8172  2.2328 -0.1587
  852THF    H1212515   1.321   3.310   1.555  0.8018  0.5839 -0.8157
  852THF    H1312516   1.150   3.275   1.541 -0.7354  1.4989  1.8249
  853THF     O112517   2.316   4.401   3.687 -0.0900 -0.6993 -0.2182
  853THF     C212518   2.195   4.361   3.620  0.0361  0.5259 -0.4246
  853THF     C312519   2.300   4.539   3.701  0.0548 -0.0266  0.4555
  853THF     H412520   2.138   4.304   3.688  1.2626  1.1686 -0.9049
  853THF     H512521   2.235   4.316   3.527  0.9857  1.3648 -0.3828
  853THF     H612522   2.238   4.547   3.789  1.6144 -0.6051  1.7917
  853THF     H712523   2.398   4.583   3.721  1.6345  0.6213 -1.7259
  853THF     C812524   2.228   4.578   3.576  0.3507 -0.3830 -0.3031
  853THF     C912525   2.117   4.481   3.580  0.1162  0.1563  0.4702
  853THF    H1012526   2.299   4.551   3.495 -0.0647 -1.0450  1.4138
  853THF    H1112527   2.198   4.683   3.573  0.8094 -1.3645  0.9188
  853THF    H1212528   2.039   4.510   3.650  1.2578  1.2404 -0.5401
  853THF    H1312529   2.070   4.464   3.479 -1.0270 -0.8567  1.4690
  854THF     O112530   1.677   0.361   0.798  0.7047 -0.1772 -0.0656
  854THF     C212531   1.616   0.386   0.924 -0.5081  0.4854  0.2777
  854THF     C312532   1.815   0.328   0.799 -0.1834 -1.0739  0.2538
  854THF     H412533   1.515   0.343   0.946  1.7869 -0.3939  0.1992
  854THF     H512534   1.629   0.495   0.947  2.5977 -1.4985  1.4769
  854THF     H612535   1.824   0.233   0.748 -3.9732 -1.6890  2.0961
  854THF     H712536   1.888   0.404   0.755 -1.6200  0.6210 -1.7221
  854THF     C812537   1.843   0.311   0.946 -0.8760 -0.0106 -0.0896
  854THF     C912538   1.709   0.307   1.012  0.1993 -0.1390  0.9014
  854THF    H1012539   1.894   0.402   0.966  1.8075 -2.3313  1.7892
  854THF    H1112540   1.904   0.222   0.965 -1.1740 -1.0333  1.6957
  854THF    H1212541   1.676   0.208   1.015 -1.1299  1.3274 -0.5471
  854THF    H1312542   1.700   0.352   1.116 -0.6236  0.4566  1.4772
  855THF     O112543   1.632   2.628   1.899 -0.3025 -0.0526  0.1423
  855THF     C212544   1.644   2.503   1.951  0.0924 -0.3709 -0.6692
  855THF     C312545   1.760   2.685   1.900 -0.5592 -0.2264 -0.3735
  855THF     H412546   1.635   2.435   1.865  0.9879 -0.8897  0.1802
  855THF     H512547   1.553   2.478   2.012  2.1477  1.8505  0.8839
  855THF     H612548   1.787   2.745   1.810  0.4481 -2.0909 -2.0255
  855THF     H712549   1.764   2.760   1.978  0.2805  0.3813 -1.8924
  855THF     C812550   1.860   2.581   1.948  0.4987  0.8763  0.4162
  855THF     C912551   1.781   2.482   2.015 -0.1982  0.3876  0.0164
  855THF    H1012552   1.937   2.634   2.002  0.9554 -0.0267 -2.8600
  855THF    H1112553   1.910   2.535   1.863 -0.2137 -0.6196 -2.1945
  855THF    H1212554   1.820   2.379   2.008 -0.6228  0.5588  1.7838
  855THF    H1312555   1.765   2.500   2.123  0.5732 -0.2078  0.3337
  856THF     O112556   3.353   2.363   1.929 -0.4277  0.4545  0.6806
  856THF     C212557   3.255   2.301   1.845  0.0625  0.0171 -0.5019
  856THF     C312558   3.480   2.325   1.875  0.1818  0.0063 -0.3884
  856THF     H412559   3.159   2.345   1.857 -1.0286 -3.6500 -6.3710
  856THF     H512560   3.235   2.200   1.864 -1.8688  1.0766 -0.0455
  856THF     H612561   3.562   2.375   1.909 -2.4701  1.1448  1.3557
  856THF     H712562   3.495   2.222   1.900  1.4390  2.0246 -0.4735
  856THF     C812563   3.463   2.337   1.719 -0.4198 -0.6857  0.6897
  856THF     C912564   3.313   2.328   1.703  0.2396 -0.6716 -0.3747
  856THF    H1012565   3.516   2.267   1.658  0.5520 -0.2870  0.7922
  856THF    H1112566   3.499   2.437   1.700 -1.5260  0.7354  2.2735
  856THF    H1212567   3.282   2.426   1.659 -2.1309  0.9721  1.5112
  856THF    H1312568   3.291   2.247   1.629 -1.3916  0.8007 -1.8816
  857THF     O112569   0.156   4.335   2.935 -0.1882 -0.2631 -0.0166
  857THF     C212570   0.090   4.440   3.006 -0.2712  0.4411 -0.3251
  857THF     C312571   0.296   4.362   2.927 -0.0917  0.0761  0.4422
  857THF     H412572  -0.008   4.412   3.048 -0.2874  1.9762  0.3316
  857THF     H512573   0.067   4.533   2.947 -0.9068 -0.2114  1.7009
  857THF     H612574   0.359   4.280   2.897  0.9213  1.1197  0.9731
  857THF     H712575   0.326   4.445   2.866  2.5166 -0.3806  2.0555
  857THF     C812576   0.327   4.401   3.071 -0.8491 -0.2700 -0.3430
  857THF     C912577   0.201   4.468   3.113  0.7209 -0.3375  0.7567
  857THF    H1012578   0.420   4.464   3.072 -0.0407  2.5538 -1.8084
  857THF    H1112579   0.346   4.320   3.136  1.5682 -1.9002 -0.6847
  857THF    H1212580   0.167   4.447   3.216 -2.5076 -1.1407 -0.6060
  857THF    H1312581   0.218   4.576   3.108 -0.3020  0.8656 -4.6867
  858THF     O112582   1.835   4.998   2.278  0.6748 -0.3503  0.6319
  858THF     C212583   1.752   4.888   2.311  0.2851  0.4845  0.2905
  858THF     C312584   1.859   4.994   2.137 -0.4777  0.0079 -0.2528
  858THF     H412585   1.652   4.917   2.301 -0.7393  1.4657  0.2191
  858THF     H512586   1.783   4.856   2.422  2.2108  0.2739  0.1214
  858THF     H612587   1.771   5.051   2.093 -2.1211 -0.8139  2.7191
  858THF     H712588   1.959   5.043   2.122 -1.1541  4.9465  2.2892
  858THF     C812589   1.851   4.850   2.090 -0.1163  0.6795 -0.0121
  858THF     C912590   1.790   4.777   2.211  0.1058  1.2375 -0.3523
  858THF    H1012591   1.947   4.805   2.072 -0.7902 -0.1269 -1.3249
  858THF    H1112592   1.799   4.841   2.003  1.1046  3.0574  1.1657
  858THF    H1212593   1.696   4.736   2.176  0.9157  1.0139  0.8096
  858THF    H1312594   1.842   4.697   2.260 -0.3309 -0.6520  0.3518
  859THF     O112595   2.317   0.603   4.082 -0.8223  0.3687  0.2509
  859THF     C212596   2.311   0.733   4.024 -0.3434 -0.9928 -0.0209
  859THF     C312597   2.193   0.536   4.060  1.7344 -0.5849 -0.3987
  859THF     H412598   2.404   0.785   3.998  0.4806  1.2825  1.1885
  859THF     H512599   2.253   0.792   4.085  0.4055 -0.1811 -2.0537
  859THF     H612600   2.189   0.430   4.095  1.1988 -0.1497  0.8268
  859THF     H712601   2.105   0.580   4.101  1.5422 -3.4517 -0.1525
  859THF     C812602   2.181   0.561   3.908  0.1987  0.1021  0.1334
  859THF     C912603   2.243   0.696   3.891  1.1405  0.1516 -0.1249
  859THF    H1012604   2.074   0.559   3.885 -2.0783 -0.0476 -1.5158
  859THF    H1112605   2.229   0.489   3.843 -1.7213 -0.9256 -3.1388
  859THF    H1212606   2.311   0.708   3.806 -1.1526  0.0670 -1.1106
  859THF    H1312607   2.154   0.765   3.875 -0.7068  0.7230  1.8629
  860THF     O112608   3.541   0.027   5.195  0.1178 -0.4656  0.6953
  860THF     C212609   3.452   0.027   5.085  0.0231  0.1158 -0.3476
  860THF     C312610   3.513  -0.080   5.283 -0.3423  0.5731  0.4976
  860THF     H412611   3.502   0.016   4.988  0.5041 -2.5319 -2.1861
  860THF     H512612   3.391   0.116   5.081 -2.8698  1.1046  0.1484
  860THF     H612613   3.605  -0.114   5.327 -0.2603 -0.5246 -0.7470
  860THF     H712614   3.456  -0.029   5.359  0.4479 -0.2071  1.7298
  860THF     C812615   3.436  -0.184   5.206  0.2278  0.8407  0.3071
  860THF     C912616   3.365  -0.101   5.103  0.7606  0.5994  0.0974
  860THF    H1012617   3.382  -0.256   5.270  1.9954 -3.8774 -0.1604
  860THF    H1112618   3.509  -0.254   5.165 -1.2261 -2.7350  0.3573
  860THF    H1212619   3.326  -0.156   5.015  1.9510 -2.6808  1.8839
  860THF    H1312620   3.268  -0.066   5.145 -1.1491  2.7984  0.9762
  861THF     O112621   0.670   1.476   4.514 -0.0576 -0.4918  0.1906
  861THF     C212622   0.528   1.474   4.476  0.1030  0.0656  0.3246
  861THF     C312623   0.709   1.608   4.528  0.1543  0.5420  0.3386
  861THF     H412624   0.477   1.391   4.516 -0.0105 -0.1503  0.3684
  861THF     H512625   0.513   1.479   4.368 -0.1042 -1.2849  0.4933
  861THF     H612626   0.789   1.617   4.604 -0.1367 -1.1185  0.6579
  861THF     H712627   0.736   1.662   4.433 -0.0377  1.7086 -2.6276
  861THF     C812628   0.589   1.681   4.580 -0.2278  0.4807 -0.3763
  861THF     C912629   0.468   1.598   4.547  0.1952 -0.2247  0.5349
  861THF    H1012630   0.589   1.788   4.547  1.5160 -1.5413  1.9233
  861THF    H1112631   0.596   1.679   4.688  0.1895  0.3369  3.8882
  861THF    H1212632   0.403   1.589   4.636 -1.9118  0.6332 -1.1572
  861THF    H1312633   0.404   1.653   4.477 -0.7241 -0.2403  0.0466
  862THF     O112634   2.402   4.239   5.185 -0.0180  0.2710  0.3641
  862THF     C212635   2.373   4.188   5.320  0.5439 -0.0257  0.1859
  862THF     C312636   2.495   4.338   5.198 -0.4525  0.5642 -0.2173
  862THF     H412637   2.321   4.090   5.325 -1.4628 -0.0306 -1.6146
  862THF     H512638   2.306   4.266   5.351 -1.6035 -0.9728  1.9225
  862THF     H612639   2.538   4.352   5.099 -0.3590 -0.2056 -1.2961
  862THF     H712640   2.452   4.434   5.236 -0.4539  2.5800 -3.6822
  862THF     C812641   2.592   4.279   5.299  0.1163  0.2309  0.6784
  862THF     C912642   2.511   4.189   5.396 -0.2902  0.0665  0.2890
  862THF    H1012643   2.645   4.350   5.358 -1.7334 -2.2837 -3.0922
  862THF    H1112644   2.655   4.210   5.236  1.2853 -0.6317 -0.9059
  862THF    H1212645   2.559   4.091   5.387 -1.1627  0.6244 -1.8923
  862THF    H1312646   2.499   4.232   5.501  2.5729  1.1530  0.1878
  863THF     O112647   0.488   0.151   0.554  0.0111 -0.5177  0.4012
  863THF     C212648   0.495   0.152   0.692 -0.5573 -0.0327 -0.7006
  863THF     C312649   0.497   0.291   0.514  0.5340  0.0037 -0.5735
  863THF     H412650   0.532   0.058   0.741  1.4200  0.0050 -0.2126
  863THF     H512651   0.397   0.168   0.734  0.3195  1.1300 -1.6262
  863THF     H612652   0.513   0.299   0.407 -1.1138 -0.1138  0.9540
  863THF     H712653   0.409   0.349   0.538  1.0145  0.2033  2.6071
  863THF     C812654   0.609   0.337   0.601 -0.2815 -0.0580 -0.9514
  863THF     C912655   0.580   0.268   0.736 -0.7141  0.1735  0.2086
  863THF    H1012656   0.615   0.444   0.615  1.1343 -0.8487  1.5067
  863THF    H1112657   0.698   0.306   0.545 -0.4063 -0.7844 -0.4591
  863THF    H1212658   0.668   0.224   0.784 -0.4464  0.6260 -1.7203
  863THF    H1312659   0.532   0.336   0.810 -0.1119  0.7458 -1.2720
  864THF     O112660   2.078   3.880   0.846  0.6893 -0.1799 -0.1830
  864THF     C212661   2.044   3.978   0.744 -1.2593 -0.0910 -0.2348
  864THF     C312662   2.050   3.754   0.783 -0.2860  0.0500  0.1366
  864THF     H412663   2.094   4.076   0.762 -1.6177 -0.7647  1.9547
  864THF     H512664   1.937   4.009   0.735 -2.6304  0.5588 -0.0027
  864THF     H612665   2.128   3.686   0.818  2.3532  2.4808  0.1666
  864THF     H712666   1.960   3.707   0.819  0.9369  1.0556  1.6424
  864THF     C812667   2.067   3.774   0.630 -0.0679  0.2003 -0.7648
  864THF     C912668   2.083   3.917   0.609 -0.3406 -1.3589 -0.4586
  864THF    H1012669   1.978   3.735   0.580  1.5884 -4.2806  1.0568
  864THF    H1112670   2.148   3.712   0.586 -2.0119  0.5666  1.1907
  864THF    H1212671   2.187   3.935   0.586 -3.0789 -4.4315  0.6682
  864THF    H1312672   2.016   3.948   0.533  1.3863  0.8569 -1.8497
  865THF     O112673   3.320   1.651   0.026  0.4020  0.2998  0.2155
  865THF     C212674   3.260   1.779   0.024  0.2483  0.4137  0.8500
  865THF     C312675   3.225   1.542   0.008  0.5097 -0.3628 -0.1551
  865THF     H412676   3.279   1.812  -0.079  0.1241  2.4535 -0.1030
  865THF     H512677   3.310   1.851   0.092  1.9727 -0.9778  0.3640
  865THF     H612678   3.248   1.478  -0.074  0.6402 -0.6068 -0.8589
  865THF     H712679   3.221   1.487   0.104  1.6943  1.1800  1.0385
  865THF     C812680   3.085   1.612  -0.005 -0.3510 -0.2489  0.2178
  865THF     C912681   3.109   1.745   0.062  0.0715 -0.0631  1.0282
  865THF    H1012682   3.018   1.555   0.052  0.5052 -0.6435 -1.0229
  865THF    H1112683   3.045   1.615  -0.105  0.4459 -0.6011  0.7790
  865THF    H1212684   3.038   1.819   0.021 -1.3543  2.7264  0.3744
  865THF    H1312685   3.097   1.736   0.167  1.8033 -1.2884  0.5300
  866THF     O112686   5.470   2.614   2.595  0.4766  0.3995  0.0769
  866THF     C212687   5.456   2.694   2.483  0.1422  0.2107 -0.6468
  866THF     C312688   5.352   2.648   2.670  0.1623  0.1979  0.4829
  866THF     H412689   5.538   2.670   2.416  1.8243  2.4409 -1.6993
  866THF     H512690   5.475   2.798   2.516 -0.5196 -2.2858  1.0907
  866THF     H612691   5.341   2.576   2.757  0.5818  0.2568 -1.5179
  866THF     H712692   5.366   2.752   2.706 -0.3140  0.3566 -2.6428
  866THF     C812693   5.239   2.642   2.565 -0.3203  0.1229 -0.1163
  866THF     C912694   5.316   2.679   2.439 -0.3919  0.2573  0.8108
  866THF    H1012695   5.164   2.719   2.586  0.1242 -0.8108 -1.9262
  866THF    H1112696   5.197   2.539   2.556 -0.1800 -3.7155 -0.4509
  866THF    H1212697   5.317   2.599   2.370 -0.1437  1.8566  1.8199
  866THF    H1312698   5.284   2.764   2.378 -1.5908  0.4883 -2.6847
  867THF     O112699   2.378   2.292   1.063  0.0383 -0.2941  0.0848
  867THF     C212700   2.289   2.223   1.143  0.3076  0.8451  0.2009
  867THF     C312701   2.400   2.223   0.946 -0.2658 -0.0365 -0.8305
  867THF     H412702   2.188   2.235   1.108 -3.5830 -1.7028 -1.5473
  867THF     H512703   2.298   2.256   1.246 -1.0669  2.3006  2.1460
  867THF     H612704   2.350   2.278   0.866  1.9523  0.0188 -0.4644
  867THF     H712705   2.502   2.237   0.910  1.3995 -1.7498 -3.9693
  867THF     C812706   2.361   2.080   0.978  0.1867  0.2913  0.6742
  867THF     C912707   2.327   2.076   1.128 -0.3112 -0.8643 -0.0919
  867THF    H1012708   2.448   2.022   0.948  0.0141  1.2655 -0.3279
  867THF    H1112709   2.273   2.049   0.922  1.8342  0.4461  0.6329
  867THF    H1212710   2.250   2.000   1.143 -0.3952  1.1200  1.4472
  867THF    H1312711   2.419   2.064   1.184  0.2344 -0.0682 -0.3271
  868THF     O112712   3.091   0.831   0.740 -0.2067  0.2713  0.4166
  868THF     C212713   3.070   0.778   0.607 -0.1662  0.2162  0.2154
  868THF     C312714   2.970   0.812   0.807  0.7460  0.1238 -0.1760
  868THF     H412715   3.083   0.670   0.596 -1.0972  1.3373 -1.0667
  868THF     H512716   3.150   0.814   0.537  0.7432  1.8398  0.0292
  868THF     H612717   2.975   0.707   0.832  1.5729 -2.6763  3.3428
  868THF     H712718   2.970   0.858   0.908 -1.9971  2.9378  1.0800
  868THF     C812719   2.859   0.844   0.711 -0.1963 -0.7290 -1.1291
  868THF     C912720   2.925   0.825   0.576 -0.1655  0.2976  0.0798
  868THF    H1012721   2.822   0.947   0.726  0.2837  0.2647  0.3208
  868THF    H1112722   2.768   0.786   0.729  0.2128 -1.1830  1.1907
  868THF    H1212723   2.867   0.747   0.526  0.0194  1.8476  1.8746
  868THF    H1312724   2.920   0.913   0.519 -1.7710  1.9320 -1.8885
  869THF     O112725   4.214   1.137   4.301 -0.4264  0.4012 -0.2836
  869THF     C212726   4.224   1.016   4.224 -0.5104  0.5741  0.3406
  869THF     C312727   4.302   1.115   4.417 -0.3512  0.1249 -0.1068
  869THF     H412728   4.319   0.997   4.176 -2.0817 -3.1021  2.8621
  869THF     H512729   4.141   1.004   4.147  0.5271 -2.2565  0.1103
  869THF     H612730   4.400   1.138   4.384  0.7187  0.2830 -2.5908
  869THF     H712731   4.278   1.180   4.500 -1.6518  0.1852  0.3319
  869THF     C812732   4.275   0.969   4.462  0.1420 -0.2194  0.3078
  869THF     C912733   4.209   0.908   4.337  0.8160 -0.6170  0.8772
  869THF    H1012734   4.216   0.960   4.555  0.6363 -1.8295  0.7379
  869THF    H1112735   4.373   0.919   4.489  1.4664  0.3258  0.5809
  869THF    H1212736   4.265   0.813   4.314 -0.7573 -0.0250  0.2272
  869THF    H1312737   4.106   0.884   4.352  0.5043  0.0014 -1.7737
  870THF     O112738   0.062   2.284   0.675  0.3425  0.4797  0.1165
  870THF     C212739   0.161   2.340   0.764 -0.0969 -0.1458  0.6713
  870THF     C312740  -0.030   2.205   0.755 -0.1904 -0.4423 -0.1827
  870THF     H412741   0.191   2.434   0.720  1.2838 -0.5294  0.0545
  870THF     H512742   0.239   2.273   0.782 -2.5494  2.8434 -0.4286
  870THF     H612743  -0.129   2.239   0.724  2.6444  0.0600  2.2624
  870THF     H712744  -0.008   2.102   0.742  0.1867  0.6909 -1.8835
  870THF     C812745  -0.001   2.232   0.901  0.1449 -0.7455  0.2664
  870THF     C912746   0.083   2.357   0.886  0.3180  0.0302 -0.9158
  870THF    H1012747   0.063   2.154   0.948  1.0169  1.6187  3.9306
  870THF    H1112748  -0.089   2.253   0.964 -1.0284  2.4748 -0.9330
  870THF    H1212749   0.006   2.444   0.878 -1.7763 -1.5097 -1.6393
  870THF    H1312750   0.136   2.378   0.976 -1.8386 -1.2893  0.8171
  871THF     O112751   4.187   5.043   2.165 -0.1669 -0.0819  0.4056
  871THF     C212752   4.303   4.979   2.111 -0.1688 -0.6211 -0.1687
  871THF     C312753   4.185   5.183   2.127  0.8134  0.8047  0.4139
  871THF     H412754   4.264   4.929   2.022 -0.1102  0.2165 -1.0879
  871THF     H512755   4.339   4.906   2.176 -0.3701  1.2833  0.3114
  871THF     H612756   4.096   5.218   2.066 -0.1511  2.2658 -0.9083
  871THF     H712757   4.193   5.244   2.216 -1.1977 -1.4627 -0.0999
  871THF     C812758   4.306   5.206   2.036 -0.0183  0.8735 -0.4411
  871THF     C912759   4.403   5.087   2.075  0.1618 -0.1459  0.3336
  871THF    H1012760   4.351   5.308   2.032  0.1779  1.8388 -2.2061
  871THF    H1112761   4.273   5.192   1.930  0.2569  0.5602 -0.2671
  871THF    H1212762   4.470   5.051   1.998 -0.1232 -0.9687 -0.5771
  871THF    H1312763   4.465   5.115   2.166  2.9147 -0.5017 -1.6012
  872THF     O112764   3.993   4.304   1.005 -0.2070 -0.4631 -0.4923
  872THF     C212765   4.055   4.182   0.957  0.4613 -0.1697  0.2781
  872THF     C312766   3.986   4.286   1.143  0.1627  0.6420 -0.4979
  872THF     H412767   4.163   4.184   0.966 -1.0400  1.2800  2.2824
  872THF     H512768   4.028   4.173   0.846 -0.5345 -1.4093 -0.5419
  872THF     H612769   4.084   4.293   1.181 -0.9299  0.7052 -1.0976
  872THF     H712770   3.931   4.362   1.201 -2.6362  1.5033 -1.1250
  872THF     C812771   3.926   4.144   1.168 -0.0075  0.6414  0.1115
  872THF     C912772   3.985   4.070   1.046  0.2735 -0.3334  0.0766
  872THF    H1012773   3.816   4.129   1.160 -0.7711  1.7114 -1.7594
  872THF    H1112774   3.961   4.105   1.264  1.0883 -0.3426 -1.6363
  872THF    H1212775   4.054   4.003   1.095 -0.7713  1.4790 -1.5165
  872THF    H1312776   3.907   4.016   0.992  2.4960 -0.2715 -0.1845
  873THF     O112777   2.365   0.904   3.651  0.1659 -0.7265  0.0092
  873THF     C212778   2.494   0.866   3.690  0.1767  0.1194 -0.5704
  873THF     C312779   2.356   1.044   3.692  0.5444  0.6086 -1.2161
  873THF     H412780   2.552   0.853   3.600 -1.4235 -0.1482  3.0816
  873THF     H512781   2.501   0.766   3.742 -0.2590 -2.9894  0.4452
  873THF     H612782   2.304   1.107   3.616 -3.6592  3.4353  0.0697
  873THF     H712783   2.284   1.054   3.772  0.3597 -0.4822 -0.5923
  873THF     C812784   2.497   1.099   3.721  0.5833  0.2732 -0.4457
  873THF     C912785   2.560   0.973   3.778  0.1490  0.7169  0.1095
  873THF    H1012786   2.493   1.178   3.790 -0.8063 -1.1987 -0.2341
  873THF    H1112787   2.546   1.128   3.627  1.0346 -0.8095 -1.3157
  873THF    H1212788   2.666   0.965   3.774 -1.1920 -0.6671 -0.4974
  873THF    H1312789   2.533   0.960   3.883 -2.2604  1.3232 -0.1148
  874THF     O112790   0.247   1.721   1.736  0.7875  0.3811  0.6172
  874THF     C212791   0.348   1.622   1.716 -0.2513  0.1994 -0.1790
  874THF     C312792   0.148   1.667   1.815 -0.1102 -0.4362 -0.0530
  874THF     H412793   0.441   1.666   1.685 -1.4541  1.3493 -1.7100
  874THF     H512794   0.312   1.549   1.642 -0.7779 -1.3492  3.8802
  874THF     H612795   0.076   1.747   1.851 -0.4731  1.9124  2.8959
  874THF     H712796   0.091   1.595   1.760 -0.6913  1.1997 -0.1370
  874THF     C812797   0.223   1.588   1.920  0.9308  0.5040 -0.0567
  874THF     C912798   0.356   1.569   1.855 -0.7159  0.0062  0.3395
  874THF    H1012799   0.171   1.492   1.934 -0.9041  2.9698 -0.7264
  874THF    H1112800   0.227   1.642   2.017  0.0126 -1.2878  3.0242
  874THF    H1212801   0.431   1.636   1.894  1.8680 -0.5503 -0.9531
  874THF    H1312802   0.407   1.475   1.858 -1.2584 -0.4477 -0.5102
  875THF     O112803   1.948   4.062   4.858  0.4203 -0.3787  0.1759
  875THF     C212804   1.879   4.178   4.820  0.0246  0.2421 -0.3003
  875THF     C312805   1.858   3.959   4.877  0.0649 -0.5068  0.0901
  875THF     H412806   1.917   4.220   4.721  2.4334 -0.9637 -1.3294
  875THF     H512807   1.907   4.253   4.895  0.6665  2.0084  1.5505
  875THF     H612808   1.834   3.888   4.791  1.4343  0.4856 -0.6836
  875THF     H712809   1.903   3.897   4.954  0.4612  0.2967  0.5967
  875THF     C812810   1.738   4.033   4.920  0.6236 -0.1288  0.4646
  875THF     C912811   1.733   4.151   4.827 -0.4232  0.8059  0.6653
  875THF    H1012812   1.743   4.051   5.033 -0.0286  0.8382  0.0947
  875THF    H1112813   1.654   3.968   4.910 -1.1158  0.5511 -3.5327
  875THF    H1212814   1.701   4.116   4.728  2.7660 -1.0536  0.5177
  875THF    H1312815   1.668   4.233   4.853  0.6498 -1.5262 -1.0797
  876THF     O112816   2.135   5.288   0.854  0.2492 -0.3265  0.5008
  876THF     C212817   2.050   5.274   0.741 -0.1849 -0.1286 -0.2818
  876THF     C312818   2.062   5.305   0.979  0.9472 -0.2497 -0.1417
  876THF     H412819   2.028   5.175   0.728  0.8206  2.6486  1.2393
  876THF     H512820   2.097   5.301   0.651 -0.8432 -0.3740 -0.9683
  876THF     H612821   2.024   5.204   1.021 -1.3074 -1.1111  0.4114
  876THF     H712822   2.129   5.348   1.054  0.0529  1.1030 -1.6467
  876THF     C812823   1.953   5.394   0.930  1.1652  0.0933 -0.2018
  876THF     C912824   1.941   5.383   0.777 -0.4951 -0.3391 -0.1161
  876THF    H1012825   1.982   5.505   0.948  0.3373  0.8775  1.4766
  876THF    H1112826   1.857   5.371   0.981 -0.2396  1.9078 -3.1339
  876THF    H1212827   1.844   5.358   0.734 -0.4727  1.5648  1.1916
  876THF    H1312828   1.959   5.480   0.731 -1.6607  0.5823 -1.6678
  877THF     O112829   2.107   0.684   1.699  0.0569 -0.1902  0.1200
  877THF     C212830   2.206   0.699   1.798 -0.0510 -0.2655  0.8024
  877THF     C312831   1.995   0.623   1.774 -0.2939  0.5701  0.2468
  877THF     H412832   2.274   0.789   1.777 -1.4497  1.0878  0.4587
  877THF     H512833   2.260   0.609   1.825  1.8653  0.2432  0.7482
  877THF     H612834   1.904   0.621   1.713  1.9126 -0.5079  1.5805
  877THF     H712835   2.022   0.522   1.820 -1.1303  1.1836  1.7587
  877THF     C812836   1.981   0.722   1.885  0.2422 -0.5720 -0.2343
  877THF     C912837   2.123   0.746   1.923 -0.3159  0.9190 -0.0567
  877THF    H1012838   1.913   0.696   1.964 -2.9888  2.6385  1.8817
  877THF    H1112839   1.943   0.809   1.836  0.3240  0.0428  1.0014
  877THF    H1212840   2.137   0.854   1.943 -1.1665  2.1141 -0.2062
  877THF    H1312841   2.145   0.695   2.019  0.7403  2.7588  2.7216
  878THF     O112842   0.736   4.782   0.375  0.2988 -0.4645  0.5587
  878THF     C212843   0.647   4.877   0.310 -0.9460  0.3909 -0.4210
  878THF     C312844   0.800   4.720   0.266  0.3776 -0.5582 -0.6191
  878THF     H412845   0.709   4.960   0.285 -2.7485  0.2292 -4.0192
  878THF     H512846   0.578   4.920   0.387  2.0215 -2.5857 -0.3821
  878THF     H612847   0.891   4.777   0.241  0.2604 -2.0810  0.8033
  878THF     H712848   0.850   4.626   0.293  0.8271  0.7473  0.8268
  878THF     C812849   0.693   4.700   0.162 -0.3397 -0.0565 -0.4369
  878THF     C912850   0.588   4.806   0.192  0.3082 -0.3069 -0.3886
  878THF    H1012851   0.648   4.598   0.163  1.1281  0.4846  1.2305
  878THF    H1112852   0.735   4.716   0.066 -0.9704 -1.7879  0.6841
  878THF    H1212853   0.555   4.864   0.113  2.1682 -3.8754  0.5446
  878THF    H1312854   0.500   4.748   0.219 -0.4313 -0.5752 -0.2836
  879THF     O112855   3.679   0.301   4.457 -0.1835 -0.2018  0.0414
  879THF     C212856   3.606   0.417   4.396 -1.1978 -0.1420  0.2352
  879THF     C312857   3.776   0.262   4.358  0.3916 -0.3548  0.8485
  879THF     H412858   3.660   0.506   4.417  1.7747  1.1355 -0.9288
  879THF     H512859   3.501   0.422   4.439 -1.5990 -4.9687  1.2270
  879THF     H612860   3.851   0.345   4.350  0.1223  1.6488  0.4170
  879THF     H712861   3.817   0.166   4.378  0.4909 -1.1219 -1.6084
  879THF     C812862   3.700   0.276   4.229  0.6663  0.7035 -0.0008
  879THF     C912863   3.600   0.389   4.250  0.4443 -0.0936 -0.0532
  879THF    H1012864   3.653   0.185   4.204 -1.7894  1.5586 -1.4487
  879THF    H1112865   3.765   0.304   4.148  0.0279  0.8293  0.5320
  879THF    H1212866   3.626   0.471   4.183 -0.7975 -1.7969 -1.7136
  879THF    H1312867   3.501   0.357   4.228  1.4709 -0.0747  3.1721
  880THF     O112868   2.276   4.733   3.133 -0.5684  0.1606  0.1797
  880THF     C212869   2.360   4.628   3.116 -0.2111  0.2441  0.9330
  880THF     C312870   2.172   4.724   3.048 -0.1216 -0.2152  0.5414
  880THF     H412871   2.435   4.615   3.199  0.1548  0.4128 -0.7177
  880THF     H512872   2.421   4.631   3.025  2.3208  0.7703  3.0120
  880THF     H612873   2.093   4.800   3.047  1.8638 -0.1226  0.3886
  880THF     H712874   2.201   4.734   2.944 -0.4046  0.7163 -1.4721
  880THF     C812875   2.120   4.585   3.086  0.5922 -0.1520 -0.7249
  880THF     C912876   2.254   4.511   3.102 -0.2810  0.4180  0.1099
  880THF    H1012877   2.066   4.537   3.008 -3.0458  1.1838 -2.3641
  880THF    H1112878   2.067   4.576   3.181 -3.2159 -3.2389  1.6372
  880THF    H1212879   2.250   4.457   3.191 -1.6728  1.1132 -0.2714
  880THF    H1312880   2.264   4.440   3.020  0.5024 -0.2709  0.6088
  881THF     O112881   2.640   4.035   2.890 -0.4499  0.9562 -0.6274
  881THF     C212882   2.647   4.086   2.757 -0.5529  0.1354 -0.1770
  881THF     C312883   2.541   4.110   2.960 -0.1578  0.8633  0.1247
  881THF     H412884   2.690   4.010   2.691  3.0239 -2.2055  1.1625
  881THF     H512885   2.708   4.176   2.750  0.8527 -0.8061 -1.7365
  881THF     H612886   2.489   4.050   3.033  0.1817  1.1331 -1.3537
  881THF     H712887   2.589   4.198   3.012 -0.6338  1.2324  0.9334
  881THF     C812888   2.439   4.151   2.852  0.0434 -0.2649  0.2923
  881THF     C912889   2.508   4.119   2.725 -0.6099 -0.6998 -0.2940
  881THF    H1012890   2.418   4.258   2.854 -0.1002 -1.3222 -0.9077
  881THF    H1112891   2.347   4.091   2.864 -1.4941 -1.0357 -1.3783
  881THF    H1212892   2.441   4.041   2.680  1.4218  1.7973  0.7249
  881THF    H1312893   2.509   4.198   2.655  1.5111  0.6953  3.1656
  882THF     O112894   2.021   4.441   0.128 -0.4970 -0.0870  0.8053
  882THF     C212895   2.137   4.365   0.161 -0.0474 -0.4307 -0.2208
  882THF     C312896   2.065   4.573   0.127  0.0017  0.0616 -0.1708
  882THF     H412897   2.119   4.268   0.126  1.6128  4.2986  0.0524
  882THF     H512898   2.152   4.363   0.268  0.1419  2.1652  0.1839
  882THF     H612899   2.000   4.648   0.090 -1.9998 -0.5440 -0.2095
  882THF     H712900   2.088   4.599   0.226  1.7801  1.3599  0.3024
  882THF     C812901   2.197   4.577   0.054  0.4052 -0.3388 -0.3359
  882THF     C912902   2.256   4.442   0.096 -0.4336 -0.4762 -0.4556
  882THF    H1012903   2.269   4.667   0.070 -1.6321 -0.3831  0.9039
  882THF    H1112904   2.178   4.573  -0.048 -1.9137  0.0910  3.7533
  882THF    H1212905   2.277   4.385   0.004  0.0276 -0.9359  0.4865
  882THF    H1312906   2.349   4.453   0.158 -0.4768  1.1747 -0.2225
  883THF     O112907   1.480   5.307   1.086  0.3291  0.5499  0.4053
  883THF     C212908   1.412   5.281   1.211 -0.2613  0.3290  0.6156
  883THF     C312909   1.378   5.350   0.991 -0.3262 -0.2954  0.4887
  883THF     H412910   1.384   5.374   1.258  0.8087 -2.2430 -2.2922
  883THF     H512911   1.479   5.228   1.270 -0.5836 -0.4065  0.3327
  883THF     H612912   1.361   5.460   1.004  0.1960  1.9114 -1.7022
  883THF     H712913   1.416   5.346   0.890 -2.1583 -0.7973 -0.3392
  883THF     C812914   1.256   5.265   1.022 -0.1435  0.0532  0.2049
  883THF     C912915   1.284   5.209   1.165  0.5017  0.1075 -0.2987
  883THF    H1012916   1.244   5.189   0.953  0.0740 -0.4179 -0.5864
  883THF    H1112917   1.159   5.317   1.022 -0.7116 -1.8137  3.5487
  883THF    H1212918   1.198   5.234   1.227  1.8504  0.7690 -0.6059
  883THF    H1312919   1.304   5.105   1.166  1.1822  0.1047 -0.5771
  884THF     O112920   1.771   0.891   0.874 -0.8934  0.0949 -0.8588
  884THF     C212921   1.819   0.793   0.964 -0.7443  0.8521  0.1356
  884THF     C312922   1.889   0.948   0.804 -0.4093 -0.7488  0.3126
  884THF     H412923   1.849   0.697   0.919 -0.6888  0.8467  0.4855
  884THF     H512924   1.746   0.769   1.045  0.3550  1.7494  2.2225
  884THF     H612925   1.905   0.895   0.711 -0.1973 -0.4718  1.4331
  884THF     H712926   1.867   1.058   0.789 -0.8262  2.1828 -1.6639
  884THF     C812927   2.007   0.930   0.906  0.1159  0.0829  0.3746
  884THF     C912928   1.943   0.871   1.025 -0.4605  0.2633  0.2206
  884THF    H1012929   2.059   1.025   0.939  1.2444  0.5382  1.0471
  884THF    H1112930   2.088   0.870   0.864 -2.6841 -1.1342  0.7141
  884THF    H1212931   2.017   0.808   1.076  1.8122  1.2327  2.3027
  884THF    H1312932   1.899   0.955   1.084 -1.1667  2.7290 -1.5243
  885THF     O112933   2.372   0.077   3.427 -0.7296 -0.1321 -0.1631
  885THF     C212934   2.295  -0.010   3.516  0.2121 -0.3642  0.7817
  885THF     C312935   2.342   0.027   3.300 -0.2172 -0.7965  0.2734
  885THF     H412936   2.204   0.044   3.525  0.4996 -0.0562  0.4514
  885THF     H512937   2.346  -0.001   3.612  1.4536  2.8614 -0.8725
  885THF     H612938   2.239   0.054   3.274  1.5843  2.4225 -0.4896
  885THF     H712939   2.411   0.064   3.217  0.7947  1.9272  3.4821
  885THF     C812940   2.357  -0.117   3.321  0.1560 -0.3890  0.6372
  885THF     C912941   2.272  -0.148   3.449 -0.0688  0.6370  0.2561
  885THF    H1012942   2.462  -0.133   3.336 -1.0679  0.1873  2.2842
  885THF    H1112943   2.320  -0.171   3.234  0.9812 -0.1010 -2.8479
  885THF    H1212944   2.173  -0.162   3.424 -0.8238 -2.1756  0.8301
  885THF    H1312945   2.305  -0.233   3.507  1.0804  0.2425  0.7233
  886THF     O112946   3.206   3.893   4.039 -0.0047  0.4825 -0.2318
  886THF     C212947   3.285   3.792   3.974 -0.7901  0.1462  0.2078
  886THF     C312948   3.186   3.993   3.950  0.8784  0.1992 -0.3981
  886THF     H412949   3.218   3.736   3.916  1.9436 -0.9269  2.5260
  886THF     H512950   3.333   3.728   4.048 -0.7310 -1.9476  1.0019
  886THF     H612951   3.117   3.958   3.869  2.0470  1.0012 -0.3561
  886THF     H712952   3.138   4.077   4.003  0.7915  1.3069 -2.2204
  886THF     C812953   3.320   4.011   3.887 -0.5009  0.3078  0.0484
  886THF     C912954   3.386   3.872   3.892  0.5103  0.0302 -1.0187
  886THF    H1012955   3.365   4.081   3.959 -0.1459 -0.2201  0.5844
  886THF    H1112956   3.306   4.055   3.786  0.1449  2.1911 -2.2974
  886THF    H1212957   3.404   3.836   3.792 -0.0332  0.2389 -0.5302
  886THF    H1312958   3.479   3.882   3.931 -3.8685 -1.7836  0.7418
  887THF     O112959   4.539   3.391   1.734 -0.0978  0.2946  0.3523
  887THF     C212960   4.612   3.404   1.604  0.0239  0.0384  0.1003
  887THF     C312961   4.431   3.483   1.726  0.6238 -0.6757 -0.1103
  887THF     H412962   4.593   3.322   1.534  2.3698  0.7143  1.0557
  887THF     H512963   4.714   3.401   1.621 -1.1573 -0.3376 -1.1569
  887THF     H612964   4.345   3.443   1.676 -0.1095 -1.3485 -2.1160
  887THF     H712965   4.400   3.501   1.832 -2.9915  0.4221  3.5986
  887THF     C812966   4.487   3.604   1.652 -0.0551 -0.1772  0.0122
  887THF     C912967   4.572   3.542   1.545  0.0665  0.1094 -0.0802
  887THF    H1012968   4.558   3.663   1.715 -0.1711  0.0289  1.3069
  887THF    H1112969   4.414   3.678   1.614  0.8290 -2.0223 -0.3670
  887THF    H1212970   4.515   3.538   1.449  1.1530 -0.4399 -0.5910
  887THF    H1312971   4.642   3.611   1.513  1.2803  0.0754  2.3927
  888THF     O112972   5.162   0.025   4.294  0.2837  0.2261 -0.8333
  888THF     C212973   5.137  -0.043   4.177  0.0333  1.1202 -0.4353
  888THF     C312974   5.298  -0.006   4.332  0.6046 -0.2988 -0.4939
  888THF     H412975   5.179   0.000   4.088  2.3366 -0.1277 -0.6424
  888THF     H512976   5.026  -0.058   4.163 -1.8519  0.3932 -3.6607
  888THF     H612977   5.369   0.063   4.280  3.1224 -2.4217  1.5411
  888THF     H712978   5.316   0.005   4.440  1.6917  0.9760 -2.3318
  888THF     C812979   5.311  -0.153   4.296  0.4864 -0.7432 -0.6986
  888THF     C912980   5.203  -0.187   4.203 -0.2984  0.1048  0.5873
  888THF    H1012981   5.285  -0.206   4.391 -3.0763 -0.5224  0.3135
  888THF    H1112982   5.408  -0.176   4.252 -0.7921 -1.7411  0.2545
  888THF    H1212983   5.238  -0.231   4.118 -3.1644  0.4296 -1.3624
  888THF    H1312984   5.129  -0.251   4.256 -0.6573 -0.0302  1.3021
  889THF     O112985   3.850   1.102   5.062  0.5225  0.1956 -0.9399
  889THF     C212986   3.929   1.004   4.986 -0.0549 -0.1203 -0.2686
  889THF     C312987   3.864   1.070   5.206 -0.1504 -0.3235  0.2652
  889THF     H412988   3.990   1.058   4.914 -3.1515  0.6185  4.0761
  889THF     H512989   3.857   0.935   4.935 -0.4374 -1.0768  2.0708
  889THF     H612990   3.890   1.149   5.282  0.3416 -0.2895  1.3447
  889THF     H712991   3.761   1.038   5.238 -0.2107 -0.5111 -1.5104
  889THF     C812992   3.952   0.945   5.212  0.2236 -0.3481 -0.3108
  889THF     C912993   4.028   0.932   5.078  0.3624  0.6378  0.4315
  889THF    H1012994   3.882   0.862   5.231  0.3301 -0.5490 -0.0711
  889THF    H1112995   4.020   0.940   5.298  1.3298 -2.8479  3.0121
  889THF    H1212996   4.115   0.993   5.092 -1.3643  0.9472 -4.6554
  889THF    H1312997   4.061   0.831   5.037 -2.4576  1.3131 -1.3320
  890THF     O112998   5.128   1.289   3.324  0.2985  0.0747  0.1492
  890THF     C212999   5.042   1.173   3.342  0.1897 -0.0684 -0.1739
  890THF     C313000   5.044   1.399   3.339  0.7676 -0.6607  0.5275
  890THF     H413001   5.096   1.077   3.336  0.8455  0.3550 -2.2019
  890THF     H513002   4.969   1.167   3.262 -0.6871 -0.8803  0.5575
  890THF     H613003   5.094   1.495   3.352 -0.6066 -1.2056 -2.6250
  890THF     H713004   4.978   1.418   3.255 -0.1488  0.0443 -1.3114
  890THF     C813005   4.957   1.352   3.460  0.5787 -0.5810  0.4158
  890THF     C913006   4.968   1.204   3.470 -0.8502  0.2470 -0.0417
  890THF    H1013007   4.847   1.377   3.437 -1.7352 -1.3793 -1.1292
  890THF    H1113008   4.993   1.406   3.553  0.0500 -1.1977  2.0879
  890THF    H1213009   5.023   1.176   3.562 -0.0716 -1.5897  0.1222
  890THF    H1313010   4.874   1.152   3.471 -0.6124  0.8434 -0.8538
  891THF     O113011   2.690   5.134   3.600  0.0236  0.3918  0.0273
  891THF     C213012   2.639   5.264   3.551  0.5209 -0.1346  0.6258
  891THF     C313013   2.776   5.150   3.719  0.2411 -0.1372  0.2769
  891THF     H413014   2.534   5.264   3.559 -4.7663  0.6788 -0.6714
  891THF     H513015   2.669   5.290   3.444 -1.4261  2.2602  0.5613
  891THF     H613016   2.772   5.076   3.802  0.4236  0.4318 -0.7940
  891THF     H713017   2.885   5.145   3.688  0.2813  0.9251 -1.0910
  891THF     C813018   2.729   5.283   3.771 -0.2424 -1.3018 -0.0331
  891THF     C913019   2.688   5.368   3.653 -0.2940  0.8015  0.4427
  891THF    H1013020   2.809   5.332   3.835  0.1268  0.0437  0.3803
  891THF    H1113021   2.646   5.261   3.836  0.9314 -0.4892  1.6428
  891THF    H1213022   2.605   5.435   3.669  0.5111  0.0266 -0.5587
  891THF    H1313023   2.773   5.425   3.620  1.5500  1.4920 -1.6218
  892THF     O113024   5.315   0.305   3.978  0.3458 -0.1986 -0.7479
  892THF     C213025   5.325   0.355   4.110 -0.6467  0.2977  0.3155
  892THF     C313026   5.190   0.343   3.926  0.2167  0.6211 -1.4491
  892THF     H413027   5.433   0.348   4.135 -0.0582 -0.1685 -2.4723
  892THF     H513028   5.256   0.301   4.172  2.4732  0.2455  0.1408
  892THF     H613029   5.168   0.311   3.824  0.3669 -1.3595  1.2614
  892THF     H713030   5.117   0.292   3.993  1.9283 -2.6142  1.3956
  892THF     C813031   5.189   0.495   3.956 -0.0443  0.3914 -0.1325
  892THF     C913032   5.280   0.506   4.081 -0.3975 -0.4292  0.4466
  892THF    H1013033   5.092   0.532   3.967  2.2730 -0.3532 -0.0363
  892THF    H1113034   5.227   0.554   3.868  1.6531 -3.0817  1.8276
  892THF    H1213035   5.371   0.569   4.066  2.0506  0.5753 -3.1754
  892THF    H1313036   5.233   0.548   4.169 -0.3496 -0.8054  3.6478
  893THF     O113037   1.244   0.346   1.397 -0.0334 -0.2619  0.2903
  893THF     C213038   1.188   0.312   1.269  0.0258 -0.5308 -0.8111
  893THF     C313039   1.345   0.437   1.377  0.1933 -0.5461  0.5672
  893THF     H413040   1.128   0.393   1.251  3.3623  2.3771  0.9326
  893THF     H513041   1.123   0.224   1.281 -0.0101 -0.7242  1.6394
  893THF     H613042   1.297   0.532   1.401 -0.1933  3.3388 -0.1623
  893THF     H713043   1.431   0.411   1.443 -1.2693  3.1891 -1.8396
  893THF     C813044   1.398   0.412   1.227 -1.0909  0.1902 -0.3195
  893THF     C913045   1.308   0.300   1.173  0.0660  0.0729  0.1007
  893THF    H1013046   1.503   0.374   1.234 -0.5413  0.5710  0.6246
  893THF    H1113047   1.396   0.494   1.158 -0.8996 -1.5342 -0.7852
  893THF    H1213048   1.284   0.321   1.069 -1.0835  0.2700 -0.3409
  893THF    H1313049   1.347   0.194   1.174 -0.9014 -0.2044  0.0607
  894THF     O113050   1.068   0.538   3.038 -0.4663 -0.2640 -0.2179
  894THF     C213051   1.091   0.666   3.093 -0.1668  0.2555 -0.2619
  894THF     C313052   0.936   0.547   2.986 -0.2583 -0.0740 -0.4610
  894THF     H413053   1.196   0.669   3.119  0.4905  0.8261  0.0474
  894THF     H513054   1.032   0.681   3.179  0.5969 -1.8795  1.5363
  894THF     H613055   0.913   0.468   2.915 -0.6539  1.3980 -1.1161
  894THF     H713056   0.871   0.535   3.069  1.3316 -0.1818  1.7709
  894THF     C813057   0.920   0.684   2.924  0.2394 -0.0521  0.0971
  894THF     C913058   1.038   0.762   2.989 -0.6935  0.1894  0.2342
  894THF    H1013059   0.827   0.740   2.947 -0.4325  3.4641 -0.5798
  894THF    H1113060   0.925   0.690   2.814  0.0743 -1.4165 -2.0286
  894THF    H1213061   1.112   0.799   2.918 -1.0066  0.0016  0.1752
  894THF    H1313062   1.003   0.852   3.043  0.1210  1.3007 -2.8185
  895THF     O113063   4.733   4.073   2.325 -0.6509  0.6831 -0.0796
  895THF     C213064   4.631   4.174   2.342  0.1630  0.3658  0.2360
  895THF     C313065   4.788   4.041   2.449  0.2493 -0.0552  0.1106
  895THF     H413066   4.529   4.132   2.341  0.1689 -1.4990 -1.7124
  895THF     H513067   4.645   4.241   2.262  1.0427 -1.8238  0.3931
  895THF     H613068   4.714   3.966   2.483  0.0295  0.5739 -0.0783
  895THF     H713069   4.881   3.986   2.443  1.7443  0.4326 -0.1928
  895THF     C813070   4.791   4.172   2.529 -0.4492  0.3694 -0.0075
  895THF     C913071   4.669   4.242   2.473 -0.1046  0.2929  0.4196
  895THF    H1013072   4.884   4.227   2.513 -0.1960 -2.5484  1.3098
  895THF    H1113073   4.781   4.152   2.633 -2.9324  0.4591  2.9640
  895THF    H1213074   4.588   4.235   2.548  1.0974  0.1536 -0.1928
  895THF    H1313075   4.681   4.350   2.466  0.2028  0.9712  0.7033
  896THF     O113076   3.695   2.290   0.559 -0.1147 -0.2683 -0.3537
  896THF     C213077   3.573   2.238   0.500  0.1013  0.0777  0.1127
  896THF     C313078   3.709   2.235   0.685 -0.5883  0.1337 -0.1741
  896THF     H413079   3.592   2.151   0.437 -2.2275 -1.1825 -0.8994
  896THF     H513080   3.518   2.321   0.449  1.5288 -1.8292  2.2652
  896THF     H613081   3.757   2.140   0.675  1.4915  0.5952  1.8841
  896THF     H713082   3.768   2.302   0.747  1.5624  2.2480  0.7524
  896THF     C813083   3.559   2.221   0.733 -0.1709  0.1959  0.2482
  896THF     C913084   3.490   2.173   0.607 -0.3631 -0.7174  0.1153
  896THF    H1013085   3.522   2.323   0.741  0.5999  0.9634 -0.5882
  896THF    H1113086   3.539   2.164   0.820 -0.9071 -2.6551  1.5938
  896THF    H1213087   3.493   2.065   0.603 -1.5776 -0.0023 -1.7503
  896THF    H1313088   3.384   2.202   0.604 -0.5219  1.4936  0.5941
  897THF     O113089   4.127   2.288   4.851 -0.3392  0.0878 -0.1959
  897THF     C213090   4.077   2.247   4.727 -0.3447 -0.3873  0.0956
  897THF     C313091   4.103   2.430   4.865  0.0497  0.8299  0.2666
  897THF     H413092   3.972   2.213   4.735 -0.2087  0.6442  1.2696
  897THF     H513093   4.134   2.161   4.686 -1.2394  1.8133  2.2360
  897THF     H613094   4.027   2.441   4.938  1.4026  1.4064 -2.0621
  897THF     H713095   4.197   2.487   4.895  1.1388  0.5057 -2.2985
  897THF     C813096   4.062   2.476   4.729 -0.0024  0.3574 -0.0044
  897THF     C913097   4.092   2.366   4.638 -0.0217 -0.1030  0.4511
  897THF    H1013098   4.090   2.577   4.696 -0.9511 -1.9082  1.2464
  897THF    H1113099   3.948   2.479   4.731  0.0775 -0.3597 -0.1738
  897THF    H1213100   4.031   2.360   4.548 -1.0346 -1.7091  2.4440
  897THF    H1313101   4.195   2.375   4.614 -2.3703  0.0745 -0.5168
  898THF     O113102   3.464   0.238   5.381 -0.1026  0.0488  0.4854
  898THF     C213103   3.397   0.341   5.316  0.1224 -0.2361  0.7262
  898THF     C313104   3.383   0.189   5.491 -0.0630 -0.5649 -0.0381
  898THF     H413105   3.417   0.316   5.207  0.6913 -0.5390  1.7465
  898THF     H513106   3.426   0.443   5.345 -2.5442  1.1442 -0.2508
  898THF     H613107   3.418   0.087   5.518  0.0188 -0.2076 -1.6648
  898THF     H713108   3.395   0.260   5.576 -2.4271  0.6690  2.2286
  898THF     C813109   3.252   0.181   5.423  0.8613 -0.2091 -0.5779
  898THF     C913110   3.250   0.301   5.339  0.7578 -0.4860  0.1664
  898THF    H1013111   3.164   0.190   5.495  1.9296  1.2724  0.0887
  898THF    H1113112   3.244   0.093   5.360  1.1802 -0.4058  0.4967
  898THF    H1213113   3.203   0.268   5.254 -1.4754 -0.9702  1.3881
  898THF    H1313114   3.195   0.390   5.380 -0.6215  2.4819  1.4991
  899THF     O113115   3.760   2.728   4.933  0.0204 -0.5992  0.4111
  899THF     C213116   3.661   2.645   4.875  0.1588  0.6633 -0.2854
  899THF     C313117   3.835   2.792   4.831 -0.3155  0.2272  0.2148
  899THF     H413118   3.563   2.695   4.899 -0.9339  0.7878 -0.3360
  899THF     H513119   3.659   2.541   4.916 -3.8636  1.6497  1.8134
  899THF     H613120   3.857   2.898   4.861 -0.9268 -1.9871 -0.5424
  899THF     H713121   3.920   2.730   4.826  1.7189  0.6033 -1.3252
  899THF     C813122   3.746   2.783   4.707 -0.4560  0.2130  0.1492
  899THF     C913123   3.682   2.652   4.724 -0.2026  0.3224 -0.6081
  899THF    H1013124   3.811   2.795   4.623 -0.8606  0.3111  0.2812
  899THF    H1113125   3.663   2.857   4.702 -2.5867  0.0461 -4.2282
  899THF    H1213126   3.593   2.633   4.670  0.1141  1.5687  0.0782
  899THF    H1313127   3.750   2.576   4.684  2.3179  1.8672 -1.1052
  900THF     O113128   3.602   2.376   5.137 -0.6512 -0.2849  0.1651
  900THF     C213129   3.593   2.239   5.175 -0.1335  0.4100  0.2843
  900THF     C313130   3.734   2.413   5.172 -0.9487  0.1208 -0.1730
  900THF     H413131   3.531   2.188   5.101 -0.1886  2.0564 -0.7442
  900THF     H513132   3.552   2.230   5.276  0.0981  2.5774  3.2511
  900THF     H613133   3.771   2.492   5.101 -1.2020 -0.0568  0.1927
  900THF     H713134   3.734   2.431   5.279 -0.1874  0.3510 -0.3516
  900THF     C813135   3.825   2.282   5.150 -1.1775 -0.5968  0.6387
  900THF     C913136   3.732   2.171   5.172 -0.2903 -0.3742  0.6559
  900THF    H1013137   3.916   2.282   5.214  2.9735  0.0420 -1.7623
  900THF    H1113138   3.864   2.295   5.052 -0.2010  2.1511 -0.0114
  900THF    H1213139   3.736   2.088   5.099  0.7747 -1.3177  0.5881
  900THF    H1313140   3.755   2.133   5.270 -2.5121  0.9096 -2.5263
  901THF     O113141   1.826   4.698   4.556  0.1700  0.0356 -0.0414
  901THF     C213142   1.721   4.648   4.469  0.6284 -0.4514 -0.8376
  901THF     C313143   1.785   4.663   4.685  0.0240  0.0352  0.3279
  901THF     H413144   1.773   4.607   4.375 -1.3968 -1.0684 -1.4769
  901THF     H513145   1.652   4.732   4.451  3.7042  1.7393 -1.1026
  901THF     H613146   1.873   4.668   4.756  0.9475  0.9548  0.8614
  901THF     H713147   1.717   4.732   4.728 -2.1354  0.9653 -0.6798
  901THF     C813148   1.736   4.520   4.663  0.0138 -0.5961 -0.0262
  901THF     C913149   1.651   4.534   4.541 -0.0648 -1.0966  0.1141
  901THF    H1013150   1.687   4.472   4.744  0.2560  0.7915 -0.7831
  901THF    H1113151   1.829   4.468   4.655 -0.2653  3.0007  2.6120
  901THF    H1213152   1.651   4.439   4.495  2.1064 -0.5026  0.6828
  901THF    H1313153   1.553   4.564   4.563  1.0815 -0.5922 -0.1371
  902THF     O113154   1.222   4.372   5.222  0.0499 -0.5242 -0.0251
  902THF     C213155   1.328   4.279   5.205  0.5831  0.2861 -0.3929
  902THF     C313156   1.167   4.361   5.351 -0.2298 -0.0549 -0.4279
  902THF     H413157   1.409   4.292   5.127  0.2594  0.0118 -1.7711
  902THF     H513158   1.280   4.187   5.190 -0.1699  0.7472 -2.8862
  902THF     H613159   1.140   4.461   5.385 -0.3807  1.1796  0.8079
  902THF     H713160   1.073   4.302   5.365  1.5794 -2.2020  0.2617
  902THF     C813161   1.267   4.285   5.441  0.4101  0.1613  0.3961
  902THF     C913162   1.387   4.276   5.343 -0.8366  0.3771 -0.6576
  902THF    H1013163   1.235   4.187   5.472  0.8553  2.1722 -0.4736
  902THF    H1113164   1.300   4.337   5.533  1.0582  0.8188  2.6066
  902THF    H1213165   1.439   4.373   5.355  0.0562  1.0068 -2.0028
  902THF    H1313166   1.453   4.187   5.361  0.8669 -0.9601 -2.5060
  903THF     O113167   3.515   0.804   1.401 -0.1550  0.1402 -0.1471
  903THF     C213168   3.510   0.767   1.544 -1.0608  0.2536  0.1737
  903THF     C313169   3.502   0.942   1.380 -0.1482 -0.1984 -0.3747
  903THF     H413170   3.608   0.717   1.573  1.9632  0.6591  0.1603
  903THF     H513171   3.434   0.694   1.569 -2.0557 -4.1314 -2.2895
  903THF     H613172   3.533   0.978   1.281  4.0490  1.2314 -2.1883
  903THF     H713173   3.394   0.974   1.393 -1.0427 -1.0589 -2.2485
  903THF     C813174   3.573   0.983   1.508  0.3112  0.1341  0.4349
  903THF     C913175   3.500   0.902   1.616 -0.1608  0.1212  0.2257
  903THF    H1013176   3.565   1.093   1.524 -0.6180  1.4743 -0.8554
  903THF    H1113177   3.682   0.959   1.527  0.4462 -1.4307  2.2095
  903THF    H1213178   3.557   0.897   1.703  2.3762 -0.2530  0.1082
  903THF    H1313179   3.397   0.934   1.636 -1.2435  0.4476 -0.2436
  904THF     O113180   3.446   4.452   2.757 -0.0037  0.1661 -0.7911
  904THF     C213181   3.310   4.443   2.731  0.0622 -0.7663  0.2477
  904THF     C313182   3.506   4.459   2.621 -0.5036 -0.0892  0.6302
  904THF     H413183   3.277   4.532   2.686 -0.6294 -0.5660  2.8357
  904THF     H513184   3.234   4.410   2.799 -3.3012  1.3689  0.2952
  904THF     H613185   3.486   4.559   2.574  0.5707 -2.1438  1.3473
  904THF     H713186   3.616   4.446   2.630  2.5591 -1.4150  1.7184
  904THF     C813187   3.442   4.341   2.547 -0.8553  0.3190 -0.6656
  904THF     C913188   3.304   4.342   2.612 -0.6018  0.7685 -0.0755
  904THF    H1013189   3.485   4.247   2.568 -1.4699  2.0164 -2.5347
  904THF    H1113190   3.433   4.357   2.443  0.0287  0.3704  1.0277
  904THF    H1213191   3.230   4.370   2.532 -0.6573  0.1931 -1.2568
  904THF    H1313192   3.266   4.240   2.644 -0.4122  2.3502 -2.6497
  905THF     O113193   0.246   5.277   3.418 -0.0468  1.2767 -0.2865
  905THF     C213194   0.175   5.160   3.470  0.3613  0.3531 -0.1925
  905THF     C313195   0.178   5.396   3.430  0.2699 -0.6422  0.1390
  905THF     H413196   0.167   5.169   3.577  0.8881 -1.3206  1.3609
  905THF     H513197   0.209   5.060   3.440  0.7718  2.3107 -1.6382
  905THF     H613198   0.182   5.428   3.539 -0.3910  0.1484 -0.8975
  905THF     H713199   0.217   5.478   3.362 -0.2502  2.3029  0.4106
  905THF     C813200   0.038   5.341   3.394 -0.6873 -0.4850  0.6497
  905THF     C913201   0.030   5.192   3.415 -0.4167  0.5009 -0.1586
  905THF    H1013202   0.038   5.363   3.287  1.6658 -0.6744  2.2971
  905THF    H1113203  -0.052   5.384   3.436 -1.1337 -1.2742 -2.7133
  905THF    H1213204  -0.051   5.162   3.476  0.2672  0.2162 -0.3391
  905THF    H1313205   0.030   5.133   3.320 -1.6991 -0.0294  2.1130
  906THF     O113206   3.013   3.540   0.394 -0.4351  0.2227  0.1528
  906THF     C213207   2.986   3.454   0.502 -0.1395 -0.9951 -0.2198
  906THF     C313208   3.147   3.586   0.431  0.4499 -0.3027 -0.0812
  906THF     H413209   3.036   3.365   0.490  0.3625  0.3310  2.3020
  906THF     H513210   2.878   3.429   0.510 -2.7973 -1.1165  0.2402
  906THF     H613211   3.218   3.510   0.404  3.2935  0.5570  0.2042
  906THF     H713212   3.176   3.679   0.384 -0.3603  0.5452  2.5297
  906THF     C813213   3.139   3.608   0.582  0.3586  0.5659  0.2368
  906THF     C913214   3.017   3.536   0.622 -0.1438 -0.4303 -1.6413
  906THF    H1013215   3.127   3.705   0.604  0.3301 -0.8461  0.3489
  906THF    H1113216   3.230   3.573   0.628  2.2455  1.7644 -2.7558
  906THF    H1213217   3.044   3.475   0.709  1.3472  2.0368 -3.6111
  906THF    H1313218   2.944   3.608   0.651 -1.1319 -0.4861 -2.1493
  907THF     O113219   0.018   0.926   3.365  0.4948  0.4994 -0.0964
  907THF     C213220  -0.070   1.004   3.443  0.6616  1.7277 -0.5695
  907THF     C313221   0.031   0.997   3.246 -0.3474  0.4913 -0.3503
  907THF     H413222  -0.054   0.982   3.542 -1.4689 -0.3958 -4.5022
  907THF     H513223  -0.176   0.968   3.420 -2.1330  0.0220 -0.9361
  907THF     H613224   0.130   0.975   3.197  0.1118 -0.3592  0.2286
  907THF     H713225  -0.050   0.975   3.177  0.4895 -1.9469  0.9900
  907THF     C813226   0.033   1.149   3.280 -0.5674 -0.7621 -0.3307
  907THF     C913227  -0.048   1.147   3.410 -0.6132 -0.0525 -0.1593
  907THF    H1013228  -0.020   1.195   3.200  1.3905 -1.0206 -2.5674
  907THF    H1113229   0.138   1.175   3.280  1.1523 -0.6590  0.9575
  907THF    H1213230   0.006   1.198   3.484  0.8018 -1.4229 -0.1473
  907THF    H1313231  -0.142   1.190   3.387  2.8797 -0.5194  2.9837
  908THF     O113232   4.236   3.381   2.576 -1.0324 -0.4819 -0.3366
  908THF     C213233   4.187   3.513   2.571 -0.2292  0.4711 -0.1230
  908THF     C313234   4.369   3.394   2.542 -0.3090 -0.4302 -0.3704
  908THF     H413235   4.103   3.520   2.633  0.1356 -0.1607 -0.3963
  908THF     H513236   4.158   3.561   2.480 -0.7828 -0.1246  0.1235
  908THF     H613237   4.417   3.294   2.551  0.0518  0.1516 -1.7748
  908THF     H713238   4.379   3.429   2.445 -0.9282  1.5110  0.4948
  908THF     C813239   4.417   3.501   2.645 -1.0502 -0.4100  0.8733
  908THF     C913240   4.304   3.597   2.636 -0.6421 -0.5727 -0.2020
  908THF    H1013241   4.512   3.540   2.623 -1.7771 -1.0272 -0.5849
  908THF    H1113242   4.421   3.454   2.750 -3.0546 -4.2894  2.4984
  908THF    H1213243   4.292   3.644   2.737 -0.8224  1.1211  1.8687
  908THF    H1313244   4.333   3.681   2.569  2.1636  1.7084  1.2338
  909THF     O113245   3.558   3.994   0.970  0.1019 -0.1282  0.0200
  909THF     C213246   3.614   3.870   1.003 -0.5998  0.0224 -1.0689
  909THF     C313247   3.431   3.994   1.027  0.0375  0.2246 -0.0454
  909THF     H413248   3.718   3.882   1.037 -1.2896 -0.2093 -2.3947
  909THF     H513249   3.604   3.790   0.927  0.1724 -0.1871 -1.2632
  909THF     H613250   3.397   4.097   1.047  0.0687  0.6684  0.9402
  909THF     H713251   3.356   3.947   0.968 -0.5415  0.7961  2.0578
  909THF     C813252   3.440   3.929   1.168  0.8836  0.1377 -0.6669
  909THF     C913253   3.542   3.820   1.131  0.4192  0.0619  0.0993
  909THF    H1013254   3.345   3.881   1.199 -0.1284  0.9046 -3.1611
  909THF    H1113255   3.468   4.003   1.244 -1.1516 -3.2448  1.3618
  909THF    H1213256   3.609   3.791   1.208  1.3868  0.0116 -2.7974
  909THF    H1313257   3.496   3.729   1.112  0.8744  1.0036 -0.0404
  910THF     O113258   1.586   3.305   0.706 -0.1930  0.5531  0.2361
  910THF     C213259   1.559   3.207   0.809  0.0465  0.0967  0.0898
  910THF     C313260   1.469   3.306   0.625  0.0605 -0.0176 -0.2993
  910THF     H413261   1.631   3.223   0.888 -0.4896  1.3009 -1.9364
  910THF     H513262   1.568   3.101   0.772 -0.3775  1.9212 -0.9682
  910THF     H613263   1.472   3.400   0.567  1.0263 -1.2454  1.6011
  910THF     H713264   1.474   3.222   0.557  2.1574 -0.2336  1.1849
  910THF     C813265   1.352   3.295   0.732  0.5469  0.0955  0.8229
  910THF     C913266   1.415   3.241   0.853  0.4970 -0.2949 -0.3273
  910THF    H1013267   1.264   3.251   0.703  1.0838 -1.1423  3.0096
  910THF    H1113268   1.322   3.391   0.748 -2.9942 -2.7084 -1.2299
  910THF    H1213269   1.418   3.317   0.937  0.3337  3.1527 -0.5144
  910THF    H1313270   1.363   3.152   0.889  0.1307  3.1870 -3.8431
  911THF     O113271   1.235   5.148   4.948  0.4358 -0.7958 -0.5314
  911THF     C213272   1.169   5.088   4.840  0.2230 -0.0719  0.1589
  911THF     C313273   1.146   5.202   5.039 -0.0899 -0.6539  1.4073
  911THF     H413274   1.218   5.007   4.798  2.3861  2.2071 -0.6766
  911THF     H513275   1.150   5.168   4.767  0.9348  2.2991  0.7953
  911THF     H613276   1.190   5.183   5.139 -1.9233  0.6209 -1.4166
  911THF     H713277   1.152   5.308   5.020  2.1922 -0.3674  3.9571
  911THF     C813278   1.009   5.135   5.015 -0.1298  0.0451  0.5661
  911THF     C913279   1.039   5.031   4.909  0.4304 -0.8060  0.9466
  911THF    H1013280   0.939   5.216   4.989 -0.2159  2.1115  0.9151
  911THF    H1113281   0.967   5.090   5.109 -3.3185  2.8613 -1.0595
  911THF    H1213282   1.061   4.930   4.941 -0.9663 -1.6809 -2.2990
  911THF    H1313283   0.956   5.001   4.835  2.2579 -1.2111  2.8859
  912THF     O113284   2.444   2.590   2.166 -0.3305 -0.0550  0.1165
  912THF     C213285   2.502   2.468   2.141  0.2005  0.4245  0.5462
  912THF     C313286   2.306   2.576   2.196  0.6944 -0.4330 -0.4199
  912THF     H413287   2.545   2.418   2.226  2.4842  0.6518 -0.0640
  912THF     H513288   2.582   2.472   2.073 -2.8937 -2.6312  0.3257
  912THF     H613289   2.296   2.529   2.294  2.4350  3.7843  0.2981
  912THF     H713290   2.262   2.679   2.195  0.4625 -1.5536 -0.3241
  912THF     C813291   2.267   2.479   2.086  0.4706  0.6865 -0.1041
  912THF     C913292   2.388   2.386   2.073  0.3574 -0.3655  0.0347
  912THF    H1013293   2.245   2.526   1.991 -0.6381  0.0029  1.3813
  912THF    H1113294   2.180   2.431   2.119  1.6940 -1.5611  0.2875
  912THF    H1213295   2.380   2.287   2.129  0.9697 -2.4618 -0.0744
  912THF    H1313296   2.415   2.356   1.971  0.1518  3.6026 -1.9950
  913THF     O113297   1.814   1.211   2.281 -0.0985 -0.2403  0.4064
  913THF     C213298   1.888   1.273   2.175 -0.3834 -0.6504  0.3083
  913THF     C313299   1.889   1.090   2.311 -0.7514 -0.0315 -0.5129
  913THF     H413300   1.986   1.310   2.218  0.5218  0.4943  1.4750
  913THF     H513301   1.827   1.353   2.133 -0.0976 -0.3000  0.7701
  913THF     H613302   1.964   1.110   2.391 -0.3074 -2.4898  1.0362
  913THF     H713303   1.834   1.007   2.356 -0.6601 -0.9420 -1.2417
  913THF     C813304   1.964   1.050   2.182 -0.5378  0.5567 -0.1947
  913THF     C913305   1.926   1.160   2.075 -0.2026 -0.0389 -0.1224
  913THF    H1013306   1.937   0.959   2.146  0.7110 -0.9652 -1.2739
  913THF    H1113307   2.075   1.043   2.203 -1.7644  1.6552 -3.4943
  913THF    H1213308   2.012   1.180   2.008 -1.5017  0.0110  0.5302
  913THF    H1313309   1.835   1.124   2.017  0.8387 -0.3746 -1.6237
  914THF     O113310   4.510   2.861   1.054 -0.1889  0.1317 -0.2302
  914THF     C213311   4.576   2.877   0.929  0.0121  0.0293  0.2642
  914THF     C313312   4.607   2.875   1.150  1.2637  0.6576  0.2727
  914THF     H413313   4.615   2.978   0.915  1.0744  1.2096  3.7480
  914THF     H513314   4.520   2.853   0.839 -1.0759  0.0792 -0.7395
  914THF     H613315   4.664   2.971   1.150  0.0411  0.3734  0.8761
  914THF     H713316   4.570   2.855   1.248  0.9249  1.2152  0.1435
  914THF     C813317   4.703   2.764   1.101  0.1505 -0.3675  0.0107
  914THF     C913318   4.691   2.775   0.951 -0.8857  0.3929  0.1451
  914THF    H1013319   4.660   2.665   1.137  0.5182  0.4432 -0.6906
  914THF    H1113320   4.801   2.783   1.149 -1.4592  2.0887  1.4576
  914THF    H1213321   4.777   2.829   0.900  1.3537  1.3146 -2.4125
  914THF    H1313322   4.673   2.671   0.914 -2.9216 -2.4383 -1.8362
  915THF     O113323   4.940   2.213   0.118 -0.5467  0.0463 -0.6945
  915THF     C213324   4.922   2.310   0.019 -0.2324  0.3216 -0.3942
  915THF     C313325   4.840   2.235   0.217  0.0128  0.2274  0.4038
  915THF     H413326   4.825   2.290  -0.031 -0.8618  0.4939  1.7362
  915THF     H513327   4.997   2.300  -0.056 -1.3301 -0.2223  2.2960
  915THF     H613328   4.744   2.188   0.182 -0.3952 -1.2104  0.3166
  915THF     H713329   4.861   2.202   0.317  1.0529  0.2683 -1.1937
  915THF     C813330   4.824   2.386   0.211  0.7036  0.4830 -0.0256
  915THF     C913331   4.911   2.436   0.097  1.3432 -0.0167  0.4271
  915THF    H1013332   4.851   2.431   0.301 -2.3919  0.4329  0.1558
  915THF    H1113333   4.722   2.421   0.195 -0.1285  0.4311  0.6601
  915THF    H1213334   4.877   2.520   0.038  1.5650  1.5754 -0.3615
  915THF    H1313335   5.003   2.472   0.147  0.5311 -0.7796  0.4038
  916THF     O113336   4.180   4.123   4.543  0.3376  0.6197  0.4619
  916THF     C213337   4.059   4.170   4.479  0.0030 -0.3160 -0.3825
  916THF     C313338   4.287   4.182   4.467 -0.4629 -0.1987  0.0065
  916THF     H413339   4.044   4.278   4.506 -3.4089 -1.4149  0.3509
  916THF     H513340   3.965   4.113   4.510 -1.6546  0.9891  0.1629
  916THF     H613341   4.286   4.286   4.493  0.5886 -0.3634  0.2256
  916THF     H713342   4.373   4.130   4.499  0.3969  2.0476  1.3909
  916THF     C813343   4.241   4.160   4.320  0.6720  0.4209 -0.2683
  916THF     C913344   4.089   4.155   4.325  0.6220 -0.1624 -0.5449
  916THF    H1013345   4.285   4.071   4.275 -1.9255 -1.6533  0.8279
  916THF    H1113346   4.271   4.238   4.251 -0.3245 -1.6210  0.5597
  916THF    H1213347   4.049   4.235   4.267 -0.2063  0.2692  0.3166
  916THF    H1313348   4.054   4.069   4.287 -0.6956 -0.9188 -0.1427
  917THF     O113349   1.814   1.674   1.647 -0.2692 -0.2635 -0.4130
  917THF     C213350   1.724   1.635   1.750  0.3288  0.5300  0.9294
  917THF     C313351   1.738   1.706   1.533 -0.3956 -0.4624  0.3019
  917THF     H413352   1.758   1.664   1.848  0.7548 -1.6642 -0.9993
  917THF     H513353   1.709   1.525   1.746 -0.6068 -0.1163 -0.0206
  917THF     H613354   1.790   1.762   1.457  0.5497  0.1979 -0.1291
  917THF     H713355   1.710   1.609   1.476 -0.3690 -2.1322 -2.3858
  917THF     C813356   1.629   1.787   1.592 -0.4546 -0.5542  0.8038
  917THF     C913357   1.593   1.710   1.721  0.3449  0.1614 -0.7055
  917THF    H1013358   1.542   1.797   1.525  1.9860 -0.9648  0.1785
  917THF    H1113359   1.659   1.880   1.634 -0.8729 -0.6246 -0.2609
  917THF    H1213360   1.574   1.775   1.799  4.4990  1.5006 -0.7347
  917THF    H1313361   1.516   1.632   1.714 -1.8032 -1.3761 -0.0386
  918THF     O113362   1.426   5.153   3.681  0.0951  0.1215  0.1153
  918THF     C213363   1.447   5.112   3.813  0.1921  0.6738 -0.0891
  918THF     C313364   1.421   5.031   3.606 -0.0227  0.0108 -0.0457
  918THF     H413365   1.357   5.098   3.872  0.9187  1.5546  0.0119
  918THF     H513366   1.484   5.192   3.870  0.6915 -0.6420  1.1340
  918THF     H613367   1.322   4.979   3.613 -0.5061 -0.7834 -1.7782
  918THF     H713368   1.450   5.058   3.504  3.0638 -0.4436 -0.1324
  918THF     C813369   1.520   4.933   3.677  0.2383  0.2723  0.5300
  918THF     C913370   1.524   4.984   3.819  0.3752  0.0781 -0.4378
  918THF    H1013371   1.615   4.930   3.628 -0.1293 -3.1284 -1.5717
  918THF    H1113372   1.481   4.836   3.660  0.3788 -3.4055 -0.9860
  918THF    H1213373   1.474   4.910   3.891 -0.8420 -1.2450 -0.6604
  918THF    H1313374   1.621   5.002   3.854 -1.4211 -1.0764  0.1558
  919THF     O113375   3.428   2.427   4.254  0.6402  0.1802 -0.4813
  919THF     C213376   3.373   2.528   4.165 -0.0798  0.2238 -0.2316
  919THF     C313377   3.400   2.453   4.387 -0.6285 -0.2759 -0.9922
  919THF     H413378   3.340   2.484   4.065  2.7948 -0.2278  0.5874
  919THF     H513379   3.449   2.600   4.138  1.5821 -3.1984  1.4914
  919THF     H613380   3.410   2.374   4.462 -1.9348 -1.4609 -0.8827
  919THF     H713381   3.472   2.525   4.411 -0.4029 -2.1874 -1.6726
  919THF     C813382   3.263   2.511   4.383 -0.5662 -0.3515 -0.1124
  919THF     C913383   3.265   2.594   4.246 -0.5217  0.1813 -0.2119
  919THF    H1013384   3.240   2.573   4.468  1.6417 -1.7582 -1.5462
  919THF    H1113385   3.188   2.433   4.377  1.5605  0.2013  2.1294
  919THF    H1213386   3.166   2.591   4.199  1.1240  1.8583  1.2701
  919THF    H1313387   3.287   2.695   4.271  1.0937  0.6722  2.0637
  920THF     O113388   4.796   4.670   5.075  0.2576 -0.1676 -0.1227
  920THF     C213389   4.893   4.772   5.043  0.7298  0.5538  0.3297
  920THF     C313390   4.664   4.721   5.112 -0.1187  0.3907  0.0084
  920THF     H413391   4.931   4.764   4.940 -1.1870  0.4355  0.6305
  920THF     H513392   4.965   4.766   5.119 -0.5758 -1.9147 -0.9464
  920THF     H613393   4.585   4.654   5.066  0.0189  0.1961 -2.0232
  920THF     H713394   4.639   4.734   5.216 -1.8048 -0.0156 -0.5473
  920THF     C813395   4.656   4.856   5.046 -0.0640  0.9471  0.4064
  920THF     C913396   4.808   4.897   5.055 -0.2819  0.5039 -0.3857
  920THF    H1013397   4.589   4.932   5.088 -0.4178 -3.1626  0.1451
  920THF    H1113398   4.628   4.855   4.942  0.6606 -1.4044  1.8122
  920THF    H1213399   4.838   4.984   5.001 -2.7455 -1.3827  1.6789
  920THF    H1313400   4.816   4.934   5.154 -1.3701 -0.9430 -1.9240
  921THF     O113401   1.638   3.805   2.964 -0.3202 -0.0710  0.1209
  921THF     C213402   1.652   3.819   3.105  0.0864 -0.1501  0.7993
  921THF     C313403   1.756   3.844   2.901 -0.6201 -0.0367  0.1314
  921THF     H413404   1.583   3.760   3.163 -1.9470  0.3928 -1.0552
  921THF     H513405   1.639   3.921   3.145 -3.8534 -0.2309 -0.3494
  921THF     H613406   1.760   3.810   2.790  0.2011 -0.0806 -1.3665
  921THF     H713407   1.753   3.956   2.898 -0.7105 -0.6269 -0.5981
  921THF     C813408   1.870   3.784   2.982 -0.2072  0.9935 -0.8993
  921THF     C913409   1.802   3.771   3.125  0.3936  0.4234 -0.5399
  921THF    H1013410   1.956   3.854   2.985  0.7210 -0.9168  3.1377
  921THF    H1113411   1.907   3.683   2.949 -0.6129 -1.2684 -1.8500
  921THF    H1213412   1.808   3.670   3.157  0.5076  2.2856  2.0949
  921THF    H1313413   1.856   3.819   3.206 -0.2884 -0.6114  3.0749
  922THF     O113414   5.406   1.549   4.462 -0.5652 -0.0850  0.4088
  922THF     C213415   5.471   1.421   4.492  0.4206  0.6122  0.6446
  922THF     C313416   5.442   1.578   4.327  0.6746  0.1469 -0.4089
  922THF     H413417   5.416   1.337   4.447  1.1448 -1.0592 -1.4536
  922THF     H513418   5.474   1.405   4.600  2.3544  1.1963 -3.0006
  922THF     H613419   5.391   1.528   4.250  1.7672 -0.3203 -1.1727
  922THF     H713420   5.425   1.677   4.312 -0.3160 -0.6513 -0.1262
  922THF     C813421   5.594   1.553   4.335  1.0280 -0.1246  0.1453
  922THF     C913422   5.603   1.436   4.425  0.1750  0.1522 -0.3751
  922THF    H1013423   5.636   1.639   4.386 -0.2347  0.7017  0.3952
  922THF    H1113424   5.646   1.526   4.245  3.3241 -2.1381  1.1781
  922THF    H1213425   5.626   1.347   4.365 -1.3572 -1.2255  2.2607
  922THF    H1313426   5.684   1.460   4.491  0.6977  0.9614  0.0536
  923THF     O113427   0.872   3.472   2.758  0.0411 -0.1773  0.7248
  923THF     C213428   0.979   3.391   2.693 -0.5937  0.1526  0.2349
  923THF     C313429   0.936   3.541   2.861 -0.4559 -0.5481  0.0478
  923THF     H413430   0.988   3.422   2.587 -0.7418  1.8697 -1.7417
  923THF     H513431   0.960   3.280   2.701 -0.5651 -3.4394  0.0304
  923THF     H613432   0.897   3.645   2.872 -1.7150 -0.1537  1.5951
  923THF     H713433   0.933   3.481   2.956  1.3606 -0.7463 -0.2617
  923THF     C813434   1.079   3.551   2.820 -0.1461 -0.2109 -0.1631
  923THF     C913435   1.115   3.411   2.761  0.5588  0.6728  0.2181
  923THF    H1013436   1.147   3.583   2.900 -2.2440 -1.2581  0.8943
  923THF    H1113437   1.100   3.627   2.737 -0.1804  2.5570 -0.8367
  923THF    H1213438   1.202   3.403   2.693  0.5151 -2.1949 -1.5196
  923THF    H1313439   1.139   3.351   2.848  1.4117 -0.4882  0.5664
  924THF     O113440   0.793   0.010   1.841 -0.1943  0.6020  0.3242
  924THF     C213441   0.700   0.091   1.763 -0.0654  0.3433 -0.1758
  924THF     C313442   0.780   0.070   1.976  0.2213  0.5181 -0.1904
  924THF     H413443   0.663   0.040   1.676 -2.7750 -2.4452 -1.4085
  924THF     H513444   0.771   0.178   1.738 -1.0138 -1.4092  2.3373
  924THF     H613445   0.808  -0.009   2.052 -2.4775 -0.3358  0.7118
  924THF     H713446   0.852   0.153   1.992  1.8227  1.2494  0.0539
  924THF     C813447   0.625   0.084   1.990  0.1380 -0.2287  0.0459
  924THF     C913448   0.583   0.133   1.853 -0.3540 -0.0889 -0.0713
  924THF    H1013449   0.596   0.139   2.076  2.4164  0.9315  0.7624
  924THF    H1113450   0.574  -0.004   2.014 -0.2952  5.1494 -2.1187
  924THF    H1213451   0.487   0.104   1.813 -0.8812 -1.6576  1.1513
  924THF    H1313452   0.582   0.240   1.865  0.3953  1.3326 -2.4323
  925THF     O113453   4.897   3.288   2.049  0.0599  0.4366 -0.0410
  925THF     C213454   5.008   3.253   1.972 -0.5150  0.2854  0.5776
  925THF     C313455   4.797   3.260   1.961 -0.7767 -0.3373  0.6916
  925THF     H413456   5.106   3.240   2.035 -0.4944 -0.8777  2.6827
  925THF     H513457   5.033   3.328   1.900  0.5580  0.9132  2.9832
  925THF     H613458   4.701   3.268   2.006 -1.3859  0.9619 -0.4751
  925THF     H713459   4.783   3.337   1.883  1.2508 -2.3945  1.8293
  925THF     C813460   4.826   3.121   1.910 -0.3361  0.1974  0.2663
  925THF     C913461   4.976   3.124   1.897 -0.0885 -0.6267 -0.4123
  925THF    H1013462   4.768   3.104   1.825  1.1524 -0.0636  3.4171
  925THF    H1113463   4.790   3.045   1.980 -1.5723  1.2353 -0.3152
  925THF    H1213464   5.032   3.036   1.930 -1.4349 -1.4062  1.1227
  925THF    H1313465   4.989   3.141   1.790 -2.1241 -2.4212 -0.6741
  926THF     O113466   0.280   1.783   1.276  0.0474 -0.6434  0.1318
  926THF     C213467   0.261   1.921   1.252 -0.5069  0.3492 -0.4693
  926THF     C313468   0.256   1.762   1.413 -0.7506  0.6207 -0.1498
  926THF     H413469   0.161   1.939   1.225 -0.6477  1.9042  1.9398
  926THF     H513470   0.321   1.963   1.169 -0.9046  1.9224 -0.6842
  926THF     H613471   0.156   1.714   1.423 -0.2576  0.8335  1.0214
  926THF     H713472   0.324   1.681   1.442  0.8082 -0.7766 -1.0371
  926THF     C813473   0.285   1.886   1.487  0.6224  0.0380 -0.7566
  926THF     C913474   0.323   1.984   1.382  0.6215 -0.4606 -0.2916
  926THF    H1013475   0.363   1.897   1.568 -1.7734  2.9214  2.0372
  926THF    H1113476   0.187   1.905   1.528 -0.0578 -0.9639 -0.5466
  926THF    H1213477   0.282   2.089   1.386  0.2453 -0.6913 -0.5298
  926THF    H1313478   0.433   1.987   1.378 -1.0470 -0.3607 -0.7945
  927THF     O113479   0.833   4.646   4.960  0.1914 -0.6856 -0.6539
  927THF     C213480   0.951   4.616   5.041  0.6219  0.7886 -0.0714
  927THF     C313481   0.867   4.603   4.826  0.4631 -0.4431  0.1032
  927THF     H413482   0.934   4.615   5.151 -1.1897  1.5674  1.0048
  927THF     H513483   1.032   4.690   5.022  0.3142  0.0509  0.6461
  927THF     H613484   0.780   4.594   4.768  0.5277 -0.0675  0.8266
  927THF     H713485   0.937   4.671   4.781  1.1880  0.2828  0.1690
  927THF     C813486   0.932   4.464   4.857  1.0866 -0.3902 -0.9117
  927THF     C913487   1.013   4.493   4.979  0.1035  0.2922 -0.2684
  927THF    H1013488   1.001   4.430   4.775  2.4531  2.0417  2.3947
  927THF    H1113489   0.862   4.379   4.876  0.3929 -2.5317  0.5626
  927THF    H1213490   1.011   4.411   5.049 -0.1443  0.3291  1.0577
  927THF    H1313491   1.115   4.507   4.962 -0.3288 -0.1835 -0.2585
  928THF     O113492   1.430   3.797   3.400  0.1983 -0.2791 -0.2964
  928THF     C213493   1.447   3.800   3.545  0.1195  0.0375 -0.1295
  928THF     C313494   1.362   3.915   3.365  0.3443  0.3710 -0.0619
  928THF     H413495   1.514   3.714   3.575  0.0091  0.3562  1.5737
  928THF     H513496   1.347   3.789   3.587 -0.3540 -0.7800  1.9888
  928THF     H613497   1.374   3.924   3.260 -1.1032  2.6753  0.2876
  928THF     H713498   1.257   3.909   3.387 -0.8528  1.6005  2.0795
  928THF     C813499   1.438   4.024   3.447  0.0949  0.4573  0.0672
  928THF     C913500   1.499   3.941   3.559 -0.3108  0.3553  0.6049
  928THF    H1013501   1.378   4.096   3.496 -1.6536 -0.2931  1.7946
  928THF    H1113502   1.521   4.066   3.383  1.8819 -1.5507 -0.5820
  928THF    H1213503   1.609   3.932   3.543 -0.2922  0.4579 -0.9998
  928THF    H1313504   1.474   3.962   3.663  1.4082 -2.4590  0.8297
  929THF     O113505   3.673   0.485   2.016  0.3875 -0.1836  0.1383
  929THF     C213506   3.659   0.573   1.912 -0.3417 -1.0579  1.3426
  929THF     C313507   3.686   0.547   2.140  0.2290 -0.1315  0.1763
  929THF     H413508   3.574   0.541   1.845  1.2902  2.7607  1.6328
  929THF     H513509   3.755   0.573   1.858  3.9408 -0.1376  1.1864
  929THF     H613510   3.617   0.511   2.220 -1.7674  0.0491 -1.3819
  929THF     H713511   3.780   0.501   2.180 -1.6779  0.3474 -1.2405
  929THF     C813512   3.692   0.701   2.118 -0.8635 -0.1384 -0.4985
  929THF     C913513   3.631   0.708   1.972 -0.4977  0.1421 -0.3709
  929THF    H1013514   3.792   0.745   2.099  0.6713  0.3709 -1.6282
  929THF    H1113515   3.642   0.759   2.193  1.6014 -1.8633 -0.8374
  929THF    H1213516   3.528   0.717   1.976  1.5054 -0.3400  1.3060
  929THF    H1313517   3.676   0.787   1.908 -2.7436  1.1199 -2.5270
  930THF     O113518   4.281   1.677   1.767  1.1486  0.4054 -0.2028
  930THF     C213519   4.146   1.639   1.770 -0.1809  0.5547  0.4642
  930THF     C313520   4.297   1.819   1.790 -0.1915  0.1416  0.2971
  930THF     H413521   4.110   1.595   1.863  1.6531  0.0892 -1.5585
  930THF     H513522   4.144   1.559   1.695  1.9811 -2.6013  2.9715
  930THF     H613523   4.296   1.822   1.897 -1.1439  2.6498  1.1773
  930THF     H713524   4.396   1.856   1.756  3.2519  0.2500  0.0195
  930THF     C813525   4.172   1.877   1.727  0.0205  0.0016 -0.1199
  930THF     C913526   4.065   1.768   1.740 -0.4576 -0.6109  0.5751
  930THF    H1013527   4.193   1.891   1.620  0.9035 -2.3074 -0.9731
  930THF    H1113528   4.142   1.964   1.775 -1.0781 -2.8558 -2.6262
  930THF    H1213529   3.999   1.788   1.822  1.3615 -3.3151  1.4330
  930THF    H1313530   3.988   1.752   1.660  1.1409  0.3197 -2.6107
  931THF     O113531   5.112   3.900   1.871  0.0388 -0.8246 -0.2241
  931THF     C213532   5.230   3.837   1.815 -0.7382  0.4063 -0.2469
  931THF     C313533   5.087   3.853   2.001 -0.9813  0.0476  0.2470
  931THF     H413534   5.330   3.887   1.803  1.0005 -1.9140 -1.6918
  931THF     H513535   5.190   3.811   1.713 -0.2482  2.2214  1.1330
  931THF     H613536   5.152   3.918   2.062  3.0427 -1.2562 -1.5268
  931THF     H713537   4.984   3.869   2.022 -2.4422  0.5589  0.1035
  931THF     C813538   5.133   3.711   1.990  0.6259 -0.5401  0.3382
  931THF     C913539   5.251   3.715   1.903  0.4922 -0.1915 -1.1059
  931THF    H1013540   5.066   3.648   1.935  0.4626  0.2238  1.2560
  931THF    H1113541   5.147   3.660   2.083  0.9789  0.8778 -0.5336
  931THF    H1213542   5.344   3.740   1.957 -1.9879  1.0952  0.3434
  931THF    H1313543   5.259   3.626   1.848 -1.2084  2.6203  0.9747
  932THF     O113544   1.742   0.242   4.780 -0.5347  0.4996 -0.3920
  932THF     C213545   1.622   0.205   4.853 -0.1022  0.9689  0.0369
  932THF     C313546   1.830   0.300   4.871 -0.4032 -0.7717 -0.4615
  932THF     H413547   1.566   0.130   4.795 -1.5117  0.6662 -1.9894
  932THF     H513548   1.556   0.290   4.856 -1.8387 -0.5648  2.1211
  932THF     H613549   1.929   0.289   4.835  0.2757  0.2493 -2.9480
  932THF     H713550   1.820   0.408   4.884  1.8214  1.0269 -2.5893
  932THF     C813551   1.794   0.239   5.006  0.0782 -0.0357  0.1729
  932THF     C913552   1.675   0.147   4.980  0.8843 -0.6134  0.6089
  932THF    H1013553   1.766   0.316   5.071  0.4716 -0.2011 -0.9692
  932THF    H1113554   1.878   0.191   5.046  2.1074  0.5731 -0.4259
  932THF    H1213555   1.703   0.044   4.960  0.5497  0.6769 -2.2078
  932THF    H1313556   1.595   0.149   5.051 -1.2710 -0.0181  1.0248
  933THF     O113557   0.943   0.320   4.723  0.5039 -0.3807  0.1435
  933THF     C213558   0.971   0.421   4.626  0.3006 -0.3733  0.1902
  933THF     C313559   1.067   0.247   4.743 -0.6453 -0.4294  0.1090
  933THF     H413560   0.890   0.496   4.653 -0.9923 -1.8602 -0.2097
  933THF     H513561   0.963   0.375   4.522 -0.0570  2.5956 -1.3717
  933THF     H613562   1.062   0.203   4.845  1.2337  2.9327  0.6273
  933THF     H713563   1.091   0.164   4.683 -0.2733 -0.9729  0.0622
  933THF     C813564   1.178   0.347   4.703 -0.0992 -0.4785  0.8176
  933THF     C913565   1.109   0.475   4.661  0.5253 -0.3200 -0.4408
  933THF    H1013566   1.237   0.310   4.617 -1.2635  2.0288 -3.0010
  933THF    H1113567   1.255   0.353   4.783 -1.7375  0.5155 -1.0153
  933THF    H1213568   1.108   0.548   4.748 -1.2908 -2.3951  0.3973
  933THF    H1313569   1.163   0.522   4.578  5.0193  1.4602  1.4426
  934THF     O113570   4.786   3.668   4.621  0.4032  0.1097 -0.4043
  934THF     C213571   4.703   3.778   4.615  0.6016 -0.7387  0.4967
  934THF     C313572   4.922   3.703   4.606 -0.4556 -0.5138  0.5290
  934THF     H413573   4.603   3.744   4.641  1.0641  1.9732 -0.9029
  934THF     H513574   4.696   3.817   4.506 -0.4558  0.5556 -0.6863
  934THF     H613575   4.977   3.625   4.650 -2.5052 -1.8625  2.1000
  934THF     H713576   4.956   3.704   4.499  1.2623  1.1128 -1.2700
  934THF     C813577   4.926   3.826   4.690 -0.0973  0.7731  0.3631
  934THF     C913578   4.780   3.870   4.709  0.1577 -0.7442 -0.3496
  934THF    H1013579   4.978   3.906   4.634 -0.6142 -2.0535 -1.7519
  934THF    H1113580   4.971   3.815   4.787  0.3531  0.3204 -1.4981
  934THF    H1213581   4.742   3.835   4.806  2.2073  0.9037  0.8032
  934THF    H1313582   4.767   3.971   4.689  1.2544 -2.6183 -0.1223
  935THF     O113583   4.377   2.214   1.381 -0.5169  0.0349  0.0088
  935THF     C213584   4.249   2.152   1.410 -0.0555 -0.4946 -0.0881
  935THF     C313585   4.346   2.356   1.364 -0.8661  0.1011 -0.1146
  935THF     H413586   4.251   2.061   1.469 -0.5420 -0.6083 -3.1451
  935THF     H513587   4.193   2.126   1.322  0.5326  0.2376 -0.1624
  935THF     H613588   4.442   2.406   1.366 -1.6041 -1.5274  1.8205
  935THF     H713589   4.302   2.392   1.271  2.4662  0.2857  3.1477
  935THF     C813590   4.256   2.378   1.487  0.2111 -0.3676 -0.3053
  935THF     C913591   4.165   2.252   1.493 -0.5511 -0.3434 -0.0245
  935THF    H1013592   4.199   2.468   1.476 -0.5332  0.3522  2.2234
  935THF    H1113593   4.320   2.388   1.579 -1.0590 -1.1312 -0.3093
  935THF    H1213594   4.171   2.225   1.604 -0.9812  1.0072  0.4369
  935THF    H1313595   4.063   2.273   1.460 -1.3206  0.9919 -2.6552
  936THF     O113596   4.058   2.043   4.306 -0.4352 -0.3358 -0.0943
  936THF     C213597   4.126   2.160   4.301 -0.0254 -0.2973  0.7676
  936THF     C313598   4.088   1.968   4.425 -0.1533  0.2177 -0.8660
  936THF     H413599   4.081   2.236   4.363 -0.7127  2.2353  0.1224
  936THF     H513600   4.133   2.193   4.197 -2.1816  1.0532 -0.7131
  936THF     H613601   4.039   2.008   4.512 -0.4180 -0.4998 -0.5987
  936THF     H713602   4.057   1.863   4.407 -1.1529  1.3181  1.2246
  936THF     C813603   4.243   1.988   4.422  0.2736 -0.0598  0.2338
  936THF     C913604   4.267   2.125   4.350 -0.7040  0.3043  0.5017
  936THF    H1013605   4.284   1.912   4.358 -0.5799  1.2362 -0.5416
  936THF    H1113606   4.291   1.978   4.521  0.1883 -1.1401  1.4803
  936THF    H1213607   4.311   2.196   4.422 -1.2106 -0.4505 -2.3347
  936THF    H1313608   4.340   2.103   4.274 -0.3654 -2.3516  0.8316
  937THF     O113609   3.245   5.108   2.969  0.4011  0.5481 -0.3080
  937THF     C213610   3.274   5.249   2.970 -0.8819  0.2336 -0.2532
  937THF     C313611   3.214   5.079   2.832 -0.5309 -0.0014 -0.0384
  937THF     H413612   3.380   5.259   2.947  0.7594 -0.3745 -0.9118
  937THF     H513613   3.255   5.295   3.066  0.8944  0.7734 -0.0235
  937THF     H613614   3.302   5.075   2.762 -2.4770 -1.8543 -3.3810
  937THF     H713615   3.161   4.984   2.813 -2.6927 -0.7535 -0.0341
  937THF     C813616   3.135   5.201   2.779  0.3714 -0.4909  0.5621
  937THF     C913617   3.204   5.322   2.857  0.3572 -0.4482  0.4068
  937THF    H1013618   3.023   5.186   2.804 -1.6824 -2.6056 -0.9731
  937THF    H1113619   3.149   5.222   2.666 -1.2314 -1.4927 -2.1711
  937THF    H1213620   3.274   5.379   2.797  0.1391  2.4091 -2.1737
  937THF    H1313621   3.123   5.380   2.897 -3.2009  0.9036  0.5351
  938THF     O113622   1.112   2.553   2.989  0.0485 -0.7341 -0.0600
  938THF     C213623   1.075   2.595   3.123 -0.4842  0.5182  0.1902
  938THF     C313624   1.139   2.678   2.923  0.4644  0.4503 -0.3035
  938THF     H413625   1.166   2.620   3.172  2.3522  1.4842  0.3596
  938THF     H513626   1.018   2.524   3.181 -1.2556  0.3225 -1.6822
  938THF     H613627   1.227   2.732   2.967 -0.3880 -0.3850  1.4689
  938THF     H713628   1.156   2.662   2.819 -2.4790 -0.9879 -0.5914
  938THF     C813629   1.021   2.764   2.957  0.7043  0.2978 -0.0974
  938THF     C913630   0.993   2.717   3.108  0.3888  0.1898  0.9695
  938THF    H1013631   0.946   2.757   2.884  0.9516  1.1878 -2.5144
  938THF    H1113632   1.036   2.870   2.959 -1.5200 -0.8205 -2.8782
  938THF    H1213633   1.028   2.779   3.196 -0.5829 -2.7306 -1.4767
  938THF    H1313634   0.879   2.706   3.118 -0.7047  0.1074 -0.1029
  939THF     O113635   1.505   3.376   0.124 -0.3146 -0.5243  0.0626
  939THF     C213636   1.400   3.437   0.051  0.2674 -0.0592  0.3733
  939THF     C313637   1.474   3.392   0.261 -0.4443  0.8824 -0.1108
  939THF     H413638   1.407   3.416  -0.058  1.2093 -0.2584 -0.0380
  939THF     H513639   1.442   3.540   0.070  5.0656 -2.3667 -0.3725
  939THF     H613640   1.527   3.321   0.324 -0.5127  1.4247  2.1457
  939THF     H713641   1.507   3.496   0.286  3.9268 -0.0855  0.2331
  939THF     C813642   1.322   3.382   0.271 -0.1598  0.3605  0.1429
  939THF     C913643   1.276   3.421   0.133  0.0689  0.0266 -0.8579
  939THF    H1013644   1.279   3.448   0.352 -3.1294  1.8229  2.1168
  939THF    H1113645   1.302   3.279   0.282 -0.8346  3.0416 -3.7992
  939THF    H1213646   1.217   3.346   0.076 -0.3086  2.6375 -4.4281
  939THF    H1313647   1.218   3.514   0.136  1.0872 -0.3997  0.8725
  940THF     O113648   4.161   3.740   2.940  0.4360  0.0954  0.1906
  940THF     C213649   4.123   3.732   3.080 -0.2060  0.4403 -0.1923
  940THF     C313650   4.053   3.727   2.854  0.1724 -0.4342 -0.7513
  940THF     H413651   4.196   3.771   3.153 -0.3617  1.3227 -0.6103
  940THF     H513652   4.113   3.625   3.094  1.6174 -1.1604 -2.7639
  940THF     H613653   4.066   3.794   2.770 -0.2697 -3.2448  0.5356
  940THF     H713654   4.050   3.626   2.818 -1.8576 -0.9786  1.5062
  940THF     C813655   3.925   3.756   2.942 -0.5044 -0.1257  0.3373
  940THF     C913656   3.985   3.802   3.075  0.4307  0.0058 -0.1005
  940THF    H1013657   3.870   3.661   2.956  1.5961 -0.8580  1.1074
  940THF    H1113658   3.865   3.830   2.896  2.1384  0.2586  0.9245
  940THF    H1213659   4.006   3.906   3.075  2.3671 -0.5398 -0.4377
  940THF    H1313660   3.921   3.764   3.159 -1.1661 -0.2033 -0.1920
  941THF     O113661   3.702   0.474   3.446 -0.1725  0.2388  0.0457
  941THF     C213662   3.680   0.568   3.345 -0.2071  0.7229  0.3916
  941THF     C313663   3.588   0.386   3.446 -0.9150  0.3396 -0.9688
  941THF     H413664   3.766   0.628   3.316  0.1839  0.3495  1.6620
  941THF     H513665   3.596   0.628   3.372 -0.8077 -4.2142  1.8290
  941THF     H613666   3.606   0.294   3.513  2.0115 -2.7433  0.6491
  941THF     H713667   3.502   0.435   3.489 -1.0091  2.3728  0.6906
  941THF     C813668   3.560   0.356   3.296 -0.2437  0.0757 -0.1300
  941THF     C913669   3.643   0.465   3.236  0.3063  0.0747  0.5006
  941THF    H1013670   3.457   0.347   3.264  0.8532 -0.6242  2.6429
  941THF    H1113671   3.598   0.257   3.268 -0.2506 -1.0445 -0.5374
  941THF    H1213672   3.738   0.427   3.200 -1.6827 -3.2888 -2.7232
  941THF    H1313673   3.600   0.508   3.144  2.8077 -1.0613 -1.7378
  942THF     O113674   2.342   0.624   2.965  0.1508  0.1441 -0.4324
  942THF     C213675   2.446   0.530   2.953 -0.0003  0.7047  0.7594
  942THF     C313676   2.224   0.550   2.961  0.7850 -0.3820  0.2346
  942THF     H413677   2.530   0.575   3.000  1.2536  2.5977  0.2170
  942THF     H513678   2.467   0.511   2.845  0.9109  1.0391  1.2692
  942THF     H613679   2.145   0.599   3.019  1.4860  0.6082  0.2941
  942THF     H713680   2.193   0.552   2.858  1.0874  1.4597  1.2955
  942THF     C813681   2.255   0.417   3.016  0.0564  0.5992 -0.2636
  942THF     C913682   2.403   0.405   3.035  0.2756  0.7639 -0.3398
  942THF    H1013683   2.206   0.347   2.944  1.6658  2.9034 -0.7851
  942THF    H1113684   2.197   0.408   3.112  0.2987 -3.0384 -0.2590
  942THF    H1213685   2.431   0.419   3.138  3.3104  0.8351 -0.5603
  942THF    H1313686   2.451   0.311   3.010  0.4368  0.8914 -1.4966
  943THF     O113687   4.487   3.917   0.788 -0.9506  0.4624 -0.2582
  943THF     C213688   4.576   4.015   0.732  0.0903 -0.1777  0.1976
  943THF     C313689   4.452   3.948   0.922  0.1094  0.3125  1.0064
  943THF     H413690   4.509   4.085   0.678 -0.2483 -2.2023 -1.8622
  943THF     H513691   4.653   3.983   0.662 -2.0695  0.5707  0.6479
  943THF     H613692   4.379   4.028   0.925  1.0583  0.1867 -1.7034
  943THF     H713693   4.414   3.857   0.961 -0.2378  2.0811 -2.1953
  943THF     C813694   4.591   3.994   0.968  0.1269  0.2444 -0.6649
  943THF     C913695   4.635   4.092   0.855  0.2840 -0.4851  0.0307
  943THF    H1013696   4.664   3.915   0.963 -1.6427  0.5633  1.2408
  943THF    H1113697   4.597   4.045   1.065  1.8085 -2.7235  0.5812
  943THF    H1213698   4.586   4.190   0.864 -3.1377 -0.5093  0.5342
  943THF    H1313699   4.737   4.110   0.856 -4.3593 -1.2731 -1.7670
  944THF     O113700   1.902   3.937   1.742 -0.0506  0.5611 -0.0555
  944THF     C213701   1.925   3.808   1.795 -0.0877  1.2686 -0.5562
  944THF     C313702   1.763   3.958   1.714 -0.3004 -0.2411 -0.8107
  944THF     H413703   2.017   3.804   1.855  1.6223 -1.4781 -2.4183
  944THF     H513704   1.946   3.739   1.716  1.9892 -0.0292  2.0342
  944THF     H613705   1.732   4.068   1.707 -2.3729  4.2838  1.7269
  944THF     H713706   1.736   3.922   1.621 -2.5426 -2.5461  1.7302
  944THF     C813707   1.686   3.868   1.815  0.0701  0.9804  0.3055
  944THF     C913708   1.801   3.777   1.871  0.2971 -0.3147 -0.1855
  944THF    H1013709   1.606   3.806   1.768 -0.1378 -0.0904  3.2908
  944THF    H1113710   1.640   3.930   1.901 -3.2514  1.0124 -0.6646
  944THF    H1213711   1.814   3.788   1.982 -0.1579 -3.3669  2.2890
  944THF    H1313712   1.776   3.675   1.841  3.3535  0.4447 -0.4831
  945THF     O113713   5.310   3.271   3.974  0.1256  0.2521 -0.4890
  945THF     C213714   5.221   3.239   3.866  0.2363  0.0764 -0.4992
  945THF     C313715   5.320   3.413   3.980  0.2120 -0.2600 -0.3152
  945THF     H413716   5.199   3.132   3.859  0.8417  1.8205  1.0342
  945THF     H513717   5.265   3.265   3.769  1.5996 -1.3178 -1.5583
  945THF     H613718   5.349   3.454   4.082 -1.0354  2.2276 -1.5063
  945THF     H713719   5.380   3.451   3.899  1.9878  2.2638  1.6480
  945THF     C813720   5.175   3.451   3.960 -0.1936 -0.3182  0.1000
  945THF     C913721   5.105   3.327   3.910 -0.1864 -0.6943  0.4878
  945THF    H1013722   5.178   3.534   3.888  0.3138 -1.1676 -0.7023
  945THF    H1113723   5.132   3.477   4.056  0.9415 -2.7406  1.1886
  945THF    H1213724   5.043   3.293   3.989 -0.1839 -1.4975 -0.5794
  945THF    H1313725   5.038   3.348   3.820  1.7572  0.8321 -0.0585
  946THF     O113726   0.340   0.535   0.885 -0.1700 -0.1690 -0.7921
  946THF     C213727   0.229   0.517   0.801  0.1342  0.0321  0.2466
  946THF     C313728   0.429   0.618   0.823 -0.9065 -0.4703  1.1160
  946THF     H413729   0.143   0.481   0.855  0.7064  0.3530  0.5992
  946THF     H513730   0.270   0.452   0.724  0.5308 -2.6806  2.6473
  946THF     H613731   0.485   0.676   0.893 -0.2557 -1.6209  2.7583
  946THF     H713732   0.503   0.569   0.752  2.2708  1.5248 -1.9084
  946THF     C813733   0.337   0.718   0.751 -0.0287  0.7499 -0.7636
  946THF     C913734   0.197   0.654   0.745 -0.0796 -0.2964 -0.5611
  946THF    H1013735   0.358   0.754   0.649 -0.3062  0.8677  0.5748
  946THF    H1113736   0.347   0.817   0.801  0.4054 -1.1556 -0.1191
  946THF    H1213737   0.120   0.715   0.801  1.4075 -1.6245  0.0376
  946THF    H1313738   0.157   0.643   0.650 -1.3752 -2.0008  2.4240
  947THF     O113739   5.125   4.789   0.425 -0.3481  0.2630 -0.1962
  947THF     C213740   4.988   4.822   0.439  0.0220 -0.1240 -0.1675
  947THF     C313741   5.165   4.860   0.307  0.4213 -0.0710 -0.6192
  947THF     H413742   4.979   4.923   0.485  0.4078 -0.9663  2.1592
  947THF     H513743   4.930   4.756   0.512 -3.3161 -1.3808 -0.6438
  947THF     H613744   5.159   4.966   0.340 -0.7734 -0.2015  1.1534
  947THF     H713745   5.268   4.825   0.271 -0.2331 -0.5979  0.9348
  947THF     C813746   5.049   4.825   0.213  0.4434 -0.6616  0.2330
  947THF     C913747   4.925   4.826   0.297 -0.2617  0.1949  0.3093
  947THF    H1013748   5.068   4.726   0.184 -1.2335 -1.5807  0.7497
  947THF    H1113749   5.033   4.896   0.130 -0.3240 -1.1320 -1.5004
  947THF    H1213750   4.862   4.915   0.283 -0.0112 -0.2759  0.2810
  947THF    H1313751   4.866   4.734   0.287 -1.4411 -0.0326  0.1918
  948THF     O113752   5.263   1.879   3.665 -0.2161 -0.0697  0.0694
  948THF     C213753   5.345   1.947   3.762 -0.2803  0.2547  0.2685
  948THF     C313754   5.359   1.797   3.588  0.0297 -0.2980  0.2023
  948THF     H413755   5.368   1.888   3.852  1.4343  1.2720  1.1867
  948THF     H513756   5.293   2.036   3.795  1.6294  0.0126  0.3249
  948THF     H613757   5.364   1.695   3.627  1.7800 -0.8570  2.5785
  948THF     H713758   5.316   1.784   3.482  1.5605 -3.7132  1.1367
  948THF     C813759   5.493   1.867   3.594 -0.6530 -0.7381 -0.5098
  948THF     C913760   5.463   1.990   3.683 -0.8739 -0.1559  0.1759
  948THF    H1013761   5.520   1.903   3.494 -0.1148 -1.3032 -1.1446
  948THF    H1113762   5.576   1.810   3.619 -2.0828  1.1671 -0.9076
  948THF    H1213763   5.551   2.025   3.740  1.3300 -1.1158 -1.7870
  948THF    H1313764   5.426   2.074   3.617 -2.0563  0.8265  0.1757
  949THF     O113765   2.997   1.084   1.177 -0.7553  0.1466  0.1193
  949THF     C213766   2.961   1.215   1.169  0.7626 -0.1917 -0.4908
  949THF     C313767   3.060   1.058   1.302 -0.0536 -0.2106  0.0605
  949THF     H413768   2.886   1.238   1.082 -1.3768  0.6929  0.1309
  949THF     H513769   3.051   1.265   1.154 -0.8657 -3.8294 -0.7583
  949THF     H613770   3.074   0.958   1.322  0.2344  0.5002  0.1967
  949THF     H713771   3.158   1.111   1.316 -0.8831  4.0635  1.4154
  949THF     C813772   2.958   1.133   1.397  0.3600 -0.0260  0.1798
  949THF     C913773   2.915   1.243   1.312 -0.2041 -0.0781 -0.5195
  949THF    H1013774   3.000   1.150   1.492 -1.1129 -3.5524 -1.3775
  949THF    H1113775   2.874   1.064   1.400  0.6038 -0.0159  0.0633
  949THF    H1213776   2.809   1.272   1.317  0.3586 -1.8619  0.8794
  949THF    H1313777   2.963   1.335   1.346  0.8818  1.7642  0.4320
  950THF     O113778   1.647   5.222   4.191  0.4277  0.0418  0.1252
  950THF     C213779   1.533   5.144   4.192  0.8270  0.4391  0.1367
  950THF     C313780   1.748   5.123   4.184  0.6208 -0.3079 -0.3728
  950THF     H413781   1.516   5.099   4.094 -2.4899  0.7440  0.1327
  950THF     H513782   1.440   5.190   4.233  1.8463 -1.1978  1.4913
  950THF     H613783   1.768   5.093   4.089 -1.9966  1.0341  2.3820
  950THF     H713784   1.842   5.161   4.214  1.5682 -0.0356  2.5622
  950THF     C813785   1.704   5.010   4.271  0.0913  0.5373 -0.0266
  950THF     C913786   1.556   5.024   4.278 -0.0366 -0.1242 -0.4448
  950THF    H1013787   1.734   5.030   4.375 -0.4730  1.9573 -3.0315
  950THF    H1113788   1.731   4.909   4.242  3.4667 -2.3386  0.4014
  950THF    H1213789   1.506   4.936   4.251  2.4428  0.2098  3.3714
  950THF    H1313790   1.522   5.039   4.381  0.8097  1.1606  0.2976
  951THF     O113791   4.095   3.208   4.464  0.0120  1.0648 -0.0672
  951THF     C213792   3.951   3.230   4.447  0.1388  0.7865  0.4142
  951THF     C313793   4.115   3.102   4.561 -0.8821 -0.5989  0.9684
  951THF     H413794   3.942   3.275   4.347 -2.3528  2.1094  0.4329
  951THF     H513795   3.906   3.300   4.521 -1.3778 -0.7971  2.4703
  951THF     H613796   4.216   3.054   4.557 -0.6708  1.0709 -1.6559
  951THF     H713797   4.097   3.136   4.659  0.3135 -1.5077 -0.4784
  951THF     C813798   4.005   3.006   4.517  0.1375 -0.4328 -0.5179
  951THF     C913799   3.891   3.088   4.467  0.4392 -0.2437  0.3055
  951THF    H1013800   3.984   2.939   4.599  1.0241 -0.4301 -2.5923
  951THF    H1113801   4.046   2.943   4.435 -3.0703 -2.1577  0.3914
  951THF    H1213802   3.856   3.050   4.372  0.9184 -1.9096 -1.8844
  951THF    H1313803   3.806   3.088   4.536 -0.7291  1.9542 -0.7378
  952THF     O113804   0.058   4.046   2.951 -0.6974 -0.3059  0.3902
  952THF     C213805  -0.058   3.971   2.974 -0.1167  0.0170 -0.5006
  952THF     C313806   0.181   3.977   2.983 -0.5210  0.4225  0.3816
  952THF     H413807  -0.144   4.005   2.924 -0.8955  1.3938 -0.4820
  952THF     H513808  -0.083   4.006   3.076 -1.2945 -0.4543  0.0654
  952THF     H613809   0.251   3.976   2.901  0.0605  0.4194 -2.3665
  952THF     H713810   0.216   4.035   3.063  0.7241 -0.5091 -2.2740
  952THF     C813811   0.133   3.837   3.032  0.4319  0.6077  0.3396
  952THF     C913812  -0.009   3.822   2.971  0.2556 -1.2172  0.6355
  952THF    H1013813   0.137   3.831   3.138  2.0401  1.8970 -0.2535
  952THF    H1113814   0.185   3.746   2.989 -1.9563 -1.2132 -2.7411
  952THF    H1213815  -0.012   3.788   2.864  0.7578  0.3319 -1.0910
  952THF    H1313816  -0.070   3.750   3.028  2.0738 -0.4618 -0.3558
  953THF     O113817   1.184   1.839   5.038  0.1003 -0.0796 -0.8002
  953THF     C213818   1.174   1.896   5.166 -0.3643  0.1673  0.0134
  953THF     C313819   1.059   1.766   5.042 -0.7789  0.3256 -0.1577
  953THF     H413820   1.247   1.972   5.192 -0.3225  0.7485 -1.3200
  953THF     H513821   1.186   1.832   5.257  0.2310  2.9281  2.2610
  953THF     H613822   1.052   1.715   4.940  0.0281  2.0636 -1.3675
  953THF     H713823   1.058   1.682   5.121 -1.9778  1.6418 -1.0478
  953THF     C813824   0.950   1.868   5.079  0.3377  0.4460  0.5631
  953THF     C913825   1.035   1.972   5.151  0.0835 -0.2854  0.3035
  953THF    H1013826   0.888   1.829   5.159  2.6149 -0.4778  0.3943
  953THF    H1113827   0.884   1.911   5.000  0.8735 -0.2554 -1.4351
  953THF    H1213828   1.051   2.060   5.102  0.0665 -2.9749  0.6738
  953THF    H1313829   0.995   1.991   5.258  2.0706 -2.5565  0.2332
  954THF     O113830   4.608   3.561   3.671  0.4756  0.1009 -0.5151
  954THF     C213831   4.637   3.698   3.673 -0.3854 -0.1353  0.4693
  954THF     C313832   4.596   3.523   3.808 -1.2860  0.4709 -0.5269
  954THF     H413833   4.553   3.763   3.690  2.4024  2.5316  1.8814
  954THF     H513834   4.690   3.731   3.582 -0.9433  2.4550 -0.3575
  954THF     H613835   4.498   3.560   3.841 -0.7080 -2.2510  0.4457
  954THF     H713836   4.601   3.414   3.819  0.8264 -4.0173  1.2741
  954THF     C813837   4.711   3.589   3.873 -0.0043 -0.4880 -0.2383
  954THF     C913838   4.725   3.717   3.790 -0.1645  0.2457  0.8512
  954THF    H1013839   4.807   3.530   3.870  1.0929 -0.1292  1.2560
  954THF    H1113840   4.707   3.613   3.981 -0.3453 -0.0202  0.4599
  954THF    H1213841   4.689   3.803   3.846 -3.4293 -1.4974 -0.7488
  954THF    H1313842   4.827   3.735   3.760  0.8387 -1.4260  0.4483
  955THF     O113843   0.290   1.165   0.226  0.3008  0.3687  0.1684
  955THF     C213844   0.207   1.144   0.115 -0.0097  0.1526 -0.6187
  955THF     C313845   0.332   1.303   0.232  0.0626 -0.4769 -0.5261
  955THF     H413846   0.114   1.103   0.151  1.0726  0.5839  0.2983
  955THF     H513847   0.256   1.077   0.045 -3.2751  0.6438  1.2745
  955THF     H613848   0.256   1.349   0.291  1.6442 -0.5063 -0.5131
  955THF     H713849   0.430   1.326   0.269  3.7044  0.7399  2.2190
  955THF     C813850   0.320   1.353   0.091  0.0221  0.4466 -0.7453
  955THF     C913851   0.200   1.274   0.036 -0.2131 -0.1542 -0.1042
  955THF    H1013852   0.419   1.355   0.039  3.9991 -3.4940 -1.5497
  955THF    H1113853   0.302   1.460   0.077 -2.1483  0.2142  1.6922
  955THF    H1213854   0.108   1.322   0.059  0.1049 -2.3201  0.0134
  955THF    H1313855   0.200   1.257  -0.069  1.7339 -0.0036  0.2546
  956THF     O113856   2.410   4.602   1.909  0.2131 -0.3743  0.8565
  956THF     C213857   2.412   4.650   1.779  0.4831 -0.0650  0.1192
  956THF     C313858   2.311   4.500   1.913 -0.0138  0.3894 -0.3858
  956THF     H413859   2.507   4.701   1.772  1.5677 -2.1753  0.3341
  956THF     H513860   2.337   4.723   1.751 -1.8272  0.5528  2.0830
  956THF     H613861   2.308   4.439   2.003 -1.3863  3.7915  0.5031
  956THF     H713862   2.212   4.549   1.915 -0.6236  0.5235 -0.2837
  956THF     C813863   2.329   4.423   1.785  0.0335 -0.4130  0.2606
  956THF     C913864   2.406   4.527   1.689  0.4618 -0.6387  0.2876
  956THF    H1013865   2.236   4.391   1.747  0.3057  0.4869  0.1474
  956THF    H1113866   2.378   4.324   1.804 -1.3017  1.5982  2.8271
  956THF    H1213867   2.500   4.486   1.664 -1.8228  0.0880  0.3667
  956THF    H1313868   2.346   4.546   1.604 -2.7441  2.0422 -0.2308
  957THF     O113869   5.363   4.771   2.404  0.2148  0.2381  0.0228
  957THF     C213870   5.269   4.804   2.306  0.1260  0.1650  0.3077
  957THF     C313871   5.429   4.896   2.428 -0.2150  0.7625 -0.5213
  957THF     H413872   5.183   4.833   2.372 -1.9847  0.2992 -0.3092
  957THF     H513873   5.235   4.709   2.254  0.8769 -0.9641  0.7747
  957THF     H613874   5.359   4.960   2.493 -1.4070  2.1873  1.8687
  957THF     H713875   5.522   4.871   2.482 -0.8964 -0.3843  2.8312
  957THF     C813876   5.450   4.954   2.293  0.3209  0.8339 -0.2252
  957THF     C913877   5.320   4.917   2.218  0.6989 -0.6820 -0.2208
  957THF    H1013878   5.531   4.907   2.247 -0.7117 -2.9381  0.4155
  957THF    H1113879   5.476   5.060   2.296  1.2650  0.3013  2.2454
  957THF    H1213880   5.251   4.999   2.204 -1.4166 -2.0971 -2.9837
  957THF    H1313881   5.343   4.880   2.120  0.7263  0.6558  0.0807
  958THF     O113882   1.603   1.887   4.724  0.2037 -0.0932  0.8163
  958THF     C213883   1.526   1.808   4.631  0.6313 -0.9596 -0.4872
  958THF     C313884   1.733   1.881   4.665 -0.7213  0.4472  0.7993
  958THF     H413885   1.503   1.873   4.546  0.1658  1.7897 -1.6506
  958THF     H513886   1.440   1.778   4.692 -0.0612 -1.1856  2.2040
  958THF     H613887   1.723   1.949   4.582  0.0633 -1.1166  0.1243
  958THF     H713888   1.820   1.911   4.724  1.7698  1.7820  1.6218
  958THF     C813889   1.755   1.744   4.602 -0.1970 -0.3675  0.1606
  958THF     C913890   1.614   1.695   4.580 -1.0493 -0.0658  0.4279
  958THF    H1013891   1.795   1.685   4.678  1.4218 -0.8199  1.3223
  958THF    H1113892   1.828   1.743   4.515  2.1911 -0.0483 -2.3028
  958THF    H1213893   1.583   1.668   4.479  0.4894  1.9478  0.6451
  958THF    H1313894   1.590   1.608   4.633  0.6757  0.6329 -2.8506
  959THF     O113895   1.156   0.874   4.328  0.0463 -0.6686  0.4981
  959THF     C213896   1.177   0.759   4.244  0.0308  0.1571 -0.6703
  959THF     C313897   1.272   0.901   4.397 -0.5615  0.4633 -0.7912
  959THF     H413898   1.096   0.749   4.168 -2.7328 -1.1925 -0.0499
  959THF     H513899   1.169   0.659   4.293  1.1896 -0.7312 -2.2973
  959THF     H613900   1.281   0.994   4.442  2.3692 -0.6694 -1.0884
  959THF     H713901   1.266   0.828   4.484 -1.7546 -0.2148 -0.9470
  959THF     C813902   1.385   0.882   4.295  0.2381  0.6669 -0.0269
  959THF     C913903   1.322   0.789   4.197  0.3875 -0.2049 -0.1691
  959THF    H1013904   1.469   0.835   4.347 -0.9174 -0.7665  0.4342
  959THF    H1113905   1.412   0.981   4.253 -1.5458  0.6004 -0.7875
  959THF    H1213906   1.305   0.840   4.098  1.2992  1.4016  1.1152
  959THF    H1313907   1.393   0.705   4.173 -2.3885 -0.8963 -0.6913
  960THF     O113908   0.718   3.766   2.167 -0.0780 -0.0017 -0.1340
  960THF     C213909   0.676   3.886   2.230  0.2823 -0.0414 -0.2519
  960THF     C313910   0.629   3.663   2.217 -0.0156  0.2869  0.6444
  960THF     H413911   0.703   3.977   2.177  1.4752  0.9356 -0.9071
  960THF     H513912   0.714   3.888   2.326  0.0044  0.6617 -0.8172
  960THF     H613913   0.635   3.566   2.174 -0.4385 -3.2404  1.3565
  960THF     H713914   0.641   3.651   2.328  4.5327 -0.3121 -0.9111
  960THF     C813915   0.494   3.728   2.191  0.1190  0.0524  0.2422
  960THF     C913916   0.516   3.875   2.228 -0.4384  0.7559 -0.1502
  960THF    H1013917   0.416   3.681   2.246  0.6779  2.6755  0.8984
  960THF    H1113918   0.466   3.715   2.086  1.2230  1.8084  0.7338
  960THF    H1213919   0.468   3.930   2.153  2.4599 -1.3921 -0.8552
  960THF    H1313920   0.463   3.900   2.325 -2.0089  0.7421  1.9652
  961THF     O113921   4.363   0.250   2.697  0.0544  0.2029 -0.0773
  961THF     C213922   4.278   0.138   2.729  0.5781  0.2249 -0.4011
  961THF     C313923   4.287   0.333   2.602 -0.2628  0.4571 -0.4513
  961THF     H413924   4.311   0.103   2.832 -1.1779 -1.0068  3.0330
  961THF     H513925   4.298   0.060   2.660  0.1486 -1.3357  0.8933
  961THF     H613926   4.340   0.426   2.582 -1.8632  0.4966  1.2573
  961THF     H713927   4.285   0.296   2.507  1.3845  2.7166  1.0196
  961THF     C813928   4.151   0.336   2.672  0.2746  0.2423  0.2406
  961THF     C913929   4.137   0.194   2.730  0.1917 -0.2234 -0.3394
  961THF    H1013930   4.070   0.375   2.611 -0.1054  0.2743  0.4752
  961THF    H1113931   4.153   0.410   2.754  1.1446 -0.1257 -2.3983
  961THF    H1213932   4.092   0.203   2.830 -1.3554  3.5970 -0.0911
  961THF    H1313933   4.067   0.132   2.667  0.4766 -1.3951  0.2302
  962THF     O113934   2.089   3.873   5.262  0.0520  0.1639  0.1820
  962THF     C213935   2.034   3.997   5.234 -0.4529  0.0708  0.0532
  962THF     C313936   1.985   3.788   5.290  0.0608 -0.9080  0.4388
  962THF     H413937   2.013   3.999   5.130  1.2816 -0.8663 -0.5321
  962THF     H513938   2.111   4.068   5.261  0.9143  2.1839  2.8943
  962THF     H613939   1.937   3.766   5.191  2.4214 -2.1667  2.3775
  962THF     H713940   2.017   3.698   5.342 -2.3912 -1.1588  0.3398
  962THF     C813941   1.883   3.873   5.359 -0.1890  0.6058 -0.6739
  962THF     C913942   1.909   4.016   5.314  0.2608 -0.5356  0.4097
  962THF    H1013943   1.918   3.864   5.464  3.2439 -1.3906  0.7855
  962THF    H1113944   1.777   3.848   5.350  1.0086 -2.5693  0.1529
  962THF    H1213945   1.830   4.055   5.248 -0.9035  3.7373 -0.6693
  962THF    H1313946   1.917   4.081   5.405  2.6393  0.6700  0.0962
  963THF     O113947   1.654   5.252   1.985 -0.0894  0.5576 -0.4191
  963THF     C213948   1.639   5.168   1.871 -0.5257  0.0130 -0.1883
  963THF     C313949   1.609   5.380   1.946  0.3726 -0.5108 -0.0009
  963THF     H413950   1.539   5.153   1.856  1.4946  1.8594  1.1238
  963THF     H513951   1.689   5.068   1.885  3.3972 -0.4526  0.3888
  963THF     H613952   1.501   5.376   1.944  0.0920  0.8580 -0.3944
  963THF     H713953   1.640   5.446   2.029 -1.0551 -1.9460 -1.3862
  963THF     C813954   1.664   5.396   1.800  0.5158 -0.3916 -0.1578
  963THF     C913955   1.691   5.257   1.757  0.4852 -0.6963  0.3585
  963THF    H1013956   1.763   5.452   1.804  0.4121  2.1480 -2.1433
  963THF    H1113957   1.599   5.444   1.732 -0.1945 -0.9167  0.4820
  963THF    H1213958   1.635   5.240   1.663  0.6834  0.5510 -0.5002
  963THF    H1313959   1.791   5.247   1.732 -1.7053 -2.2997 -2.3823
  964THF     O113960   0.492   1.186   3.458  0.1038  0.0024  0.8072
  964THF     C213961   0.381   1.101   3.456 -0.0207  0.2703  0.1510
  964THF     C313962   0.593   1.148   3.368  0.4523 -0.0374  1.6516
  964THF     H413963   0.289   1.168   3.457 -1.7757 -0.2660 -1.0795
  964THF     H513964   0.375   1.035   3.540  2.3658  2.2941 -1.8102
  964THF     H613965   0.601   1.220   3.283 -0.0480 -0.1873 -0.4837
  964THF     H713966   0.692   1.150   3.425  0.9134 -0.3102  1.3462
  964THF     C813967   0.547   1.006   3.324  1.4126 -0.3111  0.2327
  964THF     C913968   0.395   1.025   3.328 -0.2471  0.6223  0.0825
  964THF    H1013969   0.587   0.942   3.404 -0.7313  2.6911  0.8487
  964THF    H1113970   0.588   0.974   3.230 -1.3626 -1.4338  4.6617
  964THF    H1213971   0.375   1.076   3.233  0.1573  4.2958 -0.0176
  964THF    H1313972   0.338   0.933   3.333 -0.6290 -0.4727 -2.9400
  965THF     O113973   3.851   0.180   2.506  0.0416 -0.2382  0.0548
  965THF     C213974   3.741   0.111   2.447  0.7588 -0.1866 -0.0907
  965THF     C313975   3.956   0.175   2.413  0.3763 -0.3847 -0.1933
  965THF     H413976   3.642   0.148   2.485 -1.9586  0.0727 -0.0116
  965THF     H513977   3.749   0.002   2.469 -1.7088  0.2779 -1.0083
  965THF     H613978   4.028   0.251   2.435  0.4541 -1.5485 -1.5626
  965THF     H713979   4.027   0.095   2.440 -2.3272  2.5039  0.5030
  965THF     C813980   3.896   0.166   2.272 -0.4898  1.7372 -0.1151
  965THF     C913981   3.750   0.128   2.297  0.0099  0.2760  0.7383
  965THF    H1013982   3.953   0.095   2.208  4.5909 -2.1004 -0.7281
  965THF    H1113983   3.907   0.265   2.224  1.9309  0.2223 -0.3912
  965THF    H1213984   3.686   0.203   2.255  2.4994  0.0971  0.8167
  965THF    H1313985   3.729   0.036   2.248 -2.2776  1.3731 -0.4988
  966THF     O113986   4.160   2.643   1.164 -0.0663  0.2702 -0.2175
  966THF     C213987   4.262   2.710   1.093  0.6262  0.8520 -0.1078
  966THF     C313988   4.130   2.524   1.086  0.4632  0.0087 -0.8096
  966THF     H413989   4.355   2.715   1.151 -0.0205  1.7998  1.0409
  966THF     H513990   4.234   2.808   1.076  0.2804  0.0032 -0.9963
  966THF     H613991   4.114   2.448   1.151  0.3314 -0.7352 -1.1325
  966THF     H713992   4.044   2.535   1.023  1.0824  1.8673  0.1898
  966THF     C813993   4.255   2.500   0.993 -0.2463 -0.1545  0.1842
  966THF     C913994   4.281   2.641   0.957 -0.2660 -0.8349  0.1572
  966THF    H1013995   4.246   2.444   0.899 -0.6441 -1.3492 -2.6549
  966THF    H1113996   4.340   2.450   1.052  2.4393 -0.9284 -0.4942
  966THF    H1213997   4.380   2.667   0.920 -1.6630 -0.5713  2.3072
  966THF    H1313998   4.211   2.673   0.880 -0.2328 -0.2387  0.5769
  967THF     O113999   3.854   0.378   5.424 -0.1681 -0.1915 -0.0925
  967THF     C214000   3.811   0.495   5.495 -0.1358 -0.0194  0.8643
  967THF     C314001   3.957   0.410   5.331 -0.2915  0.3614 -0.7083
  967THF     H414002   3.887   0.537   5.562  1.4836  0.2980  2.0555
  967THF     H514003   3.720   0.476   5.552 -1.6255 -0.6690  2.2881
  967THF     H614004   4.057   0.394   5.384 -0.0959 -0.5332  0.7916
  967THF     H714005   3.976   0.354   5.243  0.7180 -0.4563 -0.1505
  967THF     C814006   3.917   0.552   5.294 -0.3900  0.7131  0.4734
  967THF     C914007   3.795   0.586   5.372 -0.4631  0.4708  0.5396
  967THF    H1014008   3.914   0.556   5.185  0.4954 -1.5843  0.8530
  967THF    H1114009   3.999   0.615   5.312 -1.2711 -0.4202  0.0865
  967THF    H1214010   3.785   0.696   5.386 -0.1591  0.0122 -0.4735
  967THF    H1314011   3.708   0.555   5.316  0.3611  0.2734  1.0561
  968THF     O114012   0.221   0.594   1.887  0.0197 -0.1735  1.1580
  968THF     C214013   0.236   0.520   1.761  0.3842 -0.5712  0.2061
  968THF     C314014   0.350   0.637   1.930  0.0133  0.3815  0.6713
  968THF     H414015   0.141   0.494   1.711  3.5514  2.9729 -1.7512
  968THF     H514016   0.286   0.423   1.774  0.3299 -3.3499  1.9799
  968THF     H614017   0.346   0.723   2.004 -0.6025 -0.5456  1.1828
  968THF     H714018   0.422   0.561   1.957  0.8849  0.7218  0.7340
  968THF     C814019   0.408   0.685   1.794 -0.1658 -0.1998 -0.1758
  968THF     C914020   0.326   0.615   1.687  0.0559 -0.4696 -0.1116
  968THF    H1014021   0.514   0.647   1.790  2.9585  1.2051 -1.7769
  968THF    H1114022   0.408   0.789   1.775 -1.5544 -2.3883 -2.0496
  968THF    H1214023   0.279   0.690   1.633  0.9826  0.7504  0.0309
  968THF    H1314024   0.386   0.562   1.611 -1.6131 -1.5764 -1.3389
  969THF     O114025   4.868   0.626   1.412  0.8132  0.3552 -0.0088
  969THF     C214026   4.898   0.722   1.512 -0.6871  0.8144  0.6307
  969THF     C314027   4.850   0.682   1.282 -0.8108 -0.4750  0.6794
  969THF     H414028   4.946   0.682   1.604  0.7456  2.4161 -0.4551
  969THF     H514029   4.798   0.758   1.539 -0.8577 -0.4220 -1.8047
  969THF     H614030   4.876   0.616   1.193 -0.2430 -1.4622 -0.1720
  969THF     H714031   4.745   0.702   1.285 -0.3232 -4.4210 -0.3980
  969THF     C814032   4.940   0.803   1.289  0.0505  0.0887 -0.0469
  969THF     C914033   4.998   0.806   1.429 -0.4837  0.0703  0.1334
  969THF    H1014034   4.890   0.898   1.269 -1.3419  2.0463  0.2696
  969THF    H1114035   5.026   0.798   1.220  0.8289 -0.0321  0.5931
  969THF    H1214036   5.095   0.762   1.437  1.1282  3.1601  1.4980
  969THF    H1314037   5.003   0.906   1.458 -2.2893  1.0571 -1.9711
  970THF     O114038   2.182   5.286   1.747 -0.0536 -0.2321  0.5116
  970THF     C214039   2.121   5.175   1.811  0.1788 -1.1726 -0.9076
  970THF     C314040   2.086   5.389   1.741 -0.7560 -0.1621  0.3079
  970THF     H414041   2.206   5.109   1.836  2.2684 -0.7036  1.3129
  970THF     H514042   2.047   5.126   1.743 -1.4604  0.9738 -1.2091
  970THF     H614043   2.136   5.486   1.724 -0.2435 -0.4768 -0.1919
  970THF     H714044   2.008   5.387   1.667  0.4610 -1.3932  0.2938
  970THF     C814045   2.038   5.389   1.887  0.3612  0.5352 -0.4852
  970THF     C914046   2.042   5.241   1.924  0.8153 -0.5372 -0.7695
  970THF    H1014047   1.937   5.432   1.912 -1.9645 -2.3924 -1.8512
  970THF    H1114048   2.108   5.440   1.963 -1.0901 -0.4872 -1.0987
  970THF    H1214049   2.097   5.220   2.018  0.4885 -0.8772  0.3017
  970THF    H1314050   1.941   5.211   1.938  0.8699 -1.0014  1.3342
  971THF     O114051   2.786   1.771   0.162  0.0222 -0.5141  0.5330
  971THF     C214052   2.838   1.728   0.290 -0.0441 -0.8551  0.2211
  971THF     C314053   2.657   1.813   0.183 -0.6094  0.2547 -0.0960
  971THF     H414054   2.871   1.821   0.337  0.2753 -2.0547 -0.7928
  971THF     H514055   2.920   1.659   0.280 -3.4260  0.5347 -1.4419
  971THF     H614056   2.671   1.916   0.208  1.6547 -0.6696 -0.9088
  971THF     H714057   2.592   1.815   0.099  3.1842 -0.0290 -0.3211
  971THF     C814058   2.602   1.728   0.299  0.2829  0.3404 -0.9229
  971THF     C914059   2.718   1.664   0.361 -0.5699  0.1267 -0.4748
  971THF    H1014060   2.540   1.648   0.258 -3.2386  0.7189 -0.9447
  971THF    H1114061   2.534   1.793   0.357  2.2968 -0.5971 -0.1272
  971THF    H1214062   2.720   1.701   0.463  0.1696 -2.0135 -2.1572
  971THF    H1314063   2.700   1.557   0.356 -0.2493 -0.0837 -1.0498
  972THF     O114064   2.069   0.020   4.526  0.9368 -0.1271 -0.4735
  972THF     C214065   1.954   0.086   4.588  0.8578 -0.0017  0.1548
  972THF     C314066   2.017  -0.101   4.484  0.2776 -0.0298 -0.2556
  972THF     H414067   1.975   0.193   4.600  1.7472  2.2433 -1.9402
  972THF     H514068   1.930   0.043   4.689 -1.6885 -3.1738 -0.6354
  972THF     H614069   2.079  -0.152   4.414  1.9217  1.2074  0.2708
  972THF     H714070   2.004  -0.176   4.563  0.1038  0.9865  0.7053
  972THF     C814071   1.885  -0.056   4.408  0.6153  0.0503 -1.1395
  972THF     C914072   1.836   0.065   4.490 -0.0257 -0.0526  0.1105
  972THF    H1014073   1.814  -0.139   4.413 -2.7470  2.3171  0.5685
  972THF    H1114074   1.905  -0.031   4.309  0.0082 -0.1200 -1.0280
  972THF    H1214075   1.813   0.145   4.423 -0.2516  0.3538  0.7908
  972THF    H1314076   1.737   0.047   4.535 -0.3067  2.3750 -0.1183
  973THF     O114077   2.499   4.073   0.916 -0.2172 -0.3193 -0.3045
  973THF     C214078   2.412   4.008   1.003 -0.5810 -0.2072  0.7567
  973THF     C314079   2.431   4.182   0.857  0.0277 -0.4802  0.8874
  973THF     H414080   2.463   3.971   1.092  0.0942 -0.8659  1.8699
  973THF     H514081   2.356   3.923   0.962 -1.6973 -1.4201  2.0232
  973THF     H614082   2.496   4.254   0.804 -1.9453  2.6703 -1.9418
  973THF     H714083   2.359   4.141   0.782  2.7889  0.3205 -1.3951
  973THF     C814084   2.358   4.249   0.980 -0.1026  0.0682 -0.4259
  973THF     C914085   2.323   4.122   1.059  0.3062  0.2975 -0.6836
  973THF    H1014086   2.272   4.305   0.955  2.1852 -2.4949 -0.1887
  973THF    H1114087   2.421   4.323   1.035 -0.9656 -0.0905  0.4319
  973THF    H1214088   2.340   4.141   1.160  0.5444  0.9660 -1.4955
  973THF    H1314089   2.223   4.096   1.046  0.5892  0.8291 -2.6534
  974THF     O114090   1.461   5.451   4.635  0.2814 -0.2882 -0.2398
  974THF     C214091   1.463   5.350   4.533 -0.0264  0.1414  0.0801
  974THF     C314092   1.330   5.494   4.669  0.3907 -0.2966  0.4960
  974THF     H414093   1.462   5.253   4.577  3.2829  4.5317  0.0018
  974THF     H514094   1.552   5.362   4.469  3.0615 -2.7945  0.6107
  974THF     H614095   1.303   5.436   4.754  0.4953  2.1729  0.8416
  974THF     H714096   1.322   5.602   4.704  3.0868 -0.7849  2.3961
  974THF     C814097   1.243   5.461   4.549 -0.1385 -0.0522  0.0152
  974THF     C914098   1.318   5.357   4.470  0.3298 -0.0873  0.1212
  974THF    H1014099   1.224   5.541   4.482  0.5288 -1.2665 -1.6203
  974THF    H1114100   1.147   5.423   4.586 -0.8488  1.2995 -0.7856
  974THF    H1214101   1.273   5.258   4.472 -1.2127  1.3862 -0.2257
  974THF    H1314102   1.327   5.387   4.365 -1.0146 -1.2018  0.1425
  975THF     O114103   4.391   4.688   4.219  0.0796 -0.4061 -0.0238
  975THF     C214104   4.452   4.643   4.338  1.0617  0.4568 -0.5088
  975THF     C314105   4.424   4.599   4.112  0.3519  0.1241  0.2832
  975THF     H414106   4.404   4.667   4.437 -0.3828 -0.7557 -0.9478
  975THF     H514107   4.565   4.664   4.344 -0.4883 -2.3858 -0.0073
  975THF     H614108   4.329   4.559   4.064  0.7753 -0.7604 -0.3438
  975THF     H714109   4.486   4.658   4.048  1.0214 -1.1361  1.5028
  975THF     C814110   4.505   4.483   4.169 -0.8394 -0.1695 -0.0191
  975THF     C914111   4.467   4.493   4.315  0.1296 -0.1491 -0.1347
  975THF    H1014112   4.613   4.495   4.158  0.6950 -0.2574  0.8160
  975THF    H1114113   4.471   4.394   4.121 -2.0525 -1.1140 -0.6163
  975THF    H1214114   4.366   4.444   4.328 -1.1767 -2.9956  0.6031
  975THF    H1314115   4.549   4.453   4.378 -1.2439  2.1329  2.8930
  976THF     O114116   4.313   4.380   2.576  0.0171  0.0664  0.0322
  976THF     C214117   4.256   4.328   2.454 -0.0418 -0.2031 -0.5297
  976THF     C314118   4.207   4.420   2.660  0.3854 -0.5343  0.0512
  976THF     H414119   4.273   4.221   2.434 -1.4660  0.0745  0.0392
  976THF     H514120   4.290   4.385   2.360 -0.7766 -2.0014 -1.0485
  976THF     H614121   4.181   4.344   2.737  1.0535 -1.0290  1.9864
  976THF     H714122   4.237   4.512   2.718  2.2848  2.6534 -1.1524
  976THF     C814123   4.081   4.452   2.569 -0.0242 -0.0732  0.8230
  976THF     C914124   4.105   4.345   2.461  0.1834  0.2385  0.1273
  976THF    H1014125   4.091   4.556   2.524  0.9840  3.0695 -2.4023
  976THF    H1114126   3.988   4.434   2.616  0.6897  0.1254 -0.1251
  976THF    H1214127   4.065   4.251   2.497 -0.0382 -0.5665  0.1750
  976THF    H1314128   4.052   4.367   2.365 -0.7606  0.6584 -1.2713
  977THF     O114129   0.538   5.172   4.652 -0.2917 -0.5030  0.0063
  977THF     C214130   0.415   5.121   4.621  0.0217 -0.2523  0.1308
  977THF     C314131   0.639   5.126   4.562  0.3558 -0.8257  0.0333
  977THF     H414132   0.371   5.183   4.549 -0.0383  0.8687 -1.9921
  977THF     H514133   0.347   5.134   4.708 -1.7848 -0.9087  1.4295
  977THF     H614134   0.635   5.179   4.472  0.8082 -0.1217 -2.9883
  977THF     H714135   0.734   5.139   4.610  1.3735 -0.7679 -1.0418
  977THF     C814136   0.604   4.980   4.555 -0.0819 -0.1429 -0.4598
  977THF     C914137   0.446   4.984   4.567 -0.2175  0.1171  0.6098
  977THF    H1014138   0.641   4.934   4.645 -0.7932 -1.4383  0.4571
  977THF    H1114139   0.636   4.928   4.462 -1.3126  1.1916  1.1754
  977THF    H1214140   0.398   4.983   4.468  2.1215  0.1562 -1.2450
  977THF    H1314141   0.399   4.904   4.623 -0.3805 -1.7217 -1.3470
  978THF     O114142   1.935   3.041   0.662  0.1083 -0.2752 -0.0924
  978THF     C214143   2.031   2.996   0.566  0.9059  0.0170  0.3572
  978THF     C314144   1.907   2.940   0.764 -0.7596 -0.1280 -0.1154
  978THF     H414145   2.133   3.011   0.605  0.0810  1.2082 -3.3623
  978THF     H514146   2.024   3.054   0.473 -0.6641  1.6986 -2.0110
  978THF     H614147   1.941   2.974   0.861 -1.7541  0.7577 -2.2866
  978THF     H714148   1.799   2.943   0.768  2.8944  1.0398  1.9348
  978THF     C814149   1.962   2.812   0.696  0.5986  0.6058  0.6859
  978THF     C914150   1.986   2.853   0.548  0.4605 -0.4788 -0.3274
  978THF    H1014151   1.895   2.729   0.705  0.0241  1.5124  0.9807
  978THF    H1114152   2.051   2.771   0.734 -0.5617  0.4696 -1.3602
  978THF    H1214153   2.066   2.802   0.498  0.6876 -0.9576  0.6461
  978THF    H1314154   1.894   2.841   0.486 -2.8987 -2.1855  1.3659
  979THF     O114155   0.466   0.088   3.776 -0.0165  0.2404 -0.2159
  979THF     C214156   0.600   0.135   3.751 -0.4904  0.1737 -0.1875
  979THF     C314157   0.422   0.020   3.657 -0.2843  0.3512  0.7528
  979THF     H414158   0.645   0.153   3.854 -1.1720 -1.0847  1.4440
  979THF     H514159   0.590   0.224   3.686  1.7033 -1.4418 -0.5520
  979THF     H614160   0.383  -0.076   3.676  2.3351  1.7764  0.8591
  979THF     H714161   0.344   0.070   3.604 -0.3129 -1.6002 -0.0410
  979THF     C814162   0.549  -0.007   3.576 -0.3301  0.7567  0.1686
  979THF     C914163   0.667   0.030   3.668 -0.0014  0.1461 -0.6874
  979THF    H1014164   0.554   0.063   3.493  1.5271 -0.2773 -0.1855
  979THF    H1114165   0.550  -0.107   3.540 -0.6366  0.7420 -1.0915
  979THF    H1214166   0.684  -0.059   3.732 -0.5575 -1.0679  0.5105
  979THF    H1314167   0.754   0.065   3.612  0.7610 -1.2634 -0.9474
  980THF     O114168   0.673   5.146   5.021 -0.3728  0.1963  0.8299
  980THF     C214169   0.636   5.019   4.968  0.1676 -0.2100  0.2228
  980THF     C314170   0.668   5.140   5.159  0.4057  1.0313 -0.6182
  980THF     H414171   0.679   4.995   4.867 -1.5431 -2.0415  0.5741
  980THF     H514172   0.528   5.025   4.946 -0.8869 -0.0937  0.0798
  980THF     H614173   0.760   5.168   5.201 -0.9426 -0.0962 -0.6546
  980THF     H714174   0.592   5.206   5.203  2.0906  2.6803 -1.9353
  980THF     C814175   0.653   4.987   5.194 -0.5287  0.1966  0.1507
  980THF     C914176   0.677   4.911   5.064 -0.1784 -0.2008 -0.6834
  980THF    H1014177   0.557   4.956   5.230 -0.8431 -0.4356  0.4708
  980THF    H1114178   0.721   4.956   5.269 -1.2162  2.9558 -2.4971
  980THF    H1214179   0.784   4.883   5.044 -0.7623 -0.7625 -1.9919
  980THF    H1314180   0.608   4.834   5.056  1.3994 -1.4622 -2.0714
  981THF     O114181   0.988   1.992   1.062  0.3664  0.4184  0.0275
  981THF     C214182   1.029   2.125   1.098  0.2113 -0.4219 -0.4996
  981THF     C314183   1.104   1.911   1.081  0.4947  0.4348 -0.3820
  981THF     H414184   0.997   2.158   1.198 -1.7688  0.7703  2.4920
  981THF     H514185   0.984   2.195   1.030  2.6338 -1.4940  0.6905
  981THF     H614186   1.113   1.875   1.182  0.0671 -2.2713 -0.8933
  981THF     H714187   1.086   1.821   1.022  0.4515 -0.1895 -0.4151
  981THF     C814188   1.220   1.990   1.036  0.0702 -0.8068 -0.1928
  981THF     C914189   1.180   2.128   1.086  0.7562  0.2124 -0.0666
  981THF    H1014190   1.222   1.992   0.924 -1.6429 -0.0064  0.5326
  981THF    H1114191   1.327   1.970   1.060 -0.3389  1.2627  2.4853
  981THF    H1214192   1.230   2.154   1.184 -0.0389  2.5394  1.2747
  981THF    H1314193   1.215   2.204   1.019  1.5489  3.7211  1.5551
  982THF     O114194   4.505   1.926   0.397  0.2713 -0.0076  0.4090
  982THF     C214195   4.395   1.968   0.479 -0.6664  0.6857  0.6921
  982THF     C314196   4.631   1.923   0.474  0.7280  0.2981  0.2565
  982THF     H414197   4.365   1.887   0.543  0.4910 -0.7148  1.3915
  982THF     H514198   4.316   1.999   0.418  1.7270 -0.1493 -0.9800
  982THF     H614199   4.652   1.831   0.522 -0.7227  1.2111 -1.4694
  982THF     H714200   4.719   1.944   0.417  3.4092  3.4185 -1.1597
  982THF     C814201   4.615   2.033   0.582 -0.3354 -0.4695  0.0633
  982THF     C914202   4.466   2.079   0.555 -0.3553 -0.0183  0.0590
  982THF    H1014203   4.680   2.113   0.558 -0.8302 -2.4880 -1.5409
  982THF    H1114204   4.635   1.985   0.680 -1.0207  0.6189  0.7668
  982THF    H1214205   4.411   2.101   0.648 -0.6376 -0.0781  3.5608
  982THF    H1314206   4.449   2.165   0.493 -0.1802  1.3401 -3.0648
  983THF     O114207   1.658   4.412   4.178  0.5847  0.4501 -0.1439
  983THF     C214208   1.572   4.333   4.090 -0.4484  0.0161 -0.4034
  983THF     C314209   1.739   4.312   4.233 -0.5535  0.3641 -0.1886
  983THF     H414210   1.628   4.294   4.009  1.6406  0.0564  3.4529
  983THF     H514211   1.487   4.390   4.054  1.1181  1.7081 -0.6899
  983THF     H614212   1.819   4.293   4.161  0.3078  1.0680 -0.1767
  983THF     H714213   1.785   4.350   4.330  2.3346 -0.2753  0.6960
  983THF     C814214   1.652   4.199   4.273 -0.0539  0.3424 -0.0482
  983THF     C914215   1.529   4.230   4.189 -1.1669  0.6053  0.7642
  983THF    H1014216   1.627   4.203   4.383 -1.6928  0.9978 -0.1892
  983THF    H1114217   1.693   4.100   4.245  2.9880  0.6851 -2.8580
  983THF    H1214218   1.496   4.138   4.141 -0.8831  3.5856 -0.3374
  983THF    H1314219   1.446   4.266   4.253  0.1468 -0.9641  0.7771
  984THF     O114220   4.346   0.383   5.166 -0.3977 -0.1472  0.2571
  984THF     C214221   4.245   0.386   5.055  0.3802  0.4285 -0.5076
  984THF     C314222   4.311   0.266   5.231 -0.0253 -0.3507  0.2868
  984THF     H414223   4.289   0.441   4.973  1.6885  0.2747  1.1521
  984THF     H514224   4.161   0.451   5.076 -0.7150 -1.0052  1.1091
  984THF     H614225   4.383   0.227   5.296 -0.9746  0.8371 -1.7001
  984THF     H714226   4.228   0.278   5.304  0.9484 -0.4903 -1.0075
  984THF     C814227   4.280   0.162   5.121  0.1338 -0.1377 -0.5951
  984THF     C914228   4.207   0.244   5.021  0.2351  0.3891  0.1647
  984THF    H1014229   4.225   0.070   5.149 -3.1396  0.1994 -0.7102
  984THF    H1114230   4.380   0.132   5.090 -0.0000 -1.3654 -2.3109
  984THF    H1214231   4.247   0.225   4.918  0.4182  2.3588  1.5071
  984THF    H1314232   4.095   0.225   5.019 -0.5927 -0.6109  1.4627
  985THF     O114233   4.293   5.181   5.280  0.0552 -0.0188  0.1193
  985THF     C214234   4.352   5.305   5.247  0.7652 -0.3364  0.6011
  985THF     C314235   4.234   5.187   5.411  0.8712  0.5762  0.0250
  985THF     H414236   4.289   5.382   5.204  0.1037 -1.2532 -0.0380
  985THF     H514237   4.436   5.286   5.179 -1.1511  0.9153 -0.1012
  985THF     H614238   4.136   5.224   5.406  0.1527 -1.6849  4.2463
  985THF     H714239   4.235   5.089   5.454  0.6525 -0.6179 -1.1088
  985THF     C814240   4.330   5.276   5.486 -0.2772 -0.2342 -0.2245
  985THF     C914241   4.403   5.359   5.376  0.9438  0.0806  0.3790
  985THF    H1014242   4.390   5.202   5.537  1.4438 -2.5959 -1.9640
  985THF    H1114243   4.268   5.332   5.556  1.1089  0.6975 -1.8144
  985THF    H1214244   4.380   5.461   5.402  0.6581  0.9421  2.8856
  985THF    H1314245   4.511   5.358   5.390  1.2277 -2.4203  0.1699
  986THF     O114246   3.485   4.722   5.022  0.1074  0.1195  0.3883
  986THF     C214247   3.407   4.838   5.006  0.0232  0.1568  0.6207
  986THF     C314248   3.458   4.665   5.155  0.0449 -0.0738  0.7119
  986THF     H414249   3.364   4.835   4.907  2.4026 -0.2010 -0.8186
  986THF     H514250   3.484   4.916   5.003 -1.5020 -0.5348 -1.4494
  986THF     H614251   3.399   4.577   5.140 -0.9129  1.1510 -0.4117
  986THF     H714252   3.554   4.628   5.193 -0.5842  2.1167 -1.1166
  986THF     C814253   3.385   4.776   5.232  0.3115  0.0191 -0.3659
  986THF     C914254   3.304   4.841   5.118  0.6261 -0.4222  0.1052
  986THF    H1014255   3.451   4.841   5.287  0.1886  2.2253 -1.2231
  986THF    H1114256   3.315   4.746   5.306  0.1793  0.6495 -1.3900
  986THF    H1214257   3.210   4.786   5.091  0.1825 -1.4119 -2.0474
  986THF    H1314258   3.277   4.939   5.144  2.5780 -1.0291  0.3831
  987THF     O114259   0.923   5.476   2.568 -0.1429  0.1290 -0.1029
  987THF     C214260   1.038   5.423   2.515 -0.1122  0.1277  0.2855
  987THF     C314261   0.810   5.412   2.504  0.2649 -1.2172 -0.1530
  987THF     H414262   1.057   5.328   2.572 -1.2755  0.8894  0.0394
  987THF     H514263   1.124   5.480   2.539  0.5933 -0.1792  0.0301
  987THF     H614264   0.795   5.314   2.549  0.8435 -0.1495  1.2168
  987THF     H714265   0.715   5.458   2.520 -0.1585  1.7238 -1.4174
  987THF     C814266   0.848   5.399   2.357  0.1860 -0.3284 -0.4987
  987THF     C914267   0.997   5.431   2.366 -0.1333  0.2940  0.9357
  987THF    H1014268   0.785   5.463   2.303 -2.2923 -4.2182  1.4373
  987THF    H1114269   0.829   5.289   2.324 -0.3367  0.5144 -0.1849
  987THF    H1214270   1.054   5.377   2.292 -3.2264 -0.6783 -1.6244
  987THF    H1314271   1.005   5.536   2.329 -1.8717  0.9721 -0.9685
  988THF     O114272   1.538   1.276   0.259  0.3726  0.0247 -0.4774
  988THF     C214273   1.648   1.347   0.208  0.0825  0.3020  0.1098
  988THF     C314274   1.471   1.230   0.143  0.7721  0.0864 -0.6783
  988THF     H414275   1.725   1.274   0.172  1.1822  0.7313 -0.6977
  988THF     H514276   1.700   1.405   0.282  1.4645 -2.1510 -0.4126
  988THF     H614277   1.517   1.148   0.093 -3.5703  1.0710 -0.9398
  988THF     H714278   1.365   1.193   0.158 -1.4131 -0.5515  0.4486
  988THF     C814279   1.458   1.363   0.062  0.2382 -0.5093  0.1685
  988THF     C914280   1.584   1.430   0.099  0.2191  0.7154  0.0177
  988THF    H1014281   1.367   1.410   0.088  3.7487 -2.6977 -0.6880
  988THF    H1114282   1.460   1.335  -0.049 -0.7672  1.3916 -3.3289
  988THF    H1214283   1.652   1.441   0.012 -1.2061  0.3698 -1.1903
  988THF    H1314284   1.559   1.524   0.140  2.3234 -0.6502 -0.0591
  989THF     O114285   2.362   0.273   0.721 -0.3380 -0.1249 -0.1996
  989THF     C214286   2.264   0.171   0.760 -0.1609  1.0722 -0.6858
  989THF     C314287   2.493   0.227   0.765  0.5348 -0.0599  0.3552
  989THF     H414288   2.201   0.157   0.669  0.6481 -0.5791 -0.6362
  989THF     H514289   2.201   0.221   0.843  0.1912  1.9972 -1.4206
  989THF     H614290   2.546   0.194   0.675 -3.9339  1.7776  2.0208
  989THF     H714291   2.555   0.305   0.801  0.3809  1.0088  1.5116
  989THF     C814292   2.472   0.112   0.868 -0.0050  0.0410 -0.2171
  989THF     C914293   2.338   0.047   0.820  0.0678 -0.1756  0.6290
  989THF    H1014294   2.455   0.154   0.962 -0.9766  1.9327 -2.2205
  989THF    H1114295   2.548   0.041   0.872 -2.9091 -0.6429  0.8704
  989THF    H1214296   2.356  -0.023   0.737  2.7650  0.3063  1.0199
  989THF    H1314297   2.273   0.008   0.894 -1.5852 -0.6611  0.7178
  990THF     O114298   2.777   1.692   1.978  0.7059  0.7572  0.2402
  990THF     C214299   2.667   1.661   2.056 -0.2999  0.1669 -0.4607
  990THF     C314300   2.893   1.628   2.029  0.8790  0.0815  0.0018
  990THF     H414301   2.582   1.646   1.990 -1.5555 -0.5615 -0.7735
  990THF     H514302   2.637   1.733   2.135 -1.7191 -1.0839  0.4963
  990THF     H614303   2.980   1.621   1.959 -1.6487  1.6623 -0.5368
  990THF     H714304   2.922   1.668   2.124 -0.3460  0.8943 -1.0639
  990THF     C814305   2.833   1.489   2.042  0.4390 -0.1099 -0.2702
  990THF     C914306   2.710   1.520   2.123  0.0381 -1.0617 -0.2826
  990THF    H1014307   2.913   1.425   2.076 -0.8735  0.2797  0.4667
  990THF    H1114308   2.799   1.448   1.939  1.0479  1.2943 -1.1890
  990THF    H1214309   2.631   1.450   2.116  1.5439 -0.8792 -1.4524
  990THF    H1314310   2.737   1.541   2.230  3.6388  2.3771 -1.4880
  991THF     O114311   4.881   4.941   5.410  0.0447  0.7027 -0.6339
  991THF     C214312   4.745   4.989   5.412  0.2766  0.2705 -0.2239
  991THF     C314313   4.959   5.058   5.411  0.1624  0.2571  1.0038
  991THF     H414314   4.668   4.912   5.429 -0.7917 -0.1920  3.9031
  991THF     H514315   4.729   5.040   5.322  2.5719 -1.8954  1.6728
  991THF     H614316   5.066   5.038   5.421  3.9081  1.1756  1.4713
  991THF     H714317   4.945   5.110   5.313 -1.5056 -1.0047  1.1044
  991THF     C814318   4.894   5.133   5.531  0.6228  0.3976  0.2145
  991THF     C914319   4.742   5.096   5.520  0.3751  0.5339 -0.7039
  991THF    H1014320   4.914   5.235   5.514 -0.0822  1.4990 -0.8641
  991THF    H1114321   4.948   5.125   5.630  0.3060  1.6992  0.5275
  991THF    H1214322   4.707   5.056   5.617 -0.2036  2.1061 -0.7990
  991THF    H1314323   4.683   5.180   5.475  0.7033 -1.4693  0.1160
  992THF     O114324   1.613   3.215   3.424 -0.5745  0.0978 -0.3014
  992THF     C214325   1.741   3.159   3.460 -0.0766  0.1263  0.4716
  992THF     C314326   1.601   3.345   3.473 -0.4295 -0.0855  0.7185
  992THF     H414327   1.823   3.193   3.400  0.7539 -0.2850 -0.4879
  992THF     H514328   1.732   3.050   3.432  1.1924  1.1573 -1.0643
  992THF     H614329   1.658   3.415   3.410 -0.2839 -0.7142  0.6227
  992THF     H714330   1.498   3.384   3.470 -1.2730 -0.5802 -4.0890
  992THF     C814331   1.663   3.323   3.617  0.5531 -0.2106  0.4361
  992THF     C914332   1.757   3.197   3.600 -0.0860  0.0159  0.3311
  992THF    H1014333   1.589   3.298   3.693  1.8517  1.7120  0.6406
  992THF    H1114334   1.704   3.422   3.642 -0.3084  1.4245 -0.1869
  992THF    H1214335   1.858   3.231   3.616  2.8873  0.7529  0.4185
  992THF    H1314336   1.747   3.120   3.669  0.7870  2.0120 -1.4406
  993THF     O114337   3.296   0.404   0.846 -0.2829  0.1006 -0.4399
  993THF     C214338   3.179   0.477   0.824 -0.4531 -1.2956 -0.1198
  993THF     C314339   3.298   0.344   0.974 -0.0249  0.4536  0.8477
  993THF     H414340   3.158   0.495   0.717  2.4888 -0.9987 -2.5965
  993THF     H514341   3.194   0.574   0.865 -1.1270  1.1985 -1.0797
  993THF     H614342   3.348   0.245   0.973  0.3916 -1.1016  1.8448
  993THF     H714343   3.360   0.405   1.042  1.3393  2.4046 -0.5154
  993THF     C814344   3.154   0.333   1.016 -0.2212 -0.1985  0.1292
  993THF     C914345   3.074   0.400   0.897  0.4301 -1.2232 -0.2785
  993THF    H1014346   3.144   0.385   1.117  0.2175 -2.2144  0.5356
  993THF    H1114347   3.115   0.229   1.022  0.3027 -0.1594 -0.3423
  993THF    H1214348   3.036   0.318   0.838  0.2588 -0.1670 -0.6180
  993THF    H1314349   2.996   0.469   0.928  2.0421  1.6513 -3.0664
  994THF     O114350   4.421   3.611   4.120  0.1526 -0.0604  0.4697
  994THF     C214351   4.511   3.518   4.185  0.0760  0.0153  0.6833
  994THF     C314352   4.374   3.697   4.224 -0.0676 -0.1195 -0.7128
  994THF     H414353   4.567   3.462   4.113  0.0673 -1.1909  0.4468
  994THF     H514354   4.460   3.442   4.241 -0.9867  1.0173  1.0478
  994THF     H614355   4.339   3.787   4.173 -1.1379 -1.3282  2.3499
  994THF     H714356   4.300   3.649   4.283 -0.8748  0.0964  2.9063
  994THF     C814357   4.488   3.709   4.321  0.2095  1.2526  0.3308
  994THF     C914358   4.593   3.613   4.268  0.7631 -0.1264  0.1465
  994THF    H1014359   4.459   3.677   4.417  0.9953 -0.2223 -0.4796
  994THF    H1114360   4.527   3.807   4.339  2.6283 -0.7058  1.3907
  994THF    H1214361   4.666   3.663   4.208 -1.7124  1.5763  1.7786
  994THF    H1314362   4.652   3.560   4.343  1.1640 -0.9971  0.7645
  995THF     O114363   3.183   1.461   3.692  0.3034 -0.4918 -0.3269
  995THF     C214364   3.238   1.590   3.665 -0.0764  0.2857 -0.1339
  995THF     C314365   3.211   1.369   3.587  0.0541 -0.4256  0.8005
  995THF     H414366   3.343   1.590   3.694 -2.3861 -0.3717  3.5138
  995THF     H514367   3.185   1.669   3.716  1.7058 -1.4276  1.6233
  995THF     H614368   3.288   1.295   3.616 -0.7281  0.5519 -0.1468
  995THF     H714369   3.119   1.314   3.577 -1.9462 -1.1702  0.9556
  995THF     C814370   3.254   1.456   3.469 -0.6232  0.0352  0.0898
  995THF     C914371   3.227   1.595   3.514  0.0408  0.5407 -0.6237
  995THF    H1014372   3.197   1.439   3.378 -1.3090  0.4041 -1.4938
  995THF    H1114373   3.362   1.450   3.446  3.5655 -0.1500 -1.3100
  995THF    H1214374   3.288   1.684   3.477  0.7539  0.8310 -0.7279
  995THF    H1314375   3.130   1.619   3.482 -2.9715 -1.2513 -1.4709
  996THF     O114376   4.677   2.764   0.081  0.2007 -0.0938 -0.0298
  996THF     C214377   4.734   2.877   0.136  0.1152  0.2255 -0.4119
  996THF     C314378   4.601   2.694   0.176 -0.1833 -0.1169 -0.1761
  996THF     H414379   4.728   2.961   0.067 -0.3576 -0.8507 -1.6614
  996THF     H514380   4.835   2.854   0.171 -1.1243  0.6642  1.2323
  996THF     H614381   4.516   2.627   0.140 -0.2983 -2.7478  0.3389
  996THF     H714382   4.677   2.638   0.232 -1.1778  0.3457  1.6250
  996THF     C814383   4.540   2.805   0.257 -0.1296  0.3957  0.8508
  996THF     C914384   4.645   2.919   0.252  0.7654  0.1835 -0.4796
  996THF    H1014385   4.500   2.787   0.363 -0.6419 -0.4327  0.7326
  996THF    H1114386   4.453   2.860   0.213 -1.6889  0.6697  1.9555
  996THF    H1214387   4.608   3.023   0.248 -3.5002 -1.2635  4.6202
  996THF    H1314388   4.711   2.911   0.333  1.1235  1.6491 -3.0321
  997THF     O114389   0.849   2.813   2.321  0.0076 -0.1411 -0.3149
  997THF     C214390   0.846   2.742   2.199  0.0290  0.8421  0.8383
  997THF     C314391   0.720   2.854   2.364  0.2320  0.0634 -0.0146
  997THF     H414392   0.930   2.671   2.183  1.8406  1.9474  1.5246
  997THF     H514393   0.837   2.797   2.111 -1.3107  1.2973  0.9606
  997THF     H614394   0.721   2.842   2.475 -1.1331  2.6216 -0.2475
  997THF     H714395   0.707   2.956   2.337  1.3020  0.6890 -0.9502
  997THF     C814396   0.624   2.759   2.288 -0.9023  0.2148 -0.2869
  997THF     C914397   0.718   2.655   2.220 -0.9222  0.4408 -0.8805
  997THF    H1014398   0.572   2.814   2.209  1.1905 -1.5179  2.3546
  997THF    H1114399   0.540   2.715   2.347  0.1674 -0.2274  1.1239
  997THF    H1214400   0.747   2.575   2.290  0.6354  0.9385  2.2745
  997THF    H1314401   0.687   2.616   2.122 -0.3820  2.0038 -0.6393
  998THF     O114402   1.896   2.173   1.793  0.2497 -0.5304 -0.1255
  998THF     C214403   1.964   2.137   1.912  1.0728 -0.1713 -0.2827
  998THF     C314404   1.999   2.241   1.716 -0.5235 -0.6832  0.5298
  998THF     H414405   1.901   2.058   1.957 -1.8703  0.6693 -0.0292
  998THF     H514406   1.972   2.213   1.992 -2.3151  1.3771  1.4028
  998THF     H614407   2.001   2.210   1.615 -1.0763 -1.9206  2.1983
  998THF     H714408   1.993   2.345   1.717 -0.1108 -3.3934  0.1663
  998THF     C814409   2.134   2.207   1.775 -0.0263  0.2823 -0.4877
  998THF     C914410   2.099   2.099   1.878  0.7298  0.3809  0.0831
  998THF    H1014411   2.172   2.296   1.821  0.0946 -0.7028  0.2304
  998THF    H1114412   2.199   2.166   1.703 -0.0996 -1.8851 -2.5859
  998THF    H1214413   2.111   2.000   1.829  0.8174 -1.1447 -1.7615
  998THF    H1314414   2.169   2.088   1.960 -2.3892 -0.9476  2.4325
  999THF     O114415   4.916   0.794   0.914  0.0579 -0.3663  0.0008
  999THF     C214416   4.935   0.895   0.815  0.4108  0.1567  0.0609
  999THF     C314417   4.940   0.669   0.853  0.7865 -0.0715 -0.6852
  999THF     H414418   4.941   0.982   0.875 -0.1518  2.1230  1.0219
  999THF     H514419   4.846   0.896   0.753 -0.0171  0.8527 -0.2630
  999THF     H614420   4.942   0.579   0.924  3.1956 -2.1979 -0.6599
  999THF     H714421   4.859   0.636   0.789 -0.5979 -0.7939 -0.5836
  999THF     C814422   5.065   0.691   0.766 -1.2169 -0.0181 -0.9904
  999THF     C914423   5.064   0.846   0.742  0.0639 -0.0178  0.3333
  999THF    H1014424   5.067   0.638   0.671 -2.6493  3.8634 -1.1636
  999THF    H1114425   5.149   0.658   0.831 -0.0132  0.6688  1.1376
  999THF    H1214426   5.159   0.882   0.788 -0.9723  0.2827 -4.6132
  999THF    H1314427   5.073   0.881   0.634  0.7172  2.0946 -1.9732
 1000THF     O114428   3.295   0.162   1.974  0.9644  0.2286 -0.1128
 1000THF     C214429   3.329   0.041   2.040  0.0216 -0.7728 -0.1002
 1000THF     C314430   3.394   0.258   1.969 -0.1919 -0.2843  0.7764
 1000THF     H414431   3.264  -0.043   2.012 -2.3994  1.0781 -0.9021
 1000THF     H514432   3.318   0.057   2.144 -0.9749 -2.1718 -1.3972
 1000THF     H614433   3.381   0.335   1.894  1.3391  2.2778 -1.7263
 1000THF     H714434   3.395   0.298   2.067 -1.4249 -1.2591  1.2655
 1000THF     C814435   3.519   0.168   1.955 -0.3388  0.3926  0.4023
 1000THF     C914436   3.473   0.033   2.002  0.2684  1.2811 -0.3994
 1000THF    H1014437   3.606   0.201   2.017 -0.6881 -0.4982  0.5089
 1000THF    H1114438   3.542   0.162   1.849  0.2785 -0.0405  0.4869
 1000THF    H1214439   3.473  -0.031   1.913  1.2771 -0.0818  0.2476
 1000THF    H1314440   3.532  -0.000   2.086  1.3523  1.6768 -0.6351
 1001THF     O114441   0.062   2.128   1.735 -0.6199 -0.1967  0.5516
 1001THF     C214442   0.088   2.136   1.873  0.1744  0.2508  0.0455
 1001THF     C314443   0.186   2.147   1.675  0.3338  0.2454 -0.2582
 1001THF     H414444   0.141   2.040   1.899 -1.7567 -1.5549  0.2883
 1001THF     H514445  -0.000   2.155   1.928  0.0236  0.5188 -2.8074
 1001THF     H614446   0.241   2.055   1.689  1.7896  1.2424  1.5857
 1001THF     H714447   0.190   2.158   1.565 -1.0272 -0.1339 -1.3744
 1001THF     C814448   0.265   2.244   1.764  0.0579  0.3416  0.4370
 1001THF     C914449   0.177   2.257   1.882  0.1584 -0.4746 -0.9953
 1001THF    H1014450   0.282   2.347   1.726 -1.1445  1.6861 -0.1659
 1001THF    H1114451   0.366   2.214   1.792 -0.2405  0.5999  1.8081
 1001THF    H1214452   0.232   2.270   1.980  2.1711  0.8652 -3.0943
 1001THF    H1314453   0.117   2.344   1.865  1.9050 -0.5315 -2.9516
 1002THF     O114454   3.594   3.233   4.656 -0.5324  0.7649  0.0638
 1002THF     C214455   3.691   3.254   4.751 -0.5184  0.2448 -0.5582
 1002THF     C314456   3.553   3.367   4.613 -0.8797  0.7446  0.1620
 1002THF     H414457   3.765   3.173   4.742 -1.5344  0.0890  3.6030
 1002THF     H514458   3.653   3.232   4.856 -0.2444 -0.2801  3.2502
 1002THF     H614459   3.513   3.357   4.510 -0.6606  0.4483 -1.7276
 1002THF     H714460   3.475   3.406   4.679 -0.1968 -2.0381  1.1095
 1002THF     C814461   3.677   3.460   4.619 -0.5244 -0.4139 -0.1637
 1002THF     C914462   3.728   3.403   4.748  1.0144 -0.3762 -0.6634
 1002THF    H1014463   3.635   3.563   4.623 -0.4485 -0.9981 -0.2649
 1002THF    H1114464   3.750   3.447   4.540 -2.3858  1.5560  2.2882
 1002THF    H1214465   3.838   3.410   4.740 -0.2324  1.4753  1.6968
 1002THF    H1314466   3.684   3.456   4.837  1.0050 -1.2548 -2.6702
 1003THF     O114467   0.649   3.197   2.366 -0.4931 -0.0643  0.2233
 1003THF     C214468   0.679   3.251   2.238  0.2162 -0.0076  0.4050
 1003THF     C314469   0.750   3.248   2.447  0.3217 -0.5420  0.5951
 1003THF     H414470   0.652   3.353   2.245 -1.5926 -3.0293 -2.5303
 1003THF     H514471   0.622   3.210   2.152  1.5003 -0.0851  2.1710
 1003THF     H614472   0.724   3.353   2.466  0.1678 -2.4536 -0.0122
 1003THF     H714473   0.762   3.194   2.542  0.5632  1.6625 -0.1972
 1003THF     C814474   0.878   3.230   2.362  0.1431 -0.2657 -0.2554
 1003THF     C914475   0.831   3.233   2.221 -0.2418 -0.1150  0.0159
 1003THF    H1014476   0.931   3.134   2.381  2.7458 -3.3030  2.8391
 1003THF    H1114477   0.964   3.307   2.389  2.4332  3.0646  0.9507
 1003THF    H1214478   0.867   3.317   2.168 -0.9304  0.9018  0.2725
 1003THF    H1314479   0.874   3.146   2.176 -1.2250 -1.6477  1.6102
 1004THF     O114480   2.983   2.774   4.470  0.3046 -0.0569 -0.3770
 1004THF     C214481   2.900   2.850   4.562  0.1259  0.5266 -0.1843
 1004THF     C314482   2.908   2.738   4.356  0.1361  0.2582  0.0342
 1004THF     H414483   2.959   2.916   4.629 -0.4474  0.0355  0.6879
 1004THF     H514484   2.851   2.767   4.616 -0.4077  1.6592  0.3616
 1004THF     H614485   2.986   2.715   4.274  2.2301 -1.6263  1.6152
 1004THF     H714486   2.848   2.654   4.379 -0.2168  0.6111 -0.2025
 1004THF     C814487   2.819   2.862   4.335  0.8472 -0.1492  0.8175
 1004THF     C914488   2.794   2.922   4.476 -0.0412  1.1249  0.7889
 1004THF    H1014489   2.733   2.840   4.275  1.0721  0.5873  0.1090
 1004THF    H1114490   2.875   2.939   4.273  0.8346 -0.9725  0.0121
 1004THF    H1214491   2.799   3.028   4.480 -0.8827  0.7994  0.5846
 1004THF    H1314492   2.693   2.903   4.515  0.2002 -0.5667  1.2290
 1005THF     O114493   4.858   2.293   1.237 -0.1390  0.1145 -0.2397
 1005THF     C214494   4.771   2.212   1.313  0.1456 -0.1860  0.0374
 1005THF     C314495   4.842   2.236   1.100  0.4106 -0.3564 -0.2190
 1005THF     H414496   4.745   2.264   1.405  0.9808  2.5146 -0.0836
 1005THF     H514497   4.801   2.111   1.331  0.1663 -2.7632 -1.9508
 1005THF     H614498   4.885   2.318   1.037  1.7017 -0.5710  0.3572
 1005THF     H714499   4.909   2.147   1.090 -0.9495 -2.9343 -1.5771
 1005THF     C814500   4.690   2.211   1.083 -0.9505  0.8314  0.4214
 1005THF     C914501   4.649   2.209   1.228  0.1511  0.5530  1.2277
 1005THF    H1014502   4.656   2.130   1.023 -2.1343 -0.1564  0.0175
 1005THF    H1114503   4.651   2.297   1.027  0.2172 -3.0670 -1.5687
 1005THF    H1214504   4.585   2.295   1.244  0.9020 -2.0353 -3.5534
 1005THF    H1314505   4.593   2.113   1.252  0.0703 -1.7520  0.4247
 1006THF     O114506   3.667   3.137   0.811  0.1038  0.0846 -0.2359
 1006THF     C214507   3.670   3.043   0.707  0.5076  0.3263  0.2592
 1006THF     C314508   3.743   3.254   0.790  0.1671  0.2870  0.1296
 1006THF     H414509   3.565   3.044   0.673  0.6341  1.2687 -1.5351
 1006THF     H514510   3.698   2.942   0.740 -1.1937  1.4622  1.0311
 1006THF     H614511   3.705   3.348   0.840 -0.2553  0.2803  2.3083
 1006THF     H714512   3.843   3.246   0.836  2.0171 -0.2128  0.7781
 1006THF     C814513   3.762   3.260   0.639  0.4804  0.3855 -0.0736
 1006THF     C914514   3.776   3.110   0.610 -0.3644 -0.7824  0.0507
 1006THF    H1014515   3.846   3.333   0.618 -1.1700 -1.4247  2.9031
 1006THF    H1114516   3.673   3.304   0.600  1.4559 -0.7072 -1.5229
 1006THF    H1214517   3.752   3.077   0.514 -0.5630 -0.1054 -0.1450
 1006THF    H1314518   3.874   3.068   0.640  0.8951 -1.9460 -0.6221
 1007THF     O114519   3.808   0.044   3.870 -1.3201  0.6668  0.7077
 1007THF     C214520   3.685   0.037   3.799  0.3352 -0.0750 -0.1575
 1007THF     C314521   3.904  -0.041   3.800  0.3436 -0.5834  1.1404
 1007THF     H414522   3.684   0.104   3.713 -3.1602 -3.5142  0.1044
 1007THF     H514523   3.603   0.072   3.865 -0.2436  1.0051 -0.0648
 1007THF     H614524   3.949   0.016   3.715 -0.3519 -0.2213 -0.1236
 1007THF     H714525   3.978  -0.083   3.868  0.9135  1.8237  3.1663
 1007THF     C814526   3.820  -0.157   3.746 -0.4084 -0.0301  0.0315
 1007THF     C914527   3.676  -0.107   3.742 -0.6484 -0.3335 -0.5888
 1007THF    H1014528   3.819  -0.243   3.815 -1.2813  2.0043 -2.6674
 1007THF    H1114529   3.854  -0.205   3.650  0.0032  0.4392 -2.5507
 1007THF    H1214530   3.640  -0.115   3.639  0.1873  0.6326 -2.2094
 1007THF    H1314531   3.619  -0.172   3.803 -2.2985 -1.0969 -0.8269
 1008THF     O114532   0.312   3.037   2.664 -0.4959  0.1908  0.2118
 1008THF     C214533   0.356   3.158   2.612  0.9445 -0.1128  0.6031
 1008THF     C314534   0.191   2.998   2.602  0.0812 -0.2177  0.7912
 1008THF     H414535   0.463   3.179   2.637 -1.3524 -0.5699  0.7603
 1008THF     H514536   0.297   3.238   2.649  2.4421  2.3800 -1.6257
 1008THF     H614537   0.183   2.885   2.599  0.2486 -0.1080  1.0835
 1008THF     H714538   0.111   3.043   2.663  0.0703  0.5064 -0.8075
 1008THF     C814539   0.196   3.059   2.464  0.1660 -0.2373  0.5128
 1008THF     C914540   0.326   3.146   2.461 -0.5099 -0.9091 -1.3699
 1008THF    H1014541   0.111   3.116   2.444  1.6454  1.1110 -0.7021
 1008THF    H1114542   0.211   2.979   2.388  0.1569  0.4289 -1.4417
 1008THF    H1214543   0.401   3.095   2.402  1.5406  2.5493 -0.5290
 1008THF    H1314544   0.302   3.245   2.420  2.0275  3.0338  1.2335
 1009PF6-    P114545   1.775   3.397   5.298 -0.4740  0.2970 -0.0515
 1009PF6-    F214546   1.930   3.363   5.304 -0.1763 -0.5273  0.1508
 1009PF6-    F314547   1.623   3.431   5.297  0.3374  0.0885  0.8196
 1009PF6-    F414548   1.752   3.285   5.408 -0.2444  0.0408  0.1864
 1009PF6-    F514549   1.800   3.505   5.175 -0.3679 -0.5779 -0.1919
 1009PF6-    F614550   1.752   3.282   5.190 -0.2224 -0.2413  0.2040
 1009PF6-    F714551   1.792   3.515   5.412 -0.0594 -0.3733 -0.1083
 1010PF6-    P114552   5.299   3.724   4.392 -0.3775 -0.1290 -0.0429
 1010PF6-    F214553   5.356   3.734   4.245 -0.7152 -0.1761 -0.1301
 1010PF6-    F314554   5.246   3.712   4.542  0.0814  0.3350 -0.5653
 1010PF6-    F414555   5.168   3.643   4.342  0.0470 -0.2134  0.0472
 1010PF6-    F514556   5.424   3.805   4.447 -0.3239  0.3229 -0.5080
 1010PF6-    F614557   5.223   3.863   4.372  0.6799  0.7434 -0.2718
 1010PF6-    F714558   5.379   3.585   4.412  0.2407  0.1605  0.6124
 1011PF6-    P114559   2.369   3.749   4.360 -0.3563 -0.0796 -0.2266
 1011PF6-    F214560   2.332   3.763   4.206 -0.1683  0.0873  0.0071
 1011PF6-    F314561   2.404   3.740   4.514  0.8371  0.0031 -0.3196
 1011PF6-    F414562   2.250   3.650   4.389  0.1142 -0.0509 -0.4924
 1011PF6-    F514563   2.484   3.855   4.344 -1.0454  0.2547 -0.2034
 1011PF6-    F614564   2.270   3.866   4.396  0.4345 -0.4366  0.0806
 1011PF6-    F714565   2.464   3.631   4.328  0.0981  0.2359  0.3436
 1012PF6-    P114566   0.083   5.092   4.899 -0.0017 -0.3005 -0.0609
 1012PF6-    F214567   0.098   4.959   4.803  0.2186  0.2543  0.0029
 1012PF6-    F314568   0.065   5.216   4.999 -0.3600 -0.1439  0.2954
 1012PF6-    F414569   0.090   5.188   4.770  0.0024 -0.6040  0.5115
 1012PF6-    F514570   0.075   4.989   5.023  0.6043  0.0096 -0.0332
 1012PF6-    F614571   0.245   5.098   4.916 -0.3661  0.3241 -0.1394
 1012PF6-    F714572  -0.083   5.084   4.890  0.5197  0.3542  0.2160
 1013PF6-    P114573   3.457   4.921   3.697  0.0208 -0.5141 -0.0160
 1013PF6-    F214574   3.335   5.013   3.742  0.2286  0.2868  0.1187
 1013PF6-    F314575   3.569   4.825   3.644  0.0735 -0.7399  0.1060
 1013PF6-    F414576   3.558   4.988   3.803  0.2027 -0.0507 -0.2349
 1013PF6-    F514577   3.357   4.858   3.590 -0.1358 -0.1955 -0.0645
 1013PF6-    F614578   3.500   5.030   3.591  0.7959  0.2507  0.3158
 1013PF6-    F714579   3.411   4.813   3.811  0.1585 -0.4539  0.4419
 1014PF6-    P114580   0.686   4.504   3.956  0.3593  0.1874  0.1075
 1014PF6-    F214581   0.790   4.619   4.002  0.0415 -0.0126 -0.2928
 1014PF6-    F314582   0.584   4.391   3.915 -0.5163 -0.7790 -0.1952
 1014PF6-    F414583   0.789   4.392   3.992 -0.1873  0.1430  0.3821
 1014PF6-    F514584   0.577   4.623   3.931  0.1174 -0.4101  0.5590
 1014PF6-    F614585   0.735   4.508   3.805  0.1889 -0.0334  0.3141
 1014PF6-    F714586   0.635   4.491   4.114 -0.5558 -0.2233  0.1334
 1015PF6-    P114587   1.052   4.207   2.269  0.0904 -0.2240  0.2324
 1015PF6-    F214588   1.196   4.142   2.298 -0.2568  0.6709  0.9520
 1015PF6-    F314589   0.910   4.273   2.235 -0.2809  0.6190 -0.2914
 1015PF6-    F414590   1.112   4.272   2.140  0.2325 -0.1540  0.5790
 1015PF6-    F514591   0.996   4.145   2.402  0.3040  0.3178 -0.1592
 1015PF6-    F614592   1.095   4.338   2.360  0.1157  0.0438  0.5650
 1015PF6-    F714593   1.007   4.080   2.188  0.2646  0.0341 -0.1177
 1016PF6-    P114594   4.500   4.286   1.343  0.0402 -0.0531 -0.3368
 1016PF6-    F214595   4.571   4.340   1.481 -0.2654 -0.1729  0.0155
 1016PF6-    F314596   4.430   4.224   1.213  0.0308 -0.2935 -0.2477
 1016PF6-    F414597   4.357   4.292   1.421 -0.7632 -0.0316 -0.2037
 1016PF6-    F514598   4.644   4.277   1.265  0.2524  0.1375 -0.0830
 1016PF6-    F614599   4.526   4.136   1.402 -0.0263 -0.3787  0.4929
 1016PF6-    F714600   4.481   4.438   1.292  0.2127 -0.3491  0.0081
 1017PF6-    P114601   0.838   0.035   5.163  0.3579  0.0164  0.1179
 1017PF6-    F214602   0.772   0.030   5.016 -0.0295 -0.5403 -0.2151
 1017PF6-    F314603   0.905   0.040   5.308  0.3047  0.0069  0.3536
 1017PF6-    F414604   0.697   0.000   5.227  0.5528  0.2892  0.1123
 1017PF6-    F514605   0.985   0.079   5.099  0.5054 -0.0224 -0.8608
 1017PF6-    F614606   0.802   0.193   5.179 -0.0953 -0.0439 -0.1503
 1017PF6-    F714607   0.874  -0.121   5.149  0.2029  0.0949 -0.3327
 1018PF6-    P114608   2.677   1.187   3.268  0.1751  0.0936  0.2184
 1018PF6-    F214609   2.668   1.105   3.130 -0.2225 -0.1438 -0.2744
 1018PF6-    F314610   2.690   1.264   3.411 -0.0958 -0.0002  0.5092
 1018PF6-    F414611   2.780   1.281   3.203 -0.0172  0.2284 -0.4127
 1018PF6-    F514612   2.568   1.084   3.329 -0.0932  0.1937 -0.0568
 1018PF6-    F614613   2.791   1.088   3.315  0.5276 -0.1877 -0.1629
 1018PF6-    F714614   2.553   1.285   3.220  0.3147 -0.2509 -0.0858
 1019PF6-    P114615   1.406   1.522   2.820 -0.6775  0.0857 -0.3469
 1019PF6-    F214616   1.445   1.568   2.967  0.0137 -0.1211  0.2911
 1019PF6-    F314617   1.371   1.482   2.674 -0.2234 -0.0554 -0.3829
 1019PF6-    F414618   1.424   1.678   2.767  0.2823 -0.0789  0.2187
 1019PF6-    F514619   1.378   1.368   2.869 -0.3784 -0.1891  0.2499
 1019PF6-    F614620   1.254   1.559   2.853  0.5045  0.5538 -0.4328
 1019PF6-    F714621   1.562   1.492   2.784  0.1352 -0.1588  0.0926
 1020PF6-    P114622   4.226   0.316   0.828 -0.0317  0.1295  0.0109
 1020PF6-    F214623   4.309   0.314   0.967  0.2227 -0.3354 -0.1316
 1020PF6-    F314624   4.134   0.304   0.694 -0.8635  0.1882 -0.3047
 1020PF6-    F414625   4.221   0.159   0.844  0.1411 -0.6332 -0.3543
 1020PF6-    F514626   4.238   0.480   0.815 -0.1883  0.4412 -0.6010
 1020PF6-    F614627   4.365   0.307   0.747 -0.3604 -0.2540  0.4270
 1020PF6-    F714628   4.090   0.326   0.912  0.1726  0.5277  0.2470
 1021PF6-    P114629   3.589   1.334   3.136  0.0776 -0.0598 -0.2987
 1021PF6-    F214630   3.570   1.213   3.034  0.1466 -0.3241 -0.3823
 1021PF6-    F314631   3.606   1.460   3.239 -0.5730 -0.5375  0.0234
 1021PF6-    F414632   3.507   1.247   3.253 -0.0023  0.9838 -0.1517
 1021PF6-    F514633   3.665   1.429   3.027  0.0438 -0.1550  0.1638
 1021PF6-    F614634   3.447   1.399   3.092  0.3699 -0.2446  0.0929
 1021PF6-    F714635   3.733   1.281   3.180  0.2898  0.5617  0.7145
 1022PF6-    P114636   5.145   3.017   2.819 -0.4099  0.0465 -0.1950
 1022PF6-    F214637   5.111   3.141   2.721  0.1045 -0.3113 -0.4579
 1022PF6-    F314638   5.178   2.897   2.921 -0.0212 -0.0531 -0.6179
 1022PF6-    F414639   5.014   3.044   2.907 -0.3996 -0.5392 -0.1927
 1022PF6-    F514640   5.278   2.987   2.739 -0.2563 -0.2679  0.0083
 1022PF6-    F614641   5.225   3.122   2.914 -0.7378 -0.0133 -0.1819
 1022PF6-    F714642   5.064   2.915   2.720 -0.1957  0.4092  0.6490
 1023PF6-    P114643   3.384   1.807   5.111 -0.0145 -0.1117  0.0989
 1023PF6-    F214644   3.506   1.737   5.031 -0.0161  0.2201  0.4390
 1023PF6-    F314645   3.249   1.861   5.191 -0.2086  0.0725 -0.1214
 1023PF6-    F414646   3.372   1.677   5.203 -0.0239 -0.1103 -0.1666
 1023PF6-    F514647   3.398   1.939   5.027 -0.4506 -0.2705  0.3828
 1023PF6-    F614648   3.285   1.742   5.006 -0.2295  0.5793  0.3571
 1023PF6-    F714649   3.480   1.873   5.220  0.0382 -0.1063 -0.4582
 1024PF6-    P114650   0.913   5.021   2.784  0.2699 -0.4701  0.2629
 1024PF6-    F214651   0.882   5.126   2.669 -0.0300 -0.2802 -0.0479
 1024PF6-    F314652   0.940   4.919   2.900 -0.3341 -0.4195 -0.4678
 1024PF6-    F414653   0.770   5.050   2.846  0.2549 -0.4884  0.2663
 1024PF6-    F514654   1.060   4.994   2.722 -0.7933  0.0766 -0.2046
 1024PF6-    F614655   0.973   5.136   2.880  0.3237 -0.0595  0.5883
 1024PF6-    F714656   0.850   4.904   2.693  0.0546 -0.2402  0.5092
 1025PF6-    P114657   3.437   5.304   2.400  0.2982 -0.1173 -0.1006
 1025PF6-    F214658   3.577   5.255   2.459  0.1912  0.3455  0.3752
 1025PF6-    F314659   3.297   5.354   2.347  0.2938  0.2387  0.1811
 1025PF6-    F414660   3.510   5.431   2.333  0.4295  0.0892  0.2725
 1025PF6-    F514661   3.363   5.183   2.466  0.0867  0.2063  0.0837
 1025PF6-    F614662   3.405   5.395   2.527 -0.2958  0.0706  0.0716
 1025PF6-    F714663   3.460   5.220   2.265 -0.1458  0.8770  0.9310
 1026PF6-    P114664   3.214   0.650   4.276 -0.2914 -0.1894  0.3830
 1026PF6-    F214665   3.131   0.561   4.170  0.7369 -0.5197 -0.2851
 1026PF6-    F314666   3.293   0.742   4.372  0.5400 -0.0018 -0.3003
 1026PF6-    F414667   3.163   0.784   4.196 -0.2620 -0.2996  0.4606
 1026PF6-    F514668   3.274   0.524   4.356 -0.0733  0.1253 -0.3783
 1026PF6-    F614669   3.346   0.641   4.189  0.3723  0.4351 -0.1297
 1026PF6-    F714670   3.089   0.649   4.375  0.4060  0.4916  0.2965
 1027PF6-    P114671   2.294   0.608   0.970  0.0020 -0.3137 -0.1191
 1027PF6-    F214672   2.313   0.446   0.988 -0.3505  0.3337  0.6795
 1027PF6-    F314673   2.283   0.766   0.952  0.6166  0.6085  0.0272
 1027PF6-    F414674   2.144   0.587   0.919 -0.8306 -0.1358  0.5093
 1027PF6-    F514675   2.448   0.625   1.016 -0.4962  0.0649 -0.7841
 1027PF6-    F614676   2.340   0.596   0.819 -0.1848 -0.4122 -0.4008
 1027PF6-    F714677   2.247   0.622   1.122 -0.3050  0.1704 -0.3493
 1028PF6-    P114678   3.190   2.476   1.281  0.3954  0.5566 -0.3135
 1028PF6-    F214679   3.162   2.380   1.402  0.3012 -0.1374  0.2465
 1028PF6-    F314680   3.222   2.570   1.149 -0.0933  0.2308 -0.2194
 1028PF6-    F414681   3.293   2.561   1.372 -0.1710  0.2642 -0.2189
 1028PF6-    F514682   3.080   2.383   1.201 -0.2688  0.1678 -0.6095
 1028PF6-    F614683   3.068   2.575   1.325  0.5833 -0.8562 -0.1158
 1028PF6-    F714684   3.307   2.379   1.238 -0.3893 -0.0742 -0.1642
 1029PF6-    P114685   0.010   2.412   3.994  0.1405  0.1276  0.0969
 1029PF6-    F214686  -0.027   2.435   3.838 -0.7891  0.3708  0.6741
 1029PF6-    F314687   0.049   2.395   4.148  0.3090 -0.0121  0.0863
 1029PF6-    F414688  -0.033   2.259   3.987 -0.7238 -0.7779  0.2529
 1029PF6-    F514689   0.042   2.573   4.016  0.4973 -0.6131 -0.1378
 1029PF6-    F614690  -0.150   2.443   4.031 -0.2858  0.0762  0.5266
 1029PF6-    F714691   0.160   2.382   3.948  0.6199  0.5096  0.4611
 1030PF6-    P114692   5.181   1.992   2.868  0.0368  0.2850  0.1609
 1030PF6-    F214693   5.197   2.074   2.732 -0.0044 -0.1638  0.0526
 1030PF6-    F314694   5.166   1.910   3.000 -0.1827 -0.0217  0.2816
 1030PF6-    F414695   5.023   2.017   2.866  0.2329 -0.6279 -0.5255
 1030PF6-    F514696   5.340   1.970   2.868 -0.1500  0.1703  0.4986
 1030PF6-    F614697   5.201   2.132   2.949 -0.0105  0.3534 -0.2752
 1030PF6-    F714698   5.170   1.859   2.776  0.1966 -0.4053 -0.0123
 1031PF6-    P114699   5.227   4.036   2.543  0.1183 -0.2200 -0.1666
 1031PF6-    F214700   5.175   4.095   2.402  0.2500  0.2181  0.0572
 1031PF6-    F314701   5.286   3.981   2.680  0.2676 -0.3763  0.3216
 1031PF6-    F414702   5.373   4.008   2.474  0.0918  0.4656  0.7180
 1031PF6-    F514703   5.081   4.066   2.607  0.2597  0.2047  0.1862
 1031PF6-    F614704   5.179   3.881   2.505  0.2844 -0.5382 -0.2192
 1031PF6-    F714705   5.275   4.184   2.580 -0.1754 -0.2036 -0.6118
 1032PF6-    P114706   0.204   0.161   0.250 -0.1154 -0.0079 -0.0644
 1032PF6-    F214707   0.229   0.066   0.376  0.1809 -0.4113  0.1045
 1032PF6-    F314708   0.178   0.253   0.121  0.0637  0.0315  0.4813
 1032PF6-    F414709   0.046   0.150   0.276 -0.0909 -0.5107 -0.1312
 1032PF6-    F514710   0.357   0.172   0.225 -0.0002 -0.4440  0.4057
 1032PF6-    F614711   0.201   0.032   0.150 -0.1136  0.2327 -0.5341
 1032PF6-    F714712   0.209   0.292   0.344  0.0268  0.5274  0.0778
 1033PF6-    P114713   5.168   1.378   2.293  0.2290  0.0474  0.2388
 1033PF6-    F214714   5.116   1.251   2.378 -0.2164  0.2905 -0.0355
 1033PF6-    F314715   5.223   1.505   2.215  0.2432 -0.4915 -0.1354
 1033PF6-    F414716   5.071   1.339   2.167 -0.2699  0.3612  0.1828
 1033PF6-    F514717   5.258   1.421   2.420 -0.0083 -0.1647  0.2938
 1033PF6-    F614718   5.288   1.293   2.234  0.0174  0.0684  0.0050
 1033PF6-    F714719   5.043   1.465   2.354  0.3197 -0.4950  0.4501
 1034PF6-    P114720   2.311   4.795   1.162  0.0815  0.0110  0.0112
 1034PF6-    F214721   2.231   4.922   1.098  0.1307 -0.1386  0.0962
 1034PF6-    F314722   2.408   4.685   1.222  0.4132 -0.1137 -0.6019
 1034PF6-    F414723   2.445   4.868   1.119 -0.0777  0.5154 -0.8614
 1034PF6-    F514724   2.174   4.722   1.196 -0.3249 -0.3066  0.1094
 1034PF6-    F614725   2.307   4.717   1.022  0.4393 -0.4102 -0.2930
 1034PF6-    F714726   2.312   4.877   1.298 -0.0388  0.1227 -0.2298
 1035PF6-    P114727   3.282   0.938   2.699 -0.1999  0.3464  0.4508
 1035PF6-    F214728   3.129   0.940   2.642 -0.1426 -0.1264 -0.0403
 1035PF6-    F314729   3.428   0.939   2.760  0.1582 -0.3372  0.0601
 1035PF6-    F414730   3.235   0.847   2.817  0.2254 -0.4484 -0.0812
 1035PF6-    F514731   3.330   1.023   2.577 -0.2482 -0.0224  0.0122
 1035PF6-    F614732   3.248   1.069   2.790  0.5316 -0.2757  0.1510
 1035PF6-    F714733   3.315   0.809   2.613 -0.4216  0.3444 -0.3237
 1036PF6-    P114734   5.151   2.696   4.916 -0.1609  0.1628 -0.1392
 1036PF6-    F214735   5.304   2.652   4.927  0.3190  0.6140  0.1145
 1036PF6-    F314736   4.997   2.731   4.902  0.3626  0.0391  0.3477
 1036PF6-    F414737   5.115   2.588   5.025  0.2788 -0.0937 -0.3293
 1036PF6-    F514738   5.186   2.809   4.806 -0.4920 -0.0189  0.5302
 1036PF6-    F614739   5.129   2.589   4.799 -0.1898  0.1412 -0.4556
 1036PF6-    F714740   5.172   2.804   5.038 -0.5571  0.2110 -0.0184
 1037PF6-    P114741   1.154   0.508   2.005  0.0272  0.4129  0.1525
 1037PF6-    F214742   1.143   0.407   1.883  0.0323  0.3723 -0.0671
 1037PF6-    F314743   1.172   0.605   2.135 -0.2983 -0.5187 -0.0959
 1037PF6-    F414744   1.300   0.445   2.031  0.5000  0.2496  0.1682
 1037PF6-    F514745   1.005   0.573   1.986 -0.4581  0.2777  0.1857
 1037PF6-    F614746   1.094   0.401   2.100  0.4716 -0.4510  0.4758
 1037PF6-    F714747   1.212   0.623   1.904  0.4883  0.7706  0.7163
 1038PF6-    P114748   2.533   3.064   0.531  0.0867 -0.2817 -0.1869
 1038PF6-    F214749   2.579   3.007   0.391  0.0127  0.2025 -0.6668
 1038PF6-    F314750   2.491   3.122   0.669  0.5521 -0.2310 -0.4519
 1038PF6-    F414751   2.414   2.955   0.538  0.0356  0.7378  0.5265
 1038PF6-    F514752   2.659   3.164   0.531  0.2258  0.4594  0.6044
 1038PF6-    F614753   2.432   3.178   0.471 -0.1925  0.2927 -0.3060
 1038PF6-    F714754   2.633   2.958   0.597 -0.0071  0.5784 -0.0391
 1039PF6-    P114755   4.416   1.870   2.808 -0.0486  0.5922 -0.3369
 1039PF6-    F214756   4.482   1.974   2.702 -0.4504 -0.3005  0.0163
 1039PF6-    F314757   4.354   1.767   2.920 -0.0982  0.2533  0.0312
 1039PF6-    F414758   4.530   1.908   2.917  0.2628  0.1129  0.8495
 1039PF6-    F514759   4.301   1.832   2.702 -0.0826  0.4381  0.0201
 1039PF6-    F614760   4.507   1.751   2.754 -0.0303  0.3621  0.1527
 1039PF6-    F714761   4.321   1.986   2.861 -0.2189 -0.4257 -0.1254
 1040PF6-    P114762   3.303   3.062   2.862  0.2903  0.8503  0.3979
 1040PF6-    F214763   3.224   2.975   2.746 -0.3197 -0.3842  0.2838
 1040PF6-    F314764   3.382   3.148   2.962  0.0634  0.2310 -0.2889
 1040PF6-    F414765   3.413   2.940   2.864 -0.4666  0.0967  0.3952
 1040PF6-    F514766   3.195   3.173   2.857  0.0464 -0.1088  0.3182
 1040PF6-    F614767   3.220   2.989   2.975  0.0119 -0.3687  0.2962
 1040PF6-    F714768   3.393   3.125   2.750 -0.5578  0.0233 -0.0858
 1041PF6-    P114769   2.829   3.847   2.410  0.1776  0.4253 -0.3628
 1041PF6-    F214770   2.747   3.765   2.303 -0.4216 -0.0951  0.7910
 1041PF6-    F314771   2.908   3.929   2.519 -0.2474 -0.4271  0.2321
 1041PF6-    F414772   2.784   3.742   2.517 -0.8854 -0.0046 -0.1845
 1041PF6-    F514773   2.867   3.954   2.299 -0.6214 -0.3467  0.9233
 1041PF6-    F614774   2.694   3.925   2.448  0.0725 -0.9269 -0.3673
 1041PF6-    F714775   2.962   3.758   2.385  0.0034 -0.1910  0.0027
 1042PF6-    P114776   2.732   5.198   4.188 -0.3822  0.0422 -0.3771
 1042PF6-    F214777   2.660   5.113   4.068 -0.5716 -0.1677  0.4301
 1042PF6-    F314778   2.806   5.275   4.315 -0.3808  0.3914 -0.2143
 1042PF6-    F414779   2.859   5.229   4.095 -0.0589  0.1642 -0.7177
 1042PF6-    F514780   2.607   5.160   4.280  0.7288  0.1890  0.4774
 1042PF6-    F614781   2.809   5.064   4.235  0.4404  0.0876  0.2824
 1042PF6-    F714782   2.656   5.335   4.147  0.3877  0.4983  0.2240
 1043PF6-    P114783   0.108   5.000   0.271  0.1919  0.4013  0.1618
 1043PF6-    F214784   0.033   4.881   0.347  0.1404 -0.1125 -0.4117
 1043PF6-    F314785   0.192   5.111   0.196 -0.0607  0.1814  0.0899
 1043PF6-    F414786   0.178   4.888   0.170  0.5051  0.1582  0.6772
 1043PF6-    F514787   0.046   5.109   0.369 -0.2976  0.1127  0.0440
 1043PF6-    F614788   0.234   4.989   0.370  0.2359  0.3455 -0.2072
 1043PF6-    F714789  -0.017   5.009   0.171  0.0938 -0.0850  0.4781
 1044PF6-    P114790   4.701   5.373   5.038  0.3605 -0.0636 -0.7145
 1044PF6-    F214791   4.638   5.477   5.150  0.0156  0.5970 -0.2808
 1044PF6-    F314792   4.757   5.274   4.927 -0.2184  0.1064  1.1142
 1044PF6-    F414793   4.551   5.349   4.986 -0.1895  0.3643 -0.2354
 1044PF6-    F514794   4.848   5.393   5.104 -0.1816  0.4716  0.7867
 1044PF6-    F614795   4.682   5.244   5.130 -0.1061 -0.0640  0.1985
 1044PF6-    F714796   4.724   5.503   4.941 -0.1963  0.0575  0.0642
 1045PF6-    P114797   2.808   2.876   5.120  0.1213  0.0107  0.3410
 1045PF6-    F214798   2.699   2.868   5.003  0.1960 -0.6100  0.0451
 1045PF6-    F314799   2.920   2.883   5.235 -0.2865 -0.0310 -0.4572
 1045PF6-    F414800   2.692   2.873   5.232 -0.0257  0.3118 -0.3055
 1045PF6-    F514801   2.922   2.878   5.005  0.1868 -0.0442 -0.1315
 1045PF6-    F614802   2.800   3.035   5.106  0.9034 -0.4001 -0.2870
 1045PF6-    F714803   2.815   2.715   5.131 -0.5467 -0.8892  0.5186
 1046PF6-    P114804   2.794   1.968   0.708 -0.1881 -0.2571 -0.4311
 1046PF6-    F214805   2.909   1.893   0.622 -0.6165  0.1984 -0.2816
 1046PF6-    F314806   2.680   2.031   0.793 -0.0231  0.0547 -0.1316
 1046PF6-    F414807   2.881   2.100   0.709  0.5196  0.0424  0.0755
 1046PF6-    F514808   2.705   1.837   0.697  0.9671  0.2987  0.2484
 1046PF6-    F614809   2.869   1.915   0.842  0.1382 -0.1260 -0.2268
 1046PF6-    F714810   2.722   2.022   0.572 -0.3959 -0.1118  0.4434
 1047PF6-    P114811   0.515   2.948   4.438  0.3608  0.3141  0.2252
 1047PF6-    F214812   0.618   2.855   4.509  0.1508 -0.0292 -0.1127
 1047PF6-    F314813   0.407   3.047   4.368 -0.0662  0.0359  0.0633
 1047PF6-    F414814   0.641   3.003   4.354  0.1544 -0.2769 -0.0542
 1047PF6-    F514815   0.403   2.889   4.533 -0.0304  0.3375 -0.1255
 1047PF6-    F614816   0.547   3.057   4.548 -0.0028 -0.3562 -0.2901
 1047PF6-    F714817   0.491   2.828   4.332 -0.0807 -0.0519  0.1369
 1048PF6-    P114818   3.735   1.890   0.108  0.0343 -0.0105 -0.4783
 1048PF6-    F214819   3.883   1.856   0.051 -0.5636  0.2412 -0.1516
 1048PF6-    F314820   3.589   1.924   0.168  0.3878  0.4800 -0.2808
 1048PF6-    F414821   3.743   1.757   0.199 -0.3072 -0.6190  0.2886
 1048PF6-    F514822   3.737   2.017   0.014  0.5020  0.4678 -0.5827
 1048PF6-    F614823   3.660   1.807  -0.010 -0.0340 -0.1494 -0.2630
 1048PF6-    F714824   3.800   1.976   0.231  0.2236 -0.0925  0.3279
 1049PF6-    P114825   3.729   2.240   1.175  0.1827  0.3647 -0.1506
 1049PF6-    F214826   3.724   2.080   1.177  0.2890  0.4123 -0.2848
 1049PF6-    F314827   3.717   2.401   1.166  0.5560  0.4190 -0.2524
 1049PF6-    F414828   3.575   2.237   1.221  0.5173 -0.5782  0.0503
 1049PF6-    F514829   3.882   2.241   1.135  0.5514 -0.1424  0.1530
 1049PF6-    F614830   3.681   2.241   1.021 -0.1205  0.0581 -0.2069
 1049PF6-    F714831   3.774   2.256   1.328 -0.0213 -0.0778 -0.4254
 1050PF6-    P114832   4.603   0.905   3.569 -0.1649  0.3139  0.1336
 1050PF6-    F214833   4.584   1.065   3.570  0.0596 -0.1077  0.7174
 1050PF6-    F314834   4.612   0.748   3.578  0.7673 -0.3498 -0.1927
 1050PF6-    F414835   4.735   0.925   3.653 -0.0969  0.5404 -0.8335
 1050PF6-    F514836   4.472   0.892   3.485  0.6134  0.1038 -0.6061
 1050PF6-    F614837   4.685   0.911   3.429  0.0932 -0.0101  0.3975
 1050PF6-    F714838   4.523   0.900   3.708  0.1468  0.5950  0.1742
 1051PF6-    P114839   0.836   0.158   4.209 -0.2158 -0.3143 -0.1000
 1051PF6-    F214840   0.931   0.069   4.306  0.1391  0.6520 -0.1733
 1051PF6-    F314841   0.733   0.239   4.110 -0.3472 -0.1581 -0.4670
 1051PF6-    F414842   0.957   0.169   4.110 -0.3690 -0.7357 -0.3226
 1051PF6-    F514843   0.721   0.151   4.316 -0.4173  0.4138 -0.3760
 1051PF6-    F614844   0.892   0.296   4.279  0.9545  0.1088  0.6374
 1051PF6-    F714845   0.794   0.023   4.138 -1.0578 -0.3648  0.1510
 1052PF6-    P114846   0.711   0.585   3.400  0.3517 -0.2673  0.1494
 1052PF6-    F214847   0.628   0.517   3.281  0.3959 -0.0604 -0.4046
 1052PF6-    F314848   0.794   0.654   3.518  0.2605  0.5530 -0.8121
 1052PF6-    F414849   0.575   0.623   3.474  0.1166 -0.1072 -0.6857
 1052PF6-    F514850   0.848   0.547   3.325 -0.1918 -0.3073 -0.4473
 1052PF6-    F614851   0.718   0.726   3.323 -0.1378 -0.5158 -0.0556
 1052PF6-    F714852   0.718   0.451   3.478 -0.2737  0.0981 -0.2285
 1053PF6-    P114853   2.845   1.745   2.541  0.0709  0.2425  0.0766
 1053PF6-    F214854   2.946   1.734   2.414 -0.0371  0.1181  0.9569
 1053PF6-    F314855   2.736   1.744   2.662  0.3061 -0.3146 -0.2359
 1053PF6-    F414856   2.722   1.714   2.441 -0.0363 -0.1438  0.0441
 1053PF6-    F514857   2.970   1.774   2.648 -0.4249  0.4308  0.3721
 1053PF6-    F614858   2.821   1.904   2.520  0.0770  0.6029  0.2055
 1053PF6-    F714859   2.860   1.584   2.570  0.0132 -0.5828  0.9403
 1054PF6-    P114860   0.767   2.123   2.600 -0.3899 -0.5755 -0.2682
 1054PF6-    F214861   0.900   2.076   2.528  0.6404  0.0817 -0.3979
 1054PF6-    F314862   0.629   2.173   2.667 -0.1337 -0.1105  0.1263
 1054PF6-    F414863   0.673   2.043   2.497  0.0532 -0.0931  0.2122
 1054PF6-    F514864   0.854   2.209   2.700  0.0059 -0.2092  0.3211
 1054PF6-    F614865   0.764   2.246   2.497 -0.0412 -0.2114 -0.7003
 1054PF6-    F714866   0.775   1.998   2.693  0.1872  0.0431  0.4329
 1055PF6-    P114867   0.838   4.254   0.114  0.1151  0.0921  0.2201
 1055PF6-    F214868   0.807   4.145   0.229 -0.8596  0.0420 -0.0693
 1055PF6-    F314869   0.869   4.355   0.003 -0.0598 -0.0395  0.0973
 1055PF6-    F414870   0.985   4.196   0.101 -0.0215 -0.6782 -0.2286
 1055PF6-    F514871   0.688   4.314   0.122 -0.3856  0.1216  0.4076
 1055PF6-    F614872   0.897   4.351   0.224 -0.1635  0.2274 -0.4044
 1055PF6-    F714873   0.783   4.148   0.005  0.0632 -0.1675 -0.1648
 1056PF6-    P114874   0.836   1.464   3.199 -0.0096 -0.1964  0.3862
 1056PF6-    F214875   0.834   1.348   3.310 -0.4736 -0.1978 -0.3973
 1056PF6-    F314876   0.856   1.580   3.090  0.4548  0.1581 -0.4250
 1056PF6-    F414877   0.872   1.565   3.319  0.5540  0.1177  0.1263
 1056PF6-    F514878   0.799   1.356   3.082 -0.7009  0.1224 -0.1650
 1056PF6-    F614879   0.684   1.503   3.215  0.6578  0.5189  0.1284
 1056PF6-    F714880   0.991   1.438   3.170 -0.2855  0.2419  0.1338
 1057PF6-    P114881   3.580   5.176   1.342 -0.3981  0.3929 -0.1945
 1057PF6-    F214882   3.431   5.113   1.333 -0.2509  0.0836 -0.1788
 1057PF6-    F314883   3.728   5.238   1.346  0.2399  0.3178 -0.1875
 1057PF6-    F414884   3.528   5.312   1.278  0.2884 -0.1178 -0.2532
 1057PF6-    F514885   3.636   5.037   1.403 -0.1807  0.3747 -0.4467
 1057PF6-    F614886   3.609   5.120   1.192 -0.4377  0.2255  0.1463
 1057PF6-    F714887   3.555   5.231   1.492 -0.3866 -0.1352 -0.1106
 1058PF6-    P114888   0.722   2.917   3.483  0.3923 -0.2149 -0.0489
 1058PF6-    F214889   0.776   2.858   3.622 -0.0383  0.8590  0.2577
 1058PF6-    F314890   0.675   2.978   3.338  0.6075 -0.2628 -0.2574
 1058PF6-    F414891   0.773   3.059   3.521  0.4373 -0.2924 -0.4129
 1058PF6-    F514892   0.672   2.775   3.443 -0.2233  0.2139 -0.2135
 1058PF6-    F614893   0.582   2.952   3.545 -0.2751 -0.0888  0.1133
 1058PF6-    F714894   0.861   2.891   3.421 -0.2771 -0.1994 -0.5870
 1059PF6-    P114895   3.668   4.917   0.396 -0.4484  0.3541  0.4298
 1059PF6-    F214896   3.550   4.894   0.296  0.6126  0.1046  0.6579
 1059PF6-    F314897   3.795   4.942   0.496 -0.4547 -0.2361  0.0551
 1059PF6-    F414898   3.569   4.985   0.502 -0.0393  0.0812 -0.2695
 1059PF6-    F514899   3.771   4.854   0.284 -0.1791  0.0276 -0.7088
 1059PF6-    F614900   3.690   5.060   0.332 -0.5501  0.0943 -0.4042
 1059PF6-    F714901   3.645   4.776   0.460  0.1531  0.3586 -0.1792
 1060PF6-    P114902   3.158   1.078   5.317  0.1584  0.2211  0.1588
 1060PF6-    F214903   3.139   0.971   5.204 -0.4224 -0.1152 -0.1361
 1060PF6-    F314904   3.184   1.186   5.437 -0.1405 -0.0410 -0.2315
 1060PF6-    F414905   3.056   0.997   5.407  0.1214 -0.1447 -0.0013
 1060PF6-    F514906   3.261   1.158   5.224  0.3747  0.2603  0.3148
 1060PF6-    F614907   3.027   1.164   5.256  0.0291  0.0853 -0.4088
 1060PF6-    F714908   3.283   0.988   5.372  0.0872 -0.0830  0.5437
 1061PF6-    P114909   1.233   4.073   3.884 -0.0707 -0.0028  0.5610
 1061PF6-    F214910   1.190   4.230   3.865 -0.1930  0.0591  0.2591
 1061PF6-    F314911   1.275   3.916   3.905  0.1010  0.4773  0.0221
 1061PF6-    F414912   1.392   4.114   3.881  0.5253 -0.0211 -0.5961
 1061PF6-    F514913   1.075   4.036   3.891 -0.1731  0.0621 -0.3098
 1061PF6-    F614914   1.232   4.055   3.727 -0.1371 -0.6817 -0.1196
 1061PF6-    F714915   1.238   4.083   4.043  0.4128  0.0816  0.1179
 1062PF6-    P114916   3.002   4.094   5.309 -0.1792  0.2070  0.1843
 1062PF6-    F214917   3.104   4.061   5.429  0.1251  0.1162 -0.0780
 1062PF6-    F314918   2.906   4.128   5.183  0.3959 -0.6406 -0.1894
 1062PF6-    F414919   3.020   3.940   5.260  0.4045 -0.3404  0.1229
 1062PF6-    F514920   2.989   4.243   5.361  0.0726  0.3986  0.3512
 1062PF6-    F614921   3.129   4.140   5.218  0.4320 -0.0100 -0.0875
 1062PF6-    F714922   2.875   4.054   5.397  0.2605 -0.2195 -0.0515
 1063PF6-    P114923   0.029   4.174   1.195 -0.3222  0.0206  0.0474
 1063PF6-    F214924   0.046   4.275   1.072  0.4620 -0.0934  0.2671
 1063PF6-    F314925   0.009   4.060   1.314  0.2925  0.5541 -0.8552
 1063PF6-    F414926   0.173   4.218   1.257  0.2958 -0.4494 -0.4699
 1063PF6-    F514927  -0.117   4.131   1.137 -1.1989 -0.1343 -0.1664
 1063PF6-    F614928   0.110   4.063   1.111  0.6482  0.0760  0.5268
 1063PF6-    F714929  -0.049   4.286   1.278  0.4524  0.8789  0.0260
 1064PF6-    P114930   0.147   0.857   4.184 -0.2127  0.0875 -0.3156
 1064PF6-    F214931   0.137   0.795   4.330  0.5933 -0.5668  0.5434
 1064PF6-    F314932   0.155   0.905   4.029 -0.2794 -0.5851  0.0338
 1064PF6-    F414933   0.112   1.005   4.235  0.2233  0.0238  0.5851
 1064PF6-    F514934   0.195   0.715   4.125 -0.2163  0.2277  0.4269
 1064PF6-    F614935  -0.005   0.823   4.161  0.0315 -0.3468 -0.3267
 1064PF6-    F714936   0.303   0.897   4.202  0.1483  0.2930  0.1991
 1065PF6-    P114937   5.028   2.939   3.612  0.0847 -0.5108  0.4365
 1065PF6-    F214938   5.047   2.781   3.590 -0.1479  0.4592 -0.4756
 1065PF6-    F314939   5.013   3.097   3.639 -0.4619 -0.0215  0.2253
 1065PF6-    F414940   5.064   2.957   3.456 -0.1937 -0.3750 -0.0516
 1065PF6-    F514941   4.999   2.907   3.765  0.1178 -0.1177 -0.3199
 1065PF6-    F614942   5.185   2.945   3.648 -0.1019  0.3023  0.1301
 1065PF6-    F714943   4.868   2.934   3.578 -0.3465 -0.2835  0.7973
 1066PF6-    P114944   1.058   2.320   2.103  0.1537  0.0442  0.2087
 1066PF6-    F214945   0.900   2.328   2.071 -0.6009 -0.4744  0.8164
 1066PF6-    F314946   1.219   2.303   2.124 -0.1750 -0.5641  0.3720
 1066PF6-    F414947   1.074   2.282   1.947 -0.1641  0.1834  0.2639
 1066PF6-    F514948   1.037   2.349   2.262  0.2922 -0.4937 -0.1252
 1066PF6-    F614949   1.041   2.161   2.124  0.1153  0.1935  0.2000
 1066PF6-    F714950   1.075   2.479   2.064  0.2966 -0.6468 -0.4544
 1067PF6-    P114951   0.756   1.405   2.254 -0.1299 -0.3210  0.3200
 1067PF6-    F214952   0.799   1.286   2.350  0.1509 -0.8292  0.0808
 1067PF6-    F314953   0.720   1.533   2.164 -0.1056  0.4443  0.0547
 1067PF6-    F414954   0.896   1.472   2.282  0.2534  0.1779 -0.3426
 1067PF6-    F514955   0.611   1.334   2.224 -0.1447  0.3142 -0.4666
 1067PF6-    F614956   0.695   1.472   2.379  0.2394  0.4611 -0.0182
 1067PF6-    F714957   0.814   1.338   2.125  0.7511  0.6383 -0.1552
 1068PF6-    P114958   5.085   3.455   1.593 -0.2088 -0.3987 -0.0382
 1068PF6-    F214959   5.172   3.590   1.582  0.2663  0.3978  0.1229
 1068PF6-    F314960   5.004   3.324   1.600  0.8274  0.2036  0.0587
 1068PF6-    F414961   4.982   3.512   1.485 -0.1959  0.1285  0.4065
 1068PF6-    F514962   5.191   3.392   1.698 -0.0208  0.5915  0.1701
 1068PF6-    F614963   4.998   3.519   1.713  0.0988  0.2724  0.8092
 1068PF6-    F714964   5.177   3.391   1.471 -0.1060 -0.6083 -0.2315
 1069PF6-    P114965   4.405   0.443   4.450 -0.2814 -0.2995 -0.2495
 1069PF6-    F214966   4.418   0.600   4.415  0.2203 -0.4411  0.1391
 1069PF6-    F314967   4.397   0.287   4.482 -0.1419 -0.0762 -0.2632
 1069PF6-    F414968   4.401   0.484   4.607 -0.2411  0.5063  0.1313
 1069PF6-    F514969   4.420   0.423   4.292  0.1587 -0.3376 -0.9646
 1069PF6-    F614970   4.564   0.428   4.459 -0.1711 -0.0716 -0.0161
 1069PF6-    F714971   4.247   0.451   4.438  0.0633  0.4060  0.1276
 1070PF6-    P114972   3.970   3.734   5.195  0.5136  0.2477  0.1510
 1070PF6-    F214973   3.863   3.649   5.116  0.3809  0.1393  0.2289
 1070PF6-    F314974   4.064   3.829   5.281  0.3035  0.4820 -0.1675
 1070PF6-    F414975   3.871   3.860   5.175 -0.3195 -0.0129 -0.2322
 1070PF6-    F514976   4.068   3.612   5.210 -0.2470 -0.1863  0.1969
 1070PF6-    F614977   4.043   3.777   5.061  0.2253 -0.3518  0.0343
 1070PF6-    F714978   3.901   3.691   5.334  0.6065 -0.2182 -0.6745
 1071PF6-    P114979   0.136   2.839   1.133  0.1596 -0.0134 -0.1006
 1071PF6-    F214980   0.139   2.990   1.184  0.0753  0.0421 -0.0071
 1071PF6-    F314981   0.133   2.690   1.079 -0.6484 -0.3496 -0.7329
 1071PF6-    F414982   0.079   2.803   1.279 -0.5467  1.1876 -0.2478
 1071PF6-    F514983   0.195   2.889   0.994  0.4113  0.2688 -0.1789
 1071PF6-    F614984   0.282   2.824   1.182 -0.5428  0.1283 -0.1802
 1071PF6-    F714985  -0.012   2.860   1.079 -0.3460  0.2425  0.0665
 1072PF6-    P114986   1.574   2.957   3.960  0.0011  0.2811 -0.2208
 1072PF6-    F214987   1.490   2.906   3.832  0.3401 -0.1681 -0.6542
 1072PF6-    F314988   1.659   3.014   4.082 -0.2464 -0.1071 -0.0864
 1072PF6-    F414989   1.532   3.105   3.923  0.3582 -0.1541  0.2832
 1072PF6-    F514990   1.608   2.807   3.998 -0.2345 -0.3030 -0.5198
 1072PF6-    F614991   1.707   2.972   3.872  0.0015  0.1384  0.0207
 1072PF6-    F714992   1.443   2.957   4.054 -0.3046 -0.1825 -0.3176
 1073PF6-    P114993   2.568   2.381   3.457 -0.3074 -0.2366  0.1566
 1073PF6-    F214994   2.473   2.511   3.497  0.0885  0.3676 -0.1619
 1073PF6-    F314995   2.656   2.261   3.410 -0.2547 -0.3908  0.2048
 1073PF6-    F414996   2.450   2.346   3.356  0.2362 -0.2701 -0.3357
 1073PF6-    F514997   2.674   2.427   3.569  0.1463 -0.0951 -0.0046
 1073PF6-    F614998   2.497   2.292   3.570  0.2482  0.1080  0.5328
 1073PF6-    F714999   2.636   2.472   3.351 -0.2421 -0.3159 -0.4162
 1074PF6-    P115000   1.573   2.101   3.716  0.0393 -0.3908  0.1954
 1074PF6-    F215001   1.624   2.144   3.564 -0.0749 -0.0801  0.1999
 1074PF6-    F315002   1.534   2.059   3.867  0.2298  0.9433 -0.2023
 1074PF6-    F415003   1.636   1.954   3.692  0.3127  0.2423 -0.3343
 1074PF6-    F515004   1.514   2.253   3.741  0.0412  0.4590 -0.0428
 1074PF6-    F615005   1.431   2.051   3.658  0.5994 -0.5007  0.2379
 1074PF6-    F715006   1.714   2.146   3.763 -0.5514  0.1746 -0.6727
 1075PF6-    P115007   2.766   2.292   1.743 -0.1196  0.0269  0.6521
 1075PF6-    F215008   2.918   2.242   1.725 -0.7311 -0.3837 -0.0958
 1075PF6-    F315009   2.614   2.339   1.754  0.0064 -0.2850  0.2147
 1075PF6-    F415010   2.742   2.260   1.597 -0.1085 -0.0153  0.0424
 1075PF6-    F515011   2.794   2.331   1.901 -0.0887 -0.2392  0.0382
 1075PF6-    F615012   2.806   2.436   1.699 -0.0457  0.1712 -0.5962
 1075PF6-    F715013   2.728   2.143   1.784  0.2087 -0.1613  0.1975
 1076PF6-    P115014   4.855   1.791   3.559 -0.0268 -0.5304 -0.3702
 1076PF6-    F215015   4.772   1.885   3.457  0.1454 -0.7361 -0.1068
 1076PF6-    F315016   4.943   1.691   3.653 -0.6092 -0.5033 -0.2342
 1076PF6-    F415017   4.992   1.857   3.505 -0.1406 -0.2233  0.0359
 1076PF6-    F515018   4.718   1.727   3.606  0.0356 -0.2378 -0.0014
 1076PF6-    F615019   4.860   1.682   3.436 -0.1057 -0.1516  0.4381
 1076PF6-    F715020   4.842   1.902   3.679  0.1549  0.2817  0.4606
 1077PF6-    P115021   0.101   4.312   5.088 -0.0449 -0.3390 -0.0667
 1077PF6-    F215022   0.220   4.350   4.985 -0.4526 -0.8020 -0.5493
 1077PF6-    F315023  -0.018   4.285   5.198  0.1674 -0.2489 -0.1236
 1077PF6-    F415024   0.033   4.209   4.981 -0.6539  0.0073  0.1704
 1077PF6-    F515025   0.164   4.422   5.195 -0.6096  0.3557 -0.1985
 1077PF6-    F615026   0.017   4.431   5.026 -0.4147 -0.4767  0.3387
 1077PF6-    F715027   0.192   4.194   5.146 -0.5007  0.3048  0.2102
 1078PF6-    P115028   1.903   5.164   3.081  0.1857  0.0702 -0.0520
 1078PF6-    F215029   1.762   5.148   3.003 -1.5297 -0.8345 -0.3454
 1078PF6-    F315030   2.042   5.181   3.164 -0.1358  0.2383 -0.1174
 1078PF6-    F415031   1.872   5.022   3.151  0.0589  0.5156  0.0588
 1078PF6-    F515032   1.937   5.301   3.002 -0.3830  0.2112  0.2947
 1078PF6-    F615033   1.824   5.238   3.197 -0.0937  0.1985 -0.0179
 1078PF6-    F715034   1.967   5.090   2.958  0.1669  1.0706 -0.2820
 1079PF6-    P115035   2.677   3.672   3.462  0.1415  0.2775 -0.0530
 1079PF6-    F215036   2.697   3.746   3.321  0.2385 -0.4287  0.3396
 1079PF6-    F315037   2.654   3.607   3.604  0.2291  0.2470 -0.3981
 1079PF6-    F415038   2.759   3.794   3.532 -0.8586 -0.0773 -0.1563
 1079PF6-    F515039   2.596   3.553   3.389  0.1038  0.2710  0.6339
 1079PF6-    F615040   2.817   3.598   3.441  0.1267 -0.1259  0.1717
 1079PF6-    F715041   2.538   3.751   3.486 -0.1527  0.1438 -0.4152
 1080PF6-    P115042   2.696   4.986   2.649  0.4520  0.2268  0.2160
 1080PF6-    F215043   2.750   5.126   2.705  0.1002  0.7325 -0.4083
 1080PF6-    F315044   2.643   4.849   2.579  0.1789  0.5522 -0.2750
 1080PF6-    F415045   2.749   5.027   2.500  0.0408 -0.0032  0.2511
 1080PF6-    F515046   2.655   4.938   2.795  0.6515 -0.1127  0.2070
 1080PF6-    F615047   2.552   5.043   2.624  0.4586  0.0562 -0.1006
 1080PF6-    F715048   2.842   4.920   2.676  0.0007  0.1210 -0.4599
 1081PF6-    P115049   5.174   3.077   0.262  0.4034  0.2731  0.0475
 1081PF6-    F215050   5.057   2.987   0.199  0.2968  0.4744  0.0794
 1081PF6-    F315051   5.295   3.162   0.329  0.4873  0.0756  0.3292
 1081PF6-    F415052   5.262   2.948   0.240  0.2679 -0.8443  0.0190
 1081PF6-    F515053   5.078   3.202   0.283 -0.2460  0.1332  0.1218
 1081PF6-    F615054   5.137   3.023   0.403  0.4003 -0.2923 -0.4763
 1081PF6-    F715055   5.211   3.135   0.116 -0.2612 -0.2906 -0.2781
 1082PF6-    P115056   3.694   3.427   3.184  0.2491  0.4383 -0.1360
 1082PF6-    F215057   3.795   3.374   3.072 -0.0522  0.0805  0.0056
 1082PF6-    F315058   3.586   3.482   3.284 -0.1652  0.0254  0.1465
 1082PF6-    F415059   3.672   3.549   3.092  0.2636 -0.0737  0.2677
 1082PF6-    F515060   3.725   3.299   3.272  0.0848  0.1668 -0.4348
 1082PF6-    F615061   3.815   3.501   3.254 -0.1997  0.0438  0.1954
 1082PF6-    F715062   3.583   3.358   3.099 -0.4554 -0.2802  0.3180
 1083PF6-    P115063   1.192   0.399   0.690 -0.0667 -0.0633 -0.3695
 1083PF6-    F215064   1.320   0.394   0.600  0.1146 -0.2831  0.6053
 1083PF6-    F315065   1.065   0.414   0.789 -0.1388  0.2966  0.1350
 1083PF6-    F415066   1.099   0.353   0.566 -0.4647  0.5042 -0.4268
 1083PF6-    F515067   1.284   0.443   0.811 -0.3921  0.5770 -0.1811
 1083PF6-    F615068   1.170   0.554   0.651  0.0069 -0.3188 -0.5531
 1083PF6-    F715069   1.206   0.245   0.726  0.9795  0.4899  0.2041
 1084PF6-    P115070   4.650   5.064   3.319 -0.1748  0.5418 -0.0528
 1084PF6-    F215071   4.753   4.956   3.374 -0.5149 -0.3965 -0.2439
 1084PF6-    F315072   4.546   5.174   3.261  0.1288  0.0013 -0.0306
 1084PF6-    F415073   4.592   5.080   3.469 -0.1492  0.1740 -0.0610
 1084PF6-    F515074   4.712   5.041   3.172 -0.1799  0.1185  0.2115
 1084PF6-    F615075   4.545   4.945   3.289  0.6939  0.0803 -0.1293
 1084PF6-    F715076   4.758   5.175   3.345  0.0642  0.0576 -0.6969
 1085PF6-    P115077   2.149   3.440   1.792 -0.0050 -0.5940 -0.1397
 1085PF6-    F215078   2.212   3.383   1.926 -0.2010 -0.4630 -0.1393
 1085PF6-    F315079   2.077   3.497   1.658  0.2965  0.4074 -0.0720
 1085PF6-    F415080   2.014   3.464   1.871  0.1749 -0.4632 -0.2881
 1085PF6-    F515081   2.285   3.408   1.716  0.5619 -0.0467  0.5902
 1085PF6-    F615082   2.100   3.296   1.745 -0.2513 -0.5924 -0.1604
 1085PF6-    F715083   2.197   3.590   1.826 -0.3026 -0.3487  0.5477
 1086PF6-    P115084   0.458   0.141   1.355 -0.2684  0.1717 -0.4218
 1086PF6-    F215085   0.500   0.036   1.242 -0.5105  0.0249 -0.3330
 1086PF6-    F315086   0.410   0.246   1.470 -0.1064 -0.2933  0.4256
 1086PF6-    F415087   0.488   0.041   1.471 -0.2221  0.5648 -0.1094
 1086PF6-    F515088   0.420   0.245   1.238 -0.5414 -0.5442 -0.4297
 1086PF6-    F615089   0.309   0.084   1.345 -0.3754  0.2537  0.3456
 1086PF6-    F715090   0.606   0.195   1.363 -0.4483 -0.3931 -0.3039
 1087PF6-    P115091   1.964   2.238   5.253 -0.9071 -0.1361 -0.5812
 1087PF6-    F215092   1.874   2.145   5.161  0.0370 -0.3875 -0.1958
 1087PF6-    F315093   2.058   2.327   5.355 -0.1266  0.1985 -0.0697
 1087PF6-    F415094   2.075   2.125   5.252 -0.4659 -0.4517 -0.3445
 1087PF6-    F515095   1.851   2.349   5.257  0.1536 -0.1702  0.1515
 1087PF6-    F615096   1.895   2.173   5.378  0.5918  0.0483  0.4953
 1087PF6-    F715097   2.038   2.304   5.128  0.3755 -0.8916 -0.2251
 1088PF6-    P115098   0.948   3.873   3.209  0.2806  0.3058  0.1232
 1088PF6-    F215099   1.014   4.005   3.273  0.1062 -0.7706  0.3070
 1088PF6-    F315100   0.896   3.735   3.147 -0.6659 -0.4554 -0.0954
 1088PF6-    F415101   1.021   3.787   3.324  0.3170  0.2889 -0.1450
 1088PF6-    F515102   0.881   3.957   3.090 -0.1328  0.4575 -0.0038
 1088PF6-    F615103   1.075   3.862   3.122 -0.4187 -0.1485 -0.1869
 1088PF6-    F715104   0.823   3.890   3.295  0.2809 -0.1021  0.5733
 1089PF6-    P115105   3.129   0.333   0.395 -0.0406 -0.1146 -0.0014
 1089PF6-    F215106   3.025   0.377   0.508  0.0340 -0.1984  0.1172
 1089PF6-    F315107   3.241   0.289   0.295  0.4703 -0.8950  0.0405
 1089PF6-    F415108   3.023   0.366   0.284  0.2643 -0.8562 -0.0975
 1089PF6-    F515109   3.231   0.301   0.516 -0.3295 -0.1613 -0.1597
 1089PF6-    F615110   3.076   0.185   0.396 -0.2667 -0.1013 -0.5092
 1089PF6-    F715111   3.185   0.479   0.387  1.0762 -0.3519 -0.2655
 1090PF6-    P115112   2.528   4.537   0.541  0.2610  0.2844  0.3047
 1090PF6-    F215113   2.423   4.421   0.585 -0.8728  0.3428 -0.1179
 1090PF6-    F315114   2.633   4.654   0.499 -0.2487  0.1063  0.1326
 1090PF6-    F415115   2.451   4.637   0.633 -0.4387  0.4391 -0.4256
 1090PF6-    F515116   2.615   4.431   0.454  0.3894  0.4240 -0.2137
 1090PF6-    F615117   2.444   4.574   0.420  0.3550  0.6052  0.1646
 1090PF6-    F715118   2.621   4.504   0.667  0.0750 -0.0233  0.2574
 1091PF6-    P115119   0.699   2.959   1.088  0.0675  0.4043  0.5862
 1091PF6-    F215120   0.657   2.908   0.939  0.1953  0.4619 -0.0074
 1091PF6-    F315121   0.740   3.016   1.231 -0.4226 -0.4845 -0.1160
 1091PF6-    F415122   0.733   2.807   1.129  0.6322 -0.0919 -0.0349
 1091PF6-    F515123   0.658   3.106   1.048  0.2812 -0.1787 -0.8296
 1091PF6-    F615124   0.552   2.935   1.141  0.4087 -0.6361  0.4375
 1091PF6-    F715125   0.850   2.974   1.038 -0.5462  0.5861  0.5807
 1092PF6-    P115126   1.458   0.489   3.859  0.0575 -0.1666  0.2275
 1092PF6-    F215127   1.572   0.584   3.801 -0.4634 -0.5065  0.4845
 1092PF6-    F315128   1.335   0.402   3.915 -0.0605 -0.1408  0.0325
 1092PF6-    F415129   1.532   0.352   3.815  0.6253  0.6315 -0.4969
 1092PF6-    F515130   1.379   0.623   3.895  0.3189  0.1072 -0.4435
 1092PF6-    F615131   1.384   0.490   3.714 -0.1393  0.0605 -0.5375
 1092PF6-    F715132   1.523   0.490   4.006  0.0697  0.2237 -0.0330
 1093PF6-    P115133   4.247   2.459   0.383  0.1256 -0.3976  0.1316
 1093PF6-    F215134   4.190   2.511   0.243  0.3531 -0.6922 -0.3017
 1093PF6-    F315135   4.296   2.407   0.526 -0.1784  0.5983  0.4636
 1093PF6-    F415136   4.372   2.399   0.308 -0.0167 -0.1551 -0.0297
 1093PF6-    F515137   4.109   2.513   0.453 -0.1663 -0.0939 -0.2338
 1093PF6-    F615138   4.165   2.319   0.365  0.0495 -0.3460  0.2345
 1093PF6-    F715139   4.321   2.595   0.404 -0.0305 -0.1300  0.2081
 1094PF6-    P115140   4.782   4.572   4.649 -0.0985 -0.4579 -0.1745
 1094PF6-    F215141   4.718   4.426   4.628  0.8301  0.0906 -0.1160
 1094PF6-    F315142   4.843   4.714   4.674  0.0013 -0.3714 -0.4664
 1094PF6-    F415143   4.931   4.509   4.653 -0.1783 -0.2887 -0.2981
 1094PF6-    F515144   4.641   4.643   4.646 -0.2313  0.0919  0.1840
 1094PF6-    F615145   4.771   4.547   4.809  0.1714 -0.8764  0.0459
 1094PF6-    F715146   4.798   4.594   4.490 -0.5363 -0.0330  0.2227
 1095PF6-    P115147   1.386   1.615   1.273 -0.1048  0.1075  0.1021
 1095PF6-    F215148   1.358   1.456   1.274  0.1094  0.3601  0.0753
 1095PF6-    F315149   1.425   1.770   1.276  0.1934  0.3795  0.0708
 1095PF6-    F415150   1.435   1.599   1.421 -0.3561 -0.1797 -0.2483
 1095PF6-    F515151   1.337   1.627   1.118  0.3240  0.3264 -0.3750
 1095PF6-    F615152   1.233   1.643   1.327 -0.0221 -0.2228  0.2272
 1095PF6-    F715153   1.537   1.586   1.223  0.1179 -0.3522 -0.4336
 1096PF6-    P115154   1.473   4.947   1.519  0.0236 -0.0126 -0.1348
 1096PF6-    F215155   1.611   5.026   1.521  0.2137  0.1302 -0.0434
 1096PF6-    F315156   1.329   4.874   1.506 -0.0823 -0.7968  0.2009
 1096PF6-    F415157   1.468   4.936   1.676 -0.1966 -0.6350  0.6870
 1096PF6-    F515158   1.479   4.952   1.361 -0.6482 -0.1650 -0.1049
 1096PF6-    F615159   1.555   4.804   1.512 -0.0155  0.2039  0.3957
 1096PF6-    F715160   1.401   5.090   1.524  0.4193 -0.1354  0.2992
 1097PF6-    P115161   2.451   2.620   4.450  0.0723 -0.3252  0.2857
 1097PF6-    F215162   2.529   2.693   4.326 -0.0797  0.1667  0.5857
 1097PF6-    F315163   2.373   2.561   4.573  0.3458  0.4502  0.1029
 1097PF6-    F415164   2.354   2.748   4.450 -0.2520  0.0674  0.4735
 1097PF6-    F515165   2.556   2.495   4.436 -0.1161  0.1769 -0.6370
 1097PF6-    F615166   2.552   2.690   4.559  0.1895  0.7038 -0.2487
 1097PF6-    F715167   2.356   2.551   4.340  0.3329  0.7738  0.0867
 1098PF6-    P115168   3.712   2.493   3.705 -0.2001 -0.5132 -0.2526
 1098PF6-    F215169   3.764   2.591   3.824  0.1265 -0.4396 -0.0094
 1098PF6-    F315170   3.660   2.387   3.594  0.3284 -0.0082 -0.2035
 1098PF6-    F415171   3.681   2.613   3.604 -0.2192 -0.4330  0.3037
 1098PF6-    F515172   3.734   2.367   3.803  0.4353 -0.8479 -0.0291
 1098PF6-    F615173   3.562   2.508   3.758 -0.4218  0.0601 -0.1657
 1098PF6-    F715174   3.862   2.483   3.651  0.1889  0.3790 -0.2612
 1099PF6-    P115175   0.577   4.828   1.288  0.3092  0.2506  0.2356
 1099PF6-    F215176   0.610   4.988   1.295 -0.3202  0.1606  0.1255
 1099PF6-    F315177   0.536   4.676   1.270 -0.4418 -0.2649 -0.6156
 1099PF6-    F415178   0.429   4.868   1.248 -0.1390  0.0751  0.3813
 1099PF6-    F515179   0.724   4.792   1.328  0.5032  0.0029  0.6861
 1099PF6-    F615180   0.536   4.833   1.442 -0.4935  0.1313 -0.1763
 1099PF6-    F715181   0.615   4.836   1.134  0.0065  0.6787 -0.1472
 1100PF6-    P115182   1.462   3.364   2.359 -0.0321  0.4034 -0.1685
 1100PF6-    F215183   1.484   3.233   2.278  0.4387 -0.7282  0.5779
 1100PF6-    F315184   1.444   3.498   2.443  0.2479 -0.2291 -0.0620
 1100PF6-    F415185   1.416   3.433   2.222 -0.0912  0.3241  0.4668
 1100PF6-    F515186   1.511   3.284   2.489  0.5087  0.2119  0.4177
 1100PF6-    F615187   1.612   3.409   2.325 -0.1423  0.2180 -0.3589
 1100PF6-    F715188   1.310   3.318   2.384 -0.8300  0.7704  0.0450
 1101PF6-    P115189   3.950   0.085   3.390  0.1313 -0.3980 -0.4046
 1101PF6-    F215190   4.089   0.111   3.316  0.3340  0.2281  0.1304
 1101PF6-    F315191   3.807   0.063   3.462  0.2811 -0.9544  0.3211
 1101PF6-    F415192   3.891   0.012   3.257 -0.2153  0.0358 -0.3431
 1101PF6-    F515193   4.006   0.161   3.517  0.0894  0.2783  0.4221
 1101PF6-    F615194   3.899   0.228   3.329  0.2395 -0.0050 -0.0841
 1101PF6-    F715195   3.991  -0.055   3.442  0.2133 -0.4378 -0.9277
 1102PF6-    P115196   0.771   1.933   4.197  0.1858 -0.0437 -0.2500
 1102PF6-    F215197   0.863   1.836   4.284  0.2561  0.3124 -0.1481
 1102PF6-    F315198   0.672   2.034   4.111  0.0020  0.3062 -0.2635
 1102PF6-    F415199   0.650   1.853   4.248 -0.2008 -0.8671  0.5972
 1102PF6-    F515200   0.899   2.023   4.151  0.3002 -0.1060 -0.6144
 1102PF6-    F615201   0.792   1.838   4.066 -0.4656 -0.2140 -0.2736
 1102PF6-    F715202   0.750   2.029   4.328  0.3432  0.1136 -0.1350
 1103PF6-    P115203   3.285   3.415   0.966  0.2017 -0.0473  0.1840
 1103PF6-    F215204   3.337   3.282   1.041 -0.0618 -0.1698 -0.6590
 1103PF6-    F315205   3.239   3.547   0.891 -0.5205 -0.1307  0.0931
 1103PF6-    F415206   3.436   3.436   0.912 -0.3309 -0.1606  0.4555
 1103PF6-    F515207   3.133   3.393   1.010 -0.1896  0.1637  0.3593
 1103PF6-    F615208   3.314   3.495   1.099  0.5065 -0.2479 -0.2419
 1103PF6-    F715209   3.253   3.328   0.832  0.1495  0.4851  0.3127
 1104PF6-    P115210   2.495   1.665   4.095 -0.1497  0.4221 -0.5879
 1104PF6-    F215211   2.630   1.575   4.102  0.3386  0.2255  0.0105
 1104PF6-    F315212   2.366   1.750   4.084  0.1764  0.3761  0.0053
 1104PF6-    F415213   2.578   1.771   4.008  0.2130  0.1355 -0.2609
 1104PF6-    F515214   2.414   1.553   4.177 -0.3938 -0.3697 -0.2469
 1104PF6-    F615215   2.542   1.747   4.229 -0.2567  0.5838 -0.2860
 1104PF6-    F715216   2.458   1.598   3.953  0.5841  0.3213  0.8064
 1105PF6-    P115217   3.265   2.771   0.359 -0.4588  0.2671  0.0299
 1105PF6-    F215218   3.334   2.842   0.229  0.0353 -0.2338 -0.0384
 1105PF6-    F315219   3.193   2.710   0.488 -0.0711  0.0245  0.0644
 1105PF6-    F415220   3.406   2.710   0.400  0.1477 -0.2952  0.2458
 1105PF6-    F515221   3.125   2.835   0.315 -0.1270 -0.7883  0.3002
 1105PF6-    F615222   3.230   2.642   0.274 -0.6812  0.4214  0.2645
 1105PF6-    F715223   3.286   2.901   0.448 -0.1322  0.3128 -0.2341
 1106PF6-    P115224   4.464   3.864   5.356 -0.0025 -0.1477 -0.2427
 1106PF6-    F215225   4.573   3.971   5.407  0.2292  0.3430 -0.3337
 1106PF6-    F315226   4.360   3.764   5.302  0.4551 -0.1504  0.0588
 1106PF6-    F415227   4.351   3.973   5.352 -0.2388 -0.1453 -0.2807
 1106PF6-    F515228   4.587   3.746   5.352 -0.1052 -0.1305  0.1428
 1106PF6-    F615229   4.434   3.819   5.506 -0.3949  0.5328  0.2196
 1106PF6-    F715230   4.497   3.905   5.207 -0.0944 -0.1813 -0.2950
 1107PF6-    P115231   1.910   4.679   2.716 -0.0711  0.1241  0.3678
 1107PF6-    F215232   1.921   4.709   2.870 -0.2717  0.2216 -0.1968
 1107PF6-    F315233   1.895   4.654   2.559  0.0621 -0.4048 -0.1434
 1107PF6-    F415234   1.755   4.723   2.728  0.0034  0.4720  0.4339
 1107PF6-    F515235   2.064   4.640   2.701 -0.0139  0.7742  0.3726
 1107PF6-    F615236   1.868   4.527   2.751 -0.4835  0.3864 -0.5057
 1107PF6-    F715237   1.945   4.832   2.689 -0.3902 -0.2694 -0.0512
 1108PF6-    P115238   3.328   1.650   4.085 -0.1925  0.2855 -0.1289
 1108PF6-    F215239   3.477   1.659   4.127  0.1237  0.0852 -0.0034
 1108PF6-    F315240   3.175   1.643   4.036 -0.1194  0.6440  0.1650
 1108PF6-    F415241   3.366   1.535   3.987 -0.4256 -0.9525 -0.0133
 1108PF6-    F515242   3.293   1.773   4.186  0.0690 -0.2979  0.0472
 1108PF6-    F615243   3.350   1.756   3.959  0.4024 -0.0725 -0.4647
 1108PF6-    F715244   3.300   1.546   4.203 -0.4619 -0.0405  0.5946
 1109Na+     N115245   2.921   3.449   0.177  0.3321 -0.1486 -0.2319
 1110Na+     N115246   0.839   0.711   1.294  0.1330  0.4032 -0.4701
 1111Na+     N115247   3.568   4.290   0.143  0.2299  0.5927  0.2723
 1112Na+     N115248   2.602   1.520   3.186  0.2816 -0.4846  0.1069
 1113Na+     N115249   1.581   2.284   5.214  0.1240  0.3493 -0.1459
 1114Na+     N115250   1.785   4.933   2.866 -0.6226  0.1323  0.1008
 1115Na+     N115251   0.343   0.773   3.951 -0.6766  0.1657  0.1783
 1116Na+     N115252   5.318   1.080   2.046  0.4269  0.4450 -0.6355
 1117Na+     N115253   0.797   2.115   2.221 -0.3141  0.3026  0.5059
 1118Na+     N115254   0.031   4.220   2.771 -0.2668 -0.2563  0.2795
 1119Na+     N115255   2.885   0.331   2.457 -0.1410  0.2649  0.2425
 1120Na+     N115256   4.565   1.566   2.897  0.0878 -0.4757  0.2226
 1121Na+     N115257   2.445   2.845   5.110  0.1978 -0.1824  0.1317
 1122Na+     N115258   0.424   4.443   5.090  0.2074  0.4206 -0.3348
 1123Na+     N115259   5.450   2.840   0.392  0.2289  0.5395  0.4285
 1124Na+     N115260   1.040   1.494   2.917 -0.2384 -0.2631 -0.0696
 1125Na+     N115261   3.211   4.887   4.279 -0.0768 -0.4549 -0.3760
 1126Na+     N115262   1.373   3.237   3.312  0.0933  0.2006  0.7261
 1127Na+     N115263   0.586   1.892   3.942 -0.0594  0.4047  0.2549
 1128Na+     N115264   3.107   1.400   3.913  0.0485  0.3068  0.1228
 1129Na+     N115265   2.721   2.338   0.159  0.0252  0.2523  0.6355
 1130Na+     N115266   2.903   2.329   1.421  0.5261 -0.2147  0.1752
 1131Na+     N115267   2.948   2.898   1.847  0.0753 -0.1991 -0.1899
 1132Na+     N115268   0.588   4.181   1.777 -0.0057 -0.2985 -0.0748
 1133Na+     N115269   4.870   3.575   3.215  0.2246 -0.5238  0.0274
 1134Na+     N115270   4.496   1.785   0.199 -0.1881  0.4174  0.1281
 1135Na+     N115271   3.373   2.450   5.190 -0.1449 -0.5836 -0.3987
 1136Na+     N115272   3.202   3.899   3.140  0.4854  0.1759 -0.1325
 1137Na+     N115273   0.182   5.441   1.206 -0.2414 -0.1735 -0.2546
 1138Na+     N115274   2.727   0.067   4.193 -0.7466  0.2356 -0.1418
 1139Na+     N115275   1.308   0.953   2.362  0.2285  0.5000 -0.1066
 1140Na+     N115276   0.994   3.607   4.034  0.4197 -0.0659  0.3387
 1141Na+     N115277   0.640   5.367   4.886  0.4612 -0.0687 -0.1688
 1142Na+     N115278   4.707   5.199   4.375  0.1732 -0.3265  0.2077
 1143Na+     N115279   2.709   2.986   0.852 -0.0012 -0.4318 -0.1248
 1144Na+     N115280   0.819   0.430   5.184 -0.0542  0.6680  0.1471
 1145Na+     N115281   2.518   4.714   0.874 -0.3735 -0.3832 -0.0804
 1146Na+     N115282   2.775   5.038   3.378  0.6397  0.4075 -0.0114
 1147Na+     N115283   0.485   5.473   0.420 -0.0231  0.7124 -0.3811
 1148Na+     N115284   4.715   2.518   3.038  0.3112  0.1063 -0.3825
 1149Na+     N115285   1.302   4.042   2.489  0.4427  0.0865 -0.0932
 1150Na+     N115286   4.909   2.023   2.224  0.0876 -0.4556 -0.0376
 1151Na+     N115287   1.732   3.308   0.135 -0.3591 -0.1242  0.0051
 1152Na+     N115288   0.287   3.493   4.772 -0.1846  0.2403  0.0043
 1153Na+     N115289   1.282   2.230   1.810 -0.2017 -0.1247 -0.3485
 1154Na+     N115290   4.068   4.837   3.650 -0.1184  0.1846  0.0086
 1155Na+     N115291   2.155   3.573   2.576 -0.4462  0.0365  0.3147
 1156Na+     N115292   2.891   3.506   4.796  0.0098 -0.4370 -0.4944
 1157Na+     N115293   1.570   1.012   0.858  0.1210 -0.2440 -0.1417
 1158Na+     N115294   1.189   0.235   3.982  0.5281  0.2000 -0.1431
 1159Na+     N115295   3.441   0.318   0.688 -0.4879  0.2526  0.2222
 1160Na+     N115296   4.405   1.182   3.677 -0.1247  0.1066  0.0453
 1161Na+     N115297   1.400   0.997   3.395 -0.5978  0.0465 -0.1568
 1162Na+     N115298   1.859   3.017   4.233  0.2855  0.3087 -0.0775
 1163Na+     N115299   3.586   3.210   2.917  0.5084  0.1950 -0.2874
 1164Na+     N115300   4.049   0.132   1.582  0.1393 -0.0682  0.3365
 1165Na+     N115301   3.671   2.130   3.785  0.0363 -0.1343 -0.3053
 1166Na+     N115302   2.051   4.938   1.254  0.1096  0.6288 -0.2647
 1167Na+     N115303   4.902   0.444   4.875  0.0169 -0.2627 -0.6048
 1168Na+     N115304   2.405   0.501   0.608  0.5527 -0.1282  0.4216
 1169Na+     N115305   2.872   4.342   0.474 -0.4544 -0.3170 -0.3707
 1170Na+     N115306   5.100   2.064   3.616  0.2847 -0.6015  0.3544
 1171Na+     N115307   0.364   3.087   1.103  0.1672 -0.7759  0.0165
 1172Na+     N115308   1.275   0.060   3.162  0.0574 -0.1709 -0.0778
 1173Na+     N115309   3.708   0.207   5.315  0.3999 -0.7354  0.0192
 1174Na+     N115310   5.396   5.120   5.157  0.0471  0.1530 -0.5540
 1175Na+     N115311   3.930   0.425   3.520 -0.2782 -0.1907  0.5017
 1176Na+     N115312   2.437   4.914   2.412  0.7389  0.7791 -0.3654
 1177Na+     N115313   5.063   3.421   1.223  0.1492  0.2336  0.3516
 1178Na+     N115314   5.007   4.099   1.743  0.1317  0.1014  0.1060
 1179Na+     N115315   5.085   0.495   3.289  0.0179  0.0941 -0.1508
 1180Na+     N115316   5.375   2.609   4.241  0.1300 -0.1526  0.4110
 1181Na+     N115317   1.448   3.269   2.009  0.0589  0.8915  0.1304
 1182Na+     N115318   2.723   2.710   3.285 -0.0812  0.0582 -0.2941
 1183Na+     N115319   0.015   4.724   0.517  0.3101 -0.1198 -0.3243
 1184Na+     N115320   2.419   3.928   4.014 -0.0857 -0.0038  0.5750
 1185Na+     N115321   3.131   1.261   4.699  0.1393 -0.2771  0.1248
 1186Na+     N115322   0.905   4.229   3.880 -0.1490 -0.2880  0.3263
 1187Na+     N115323   0.949   2.417   2.844 -0.2350 -0.2325 -0.0174
 1188Na+     N115324   1.930   2.175   3.847  0.0725 -0.2551  0.2998
 1189Na+     N115325   3.883   2.391   0.455 -0.0996  0.6009 -0.2403
 1190Na+     N115326   0.219   1.901   2.447  0.3572 -0.1287 -0.4409
 1191Na+     N115327   0.585   4.253   0.741  0.1813 -0.1624  0.1149
 1192Na+     N115328   3.700   2.454   3.062  0.2296 -0.2732  0.0654
 1193Na+     N115329   4.233   3.912   5.110 -0.0876 -0.4677 -0.4624
 1194Na+     N115330   4.802   4.436   5.055 -0.0388 -0.1300 -0.1827
 1195Na+     N115331   2.777   1.907   1.833 -0.7620  0.0900  0.2697
 1196Na+     N115332   3.517   1.623   5.381  0.4702 -0.1355 -0.0995
 1197Na+     N115333   3.336   1.265   2.939  0.6353  0.0806  0.3231
 1198Na+     N115334   2.889   2.129   4.003 -0.2932  0.1427 -0.2578
 1199Na+     N115335   0.925   5.336   1.699 -0.1494  0.1002 -0.0420
 1200Na+     N115336   0.004   4.315   4.317 -0.0734  0.5121 -0.5421
 1201Na+     N115337   1.037   4.779   2.582 -0.2961 -0.1256  0.3574
 1202Na+     N115338   3.949   4.588   0.957 -0.1101 -0.2204  0.0556
 1203Na+     N115339   3.580   3.120   1.037  0.1588  0.1390 -0.1375
 1204Na+     N115340   4.899   3.254   5.088 -0.4460 -0.0274  0.1253
 1205Na+     N115341   3.433   2.317   1.033  0.1993 -0.0083 -0.4647
 1206Na+     N115342   1.019   2.510   4.124  0.5434  1.0855 -0.3138
 1207Na+     N115343   3.768   5.325   3.094  0.3366  0.1778  0.0578
 1208Na+     N115344   0.058   2.982   3.310  0.0997 -0.3320  0.1053
   5.50250   5.50250   5.50250
