DG-THF-PF6-Na    Amber RESP
15344
    1DG      C1    1   3.035   2.713   2.292  0.9253  0.1150 -0.6194
    1DG      C2    2   3.490   2.677   2.818 -0.7895 -0.5198 -0.1778
    1DG      H3    3   3.074   2.671   2.200  1.1577 -1.8777  0.3440
    1DG      H4    4   3.075   2.814   2.285 -3.8422  2.3065 -0.5264
    1DG      H5    5   2.928   2.735   2.290  0.8812 -0.1505 -1.3020
    1DG      H6    6   3.571   2.612   2.786 -1.2366 -0.0695 -2.3674
    1DG      H7    7   3.498   2.778   2.778  0.6791 -1.3260 -2.0320
    1DG      H8    8   3.503   2.682   2.927  0.9125  0.8742 -0.3989
    1DG      O9    9   3.073   2.642   2.408  0.3364  0.8779 -0.4512
    1DG     O10   10   3.364   2.637   2.767  0.3551 -0.2383 -0.5376
    1DG     C11   11   3.033   2.507   2.411 -0.1463 -0.7069 -0.0109
    1DG     C12   12   3.335   2.495   2.786  1.2476 -0.1380  0.0599
    1DG     H13   13   3.100   2.463   2.337  0.1626 -0.3278  0.0417
    1DG     H14   14   2.932   2.504   2.369 -0.6110  1.5710  0.8351
    1DG     H15   15   3.335   2.465   2.891 -0.2429 -1.5525 -0.2895
    1DG     H16   16   3.413   2.445   2.729  2.0726  1.5282 -0.3292
    1DG     C17   17   3.052   2.445   2.550 -0.1219  1.2608  0.5178
    1DG     C18   18   3.199   2.448   2.735  0.0313 -0.3646 -0.8970
    1DG     O19   19   3.178   2.486   2.606  0.4394 -0.3059  0.7300
    1DG     H20   20   3.050   2.337   2.530 -0.2540  1.5663 -1.3379
    1DG     H21   21   2.976   2.480   2.620  0.9905  1.1460  1.8276
    1DG     H22   22   3.191   2.340   2.747  0.3120 -0.2671  0.2406
    1DG     H23   23   3.124   2.501   2.794  0.0726 -0.5893 -0.6434
    2DG      C1   24   0.230   5.466   1.651  0.2861 -0.4589 -0.0040
    2DG      C2   25   0.479   4.863   1.700 -0.1610 -0.0526 -0.6006
    2DG      H3   26   0.132   5.428   1.680  1.4421 -1.4226  3.0121
    2DG      H4   27   0.204   5.560   1.603 -3.1701 -0.8747  0.8157
    2DG      H5   28   0.292   5.482   1.739 -0.2617  0.0331  0.2980
    2DG      H6   29   0.582   4.861   1.664 -0.4418  3.1296 -1.8994
    2DG      H7   30   0.489   4.873   1.808 -0.6060 -1.6037 -0.3827
    2DG      H8   31   0.429   4.766   1.688  0.3457 -0.6646  1.6472
    2DG      O9   32   0.290   5.378   1.561 -0.4393 -0.1189 -0.0161
    2DG     O10   33   0.389   4.955   1.632 -0.3656  0.0633  0.4057
    2DG     C11   34   0.215   5.352   1.437  0.2985 -0.8725 -0.6075
    2DG     C12   35   0.386   4.930   1.492 -0.7447  0.1667 -0.2683
    2DG     H13   36   0.201   5.439   1.373 -0.5424  0.5701  1.4286
    2DG     H14   37   0.114   5.320   1.463 -0.4678 -0.0073 -2.3367
    2DG     H15   38   0.359   4.827   1.472  0.2577 -0.7008  2.3971
    2DG     H16   39   0.480   4.945   1.439 -1.2162 -1.9037 -1.7941
    2DG     C17   40   0.291   5.246   1.355 -0.3992 -0.1236 -0.1142
    2DG     C18   41   0.288   5.026   1.440 -0.2037 -0.4196 -0.2339
    2DG     O19   42   0.358   5.144   1.429  0.0152  0.0532  0.6048
    2DG     H20   43   0.359   5.302   1.291  0.4248  0.9591  1.6088
    2DG     H21   44   0.227   5.204   1.277 -1.3893  0.4621  0.3592
    2DG     H22   45   0.253   4.977   1.349 -1.2677  1.6708 -1.0233
    2DG     H23   46   0.212   5.049   1.515  1.4146  0.4246  1.2152
    3DG      C1   47   2.490   4.216   2.363 -0.1040  0.2832 -0.7903
    3DG      C2   48   2.270   4.388   1.785  0.6061 -0.7271 -0.3775
    3DG      H3   49   2.547   4.295   2.411  0.6256 -0.6440 -0.0945
    3DG      H4   50   2.550   4.163   2.289  0.0039 -0.9094  0.1073
    3DG      H5   51   2.463   4.152   2.447 -1.9555  1.0332 -0.7655
    3DG      H6   52   2.296   4.282   1.772  3.2074 -0.1488 -0.4223
    3DG      H7   53   2.180   4.397   1.724  1.0534 -0.4600 -1.0009
    3DG      H8   54   2.350   4.459   1.766 -0.3733 -0.1026 -2.4848
    3DG      O9   55   2.370   4.267   2.300 -0.1318  0.6311  0.0995
    3DG     O10   56   2.224   4.403   1.913 -0.1045  0.0541 -0.4671
    3DG     C11   57   2.295   4.352   2.382 -0.4076 -0.7070 -0.3638
    3DG     C12   58   2.185   4.532   1.950 -0.3222 -0.1112 -0.0294
    3DG     H13   59   2.351   4.437   2.421 -3.3163  1.5161 -0.6909
    3DG     H14   60   2.264   4.301   2.474 -2.5038 -2.1875 -1.7779
    3DG     H15   61   2.108   4.574   1.885 -0.1373  0.5224  0.1564
    3DG     H16   62   2.263   4.608   1.946  1.1124 -1.5812 -0.8575
    3DG     C17   63   2.184   4.406   2.301  0.1357  0.0955 -0.2338
    3DG     C18   64   2.141   4.510   2.095 -0.3361 -0.3964 -0.7162
    3DG     O19   65   2.238   4.457   2.180  0.0953 -0.1971  0.2398
    3DG     H20   66   2.147   4.486   2.365  1.0013  0.8251 -0.6199
    3DG     H21   67   2.100   4.338   2.292 -0.0244  0.0075  1.5943
    3DG     H22   68   2.132   4.608   2.142  1.2635 -1.2154  1.4606
    3DG     H23   69   2.039   4.472   2.099 -0.1614 -0.7721  0.2854
    4DG      C1   70   2.653   0.647   1.704 -0.0256 -0.1936  0.5115
    4DG      C2   71   3.048   0.517   1.136  0.7175 -0.1318 -0.2207
    4DG      H3   72   2.751   0.604   1.720  0.3490 -1.1448 -3.5162
    4DG      H4   73   2.566   0.624   1.766 -1.8932 -1.4323 -2.3445
    4DG      H5   74   2.676   0.753   1.695  0.7405 -0.5009 -1.5671
    4DG      H6   75   3.110   0.595   1.180  1.2293 -0.1352 -0.9079
    4DG      H7   76   3.081   0.427   1.189 -0.7507  0.4864  1.8683
    4DG      H8   77   3.068   0.502   1.030  0.0149 -1.7789 -0.1570
    4DG      O9   78   2.620   0.599   1.580  1.2315  0.4818 -0.5887
    4DG     O10   79   2.913   0.533   1.173  0.1386  0.5265  0.2105
    4DG     C11   80   2.548   0.691   1.499 -0.2166  0.1448 -0.4512
    4DG     C12   81   2.834   0.616   1.102 -0.2295 -0.4102 -0.6068
    4DG     H13   82   2.599   0.787   1.495  2.3788 -1.1272 -0.0501
    4DG     H14   83   2.447   0.704   1.538  0.3554 -0.0556  1.1783
    4DG     H15   84   2.840   0.574   1.001  0.2028 -1.3161 -0.2149
    4DG     H16   85   2.866   0.720   1.102 -0.4510 -0.3311 -1.4735
    4DG     C17   86   2.549   0.629   1.357 -0.5083  0.1103  0.6508
    4DG     C18   87   2.698   0.597   1.163  0.4021  0.2329  0.2325
    4DG     O19   88   2.682   0.620   1.306 -0.2208 -0.1203  0.1364
    4DG     H20   89   2.500   0.701   1.292 -0.5183  0.1526  0.7050
    4DG     H21   90   2.500   0.532   1.346 -0.8752  0.4417 -0.9321
    4DG     H22   91   2.622   0.650   1.106  0.1479  0.0956  0.4405
    4DG     H23   92   2.653   0.498   1.150 -0.2040  0.6608 -1.0982
    5DG      C1   93   4.758   1.336   0.674  0.1993  0.2702 -0.1562
    5DG      C2   94   4.194   1.116   0.431  0.2656  0.0319  0.2296
    5DG      H3   95   4.711   1.432   0.694 -0.1211 -0.2282  1.6852
    5DG      H4   96   4.866   1.348   0.667  0.2570 -0.8238 -1.4916
    5DG      H5   97   4.744   1.279   0.766 -0.5327  0.5712 -0.0745
    5DG      H6   98   4.197   1.016   0.475  0.5744  0.6551  1.6751
    5DG      H7   99   4.174   1.193   0.505  0.3375  0.7242 -0.4566
    5DG      H8  100   4.110   1.128   0.362  0.0540  0.7798  0.6040
    5DG      O9  101   4.701   1.273   0.562  0.2499  0.4477  0.5971
    5DG     O10  102   4.318   1.144   0.373 -0.0344 -0.3804  0.6797
    5DG     C11  103   4.745   1.341   0.440  0.1238  0.6113 -0.4369
    5DG     C12  104   4.313   1.253   0.282 -0.4823  0.0302  0.4646
    5DG     H13  105   4.851   1.353   0.417  0.4043 -1.2683 -0.2555
    5DG     H14  106   4.721   1.447   0.446  1.4564  0.9051 -0.1214
    5DG     H15  107   4.275   1.341   0.333  1.1208  0.2611  1.2903
    5DG     H16  108   4.252   1.233   0.193  0.1429 -0.3858  0.1249
    5DG     C17  109   4.667   1.281   0.321  0.7346  0.5414 -0.1593
    5DG     C18  110   4.451   1.287   0.231  0.2718  0.6045 -0.5323
    5DG     O19  111   4.527   1.282   0.349  0.1633  0.5502  0.3360
    5DG     H20  112   4.713   1.189   0.284 -1.0053  0.2629 -1.7993
    5DG     H21  113   4.700   1.356   0.249  0.1094  0.1353 -0.8798
    5DG     H22  114   4.491   1.218   0.156  1.2642  0.4691  0.1132
    5DG     H23  115   4.448   1.386   0.184 -1.0277  0.2581 -1.2312
    6DG      C1  116   1.791   1.686   1.589  0.2387 -0.5835  0.0449
    6DG      C2  117   1.629   2.116   2.062  0.1263  0.0232  0.5158
    6DG      H3  118   1.874   1.664   1.656  2.0309  2.6318 -0.8889
    6DG      H4  119   1.814   1.785   1.551 -1.0296 -0.2856 -0.0074
    6DG      H5  120   1.809   1.615   1.508  1.3630 -1.1459  0.7540
    6DG      H6  121   1.706   2.072   2.126  0.8160 -2.3076 -1.7243
    6DG      H7  122   1.668   2.201   2.004 -1.3607  1.0215  0.9356
    6DG      H8  123   1.545   2.149   2.122 -0.8775 -1.9929  0.2942
    6DG      O9  124   1.664   1.693   1.655  0.1474  0.0816 -0.4091
    6DG     O10  125   1.556   2.022   1.990  0.2237 -0.8834  0.1535
    6DG     C11  126   1.639   1.583   1.747 -0.0267  0.4627  0.4152
    6DG     C12  127   1.512   1.912   2.075 -0.4015 -0.2728  1.0578
    6DG     H13  128   1.720   1.559   1.816  0.1232  0.0552  0.1021
    6DG     H14  129   1.628   1.485   1.701 -0.2499  0.6686  0.0265
    6DG     H15  130   1.432   1.941   2.143  0.3013  2.1827  0.9247
    6DG     H16  131   1.602   1.884   2.131  1.0040  0.3843 -0.7414
    6DG     C17  132   1.516   1.625   1.832 -0.7128  0.8095  0.8929
    6DG     C18  133   1.465   1.785   2.000 -0.0064  0.5999 -0.5447
    6DG     O19  134   1.555   1.745   1.895  0.0288  0.5262 -0.9131
    6DG     H20  135   1.487   1.552   1.908 -0.7843  2.0192  2.0525
    6DG     H21  136   1.422   1.643   1.780 -0.5948 -0.0360  0.3637
    6DG     H22  137   1.445   1.703   2.069 -0.6099  0.3758 -0.9769
    6DG     H23  138   1.369   1.806   1.954 -0.6266  1.6668  1.1720
    7DG      C1  139   4.874   5.382   0.104  0.4374  0.6792 -0.0884
    7DG      C2  140   5.298   5.655   0.537 -0.5204  0.0559  0.2218
    7DG      H3  141   4.815   5.423   0.021 -0.0565  2.1962  0.9560
    7DG      H4  142   4.806   5.389   0.189 -1.9586 -2.0306 -1.6081
    7DG      H5  143   4.895   5.279   0.077 -0.0011  0.3441  0.8220
    7DG      H6  144   5.353   5.567   0.570  0.4455  0.8620  0.8538
    7DG      H7  145   5.360   5.727   0.591 -2.0952 -0.4519  2.9061
    7DG      H8  146   5.199   5.663   0.583 -0.6926  1.0668 -0.2861
    7DG      O9  147   4.998   5.452   0.131 -0.1925  0.5930 -0.6788
    7DG     O10  148   5.282   5.683   0.397  0.9277 -0.5117 -0.3099
    7DG     C11  149   5.090   5.444   0.023  0.6164  0.0407 -0.0689
    7DG     C12  150   5.396   5.676   0.313 -0.6992 -0.6840 -0.7471
    7DG     H13  151   5.038   5.451  -0.073 -1.6977  1.7643  1.2177
    7DG     H14  152   5.154   5.355   0.024  0.7475  0.0800  2.9131
    7DG     H15  153   5.456   5.587   0.331  1.2160  0.2444 -2.2259
    7DG     H16  154   5.475   5.747   0.337 -2.0078  0.1976  1.1636
    7DG     C17  155   5.193   5.568   0.028 -0.1840  0.1453  0.6730
    7DG     C18  156   5.346   5.686   0.167 -0.1761 -0.3704  0.5118
    7DG     O19  157   5.274   5.568   0.139  0.0371 -0.7223  0.0371
    7DG     H20  158   5.136   5.661   0.024  0.3115  0.4411 -2.8992
    7DG     H21  159   5.258   5.558  -0.059 -0.8740  1.4077 -0.0263
    7DG     H22  160   5.272   5.764   0.148  0.3644 -0.1435 -0.8018
    7DG     H23  161   5.425   5.704   0.094 -0.7103 -0.1904 -0.0311
    8DG      C1  162   2.476   2.062   4.064 -0.1122 -0.3118 -0.5207
    8DG      C2  163   2.585   1.488   3.692 -0.8812 -0.3721  0.0273
    8DG      H3  164   2.470   2.170   4.060 -0.8269 -0.3598 -1.1302
    8DG      H4  165   2.511   2.020   4.158 -0.3228 -0.0265 -0.3148
    8DG      H5  166   2.375   2.026   4.043  0.5665 -1.6922 -1.6141
    8DG      H6  167   2.690   1.507   3.671 -0.2838 -2.8052  0.5030
    8DG      H7  168   2.571   1.431   3.784 -1.5868  1.2342  0.9494
    8DG      H8  169   2.548   1.425   3.611  0.5665  2.6275 -3.2010
    8DG      O9  170   2.559   2.014   3.955 -0.1613 -0.4480  0.8750
    8DG     O10  171   2.501   1.607   3.698  0.1382 -1.0289  0.1673
    8DG     C11  172   2.531   2.080   3.834  0.6530 -0.2980  0.5241
    8DG     C12  173   2.497   1.681   3.574  0.2022 -0.6170  0.2942
    8DG     H13  174   2.635   2.092   3.803  0.2327 -2.2668 -1.8982
    8DG     H14  175   2.489   2.180   3.847  1.8241  0.9990 -3.9249
    8DG     H15  176   2.442   1.616   3.506  0.2232 -0.5916  0.2532
    8DG     H16  177   2.592   1.697   3.522 -1.2080  1.1064 -1.8966
    8DG     C17  178   2.449   2.014   3.720 -0.3870 -1.1254  0.0951
    8DG     C18  179   2.427   1.814   3.594  0.4358  0.0865 -0.8094
    8DG     O19  180   2.496   1.878   3.701 -0.0097  0.3431 -0.1265
    8DG     H20  181   2.468   2.067   3.628  1.5573 -1.6220  0.1663
    8DG     H21  182   2.340   2.018   3.725 -0.5058 -2.1556 -0.9992
    8DG     H22  183   2.437   1.876   3.505  0.0632  0.5795 -0.5089
    8DG     H23  184   2.323   1.791   3.615  1.0933 -1.4787  1.0695
    9DG      C1  185   0.293   0.434   4.422 -0.7250  0.8785  0.4864
    9DG      C2  186  -0.267   0.233   4.299 -0.0028 -0.0968 -0.6013
    9DG      H3  187   0.402   0.438   4.430 -0.5620 -1.8339  0.5938
    9DG      H4  188   0.262   0.388   4.515 -2.4297  0.4395 -0.2608
    9DG      H5  189   0.253   0.535   4.411 -0.2612  0.9606 -0.5662
    9DG      H6  190  -0.319   0.215   4.205 -2.3826 -0.5487  0.7111
    9DG      H7  191  -0.314   0.163   4.368  1.2023 -0.7415 -0.4153
    9DG      H8  192  -0.292   0.331   4.340 -1.1791 -1.3054  1.7640
    9DG      O9  193   0.265   0.364   4.299 -1.0028  0.3395 -0.2416
    9DG     O10  194  -0.125   0.200   4.305  0.1367  0.5461  0.3479
    9DG     C11  195   0.337   0.235   4.303 -0.0177 -1.2178  0.3971
    9DG     C12  196  -0.090   0.059   4.313  0.1656  0.4530 -0.5602
    9DG     H13  197   0.432   0.245   4.356  0.8649 -1.1075 -1.1124
    9DG     H14  198   0.384   0.202   4.210 -0.4778 -1.4491  0.2443
    9DG     H15  199  -0.117   0.018   4.216 -0.8901 -0.1975 -0.0187
    9DG     H16  200  -0.157   0.014   4.388  0.6302  1.6610  0.6151
    9DG     C17  201   0.263   0.125   4.381 -0.1143 -0.0604 -0.3316
    9DG     C18  202   0.051   0.029   4.367 -0.2342 -0.0495 -0.2406
    9DG     O19  203   0.145   0.103   4.295  0.4840  0.4617 -0.1803
    9DG     H20  204   0.246   0.173   4.477  0.6743  0.6362 -0.5222
    9DG     H21  205   0.331   0.041   4.394  1.9107  1.4612 -0.4194
    9DG     H22  206   0.054   0.066   4.470  0.6271  2.1890 -1.0086
    9DG     H23  207   0.077  -0.077   4.368 -3.2719 -0.9072 -1.1318
   10DG      C1  208   0.424   3.978   4.300  0.1534 -0.5544  0.4226
   10DG      C2  209   0.580   3.376   4.005  0.5587  0.4990 -0.1142
   10DG      H3  210   0.335   3.990   4.363  0.9269 -0.9641  1.6287
   10DG      H4  211   0.461   4.074   4.265 -0.8759 -0.8742 -1.7459
   10DG      H5  212   0.503   3.938   4.363 -1.3347 -1.1745  1.9726
   10DG      H6  213   0.671   3.379   4.065 -0.0166 -0.0771  0.8066
   10DG      H7  214   0.528   3.296   4.057 -1.5438  0.4374 -2.1387
   10DG      H8  215   0.612   3.337   3.908  0.5516 -0.1482  0.1420
   10DG      O9  216   0.400   3.891   4.188 -0.4405  0.3216 -0.5270
   10DG     O10  217   0.511   3.497   3.984 -0.1974 -0.0535  0.3786
   10DG     C11  218   0.292   3.925   4.104  0.3675 -0.4577 -0.6847
   10DG     C12  219   0.380   3.483   3.952  0.0902 -0.0421  0.6252
   10DG     H13  220   0.282   4.032   4.085  1.4549  0.1678  1.8283
   10DG     H14  221   0.204   3.897   4.161  1.5194 -0.1605  1.3493
   10DG     H15  222   0.316   3.433   4.024 -1.7758  0.1919 -0.8060
   10DG     H16  223   0.378   3.424   3.860  0.6317 -2.2340  1.9415
   10DG     C17  224   0.290   3.838   3.974  0.2166 -0.0679 -0.2528
   10DG     C18  225   0.334   3.619   3.900  0.8770 -0.9962  0.1761
   10DG     O19  226   0.311   3.706   4.007 -0.0963 -0.0401 -0.2322
   10DG     H20  227   0.371   3.871   3.909  0.6036  0.4910  0.4978
   10DG     H21  228   0.191   3.852   3.929 -0.1031  2.0789  0.9669
   10DG     H22  229   0.405   3.657   3.826 -2.8135 -1.5895 -4.0478
   10DG     H23  230   0.240   3.613   3.847  0.9927  0.7628 -0.3021
   11DG      C1  231   4.105   4.588   0.486  0.2814  0.9506 -0.1353
   11DG      C2  232   3.617   4.874   0.287  0.2773 -0.0803 -0.3293
   11DG      H3  233   4.198   4.561   0.536 -0.2550 -3.1127 -0.9763
   11DG      H4  234   4.134   4.649   0.401  1.6629 -0.0050 -0.3930
   11DG      H5  235   4.053   4.505   0.438  0.5398 -0.6008  2.1041
   11DG      H6  236   3.698   4.913   0.225 -0.2622  1.6909  0.0262
   11DG      H7  237   3.595   4.776   0.245 -0.2663  0.3196 -1.0097
   11DG      H8  238   3.523   4.929   0.277  0.7182  0.8227  0.3440
   11DG      O9  239   4.014   4.673   0.548  0.2695 -0.1694 -0.1740
   11DG     O10  240   3.647   4.877   0.430  0.1726  0.4530  0.4710
   11DG     C11  241   3.967   4.617   0.677 -0.2961  0.0867 -0.2514
   11DG     C12  242   3.557   4.816   0.523  0.1563 -0.7058  0.6334
   11DG     H13  243   4.053   4.628   0.744  1.0808 -1.2168 -1.6938
   11DG     H14  244   3.936   4.513   0.686 -0.5492  0.1312 -0.6317
   11DG     H15  245   3.503   4.736   0.472 -1.8376  0.4400  0.8307
   11DG     H16  246   3.484   4.889   0.558  0.6915 -0.0378  0.3757
   11DG     C17  247   3.862   4.708   0.732 -0.0872 -0.3900  0.3445
   11DG     C18  248   3.636   4.774   0.648 -0.3933 -0.3006  0.3764
   11DG     O19  249   3.769   4.723   0.618  0.6052 -0.2687 -0.0180
   11DG     H20  250   3.912   4.798   0.768  0.3304 -0.6091  0.3104
   11DG     H21  251   3.814   4.651   0.812  1.9919 -0.7490  1.3939
   11DG     H22  252   3.661   4.864   0.704 -0.8133 -0.0222  0.1184
   11DG     H23  253   3.583   4.706   0.715 -0.5755 -1.3344 -0.7740
   12DG      C1  254   4.687   0.242   2.706  0.5223 -0.1012 -0.1309
   12DG      C2  255   5.204  -0.264   3.094 -0.0369 -0.0765  0.4538
   12DG      H3  256   4.594   0.200   2.745  0.0236 -0.1495 -1.3525
   12DG      H4  257   4.672   0.273   2.603 -0.2966  2.5835  0.7182
   12DG      H5  258   4.711   0.333   2.761 -1.3259  0.3128  0.0848
   12DG      H6  259   5.306  -0.301   3.101  0.4839  1.6339  3.8689
   12DG      H7  260   5.220  -0.164   3.134  0.1246 -0.4366  1.3087
   12DG      H8  261   5.138  -0.305   3.170  2.6717 -0.7194  2.5763
   12DG      O9  262   4.779   0.141   2.715 -0.1848 -0.2549 -0.4185
   12DG     O10  263   5.157  -0.272   2.961 -0.1765  0.5597  0.7146
   12DG     C11  264   4.738   0.028   2.649  0.2317  0.1255  0.0842
   12DG     C12  265   5.044  -0.193   2.941  0.5512 -0.5941  0.1560
   12DG     H13  266   4.689   0.055   2.555  1.0997 -1.2195 -0.7912
   12DG     H14  267   4.663  -0.022   2.710 -0.8154  0.3824 -0.9323
   12DG     H15  268   5.050  -0.091   2.980  1.3073 -0.2662 -0.7767
   12DG     H16  269   4.967  -0.236   3.005  1.0330 -0.5195  0.7982
   12DG     C17  270   4.858  -0.072   2.645  0.4784  0.1311 -0.1346
   12DG     C18  271   5.009  -0.190   2.793  0.0261 -0.2244 -0.7510
   12DG     O19  272   4.904  -0.096   2.782  0.2394  0.1919  0.1865
   12DG     H20  273   4.943  -0.045   2.583  0.9926 -0.8231  0.1278
   12DG     H21  274   4.819  -0.168   2.613  1.6120 -0.4307  0.1013
   12DG     H22  275   5.097  -0.153   2.740  1.1521  2.3345  2.5729
   12DG     H23  276   4.977  -0.290   2.763 -2.0893  0.2864 -0.3661
   13DG      C1  277   2.063   2.214   5.216  0.8901 -0.5270  0.3817
   13DG      C2  278   1.465   2.473   5.175  0.2168  0.4869 -0.4304
   13DG      H3  279   2.144   2.177   5.279  2.2443 -0.8065 -1.4487
   13DG      H4  280   2.095   2.262   5.124  0.0385 -1.1033 -0.2283
   13DG      H5  281   1.988   2.141   5.187 -0.6967  1.4931 -0.9079
   13DG      H6  282   1.482   2.508   5.073  4.0918  1.8569  0.5271
   13DG      H7  283   1.430   2.370   5.165  0.4823  0.4722 -1.3237
   13DG      H8  284   1.388   2.530   5.226  0.5008 -0.2048  0.8124
   13DG      O9  285   1.990   2.315   5.287 -0.4073 -0.3704  0.0345
   13DG     O10  286   1.584   2.494   5.245  0.5394  0.2967 -0.2195
   13DG     C11  287   2.053   2.439   5.289 -0.2608  0.0718 -0.5083
   13DG     C12  288   1.628   2.631   5.251 -0.0217 -0.2535  0.1299
   13DG     H13  289   2.070   2.492   5.196 -0.5637 -0.1348 -0.6803
   13DG     H14  290   2.149   2.422   5.338 -0.2670  0.0171 -0.5151
   13DG     H15  291   1.551   2.700   5.286  1.1992  0.9187  0.5946
   13DG     H16  292   1.669   2.667   5.157  1.1167  1.1521  1.1174
   13DG     C17  293   1.968   2.526   5.378  0.1162 -0.3009  0.0875
   13DG     C18  294   1.749   2.634   5.354 -0.6709 -0.1498  0.0325
   13DG     O19  295   1.827   2.521   5.327 -0.4616  0.0269  0.0238
   13DG     H20  296   2.007   2.628   5.378  0.5483 -0.4548  0.7882
   13DG     H21  297   1.971   2.491   5.482 -0.8069  0.4714  0.3891
   13DG     H22  298   1.808   2.725   5.357 -0.5522 -0.2622  1.5351
   13DG     H23  299   1.693   2.626   5.447 -1.3105 -4.0259 -0.5179
   14DG      C1  300   4.176   4.553   2.609 -0.4250 -0.8582 -0.7288
   14DG      C2  301   4.669   4.305   2.184 -0.4341 -1.0454  0.0286
   14DG      H3  302   4.100   4.518   2.539 -1.8597  0.4265  0.1350
   14DG      H4  303   4.143   4.646   2.655  0.1608 -1.1925  0.4156
   14DG      H5  304   4.199   4.477   2.685  0.7129  0.3233  0.1462
   14DG      H6  305   4.608   4.216   2.191 -1.5729 -0.3365 -0.5370
   14DG      H7  306   4.661   4.340   2.081  2.5659 -0.6080 -0.1543
   14DG      H8  307   4.770   4.276   2.215 -0.3542  0.0388  0.8589
   14DG      O9  308   4.304   4.581   2.541  0.5382 -0.2530 -0.3446
   14DG     O10  309   4.625   4.410   2.270  0.0685 -0.0635  0.8500
   14DG     C11  310   4.397   4.654   2.616  0.0536  0.0993 -0.5237
   14DG     C12  311   4.730   4.507   2.291  0.0354 -0.3909 -0.6468
   14DG     H13  312   4.433   4.587   2.694  0.5397  0.5637 -0.3448
   14DG     H14  313   4.353   4.742   2.663 -1.1087 -0.7146 -0.0490
   14DG     H15  314   4.785   4.537   2.202  0.6178 -1.4029 -0.6501
   14DG     H16  315   4.816   4.473   2.349  0.1806  1.1489  0.0736
   14DG     C17  316   4.508   4.704   2.528  0.3762 -0.5611 -0.4870
   14DG     C18  317   4.657   4.630   2.355 -0.3730  0.1493  0.2346
   14DG     O19  318   4.563   4.597   2.455 -0.5284 -0.6407  0.0118
   14DG     H20  319   4.587   4.739   2.594  0.5444  2.7279 -2.2232
   14DG     H21  320   4.485   4.797   2.475 -0.8718 -0.6883 -0.1979
   14DG     H22  321   4.740   4.692   2.388 -0.4564  1.7546 -2.2458
   14DG     H23  322   4.603   4.669   2.269 -0.4305 -0.6272 -0.0858
   15DG      C1  323   4.477   0.488   4.532 -0.7207 -0.9594  0.8477
   15DG      C2  324   5.038   0.676   4.182 -0.6527  0.1512 -0.5191
   15DG      H3  325   4.421   0.489   4.626 -1.9599  1.3951  0.1685
   15DG      H4  326   4.534   0.399   4.507  0.6998  0.9317 -3.6104
   15DG      H5  327   4.397   0.494   4.458 -1.2109 -0.7487  1.3798
   15DG      H6  328   5.077   0.580   4.215 -1.0535 -0.4853 -1.8303
   15DG      H7  329   5.009   0.653   4.079 -0.8679 -2.0261 -0.0288
   15DG      H8  330   5.110   0.756   4.168  0.6599 -1.2961 -2.5577
   15DG      O9  331   4.572   0.600   4.518 -0.1658 -0.0200  0.0233
   15DG     O10  332   4.925   0.712   4.254  0.3338 -0.0852 -0.1482
   15DG     C11  333   4.523   0.728   4.544 -0.6247  0.1176  1.0540
   15DG     C12  334   4.876   0.841   4.221 -0.3170  0.4729 -0.2872
   15DG     H13  335   4.493   0.747   4.647 -1.6292 -0.7303  0.9393
   15DG     H14  336   4.430   0.751   4.492 -0.3626  0.6934  0.8395
   15DG     H15  337   4.812   0.840   4.133 -0.4703  1.1138 -0.1931
   15DG     H16  338   4.954   0.918   4.217  0.8174 -0.4411  2.0082
   15DG     C17  339   4.631   0.824   4.508 -0.1714 -0.6420 -0.3742
   15DG     C18  340   4.792   0.885   4.341  0.7134  0.6096  0.1182
   15DG     O19  341   4.684   0.802   4.375  0.1188 -0.0712  0.3311
   15DG     H20  342   4.715   0.805   4.574  0.2060  0.9061 -0.3789
   15DG     H21  343   4.592   0.924   4.524 -2.8812 -1.8129  1.1259
   15DG     H22  344   4.854   0.881   4.430 -1.3863  2.3052  1.7544
   15DG     H23  345   4.754   0.987   4.335 -0.8101  0.0378 -0.5228
   16DG      C1  346   4.895   3.487   2.478  0.4294  0.3781  0.1874
   16DG      C2  347   4.732   3.860   2.950 -0.0860  0.1020 -0.1373
   16DG      H3  348   4.886   3.580   2.421 -0.9907  0.4310  0.4593
   16DG      H4  349   4.860   3.396   2.430 -0.0786 -1.9865  4.5243
   16DG      H5  350   4.997   3.460   2.508  0.2946 -0.3020  0.0375
   16DG      H6  351   4.808   3.785   2.973  0.7312 -0.4547 -3.9589
   16DG      H7  352   4.785   3.948   2.915  0.9792  0.5747  2.4272
   16DG      H8  353   4.658   3.889   3.024  0.4971  0.6050  0.2572
   16DG      O9  354   4.837   3.501   2.608  0.2338  0.1513  0.0844
   16DG     O10  355   4.660   3.801   2.844 -0.9764  0.1982  0.2356
   16DG     C11  356   4.862   3.392   2.701  0.4480  0.1281 -0.3216
   16DG     C12  357   4.571   3.702   2.901  0.1132 -0.3414  0.4390
   16DG     H13  358   4.963   3.353   2.686 -0.6677 -2.9529 -0.6766
   16DG     H14  359   4.787   3.314   2.688 -0.8808  1.1513  0.9469
   16DG     H15  360   4.496   3.676   2.826  1.0800  0.1588 -0.7382
   16DG     H16  361   4.512   3.742   2.983  0.4488 -0.9042  0.9551
   16DG     C17  362   4.829   3.446   2.839  0.3482 -0.7055  0.3314
   16DG     C18  363   4.640   3.574   2.933  0.0235 -0.5276  0.0224
   16DG     O19  364   4.722   3.545   2.822  0.5472  0.2271  0.2910
   16DG     H20  365   4.909   3.489   2.900 -1.2403  0.2643  1.7897
   16DG     H21  366   4.782   3.360   2.887  0.8130 -2.8342 -2.7058
   16DG     H22  367   4.695   3.574   3.027 -1.5635  2.9299  1.1351
   16DG     H23  368   4.567   3.494   2.944 -1.4346  0.5162 -1.5477
   17DG      C1  369   5.301   0.628   1.440 -0.3347  0.0188 -0.6076
   17DG      C2  370   5.402   0.477   0.782  0.7986 -0.5229 -0.0279
   17DG      H3  371   5.326   0.526   1.470  0.5775 -0.0927 -1.7003
   17DG      H4  372   5.195   0.638   1.420 -0.2580 -0.8161 -1.5094
   17DG      H5  373   5.317   0.684   1.533 -1.0827 -2.1224  0.9061
   17DG      H6  374   5.449   0.380   0.800 -0.2767 -0.4336  4.3623
   17DG      H7  375   5.297   0.463   0.756  0.8506 -0.4394 -0.2883
   17DG      H8  376   5.447   0.519   0.691 -0.5526  1.2950  0.1061
   17DG      O9  377   5.382   0.681   1.338  0.0719  0.0440 -0.3900
   17DG     O10  378   5.433   0.572   0.883  0.1171  0.0925 -0.0869
   17DG     C11  379   5.358   0.816   1.309 -1.1733  0.9435 -0.3517
   17DG     C12  380   5.403   0.710   0.839 -0.7634  0.9923  0.4739
   17DG     H13  381   5.384   0.888   1.387  3.4458  1.5122 -2.0928
   17DG     H14  382   5.250   0.824   1.296 -1.1428  1.4106 -0.3500
   17DG     H15  383   5.300   0.726   0.806 -1.3365 -1.2096  0.9809
   17DG     H16  384   5.464   0.732   0.752 -0.1061  0.3151  0.7560
   17DG     C17  385   5.435   0.860   1.184 -0.3111 -0.0031  0.2078
   17DG     C18  386   5.449   0.813   0.942  0.1439  0.2117  0.1195
   17DG     O19  387   5.397   0.776   1.074 -0.3565 -0.1389  0.2684
   17DG     H20  388   5.540   0.838   1.202 -0.1276  1.7186  1.5171
   17DG     H21  389   5.417   0.963   1.151 -1.4929  0.6224  2.5599
   17DG     H22  390   5.557   0.820   0.941  0.0761  1.5020  0.3288
   17DG     H23  391   5.403   0.904   0.904  1.1132 -0.0546 -1.7869
   18DG      C1  392   5.101   2.314   4.331 -0.3899 -0.2042 -0.1098
   18DG      C2  393   4.884   2.875   4.545 -0.5226 -0.0217  0.5422
   18DG      H3  394   5.109   2.228   4.264  1.0320  0.6937 -1.1518
   18DG      H4  395   5.120   2.285   4.434  2.7399  0.7783 -0.3150
   18DG      H5  396   5.171   2.395   4.308 -0.0060 -0.6793 -0.6447
   18DG      H6  397   4.818   2.962   4.553 -2.2463 -0.8945 -2.4139
   18DG      H7  398   4.893   2.835   4.646 -2.7962  0.8985  1.1813
   18DG      H8  399   4.983   2.901   4.509 -0.7226 -0.9942 -0.7840
   18DG      O9  400   4.981   2.391   4.326 -0.1704 -0.7056  0.6926
   18DG     O10  401   4.836   2.778   4.456  0.3993  0.1214 -0.2268
   18DG     C11  402   4.869   2.321   4.357 -0.4241  0.4086  0.4747
   18DG     C12  403   4.708   2.746   4.501  0.8663  0.0765 -0.2755
   18DG     H13  404   4.879   2.284   4.459  0.2288  1.8605  0.9575
   18DG     H14  405   4.855   2.245   4.280 -0.0204  0.6233  0.1863
   18DG     H15  406   4.642   2.823   4.461 -0.7978  0.5304  3.0030
   18DG     H16  407   4.703   2.732   4.609  0.6131 -0.8213 -0.3952
   18DG     C17  408   4.752   2.413   4.341 -0.2241  0.6110 -0.2992
   18DG     C18  409   4.673   2.621   4.429  0.6594  0.5130  1.0164
   18DG     O19  410   4.779   2.537   4.412 -0.6499  0.1382 -0.1519
   18DG     H20  411   4.663   2.357   4.372  1.9164 -1.8215  2.0018
   18DG     H21  412   4.748   2.432   4.234  4.1670  0.5248 -0.6618
   18DG     H22  413   4.598   2.560   4.480  1.8128 -2.2401 -0.3381
   18DG     H23  414   4.636   2.638   4.328 -2.0095 -0.7515  1.7059
   19DG      C1  415   4.870   2.336   0.782 -0.3766 -0.0169 -0.2503
   19DG      C2  416   4.786   3.039   1.216 -0.4271 -0.0935  0.1291
   19DG      H3  417   4.779   2.383   0.746 -2.3039 -3.2616  0.0315
   19DG      H4  418   4.841   2.231   0.787  0.1240 -0.1155  1.0520
   19DG      H5  419   4.955   2.362   0.719 -0.5448  1.2851  0.0215
   19DG      H6  420   4.757   3.062   1.113 -0.8634  0.1638  0.3065
   19DG      H7  421   4.689   3.021   1.262  0.0491  0.5042  1.4197
   19DG      H8  422   4.845   3.120   1.260 -0.5317 -0.2923  0.6400
   19DG      O9  423   4.896   2.360   0.922  0.1085 -0.4355  0.0723
   19DG     O10  424   4.859   2.921   1.208 -0.3247 -0.5721  0.0238
   19DG     C11  425   4.922   2.496   0.949 -0.7179 -0.3372 -0.3000
   19DG     C12  426   4.801   2.816   1.284  0.2323 -0.2746  0.0045
   19DG     H13  427   4.849   2.565   0.908 -0.2723 -0.1786 -0.8304
   19DG     H14  428   5.019   2.534   0.917 -1.1794  2.3662  1.2024
   19DG     H15  429   4.699   2.798   1.249  0.4220 -1.0557 -0.1820
   19DG     H16  430   4.794   2.844   1.389 -0.1862 -1.3972  0.2928
   19DG     C17  431   4.929   2.526   1.104  0.6796  0.4086  1.0374
   19DG     C18  432   4.874   2.688   1.266 -0.2751 -0.0189 -0.4843
   19DG     O19  433   4.871   2.652   1.129  0.6472  0.9105  0.4107
   19DG     H20  434   5.033   2.536   1.135  1.1000 -2.2663  0.7635
   19DG     H21  435   4.873   2.453   1.162  2.5924 -1.4989  0.6025
   19DG     H22  436   4.974   2.689   1.309 -0.3840 -0.5301 -0.1995
   19DG     H23  437   4.821   2.607   1.318 -1.9365  1.5609  0.4011
   20DG      C1  438   2.116   1.041   3.122 -0.5506  0.5228 -0.2980
   20DG      C2  439   2.646   1.387   2.835 -0.1606  0.1222 -1.3423
   20DG      H3  440   2.155   0.948   3.080 -0.7171  0.0140  0.6582
   20DG      H4  441   2.008   1.031   3.130 -0.5399  1.1259  0.6961
   20DG      H5  442   2.166   1.033   3.218 -0.4066 -1.6338 -0.5017
   20DG      H6  443   2.690   1.296   2.796 -1.5265 -1.1472 -0.0242
   20DG      H7  444   2.678   1.466   2.767 -0.5238  1.0077 -0.5084
   20DG      H8  445   2.695   1.399   2.931 -3.0362  1.3411  0.1113
   20DG      O9  446   2.148   1.151   3.036 -0.7685  0.1446 -0.1240
   20DG     O10  447   2.503   1.398   2.854  0.1188  0.4724  0.1836
   20DG     C11  448   2.056   1.164   2.926 -0.6075  0.9457  0.5631
   20DG     C12  449   2.427   1.381   2.733 -0.8604 -0.5733  0.6722
   20DG     H13  450   1.951   1.173   2.954 -1.3065 -1.3604 -1.0848
   20DG     H14  451   2.051   1.068   2.877 -0.4190  1.1560  0.1280
   20DG     H15  452   2.445   1.282   2.692  1.5245  0.0659  0.0361
   20DG     H16  453   2.462   1.455   2.663  2.8147 -2.2251  0.5449
   20DG     C17  454   2.086   1.284   2.843 -0.1584 -0.0240 -0.3901
   20DG     C18  455   2.276   1.400   2.755 -0.3783  0.7580  0.6100
   20DG     O19  456   2.218   1.276   2.806 -1.0300 -0.2947  0.1343
   20DG     H20  457   2.071   1.380   2.893 -1.1318 -1.7524  2.9401
   20DG     H21  458   2.032   1.281   2.749  1.4508 -0.9722 -1.3359
   20DG     H22  459   2.262   1.493   2.810  1.1493  0.8408  0.9246
   20DG     H23  460   2.225   1.427   2.663 -1.3059  1.7751  1.4028
   21DG      C1  461   3.924   5.301   2.359 -0.2727  0.1232  0.6155
   21DG      C2  462   3.885   4.683   2.184 -0.8865 -0.9257  0.3311
   21DG      H3  463   3.893   5.267   2.458  0.7585 -2.0566  0.2475
   21DG      H4  464   3.904   5.406   2.340 -0.3942  0.5632  2.9035
   21DG      H5  465   4.029   5.272   2.365 -0.9204 -3.3931 -1.7565
   21DG      H6  466   3.831   4.709   2.275 -1.4612  1.2949 -0.5852
   21DG      H7  467   3.825   4.608   2.133 -0.4017 -0.9139 -0.2644
   21DG      H8  468   3.984   4.644   2.210 -1.6672 -1.9283  2.0446
   21DG      O9  469   3.869   5.229   2.251 -0.3920 -0.0088 -0.8400
   21DG     O10  470   3.878   4.811   2.114  0.0469 -0.1545  0.0611
   21DG     C11  471   3.746   5.272   2.202  0.5084 -0.1025 -0.0736
   21DG     C12  472   3.768   4.822   2.020  0.4846 -0.5267 -0.5833
   21DG     H13  473   3.759   5.380   2.188 -0.4847  0.2414  1.4614
   21DG     H14  474   3.676   5.244   2.280  0.8075  0.4280  0.3932
   21DG     H15  475   3.676   4.798   2.072 -0.1866 -0.8606 -1.8734
   21DG     H16  476   3.788   4.757   1.935 -0.3736 -0.0854 -1.1427
   21DG     C17  477   3.732   5.195   2.064 -0.0821 -0.7119  0.2530
   21DG     C18  478   3.750   4.975   1.977 -0.0652  0.7566 -0.4452
   21DG     O19  479   3.755   5.058   2.086  0.1770  0.0200  0.7098
   21DG     H20  480   3.816   5.225   2.001  0.1240 -0.3913  0.6756
   21DG     H21  481   3.642   5.217   2.007  0.2225  2.9782  0.9530
   21DG     H22  482   3.841   4.997   1.921  0.2841 -1.9896 -1.0683
   21DG     H23  483   3.667   4.996   1.910  0.0966 -1.4519 -1.3891
   22DG      C1  484   2.746   3.012   1.689 -0.1814 -0.2594  0.2608
   22DG      C2  485   3.208   2.567   1.547  0.6115  0.4828  0.5933
   22DG      H3  486   2.727   2.938   1.767  0.1933  0.6780  1.2788
   22DG      H4  487   2.697   2.973   1.600  1.5076  0.4513 -1.0386
   22DG      H5  488   2.717   3.109   1.729  0.4279 -0.6326  1.6848
   22DG      H6  489   3.134   2.537   1.474  0.2666  0.8344  0.7944
   22DG      H7  490   3.304   2.526   1.515 -0.0464 -0.9344  0.3752
   22DG      H8  491   3.184   2.502   1.631  1.1934 -2.4101 -1.3706
   22DG      O9  492   2.881   3.000   1.648 -0.1533 -0.5121 -0.2027
   22DG     O10  493   3.210   2.711   1.563  0.3058 -0.0522  0.1055
   22DG     C11  494   2.908   3.079   1.527 -0.4910  0.0664  0.5750
   22DG     C12  495   3.258   2.769   1.437  0.2081 -1.0114 -0.7809
   22DG     H13  496   2.882   3.183   1.546  0.4461  0.8035 -1.7619
   22DG     H14  497   2.844   3.059   1.441  0.4938  1.3347 -0.5053
   22DG     H15  498   3.200   2.736   1.351  0.1190  0.4700 -1.3224
   22DG     H16  499   3.363   2.751   1.416  0.7715 -1.8775  2.2832
   22DG     C17  500   3.053   3.068   1.489 -0.1767 -0.1602 -0.3317
   22DG     C18  501   3.229   2.921   1.443  0.1247 -0.1868 -0.0612
   22DG     O19  502   3.095   2.931   1.487  0.0225 -0.3936  0.1250
   22DG     H20  503   3.111   3.101   1.576 -1.2551 -1.3118  0.8669
   22DG     H21  504   3.072   3.128   1.401 -0.3116  1.5099  0.7426
   22DG     H22  505   3.304   2.970   1.505  0.1894 -0.5376  0.1378
   22DG     H23  506   3.236   2.973   1.347 -3.0927 -2.9506 -2.0129
   23DG      C1  507   5.231   4.949   4.315  0.4165 -0.5560 -0.0646
   23DG      C2  508   5.674   4.879   4.827  0.4691  0.4434 -0.0554
   23DG      H3  509   5.195   5.022   4.388 -1.6329 -0.6467 -0.9049
   23DG      H4  510   5.175   4.859   4.337 -0.1566 -0.4517 -1.0387
   23DG      H5  511   5.203   4.979   4.214 -1.7455  0.5290  0.7891
   23DG      H6  512   5.623   4.791   4.866 -3.0383  2.2394 -0.2415
   23DG      H7  513   5.768   4.889   4.882  0.0612  1.2504  0.5147
   23DG      H8  514   5.613   4.963   4.861  0.7694  0.6334  0.0164
   23DG      O9  515   5.362   4.938   4.351 -0.2384 -0.3627 -0.2253
   23DG     O10  516   5.691   4.872   4.680 -0.1229 -0.1066  0.1325
   23DG     C11  517   5.441   4.847   4.272  0.1521  0.4177  0.1327
   23DG     C12  518   5.760   4.761   4.628  0.3340 -0.1430  0.5006
   23DG     H13  519   5.436   4.879   4.168  1.2043 -0.8481 -0.3330
   23DG     H14  520   5.403   4.745   4.265  1.2465  0.0876 -1.9063
   23DG     H15  521   5.714   4.668   4.661  0.2531  0.0049  0.8116
   23DG     H16  522   5.860   4.745   4.669  0.1955 -1.5100  0.3578
   23DG     C17  523   5.585   4.832   4.307 -0.2384 -0.5955  0.2043
   23DG     C18  524   5.742   4.778   4.475 -0.5301 -0.5842 -0.0828
   23DG     O19  525   5.601   4.786   4.439  0.1514 -0.2695  0.2084
   23DG     H20  526   5.621   4.934   4.297 -2.5840  0.1266 -1.8542
   23DG     H21  527   5.636   4.763   4.240 -1.9528 -4.1638  2.2783
   23DG     H22  528   5.788   4.874   4.451  0.6219 -0.9530  0.6111
   23DG     H23  529   5.790   4.698   4.420  1.0695 -0.4001  0.9781
   24DG      C1  530   1.447   1.589   3.090  0.3855 -0.5117 -0.2354
   24DG      C2  531   1.802   2.094   3.362 -0.6492 -0.0718  0.2091
   24DG      H3  532   1.432   1.544   2.992  0.9134 -1.3756  0.0659
   24DG      H4  533   1.354   1.586   3.146  0.3544 -0.7472 -0.2967
   24DG      H5  534   1.516   1.527   3.147 -0.9745 -0.9099  1.0371
   24DG      H6  535   1.822   2.017   3.437  1.8402 -1.5415 -1.7819
   24DG      H7  536   1.889   2.097   3.296  1.2797 -2.2991  2.4722
   24DG      H8  537   1.789   2.192   3.408  0.8643  0.1196  0.3040
   24DG      O9  538   1.483   1.727   3.082  0.1300  0.1785 -0.3778
   24DG     O10  539   1.695   2.079   3.275  0.4840 -0.1760 -0.3831
   24DG     C11  540   1.414   1.810   2.991  0.3126  0.2218 -0.1162
   24DG     C12  541   1.673   2.179   3.175 -0.3463 -0.3929  0.4388
   24DG     H13  542   1.316   1.839   3.030 -0.4558 -1.6330 -0.5550
   24DG     H14  543   1.392   1.753   2.901  2.3724  0.2265 -0.6749
   24DG     H15  544   1.766   2.233   3.156 -0.5931 -0.2375 -0.3597
   24DG     H16  545   1.604   2.258   3.204  1.4540  1.4229 -0.0157
   24DG     C17  546   1.504   1.927   2.959 -0.0155 -0.3853 -0.3279
   24DG     C18  547   1.608   2.114   3.051  0.6450  0.1746 -0.1480
   24DG     O19  548   1.528   1.999   3.082  0.6249  0.1590 -0.3944
   24DG     H20  549   1.455   1.998   2.892 -1.9505  0.7572  2.1542
   24DG     H21  550   1.602   1.899   2.918  0.1127 -0.4157 -0.0010
   24DG     H22  551   1.537   2.186   3.009  0.2896  0.6411  1.1889
   24DG     H23  552   1.684   2.094   2.976  0.0228 -0.1747 -0.6971
   25DG      C1  553   0.784   2.711   0.566 -0.1264  0.1273 -0.0145
   25DG      C2  554   0.842   3.461   0.585  0.5767  0.9223 -0.6935
   25DG      H3  555   0.785   2.619   0.625  0.4430  0.8595  1.1630
   25DG      H4  556   0.838   2.675   0.479  2.1995  2.0673  0.5065
   25DG      H5  557   0.682   2.730   0.534  0.2262  0.8591 -0.7528
   25DG      H6  558   0.871   3.418   0.490  0.2290  1.3292 -0.9887
   25DG      H7  559   0.741   3.502   0.592 -0.4046 -1.3219 -0.8936
   25DG      H8  560   0.907   3.548   0.590 -0.7533  1.9850  4.3000
   25DG      O9  561   0.864   2.817   0.628  0.5402  0.0570  0.7160
   25DG     O10  562   0.868   3.362   0.686 -0.5632 -0.6470  0.0226
   25DG     C11  563   0.831   2.857   0.763  0.8515  0.1700 -0.5716
   25DG     C12  564   0.997   3.299   0.673  0.2377  0.0814 -0.5762
   25DG     H13  565   0.831   2.763   0.817  2.4020 -0.2424 -1.2246
   25DG     H14  566   0.729   2.893   0.779  0.9415  0.4493 -0.6067
   25DG     H15  567   1.074   3.372   0.697  1.2387 -1.2168  0.2694
   25DG     H16  568   1.020   3.271   0.570  1.2054  0.6014 -0.5119
   25DG     C17  569   0.931   2.959   0.818 -0.4291  0.5272  0.3317
   25DG     C18  570   1.009   3.177   0.766 -0.3064  0.3385  0.0464
   25DG     O19  571   0.915   3.074   0.732 -0.2203  0.0528 -0.3863
   25DG     H20  572   1.030   2.915   0.829 -0.0915  1.2245  0.1192
   25DG     H21  573   0.887   2.981   0.916 -2.1315 -1.4769  0.0816
   25DG     H22  574   1.111   3.139   0.764 -0.1916  0.6135  0.5398
   25DG     H23  575   0.999   3.218   0.866 -0.2864 -1.5078  0.8379
   26DG      C1  576   1.332   2.205   4.737 -0.8451  0.5081  0.4669
   26DG      C2  577   1.930   2.365   4.488 -0.0653 -0.0654 -0.1791
   26DG      H3  578   1.225   2.228   4.730 -1.0609 -0.2034  1.1792
   26DG      H4  579   1.369   2.251   4.828  0.0162  2.4025 -0.7959
   26DG      H5  580   1.347   2.098   4.752  1.1562  1.1281  4.2692
   26DG      H6  581   1.978   2.298   4.559 -1.7888  1.8275  3.0071
   26DG      H7  582   1.997   2.375   4.403  0.2584  1.2705  0.2077
   26DG      H8  583   1.913   2.465   4.528  0.8152 -0.1386  0.4039
   26DG      O9  584   1.410   2.242   4.626  0.1646  0.4262 -0.0862
   26DG     O10  585   1.808   2.302   4.450 -0.0558 -0.5695 -0.1405
   26DG     C11  586   1.347   2.275   4.503  0.0658 -0.2495  0.0849
   26DG     C12  587   1.756   2.356   4.332 -0.5688  0.0522  0.1467
   26DG     H13  588   1.266   2.340   4.533 -2.9356 -3.6517 -0.0233
   26DG     H14  589   1.298   2.181   4.476  0.2606 -0.6990  1.2327
   26DG     H15  590   1.815   2.356   4.240 -1.7028 -1.0861 -0.6157
   26DG     H16  591   1.737   2.463   4.345  2.2582  0.4225  2.3953
   26DG     C17  592   1.445   2.334   4.401  0.1837 -0.5637  0.3619
   26DG     C18  593   1.639   2.272   4.282  0.3448  0.6792  0.3883
   26DG     O19  594   1.548   2.239   4.382 -0.2639  0.6726  0.2722
   26DG     H20  595   1.483   2.426   4.445  2.6469 -0.9595 -0.7467
   26DG     H21  596   1.392   2.369   4.313 -1.0525  0.8235  1.6052
   26DG     H22  597   1.587   2.320   4.199  0.6138  1.5691  0.7231
   26DG     H23  598   1.674   2.176   4.245 -0.3293 -0.2325  1.9934
   27DG      C1  599   0.881   3.659   3.103  0.1761  0.1055 -0.0070
   27DG      C2  600   1.262   3.899   2.617 -0.5738 -0.0774  0.1490
   27DG      H3  601   0.909   3.639   3.206  1.9281  3.8470  0.3799
   27DG      H4  602   0.918   3.578   3.040 -1.1138 -1.5756  1.2963
   27DG      H5  603   0.774   3.640   3.117  0.3035  0.3098  1.3570
   27DG      H6  604   1.274   3.960   2.527 -1.6659 -1.5899 -1.0836
   27DG      H7  605   1.354   3.895   2.675 -1.1121 -0.3935  1.0087
   27DG      H8  606   1.257   3.794   2.588 -0.5744 -0.5811  1.8785
   27DG      O9  607   0.921   3.781   3.044 -0.1964  0.0486 -0.1990
   27DG     O10  608   1.143   3.927   2.689 -0.1073 -0.3971 -0.2973
   27DG     C11  609   0.836   3.887   3.064 -0.0677  0.5324  0.3281
   27DG     C12  610   1.129   4.061   2.723  0.3614  0.0800  0.2344
   27DG     H13  611   0.885   3.934   3.149 -0.3754 -0.1561  0.8935
   27DG     H14  612   0.734   3.857   3.088  0.0352 -1.0639 -1.0313
   27DG     H15  613   1.140   4.120   2.631 -0.9563  1.8037  1.1243
   27DG     H16  614   1.208   4.089   2.793  0.4522 -1.7565  0.9075
   27DG     C17  615   0.846   3.986   2.949 -0.5992  0.0703  0.4751
   27DG     C18  616   1.000   4.084   2.804 -0.5872 -0.0118 -0.1457
   27DG     O19  617   0.980   3.985   2.897  0.6055 -0.4110 -0.0974
   27DG     H20  618   0.809   4.076   2.998 -0.5582 -0.8257  2.2550
   27DG     H21  619   0.769   3.956   2.877 -1.9228 -0.4815  2.0486
   27DG     H22  620   1.004   4.185   2.844  0.4668  0.5385 -1.5559
   27DG     H23  621   0.920   4.095   2.731  0.4452  0.9377 -1.1702
   28DG      C1  622   2.673   1.690   1.489 -0.0880  0.4058 -1.0728
   28DG      C2  623   2.987   2.249   1.289 -0.4172 -0.1302  0.2709
   28DG      H3  624   2.581   1.737   1.454 -0.1452  0.0941 -1.3439
   28DG      H4  625   2.664   1.624   1.575 -3.4454  0.1419 -1.4688
   28DG      H5  626   2.719   1.638   1.405  0.8904  1.4806 -1.2237
   28DG      H6  627   3.069   2.320   1.282  0.0228 -0.6881 -0.4307
   28DG      H7  628   3.008   2.196   1.196 -0.2840  1.2212 -0.4955
   28DG      H8  629   2.884   2.281   1.275  0.3968  1.6340 -2.4233
   28DG      O9  630   2.769   1.785   1.530  0.1226 -1.0883 -0.8951
   28DG     O10  631   2.990   2.173   1.411  0.2512  0.1347 -0.3491
   28DG     C11  632   2.893   1.740   1.588 -0.6732  0.5883 -0.3479
   28DG     C12  633   3.110   2.138   1.454 -0.2403 -0.2986  0.0232
   28DG     H13  634   2.958   1.695   1.513  0.2536  0.9856  0.1966
   28DG     H14  635   2.881   1.669   1.669  1.3846  0.0484 -0.4754
   28DG     H15  636   3.167   2.229   1.470  3.1544 -2.4241  1.0898
   28DG     H16  637   3.161   2.081   1.377  0.0134  1.4191 -1.1214
   28DG     C17  638   2.969   1.859   1.648  0.4374  0.4790 -0.0424
   28DG     C18  639   3.084   2.055   1.583  0.0848  0.9300 -0.5159
   28DG     O19  640   3.001   1.946   1.550  0.1555 -0.2635 -0.6107
   28DG     H20  641   3.054   1.827   1.708 -0.3534 -1.5742  0.0668
   28DG     H21  642   2.903   1.896   1.726  0.3315 -1.7682  1.0311
   28DG     H22  643   3.177   2.011   1.619 -0.1627  2.3560  2.1643
   28DG     H23  644   3.035   2.109   1.664 -2.2359  0.5950 -1.6367
   29DG      C1  645   4.313   4.231   2.800  0.9529  0.1385 -0.2607
   29DG      C2  646   4.352   4.528   2.150 -0.2131  0.6031  0.8254
   29DG      H3  647   4.211   4.217   2.836  0.4257  1.2573 -1.2499
   29DG      H4  648   4.361   4.323   2.835  0.5140  0.0291  0.6517
   29DG      H5  649   4.377   4.152   2.841  0.5468  0.3389  0.8022
   29DG      H6  650   4.407   4.606   2.204  1.4467  0.1966 -0.2002
   29DG      H7  651   4.424   4.490   2.078 -1.1320 -1.5101  0.9541
   29DG      H8  652   4.281   4.576   2.082 -0.4753 -0.2862  0.4557
   29DG      O9  653   4.324   4.217   2.660 -0.1666  0.4266  0.1733
   29DG     O10  654   4.289   4.434   2.240 -0.0560  0.2058  0.4962
   29DG     C11  655   4.247   4.115   2.604 -0.0212  0.2655  0.0645
   29DG     C12  656   4.230   4.320   2.171  0.3756 -0.0788 -0.1110
   29DG     H13  657   4.145   4.152   2.617  0.1605  0.7791  0.0430
   29DG     H14  658   4.260   4.017   2.651 -1.9823 -0.9286 -1.7138
   29DG     H15  659   4.253   4.315   2.064 -0.4979 -1.9767 -0.2510
   29DG     H16  660   4.124   4.344   2.180  0.1837 -0.8477 -0.2834
   29DG     C17  661   4.288   4.104   2.454 -0.5883  0.2038 -0.5711
   29DG     C18  662   4.267   4.191   2.242  0.1442 -0.1430  0.3039
   29DG     O19  663   4.242   4.208   2.378 -0.3536  0.2922  0.0963
   29DG     H20  664   4.255   4.009   2.411 -1.4032  0.0429  0.3594
   29DG     H21  665   4.397   4.097   2.454 -0.5944 -1.1557  2.1603
   29DG     H22  666   4.216   4.101   2.208  0.0137 -0.5291  1.4705
   29DG     H23  667   4.366   4.160   2.209  1.0646  2.7772  0.0576
   30DG      C1  668   2.445   2.714   2.314  0.2957 -0.7172 -0.5671
   30DG      C2  669   2.052   2.901   1.802 -0.0756  0.0614  0.0961
   30DG      H3  670   2.536   2.669   2.354  0.5346 -0.5056 -0.8668
   30DG      H4  671   2.368   2.648   2.354 -2.2052  1.9424 -0.6750
   30DG      H5  672   2.437   2.816   2.353  0.6913 -0.9445  0.1208
   30DG      H6  673   2.034   2.947   1.705 -0.5412  0.0303  0.1699
   30DG      H7  674   2.000   2.806   1.810 -0.3564  0.3252  1.7455
   30DG      H8  675   2.012   2.972   1.875 -1.2288  0.6385 -1.0552
   30DG      O9  676   2.449   2.727   2.172 -0.2090  0.2161 -0.5627
   30DG     O10  677   2.191   2.877   1.830  0.5336  0.2155  0.1178
   30DG     C11  678   2.555   2.821   2.139 -0.6339  1.1338 -0.3515
   30DG     C12  679   2.275   2.980   1.791 -0.1089 -0.2080  0.4616
   30DG     H13  680   2.657   2.805   2.175 -0.6181  0.6794 -0.5926
   30DG     H14  681   2.523   2.915   2.185 -2.8190  1.5586 -2.5205
   30DG     H15  682   2.246   3.063   1.856 -0.2928  1.8813 -2.1192
   30DG     H16  683   2.270   3.023   1.691  2.1683 -0.2291  0.2744
   30DG     C17  684   2.559   2.849   1.993 -0.2614  0.2467 -0.0663
   30DG     C18  685   2.422   2.944   1.819  0.3535  0.0743 -0.6164
   30DG     O19  686   2.431   2.905   1.952  0.4021 -0.1395 -0.5818
   30DG     H20  687   2.588   2.755   1.945 -0.1975  0.5759 -0.6906
   30DG     H21  688   2.647   2.912   1.986 -0.7040  0.8361 -0.4979
   30DG     H22  689   2.457   2.873   1.745  2.0493  0.0922  0.1147
   30DG     H23  690   2.495   3.025   1.809  2.1805 -1.4731 -0.4387
   31DG      C1  691   2.602   1.056   1.325 -0.2368  0.4851 -0.0813
   31DG      C2  692   2.689   1.497   0.827 -0.2887 -0.1242  0.1767
   31DG      H3  693   2.551   1.015   1.412  0.5108  0.0915  0.1765
   31DG      H4  694   2.709   1.035   1.327 -0.3983 -0.3221  0.2403
   31DG      H5  695   2.559   1.006   1.238  1.2273 -2.6667  0.8826
   31DG      H6  696   2.772   1.563   0.853 -0.2504 -0.3895  0.7387
   31DG      H7  697   2.726   1.413   0.767  1.2414  1.2577 -0.9060
   31DG      H8  698   2.609   1.544   0.770 -0.5356 -0.2476  0.4207
   31DG      O9  699   2.578   1.196   1.333 -0.1123 -0.2394  0.0186
   31DG     O10  700   2.613   1.449   0.946  0.2848 -0.1334  0.0243
   31DG     C11  701   2.445   1.225   1.334  0.3256 -0.9013  0.2941
   31DG     C12  702   2.529   1.548   0.997  0.3030 -0.8478 -0.3648
   31DG     H13  703   2.391   1.206   1.427 -0.6457  0.5670  0.0683
   31DG     H14  704   2.386   1.181   1.254  0.0159 -0.8205  0.4774
   31DG     H15  705   2.445   1.539   0.929  0.0617 -1.1308 -0.0319
   31DG     H16  706   2.571   1.648   0.984 -2.8471  0.3299 -2.8445
   31DG     C17  707   2.453   1.380   1.314  0.2567 -0.8018  0.2351
   31DG     C18  708   2.493   1.539   1.141  0.4756 -0.4673 -0.1615
   31DG     O19  709   2.472   1.404   1.175 -0.1425  0.6263 -0.3827
   31DG     H20  710   2.530   1.421   1.378  0.4865  0.0537 -0.5687
   31DG     H21  711   2.363   1.437   1.339  1.0221  0.7889 -0.5267
   31DG     H22  712   2.577   1.573   1.203  0.5962 -3.0208  1.2118
   31DG     H23  713   2.403   1.592   1.170 -0.0149 -1.1170 -0.4810
   32DG      C1  714   3.731   4.011   2.994  0.3460 -0.7665  0.2982
   32DG      C2  715   3.419   4.542   3.202  0.0781 -0.0438 -0.1124
   32DG      H3  716   3.808   4.044   2.924  0.3456  1.3890  1.2252
   32DG      H4  717   3.732   3.902   2.984  2.0445 -0.7910  0.4634
   32DG      H5  718   3.763   4.029   3.097 -2.7697  1.9432  0.9208
   32DG      H6  719   3.406   4.638   3.153  0.9013 -0.3615 -0.9826
   32DG      H7  720   3.333   4.554   3.268 -0.9041 -1.7553 -0.9987
   32DG      H8  721   3.515   4.550   3.252 -0.4133  2.0226  0.6121
   32DG      O9  722   3.600   4.062   2.995 -0.3438  0.0503  0.1783
   32DG     O10  723   3.394   4.429   3.119  0.0866  0.1633 -0.0929
   32DG     C11  724   3.547   4.060   2.866 -0.2378 -0.0952 -0.1031
   32DG     C12  725   3.275   4.425   3.043  1.0007 -0.2143  0.1869
   32DG     H13  726   3.529   3.958   2.832 -0.8414 -0.0800  0.1534
   32DG     H14  727   3.599   4.123   2.794 -2.0575  0.8888 -0.6412
   32DG     H15  728   3.270   4.518   2.988  1.3203  0.1503  0.7693
   32DG     H16  729   3.195   4.419   3.118  0.8795 -5.4413  0.0592
   32DG     C17  730   3.405   4.119   2.877  0.0115  0.8642  0.9136
   32DG     C18  731   3.263   4.294   2.965  0.6134 -0.0600 -0.0565
   32DG     O19  732   3.393   4.255   2.928 -0.2228  0.4910 -0.3141
   32DG     H20  733   3.343   4.054   2.939  2.0676 -1.7929  0.3618
   32DG     H21  734   3.364   4.113   2.776 -0.5281  1.2677  1.1023
   32DG     H22  735   3.217   4.225   3.035 -2.0328  1.0258 -0.6022
   32DG     H23  736   3.189   4.299   2.885 -0.0311 -0.5437  0.5020
   33DG      C1  737   3.457   4.185   3.315  0.3118  0.1008 -0.0081
   33DG      C2  738   3.892   4.289   2.801  0.1373 -0.4266  0.5087
   33DG      H3  739   3.416   4.282   3.342  0.5451  0.4451 -0.8366
   33DG      H4  740   3.425   4.108   3.385  2.3645 -2.1045 -1.3364
   33DG      H5  741   3.423   4.154   3.216  0.7527  1.0031 -0.4572
   33DG      H6  742   3.994   4.309   2.767  0.6351 -1.6978  1.1703
   33DG      H7  743   3.883   4.191   2.755 -0.7914 -0.0232 -0.1954
   33DG      H8  744   3.819   4.353   2.753 -0.4377 -1.9501 -0.7140
   33DG      O9  745   3.591   4.184   3.298 -0.1631 -0.2876 -0.0538
   33DG     O10  746   3.883   4.280   2.939  0.5777 -0.4451  0.2824
   33DG     C11  747   3.672   4.238   3.396  0.6792 -0.4706 -0.5418
   33DG     C12  748   3.911   4.396   3.015  0.6137 -0.1251 -0.0083
   33DG     H13  749   3.683   4.181   3.489 -0.1341 -0.3763 -0.3796
   33DG     H14  750   3.643   4.340   3.420  0.7810 -0.9446  1.8617
   33DG     H15  751   3.829   4.466   3.030  0.0703 -0.7187 -0.1182
   33DG     H16  752   3.996   4.451   2.976  0.9257 -1.1010 -0.7442
   33DG     C17  753   3.811   4.244   3.342 -0.3414  0.1466  0.0087
   33DG     C18  754   3.934   4.344   3.161 -0.4577 -0.0902  0.2167
   33DG     O19  755   3.809   4.301   3.216  0.1727  0.1981 -0.0267
   33DG     H20  756   3.845   4.144   3.314  0.1369  0.4400 -0.4915
   33DG     H21  757   3.885   4.289   3.407 -1.8026  0.5919  1.4284
   33DG     H22  758   4.017   4.273   3.165  0.7133  1.2352  0.5945
   33DG     H23  759   3.970   4.425   3.226  3.1661 -0.7274 -0.7420
   34DG      C1  760   4.402   3.700   2.526  0.1313  0.0046 -0.1007
   34DG      C2  761   5.061   3.798   2.736  0.7540  0.1899  0.1724
   34DG      H3  762   4.381   3.595   2.550 -2.3759 -0.0419 -2.0577
   34DG      H4  763   4.330   3.724   2.447  0.1305 -0.1142 -0.1374
   34DG      H5  764   4.381   3.766   2.610 -1.6113  1.4497 -1.5720
   34DG      H6  765   5.068   3.903   2.764 -2.0964  0.9233 -1.4408
   34DG      H7  766   5.034   3.736   2.822 -0.7460  1.3395  0.5763
   34DG      H8  767   5.165   3.778   2.710  0.2467  0.0319 -1.8816
   34DG      O9  768   4.535   3.710   2.472  0.2529 -0.2693 -0.2148
   34DG     O10  769   4.983   3.789   2.615  0.3719 -0.4655 -0.2750
   34DG     C11  770   4.552   3.810   2.383 -0.0581  0.2020  0.7231
   34DG     C12  771   4.980   3.906   2.537  0.1659 -0.0051 -0.4242
   34DG     H13  772   4.525   3.907   2.426  1.9180  0.0071  2.6201
   34DG     H14  773   4.487   3.797   2.298  1.8659  1.0342 -0.9582
   34DG     H15  774   5.079   3.943   2.511  0.2145 -0.0528 -0.3089
   34DG     H16  775   4.925   3.978   2.598 -0.4286 -1.1840  0.4734
   34DG     C17  776   4.696   3.811   2.324  0.5329 -0.5881  0.4737
   34DG     C18  777   4.909   3.866   2.406  0.1704 -0.2152 -0.4918
   34DG     O19  778   4.780   3.816   2.438  0.1888  0.1848  0.8181
   34DG     H20  779   4.702   3.901   2.262 -2.5153 -1.8229 -1.9109
   34DG     H21  780   4.714   3.733   2.249 -0.9450  1.4598 -2.2152
   34DG     H22  781   4.897   3.954   2.344  1.2579  0.0666 -0.3120
   34DG     H23  782   4.975   3.793   2.358  0.7605  0.3224 -0.5050
   35DG      C1  783   4.445   2.233   4.915  0.4723 -0.0648 -0.2804
   35DG      C2  784   4.733   2.772   5.155  0.2581 -0.7744 -0.0407
   35DG      H3  785   4.536   2.191   4.958  0.1718  1.5507  2.1714
   35DG      H4  786   4.410   2.161   4.841 -0.7359 -0.4585  0.6391
   35DG      H5  787   4.372   2.240   4.996  0.0599  0.9778 -0.7326
   35DG      H6  788   4.807   2.750   5.231 -0.9349 -0.7440  1.1759
   35DG      H7  789   4.738   2.871   5.109  0.8624 -0.7724  0.0308
   35DG      H8  790   4.634   2.777   5.200 -0.8264 -2.0762 -2.1045
   35DG      O9  791   4.471   2.358   4.853  0.4966  0.6434 -0.0315
   35DG     O10  792   4.726   2.671   5.060 -0.1582  0.0359  0.4784
   35DG     C11  793   4.548   2.347   4.734  0.3053 -0.0433  0.1316
   35DG     C12  794   4.809   2.685   4.948  0.6815 -0.6735 -0.4158
   35DG     H13  795   4.512   2.417   4.658  1.2531 -0.6247 -0.8715
   35DG     H14  796   4.540   2.250   4.685  1.1221 -0.2690  0.4410
   35DG     H15  797   4.908   2.697   4.990 -0.4893 -0.6120  2.6316
   35DG     H16  798   4.783   2.760   4.874  0.6950 -1.3176 -1.0770
   35DG     C17  799   4.691   2.386   4.762  0.5310  0.2985 -0.5188
   35DG     C18  800   4.821   2.546   4.874 -0.5191 -0.4973 -0.0273
   35DG     O19  801   4.693   2.505   4.839  0.1332 -0.3759  0.4408
   35DG     H20  802   4.760   2.402   4.678  0.1178  0.5877 -0.8096
   35DG     H21  803   4.731   2.306   4.824 -0.9956  0.0787  0.2102
   35DG     H22  804   4.884   2.555   4.785 -0.6080  1.7922  0.1029
   35DG     H23  805   4.862   2.476   4.947 -1.8091  0.7782  2.0134
   36DG      C1  806   4.211   4.971   3.375 -0.2699  0.7625  0.0574
   36DG      C2  807   3.851   4.855   3.999 -0.2919 -0.3318 -0.1978
   36DG      H3  808   4.219   4.864   3.356 -1.0095  1.1415 -3.1044
   36DG      H4  809   4.309   5.009   3.346 -0.1553  0.4545  0.0431
   36DG      H5  810   4.139   5.018   3.307 -0.6259  2.3677  1.4728
   36DG      H6  811   3.803   4.776   3.942  1.1517  0.4907 -2.7097
   36DG      H7  812   3.874   4.812   4.097 -0.0782 -1.6701 -0.8192
   36DG      H8  813   3.803   4.948   4.032  1.2882  0.8624 -1.1292
   36DG      O9  814   4.186   5.000   3.515  0.7976 -0.1157 -0.2184
   36DG     O10  815   3.957   4.906   3.925 -0.0516  0.4514 -0.3140
   36DG     C11  816   4.159   5.138   3.543 -0.2997  0.3070 -0.7204
   36DG     C12  817   4.045   4.991   3.998 -0.0122  0.3571  0.9804
   36DG     H13  818   4.063   5.173   3.507 -1.3111 -1.8961 -0.3125
   36DG     H14  819   4.243   5.193   3.500 -0.5355  1.3553  0.1274
   36DG     H15  820   4.098   4.930   4.071 -0.6346 -1.7960 -0.2571
   36DG     H16  821   3.995   5.069   4.054  1.2433  1.0109  1.2166
   36DG     C17  822   4.168   5.169   3.693  0.1058  0.3000 -0.0184
   36DG     C18  823   4.147   5.054   3.900  0.6578  0.0309 -0.4868
   36DG     O19  824   4.089   5.086   3.770  0.5177  0.0830  0.3065
   36DG     H20  825   4.143   5.274   3.707 -0.0320  0.1198  1.1511
   36DG     H21  826   4.275   5.170   3.717 -0.0323  3.1525  0.8308
   36DG     H22  827   4.200   5.144   3.931  1.4715 -0.4076 -0.5777
   36DG     H23  828   4.233   4.989   3.884  1.4749  0.4906  1.6865
   37DG      C1  829   4.904   0.124   2.306 -0.3849  0.3600 -0.0312
   37DG      C2  830   4.686  -0.064   1.615 -0.9845  0.1836  0.0799
   37DG      H3  831   4.927   0.031   2.358 -2.3481  0.4765  1.0981
   37DG      H4  832   4.862   0.180   2.389 -0.0003 -0.6867  0.8998
   37DG      H5  833   4.990   0.182   2.271  1.4863 -3.6105 -2.9165
   37DG      H6  834   4.735   0.022   1.569  3.1550 -1.2744  1.3090
   37DG      H7  835   4.753  -0.149   1.602  2.0623  2.6612 -1.9292
   37DG      H8  836   4.598  -0.094   1.557 -0.1464 -0.9638 -0.6257
   37DG      O9  837   4.813   0.098   2.200 -0.0966 -0.2429  0.0988
   37DG     O10  838   4.655  -0.048   1.754  0.0068  0.2192  0.5922
   37DG     C11  839   4.678   0.098   2.250 -0.4613 -0.1960  0.0886
   37DG     C12  840   4.566   0.067   1.769  0.4844  0.2412 -0.3750
   37DG     H13  841   4.647   0.198   2.280  0.1582 -0.6134  2.3102
   37DG     H14  842   4.661   0.035   2.337  0.4400  0.1183  0.4975
   37DG     H15  843   4.473   0.053   1.715 -0.3039 -0.2728  1.0588
   37DG     H16  844   4.614   0.165   1.759  0.4818  0.2058 -0.7306
   37DG     C17  845   4.584   0.052   2.139 -0.4302 -0.3370  0.7168
   37DG     C18  846   4.511   0.059   1.914 -0.2036 -0.2353 -0.4551
   37DG     O19  847   4.602   0.110   2.009 -0.6640  0.3056  0.0139
   37DG     H20  848   4.480   0.060   2.172 -0.8879 -1.6349 -0.3044
   37DG     H21  849   4.614  -0.050   2.115  1.0935 -0.1156  1.5748
   37DG     H22  850   4.424   0.124   1.924 -0.4528 -0.8478  1.9130
   37DG     H23  851   4.481  -0.043   1.938  3.7524 -1.3883  0.3489
   38DG      C1  852   0.228   1.775   0.901 -0.3136  0.0558  0.1495
   38DG      C2  853  -0.395   1.605   0.615 -0.9736  0.7725 -0.2952
   38DG      H3  854   0.278   1.701   0.840  2.6037  1.1240  1.0329
   38DG      H4  855   0.240   1.727   0.999  0.2042 -2.7340 -1.1897
   38DG      H5  856   0.288   1.866   0.889 -3.6710  2.1902 -2.2383
   38DG      H6  857  -0.397   1.496   0.620 -1.9314  0.7753 -0.3728
   38DG      H7  858  -0.490   1.656   0.597 -0.2953  1.7315 -1.2745
   38DG      H8  859  -0.328   1.631   0.533  0.7906  0.1033  0.8965
   38DG      O9  860   0.093   1.793   0.878 -0.1205 -0.6870 -0.3264
   38DG     O10  861  -0.319   1.653   0.728 -0.0250  0.6111  0.5709
   38DG     C11  862   0.032   1.885   0.973  0.0320 -0.3326  0.3742
   38DG     C12  863  -0.362   1.621   0.857 -0.0462 -0.7466  0.1597
   38DG     H13  864   0.055   1.984   0.933  0.2500 -1.0131 -1.2600
   38DG     H14  865   0.078   1.873   1.071  1.9822 -1.7935 -0.6541
   38DG     H15  866  -0.349   1.514   0.877  0.0851 -0.6406  0.6535
   38DG     H16  867  -0.471   1.631   0.853  0.0164 -0.1175 -0.1679
   38DG     C17  868  -0.117   1.864   1.005  0.0168  0.9571  0.2494
   38DG     C18  869  -0.302   1.726   0.956 -0.8419  0.7479  0.1821
   38DG     O19  870  -0.170   1.766   0.917 -0.1780 -0.2520 -0.3254
   38DG     H20  871  -0.171   1.958   0.997  0.4582  1.1448 -0.6861
   38DG     H21  872  -0.123   1.827   1.107  2.5518  1.3023  0.5937
   38DG     H22  873  -0.372   1.809   0.964 -2.9347 -0.9543  0.6871
   38DG     H23  874  -0.308   1.689   1.058  1.0258 -0.6081 -0.1430
   39DG      C1  875   2.928   4.481   5.147  0.4021  0.1209 -0.6194
   39DG      C2  876   2.538   4.862   5.414 -0.4282  0.3042 -0.6030
   39DG      H3  877   2.869   4.394   5.118  0.5522 -0.6084  1.1573
   39DG      H4  878   3.027   4.442   5.127 -0.2300 -0.8070 -2.1206
   39DG      H5  879   2.905   4.568   5.085  1.1093  0.1573 -0.8350
   39DG      H6  880   2.519   4.889   5.310 -0.9575 -1.2376 -0.9317
   39DG      H7  881   2.485   4.769   5.438  1.0700 -0.0549  1.6069
   39DG      H8  882   2.487   4.940   5.471 -0.2284  0.0233 -0.0364
   39DG      O9  883   2.921   4.512   5.281  0.4400 -0.3504 -1.0097
   39DG     O10  884   2.673   4.852   5.447 -0.0866 -0.3270  0.8426
   39DG     C11  885   3.031   4.582   5.337 -0.1472  0.1897  0.0517
   39DG     C12  886   2.703   4.825   5.578 -0.2203  0.6074 -0.2355
   39DG     H13  887   3.041   4.670   5.274 -1.1965 -0.3800 -0.9550
   39DG     H14  888   3.122   4.523   5.326 -1.5849 -2.4428  1.1691
   39DG     H15  889   2.632   4.754   5.621 -0.5989  1.3272  0.3352
   39DG     H16  890   2.692   4.913   5.641 -0.6333 -2.7045  4.8987
   39DG     C17  891   3.007   4.637   5.482 -0.1617 -0.7504  0.4525
   39DG     C18  892   2.850   4.775   5.595  0.5269 -0.1903 -0.3916
   39DG     O19  893   2.880   4.701   5.480 -0.6806  0.3613 -0.2582
   39DG     H20  894   3.085   4.706   5.513 -0.0392 -0.7305  0.1072
   39DG     H21  895   2.994   4.558   5.556 -1.0995 -0.9166  0.1298
   39DG     H22  896   2.907   4.867   5.610  0.6192  0.1231 -2.3960
   39DG     H23  897   2.853   4.710   5.682  0.5219  0.3260 -0.0003
   40DG      C1  898   4.004   4.762   1.050  0.5160  0.2216  0.7266
   40DG      C2  899   4.022   4.770   1.749  1.0333  0.0542 -0.1558
   40DG      H3  900   3.899   4.780   1.029  0.6851  0.5188  0.1119
   40DG      H4  901   4.036   4.658   1.048 -0.8810 -0.2328  1.4028
   40DG      H5  902   4.064   4.802   0.968  0.9211  0.4562  1.1314
   40DG      H6  903   3.914   4.783   1.756  1.1936  1.9608 -0.6377
   40DG      H7  904   4.038   4.662   1.740 -1.2161 -0.4099  0.8048
   40DG      H8  905   4.063   4.807   1.843 -0.4103  1.2444  0.0363
   40DG      O9  906   4.037   4.829   1.180 -0.2281  0.2224  0.0541
   40DG     O10  907   4.069   4.832   1.628 -0.0195 -0.0864  0.1122
   40DG     C11  908   4.046   4.970   1.166  0.2588 -0.4923  0.5468
   40DG     C12  909   4.056   4.971   1.641 -0.0399 -0.8993  0.6275
   40DG     H13  910   3.941   5.001   1.169 -0.1348 -1.7959  2.0666
   40DG     H14  911   4.084   4.999   1.069  1.1734 -1.6014  0.5454
   40DG     H15  912   4.119   5.005   1.724  0.0870 -0.2109  0.2574
   40DG     H16  913   3.949   4.993   1.651  0.0552 -0.8205  1.6214
   40DG     C17  914   4.113   5.029   1.285 -0.1976 -0.2467 -0.3029
   40DG     C18  915   4.124   5.036   1.522  0.1313  0.4360 -0.6523
   40DG     O19  916   4.063   4.972   1.407  0.7490  0.3939  0.1519
   40DG     H20  917   4.094   5.136   1.287  1.6239  0.1338 -1.3625
   40DG     H21  918   4.218   5.006   1.267 -0.7386 -1.1388 -2.5201
   40DG     H22  919   4.102   5.143   1.518  1.8943  0.8753  0.2913
   40DG     H23  920   4.232   5.021   1.523 -0.2876 -4.0387 -1.4723
   41DG      C1  921   4.693   0.893   0.661 -0.1454 -0.0545  0.0038
   41DG      C2  922   4.377   1.460   0.595 -0.2745  0.3285  0.4142
   41DG      H3  923   4.775   0.964   0.663  0.4298 -0.7217  1.0917
   41DG      H4  924   4.678   0.865   0.557  2.1624 -2.6952  0.2761
   41DG      H5  925   4.741   0.807   0.707  0.7323 -0.0575 -0.8953
   41DG      H6  926   4.311   1.542   0.620 -1.1590 -0.1435 -0.3217
   41DG      H7  927   4.474   1.479   0.641 -0.3700  0.4810  0.5551
   41DG      H8  928   4.388   1.477   0.488  0.6069  0.1941  0.4772
   41DG      O9  929   4.589   0.963   0.726 -0.3248 -0.2375 -0.0545
   41DG     O10  930   4.324   1.332   0.630  0.2306 -0.1548 -0.3237
   41DG     C11  931   4.490   0.878   0.771  0.2992 -0.5481  0.3600
   41DG     C12  932   4.306   1.317   0.768 -0.1244 -0.2999 -0.9673
   41DG     H13  933   4.530   0.817   0.852  1.9740 -0.9534 -0.6977
   41DG     H14  934   4.457   0.804   0.698 -1.1083 -0.6409  1.0697
   41DG     H15  935   4.239   1.393   0.809  1.9889  0.3166  1.5990
   41DG     H16  936   4.398   1.344   0.820 -1.6149  1.3803  0.9776
   41DG     C17  937   4.377   0.961   0.822  0.1684 -0.2476  1.1329
   41DG     C18  938   4.265   1.175   0.812 -0.2332 -0.8078 -0.1500
   41DG     O19  939   4.348   1.082   0.742  0.2893 -0.2113  0.0284
   41DG     H20  940   4.417   0.995   0.917  1.6112 -2.3648  1.3477
   41DG     H21  941   4.288   0.901   0.842  0.5184 -0.9143  0.7171
   41DG     H22  942   4.282   1.170   0.920 -0.5448 -1.6354 -0.1357
   41DG     H23  943   4.159   1.162   0.794 -0.3887 -0.5598  0.5280
   42DG      C1  944   1.969   0.354   1.551  0.1682 -0.9886  0.5382
   42DG      C2  945   1.687   0.256   2.069 -0.1445 -0.0913  0.3398
   42DG      H3  946   2.052   0.348   1.622  1.8775  1.2917 -1.1098
   42DG      H4  947   1.913   0.443   1.580 -0.2682 -0.8686 -0.6166
   42DG      H5  948   2.001   0.380   1.450 -2.0780  1.6069  0.3727
   42DG      H6  949   1.701   0.233   2.175 -0.0523  2.1231  0.8730
   42DG      H7  950   1.671   0.364   2.071 -4.0358 -0.5113  0.8996
   42DG      H8  951   1.598   0.200   2.042  1.3694 -1.9074 -1.0787
   42DG      O9  952   1.885   0.239   1.548 -0.1085 -0.0469  0.6751
   42DG     O10  953   1.789   0.206   1.984  0.0926  0.1528  0.2027
   42DG     C11  954   1.961   0.114   1.543 -0.1601 -0.4923 -0.5214
   42DG     C12  955   1.822   0.068   2.009  0.0883 -0.6860 -0.0296
   42DG     H13  956   2.043   0.124   1.471 -0.5676 -0.5773 -0.9969
   42DG     H14  957   1.906   0.033   1.497 -0.1420  0.0755 -1.5736
   42DG     H15  958   1.728   0.019   1.982 -1.5723  1.6248  1.1691
   42DG     H16  959   1.849   0.062   2.115  1.4558  0.0611 -0.3125
   42DG     C17  960   2.012   0.077   1.685  0.6446 -0.0698  0.4448
   42DG     C18  961   1.932   0.030   1.910 -0.7103  0.1111  0.2063
   42DG     O19  962   1.903   0.076   1.776  0.2373  0.3368  0.0605
   42DG     H20  963   2.080   0.157   1.715  0.1643  0.6732 -0.3967
   42DG     H21  964   2.051  -0.024   1.687  1.6109  0.2954  0.5881
   42DG     H22  965   2.025   0.071   1.950  1.3638 -2.9282 -1.0525
   42DG     H23  966   1.941  -0.079   1.920  1.5573  0.2335  0.0153
   43DG      C1  967   0.199   2.302   0.986  0.0505 -0.5523  0.9874
   43DG      C2  968  -0.163   2.565   1.480  0.1682  0.1326 -0.3859
   43DG      H3  969   0.271   2.293   1.067  1.1595 -1.5923 -0.0855
   43DG      H4  970   0.244   2.291   0.888 -3.9204  1.4523 -1.3415
   43DG      H5  971   0.135   2.215   0.997  0.4855 -0.9892  0.1217
   43DG      H6  972  -0.194   2.461   1.474 -2.6137  0.8590  0.1116
   43DG      H7  973  -0.080   2.575   1.550 -1.5822 -0.6536  1.9078
   43DG      H8  974  -0.243   2.620   1.529 -0.8184 -1.8069  0.2776
   43DG      O9  975   0.120   2.424   0.990  0.7712  0.0222 -0.0707
   43DG     O10  976  -0.134   2.625   1.352 -0.2886 -0.2997 -0.1321
   43DG     C11  977  -0.000   2.428   0.916  0.1420  0.4818  0.4083
   43DG     C12  978  -0.246   2.650   1.269  0.0104  0.5697 -0.2033
   43DG     H13  979  -0.052   2.338   0.946  0.0140  0.2672 -0.4279
   43DG     H14  980   0.024   2.428   0.810  2.1423  0.4101  0.8322
   43DG     H15  981  -0.314   2.729   1.301  0.0748  0.2564  0.7246
   43DG     H16  982  -0.299   2.557   1.290  0.4836  0.7575  2.1353
   43DG     C17  983  -0.086   2.561   0.948  0.0288  0.3988 -0.2016
   43DG     C18  984  -0.216   2.672   1.120 -0.1202  0.1780  0.6874
   43DG     O19  985  -0.134   2.559   1.084  0.4497 -0.0742  0.1954
   43DG     H20  986  -0.167   2.572   0.876  1.5528 -1.3293 -2.3023
   43DG     H21  987  -0.027   2.652   0.941 -0.0776  0.6388  1.5490
   43DG     H22  988  -0.312   2.677   1.068 -0.0761 -0.3940  0.5413
   43DG     H23  989  -0.175   2.772   1.110 -0.8348  0.4028 -0.1042
   44DG      C1  990   3.757   4.731   1.455 -0.0244  0.1584  0.0381
   44DG      C2  991   4.376   4.687   1.224  0.3189  0.7458 -0.2449
   44DG      H3  992   3.682   4.700   1.528  0.2147  0.0467  0.2387
   44DG      H4  993   3.737   4.708   1.351 -0.8134 -0.9504  0.4150
   44DG      H5  994   3.772   4.837   1.478  2.4173  0.1697 -1.2852
   44DG      H6  995   4.356   4.642   1.127 -1.7798 -0.2438  0.5868
   44DG      H7  996   4.350   4.793   1.216  2.2027  1.4625  1.9471
   44DG      H8  997   4.484   4.674   1.238  0.4227  0.5006 -1.2054
   44DG      O9  998   3.882   4.669   1.490  0.2084  0.5337  0.1885
   44DG     O10  999   4.291   4.629   1.324 -0.1096 -0.1417 -0.2974
   44DG     C11 1000   3.870   4.521   1.483 -1.4937 -0.4659  0.4537
   44DG     C12 1001   4.316   4.503   1.358  0.1807 -0.6863  0.1045
   44DG     H13 1002   3.843   4.477   1.388  2.1470 -2.1559  0.0536
   44DG     H14 1003   3.805   4.476   1.559 -0.4353 -0.3424  1.4637
   44DG     H15 1004   4.423   4.502   1.379  0.1826 -0.6086  0.0980
   44DG     H16 1005   4.294   4.447   1.267 -0.1975 -0.3321 -0.0234
   44DG     C17 1006   4.004   4.463   1.524  0.2543 -0.3256 -0.2314
   44DG     C18 1007   4.226   4.462   1.476  0.0848  0.0021  0.0342
   44DG     O19 1008   4.103   4.510   1.439  0.2438  0.1739  0.1360
   44DG     H20 1009   4.011   4.355   1.533 -1.1718 -0.4595 -0.5039
   44DG     H21 1010   4.025   4.493   1.627  1.5716  0.6264 -0.7508
   44DG     H22 1011   4.249   4.357   1.496  1.5011  0.3302  0.2624
   44DG     H23 1012   4.268   4.512   1.564 -0.5728 -0.2127  0.4757
   45DG      C1 1013   4.640   1.826   1.618  0.0035 -0.3432  0.2806
   45DG      C2 1014   4.889   1.986   1.051  0.8157 -0.2721  0.1225
   45DG      H3 1015   4.576   1.787   1.697 -0.0402 -0.7888  0.0294
   45DG      H4 1016   4.655   1.932   1.642  2.1410 -0.4091 -0.5300
   45DG      H5 1017   4.741   1.787   1.617  1.3657  2.8269 -0.4907
   45DG      H6 1018   4.913   2.089   1.026  0.3915 -0.0842  0.4696
   45DG      H7 1019   4.976   1.942   1.098  1.1487 -1.0878 -1.1996
   45DG      H8 1020   4.885   1.924   0.961 -1.8137 -2.1064  1.3767
   45DG      O9 1021   4.573   1.817   1.492 -0.0766 -0.5025  0.0576
   45DG     O10 1022   4.769   1.968   1.128 -1.0096 -1.3282  0.0727
   45DG     C11 1023   4.455   1.906   1.486 -0.1046  1.3787  0.1510
   45DG     C12 1024   4.662   2.053   1.091 -0.2896 -0.3985  0.3807
   45DG     H13 1025   4.481   2.005   1.525 -1.4239  1.5875  0.5601
   45DG     H14 1026   4.375   1.856   1.540  2.9020 -1.4029  2.4061
   45DG     H15 1027   4.658   2.065   0.982  1.5492  1.4695  0.4705
   45DG     H16 1028   4.692   2.144   1.142  0.7970 -0.4704 -0.1087
   45DG     C17 1029   4.423   1.925   1.343  0.1765 -0.3710 -0.0867
   45DG     C18 1030   4.532   1.988   1.144  0.0613 -0.0139  0.5920
   45DG     O19 1031   4.546   1.969   1.280 -0.2083 -0.3471  0.9460
   45DG     H20 1032   4.349   2.003   1.329 -1.0683 -1.4984  0.0316
   45DG     H21 1033   4.387   1.831   1.302 -1.4105  0.5306 -0.8407
   45DG     H22 1034   4.443   2.045   1.117 -0.3933 -1.2300 -0.5865
   45DG     H23 1035   4.526   1.891   1.096  1.3646 -0.9620  2.2495
   46DG      C1 1036   3.278   3.835   0.388 -0.0614  0.4596  0.3887
   46DG      C2 1037   3.729   4.383   0.428 -0.6710 -0.1225  0.0435
   46DG      H3 1038   3.305   3.871   0.288 -0.1930  0.6733  0.4281
   46DG      H4 1039   3.171   3.855   0.392 -0.2317  0.4332 -2.1924
   46DG      H5 1040   3.305   3.730   0.383  1.5815  0.8817 -0.2380
   46DG      H6 1041   3.830   4.422   0.424 -1.3701  1.6803 -1.5632
   46DG      H7 1042   3.675   4.383   0.334  0.6804 -0.1963 -0.7541
   46DG      H8 1043   3.673   4.437   0.504 -0.8383 -3.6728  2.7371
   46DG      O9 1044   3.355   3.900   0.485 -0.5401 -0.1780 -0.1301
   46DG     O10 1045   3.734   4.244   0.466 -0.9425 -0.0491 -0.0965
   46DG     C11 1046   3.306   4.030   0.516 -0.2720  0.4481 -0.0091
   46DG     C12 1047   3.727   4.212   0.606 -0.1608 -0.0674  0.2833
   46DG     H13 1048   3.202   4.029   0.548 -0.0347 -1.5767  0.8219
   46DG     H14 1049   3.316   4.087   0.423 -1.8001 -0.2101 -0.6065
   46DG     H15 1050   3.782   4.286   0.665  2.2319 -0.5637 -1.1728
   46DG     H16 1051   3.785   4.121   0.618 -1.0064 -0.3937  2.3101
   46DG     C17 1052   3.385   4.092   0.626  0.5637  0.3668 -0.3761
   46DG     C18 1053   3.580   4.196   0.659 -0.2624 -0.8186 -0.1794
   46DG     O19 1054   3.517   4.095   0.580  0.1982  0.4933  0.2001
   46DG     H20 1055   3.378   4.014   0.703 -0.3045  0.5221 -0.2855
   46DG     H21 1056   3.335   4.187   0.647 -0.2182 -0.0256 -0.4417
   46DG     H22 1057   3.586   4.175   0.766  0.2755 -0.5370 -0.1503
   46DG     H23 1058   3.533   4.292   0.639  1.4029  0.0928  0.1088
   47DG      C1 1059   4.399   4.688   3.869 -0.7874 -0.2967  0.5149
   47DG      C2 1060   4.373   4.375   3.151  0.6916 -0.0148 -1.2469
   47DG      H3 1061   4.366   4.780   3.820 -1.9003  1.4861  4.2011
   47DG      H4 1062   4.506   4.705   3.875 -1.2100  2.7415  0.8499
   47DG      H5 1063   4.351   4.673   3.966 -0.7443 -4.2554  0.0785
   47DG      H6 1064   4.296   4.318   3.101  0.1556  1.1837 -1.8128
   47DG      H7 1065   4.334   4.476   3.161 -1.8466 -1.1655  3.0891
   47DG      H8 1066   4.458   4.379   3.083  1.2133  0.4070 -0.5912
   47DG      O9 1067   4.373   4.574   3.786 -0.0764 -0.0963  0.2327
   47DG     O10 1068   4.403   4.330   3.281 -0.2674  0.3552  0.5373
   47DG     C11 1069   4.468   4.467   3.797 -0.5625 -0.3014  0.2698
   47DG     C12 1070   4.299   4.331   3.374  0.7677 -0.2801  0.3400
   47DG     H13 1071   4.486   4.445   3.902  0.3103 -0.7608  0.0387
   47DG     H14 1072   4.562   4.505   3.757 -0.1996  1.4127  2.5779
   47DG     H15 1073   4.224   4.267   3.326 -1.5321  1.8361  0.9419
   47DG     H16 1074   4.256   4.431   3.378  1.4066 -0.0140  0.6804
   47DG     C17 1075   4.419   4.342   3.721  0.1527 -0.6997 -0.8441
   47DG     C18 1076   4.328   4.286   3.512 -0.4311 -0.2819  0.2139
   47DG     O19 1077   4.409   4.381   3.587 -0.3860  0.2105  0.2501
   47DG     H20 1078   4.328   4.306   3.768  0.6452  1.2832  1.8560
   47DG     H21 1079   4.496   4.265   3.731  0.0668 -0.7891 -0.8751
   47DG     H22 1080   4.237   4.251   3.561 -1.2934 -1.9275 -2.3863
   47DG     H23 1081   4.380   4.191   3.500  0.4235 -0.0893  1.9655
   48DG      C1 1082   2.393   0.042   1.146  0.2397  0.6854 -0.2738
   48DG      C2 1083   2.020   0.248   0.576  0.4286  0.1874 -0.8656
   48DG      H3 1084   2.479   0.086   1.096  0.5317  0.5338  0.0974
   48DG      H4 1085   2.421  -0.042   1.210 -0.5469 -1.4267 -2.5196
   48DG      H5 1086   2.362   0.117   1.218  1.3416  0.0867  0.8446
   48DG      H6 1087   1.951   0.324   0.611  1.7120  0.2618  1.7533
   48DG      H7 1088   2.109   0.305   0.547  1.1274  0.9436  2.3424
   48DG      H8 1089   1.977   0.188   0.496 -0.7305 -0.3652  0.1402
   48DG      O9 1090   2.284   0.018   1.048 -0.0723  0.4622  0.1361
   48DG     O10 1091   2.044   0.144   0.679 -0.1743 -0.1848  0.0631
   48DG     C11 1092   2.186  -0.069   1.099 -0.3251  0.0045 -0.7099
   48DG     C12 1093   1.925   0.081   0.726  0.5274 -0.6513 -0.4126
   48DG     H13 1094   2.142  -0.024   1.188  2.9580  1.6834  0.2156
   48DG     H14 1095   2.241  -0.156   1.134  1.6693  1.8374  0.9802
   48DG     H15 1096   1.858   0.046   0.647  0.6030 -0.1534 -0.6984
   48DG     H16 1097   1.869   0.153   0.785  2.7659  0.9712 -0.1169
   48DG     C17 1098   2.078  -0.111   0.994  0.2094 -0.7867 -0.0461
   48DG     C18 1099   1.949  -0.039   0.821 -0.0673 -0.1068  0.5846
   48DG     O19 1100   2.027   0.006   0.935 -0.6019 -0.2872  0.1776
   48DG     H20 1101   1.997  -0.167   1.040 -0.0631  0.5867  1.2265
   48DG     H21 1102   2.116  -0.186   0.924 -2.1455 -1.4561 -0.6921
   48DG     H22 1103   1.856  -0.083   0.857  1.2013 -2.0050  1.7482
   48DG     H23 1104   2.000  -0.108   0.755 -1.1924 -1.8059  1.3974
   49DG      C1 1105   1.196   0.564   1.324  0.3217 -1.2147 -0.4734
   49DG      C2 1106   0.726   0.763   1.722 -0.6877 -0.1803 -0.0945
   49DG      H3 1107   1.114   0.524   1.265 -0.0151 -3.2024  1.2494
   49DG      H4 1108   1.238   0.491   1.392 -2.6399 -1.1257  1.6477
   49DG      H5 1109   1.274   0.587   1.251  0.3543 -0.7924 -0.3092
   49DG      H6 1110   0.703   0.660   1.693 -3.6269  0.7351 -1.2689
   49DG      H7 1111   0.739   0.756   1.830  0.4644 -1.1818 -0.2645
   49DG      H8 1112   0.648   0.831   1.690  0.1129  1.4030  1.1697
   49DG      O9 1113   1.148   0.675   1.399  0.0630 -0.1270 -0.0345
   49DG     O10 1114   0.851   0.797   1.660  0.2727 -0.1134  0.6460
   49DG     C11 1115   1.239   0.783   1.425 -0.5213  0.1381  0.2673
   49DG     C12 1116   0.877   0.935   1.677 -0.2244 -0.1391  0.4640
   49DG     H13 1117   1.298   0.795   1.334  0.4145  1.7967  1.0282
   49DG     H14 1118   1.307   0.750   1.503 -2.3351  1.2702  2.4426
   49DG     H15 1119   0.924   0.947   1.774 -0.6524  2.0785  0.4461
   49DG     H16 1120   0.785   0.993   1.677 -0.6047 -0.7338  0.6505
   49DG     C17 1121   1.167   0.912   1.465  0.2301 -0.0174  0.6799
   49DG     C18 1122   0.973   0.987   1.574 -0.1892 -0.5770  0.4654
   49DG     O19 1123   1.071   0.882   1.569  0.4186  0.0344 -0.1730
   49DG     H20 1124   1.112   0.933   1.373  0.6346  0.6424  0.5925
   49DG     H21 1125   1.235   0.993   1.487  0.8996 -0.5721  0.6978
   49DG     H22 1126   0.930   0.998   1.474 -0.6238 -0.6863  0.6384
   49DG     H23 1127   1.021   1.082   1.600 -0.1671 -0.7726  1.1370
   50DG      C1 1128   4.818   0.032   3.448 -0.3314 -0.2427 -0.6910
   50DG      C2 1129   4.160  -0.130   3.290 -0.1049  0.5038 -0.0993
   50DG      H3 1130   4.769   0.088   3.527 -0.7166  2.4223 -2.6720
   50DG      H4 1131   4.889   0.106   3.410 -0.9700  1.2966  0.9751
   50DG      H5 1132   4.889  -0.035   3.495  0.7218  0.8689 -0.6656
   50DG      H6 1133   4.122  -0.060   3.216 -0.9112  0.2980  0.1139
   50DG      H7 1134   4.114  -0.227   3.271  0.8423  0.3718 -1.9756
   50DG      H8 1135   4.146  -0.092   3.391  0.3064  0.1770  0.0854
   50DG      O9 1136   4.738  -0.006   3.338  0.5023 -0.1592  0.3042
   50DG     O10 1137   4.305  -0.141   3.283  0.3111 -0.2447  0.4268
   50DG     C11 1138   4.793  -0.090   3.245  0.1139  0.9719  1.1070
   50DG     C12 1139   4.342  -0.203   3.166 -0.0053  0.0949  1.0569
   50DG     H13 1140   4.820  -0.181   3.298  0.4525  0.4080 -0.0030
   50DG     H14 1141   4.889  -0.059   3.202  0.0530 -1.4469 -1.0417
   50DG     H15 1142   4.316  -0.158   3.071 -0.1886  0.0469  1.0838
   50DG     H16 1143   4.299  -0.303   3.176 -0.0279  0.0170  0.2082
   50DG     C17 1144   4.698  -0.104   3.121 -0.1184  0.2737  0.5327
   50DG     C18 1145   4.494  -0.228   3.170  0.8017  0.9016 -0.3647
   50DG     O19 1146   4.562  -0.103   3.152  0.1012  0.2650 -0.8662
   50DG     H20 1147   4.723  -0.195   3.065  3.4690  0.3183  1.7846
   50DG     H21 1148   4.724  -0.022   3.055  0.5074 -0.5266 -0.2485
   50DG     H22 1149   4.524  -0.280   3.261 -1.1070 -0.6981 -0.5908
   50DG     H23 1150   4.521  -0.295   3.089 -1.0565  0.1566 -0.4200
   51DG      C1 1151   3.415   1.295   4.354 -0.7187  0.0691 -0.7680
   51DG      C2 1152   3.706   0.816   3.994 -0.7300 -0.6288 -0.0271
   51DG      H3 1153   3.339   1.284   4.276  0.0529  0.1837 -1.5551
   51DG      H4 1154   3.494   1.350   4.302 -2.1270  1.2425 -1.7769
   51DG      H5 1155   3.368   1.344   4.439 -1.3572 -2.5657  0.4882
   51DG      H6 1156   3.630   0.790   3.921 -0.8370 -1.0803  0.2422
   51DG      H7 1157   3.766   0.898   3.953 -1.6797 -0.4937 -1.1999
   51DG      H8 1158   3.767   0.726   3.993 -0.4724 -0.5019 -2.8984
   51DG      O9 1159   3.473   1.162   4.381 -0.2075  0.4228 -0.2754
   51DG     O10 1160   3.649   0.842   4.119 -0.2602 -0.2133  0.0712
   51DG     C11 1161   3.384   1.075   4.446  0.6167  0.5992 -0.4483
   51DG     C12 1162   3.562   0.735   4.166  0.1901  0.0487  0.8591
   51DG     H13 1163   3.290   1.063   4.392  0.2799 -0.8079  0.3943
   51DG     H14 1164   3.364   1.107   4.548 -1.3434 -3.2953  0.6004
   51DG     H15 1165   3.614   0.640   4.153 -2.5035 -1.3967 -0.1199
   51DG     H16 1166   3.475   0.721   4.103  0.8546 -0.6233  0.0623
   51DG     C17 1167   3.457   0.940   4.459  0.8518  0.0692 -0.4480
   51DG     C18 1168   3.536   0.757   4.312  0.5035 -0.0548 -0.7939
   51DG     O19 1169   3.475   0.887   4.330 -0.2278 -0.2619 -0.2624
   51DG     H20 1170   3.389   0.876   4.516  0.4870  1.0745  0.2822
   51DG     H21 1171   3.551   0.959   4.510  0.7390  1.2211 -0.6560
   51DG     H22 1172   3.468   0.681   4.349  0.1188  1.2532  1.3625
   51DG     H23 1173   3.629   0.762   4.370 -0.1918 -0.3080  0.3791
   52DG      C1 1174   1.982   1.986   2.051  0.0130 -0.9420  0.1564
   52DG      C2 1175   1.421   1.932   1.610  0.0627 -0.0631 -0.7995
   52DG      H3 1176   2.084   1.950   2.039 -0.2913 -1.5609 -0.6733
   52DG      H4 1177   1.935   1.925   2.127 -0.8319  0.3315  0.6781
   52DG      H5 1178   2.000   2.082   2.100  0.8797 -1.6401  1.2550
   52DG      H6 1179   1.360   2.019   1.630 -0.0446 -0.5077  0.9867
   52DG      H7 1180   1.396   1.877   1.519 -0.2328  0.2681 -0.9214
   52DG      H8 1181   1.408   1.865   1.695  3.2461 -1.0646 -0.9804
   52DG      O9 1182   1.915   1.994   1.922  0.4061 -0.2071  0.2050
   52DG     O10 1183   1.560   1.973   1.606 -0.2629 -0.3341  0.0884
   52DG     C11 1184   1.972   2.091   1.832  0.1943  0.5412  0.4039
   52DG     C12 1185   1.590   2.098   1.536 -0.1637 -1.0611 -0.0733
   52DG     H13 1186   2.077   2.064   1.826 -0.1728 -1.2037  1.1513
   52DG     H14 1187   1.976   2.194   1.867 -0.4644  0.0723  1.9259
   52DG     H15 1188   1.546   2.191   1.574  3.3098  1.2643 -1.2112
   52DG     H16 1189   1.553   2.097   1.434 -1.4368  2.1071  0.2553
   52DG     C17 1190   1.933   2.077   1.691 -0.5001  0.5345 -0.0107
   52DG     C18 1191   1.743   2.107   1.546 -0.6198  0.2429  0.0612
   52DG     O19 1192   1.797   2.103   1.678 -0.2419 -0.0555  0.0770
   52DG     H20 1193   1.950   1.973   1.666 -1.9738  0.3260 -0.2133
   52DG     H21 1194   1.989   2.151   1.633 -0.4742  1.1945  0.8372
   52DG     H22 1195   1.790   2.020   1.500  1.1418  1.1473  0.0899
   52DG     H23 1196   1.775   2.197   1.495 -1.7464  0.2949 -0.6018
   53DG      C1 1197   5.200   4.496   3.183 -1.1309  0.0776  0.6505
   53DG      C2 1198   4.702   4.186   3.120  0.0404  0.5135  0.6332
   53DG      H3 1199   5.258   4.406   3.162 -1.0707  0.3350 -0.3226
   53DG      H4 1200   5.265   4.565   3.237  0.7733  0.1178 -1.5122
   53DG      H5 1201   5.183   4.541   3.085 -1.4037 -0.8251  0.2745
   53DG      H6 1202   4.775   4.106   3.129  0.2449  0.7687  1.3060
   53DG      H7 1203   4.599   4.150   3.129 -0.2085  1.6329  2.9037
   53DG      H8 1204   4.726   4.234   3.025  0.3685  2.5913  1.7096
   53DG      O9 1205   5.079   4.473   3.251  0.3620  0.1905  0.8900
   53DG     O10 1206   4.716   4.282   3.223  0.0613  0.0494  0.1322
   53DG     C11 1207   5.107   4.398   3.368  0.5631 -0.5934 -0.6227
   53DG     C12 1208   4.704   4.219   3.351 -0.8559  0.3268 -0.1814
   53DG     H13 1209   5.134   4.464   3.451  1.5152 -1.1313 -0.4907
   53DG     H14 1210   5.190   4.328   3.359 -0.8574 -2.5936  1.0179
   53DG     H15 1211   4.759   4.125   3.350  0.6193  1.1389  1.0198
   53DG     H16 1212   4.600   4.204   3.383 -0.9864  1.4298 -0.0476
   53DG     C17 1213   4.985   4.306   3.397  0.5241 -0.0942  0.0641
   53DG     C18 1214   4.758   4.317   3.450  0.0436  0.1307  0.0088
   53DG     O19 1215   4.870   4.386   3.412  0.0370  0.4061  0.5872
   53DG     H20 1216   5.001   4.251   3.489  1.8242  0.6842  0.3295
   53DG     H21 1217   4.960   4.237   3.316 -0.9314  0.4980 -0.0167
   53DG     H22 1218   4.675   4.381   3.480 -0.4043 -0.6804  0.5424
   53DG     H23 1219   4.771   4.261   3.543 -1.0092  1.8066  1.2293
   54DG      C1 1220   0.419   2.893   1.686 -0.1596 -0.3728 -0.5995
   54DG      C2 1221   1.098   2.819   1.643  0.6801  0.3808 -0.4979
   54DG      H3 1222   0.440   2.907   1.792 -0.0783 -1.1603 -0.5030
   54DG      H4 1223   0.345   2.814   1.672  0.0520 -1.2346  2.3309
   54DG      H5 1224   0.365   2.985   1.665 -2.9925 -1.3665  1.6774
   54DG      H6 1225   1.090   2.925   1.667 -0.7373  0.5069 -1.4199
   54DG      H7 1226   1.116   2.772   1.740 -1.3951  0.5535  0.0106
   54DG      H8 1227   1.191   2.800   1.589  1.0486 -1.2616  0.6438
   54DG      O9 1228   0.533   2.864   1.612 -0.4482 -0.5651 -1.0370
   54DG     O10 1229   0.981   2.769   1.572  0.5525  0.3666  0.0259
   54DG     C11 1230   0.509   2.872   1.473  0.8951  0.1279 -0.4254
   54DG     C12 1231   0.976   2.824   1.444  0.4296 -0.5839 -0.3214
   54DG     H13 1232   0.523   2.972   1.432  2.1177  0.7872  1.4878
   54DG     H14 1233   0.416   2.831   1.433 -0.4502  1.9460  0.6756
   54DG     H15 1234   1.054   2.781   1.381  1.1542  0.2679 -0.0197
   54DG     H16 1235   0.984   2.933   1.439  1.0348 -0.6580 -1.0345
   54DG     C17 1236   0.617   2.799   1.407 -0.2366  0.6415  0.0009
   54DG     C18 1237   0.845   2.778   1.378 -0.0589  0.3185  0.3374
   54DG     O19 1238   0.746   2.836   1.460  0.0489  0.6007 -0.8639
   54DG     H20 1239   0.617   2.811   1.298  1.8627  0.1000 -0.1096
   54DG     H21 1240   0.607   2.692   1.427  0.6375  0.7002  0.8291
   54DG     H22 1241   0.841   2.797   1.271  3.2747  0.3161  0.0971
   54DG     H23 1242   0.827   2.672   1.394 -0.1363  0.3691  0.5972
   55DG      C1 1243   0.062   0.912   5.441 -0.3201  0.3010  0.2673
   55DG      C2 1244  -0.564   0.796   5.219 -0.2292  0.1787  0.9433
   55DG      H3 1245   0.069   0.932   5.334  5.3219  2.2877  0.6673
   55DG      H4 1246   0.128   0.826   5.452 -1.5466 -1.4656 -3.8873
   55DG      H5 1247   0.104   1.002   5.486  1.6594  0.3961 -1.5880
   55DG      H6 1248  -0.666   0.826   5.240 -1.0747 -1.4997 -0.5317
   55DG      H7 1249  -0.537   0.854   5.131  1.1531 -0.5682  0.8418
   55DG      H8 1250  -0.570   0.689   5.200 -1.0572  0.6185 -1.6826
   55DG      O9 1251  -0.065   0.911   5.479 -0.0087 -0.6043  0.0611
   55DG     O10 1252  -0.472   0.819   5.320 -0.3076 -0.2944 -0.3878
   55DG     C11 1253  -0.076   0.862   5.609 -0.1472 -0.1241  0.0071
   55DG     C12 1254  -0.516   0.786   5.450  0.0514 -0.4476  0.0424
   55DG     H13 1255  -0.014   0.922   5.676 -0.3942  0.8693 -0.6305
   55DG     H14 1256  -0.053   0.756   5.605  0.8135  0.1004 -0.9466
   55DG     H15 1257  -0.510   0.678   5.464 -0.1894 -0.7407 -1.9388
   55DG     H16 1258  -0.622   0.814   5.447  0.3235  0.6353 -3.8999
   55DG     C17 1259  -0.223   0.876   5.644 -0.3825  0.1619 -0.0496
   55DG     C18 1260  -0.443   0.861   5.562 -0.3702  0.0409  0.3402
   55DG     O19 1261  -0.304   0.816   5.546 -0.4427 -0.4038  0.0902
   55DG     H20 1262  -0.238   0.983   5.659 -0.0661  0.3675 -1.0685
   55DG     H21 1263  -0.253   0.821   5.732 -2.1544 -1.6362 -1.6889
   55DG     H22 1264  -0.448   0.969   5.546 -1.0937 -0.2768 -2.1301
   55DG     H23 1265  -0.471   0.847   5.666  3.0887 -0.2649  1.3643
   56DG      C1 1266   2.437   1.592   4.052 -0.2750  0.3464 -0.4519
   56DG      C2 1267   2.925   1.984   3.801  0.5822  0.7378 -0.0782
   56DG      H3 1268   2.429   1.564   3.947  0.5335 -2.8716  0.2294
   56DG      H4 1269   2.342   1.627   4.093  0.3360  0.4023  0.9551
   56DG      H5 1270   2.470   1.499   4.098  1.1168  0.8288 -0.4321
   56DG      H6 1271   2.893   1.902   3.737  0.5612  0.1372  0.6928
   56DG      H7 1272   2.890   2.078   3.758 -1.5010  0.1936  0.2827
   56DG      H8 1273   3.033   1.976   3.808  0.3812 -0.9877  2.0197
   56DG      O9 1274   2.535   1.682   4.086 -0.1616  0.1970  0.1911
   56DG     O10 1275   2.857   1.956   3.928 -0.0020 -0.0303  0.2340
   56DG     C11 1276   2.611   1.650   4.208  0.7515  0.4164 -0.1450
   56DG     C12 1277   2.940   1.963   4.044  0.2281 -0.1535 -0.3474
   56DG     H13 1278   2.662   1.553   4.206  0.4839  0.2822 -0.6132
   56DG     H14 1279   2.539   1.656   4.290 -1.3255  0.8522 -1.9242
   56DG     H15 1280   2.981   2.064   4.048  3.2785 -1.3158  0.2239
   56DG     H16 1281   3.021   1.891   4.030 -0.7985 -1.5953  0.7710
   56DG     C17 1282   2.696   1.761   4.245 -0.0602  0.6100  0.4118
   56DG     C18 1283   2.853   1.918   4.166  0.2253 -0.0804  0.2946
   56DG     O19 1284   2.777   1.796   4.134  0.2250  0.0737  0.4358
   56DG     H20 1285   2.761   1.721   4.323  1.0609 -3.9787 -2.5092
   56DG     H21 1286   2.642   1.848   4.283  0.9226  1.1810  0.5487
   56DG     H22 1287   2.920   1.892   4.248  2.1703 -2.4669 -1.8994
   56DG     H23 1288   2.794   2.007   4.191  1.0218  0.8599 -1.0287
   57DG      C1 1289   3.462   3.504   5.415 -0.0158  0.9091  0.2590
   57DG      C2 1290   3.865   4.078   5.687  0.3137  0.5167 -0.4762
   57DG      H3 1291   3.354   3.517   5.418 -0.1351 -0.1842  0.8445
   57DG      H4 1292   3.488   3.406   5.454  0.8778  0.5626 -1.0955
   57DG      H5 1293   3.493   3.500   5.310 -3.5230 -0.0541 -0.8494
   57DG      H6 1294   3.918   3.999   5.740 -1.0218 -1.5195 -2.0084
   57DG      H7 1295   3.905   4.097   5.588  0.9681 -1.6865 -0.6787
   57DG      H8 1296   3.855   4.173   5.740  1.9028  1.9669 -2.6358
   57DG      O9 1297   3.543   3.602   5.485 -0.2146  0.0389  0.1403
   57DG     O10 1298   3.731   4.021   5.684  0.6131  0.2073 -0.3601
   57DG     C11 1299   3.513   3.613   5.624 -0.3921  0.0371  0.0140
   57DG     C12 1300   3.684   3.984   5.557  0.4971 -0.4772 -0.0664
   57DG     H13 1301   3.544   3.518   5.668 -0.6143  0.6759  1.6027
   57DG     H14 1302   3.409   3.631   5.650 -0.2142  2.3004 -0.6641
   57DG     H15 1303   3.760   3.915   5.522  1.0016 -0.6872  1.3850
   57DG     H16 1304   3.676   4.071   5.491  0.8960 -1.9738 -2.2237
   57DG     C17 1305   3.586   3.717   5.703 -0.3121 -0.8648  0.6462
   57DG     C18 1306   3.543   3.923   5.571  0.0648  0.5589 -0.8877
   57DG     O19 1307   3.528   3.852   5.696  0.8064 -1.2574  0.0946
   57DG     H20 1308   3.692   3.725   5.680 -0.5008  2.0297  0.3630
   57DG     H21 1309   3.592   3.678   5.805  1.2994 -2.9324 -0.1791
   57DG     H22 1310   3.464   3.997   5.560 -1.0572 -0.6657 -1.3874
   57DG     H23 1311   3.528   3.866   5.479  1.4736  0.3014 -0.9833
   58DG      C1 1312   5.468   1.455   0.778 -0.7656  0.5437  0.1598
   58DG      C2 1313   5.177   1.913   0.382  0.5997  0.6631 -0.3877
   58DG      H3 1314   5.410   1.494   0.862 -1.0139 -0.7912  0.6298
   58DG      H4 1315   5.553   1.398   0.816  0.2502  1.1609 -1.0994
   58DG      H5 1316   5.394   1.384   0.740  0.7728 -0.6580 -0.7019
   58DG      H6 1317   5.119   1.832   0.338  0.5403 -0.9497  2.4131
   58DG      H7 1318   5.114   1.947   0.464  2.1606 -0.7638  1.5029
   58DG      H8 1319   5.189   1.985   0.301 -0.2845  0.0405 -1.1019
   58DG      O9 1320   5.512   1.559   0.691 -0.1917  0.4814 -0.5103
   58DG     O10 1321   5.298   1.860   0.427 -0.2547  0.3948 -0.3416
   58DG     C11 1322   5.590   1.509   0.586  0.0671  0.2590  0.7311
   58DG     C12 1323   5.389   1.850   0.325 -0.2421 -0.2075  0.4998
   58DG     H13 1324   5.533   1.434   0.531  0.8824 -0.7958  1.2806
   58DG     H14 1325   5.685   1.462   0.614  0.7398  0.1576 -1.5200
   58DG     H15 1326   5.390   1.946   0.273 -1.7834  0.7248  2.0806
   58DG     H16 1327   5.353   1.783   0.248  0.6533  0.1580 -0.2634
   58DG     C17 1328   5.628   1.636   0.502 -0.0162 -0.2536 -0.3377
   58DG     C18 1329   5.531   1.810   0.381 -0.8819 -0.2887  0.3040
   58DG     O19 1330   5.510   1.691   0.448  0.2541  0.4134  0.0059
   58DG     H20 1331   5.691   1.618   0.415  0.9662 -0.2439  0.3543
   58DG     H21 1332   5.682   1.717   0.551  1.5622 -0.8043 -1.0866
   58DG     H22 1333   5.588   1.797   0.289 -1.4419 -0.8296  0.0235
   58DG     H23 1334   5.560   1.886   0.453 -0.8944 -0.2061  0.2211
   59DG      C1 1335   1.847   3.976   4.089 -0.4002  0.0348  0.0311
   59DG      C2 1336   1.270   3.993   4.096 -0.4970  0.0196  0.1419
   59DG      H3 1337   1.875   4.051   4.164  0.7272 -1.2695  0.9687
   59DG      H4 1338   1.780   4.025   4.019 -0.1728  1.5908  0.8452
   59DG      H5 1339   1.939   3.955   4.036  1.3071  1.0102  2.4253
   59DG      H6 1340   1.304   4.066   4.169 -0.6371 -0.7752  1.0226
   59DG      H7 1341   1.211   4.050   4.024  1.3466  2.9291  0.7554
   59DG      H8 1342   1.201   3.923   4.143 -0.6465 -0.4612 -0.7667
   59DG      O9 1343   1.787   3.865   4.150  0.5241 -0.1293 -0.0648
   59DG     O10 1344   1.388   3.941   4.030 -0.2361 -0.3287 -0.5655
   59DG     C11 1345   1.798   3.737   4.085 -0.6789  0.4423  0.7446
   59DG     C12 1346   1.365   3.829   3.946  0.5309 -0.6787 -0.3778
   59DG     H13 1347   1.747   3.673   4.156 -0.0523  1.1468  1.8584
   59DG     H14 1348   1.903   3.712   4.070 -0.5255  1.6363 -0.4634
   59DG     H15 1349   1.285   3.826   3.872  2.1472 -0.2569 -2.2469
   59DG     H16 1350   1.339   3.750   4.016 -0.5541 -1.0044 -1.1204
   59DG     C17 1351   1.720   3.740   3.959  0.0601  0.0946 -0.4662
   59DG     C18 1352   1.501   3.809   3.882 -0.4190 -0.0259 -0.6026
   59DG     O19 1353   1.590   3.788   3.997 -0.1404  0.9667 -0.1777
   59DG     H20 1354   1.729   3.639   3.919  1.7241 -0.2083  0.5416
   59DG     H21 1355   1.776   3.808   3.895  0.4142  0.6083  0.3760
   59DG     H22 1356   1.492   3.722   3.818  2.2096 -1.5095  0.9052
   59DG     H23 1357   1.546   3.885   3.818  0.5062 -1.9699 -2.3511
   60DG      C1 1358   1.808   2.987   2.940 -0.3360 -0.9060 -0.0929
   60DG      C2 1359   1.252   2.847   2.857  0.1186 -0.6084 -0.5774
   60DG      H3 1360   1.881   3.012   3.017 -1.8291  0.2045  1.0225
   60DG      H4 1361   1.769   3.084   2.910  4.6791  1.1087 -1.1757
   60DG      H5 1362   1.850   2.948   2.847 -0.6453  1.6499 -1.3905
   60DG      H6 1363   1.271   2.821   2.753  2.5317 -1.3636 -0.0058
   60DG      H7 1364   1.152   2.816   2.887  0.6196 -0.4196  1.4284
   60DG      H8 1365   1.254   2.956   2.864 -1.3305 -0.6526  1.7911
   60DG      O9 1366   1.722   2.890   2.991  0.0774  0.1907  0.2117
   60DG     O10 1367   1.355   2.796   2.940  0.3563 -0.2528  0.3400
   60DG     C11 1368   1.798   2.771   3.032  0.3299  0.3500  0.0214
   60DG     C12 1369   1.342   2.655   2.944 -0.0198  0.5198 -0.4988
   60DG     H13 1370   1.867   2.782   3.116 -0.0678 -3.2335  0.9736
   60DG     H14 1371   1.859   2.737   2.948 -0.5556 -2.4210  0.4258
   60DG     H15 1372   1.340   2.612   2.844  1.4864 -1.9720  0.4497
   60DG     H16 1373   1.258   2.616   3.001  0.1777  0.3028 -0.3546
   60DG     C17 1374   1.689   2.678   3.065 -0.0359  0.3064  0.1509
   60DG     C18 1375   1.473   2.602   3.004  0.1825 -0.1837 -0.3241
   60DG     O19 1376   1.586   2.681   2.969  0.4148 -0.3756  0.2592
   60DG     H20 1377   1.650   2.692   3.166  0.8055 -0.7268  0.6350
   60DG     H21 1378   1.728   2.577   3.072 -0.8734  0.0252  1.0181
   60DG     H22 1379   1.462   2.597   3.112 -2.1687 -0.4182 -0.5286
   60DG     H23 1380   1.506   2.501   2.980 -1.1890 -0.7590  0.0990
   61DG      C1 1381   5.363   1.705   1.916  0.7819  0.0253 -0.4029
   61DG      C2 1382   6.065   1.685   1.706 -0.8436  0.1897 -0.0266
   61DG      H3 1383   5.269   1.654   1.936  0.2166  1.9984  2.6586
   61DG      H4 1384   5.340   1.791   1.853 -0.1487 -0.1336 -0.2888
   61DG      H5 1385   5.411   1.741   2.007  0.0028 -0.6379  0.2873
   61DG      H6 1386   6.089   1.771   1.769  1.9967 -0.1356 -0.5097
   61DG      H7 1387   6.159   1.631   1.711  0.7638  2.7474 -0.5644
   61DG      H8 1388   6.067   1.720   1.603  1.1050  1.5925  0.4331
   61DG      O9 1389   5.473   1.629   1.861 -0.2653  0.0546  0.7479
   61DG     O10 1390   5.951   1.609   1.742 -0.1503 -0.3286  0.5056
   61DG     C11 1391   5.435   1.570   1.732  0.8906  0.2738 -0.2836
   61DG     C12 1392   5.926   1.492   1.663  0.1104  0.2840  0.6162
   61DG     H13 1393   5.437   1.637   1.646 -1.7346 -0.6425 -1.1471
   61DG     H14 1394   5.333   1.530   1.732  0.6648  0.7993  0.8015
   61DG     H15 1395   5.999   1.413   1.682 -1.2931 -1.4795 -1.0141
   61DG     H16 1396   5.939   1.520   1.559 -1.7755 -0.6789  0.0886
   61DG     C17 1397   5.541   1.454   1.704 -0.3140 -0.6676 -0.0686
   61DG     C18 1398   5.788   1.428   1.701 -0.2792 -0.7811 -0.7182
   61DG     O19 1399   5.674   1.520   1.707  0.5351 -0.2336  0.9100
   61DG     H20 1400   5.518   1.396   1.615 -1.3972  0.9620 -0.9214
   61DG     H21 1401   5.542   1.396   1.796  2.8688  0.4171  0.7039
   61DG     H22 1402   5.765   1.361   1.618 -2.0086 -1.1598  0.0210
   61DG     H23 1403   5.800   1.367   1.791  0.7931  2.8621  1.8564
   62DG      C1 1404   2.066   4.486   0.053 -0.9337 -0.4125 -0.4851
   62DG      C2 1405   1.536   4.651  -0.205  0.5044 -0.3023 -0.1405
   62DG      H3 1406   2.111   4.475  -0.046  0.1594  2.5738 -0.4419
   62DG      H4 1407   2.133   4.430   0.117  0.5214  0.1968 -1.4057
   62DG      H5 1408   2.055   4.591   0.079 -1.9567 -0.7020  0.3239
   62DG      H6 1409   1.500   4.726  -0.135 -1.1324 -1.2650  0.0979
   62DG      H7 1410   1.625   4.681  -0.261 -1.9511  0.5368 -3.9704
   62DG      H8 1411   1.459   4.659  -0.282  1.8789  2.5087 -1.3564
   62DG      O9 1412   1.941   4.426   0.075 -0.2885 -0.2930 -0.1664
   62DG     O10 1413   1.566   4.532  -0.136 -0.4677  0.2955  0.1990
   62DG     C11 1414   1.931   4.297   0.032 -0.4935 -0.1976  0.9127
   62DG     C12 1415   1.570   4.411  -0.216  0.0809  0.3195  0.3745
   62DG     H13 1416   1.990   4.236   0.100  1.0524 -0.0734 -0.2786
   62DG     H14 1417   1.974   4.298  -0.068  2.8932 -0.0613  2.2352
   62DG     H15 1418   1.651   4.405  -0.289  1.1445 -2.0019  1.6559
   62DG     H16 1419   1.475   4.385  -0.263  0.1755 -0.5852  0.6637
   62DG     C17 1420   1.787   4.249   0.048 -0.1615 -0.3416 -1.2500
   62DG     C18 1421   1.601   4.294  -0.120  0.6822 -0.2502  0.1182
   62DG     O19 1422   1.702   4.344  -0.026 -0.1011  0.5139  0.4744
   62DG     H20 1423   1.754   4.238   0.151  0.5325  2.8658 -0.5877
   62DG     H21 1424   1.781   4.146   0.011  0.4343 -1.5513  1.7159
   62DG     H22 1425   1.512   4.275  -0.060  0.8031  1.3976  0.8846
   62DG     H23 1426   1.635   4.203  -0.169 -0.6662  0.0500 -1.4743
   63DG      C1 1427   4.943   4.579   2.884  0.0200  0.8053 -0.3808
   63DG      C2 1428   4.697   4.710   3.572 -0.5290 -0.1074 -0.0128
   63DG      H3 1429   4.913   4.585   2.779 -0.0819 -1.9169 -0.5728
   63DG      H4 1430   4.955   4.472   2.899  0.6370  0.8770 -0.3481
   63DG      H5 1431   5.034   4.633   2.910  1.9003 -2.0453 -0.6117
   63DG      H6 1432   4.619   4.748   3.638  1.6186 -0.4813  2.9942
   63DG      H7 1433   4.706   4.603   3.590  1.2858  0.3611  2.3567
   63DG      H8 1434   4.790   4.761   3.600 -0.3917 -0.2422 -0.2211
   63DG      O9 1435   4.844   4.639   2.960  0.3572 -0.2735  0.4909
   63DG     O10 1436   4.672   4.716   3.434  0.5974  0.0463  0.3541
   63DG     C11 1437   4.720   4.594   2.924 -0.2068 -0.3760 -0.0202
   63DG     C12 1438   4.556   4.639   3.387 -0.0018 -0.2066  0.1506
   63DG     H13 1439   4.717   4.485   2.919 -0.1601 -0.3180 -2.0576
   63DG     H14 1440   4.702   4.630   2.823 -2.3897  0.2867  0.5501
   63DG     H15 1441   4.466   4.665   3.443 -0.8614 -0.6079 -1.0020
   63DG     H16 1442   4.561   4.531   3.392 -0.0958 -0.2961 -1.3865
   63DG     C17 1443   4.606   4.652   3.010  0.2933  0.9548 -0.5760
   63DG     C18 1444   4.530   4.683   3.239  0.1463 -0.1793 -0.3070
   63DG     O19 1445   4.625   4.624   3.150  0.1025  0.2694  0.4765
   63DG     H20 1446   4.509   4.612   2.979  0.8145 -0.3151 -0.6137
   63DG     H21 1447   4.595   4.760   3.004 -0.2109  1.0631  1.6241
   63DG     H22 1448   4.427   4.665   3.209  0.6792 -0.2808 -2.2458
   63DG     H23 1449   4.537   4.791   3.223 -1.8147 -0.1459 -1.2134
   64DG      C1 1450   0.136   4.347   2.918 -0.1637 -0.0175 -0.3674
   64DG      C2 1451   0.452   3.771   2.833  0.4247 -0.0106  0.1468
   64DG      H3 1452   0.030   4.350   2.940  0.1931  1.7705  1.3670
   64DG      H4 1453   0.164   4.425   2.847  1.6758 -2.5860 -2.6810
   64DG      H5 1454   0.197   4.348   3.009 -1.1608 -4.6259  0.5985
   64DG      H6 1455   0.505   3.762   2.928 -0.3800 -1.5835  0.4792
   64DG      H7 1456   0.481   3.683   2.775 -2.4021 -1.6053  0.9559
   64DG      H8 1457   0.474   3.864   2.781 -0.0690 -0.7798 -1.4974
   64DG      O9 1458   0.177   4.219   2.860  0.1348 -0.0597 -0.0315
   64DG     O10 1459   0.314   3.771   2.858  0.5229 -0.4850 -0.0500
   64DG     C11 1460   0.152   4.218   2.725  0.0185 -0.0543 -0.1796
   64DG     C12 1461   0.236   3.750   2.736 -0.6073  1.1155 -0.1244
   64DG     H13 1462   0.176   4.310   2.671 -0.3565  0.7967  1.0590
   64DG     H14 1463   0.045   4.201   2.717  0.0374  0.4644 -1.9165
   64DG     H15 1464   0.130   3.729   2.748 -1.1780  0.7856 -4.0963
   64DG     H16 1465   0.267   3.659   2.683 -0.7490 -0.2164  1.9598
   64DG     C17 1466   0.228   4.108   2.657  0.0576  0.4910  0.1458
   64DG     C18 1467   0.239   3.871   2.643  0.1881 -0.2596  0.4538
   64DG     O19 1468   0.204   3.986   2.723 -0.4762  0.6836 -0.0699
   64DG     H20 1469   0.336   4.120   2.663  0.3171 -1.5715  0.5822
   64DG     H21 1470   0.203   4.102   2.551 -0.3865 -3.1639  0.3183
   64DG     H22 1471   0.326   3.885   2.578 -1.5711  1.3698 -1.7325
   64DG     H23 1472   0.163   3.852   2.567 -0.3367 -0.3286  0.9882
   65DG      C1 1473   1.756   0.917   2.565 -1.2990 -0.0934 -0.5051
   65DG      C2 1474   1.512   1.556   2.540 -0.4887 -0.3568  0.0384
   65DG      H3 1475   1.736   0.813   2.536 -1.9665 -0.1552  0.1664
   65DG      H4 1476   1.666   0.955   2.611 -0.9664 -1.1860  1.1324
   65DG      H5 1477   1.840   0.911   2.635 -1.3759 -1.8845 -0.5247
   65DG      H6 1478   1.583   1.576   2.621 -1.7510  0.2450  1.0203
   65DG      H7 1479   1.527   1.622   2.454 -3.1555 -0.7623 -0.8369
   65DG      H8 1480   1.410   1.567   2.575 -1.4011 -0.4640 -2.4122
   65DG      O9 1481   1.788   0.995   2.450 -0.1498 -0.7755 -0.0063
   65DG     O10 1482   1.526   1.413   2.508  0.0591  0.1397 -0.6954
   65DG     C11 1483   1.713   0.960   2.337 -0.3555  0.1127 -0.3874
   65DG     C12 1484   1.451   1.378   2.391 -0.0434  0.8101 -0.1638
   65DG     H13 1485   1.708   0.851   2.327  0.7965 -0.2037  1.9794
   65DG     H14 1486   1.763   1.003   2.250  1.1353  1.5396  1.1165
   65DG     H15 1487   1.505   1.414   2.302 -0.5917  2.2043  0.0515
   65DG     H16 1488   1.351   1.421   2.389 -0.6313 -0.5339 -1.1078
   65DG     C17 1489   1.571   1.020   2.348  0.4757 -0.3017 -0.7897
   65DG     C18 1490   1.442   1.224   2.382  0.0410  0.2151  0.7144
   65DG     O19 1491   1.567   1.163   2.369 -0.5747 -0.2597  0.1771
   65DG     H20 1492   1.520   0.980   2.435 -0.1841 -0.1287 -1.0875
   65DG     H21 1493   1.518   0.994   2.256 -0.6430  2.6584 -1.1165
   65DG     H22 1494   1.381   1.179   2.460 -0.9950 -1.6853 -1.1057
   65DG     H23 1495   1.392   1.201   2.288 -0.3119  1.5453  0.5484
   66DG      C1 1496   5.135   3.497   4.968 -0.0950 -0.3608 -0.5163
   66DG      C2 1497   5.348   3.359   5.556  0.3073  0.3930 -0.0437
   66DG      H3 1498   5.121   3.601   4.998  2.4598  0.2072 -1.0316
   66DG      H4 1499   5.077   3.477   4.878 -0.7424 -1.9317  0.2106
   66DG      H5 1500   5.243   3.486   4.953  0.7043  1.9556  2.4888
   66DG      H6 1501   5.336   3.318   5.656 -3.3194  2.0399  0.3364
   66DG      H7 1502   5.433   3.320   5.500  0.8770  0.5169  0.7251
   66DG      H8 1503   5.353   3.468   5.566 -2.1622  0.4461  1.3764
   66DG      O9 1504   5.083   3.407   5.068  0.2335 -0.1519 -0.1697
   66DG     O10 1505   5.223   3.326   5.495 -0.1260  0.0114  0.3356
   66DG     C11 1506   4.952   3.453   5.108 -0.3261 -0.3890  0.6471
   66DG     C12 1507   5.104   3.378   5.552  0.5843 -0.3906 -0.4113
   66DG     H13 1508   4.881   3.418   5.032 -1.3514  0.9462  0.9519
   66DG     H14 1509   4.930   3.559   5.113  1.6105  0.0672  0.1139
   66DG     H15 1510   5.119   3.486   5.546 -1.1999 -0.0165  1.1315
   66DG     H16 1511   5.093   3.346   5.655  0.2013  4.0465  1.1245
   66DG     C17 1512   4.918   3.363   5.234  0.6115 -0.5150  0.0061
   66DG     C18 1513   4.977   3.345   5.469 -0.5996 -0.7317 -0.0884
   66DG     O19 1514   5.013   3.382   5.335 -0.0915  0.0734 -0.2256
   66DG     H20 1515   4.911   3.259   5.205  1.5194 -0.3060 -1.0408
   66DG     H21 1516   4.819   3.398   5.265  1.3374  2.7566 -0.9284
   66DG     H22 1517   4.958   3.239   5.484  0.6672 -0.6796  2.3396
   66DG     H23 1518   4.894   3.403   5.510 -0.6237  0.0924 -1.2509
   67DG      C1 1519   2.332   4.300   3.187 -0.2596  0.4362 -0.2965
   67DG      C2 1520   2.557   4.436   2.715  0.0345 -0.0057 -0.6441
   67DG      H3 1521   2.338   4.242   3.280 -0.3545 -0.1414 -0.6472
   67DG      H4 1522   2.251   4.256   3.129  1.3745 -0.9498 -1.6416
   67DG      H5 1523   2.317   4.405   3.210  0.2138  0.6110 -0.7726
   67DG      H6 1524   2.625   4.458   2.633  0.2441 -1.3352 -0.8608
   67DG      H7 1525   2.451   4.430   2.690  0.2015 -2.9005 -1.0808
   67DG      H8 1526   2.573   4.515   2.788 -0.7476 -0.2802 -0.1525
   67DG      O9 1527   2.457   4.282   3.121  0.3248  0.6046 -0.3044
   67DG     O10 1528   2.596   4.320   2.780  0.0416  0.0148 -0.3216
   67DG     C11 1529   2.575   4.320   3.189 -0.1612 -0.1521 -0.0036
   67DG     C12 1530   2.735   4.320   2.790  0.2423  0.3410  0.1055
   67DG     H13 1531   2.601   4.242   3.261  1.1712 -0.3640 -0.6814
   67DG     H14 1532   2.566   4.413   3.245  0.2032 -1.1157  1.7194
   67DG     H15 1533   2.788   4.403   2.837  0.1205 -0.0144  0.8841
   67DG     H16 1534   2.780   4.299   2.693 -0.5952  0.8368 -0.4031
   67DG     C17 1535   2.685   4.334   3.082  0.6800 -0.3993 -0.8831
   67DG     C18 1536   2.769   4.217   2.891 -0.0230  0.8485 -0.1833
   67DG     O19 1537   2.679   4.217   3.002 -0.7692  0.1519  0.0079
   67DG     H20 1538   2.784   4.346   3.125  1.2146 -6.2189  0.2512
   67DG     H21 1539   2.670   4.425   3.023  0.8685 -0.4126 -0.9518
   67DG     H22 1540   2.760   4.119   2.844 -0.4079  1.4589 -1.4236
   67DG     H23 1541   2.875   4.223   2.915  0.1441  2.3554 -1.1660
   68DG      C1 1542   1.447   4.639   1.907 -0.0751 -0.9467 -0.8744
   68DG      C2 1543   1.862   4.632   2.437 -0.1481  0.1052  0.4229
   68DG      H3 1544   1.455   4.731   1.964 -3.2123 -1.3161  0.3428
   68DG      H4 1545   1.473   4.544   1.954 -1.8361 -1.9466 -1.7950
   68DG      H5 1546   1.340   4.638   1.888  0.0240 -2.3459 -1.4912
   68DG      H6 1547   1.780   4.691   2.479 -1.0851 -0.3502 -0.7008
   68DG      H7 1548   1.860   4.540   2.497  0.9153  0.5635  1.1898
   68DG      H8 1549   1.948   4.696   2.450 -0.8945  1.0542  0.8367
   68DG      O9 1550   1.509   4.651   1.786 -0.1690 -0.5638  0.0075
   68DG     O10 1551   1.845   4.600   2.296 -0.0429  0.0444  0.1269
   68DG     C11 1552   1.651   4.637   1.803 -1.0856  1.0489 -0.4947
   68DG     C12 1553   1.807   4.723   2.221 -0.8344  0.1630  0.2684
   68DG     H13 1554   1.692   4.625   1.702 -1.9628 -0.5062 -0.6861
   68DG     H14 1555   1.679   4.548   1.859 -0.4759  1.8156  0.4565
   68DG     H15 1556   1.884   4.796   2.246 -0.4743  0.5647 -1.8703
   68DG     H16 1557   1.713   4.760   2.261 -0.5908  0.2035  0.8103
   68DG     C17 1558   1.719   4.762   1.870  1.0612 -0.1000  0.3657
   68DG     C18 1559   1.806   4.680   2.077  0.3799  0.1319  0.5686
   68DG     O19 1560   1.715   4.771   2.014 -0.3364 -0.8367  0.2090
   68DG     H20 1561   1.666   4.853   1.840  0.4236 -0.6894 -0.3414
   68DG     H21 1562   1.824   4.775   1.843  1.3023  0.1939  1.3858
   68DG     H22 1563   1.904   4.700   2.034  0.5898  1.7542  1.7068
   68DG     H23 1564   1.780   4.575   2.062  1.4896  0.0951 -1.4043
   69DG      C1 1565   4.380   1.273   2.316  0.4346 -0.0028  0.0995
   69DG      C2 1566   4.923   1.049   2.545  0.0492  0.0773 -1.1492
   69DG      H3 1567   4.344   1.171   2.306  1.4068 -0.3592  0.1693
   69DG      H4 1568   4.354   1.332   2.228  0.3458  1.5984  1.1480
   69DG      H5 1569   4.341   1.308   2.412 -0.4487 -1.3073  0.2274
   69DG      H6 1570   4.932   1.124   2.624 -0.9257  0.2865 -1.2259
   69DG      H7 1571   4.861   0.964   2.573  1.0018 -0.4182 -0.4676
   69DG      H8 1572   5.021   1.001   2.535 -0.6558 -1.3322 -1.5680
   69DG      O9 1573   4.518   1.259   2.326 -0.0457  0.5139 -0.4850
   69DG     O10 1574   4.886   1.101   2.419  0.1141 -0.2408 -0.4803
   69DG     C11 1575   4.578   1.383   2.331 -0.8597 -0.4674 -0.6422
   69DG     C12 1576   4.971   1.207   2.378 -0.4425 -0.1260  0.7560
   69DG     H13 1577   4.524   1.443   2.404 -0.2797 -0.8309  0.0956
   69DG     H14 1578   4.570   1.441   2.239 -2.0778  0.7691  0.1931
   69DG     H15 1579   5.067   1.159   2.358  0.6429  1.6524  1.4380
   69DG     H16 1580   4.972   1.290   2.449  3.5054  2.1296 -1.5661
   69DG     C17 1581   4.727   1.375   2.363 -0.3608 -0.5972 -0.3467
   69DG     C18 1582   4.914   1.274   2.249  0.3408 -0.0087 -0.5451
   69DG     O19 1583   4.774   1.300   2.256 -0.2011 -0.7044  0.4416
   69DG     H20 1584   4.751   1.324   2.456 -0.1753  0.5259  0.2477
   69DG     H21 1585   4.767   1.476   2.356  1.2184 -1.1744  0.0273
   69DG     H22 1586   4.966   1.369   2.236  0.7139 -0.3685 -1.8606
   69DG     H23 1587   4.937   1.208   2.166  1.6252  0.3246 -0.4761
   70DG      C1 1588   3.333   3.668   1.572  0.2529  0.5051  0.1923
   70DG      C2 1589   3.432   3.195   2.158  0.5588  0.0556 -0.1357
   70DG      H3 1590   3.242   3.690   1.517  0.8032  1.8018 -0.2534
   70DG      H4 1591   3.385   3.597   1.507  0.1053 -0.2538  0.8868
   70DG      H5 1592   3.389   3.761   1.585  0.0295  0.7644 -0.6552
   70DG      H6 1593   3.372   3.170   2.245 -1.7987 -0.4835 -1.8309
   70DG      H7 1594   3.458   3.100   2.111  2.4147  0.1689  0.5466
   70DG      H8 1595   3.528   3.238   2.188 -0.7239  1.3849  2.2962
   70DG      O9 1596   3.294   3.616   1.699  0.0552 -1.0513 -0.5115
   70DG     O10 1597   3.355   3.290   2.080 -0.2179 -0.5111  0.1331
   70DG     C11 1598   3.242   3.720   1.778 -0.1863  0.0916  0.8255
   70DG     C12 1599   3.321   3.403   2.153 -0.1277 -0.0170  0.0134
   70DG     H13 1600   3.157   3.768   1.731 -1.1053 -1.1277  1.1940
   70DG     H14 1601   3.309   3.804   1.796  2.1732 -1.7776  1.3341
   70DG     H15 1602   3.417   3.449   2.175  2.0917 -3.6139 -1.2349
   70DG     H16 1603   3.283   3.381   2.253  1.5995  1.6556  1.1045
   70DG     C17 1604   3.180   3.657   1.907 -0.2241  0.0355 -0.0835
   70DG     C18 1605   3.220   3.501   2.079 -0.3463  0.0483 -0.0283
   70DG     O19 1606   3.267   3.561   1.963 -0.1469  1.0391  0.3892
   70DG     H20 1607   3.081   3.617   1.886 -0.5336  1.6706 -2.0493
   70DG     H21 1608   3.164   3.735   1.981  0.6606 -0.8536  1.1050
   70DG     H22 1609   3.130   3.440   2.066  0.7533 -1.7663  0.5296
   70DG     H23 1610   3.186   3.583   2.142  0.1638 -0.8271  1.4347
   71DG      C1 1611   4.924   1.461   3.534 -0.0480 -0.0759  0.1428
   71DG      C2 1612   4.668   0.889   3.146 -0.8379  0.0474 -0.2952
   71DG      H3 1613   4.939   1.564   3.500 -0.2623  0.4398  1.5150
   71DG      H4 1614   5.017   1.432   3.582  0.9540  0.4362 -1.4080
   71DG      H5 1615   4.833   1.451   3.594  0.2284 -0.1837  0.5518
   71DG      H6 1616   4.744   0.812   3.162 -2.8948 -2.0578 -0.1685
   71DG      H7 1617   4.591   0.880   3.223  1.5154 -2.6353  1.9955
   71DG      H8 1618   4.621   0.866   3.051 -0.0517  3.5400 -1.6862
   71DG      O9 1619   4.911   1.389   3.423 -0.6785 -0.2389 -0.5331
   71DG     O10 1620   4.720   1.023   3.162 -0.3570 -0.0340 -0.0871
   71DG     C11 1621   5.028   1.389   3.343 -0.7162 -0.0235  0.0096
   71DG     C12 1622   4.833   1.044   3.072 -0.2708  0.3596  0.4546
   71DG     H13 1623   5.097   1.321   3.392  1.7572  0.6043 -2.3519
   71DG     H14 1624   5.080   1.485   3.344  0.0287 -0.4141  0.8730
   71DG     H15 1625   4.796   1.028   2.970  0.0440  2.2244  0.0097
   71DG     H16 1626   4.910   0.968   3.081  1.2341  1.5593 -1.3443
   71DG     C17 1627   5.002   1.338   3.201 -0.0426 -0.5550  1.1643
   71DG     C18 1628   4.893   1.183   3.075 -0.0966 -0.7734  0.4248
   71DG     O19 1629   4.930   1.214   3.205 -0.3561  0.2232 -0.2534
   71DG     H20 1630   5.096   1.325   3.148  0.1785  0.0253  1.4089
   71DG     H21 1631   4.935   1.404   3.146  1.4945  0.2446  0.2046
   71DG     H22 1632   4.977   1.183   3.006 -2.3924 -1.2167 -2.6423
   71DG     H23 1633   4.818   1.257   3.045  0.0442 -0.3573  1.0875
   72DG      C1 1634   5.322   3.727   5.235  1.5909 -0.0966  0.3171
   72DG      C2 1635   5.175   3.056   5.271 -0.1261 -0.4146 -0.2609
   72DG      H3 1636   5.218   3.750   5.212  1.0918 -2.3853  0.0296
   72DG      H4 1637   5.386   3.802   5.190  0.7723 -0.3584 -1.3626
   72DG      H5 1638   5.340   3.744   5.341  1.5739 -0.5352  0.3924
   72DG      H6 1639   5.078   3.094   5.237 -0.6519  0.8288  2.3800
   72DG      H7 1640   5.174   2.948   5.257 -1.9673 -0.8461  2.5121
   72DG      H8 1641   5.188   3.072   5.378  2.0879  1.0619 -0.6800
   72DG      O9 1642   5.350   3.592   5.197 -0.3492 -0.2231  1.1224
   72DG     O10 1643   5.267   3.127   5.189 -0.4232 -1.0857 -0.1126
   72DG     C11 1644   5.490   3.565   5.188  0.6461  0.7610  0.4231
   72DG     C12 1645   5.396   3.102   5.226  0.7034  0.6654  0.2650
   72DG     H13 1646   5.538   3.564   5.286  1.5169  0.0442  0.0045
   72DG     H14 1647   5.551   3.633   5.130  0.6840 -0.8224 -1.5118
   72DG     H15 1648   5.417   2.998   5.201  0.4894  0.7006 -0.0525
   72DG     H16 1649   5.414   3.123   5.332 -0.2471 -0.7574  0.7419
   72DG     C17 1650   5.519   3.433   5.116  0.7093  0.4403  0.4480
   72DG     C18 1651   5.479   3.194   5.142 -0.3481 -0.6773 -0.3680
   72DG     O19 1652   5.458   3.326   5.192 -0.7675 -0.2454  0.5571
   72DG     H20 1653   5.627   3.416   5.110  0.6233 -0.2578  0.8459
   72DG     H21 1654   5.483   3.431   5.013  0.0389 -0.6000  0.6912
   72DG     H22 1655   5.586   3.179   5.160 -0.6198  0.3080  2.6185
   72DG     H23 1656   5.455   3.184   5.036  1.9732 -0.5242 -0.9652
   73DG      C1 1657   5.342   2.591   0.504  0.1021 -0.5972  0.0822
   73DG      C2 1658   4.979   2.898   0.024  0.1823  1.4525 -0.1318
   73DG      H3 1659   5.412   2.655   0.451 -1.6528  0.1494 -1.4260
   73DG      H4 1660   5.338   2.490   0.463 -1.8041 -1.5425  2.3284
   73DG      H5 1661   5.363   2.586   0.611  0.2491 -1.3650  0.0213
   73DG      H6 1662   5.061   2.967   0.009 -0.5019  2.1877 -0.5477
   73DG      H7 1663   4.992   2.813  -0.043  1.2556  0.8509  0.7994
   73DG      H8 1664   4.892   2.956  -0.005 -0.2663  0.7734 -0.1753
   73DG      O9 1665   5.218   2.660   0.477  0.4384  0.2921 -0.8077
   73DG     O10 1666   4.976   2.848   0.157  0.5423  0.3016 -0.3324
   73DG     C11 1667   5.104   2.609   0.541 -0.1485  0.6470 -0.1369
   73DG     C12 1668   4.848   2.787   0.186  0.6385  0.2403 -0.7137
   73DG     H13 1669   5.107   2.606   0.650  0.8126 -0.8257 -0.1654
   73DG     H14 1670   5.088   2.510   0.497  2.9500 -0.4577  0.9712
   73DG     H15 1671   4.855   2.689   0.138 -0.9356 -1.1098  1.5980
   73DG     H16 1672   4.760   2.830   0.138  1.0044  1.6064 -0.1989
   73DG     C17 1673   4.967   2.690   0.520 -0.6151  0.2076 -0.6117
   73DG     C18 1674   4.839   2.770   0.340 -0.5442 -0.1197 -0.4730
   73DG     O19 1675   4.966   2.711   0.389 -0.1237 -0.6179  0.2235
   73DG     H20 1676   4.965   2.774   0.589  0.0494  0.9083 -1.4214
   73DG     H21 1677   4.894   2.617   0.556 -0.5562  1.3912  2.1031
   73DG     H22 1678   4.808   2.855   0.402 -0.6890 -1.2265  1.0312
   73DG     H23 1679   4.760   2.698   0.358  0.3411 -1.6002 -2.1744
   74DG      C1 1680   3.644   1.025   5.315  0.0614 -0.3193 -0.1861
   74DG      C2 1681   3.878   1.584   5.588  0.0433 -0.4679 -0.1108
   74DG      H3 1682   3.596   0.986   5.405 -1.1061  1.5763  0.0675
   74DG      H4 1683   3.748   1.018   5.350  0.1144 -2.1256 -0.6255
   74DG      H5 1684   3.628   0.966   5.226 -0.4970  2.6789 -2.2194
   74DG      H6 1685   3.863   1.692   5.598  1.4504 -0.1318 -1.2260
   74DG      H7 1686   3.950   1.532   5.651 -0.0354 -1.6016 -0.9305
   74DG      H8 1687   3.917   1.591   5.486 -1.2892  0.9294 -0.5629
   74DG      O9 1688   3.612   1.165   5.294  0.5685  0.0489  0.9786
   74DG     O10 1689   3.751   1.512   5.581 -0.3419  0.3519  0.2616
   74DG     C11 1690   3.681   1.243   5.194  0.1695  0.5199  0.6018
   74DG     C12 1691   3.648   1.589   5.510 -0.4661  0.6466 -0.5846
   74DG     H13 1692   3.664   1.204   5.094 -1.4671  0.1252  0.9919
   74DG     H14 1693   3.789   1.239   5.201  0.2560  0.3256 -0.5939
   74DG     H15 1694   3.642   1.693   5.543  1.0902  0.3846  0.6623
   74DG     H16 1695   3.545   1.561   5.533 -0.2744  0.3065 -0.1173
   74DG     C17 1696   3.635   1.386   5.208 -0.1096  0.3741 -0.5127
   74DG     C18 1697   3.653   1.575   5.361 -0.0358  0.4466 -0.4411
   74DG     O19 1698   3.675   1.433   5.338  0.6180  0.0684 -0.1422
   74DG     H20 1699   3.527   1.377   5.199  0.1574 -3.4850 -1.4794
   74DG     H21 1700   3.685   1.450   5.135  2.6028 -0.9037  0.0846
   74DG     H22 1701   3.555   1.611   5.329  0.4754  0.2393 -2.3806
   74DG     H23 1702   3.731   1.627   5.306 -1.3069  2.9274 -0.0390
   75DG      C1 1703   2.367   4.566   4.106 -0.1055  0.5636 -0.2762
   75DG      C2 1704   2.174   4.904   3.570 -0.4671 -0.4489  0.3028
   75DG      H3 1705   2.445   4.643   4.111 -0.4793  0.9027  0.7692
   75DG      H4 1706   2.398   4.497   4.028  0.4628  1.4808 -0.8966
   75DG      H5 1707   2.362   4.517   4.203  0.9579 -2.0550 -1.4774
   75DG      H6 1708   2.244   4.832   3.529 -1.1194 -1.3533  0.7547
   75DG      H7 1709   2.090   4.910   3.500 -0.4477 -0.9404  0.2357
   75DG      H8 1710   2.206   5.008   3.563 -0.8603 -0.3489 -0.1376
   75DG      O9 1711   2.243   4.627   4.072  0.3517 -0.3297 -0.5191
   75DG     O10 1712   2.127   4.864   3.694  0.1905 -0.4668 -0.5136
   75DG     C11 1713   2.199   4.725   4.165  0.1185 -0.8649  0.4278
   75DG     C12 1714   2.066   4.968   3.764 -0.1170 -0.3714 -0.4990
   75DG     H13 1715   2.286   4.785   4.192 -1.0864  0.6454  1.0910
   75DG     H14 1716   2.153   4.682   4.254 -1.7494 -1.0863 -0.6015
   75DG     H15 1717   1.978   5.008   3.712 -0.3032 -1.3322 -0.9491
   75DG     H16 1718   2.144   5.041   3.783  0.8043 -1.7000  1.0854
   75DG     C17 1719   2.085   4.814   4.095  0.0357  0.7242 -0.3676
   75DG     C18 1720   2.013   4.932   3.902 -0.4167  0.2405  0.7232
   75DG     O19 1721   2.117   4.860   3.963  0.5055 -0.0483 -0.2735
   75DG     H20 1722   2.063   4.894   4.166  2.3876  1.2264 -0.1131
   75DG     H21 1723   1.991   4.760   4.085 -0.6802  1.7533  0.5822
   75DG     H22 1724   1.986   5.020   3.962 -0.4449  1.2456 -0.7096
   75DG     H23 1725   1.927   4.866   3.906 -0.4586  0.3565  2.8435
   76DG      C1 1726   2.780   3.760   0.521  0.6242  0.6281  0.0424
   76DG      C2 1727   3.121   4.046   1.248 -0.7514 -0.0304  0.9069
   76DG      H3 1728   2.687   3.769   0.577  2.2496 -1.5518  3.3812
   76DG      H4 1729   2.797   3.652   0.513  2.0585  0.8532 -0.3057
   76DG      H5 1730   2.771   3.816   0.428  0.1241  0.3641 -0.0693
   76DG      H6 1731   3.152   3.965   1.315  0.0174 -0.1172  0.4630
   76DG      H7 1732   3.206   4.115   1.248 -0.7891  0.0269  0.2371
   76DG      H8 1733   3.036   4.105   1.281 -1.0984 -0.2180  0.3673
   76DG      O9 1734   2.891   3.813   0.593 -0.0452 -0.3815 -0.0006
   76DG     O10 1735   3.122   3.993   1.109  0.1587  0.2258 -0.3349
   76DG     C11 1736   2.904   3.742   0.723 -0.0684  0.2014  0.2718
   76DG     C12 1737   3.103   4.075   0.997 -0.6715  0.2938  0.1116
   76DG     H13 1738   2.910   3.634   0.709 -1.7949  0.0442  0.4433
   76DG     H14 1739   2.821   3.759   0.792  1.1693 -0.8248  2.0737
   76DG     H15 1740   3.180   4.152   0.990  0.8161 -1.1547  0.1307
   76DG     H16 1741   3.001   4.114   0.999 -0.8772 -0.2629  0.9316
   76DG     C17 1742   3.039   3.784   0.790 -0.0194 -0.6727 -0.0364
   76DG     C18 1743   3.127   3.985   0.875  0.1409  0.2922  0.0984
   76DG     O19 1744   3.011   3.908   0.860 -0.6458  0.3491 -0.2735
   76DG     H20 1745   3.114   3.797   0.711 -0.1750  0.4256 -0.0265
   76DG     H21 1746   3.075   3.716   0.867 -0.9342 -0.3265  0.7167
   76DG     H22 1747   3.156   4.044   0.788 -0.0590  1.7708  1.0163
   76DG     H23 1748   3.206   3.913   0.898 -1.0187 -0.8561  0.6091
   77DG      C1 1749   2.336   1.244   3.362 -0.4168  0.4970 -0.2795
   77DG      C2 1750   2.315   0.949   2.760 -0.3606 -0.6593 -0.2477
   77DG      H3 1751   2.377   1.323   3.425 -0.0732 -0.6124  0.9424
   77DG      H4 1752   2.312   1.148   3.407 -1.0543  0.6399 -0.3081
   77DG      H5 1753   2.242   1.282   3.322 -1.5154 -0.2146  1.5079
   77DG      H6 1754   2.274   0.864   2.813  0.6953 -0.4135  1.0234
   77DG      H7 1755   2.233   1.017   2.736 -1.3727 -1.7757 -0.0020
   77DG      H8 1756   2.353   0.916   2.663 -1.5376  1.7243 -1.6190
   77DG      O9 1757   2.411   1.220   3.246 -0.0445  0.5553  0.3079
   77DG     O10 1758   2.415   1.019   2.835 -0.9928 -0.2405  0.0413
   77DG     C11 1759   2.545   1.177   3.279 -0.3433  0.7363 -0.2647
   77DG     C12 1760   2.515   0.929   2.863 -0.2859 -0.2052  0.3276
   77DG     H13 1761   2.537   1.083   3.334  0.7703 -0.0396 -1.3796
   77DG     H14 1762   2.602   1.238   3.349  1.3929 -1.8772  0.7622
   77DG     H15 1763   2.568   0.907   2.770 -3.0600  1.7538 -1.9238
   77DG     H16 1764   2.473   0.836   2.902  0.8859 -0.8014  0.2010
   77DG     C17 1765   2.619   1.141   3.153 -0.5096  0.0484 -0.0835
   77DG     C18 1766   2.609   0.991   2.971 -0.1323  0.4610 -0.1393
   77DG     O19 1767   2.540   1.059   3.077  0.2711  1.0925  0.5850
   77DG     H20 1768   2.718   1.102   3.176 -2.1970 -3.6096  1.9865
   77DG     H21 1769   2.649   1.236   3.110  0.3806  0.2858  1.0331
   77DG     H22 1770   2.664   0.903   3.006 -0.2983  0.9962  1.5666
   77DG     H23 1771   2.675   1.064   2.924  0.0567 -0.6888 -1.7558
   78DG      C1 1772   3.508   2.466   0.713  0.6364 -0.3227  0.8975
   78DG      C2 1773   3.765   1.853   0.966 -0.1310 -0.0444 -0.1350
   78DG      H3 1774   3.501   2.474   0.605 -0.5461 -2.6575  0.7257
   78DG      H4 1775   3.604   2.505   0.748  0.6923 -0.2474  0.6627
   78DG      H5 1776   3.422   2.521   0.750 -0.0003 -2.2111  2.3969
   78DG      H6 1777   3.844   1.888   1.032 -0.1884 -0.4719  0.1658
   78DG      H7 1778   3.735   1.762   1.017  1.2184 -1.4574 -1.7266
   78DG      H8 1779   3.803   1.819   0.869 -2.4533 -1.3694 -0.6659
   78DG      O9 1780   3.506   2.328   0.755 -0.1349 -0.6756 -0.2371
   78DG     O10 1781   3.647   1.930   0.932 -0.0668 -0.3212 -0.4271
   78DG     C11 1782   3.394   2.265   0.689 -0.6190  0.1671 -0.6242
   78DG     C12 1783   3.530   1.860   0.887  0.5969  0.8619 -0.6540
   78DG     H13 1784   3.417   2.225   0.590  0.2601 -1.7949  0.3176
   78DG     H14 1785   3.310   2.334   0.692  0.6847  1.8850 -1.7983
   78DG     H15 1786   3.514   1.779   0.958  2.1848  1.1250  0.0496
   78DG     H16 1787   3.542   1.820   0.787 -0.1100  0.7538 -0.7043
   78DG     C17 1788   3.346   2.146   0.777  0.0312  0.6930 -0.2878
   78DG     C18 1789   3.416   1.959   0.894 -0.1845  0.6892 -0.2920
   78DG     O19 1790   3.458   2.065   0.806 -0.0506  0.6968  0.8939
   78DG     H20 1791   3.272   2.093   0.718 -0.5174 -0.5759  1.4619
   78DG     H21 1792   3.298   2.190   0.865 -2.2846  0.2228 -1.2423
   78DG     H22 1793   3.328   1.904   0.860  0.6686  0.0847 -1.6339
   78DG     H23 1794   3.386   1.996   0.991  0.1698  0.0201  0.0848
   79DG      C1 1795   3.753   3.022   4.821  0.7454 -0.6834 -0.7002
   79DG      C2 1796   3.878   3.269   5.408  0.1980  0.5654  0.0564
   79DG      H3 1797   3.695   3.114   4.823 -3.2564 -3.0089  0.6325
   79DG      H4 1798   3.682   2.939   4.811 -0.2799 -0.2132  1.9275
   79DG      H5 1799   3.830   3.034   4.744  2.8179  1.9734  1.5685
   79DG      H6 1800   3.824   3.249   5.501  1.3018 -0.9888  0.4202
   79DG      H7 1801   3.976   3.310   5.432 -0.5541  1.1287  2.4855
   79DG      H8 1802   3.811   3.346   5.369  0.1224  0.9899  0.9890
   79DG      O9 1803   3.820   3.013   4.943  0.2798  0.4775 -0.1836
   79DG     O10 1804   3.875   3.143   5.348  0.2901  0.9187 -0.0195
   79DG     C11 1805   3.903   2.901   4.967  0.0364  0.5124  0.2337
   79DG     C12 1806   3.954   3.036   5.402  0.2028 -0.6987 -0.3496
   79DG     H13 1807   3.990   2.884   4.904 -0.6823 -1.0998 -0.3992
   79DG     H14 1808   3.837   2.815   4.955  0.7872  0.1056 -1.2495
   79DG     H15 1809   3.938   3.026   5.510  2.3828  1.5767  0.2849
   79DG     H16 1810   4.059   3.062   5.385 -0.7805  2.1821 -2.8891
   79DG     C17 1811   3.966   2.904   5.111 -0.4404 -0.4300  0.0283
   79DG     C18 1812   3.910   2.900   5.344 -0.6483 -0.1508 -0.1139
   79DG     O19 1813   3.874   2.925   5.209  0.4514  0.1954 -0.4165
   79DG     H20 1814   4.048   2.977   5.111 -0.7193 -0.1117 -0.3143
   79DG     H21 1815   4.010   2.804   5.117 -0.4719 -0.5391 -1.2568
   79DG     H22 1816   3.985   2.823   5.361 -1.3566 -0.8019  0.1302
   79DG     H23 1817   3.822   2.871   5.402 -0.3811  1.1791  0.9855
   80DG      C1 1818   4.171   2.747   3.691  0.8014  0.2535 -0.5216
   80DG      C2 1819   5.047   2.670   3.570  1.1299 -0.4291  0.0153
   80DG      H3 1820   4.173   2.645   3.730 -0.5491  0.2264 -0.4775
   80DG      H4 1821   4.146   2.745   3.585 -1.2601  1.4592 -0.1199
   80DG      H5 1822   4.088   2.785   3.750  1.3207  0.5899 -0.0023
   80DG      H6 1823   5.129   2.731   3.606  1.0596 -0.3281  0.0047
   80DG      H7 1824   5.073   2.569   3.602  1.5741 -1.0486 -2.1353
   80DG      H8 1825   5.058   2.664   3.461 -2.1274  2.0328 -0.6299
   80DG      O9 1826   4.288   2.818   3.718 -0.0594 -0.0918  0.1464
   80DG     O10 1827   4.924   2.733   3.630 -0.1220 -0.1301  0.1538
   80DG     C11 1828   4.399   2.779   3.631  0.8182  0.9149  0.0881
   80DG     C12 1829   4.875   2.853   3.562 -0.0119  0.3550 -0.0663
   80DG     H13 1830   4.378   2.799   3.526 -0.5439 -0.7318  0.0016
   80DG     H14 1831   4.416   2.672   3.646  1.4569  0.6791 -1.9857
   80DG     H15 1832   4.864   2.828   3.457  0.0002  0.4697 -0.0953
   80DG     H16 1833   4.942   2.939   3.567 -0.5247  0.7497  0.1712
   80DG     C17 1834   4.522   2.856   3.672  0.4501  0.0683 -0.3666
   80DG     C18 1835   4.746   2.901   3.623  0.2080 -0.4139 -0.2133
   80DG     O19 1836   4.635   2.821   3.593  0.0145  0.1977 -0.0237
   80DG     H20 1837   4.541   2.828   3.776  0.8429  1.1924 -0.1192
   80DG     H21 1838   4.502   2.963   3.675 -0.6248 -0.0926 -1.0202
   80DG     H22 1839   4.763   2.920   3.729  0.4548 -0.2598 -0.2780
   80DG     H23 1840   4.731   2.991   3.563  0.3676 -0.2574 -0.0184
   81DG      C1 1841   4.280   4.935   2.182 -0.5303 -0.0888  0.0326
   81DG      C2 1842   3.596   4.956   2.386  0.1548 -0.6937 -0.0230
   81DG      H3 1843   4.249   4.877   2.095  1.9296 -4.6317  1.7857
   81DG      H4 1844   4.365   4.871   2.205 -0.5678  0.3524  1.5067
   81DG      H5 1845   4.320   5.031   2.151 -0.1209 -0.3304 -0.1943
   81DG      H6 1846   3.582   4.942   2.278 -0.3653 -1.7033  0.1662
   81DG      H7 1847   3.555   4.869   2.437 -1.0963 -1.1195 -1.6478
   81DG      H8 1848   3.560   5.053   2.418  2.1221  0.0414  0.1100
   81DG      O9 1849   4.190   4.926   2.287 -0.0800 -0.3474 -0.6067
   81DG     O10 1850   3.739   4.952   2.417  0.6363 -0.2611 -0.2444
   81DG     C11 1851   4.227   4.999   2.401 -0.2812 -0.0278  0.3173
   81DG     C12 1852   3.775   4.980   2.551 -0.0692  0.3609  1.0983
   81DG     H13 1853   4.233   5.105   2.376  1.3849 -0.0466  0.5563
   81DG     H14 1854   4.331   4.979   2.425  0.1638  1.0031 -0.6746
   81DG     H15 1855   3.706   4.917   2.607 -0.3568 -0.6583 -0.3330
   81DG     H16 1856   3.750   5.081   2.584 -2.7977  0.1722 -0.1659
   81DG     C17 1857   4.137   4.975   2.518  0.3422 -0.7997 -0.8562
   81DG     C18 1858   3.916   4.933   2.579 -0.1374  0.2970 -0.8230
   81DG     O19 1859   4.002   5.003   2.495  0.2597  0.6426  0.0898
   81DG     H20 1860   4.179   5.037   2.598  1.9164 -2.6648 -0.1572
   81DG     H21 1861   4.153   4.871   2.544 -0.2588 -0.8316 -0.5947
   81DG     H22 1862   3.942   4.949   2.684  0.6978 -2.3868 -0.5431
   81DG     H23 1863   3.908   4.825   2.569 -2.1211  0.1451  1.4713
   82DG      C1 1864   1.439   0.310   2.983  0.7740  0.1675 -0.4591
   82DG      C2 1865   1.226   0.310   2.303 -0.2703 -0.2453 -0.0290
   82DG      H3 1866   1.366   0.390   2.994 -0.7816 -1.3579  0.8949
   82DG      H4 1867   1.539   0.350   2.964  0.4047  1.9977  1.1369
   82DG      H5 1868   1.442   0.253   3.076  0.8082 -1.2772 -1.3000
   82DG      H6 1869   1.298   0.391   2.306 -0.3900 -0.1469  0.1737
   82DG      H7 1870   1.254   0.242   2.223 -1.5494  0.8659 -1.4755
   82DG      H8 1871   1.129   0.356   2.285 -0.1701 -0.2931 -0.7023
   82DG      O9 1872   1.408   0.217   2.880 -0.2513  0.2727  0.0995
   82DG     O10 1873   1.226   0.241   2.431  0.6346  0.0944 -0.4492
   82DG     C11 1874   1.285   0.154   2.907  0.0741  0.3249 -0.6743
   82DG     C12 1875   1.131   0.130   2.443 -0.0286 -0.3787 -0.4664
   82DG     H13 1876   1.208   0.231   2.917  0.4243  0.7351 -1.0954
   82DG     H14 1877   1.289   0.105   3.004  1.2027 -0.9804 -1.3560
   82DG     H15 1878   1.143   0.069   2.354 -3.1537 -1.0132 -0.5783
   82DG     H16 1879   1.026   0.158   2.454 -0.2233 -1.7728  1.9152
   82DG     C17 1880   1.265   0.055   2.789  0.5199 -0.2282 -0.1761
   82DG     C18 1881   1.176   0.044   2.567  0.0047 -0.8471 -0.4658
   82DG     O19 1882   1.218   0.121   2.682  0.2431 -0.3074  0.6206
   82DG     H20 1883   1.199  -0.027   2.815  1.0647 -0.7191 -0.3031
   82DG     H21 1884   1.359   0.014   2.752  0.8764 -0.0093  0.4808
   82DG     H22 1885   1.095  -0.020   2.602 -0.1460 -0.3057  0.1945
   82DG     H23 1886   1.263  -0.016   2.541  0.8457 -0.0846  0.5134
   83DG      C1 1887   3.548   2.997   3.853  0.3650  0.3854 -0.1656
   83DG      C2 1888   3.903   3.527   4.120 -0.4770 -0.0848  0.9376
   83DG      H3 1889   3.504   2.962   3.760  2.0209  0.4393 -0.9946
   83DG      H4 1890   3.492   2.971   3.943  0.5025  2.7570  0.6769
   83DG      H5 1891   3.635   2.932   3.850 -0.8698 -1.3010 -0.6294
   83DG      H6 1892   3.969   3.453   4.075 -2.4467 -0.7372 -1.0783
   83DG      H7 1893   3.960   3.620   4.132  0.5479 -0.2873 -1.6737
   83DG      H8 1894   3.878   3.481   4.215 -1.0052 -1.6783  0.0656
   83DG      O9 1895   3.579   3.136   3.856 -0.8783  0.6981  0.6454
   83DG     O10 1896   3.788   3.528   4.043 -0.2700  0.1213 -0.5827
   83DG     C11 1897   3.616   3.187   3.724 -0.3048  0.6603  0.7249
   83DG     C12 1898   3.795   3.595   3.922  0.1729 -0.2642  0.2412
   83DG     H13 1899   3.556   3.142   3.644 -0.5047  0.5264  0.9498
   83DG     H14 1900   3.717   3.145   3.722 -0.4522  0.3174  0.1943
   83DG     H15 1901   3.894   3.587   3.876  0.0610  0.4782 -0.1418
   83DG     H16 1902   3.782   3.703   3.923 -1.2082 -0.4045 -0.0141
   83DG     C17 1903   3.628   3.336   3.711 -0.4049  0.8745 -0.0938
   83DG     C18 1904   3.685   3.533   3.831  0.3612  0.2213 -0.6160
   83DG     O19 1905   3.695   3.390   3.824 -0.2041  0.4752  0.3736
   83DG     H20 1906   3.527   3.376   3.706 -0.9592 -0.3946  0.4248
   83DG     H21 1907   3.682   3.360   3.619 -0.8389 -0.8928 -0.8670
   83DG     H22 1908   3.583   3.566   3.852  0.6513  0.4002  0.5813
   83DG     H23 1909   3.703   3.579   3.734  0.4662 -0.0040 -0.7029
   84DG      C1 1910   5.259   0.473   5.408 -0.2228  0.8168 -0.4001
   84DG      C2 1911   5.598   0.863   5.010  0.2875 -0.3620 -0.5294
   84DG      H3 1912   5.248   0.376   5.360  2.6592  1.3608 -2.4176
   84DG      H4 1913   5.169   0.497   5.466 -0.1737  1.5535 -0.6140
   84DG      H5 1914   5.341   0.471   5.480 -0.5694 -1.6128  0.0100
   84DG      H6 1915   5.640   0.932   4.937  0.7887 -0.3383 -0.2259
   84DG      H7 1916   5.654   0.880   5.102 -0.9093 -1.4207  0.4353
   84DG      H8 1917   5.623   0.762   4.978  1.3417 -0.9955  2.0113
   84DG      O9 1918   5.258   0.575   5.313  0.0507  0.2048 -0.0568
   84DG     O10 1919   5.462   0.879   5.034 -0.0823  0.1617 -0.0280
   84DG     C11 1920   5.215   0.526   5.188 -0.5345 -0.4386  0.6149
   84DG     C12 1921   5.380   0.846   4.925  0.5590 -0.3115 -0.7904
   84DG     H13 1922   5.107   0.507   5.180 -0.3772 -0.6894 -2.3541
   84DG     H14 1923   5.273   0.435   5.172 -1.7642 -1.0727 -0.5102
   84DG     H15 1924   5.405   0.755   4.870 -2.3835 -1.3387 -0.6082
   84DG     H16 1925   5.378   0.929   4.855  1.0080  0.0265 -0.4043
   84DG     C17 1926   5.272   0.616   5.073  0.0238 -0.6217  0.2900
   84DG     C18 1927   5.228   0.825   4.965 -0.1668 -0.1805 -0.2161
   84DG     O19 1928   5.208   0.743   5.079 -0.3709 -0.2784  0.4001
   84DG     H20 1929   5.258   0.568   4.976  1.3885  2.7053 -1.7370
   84DG     H21 1930   5.378   0.629   5.098  0.0940 -0.3134 -0.1542
   84DG     H22 1931   5.177   0.920   4.983  1.1299  0.5775 -0.4335
   84DG     H23 1932   5.185   0.782   4.875  1.1270  0.3149 -1.1037
   85DG      C1 1933   4.346   3.717   3.686  0.2001 -0.1825 -0.4864
   85DG      C2 1934   4.174   3.999   3.111 -0.4319 -0.0460  0.0600
   85DG      H3 1935   4.243   3.748   3.701  0.5693  3.2200 -3.7186
   85DG      H4 1936   4.406   3.783   3.749 -0.3452  0.6179 -0.7973
   85DG      H5 1937   4.358   3.616   3.725 -4.1762  0.5999  3.8826
   85DG      H6 1938   4.187   4.106   3.096  0.5109 -0.5093 -2.9920
   85DG      H7 1939   4.193   3.939   3.023 -2.3470 -0.2938 -0.2212
   85DG      H8 1940   4.072   3.972   3.138  0.2894 -0.4650  2.7061
   85DG      O9 1941   4.372   3.731   3.554 -0.1074  0.5439  0.3807
   85DG     O10 1942   4.256   3.937   3.209  0.2052 -0.4814 -0.0016
   85DG     C11 1943   4.505   3.685   3.521  0.3334 -0.3352 -0.7294
   85DG     C12 1944   4.390   3.981   3.215  0.3914  0.1664  0.3010
   85DG     H13 1945   4.523   3.581   3.549  0.4148 -0.7601 -2.2756
   85DG     H14 1946   4.576   3.753   3.568 -0.3932 -0.7541  1.0606
   85DG     H15 1947   4.382   4.087   3.234  0.0857  0.3615 -0.8096
   85DG     H16 1948   4.433   3.970   3.115 -1.4437  2.3845 -0.8220
   85DG     C17 1949   4.531   3.679   3.377 -0.3557 -0.0074 -0.3232
   85DG     C18 1950   4.470   3.909   3.318 -0.2483  0.3207  0.2875
   85DG     O19 1951   4.441   3.764   3.297 -0.2795 -0.2404 -0.3399
   85DG     H20 1952   4.507   3.576   3.351 -2.2678 -0.2200  1.9333
   85DG     H21 1953   4.637   3.691   3.354  0.3775  1.7711  3.1553
   85DG     H22 1954   4.578   3.925   3.310 -0.4532  1.8869  0.4614
   85DG     H23 1955   4.441   3.945   3.416 -0.9457  0.8328 -0.1001
   86DG      C1 1956   3.699   0.647   1.676  0.2670  0.3925 -0.1351
   86DG      C2 1957   4.179   0.335   1.353  0.6875 -0.4186 -0.4527
   86DG      H3 1958   3.718   0.541   1.692 -0.3544  0.2131 -0.5787
   86DG      H4 1959   3.631   0.647   1.591 -0.8723 -1.6606  0.7038
   86DG      H5 1960   3.641   0.696   1.755  1.8076  0.8701  0.7331
   86DG      H6 1961   4.271   0.287   1.322  0.7237 -1.3291  0.9615
   86DG      H7 1962   4.129   0.253   1.405  0.9007 -0.9700 -1.1039
   86DG      H8 1963   4.104   0.344   1.274 -0.5437 -2.3932  0.4111
   86DG      O9 1964   3.820   0.708   1.643 -0.0524 -0.6700  0.3510
   86DG     O10 1965   4.170   0.450   1.425  0.3524  0.0764 -0.1555
   86DG     C11 1966   3.914   0.724   1.744 -0.7165  0.3185 -0.2152
   86DG     C12 1967   4.249   0.443   1.548  0.3112 -0.1649  0.7669
   86DG     H13 1968   3.911   0.648   1.822 -0.8755 -0.4878 -0.9963
   86DG     H14 1969   3.898   0.825   1.783  0.4061  0.8110 -0.9696
   86DG     H15 1970   4.355   0.427   1.530  0.2462 -0.2608  0.4707
   86DG     H16 1971   4.218   0.363   1.615  0.1596 -0.1033  0.7710
   86DG     C17 1972   4.053   0.728   1.694  0.1479  0.2545  0.2692
   86DG     C18 1973   4.214   0.565   1.624  0.4947  0.0380 -0.4639
   86DG     O19 1974   4.073   0.603   1.620 -0.5872 -0.1018  0.2378
   86DG     H20 1975   4.118   0.735   1.780 -0.7337 -2.7042  1.2942
   86DG     H21 1976   4.068   0.817   1.632  0.5699 -1.8616 -2.8852
   86DG     H22 1977   4.247   0.541   1.725  0.1610 -2.7012 -0.9481
   86DG     H23 1978   4.273   0.644   1.578  1.6589 -1.0793 -0.9598
   87DG      C1 1979   1.791   4.286   3.077  0.7136 -0.5697 -0.2989
   87DG      C2 1980   1.222   4.440   2.989 -0.5137 -0.0834  0.5051
   87DG      H3 1981   1.774   4.375   3.016 -1.1440 -0.1118  0.7900
   87DG      H4 1982   1.896   4.259   3.069  1.2386  0.4244  2.1822
   87DG      H5 1983   1.787   4.320   3.180  0.4005  0.8686 -0.7562
   87DG      H6 1984   1.116   4.421   2.972 -0.0795 -3.6684  1.1680
   87DG      H7 1985   1.229   4.487   3.087 -2.4421 -2.0604  1.6720
   87DG      H8 1986   1.259   4.511   2.914 -1.0439  0.1421  0.4551
   87DG      O9 1987   1.701   4.186   3.039  0.3062  0.1515  0.2585
   87DG     O10 1988   1.287   4.309   2.978 -0.2106 -0.0015 -0.2172
   87DG     C11 1989   1.672   4.106   3.145 -0.1698  0.4023  0.4708
   87DG     C12 1990   1.240   4.218   3.077  0.3295 -0.8698 -0.3668
   87DG     H13 1991   1.633   4.154   3.235 -0.9708 -0.2866  0.5008
   87DG     H14 1992   1.752   4.034   3.166  0.2037  0.5068 -0.5341
   87DG     H15 1993   1.138   4.193   3.050 -0.6817  0.1936  2.1976
   87DG     H16 1994   1.231   4.269   3.173 -1.3875 -0.4965 -0.6944
   87DG     C17 1995   1.546   4.023   3.108 -0.6513  0.5072 -0.2186
   87DG     C18 1996   1.324   4.093   3.079  0.6026  0.2791 -0.1814
   87DG     O19 1997   1.460   4.131   3.081  0.4592  0.1078  0.0946
   87DG     H20 1998   1.523   3.966   3.197  2.1031  1.4651  1.2319
   87DG     H21 1999   1.556   3.958   3.021 -1.4038 -1.3729  1.0331
   87DG     H22 2000   1.306   4.042   3.174  1.7288 -0.1722 -0.1996
   87DG     H23 2001   1.302   4.032   2.992  1.8570 -0.3395 -0.0890
   88DG      C1 2002   4.388   2.711   4.711 -0.0777  0.0992  0.0806
   88DG      C2 2003   4.576   2.368   5.306 -0.5230  0.0753 -0.1494
   88DG      H3 2004   4.398   2.617   4.656 -1.2285  1.4086 -2.5744
   88DG      H4 2005   4.483   2.765   4.709 -1.1303  2.0510 -1.6155
   88DG      H5 2006   4.308   2.767   4.662 -0.0512  0.1038  0.0406
   88DG      H6 2007   4.552   2.308   5.394  0.8258  1.0079  0.8936
   88DG      H7 2008   4.638   2.307   5.241 -0.2913  0.1413  0.0077
   88DG      H8 2009   4.644   2.446   5.341  0.3100 -0.5222 -0.4088
   88DG      O9 2010   4.358   2.683   4.845  0.1410  0.2096  0.5486
   88DG     O10 2011   4.465   2.413   5.238  0.4212 -0.1109 -0.1404
   88DG     C11 2012   4.229   2.629   4.863 -0.4967  0.1026  0.8833
   88DG     C12 2013   4.363   2.474   5.310  0.9199 -0.1734 -0.0666
   88DG     H13 2014   4.236   2.527   4.825  2.3924  1.0337 -1.4446
   88DG     H14 2015   4.149   2.664   4.798  0.4679 -0.7387 -0.8391
   88DG     H15 2016   4.398   2.569   5.350 -1.2124  0.3766  0.6410
   88DG     H16 2017   4.322   2.428   5.400 -1.2856  2.4349  0.4231
   88DG     C17 2018   4.187   2.623   5.013 -0.4030 -0.9138 -0.4350
   88DG     C18 2019   4.242   2.504   5.220  0.2441 -0.3282  0.4028
   88DG     O19 2020   4.279   2.540   5.086 -0.4448 -0.3387 -0.2902
   88DG     H20 2021   4.087   2.594   5.042 -1.4861  2.1749 -0.6819
   88DG     H21 2022   4.208   2.724   5.047  0.1142 -0.0517 -3.0394
   88DG     H22 2023   4.185   2.412   5.208  0.7743 -0.6796  0.5681
   88DG     H23 2024   4.176   2.583   5.257 -1.4548 -0.9408 -1.1612
   89DG      C1 2025   4.951   1.438   4.452  0.2023 -0.3382 -0.1643
   89DG      C2 2026   5.490   1.131   4.138 -0.4931 -0.2083 -0.0557
   89DG      H3 2027   4.941   1.533   4.400  2.3421 -0.9069 -1.7349
   89DG      H4 2028   4.888   1.444   4.540 -0.3465  0.6366 -0.6096
   89DG      H5 2029   4.904   1.374   4.376 -2.4230 -0.6187  1.5566
   89DG      H6 2030   5.435   1.039   4.119  0.0416 -0.1354 -2.1017
   89DG      H7 2031   5.476   1.176   4.040 -0.7754  2.9520  1.2928
   89DG      H8 2032   5.593   1.108   4.163 -0.4571  0.0763  0.0619
   89DG      O9 2033   5.088   1.407   4.478 -1.0806  0.1935 -0.2676
   89DG     O10 2034   5.446   1.209   4.251 -0.3279 -0.4866  0.2481
   89DG     C11 2035   5.159   1.520   4.541 -0.7266 -0.2544 -0.0143
   89DG     C12 2036   5.518   1.327   4.279 -0.5229  0.3799 -0.1602
   89DG     H13 2037   5.124   1.534   4.643  1.7539  0.6551  0.7974
   89DG     H14 2038   5.150   1.609   4.478  0.3258 -0.4511 -0.4636
   89DG     H15 2039   5.510   1.406   4.205 -0.4540  0.2292 -0.3315
   89DG     H16 2040   5.620   1.289   4.279 -1.5265 -2.7010  1.0611
   89DG     C17 2041   5.310   1.479   4.537 -0.5144  0.3668 -0.3536
   89DG     C18 2042   5.487   1.392   4.417  0.1694  0.2735  0.1067
   89DG     O19 2043   5.353   1.415   4.419 -0.4337 -0.4657  0.1371
   89DG     H20 2044   5.324   1.413   4.622 -0.5641  1.6684  0.6970
   89DG     H21 2045   5.385   1.557   4.554 -0.6287  0.2232  0.8945
   89DG     H22 2046   5.509   1.322   4.497 -0.7382 -2.8440 -2.1524
   89DG     H23 2047   5.546   1.482   4.434  0.7500 -0.0887  0.0525
   90DG      C1 2048   4.636   1.275   1.707  0.4545  0.0300  0.2776
   90DG      C2 2049   4.132   1.135   1.260  0.0017 -0.1095  0.5506
   90DG      H3 2050   4.659   1.322   1.802  1.5413 -2.8945  1.5772
   90DG      H4 2051   4.732   1.279   1.656 -0.0147  2.6783 -0.5434
   90DG      H5 2052   4.626   1.168   1.725 -1.9673 -0.0110 -0.8816
   90DG      H6 2053   4.169   1.038   1.293 -1.4748 -1.1241 -0.6176
   90DG      H7 2054   4.025   1.153   1.268  0.1878  1.9247 -0.6842
   90DG      H8 2055   4.152   1.132   1.153 -0.7153  1.5564  0.3326
   90DG      O9 2056   4.525   1.316   1.626 -0.2984 -0.2966 -0.4235
   90DG     O10 2057   4.197   1.238   1.328 -0.2370  0.7097  0.6003
   90DG     C11 2058   4.533   1.453   1.589  0.8162 -0.2631  0.0793
   90DG     C12 2059   4.214   1.362   1.257 -0.1749  0.1814  0.4542
   90DG     H13 2060   4.599   1.461   1.503 -0.2996 -3.7704 -1.2762
   90DG     H14 2061   4.567   1.512   1.674  2.0597 -0.3245 -0.3561
   90DG     H15 2062   4.122   1.389   1.205 -0.0635 -1.1214 -0.4683
   90DG     H16 2063   4.285   1.354   1.175  3.5275  1.2708  3.2531
   90DG     C17 2064   4.405   1.509   1.525  0.4128  0.1002  0.7186
   90DG     C18 2065   4.265   1.482   1.338 -0.0746 -0.0440 -0.0871
   90DG     O19 2066   4.368   1.426   1.419  0.3294 -0.1827 -0.1361
   90DG     H20 2067   4.429   1.609   1.490  0.0300 -0.5064 -1.4775
   90DG     H21 2068   4.325   1.526   1.597 -0.0099 -3.0759  1.1275
   90DG     H22 2069   4.297   1.570   1.283 -0.3747  0.7788  1.0154
   90DG     H23 2070   4.180   1.521   1.393 -0.2875  0.4511 -0.7559
   91DG      C1 2071   4.973   2.490   5.369 -1.0082  0.0658 -0.0025
   91DG      C2 2072   5.438   2.989   5.628  0.7119  1.1565 -0.2672
   91DG      H3 2073   4.892   2.559   5.346 -0.2025  1.2448  0.5835
   91DG      H4 2074   4.942   2.387   5.385 -1.7128  0.4490  1.3114
   91DG      H5 2075   5.045   2.489   5.288 -0.1274 -1.2157  0.7621
   91DG      H6 2076   5.406   3.028   5.531 -1.3674  0.6915  0.1868
   91DG      H7 2077   5.398   3.056   5.703 -1.6668  2.2661 -2.3742
   91DG      H8 2078   5.547   2.982   5.634  0.8500  3.6708  3.8691
   91DG      O9 2079   5.033   2.535   5.492 -0.4931  0.2560 -0.0808
   91DG     O10 2080   5.394   2.857   5.661  0.3560 -0.4636  0.2540
   91DG     C11 2081   5.152   2.458   5.522  0.6860 -0.6947 -0.1133
   91DG     C12 2082   5.424   2.767   5.555 -0.5809  0.3024 -0.1789
   91DG     H13 2083   5.228   2.483   5.448 -0.6291  1.7147 -0.7743
   91DG     H14 2084   5.131   2.355   5.493 -0.5671  0.0166 -1.9009
   91DG     H15 2085   5.529   2.769   5.527 -0.2776  1.8323  0.9298
   91DG     H16 2086   5.363   2.794   5.468  0.6190  0.0179 -1.1382
   91DG     C17 2087   5.202   2.491   5.669  0.4252  0.5773 -0.0022
   91DG     C18 2088   5.400   2.626   5.609 -0.2561 -0.2490  1.1225
   91DG     O19 2089   5.266   2.621   5.665 -0.0412  0.1481 -0.2080
   91DG     H20 2090   5.261   2.411   5.714  1.0298  0.7994 -0.3900
   91DG     H21 2091   5.124   2.494   5.745 -0.3504 -0.8696 -0.7028
   91DG     H22 2092   5.403   2.573   5.514  0.0160  0.6630  0.6093
   91DG     H23 2093   5.470   2.570   5.671 -0.4519 -0.8859  0.7850
   92DG      C1 2094   4.643   0.527   4.081  0.1178 -0.3506 -0.0502
   92DG      C2 2095   4.965   0.618   4.635 -0.4838 -0.6054 -0.9825
   92DG      H3 2096   4.569   0.603   4.105  1.4840  1.3699 -1.1375
   92DG      H4 2097   4.600   0.486   3.989 -1.4951  2.0273 -0.4361
   92DG      H5 2098   4.737   0.570   4.047  1.1427 -1.6444  0.9989
   92DG      H6 2099   5.059   0.661   4.599  0.1699  0.2436  1.5218
   92DG      H7 2100   4.898   0.704   4.629 -1.7111 -1.3985  0.6095
   92DG      H8 2101   4.969   0.600   4.743  0.8634  0.6834 -0.7656
   92DG      O9 2102   4.664   0.436   4.194 -0.1317 -0.2231 -0.5000
   92DG     O10 2103   4.912   0.511   4.565 -1.0037  0.3400 -0.0351
   92DG     C11 2104   4.728   0.318   4.158 -0.3307  0.3499 -0.6419
   92DG     C12 2105   4.996   0.389   4.555 -0.1690  0.9456  0.0759
   92DG     H13 2106   4.791   0.345   4.073 -0.8140  0.5742 -0.9360
   92DG     H14 2107   4.659   0.252   4.106 -1.6993  2.7185 -1.9998
   92DG     H15 2108   5.031   0.347   4.649  1.1878 -2.3771 -1.7180
   92DG     H16 2109   5.084   0.409   4.493  0.9287 -2.8251  0.1758
   92DG     C17 2110   4.791   0.250   4.282  0.6663 -0.0070  0.3752
   92DG     C18 2111   4.909   0.289   4.479 -0.6524 -0.0341 -0.7184
   92DG     O19 2112   4.876   0.340   4.353  0.1918 -0.0359 -0.2657
   92DG     H20 2113   4.854   0.171   4.241 -2.4718 -1.3967 -2.1989
   92DG     H21 2114   4.716   0.198   4.342 -0.2617 -1.1856 -1.6907
   92DG     H22 2115   4.971   0.201   4.460  0.9973  0.3178  2.3503
   92DG     H23 2116   4.824   0.265   4.543  2.1332 -1.4883  2.8031
   93DG      C1 2117   1.295   0.003   3.601 -0.2331  0.3053 -0.5501
   93DG      C2 2118   1.149  -0.261   4.152 -0.0314 -0.4284 -0.5632
   93DG      H3 2119   1.376   0.076   3.596  0.2550 -0.2582 -0.9418
   93DG      H4 2120   1.224   0.060   3.663 -1.4209 -0.0723 -1.5187
   93DG      H5 2121   1.258  -0.009   3.499  0.4101  0.9897 -0.8724
   93DG      H6 2122   1.045  -0.230   4.139  0.3574 -0.0409 -3.1476
   93DG      H7 2123   1.150  -0.323   4.242 -1.6198 -2.3669 -1.8052
   93DG      H8 2124   1.212  -0.174   4.170 -1.2328  0.6101 -1.1799
   93DG      O9 2125   1.327  -0.119   3.673 -0.9746  0.6843 -0.4270
   93DG     O10 2126   1.187  -0.313   4.030 -0.3837  0.1071  0.0095
   93DG     C11 2127   1.391  -0.229   3.602  0.2726 -0.4449  0.1965
   93DG     C12 2128   1.301  -0.399   4.046 -0.0149 -0.3039  0.1275
   93DG     H13 2129   1.489  -0.187   3.580  1.2023 -2.8868 -0.5824
   93DG     H14 2130   1.343  -0.244   3.506  0.5659  1.0817 -0.2214
   93DG     H15 2131   1.260  -0.479   4.107 -2.5568  1.4119  0.8423
   93DG     H16 2132   1.381  -0.353   4.104  0.3116 -1.6459  0.7582
   93DG     C17 2133   1.408  -0.353   3.689  0.5352 -0.1438  0.3115
   93DG     C18 2134   1.349  -0.444   3.908  0.7504 -0.2517  0.3368
   93DG     O19 2135   1.351  -0.336   3.817 -0.1679 -0.3677 -0.3261
   93DG     H20 2136   1.515  -0.373   3.696  0.4333 -1.7811 -1.8632
   93DG     H21 2137   1.376  -0.441   3.633 -0.8644  0.8308 -0.4903
   93DG     H22 2138   1.439  -0.506   3.917  0.0719 -1.3276 -0.0117
   93DG     H23 2139   1.283  -0.518   3.863  2.4669 -2.5672  1.4133
   94DG      C1 2140   0.314   5.168   5.056  0.6577  0.2740 -0.3936
   94DG      C2 2141   0.256   5.675   5.489 -0.5373  0.2751  0.2372
   94DG      H3 2142   0.249   5.243   5.009  0.6485 -0.0909 -0.9807
   94DG      H4 2143   0.265   5.080   5.015  0.6512  0.1620 -0.1478
   94DG      H5 2144   0.411   5.174   5.006  2.1037  0.2491  2.2383
   94DG      H6 2145   0.300   5.709   5.395  1.7425 -0.3166  1.0358
   94DG      H7 2146   0.157   5.722   5.495 -1.3378 -1.3674  0.3923
   94DG      H8 2147   0.319   5.709   5.571  0.9001  0.3225 -0.8424
   94DG      O9 2148   0.315   5.174   5.197 -0.5287 -0.0877 -0.0838
   94DG     O10 2149   0.257   5.536   5.481 -0.2111  0.0815 -0.6521
   94DG     C11 2150   0.229   5.087   5.261 -0.5571  0.1206 -0.0753
   94DG     C12 2151   0.184   5.447   5.575 -0.5599 -0.0213  0.3153
   94DG     H13 2152   0.258   4.985   5.236  0.4763  0.2961  0.3844
   94DG     H14 2153   0.127   5.092   5.222 -0.9743 -3.3941  0.2508
   94DG     H15 2154   0.076   5.458   5.570 -1.3188 -4.1408  2.5503
   94DG     H16 2155   0.205   5.486   5.674 -0.6133  0.1566  0.2563
   94DG     C17 2156   0.224   5.110   5.408 -0.1414 -0.1481 -0.6064
   94DG     C18 2157   0.222   5.299   5.556 -0.4330  0.1418  0.0294
   94DG     O19 2158   0.230   5.252   5.422 -0.0308 -0.4303 -0.4136
   94DG     H20 2159   0.319   5.074   5.448  0.3370 -1.4536 -2.7455
   94DG     H21 2160   0.139   5.064   5.459 -0.1092 -0.6155 -0.9661
   94DG     H22 2161   0.320   5.283   5.601  0.3138  0.2738 -1.4585
   94DG     H23 2162   0.152   5.249   5.622 -1.4984 -0.3900 -1.4590
   95DG      C1 2163   0.680   5.236   1.393 -0.3869 -0.6455  0.4786
   95DG      C2 2164   0.306   5.116   1.957 -0.2265  0.0925 -0.5858
   95DG      H3 2165   0.658   5.311   1.317  1.0977 -1.6047 -0.9501
   95DG      H4 2166   0.617   5.152   1.364 -1.1812 -0.6209  1.9771
   95DG      H5 2167   0.783   5.212   1.369 -0.8370 -0.6600 -1.6275
   95DG      H6 2168   0.256   5.061   1.877  0.9802 -1.9647  0.0064
   95DG      H7 2169   0.351   5.041   2.023 -1.4096  1.1240  1.5003
   95DG      H8 2170   0.236   5.169   2.022  1.4633 -0.3719  1.7554
   95DG      O9 2171   0.637   5.282   1.517  0.1519 -0.4826 -0.2332
   95DG     O10 2172   0.399   5.192   1.885  0.4591  0.7778 -0.8699
   95DG     C11 2173   0.728   5.379   1.574  0.1042  1.3813  0.2741
   95DG     C12 2174   0.488   5.249   1.985  0.2665  0.4064 -0.0761
   95DG     H13 2175   0.739   5.471   1.516 -0.4577  0.9966 -0.4694
   95DG     H14 2176   0.830   5.350   1.595 -0.2909 -0.5069 -0.2409
   95DG     H15 2177   0.569   5.185   2.021  2.7915  1.7745 -2.8536
   95DG     H16 2178   0.442   5.283   2.077 -1.1523  0.2856 -0.7167
   95DG     C17 2179   0.655   5.426   1.707 -0.5378 -0.1856  0.3452
   95DG     C18 2180   0.564   5.354   1.909  0.1526  0.1871 -0.4506
   95DG     O19 2181   0.617   5.314   1.789 -0.4131  0.0261  0.5738
   95DG     H20 2182   0.560   5.474   1.685 -0.2603  0.7030  0.9893
   95DG     H21 2183   0.720   5.491   1.766 -0.0205 -0.3425 -0.0470
   95DG     H22 2184   0.484   5.427   1.897 -2.0594 -1.9377  0.3988
   95DG     H23 2185   0.636   5.393   1.982 -1.5005 -0.3747  1.5811
   96DG      C1 2186   2.524   1.859   1.919 -0.5828 -0.4920  0.4590
   96DG      C2 2187   3.122   2.402   2.056 -0.3709 -0.2978  0.0183
   96DG      H3 2188   2.542   1.767   1.863 -0.2670  1.6250 -3.1745
   96DG      H4 2189   2.461   1.941   1.886 -1.1690 -0.2658  2.0662
   96DG      H5 2190   2.473   1.819   2.006 -0.8657  0.0824  0.5608
   96DG      H6 2191   3.109   2.303   2.013  0.0326 -0.7969  1.0281
   96DG      H7 2192   3.180   2.460   1.985 -0.9203  2.0176  1.3481
   96DG      H8 2193   3.180   2.392   2.148  0.6253 -2.2865 -0.7784
   96DG      O9 2194   2.656   1.908   1.957 -0.1041  0.2751 -0.3011
   96DG     O10 2195   3.001   2.463   2.088  0.0282  0.3702  0.0641
   96DG     C11 2196   2.655   2.039   2.014  0.2021 -0.4408 -0.2194
   96DG     C12 2197   2.893   2.440   1.995  0.2538  0.1660  0.3582
   96DG     H13 2198   2.587   2.046   2.099 -0.1187  1.6496 -0.5873
   96DG     H14 2199   2.614   2.116   1.948 -4.1848 -0.7783  1.7824
   96DG     H15 2200   2.915   2.498   1.906 -1.8050  1.2168  0.4652
   96DG     H16 2201   2.803   2.490   2.033 -1.0908 -2.2420  0.5297
   96DG     C17 2202   2.797   2.072   2.048  0.1728  0.7370 -0.0540
   96DG     C18 2203   2.852   2.294   1.964 -0.5518 -0.1962 -0.2272
   96DG     O19 2204   2.823   2.208   2.076 -0.3509 -0.0805 -0.0871
   96DG     H20 2205   2.864   2.035   1.970 -1.3245 -2.3099 -0.0141
   96DG     H21 2206   2.821   2.009   2.133  0.4076 -1.2967 -1.5460
   96DG     H22 2207   2.769   2.292   1.893 -0.1370  1.5737 -0.7937
   96DG     H23 2208   2.933   2.258   1.901 -1.0684  1.0219 -1.6449
   97DG      C1 2209   3.501   1.435   2.823 -0.1226 -0.3381 -0.5329
   97DG      C2 2210   3.476   1.354   2.174 -0.8509  0.7019  0.3531
   97DG      H3 2211   3.420   1.376   2.864 -0.7343  0.8091 -0.0489
   97DG      H4 2212   3.466   1.533   2.790 -1.3265 -0.0887  1.3909
   97DG      H5 2213   3.577   1.449   2.900  1.3830 -1.2651 -1.7833
   97DG      H6 2214   3.545   1.380   2.094 -0.5665 -0.4478  0.2160
   97DG      H7 2215   3.408   1.285   2.125 -1.4213  2.5553 -1.5873
   97DG      H8 2216   3.432   1.452   2.194 -3.3691 -0.3634  0.4487
   97DG      O9 2217   3.560   1.383   2.707  0.2193 -0.0710  0.1074
   97DG     O10 2218   3.555   1.310   2.283  0.2999  0.0663 -0.0097
   97DG     C11 2219   3.598   1.249   2.730 -0.0846 -0.1004 -0.3085
   97DG     C12 2220   3.633   1.189   2.264 -0.1659  0.0589  0.8612
   97DG     H13 2221   3.511   1.183   2.736  0.6812 -1.2625 -1.4799
   97DG     H14 2222   3.665   1.235   2.815 -1.7492 -0.7394  0.9572
   97DG     H15 2223   3.719   1.222   2.206 -0.8643 -1.0370 -0.9145
   97DG     H16 2224   3.570   1.121   2.206  0.4722  1.3174 -1.4171
   97DG     C17 2225   3.690   1.196   2.620  0.3897  0.2343  0.8429
   97DG     C18 2226   3.681   1.133   2.396 -0.0025  0.3093  0.0866
   97DG     O19 2227   3.614   1.199   2.501  0.2742  0.6748  0.2858
   97DG     H20 2228   3.712   1.095   2.654 -1.2626 -0.3478  0.3150
   97DG     H21 2229   3.780   1.252   2.600 -0.1189  0.5116 -0.7778
   97DG     H22 2230   3.651   1.028   2.396 -1.3558  0.6569 -2.0363
   97DG     H23 2231   3.790   1.132   2.403  0.1528 -2.5482 -1.1600
   98DG      C1 2232   1.299   4.435   2.652 -0.1336  0.1152 -0.8895
   98DG      C2 2233   1.533   4.438   3.286 -0.7773  0.0978  0.3318
   98DG      H3 2234   1.313   4.440   2.544 -0.2821  0.9953 -0.8782
   98DG      H4 2235   1.219   4.505   2.679 -0.1645 -0.2392 -0.0082
   98DG      H5 2236   1.260   4.337   2.681  0.7844  0.5761  2.2896
   98DG      H6 2237   1.443   4.474   3.336 -2.9023  0.8078 -3.5979
   98DG      H7 2238   1.530   4.330   3.304  4.2411 -0.1992  0.9471
   98DG      H8 2239   1.626   4.468   3.334 -0.6909  0.2776  0.0493
   98DG      O9 2240   1.417   4.460   2.726  0.1429 -0.4684  0.6064
   98DG     O10 2241   1.520   4.471   3.153 -0.1407  0.1636  0.6132
   98DG     C11 2242   1.498   4.568   2.680 -0.5371  0.4261  0.3687
   98DG     C12 2243   1.586   4.595   3.133 -0.3667  0.9500  0.7112
   98DG     H13 2244   1.442   4.656   2.710 -1.1945  1.1998 -2.7679
   98DG     H14 2245   1.528   4.564   2.575  3.3638 -2.1000  1.3472
   98DG     H15 2246   1.693   4.587   3.153  0.4175  0.2982 -2.8822
   98DG     H16 2247   1.550   4.673   3.200  0.0393  1.7962 -0.0371
   98DG     C17 2248   1.632   4.565   2.749  0.4979  0.6315  0.2100
   98DG     C18 2249   1.564   4.631   2.982 -0.8950  0.7117  0.0686
   98DG     O19 2250   1.627   4.540   2.892  0.2148 -0.1200 -0.4370
   98DG     H20 2251   1.675   4.664   2.732  0.3473  0.6452 -0.1049
   98DG     H21 2252   1.709   4.507   2.699  0.7535  0.7562  0.4587
   98DG     H22 2253   1.461   4.649   2.948 -0.6146  0.6902 -0.8219
   98DG     H23 2254   1.605   4.729   2.957 -0.9966  0.1412 -2.7111
   99DG      C1 2255   0.297   3.758   3.228 -0.4710  0.2601 -0.4854
   99DG      C2 2256  -0.451   4.144   3.002  0.0149 -0.3032  0.0512
   99DG      H3 2257   0.305   3.835   3.305  0.4695 -1.8263  1.5837
   99DG      H4 2258   0.390   3.756   3.170 -0.6186  1.7185 -0.8311
   99DG      H5 2259   0.281   3.658   3.267  0.3817 -1.0196 -3.1581
   99DG      H6 2260  -0.512   4.054   3.005  1.3105 -1.2232 -0.6541
   99DG      H7 2261  -0.443   4.182   3.104 -0.9997 -1.5627  0.6274
   99DG      H8 2262  -0.504   4.219   2.943  0.3886  1.6220  2.0128
   99DG      O9 2263   0.193   3.797   3.145 -0.3163 -0.5035  0.2530
   99DG     O10 2264  -0.325   4.115   2.943 -0.4206 -0.3290 -0.3221
   99DG     C11 2265   0.070   3.802   3.216 -0.2508 -0.0621  0.3130
   99DG     C12 2266  -0.237   4.056   3.038 -0.0413 -0.4313  0.4022
   99DG     H13 2267   0.066   3.877   3.295 -2.5867 -0.3594  0.5657
   99DG     H14 2268   0.050   3.703   3.256 -2.7194  0.6591  1.0424
   99DG     H15 2269  -0.290   3.991   3.108  0.7380 -0.3503  1.0789
   99DG     H16 2270  -0.188   4.136   3.093  0.2822 -0.3280 -0.0303
   99DG     C17 2271  -0.050   3.832   3.123 -0.3624 -0.1359  0.2412
   99DG     C18 2272  -0.128   3.983   2.949  0.2550 -0.6713  0.0528
   99DG     O19 2273  -0.025   3.947   3.045  0.1188 -0.3804  0.1386
   99DG     H20 2274  -0.138   3.842   3.187 -1.6371  2.0402 -1.7350
   99DG     H21 2275  -0.060   3.750   3.052 -0.4001  2.5540 -3.0654
   99DG     H22 2276  -0.178   3.906   2.891  0.1049  0.5729 -1.5396
   99DG     H23 2277  -0.077   4.048   2.878  1.8050 -1.8490  0.0324
  100DG      C1 2278   1.812   3.770   2.871 -0.0628 -0.1740 -0.6194
  100DG      C2 2279   1.332   3.789   2.284  0.8497 -0.0678 -0.0810
  100DG      H3 2280   1.809   3.879   2.880  0.6164 -0.2705  1.1441
  100DG      H4 2281   1.918   3.745   2.863  1.0665  3.2791  1.4407
  100DG      H5 2282   1.765   3.716   2.953  1.2901 -0.8520 -0.2655
  100DG      H6 2283   1.296   3.891   2.302  0.0111 -0.5353  1.0199
  100DG      H7 2284   1.386   3.778   2.191  1.0239  0.7392 -0.0844
  100DG      H8 2285   1.249   3.719   2.275  0.4775  0.4836 -1.1148
  100DG      O9 2286   1.731   3.749   2.754  0.3046 -0.2635 -0.4001
  100DG     O10 2287   1.409   3.751   2.394  0.0359 -0.0436  0.1809
  100DG     C11 2288   1.797   3.798   2.637  0.4380 -0.1743 -0.3105
  100DG     C12 2289   1.471   3.628   2.384  0.0991  0.2378  0.1003
  100DG     H13 2290   1.895   3.751   2.627  1.9860  2.2966  1.8874
  100DG     H14 2291   1.825   3.902   2.650  1.5445 -0.5403  0.4225
  100DG     H15 2292   1.534   3.617   2.296  0.2600  0.1851  0.2203
  100DG     H16 2293   1.408   3.539   2.377  1.6593 -0.8746 -0.4622
  100DG     C17 2294   1.726   3.785   2.508  0.6249 -0.3451  0.1796
  100DG     C18 2295   1.556   3.602   2.508  0.1868 -0.2510 -0.0952
  100DG     O19 2296   1.691   3.647   2.477  0.1961 -0.2133  0.1377
  100DG     H20 2297   1.792   3.811   2.425 -0.1424  0.1011 -0.3026
  100DG     H21 2298   1.636   3.847   2.497  2.3950  2.0985 -1.7462
  100DG     H22 2299   1.512   3.656   2.592  0.3092 -3.4688  2.1921
  100DG     H23 2300   1.575   3.496   2.526 -1.3278 -0.9251 -2.0278
  101DG      C1 2301   4.434   3.517   4.825  0.0487  0.1302 -0.0480
  101DG      C2 2302   4.768   3.741   4.235 -0.0518 -0.4151  0.6972
  101DG      H3 2303   4.413   3.612   4.874 -0.1470 -1.0291  2.2835
  101DG      H4 2304   4.453   3.456   4.913 -3.0386  0.2198  0.7792
  101DG      H5 2305   4.354   3.469   4.768 -0.6641  0.7407  0.4210
  101DG      H6 2306   4.723   3.840   4.234 -0.4113 -0.5767  0.5344
  101DG      H7 2307   4.869   3.736   4.195 -0.3024  1.7786 -0.3493
  101DG      H8 2308   4.689   3.693   4.177  0.1664  0.3910 -0.2926
  101DG      O9 2309   4.560   3.525   4.754 -0.4492  0.3815  0.2185
  101DG     O10 2310   4.769   3.682   4.361 -0.4500 -0.1638  0.1582
  101DG     C11 2311   4.667   3.579   4.832  0.3898 -0.8673 -0.4250
  101DG     C12 2312   4.863   3.763   4.439 -0.1784 -0.1115 -0.0754
  101DG     H13 2313   4.689   3.519   4.921 -0.5020  0.3246  0.6295
  101DG     H14 2314   4.651   3.682   4.864  4.1813 -0.0704 -0.5583
  101DG     H15 2315   4.818   3.854   4.478 -0.0988  0.2360 -0.7778
  101DG     H16 2316   4.956   3.788   4.387 -0.2360  0.4500  0.0824
  101DG     C17 2317   4.797   3.579   4.753  0.6867  0.0480 -0.5790
  101DG     C18 2318   4.898   3.680   4.565  0.8608 -0.3170  0.0998
  101DG     O19 2319   4.777   3.655   4.641 -0.0248  0.7286 -0.5875
  101DG     H20 2320   4.822   3.475   4.734 -0.2549  0.0511 -1.9512
  101DG     H21 2321   4.875   3.623   4.816 -0.1080  0.5754  0.0687
  101DG     H22 2322   4.946   3.584   4.545  1.2757 -0.1924  0.5033
  101DG     H23 2323   4.969   3.730   4.631  0.7040 -0.0978  0.1036
  102DG      C1 2324   4.811   0.654   2.355  0.0146  0.0033 -0.2462
  102DG      C2 2325   4.811   1.018   1.979  0.4152  0.4330 -0.3514
  102DG      H3 2326   4.861   0.648   2.258  0.2071  1.0056 -0.2184
  102DG      H4 2327   4.770   0.559   2.390 -0.9529  0.9693  1.3632
  102DG      H5 2328   4.894   0.683   2.420 -0.4668  0.2770  0.2525
  102DG      H6 2329   4.815   0.910   1.991  1.8519  0.5458  0.3267
  102DG      H7 2330   4.817   1.030   1.871  0.0690  0.8351 -0.3291
  102DG      H8 2331   4.912   1.042   2.013  1.1294 -0.6194 -1.6582
  102DG      O9 2332   4.708   0.749   2.357  0.0771  0.1362  0.5326
  102DG     O10 2333   4.702   1.085   2.043 -0.5037 -0.2311 -0.4978
  102DG     C11 2334   4.598   0.693   2.284 -0.2745  0.4547 -0.0692
  102DG     C12 2335   4.573   1.050   2.006 -0.1478  0.8659 -0.0375
  102DG     H13 2336   4.564   0.600   2.330  2.2680 -1.3647 -1.6273
  102DG     H14 2337   4.626   0.672   2.182  1.3125 -3.2485  0.9971
  102DG     H15 2338   4.556   1.043   1.899 -4.2527 -1.4811  0.5524
  102DG     H16 2339   4.504   1.124   2.048 -0.4941  1.0893 -0.9734
  102DG     C17 2340   4.480   0.799   2.277 -0.1146  0.2038 -0.5630
  102DG     C18 2341   4.533   0.914   2.071  0.2079  0.6840  0.9340
  102DG     O19 2342   4.528   0.911   2.216 -0.4018 -0.0757 -0.4096
  102DG     H20 2343   4.442   0.815   2.378 -0.7363 -0.5231 -0.6682
  102DG     H21 2344   4.397   0.767   2.215 -0.2712 -0.7710  0.1100
  102DG     H22 2345   4.436   0.891   2.027  1.1026  0.3021 -0.9156
  102DG     H23 2346   4.601   0.843   2.025  1.2836  1.3749  1.4320
  103DG      C1 2347   3.442   3.445   4.223 -0.8937 -0.3125 -0.1531
  103DG      C2 2348   3.952   3.083   3.987 -0.4141  0.2210  0.4303
  103DG      H3 2349   3.494   3.533   4.186 -0.4931  0.1919  1.5194
  103DG      H4 2350   3.475   3.429   4.325 -0.8569 -2.4677 -0.4517
  103DG      H5 2351   3.337   3.476   4.228 -0.2606  1.9539 -0.0008
  103DG      H6 2352   3.926   3.087   3.881 -2.0468 -0.3585  0.7836
  103DG      H7 2353   4.015   3.172   3.985 -0.1954  0.0969  1.5473
  103DG      H8 2354   4.012   2.994   4.007 -1.2673  0.1248  2.7931
  103DG      O9 2355   3.471   3.338   4.145  0.1496 -0.6276 -0.3866
  103DG     O10 2356   3.836   3.087   4.071  0.5080  0.4190 -0.1113
  103DG     C11 2357   3.407   3.223   4.188  0.4786 -0.0757 -0.5304
  103DG     C12 2358   3.855   3.050   4.209 -0.0757  0.2220  0.0931
  103DG     H13 2359   3.381   3.157   4.105  1.9071 -0.8780 -0.3790
  103DG     H14 2360   3.318   3.249   4.244  0.7633 -0.4826  0.1202
  103DG     H15 2361   3.921   3.119   4.262 -2.0649  1.5354  0.9776
  103DG     H16 2362   3.900   2.951   4.217 -0.0935  0.3335  1.9569
  103DG     C17 2363   3.505   3.146   4.276 -0.4429  0.0073  0.0596
  103DG     C18 2364   3.710   3.031   4.269 -0.6390  0.2742  0.5548
  103DG     O19 2365   3.622   3.118   4.207 -0.1451 -0.3819  0.5165
  103DG     H20 2366   3.452   3.059   4.315  0.7501 -0.2137  1.2499
  103DG     H21 2367   3.517   3.211   4.362 -0.7560  0.7363 -0.4377
  103DG     H22 2368   3.672   2.929   4.263  1.2906 -0.4700  0.3292
  103DG     H23 2369   3.729   3.050   4.375  2.1935 -0.9897  0.3611
  104DG      C1 2370   2.387   5.234   3.393  0.0773  0.3390  0.6099
  104DG      C2 2371   2.944   4.613   3.228  0.7769  0.7026  0.1131
  104DG      H3 2372   2.281   5.217   3.380 -0.1849  1.6685  0.8516
  104DG      H4 2373   2.420   5.322   3.338 -0.2083 -0.3318 -0.6626
  104DG      H5 2374   2.396   5.266   3.497  1.3871  2.8302 -0.1853
  104DG      H6 2375   2.954   4.675   3.139 -0.0410  0.1373 -0.3915
  104DG      H7 2376   3.029   4.631   3.293  1.6028  0.7228 -0.9306
  104DG      H8 2377   2.951   4.512   3.186 -0.1493  1.4332 -1.9681
  104DG      O9 2378   2.481   5.132   3.361  0.6585  0.1569  0.5194
  104DG     O10 2379   2.812   4.639   3.289 -0.5942  0.2558 -0.4308
  104DG     C11 2380   2.620   5.165   3.365 -0.3091 -0.1288 -0.2378
  104DG     C12 2381   2.816   4.768   3.332  0.2754  0.0579  0.4051
  104DG     H13 2382   2.635   5.242   3.440  3.9378  1.1864 -2.1530
  104DG     H14 2383   2.654   5.198   3.268  0.5626 -1.4691 -0.4150
  104DG     H15 2384   2.808   4.835   3.247 -0.4126  0.1436  0.5254
  104DG     H16 2385   2.902   4.803   3.389  0.2872 -0.2002  0.5492
  104DG     C17 2386   2.696   5.040   3.410 -0.0867  0.6195  0.5011
  104DG     C18 2387   2.691   4.795   3.413 -0.4402 -0.1468  0.6906
  104DG     O19 2388   2.638   4.919   3.371 -0.2994 -0.0501  0.2738
  104DG     H20 2389   2.684   5.037   3.518  0.5606  0.9043  0.5794
  104DG     H21 2390   2.803   5.048   3.391 -0.1839  3.8586  0.8290
  104DG     H22 2391   2.613   4.721   3.399 -1.3164  1.3300 -3.7311
  104DG     H23 2392   2.731   4.798   3.515  1.0872  1.0521  0.0980
  105DG      C1 2393   1.703   0.519   2.695 -0.0876  0.0807 -0.1220
  105DG      C2 2394   1.204   0.600   2.859  0.8127  0.1870  0.1920
  105DG      H3 2395   1.763   0.450   2.637  0.6316 -1.0080  1.8376
  105DG      H4 2396   1.691   0.468   2.790 -1.4504 -0.2833 -0.4662
  105DG      H5 2397   1.745   0.619   2.708  1.5348 -0.5949  0.0055
  105DG      H6 2398   1.277   0.672   2.823  0.6140  0.6910  0.7656
  105DG      H7 2399   1.108   0.652   2.868  0.0662 -1.0626 -0.3656
  105DG      H8 2400   1.230   0.572   2.962  2.0032  0.4501 -0.0215
  105DG      O9 2401   1.572   0.529   2.639 -0.2247  0.7107  0.0287
  105DG     O10 2402   1.199   0.492   2.771  0.3541  0.2127  0.2828
  105DG     C11 2403   1.573   0.559   2.498 -0.3555  0.2900  0.1334
  105DG     C12 2404   1.117   0.516   2.659 -0.1949  0.9192 -0.1335
  105DG     H13 2405   1.595   0.477   2.429 -0.8475 -0.0326  0.3531
  105DG     H14 2406   1.649   0.629   2.465 -1.7461  1.5873 -0.4629
  105DG     H15 2407   1.018   0.546   2.694 -0.0898  0.4607  0.5877
  105DG     H16 2408   1.100   0.422   2.605  0.9853 -0.1724  1.3200
  105DG     C17 2409   1.431   0.614   2.468  0.0428  0.3282  0.2549
  105DG     C18 2410   1.202   0.597   2.555  0.6335  0.0377 -0.0148
  105DG     O19 2411   1.332   0.536   2.541  0.4702 -0.1555 -0.2778
  105DG     H20 2412   1.415   0.618   2.360  0.8966  2.8149  0.1452
  105DG     H21 2413   1.425   0.715   2.508 -0.6134  0.4396 -0.1008
  105DG     H22 2414   1.158   0.584   2.456  1.6338 -1.8109 -0.2670
  105DG     H23 2415   1.206   0.703   2.579  1.1678 -0.4164  2.1223
  106DG      C1 2416   3.934   1.824   4.117  0.2168 -0.9127 -0.2242
  106DG      C2 2417   3.868   2.089   3.477  0.2402  0.5523  0.1019
  106DG      H3 2418   4.002   1.802   4.200 -0.6755 -2.5716  0.1008
  106DG      H4 2419   3.960   1.772   4.026 -0.2141  0.3614 -1.1053
  106DG      H5 2420   3.841   1.789   4.162 -0.9259  1.7082 -0.3717
  106DG      H6 2421   3.845   2.191   3.507 -0.9587 -0.2168  2.0228
  106DG      H7 2422   3.934   2.090   3.390  4.0555 -0.3389  2.6812
  106DG      H8 2423   3.779   2.029   3.459 -0.0652  0.5761  1.4060
  106DG      O9 2424   3.918   1.963   4.085 -0.0575  0.3576 -0.5277
  106DG     O10 2425   3.929   2.020   3.586 -0.3964 -0.2734  0.3866
  106DG     C11 2426   4.039   2.041   4.083  0.4195 -0.4906  0.6528
  106DG     C12 2427   4.057   2.059   3.609 -0.2293  0.1119  0.3376
  106DG     H13 2428   4.103   2.027   4.170  0.2558  1.4399  1.1406
  106DG     H14 2429   4.009   2.145   4.074  0.9399 -0.4460 -0.8802
  106DG     H15 2430   4.068   2.167   3.617  3.1095 -0.1004 -0.0753
  106DG     H16 2431   4.118   2.043   3.520 -0.5080  0.8826 -0.0014
  106DG     C17 2432   4.122   2.004   3.957 -0.0433 -0.7029 -0.2140
  106DG     C18 2433   4.105   1.976   3.729 -0.4520  0.0351  0.3982
  106DG     O19 2434   4.038   2.008   3.847  0.1420  0.4471  0.1306
  106DG     H20 2435   4.162   1.903   3.967  0.8290 -0.2553  1.2622
  106DG     H21 2436   4.212   2.065   3.944  0.8635 -1.7592  0.8621
  106DG     H22 2437   4.108   1.868   3.716 -0.7993  0.0546  0.1553
  106DG     H23 2438   4.211   2.002   3.742  0.6083 -2.9524 -1.2646
  107DG      C1 2439   1.985   0.331   1.068  0.2844  0.1514 -0.1510
  107DG      C2 2440   2.464   0.228   0.571  0.4751  0.0106 -0.5044
  107DG      H3 2441   1.959   0.264   0.986 -0.8509  0.8332 -0.3686
  107DG      H4 2442   1.948   0.424   1.026 -0.5616 -0.6078 -1.1439
  107DG      H5 2443   1.925   0.300   1.154  1.3664  1.3448  1.0727
  107DG      H6 2444   2.491   0.137   0.626  1.4347  0.6361  0.0972
  107DG      H7 2445   2.402   0.197   0.487  1.2260 -1.3899 -0.5770
  107DG      H8 2446   2.546   0.281   0.524 -0.1518  0.5995 -0.9601
  107DG      O9 2447   2.126   0.313   1.088  0.2135  0.1178 -0.0598
  107DG     O10 2448   2.401   0.309   0.672  0.5703 -0.1671 -0.6424
  107DG     C11 2449   2.194   0.429   1.141 -0.3802  0.7061  0.7147
  107DG     C12 2450   2.493   0.342   0.770  0.3877 -0.5218  0.4437
  107DG     H13 2451   2.203   0.421   1.250  2.0329 -2.6343  0.4086
  107DG     H14 2452   2.140   0.519   1.111  0.5085  0.1108 -3.1808
  107DG     H15 2453   2.584   0.378   0.722  0.2930 -0.5084  0.2751
  107DG     H16 2454   2.532   0.249   0.812  2.5803  0.3271  0.4358
  107DG     C17 2455   2.336   0.434   1.100 -0.1960  0.0469  0.1061
  107DG     C18 2456   2.440   0.445   0.881 -0.0987  0.5757  0.0450
  107DG     O19 2457   2.336   0.394   0.964 -0.2038  0.0061 -0.2520
  107DG     H20 2458   2.400   0.367   1.158 -0.0456 -0.8048 -1.0080
  107DG     H21 2459   2.368   0.538   1.103 -0.4809  0.1829 -1.1364
  107DG     H22 2460   2.523   0.471   0.946  0.0942 -0.1057  0.0769
  107DG     H23 2461   2.402   0.535   0.832  1.0435  0.9997 -0.0879
  108DG      C1 2462   5.180   5.094   5.091 -0.2267 -0.2289  0.2119
  108DG      C2 2463   4.955   5.419   4.559 -0.3482 -0.0026  0.3404
  108DG      H3 2464   5.159   5.012   5.159  1.7529 -1.4998 -0.6081
  108DG      H4 2465   5.160   5.186   5.147 -0.1193  1.4304 -2.2950
  108DG      H5 2466   5.284   5.074   5.064  0.2607  2.0156  0.2097
  108DG      H6 2467   4.880   5.440   4.483  1.4394  0.5598 -1.3411
  108DG      H7 2468   4.963   5.504   4.628  1.7894 -1.5307  2.0898
  108DG      H8 2469   5.044   5.414   4.497 -0.3735  1.0114  0.2078
  108DG      O9 2470   5.101   5.090   4.974  0.0379  0.1230  0.4297
  108DG     O10 2471   4.922   5.300   4.626 -0.0805 -0.0621 -0.2142
  108DG     C11 2472   5.106   4.966   4.910 -0.2245 -0.2931  0.3421
  108DG     C12 2473   4.930   5.190   4.540 -0.2346 -0.3008  0.3822
  108DG     H13 2474   5.102   4.880   4.978 -0.3270 -1.3348 -0.9241
  108DG     H14 2475   5.200   4.966   4.854 -1.1058  2.5572 -1.3229
  108DG     H15 2476   5.026   5.179   4.490 -0.3428 -0.1844  0.1479
  108DG     H16 2477   4.858   5.191   4.458  0.4985  1.7721 -0.2881
  108DG     C17 2478   4.994   4.942   4.805 -0.4923  0.1661 -0.0622
  108DG     C18 2479   4.910   5.057   4.610 -0.0522 -0.1284  0.2105
  108DG     O19 2480   4.979   5.057   4.738  0.8515  0.2169 -0.3937
  108DG     H20 2481   4.901   4.914   4.854  0.8153  0.0089  2.5514
  108DG     H21 2482   5.031   4.864   4.739  2.1990  1.8616 -0.7316
  108DG     H22 2483   4.801   5.046   4.617 -0.0475  0.2022  1.0081
  108DG     H23 2484   4.948   4.974   4.551  1.4045  1.2711 -0.8967
  109DG      C1 2485   3.506   1.678   4.065  0.0591  0.3015  0.1668
  109DG      C2 2486   3.142   1.969   4.564 -0.1725  0.2041  0.0551
  109DG      H3 2487   3.531   1.688   3.960 -0.7550 -1.0239 -0.1864
  109DG      H4 2488   3.440   1.592   4.055  0.1479  0.2125  0.3278
  109DG      H5 2489   3.602   1.659   4.115 -0.4223 -3.8658 -0.0858
  109DG      H6 2490   3.203   1.895   4.615  2.6876  1.8092 -0.8409
  109DG      H7 2491   3.127   2.057   4.628 -3.5884 -1.3202  1.5972
  109DG      H8 2492   3.045   1.923   4.544  0.0489 -1.2369  1.9885
  109DG      O9 2493   3.433   1.787   4.106  0.0678 -0.3496 -0.1666
  109DG     O10 2494   3.204   1.998   4.441 -0.5989  0.1386  0.2883
  109DG     C11 2495   3.372   1.857   3.999 -0.2067 -0.4460 -0.0781
  109DG     C12 2496   3.136   2.091   4.365  0.4714 -1.2241  0.9850
  109DG     H13 2497   3.288   1.797   3.961 -0.3113  0.9845 -2.3212
  109DG     H14 2498   3.446   1.861   3.919 -0.6377 -1.6583 -0.5796
  109DG     H15 2499   3.126   2.181   4.426 -1.0252 -0.1523 -0.7071
  109DG     H16 2500   3.036   2.049   4.351 -0.8927  2.1872 -0.5315
  109DG     C17 2501   3.338   2.004   4.044  0.7124  0.4081 -0.8999
  109DG     C18 2502   3.215   2.114   4.227  0.0152  0.2694  0.0129
  109DG     O19 2503   3.241   1.989   4.158  0.3673 -0.2180 -0.5577
  109DG     H20 2504   3.300   2.053   3.954 -2.6140  0.4031  0.3294
  109DG     H21 2505   3.430   2.040   4.089 -0.0898  0.2901  0.9461
  109DG     H22 2506   3.163   2.182   4.159 -0.2059 -1.2894 -1.4533
  109DG     H23 2507   3.313   2.159   4.247  1.5044 -2.7265 -0.0611
  110DG      C1 2508   4.606   4.589   0.628 -0.1574 -0.4915  0.1042
  110DG      C2 2509   5.019   4.622   0.111 -0.1762 -0.1156  0.8691
  110DG      H3 2510   4.561   4.682   0.595  2.2277  1.5339  2.1515
  110DG      H4 2511   4.696   4.612   0.684  1.2577 -2.9830 -0.9680
  110DG      H5 2512   4.537   4.538   0.696  1.8466 -1.4725  1.4889
  110DG      H6 2513   5.122   4.602   0.140 -0.0309 -2.3391 -0.8939
  110DG      H7 2514   5.021   4.610   0.003  3.4694 -1.0905  0.9098
  110DG      H8 2515   5.012   4.727   0.138 -0.1649  0.8897 -2.5988
  110DG      O9 2516   4.635   4.522   0.510 -0.0155  0.5087  0.0018
  110DG     O10 2517   4.920   4.541   0.166 -0.1151 -0.3861  0.2292
  110DG     C11 2518   4.670   4.393   0.544  0.0786 -0.3657 -0.5111
  110DG     C12 2519   4.952   4.405   0.168 -0.7299 -0.3720  0.5646
  110DG     H13 2520   4.587   4.340   0.592  0.0645  0.8250  0.8338
  110DG     H14 2521   4.760   4.395   0.605  0.6059  3.1180 -1.1745
  110DG     H15 2522   5.036   4.383   0.234 -1.0353 -1.1523  0.7009
  110DG     H16 2523   4.981   4.370   0.069 -0.2221  0.3617  0.4438
  110DG     C17 2524   4.707   4.319   0.422  0.4800  0.2952  0.5205
  110DG     C18 2525   4.830   4.328   0.221  0.2074 -0.9460 -0.3021
  110DG     O19 2526   4.808   4.384   0.348 -0.3277 -0.0001  0.1765
  110DG     H20 2527   4.619   4.300   0.361  0.1072  0.8602  0.8698
  110DG     H21 2528   4.748   4.220   0.441  2.5719  1.4601  2.7235
  110DG     H22 2529   4.741   4.337   0.159 -1.0098 -2.3807  1.1258
  110DG     H23 2530   4.852   4.222   0.209  0.4958 -0.9315  0.0766
  111DG      C1 2531   3.897   1.411   2.862  0.5696 -0.3196 -0.1321
  111DG      C2 2532   4.365   1.906   3.012  0.4047  0.4114 -0.3321
  111DG      H3 2533   3.827   1.434   2.781 -0.2338 -0.0777  0.6193
  111DG      H4 2534   3.851   1.455   2.950  2.4492 -0.8859  1.2040
  111DG      H5 2535   3.893   1.302   2.873  0.0589 -0.1577  1.4452
  111DG      H6 2536   4.282   1.949   3.068  2.7240  2.4854  1.7619
  111DG      H7 2537   4.419   1.836   3.077  1.5306 -0.1397 -1.8106
  111DG      H8 2538   4.430   1.989   2.983  0.3275  1.1051  1.3490
  111DG      O9 2539   4.016   1.482   2.830 -0.1907  0.0573  0.2996
  111DG     O10 2540   4.317   1.830   2.899  0.2280  0.5510 -0.0162
  111DG     C11 2541   4.095   1.400   2.744 -0.2135 -1.3027  0.4668
  111DG     C12 2542   4.423   1.760   2.841 -0.1638  0.0943 -0.1176
  111DG     H13 2543   4.039   1.371   2.655  2.5370 -0.9719 -1.5408
  111DG     H14 2544   4.129   1.313   2.801  2.4204 -0.0054  1.0315
  111DG     H15 2545   4.488   1.711   2.913  0.2987  1.2194  0.2631
  111DG     H16 2546   4.494   1.828   2.793 -0.2974  0.9759  0.9022
  111DG     C17 2547   4.224   1.477   2.697 -0.5850  0.3656  0.3481
  111DG     C18 2548   4.380   1.654   2.740  0.1929 -0.0547  0.0790
  111DG     O19 2549   4.275   1.564   2.792 -0.2803 -0.1140 -0.2906
  111DG     H20 2550   4.216   1.525   2.600  5.2107  1.4238  0.0405
  111DG     H21 2551   4.302   1.410   2.662  2.0288  2.6600  1.4028
  111DG     H22 2552   4.345   1.699   2.647  1.1663 -1.2978 -0.9286
  111DG     H23 2553   4.463   1.591   2.705  0.0079 -1.0100  1.2936
  112DG      C1 2554   2.046   1.555   0.822 -0.0368 -0.0481 -0.1264
  112DG      C2 2555   1.664   1.062   1.235  0.0027 -0.0226  0.0055
  112DG      H3 2556   1.968   1.608   0.767  0.3739  3.2153  2.1432
  112DG      H4 2557   2.057   1.452   0.788 -0.9018 -0.5235  1.0068
  112DG      H5 2558   2.138   1.612   0.806 -0.1938  0.7073  1.5346
  112DG      H6 2559   1.701   1.009   1.322 -2.4698 -0.2453  1.0147
  112DG      H7 2560   1.561   1.088   1.261  0.1397  1.4883 -0.8165
  112DG      H8 2561   1.664   0.999   1.146  0.4194  1.6906 -1.2558
  112DG      O9 2562   2.006   1.547   0.963 -0.6888 -0.4286 -0.2852
  112DG     O10 2563   1.751   1.170   1.212  0.0214  0.1341  0.4952
  112DG     C11 2564   2.103   1.478   1.042  0.1668 -0.0639  0.4940
  112DG     C12 2565   1.731   1.291   1.290 -0.2608  0.7489  0.1218
  112DG     H13 2566   2.195   1.536   1.037 -0.4746  0.8866 -2.0920
  112DG     H14 2567   2.115   1.380   0.995  0.0328  0.2978 -0.3069
  112DG     H15 2568   1.685   1.257   1.382  2.3605  0.3660  1.3734
  112DG     H16 2569   1.660   1.355   1.237 -0.6122  1.1348  1.0295
  112DG     C17 2570   2.036   1.472   1.180 -0.4605  0.7778  0.0753
  112DG     C18 2571   1.860   1.366   1.306  0.5322  0.1444  0.2877
  112DG     O19 2572   1.904   1.405   1.174 -0.1783  0.5157  0.3834
  112DG     H20 2573   2.025   1.570   1.226  0.4496  1.0705 -0.2881
  112DG     H21 2574   2.095   1.404   1.242 -0.2513  1.5786  0.7700
  112DG     H22 2575   1.853   1.457   1.365  0.0963 -0.1745  0.7390
  112DG     H23 2576   1.932   1.299   1.354  0.6505 -0.7226 -1.0433
  113DG      C1 2577   4.174   1.159   4.544  0.2346  0.0412  0.1501
  113DG      C2 2578   4.310   1.558   4.066 -0.3961  0.4744 -0.5469
  113DG      H3 2579   4.085   1.132   4.487 -0.3768  0.7735  0.7412
  113DG      H4 2580   4.139   1.246   4.599 -0.0354  0.9624 -1.4223
  113DG      H5 2581   4.184   1.081   4.619  0.4959 -0.9198 -0.8534
  113DG      H6 2582   4.324   1.585   3.962 -0.6991 -0.7367 -0.9130
  113DG      H7 2583   4.214   1.580   4.112  0.0078 -1.3269  1.3239
  113DG      H8 2584   4.383   1.615   4.124 -0.0601  0.0135 -0.5105
  113DG      O9 2585   4.285   1.193   4.458 -0.0943  0.3476  0.5401
  113DG     O10 2586   4.336   1.420   4.086  0.1810 -0.6207 -0.7479
  113DG     C11 2587   4.395   1.248   4.532  0.8779  0.1324 -0.0346
  113DG     C12 2588   4.475   1.395   4.090 -0.1076  0.9252 -0.2541
  113DG     H13 2589   4.430   1.189   4.617  0.5973 -0.7397 -0.5093
  113DG     H14 2590   4.372   1.345   4.576  0.4786 -0.1709  0.4312
  113DG     H15 2591   4.531   1.446   4.012  0.5965  2.0516  0.9422
  113DG     H16 2592   4.490   1.290   4.065  0.2917  0.4025  2.0004
  113DG     C17 2593   4.509   1.278   4.433  0.1696 -0.2989  0.8459
  113DG     C18 2594   4.533   1.404   4.239  0.4479 -0.4479  0.9688
  113DG     O19 2595   4.447   1.337   4.325  0.2835 -0.4370 -0.3373
  113DG     H20 2596   4.558   1.188   4.396 -2.0878 -0.0970 -3.3125
  113DG     H21 2597   4.588   1.332   4.484  0.8683 -1.1131  0.6599
  113DG     H22 2598   4.635   1.370   4.257  1.7965  2.1326 -1.0945
  113DG     H23 2599   4.543   1.507   4.275  1.0063 -1.1568  3.0130
  114DG      C1 2600   2.155   3.151   4.433  0.0353  0.4262 -0.1325
  114DG      C2 2601   2.086   3.698   4.598 -0.1472 -0.4570 -0.6937
  114DG      H3 2602   2.227   3.070   4.436 -1.4478 -0.9863  3.2407
  114DG      H4 2603   2.067   3.125   4.374 -0.5617 -0.9880  1.3022
  114DG      H5 2604   2.120   3.151   4.537  0.2575  2.5395  0.0020
  114DG      H6 2605   2.142   3.719   4.689  0.7351  0.6167 -1.4585
  114DG      H7 2606   2.012   3.776   4.589 -1.6714 -1.8014 -0.2986
  114DG      H8 2607   2.036   3.601   4.602  0.1479 -0.6653 -1.6418
  114DG      O9 2608   2.225   3.275   4.409 -0.6012  0.3754  0.0087
  114DG     O10 2609   2.181   3.703   4.496  0.4877  0.1567  0.4389
  114DG     C11 2610   2.258   3.290   4.272 -0.1669  0.1945  0.7126
  114DG     C12 2611   2.121   3.713   4.361 -0.0077  0.0815 -0.1946
  114DG     H13 2612   2.182   3.268   4.197  1.2393 -0.6481 -0.5448
  114DG     H14 2613   2.337   3.222   4.240  0.0045  1.0524 -0.7779
  114DG     H15 2614   2.092   3.815   4.338 -1.0117 -0.0983  0.2587
  114DG     H16 2615   2.017   3.682   4.363 -0.6763  2.0613 -1.3647
  114DG     C17 2616   2.325   3.427   4.238  0.5609 -1.0392  0.3057
  114DG     C18 2617   2.217   3.651   4.252 -0.2404  0.4450  0.7434
  114DG     O19 2618   2.243   3.525   4.307 -0.6151 -0.4519  0.2355
  114DG     H20 2619   2.319   3.439   4.130 -0.7080 -3.5114  0.0220
  114DG     H21 2620   2.429   3.436   4.267  0.9345 -0.1837 -1.1974
  114DG     H22 2621   2.168   3.634   4.156 -0.4330  0.5875  0.8143
  114DG     H23 2622   2.312   3.704   4.245  0.4131 -0.3791  2.7077
  115DG      C1 2623   1.463   3.116   0.743  0.7801 -0.3148  0.0755
  115DG      C2 2624   1.663   2.878   0.151 -0.1112  1.0690  0.1108
  115DG      H3 2625   1.510   3.132   0.841  1.0736 -0.1567 -0.0885
  115DG      H4 2626   1.383   3.047   0.771  1.2103 -1.6345 -1.7704
  115DG      H5 2627   1.428   3.213   0.709  3.3026  0.8245  0.5141
  115DG      H6 2628   1.696   2.961   0.090  2.4205 -0.0510 -0.1694
  115DG      H7 2629   1.710   2.785   0.117  1.0176  0.9585  1.8475
  115DG      H8 2630   1.555   2.882   0.140 -0.1509  1.4881  0.6143
  115DG      O9 2631   1.567   3.073   0.666  0.2115 -0.0275  0.4404
  115DG     O10 2632   1.701   2.899   0.285  0.5561 -0.2932 -0.3612
  115DG     C11 2633   1.684   3.157   0.678  0.8495 -0.3330  0.3237
  115DG     C12 2634   1.823   2.973   0.292  0.0495 -0.5023  0.6183
  115DG     H13 2635   1.745   3.145   0.768  2.8594  1.8874 -0.6333
  115DG     H14 2636   1.667   3.263   0.663 -1.0626 -0.4356  1.4284
  115DG     H15 2637   1.809   3.078   0.264  2.9266 -0.1820  0.0305
  115DG     H16 2638   1.898   2.944   0.219  0.0405  0.3791  0.2481
  115DG     C17 2639   1.781   3.131   0.566 -0.4433  0.2773 -0.0230
  115DG     C18 2640   1.876   2.965   0.436  0.1860  0.1950 -0.4249
  115DG     O19 2641   1.778   2.995   0.536  0.3151  0.0867  0.5207
  115DG     H20 2642   1.875   3.153   0.616 -0.5252 -0.6575  0.5655
  115DG     H21 2643   1.771   3.203   0.485  1.5169  0.9521  0.2861
  115DG     H22 2644   1.920   2.867   0.456  0.2421  0.6344  1.9101
  115DG     H23 2645   1.962   3.032   0.432  1.8057 -1.8688 -1.9542
  116DG      C1 2646   2.686   4.440   0.016 -0.1269  0.2830 -0.4292
  116DG      C2 2647   2.811   4.784  -0.663 -0.3230 -0.0185 -0.1437
  116DG      H3 2648   2.781   4.394  -0.010 -0.7733 -0.7877 -0.9327
  116DG      H4 2649   2.629   4.359   0.062  0.3976  1.0208  1.6664
  116DG      H5 2650   2.706   4.516   0.092  0.3189  1.3637 -1.5948
  116DG      H6 2651   2.906   4.731  -0.673 -0.8455 -1.2712  1.2027
  116DG      H7 2652   2.762   4.811  -0.757 -0.2900 -1.3290 -0.5697
  116DG      H8 2653   2.848   4.864  -0.599  0.1531 -2.9506  3.6208
  116DG      O9 2654   2.619   4.495  -0.097  0.0341 -1.2589  0.4739
  116DG     O10 2655   2.734   4.689  -0.589 -0.4855 -0.5554 -1.0911
  116DG     C11 2656   2.593   4.394  -0.197 -0.3128  0.6632 -0.0410
  116DG     C12 2657   2.609   4.743  -0.548  0.0513  1.0588 -0.4010
  116DG     H13 2658   2.530   4.316  -0.155 -0.1157  1.3730  1.6594
  116DG     H14 2659   2.678   4.340  -0.239 -0.8809 -0.2206 -0.0689
  116DG     H15 2660   2.549   4.778  -0.631 -1.7057  0.4052  0.5354
  116DG     H16 2661   2.620   4.826  -0.478 -0.8575  2.3746 -1.7646
  116DG     C17 2662   2.514   4.452  -0.309  0.0519 -0.0877 -0.5507
  116DG     C18 2663   2.533   4.622  -0.482 -0.3404 -0.0763 -0.2787
  116DG     O19 2664   2.591   4.556  -0.364 -0.2953 -0.1851 -0.1765
  116DG     H20 2665   2.426   4.504  -0.272 -0.3611 -1.3195  0.2705
  116DG     H21 2666   2.473   4.387  -0.386 -1.2404 -1.1139  0.9362
  116DG     H22 2667   2.439   4.669  -0.453 -0.2770  0.1361 -0.4133
  116DG     H23 2668   2.517   4.546  -0.559  1.9682 -0.2082 -0.6974
  117DG      C1 2669   5.461   3.810   0.885 -0.1216 -0.1410  0.6035
  117DG      C2 2670   5.664   3.583   0.235  0.2869  0.0943  0.1707
  117DG      H3 2671   5.511   3.904   0.864 -0.2054 -0.3710 -0.7271
  117DG      H4 2672   5.530   3.761   0.955 -0.3362  0.5699  1.3187
  117DG      H5 2673   5.364   3.825   0.932 -0.0461 -2.1065  1.4838
  117DG      H6 2674   5.761   3.538   0.257  0.1566 -0.2880 -0.0229
  117DG      H7 2675   5.614   3.524   0.158  0.1975 -0.6579  0.7926
  117DG      H8 2676   5.696   3.684   0.212 -1.2293  0.4845 -0.3221
  117DG      O9 2677   5.452   3.724   0.768  0.5772  0.6771  0.2594
  117DG     O10 2678   5.574   3.572   0.349 -0.2546  0.8025  0.1562
  117DG     C11 2679   5.414   3.593   0.815 -0.0051  0.1193 -0.1290
  117DG     C12 2680   5.541   3.434   0.381  0.2016 -0.9495  0.3474
  117DG     H13 2681   5.334   3.602   0.889  0.7182  0.8023  0.5851
  117DG     H14 2682   5.503   3.554   0.863 -0.8304 -0.9294  0.5920
  117DG     H15 2683   5.633   3.391   0.421  0.6741  0.4684  0.8474
  117DG     H16 2684   5.517   3.386   0.286  0.2364 -0.7703  0.2476
  117DG     C17 2685   5.372   3.510   0.697 -0.6578  0.3040  0.3598
  117DG     C18 2686   5.435   3.419   0.497 -0.3958  0.3745  0.4905
  117DG     O19 2687   5.474   3.508   0.595  0.0538 -0.0878 -0.3045
  117DG     H20 2688   5.281   3.553   0.656 -1.8961 -1.8149  0.7020
  117DG     H21 2689   5.329   3.414   0.726 -1.9902  0.1013 -2.0353
  117DG     H22 2690   5.342   3.445   0.446  0.3182 -0.6304 -1.4308
  117DG     H23 2691   5.444   3.315   0.531 -0.1835  0.3461  0.3493
  118DG      C1 2692   0.696   2.509   1.733  0.7575  0.0785  0.1388
  118DG      C2 2693   0.865   3.158   1.664 -0.1127  0.0421  0.1183
  118DG      H3 2694   0.709   2.410   1.777 -1.5003 -0.2196  0.2586
  118DG      H4 2695   0.740   2.498   1.633  1.0176  0.5238  0.2019
  118DG      H5 2696   0.588   2.516   1.737  0.8030  0.2513  2.9367
  118DG      H6 2697   0.796   3.242   1.674  2.8129  2.4978  1.1134
  118DG      H7 2698   0.970   3.175   1.686 -0.4735  0.0084  2.0621
  118DG      H8 2699   0.860   3.115   1.564 -0.2638  0.6060 -0.1185
  118DG      O9 2700   0.766   2.605   1.805  0.1211 -0.3195  0.8982
  118DG     O10 2701   0.837   3.052   1.753 -0.3848 -0.4821  0.0425
  118DG     C11 2702   0.738   2.627   1.940  0.5229  0.1504 -0.7288
  118DG     C12 2703   0.813   3.100   1.887  0.2995  0.0448  0.2350
  118DG     H13 2704   0.766   2.537   1.996 -0.1886  0.1903 -0.2921
  118DG     H14 2705   0.632   2.649   1.952  0.4957 -0.3795  0.1507
  118DG     H15 2706   0.722   3.160   1.893  1.0820  1.2526  0.3312
  118DG     H16 2707   0.886   3.170   1.927 -0.9233  0.4230  1.9209
  118DG     C17 2708   0.795   2.747   2.009 -0.1551 -0.2496  0.2629
  118DG     C18 2709   0.813   2.988   1.990  0.3103 -0.2829  0.4719
  118DG     O19 2710   0.761   2.866   1.942 -0.4936 -0.3417  0.1017
  118DG     H20 2711   0.903   2.731   2.012 -0.1348 -0.0317  0.8341
  118DG     H21 2712   0.763   2.757   2.113  0.2100  1.2240  0.2685
  118DG     H22 2713   0.920   2.980   2.008  0.2992  0.0850  0.7086
  118DG     H23 2714   0.760   3.024   2.079 -0.4976  0.0385 -0.1270
  119DG      C1 2715   1.105   0.487   4.658  0.2889  0.6448 -0.6704
  119DG      C2 2716   0.638   0.962   4.856  0.0489 -0.0365 -0.0160
  119DG      H3 2717   1.191   0.435   4.700  1.4839  0.7128 -2.8568
  119DG      H4 2718   1.153   0.553   4.585  1.2492  0.9837  0.2393
  119DG      H5 2719   1.038   0.421   4.604  0.4329 -0.2478  0.2242
  119DG      H6 2720   0.676   1.044   4.917 -1.5289  1.2141 -0.6304
  119DG      H7 2721   0.658   0.971   4.749 -3.2433 -0.6934 -0.8173
  119DG      H8 2722   0.533   0.938   4.874  0.2946  0.1007  1.7750
  119DG      O9 2723   1.030   0.551   4.765  0.3465 -0.1717 -0.0803
  119DG     O10 2724   0.689   0.834   4.890  0.4318  0.4300 -0.0436
  119DG     C11 2725   0.971   0.459   4.854 -0.0493  0.6784 -0.1045
  119DG     C12 2726   0.700   0.811   5.030  0.1194 -0.0454  0.4531
  119DG     H13 2727   1.048   0.386   4.879  0.3323  1.4270  0.9542
  119DG     H14 2728   0.896   0.401   4.799  1.2662  0.1088 -1.3839
  119DG     H15 2729   0.605   0.773   5.067 -0.3709  3.2070  3.0074
  119DG     H16 2730   0.704   0.904   5.087 -1.2407 -0.0746  0.6335
  119DG     C17 2731   0.929   0.519   4.983  0.3928 -0.8296  0.0798
  119DG     C18 2732   0.824   0.716   5.066 -0.2363 -0.1125 -0.7040
  119DG     O19 2733   0.836   0.626   4.967 -0.3215  0.3676  0.1020
  119DG     H20 2734   1.018   0.557   5.034 -0.5022  0.1491  0.9547
  119DG     H21 2735   0.889   0.443   5.050 -1.8562 -0.4397 -0.7449
  119DG     H22 2736   0.909   0.784   5.061 -0.9589  0.7945 -1.1832
  119DG     H23 2737   0.819   0.683   5.170  1.5919  0.0643 -0.5395
  120DG      C1 2738   4.746   0.456   1.989 -0.1660 -1.0163  0.1213
  120DG      C2 2739   5.067  -0.112   1.828  0.0245 -0.1962  0.1656
  120DG      H3 2740   4.745   0.553   1.938 -0.8949 -1.3984 -0.6266
  120DG      H4 2741   4.734   0.475   2.095  2.5962 -1.0759  0.5157
  120DG      H5 2742   4.659   0.400   1.954  0.1883 -1.0387 -0.7538
  120DG      H6 2743   4.969  -0.147   1.793 -0.6227  0.0153  1.6960
  120DG      H7 2744   5.139  -0.103   1.747  1.7719 -2.1448  1.4147
  120DG      H8 2745   5.127  -0.177   1.890 -1.2306 -0.7742  0.8198
  120DG      O9 2746   4.870   0.394   1.973 -0.7834 -0.0439  0.5444
  120DG     O10 2747   5.061   0.008   1.899 -0.6135  0.1068  0.4810
  120DG     C11 2748   4.966   0.440   2.063  0.0055 -0.0510  0.1877
  120DG     C12 2749   5.180   0.047   1.974 -0.1147  0.5216 -0.6767
  120DG     H13 2750   4.925   0.410   2.159 -0.8971 -2.6759 -0.9190
  120DG     H14 2751   4.981   0.548   2.069  2.4193 -0.1573 -1.8920
  120DG     H15 2752   5.268  -0.008   1.941  0.4124  0.4906  0.6970
  120DG     H16 2753   5.169   0.017   2.079  1.5202  1.0479 -0.3340
  120DG     C17 2754   5.103   0.385   2.035 -1.0029 -0.2693  0.1496
  120DG     C18 2755   5.207   0.191   1.976 -0.2709  0.1143  0.1524
  120DG     O19 2756   5.091   0.245   2.040 -0.1010  0.3883 -0.7102
  120DG     H20 2757   5.174   0.417   2.112  1.0673 -2.4831 -0.6929
  120DG     H21 2758   5.141   0.424   1.941 -1.1232  1.0079  0.6100
  120DG     H22 2759   5.297   0.216   2.033 -0.6645  1.0028  0.4072
  120DG     H23 2760   5.206   0.214   1.870 -1.3712  0.6759  0.2666
  121DG      C1 2761   0.533   0.125   5.205  0.4370 -0.2293 -0.7627
  121DG      C2 2762  -0.101  -0.176   5.336 -0.7013 -0.1036  0.4303
  121DG      H3 2763   0.537   0.123   5.314 -0.1727 -0.2142 -0.7377
  121DG      H4 2764   0.575   0.218   5.166  0.3537  0.8408  1.5231
  121DG      H5 2765   0.591   0.041   5.168 -2.3572 -1.1276 -3.5287
  121DG      H6 2766  -0.208  -0.161   5.322 -0.8324 -1.8742 -0.8218
  121DG      H7 2767  -0.091  -0.281   5.307  1.1382  0.0741  0.3275
  121DG      H8 2768  -0.089  -0.167   5.444 -2.4703 -1.8180  0.8421
  121DG      O9 2769   0.404   0.094   5.178  0.3651 -0.2869  1.0145
  121DG     O10 2770  -0.012  -0.100   5.257  0.5359 -0.1000  0.3570
  121DG     C11 2771   0.382   0.106   5.034 -0.5039 -0.1724 -0.1827
  121DG     C12 2772  -0.038  -0.112   5.112 -0.2668 -0.4511  0.1666
  121DG     H13 2773   0.428   0.031   4.970 -2.1274 -1.0152 -0.4019
  121DG     H14 2774   0.422   0.198   4.991  2.0191 -0.5039  1.2956
  121DG     H15 2775  -0.144  -0.108   5.088 -0.2816 -0.4646  0.2288
  121DG     H16 2776  -0.009  -0.207   5.065 -0.0601 -0.2370 -0.1426
  121DG     C17 2777   0.236   0.110   5.009 -0.5367 -0.8476 -0.7262
  121DG     C18 2778   0.042  -0.005   5.031 -0.2201 -0.6757  0.0502
  121DG     O19 2779   0.182  -0.003   5.059  0.5710  0.7223 -0.4987
  121DG     H20 2780   0.212   0.115   4.903 -1.6963  0.8004 -0.4183
  121DG     H21 2781   0.199   0.194   5.068 -0.9314 -0.9019 -0.8969
  121DG     H22 2782   0.020  -0.034   4.929 -3.4259  1.0184  0.1349
  121DG     H23 2783  -0.007   0.091   5.048  0.4795 -0.2103 -0.4740
  122DG      C1 2784   0.359   0.538   2.462 -0.1102  0.1576  0.2335
  122DG      C2 2785   0.532   0.790   2.050 -0.1596  0.2391  0.5026
  122DG      H3 2786   0.352   0.464   2.542 -0.2203 -1.6344 -1.3735
  122DG      H4 2787   0.325   0.632   2.508  1.2156  0.3264  0.9077
  122DG      H5 2788   0.467   0.548   2.453 -0.0912 -1.1161 -1.2617
  122DG      H6 2789   0.580   0.703   2.096 -2.8960 -2.0475 -0.6808
  122DG      H7 2790   0.610   0.840   1.992  0.2342 -0.4857  0.3826
  122DG      H8 2791   0.483   0.851   2.126 -1.0440  1.0622 -0.6923
  122DG      O9 2792   0.302   0.512   2.330  0.2244 -0.0165 -0.7492
  122DG     O10 2793   0.441   0.733   1.965  0.1758 -0.3707  0.2599
  122DG     C11 2794   0.166   0.510   2.311  0.4590 -0.6799 -0.0692
  122DG     C12 2795   0.321   0.808   1.952  0.5040  0.8284 -0.6624
  122DG     H13 2796   0.112   0.493   2.404  0.0062 -0.7209 -0.3354
  122DG     H14 2797   0.136   0.431   2.241 -1.9684  1.2258 -1.3735
  122DG     H15 2798   0.265   0.775   1.864  0.2431  0.1079 -0.2382
  122DG     H16 2799   0.342   0.913   1.935  0.4080  1.1527  1.1110
  122DG     C17 2800   0.128   0.637   2.232  0.5151  0.4589 -0.1025
  122DG     C18 2801   0.227   0.790   2.079  0.7203 -0.2466 -0.6743
  122DG     O19 2802   0.221   0.656   2.127  0.0184 -0.7107 -0.3917
  122DG     H20 2803   0.108   0.726   2.291 -0.4836  1.9049 -2.4767
  122DG     H21 2804   0.035   0.624   2.177  0.4122 -0.4959  0.2762
  122DG     H22 2805   0.270   0.863   2.148 -2.9316  0.8450  0.6719
  122DG     H23 2806   0.129   0.831   2.052  0.8365  0.8350  0.4889
  123DG      C1 2807   2.003   5.152   1.741 -0.1736 -0.1124  0.3135
  123DG      C2 2808   2.591   4.963   1.864  0.4743 -0.5434  0.0141
  123DG      H3 2809   2.073   5.196   1.669 -0.5223 -0.3445 -0.1726
  123DG      H4 2810   1.924   5.220   1.770 -1.2690 -1.6073  0.9434
  123DG      H5 2811   1.960   5.062   1.698 -3.1238  1.3285  0.0480
  123DG      H6 2812   2.625   5.038   1.792  0.3690 -1.5444 -1.1188
  123DG      H7 2813   2.683   4.928   1.911  0.2830 -2.7958 -1.1301
  123DG      H8 2814   2.545   4.891   1.796  0.4001 -1.4925  1.0380
  123DG      O9 2815   2.076   5.118   1.858  0.0287 -0.0052  0.3608
  123DG     O10 2816   2.493   5.017   1.955 -0.1983  0.2204  0.2379
  123DG     C11 2817   2.006   5.028   1.945 -0.4802 -0.0030 -1.0974
  123DG     C12 2818   2.457   4.921   2.048  0.8426  1.1773  0.5339
  123DG     H13 2819   1.985   4.936   1.891  1.1726  0.2283 -2.1665
  123DG     H14 2820   1.921   5.077   1.994  0.8325 -0.8952  2.3591
  123DG     H15 2821   2.535   4.887   2.117 -1.0863 -2.5873  1.1698
  123DG     H16 2822   2.447   4.827   1.993  3.2304 -0.3335  2.4401
  123DG     C17 2823   2.095   4.987   2.063  0.1820  0.2215  0.5819
  123DG     C18 2824   2.328   4.944   2.123  0.4845 -0.3300  0.2742
  123DG     O19 2825   2.231   4.970   2.017 -0.0816  1.0890  0.0845
  123DG     H20 2826   2.076   4.890   2.110  0.7481 -0.5041 -0.6344
  123DG     H21 2827   2.102   5.059   2.145  2.4032 -1.2499  1.8180
  123DG     H22 2828   2.304   4.863   2.191 -0.0912  0.5463  1.1440
  123DG     H23 2829   2.326   5.031   2.188  0.3733 -1.7922  2.3012
  124DG      C1 2830   4.363   0.123   2.942  0.2330  0.4689  0.3206
  124DG      C2 2831   4.488  -0.043   3.595 -0.5039 -0.0643 -0.1749
  124DG      H3 2832   4.273   0.080   2.899  0.9214  0.3374 -1.0575
  124DG      H4 2833   4.443   0.062   2.901 -1.7777 -0.8295 -1.9046
  124DG      H5 2834   4.376   0.209   2.876 -1.3384 -0.6282 -1.4930
  124DG      H6 2835   4.408  -0.117   3.603  0.7801 -1.3916  1.3201
  124DG      H7 2836   4.576  -0.075   3.539 -2.1729  2.8840 -5.0549
  124DG      H8 2837   4.525  -0.020   3.696  0.1305 -0.0209 -0.4104
  124DG      O9 2838   4.361   0.154   3.077 -0.2107  0.5887  0.1597
  124DG     O10 2839   4.435   0.072   3.535  0.2895  0.5781 -0.2713
  124DG     C11 2840   4.234   0.218   3.104 -0.1009  0.2632 -0.4116
  124DG     C12 2841   4.299   0.109   3.568  0.2005 -0.2726  0.1343
  124DG     H13 2842   4.161   0.138   3.087 -0.1337 -0.2907  2.0440
  124DG     H14 2843   4.216   0.306   3.042  2.3506  0.1629 -1.3859
  124DG     H15 2844   4.301   0.144   3.671  2.1748 -1.0080  0.3986
  124DG     H16 2845   4.233   0.022   3.575  1.5819 -1.3892 -0.1279
  124DG     C17 2846   4.231   0.268   3.243 -0.1553 -0.8313 -0.3874
  124DG     C18 2847   4.245   0.211   3.474 -0.3949  0.3088  0.1383
  124DG     O19 2848   4.268   0.172   3.339  0.0285  0.3774 -0.2727
  124DG     H20 2849   4.126   0.294   3.259  0.4869  0.7537  1.7291
  124DG     H21 2850   4.293   0.358   3.241  0.6281 -1.1703  2.9766
  124DG     H22 2851   4.140   0.227   3.499 -0.5070 -1.2308  0.8073
  124DG     H23 2852   4.303   0.301   3.496  1.9519 -1.1139  0.1764
  125DG      C1 2853   4.679   5.160   1.849  0.1531  0.0003 -0.3521
  125DG      C2 2854   4.878   4.590   1.544  0.8217 -0.1255  0.4223
  125DG      H3 2855   4.624   5.091   1.915 -0.6910  0.4651 -0.5567
  125DG      H4 2856   4.620   5.174   1.759 -3.5523 -0.0071  1.8487
  125DG      H5 2857   4.688   5.259   1.894  1.0734  1.0978 -2.8361
  125DG      H6 2858   4.882   4.496   1.599  1.3913 -0.0172  0.5668
  125DG      H7 2859   4.797   4.589   1.470  0.7694  1.3861  0.4390
  125DG      H8 2860   4.961   4.585   1.473 -1.5200  0.0455 -2.5321
  125DG      O9 2861   4.802   5.098   1.812  0.6048  0.3831 -0.8070
  125DG     O10 2862   4.881   4.700   1.637  0.0944 -0.2045  0.0834
  125DG     C11 2863   4.902   5.086   1.917  0.4470 -0.5239  0.3176
  125DG     C12 2864   4.971   4.678   1.746 -0.5446  0.2362 -0.7698
  125DG     H13 2865   4.858   5.027   1.997 -0.5440 -0.3610 -0.0875
  125DG     H14 2866   4.929   5.183   1.958  0.0027  0.8443 -2.4078
  125DG     H15 2867   5.066   4.670   1.693 -0.3034  2.3982 -0.7510
  125DG     H16 2868   4.948   4.585   1.798  0.6530  0.7261  0.7089
  125DG     C17 2869   5.035   5.025   1.857 -0.1444  0.1743  1.6301
  125DG     C18 2870   4.971   4.801   1.846  0.9636 -0.4012  0.7432
  125DG     O19 2871   5.002   4.917   1.769  0.0567 -0.6849 -0.1731
  125DG     H20 2872   5.096   4.988   1.939 -0.7909 -3.4491  0.6314
  125DG     H21 2873   5.100   5.098   1.808 -0.3926 -0.8411 -0.3390
  125DG     H22 2874   4.866   4.809   1.874 -0.0229  0.0545 -2.5672
  125DG     H23 2875   5.034   4.781   1.933 -1.3800  0.6512  2.7970
  126DG      C1 2876   1.010   3.382   2.852 -0.3513  0.4320 -0.3223
  126DG      C2 2877   1.230   3.823   3.292  0.3375  0.5788 -0.0026
  126DG      H3 2878   1.027   3.285   2.805 -0.8177  0.1704  0.0415
  126DG      H4 2879   0.910   3.381   2.895 -0.1809 -1.9530  0.1574
  126DG      H5 2880   1.077   3.396   2.936 -0.9927 -2.2680  0.7586
  126DG      H6 2881   1.290   3.861   3.375  1.2449 -0.9492  0.0852
  126DG      H7 2882   1.152   3.893   3.263 -0.1026 -0.7327 -2.2273
  126DG      H8 2883   1.191   3.733   3.340  0.6206  1.2454  1.5349
  126DG      O9 2884   1.009   3.495   2.764 -0.4758  0.7412 -0.0684
  126DG     O10 2885   1.309   3.800   3.172  0.5721 -0.4142  0.2049
  126DG     C11 2886   1.130   3.501   2.684  0.2630  0.1556 -1.0685
  126DG     C12 2887   1.232   3.752   3.065 -1.0045 -0.3312  0.1600
  126DG     H13 2888   1.098   3.579   2.615  0.4727  1.1997 -0.0082
  126DG     H14 2889   1.143   3.415   2.618 -0.1010 -0.3701 -0.4658
  126DG     H15 2890   1.161   3.831   3.043  0.4241  0.8959 -0.1763
  126DG     H16 2891   1.164   3.673   3.096 -0.9716 -1.4675 -2.3613
  126DG     C17 2892   1.257   3.552   2.760 -0.0195 -0.1178 -0.3416
  126DG     C18 2893   1.317   3.702   2.944  0.1487 -0.1386 -0.6763
  126DG     O19 2894   1.222   3.659   2.846  0.2358  0.1996  0.3269
  126DG     H20 2895   1.342   3.573   2.695  0.1409  1.2812  0.2748
  126DG     H21 2896   1.274   3.465   2.822  0.3143  1.1770  1.4493
  126DG     H22 2897   1.388   3.775   2.906  0.6883 -0.4617 -0.3045
  126DG     H23 2898   1.373   3.618   2.987  1.7796  1.9709  1.6412
  127DG      C1 2899   3.550   3.130   1.586  0.1890 -0.2525 -0.1026
  127DG      C2 2900   2.988   3.310   1.794  0.8817  0.0671  0.3424
  127DG      H3 2901   3.634   3.199   1.584  1.3302 -1.5896 -0.4998
  127DG      H4 2902   3.578   3.046   1.522 -0.0500 -0.8221  0.5324
  127DG      H5 2903   3.547   3.081   1.683 -1.0455  0.2646  0.1299
  127DG      H6 2904   3.044   3.289   1.885 -0.1892 -1.0442  0.7751
  127DG      H7 2905   2.920   3.392   1.817 -0.8313 -1.6581  1.8163
  127DG      H8 2906   2.932   3.218   1.778 -0.1979  0.6164  0.8111
  127DG      O9 2907   3.434   3.196   1.552 -0.0571 -0.3762  0.0369
  127DG     O10 2908   3.076   3.323   1.683  0.0256  0.0878 -0.8164
  127DG     C11 2909   3.454   3.293   1.449  0.4277  0.1712 -0.5931
  127DG     C12 2910   3.046   3.431   1.596  0.1496 -0.5408  0.2656
  127DG     H13 2911   3.518   3.257   1.369  1.7816  0.1364  0.4764
  127DG     H14 2912   3.495   3.388   1.481  1.8358 -0.0768 -1.5824
  127DG     H15 2913   3.070   3.531   1.632 -0.0864 -0.5567  0.4734
  127DG     H16 2914   2.939   3.428   1.574  0.0996 -1.4306  0.5601
  127DG     C17 2915   3.318   3.325   1.387 -0.2395 -0.3721  0.5170
  127DG     C18 2916   3.115   3.422   1.464 -0.5033 -0.3585 -0.8792
  127DG     O19 2917   3.243   3.370   1.492  0.2101 -0.1232 -0.0557
  127DG     H20 2918   3.267   3.249   1.328 -1.7260  1.4768 -0.7172
  127DG     H21 2919   3.332   3.413   1.324  0.4541 -1.3693 -0.7827
  127DG     H22 2920   3.065   3.352   1.397  0.5300 -2.0768  0.0752
  127DG     H23 2921   3.120   3.513   1.404 -3.8028  0.2795 -0.3789
  128DG      C1 2922   3.915   3.857   5.001  0.0717 -0.3304 -0.1719
  128DG      C2 2923   3.671   3.357   4.554 -0.0500 -0.0091  0.0180
  128DG      H3 2924   3.809   3.873   5.021 -0.1032 -0.1258 -1.2242
  128DG      H4 2925   3.954   3.959   4.999 -0.9058  0.0378 -1.5061
  128DG      H5 2926   3.960   3.819   5.093 -3.4438 -0.0691  1.8471
  128DG      H6 2927   3.664   3.400   4.455 -1.5899  1.7807  0.8400
  128DG      H7 2928   3.704   3.254   4.560 -1.2046 -0.4816 -1.2625
  128DG      H8 2929   3.575   3.351   4.605 -0.0566  1.2304  0.1934
  128DG      O9 2930   3.931   3.795   4.875 -0.4753 -1.0031  0.1454
  128DG     O10 2931   3.767   3.445   4.620 -0.4942  0.3535  0.7520
  128DG     C11 2932   4.067   3.761   4.849 -0.0401 -0.0479  0.2426
  128DG     C12 2933   3.898   3.400   4.578 -0.2587 -0.0591 -0.1316
  128DG     H13 2934   4.100   3.687   4.922 -0.8965  0.3873  1.0980
  128DG     H14 2935   4.126   3.852   4.847  0.3806 -0.3270 -0.4077
  128DG     H15 2936   3.897   3.370   4.474  1.5628 -0.1579 -0.1611
  128DG     H16 2937   3.921   3.315   4.642 -2.1607  1.4668  2.8310
  128DG     C17 2938   4.071   3.694   4.709 -0.8674 -0.0921 -0.2582
  128DG     C18 2939   3.999   3.508   4.587 -0.3782  0.3341  0.1946
  128DG     O19 2940   3.959   3.604   4.679 -0.0581  0.2350  0.0073
  128DG     H20 2941   4.167   3.643   4.705  0.5828  2.3585  1.1206
  128DG     H21 2942   4.067   3.766   4.627  0.7803  0.1559 -0.1559
  128DG     H22 2943   4.102   3.472   4.599  0.4859  2.3565 -0.8053
  128DG     H23 2944   4.000   3.556   4.489  0.3827  0.3988  0.2212
  129DG      C1 2945   1.904   0.506   1.860 -0.2004  0.1059 -0.2993
  129DG      C2 2946   1.499  -0.044   1.717 -0.2114 -0.3401 -0.6333
  129DG      H3 2947   1.974   0.425   1.882 -0.2921 -0.0462 -0.5604
  129DG      H4 2948   1.900   0.570   1.948  1.2371 -0.6264  0.3319
  129DG      H5 2949   1.932   0.567   1.774 -1.2591 -2.8043 -2.8983
  129DG      H6 2950   1.427  -0.091   1.783  1.3127  0.2221  1.5518
  129DG      H7 2951   1.468  -0.077   1.618  2.8988 -1.7560 -1.2814
  129DG      H8 2952   1.597  -0.091   1.734  0.4348  0.9926 -0.5794
  129DG      O9 2953   1.774   0.453   1.822  0.3377  0.6948 -0.2945
  129DG     O10 2954   1.509   0.097   1.742  0.2675 -0.2277 -0.5152
  129DG     C11 2955   1.690   0.552   1.765 -0.3241  0.9051 -0.1506
  129DG     C12 2956   1.398   0.174   1.695 -0.3772  0.0396 -0.1281
  129DG     H13 2957   1.717   0.566   1.660 -0.4937 -0.2561 -0.3650
  129DG     H14 2958   1.704   0.643   1.823  3.3807 -0.6238  1.6993
  129DG     H15 2959   1.318   0.114   1.739  1.6312 -2.3649  0.4146
  129DG     H16 2960   1.388   0.172   1.586  1.4400 -1.3014 -0.3144
  129DG     C17 2961   1.544   0.512   1.770  0.1035  0.1593 -0.1530
  129DG     C18 2962   1.404   0.324   1.750  0.6165 -0.0771 -0.1571
  129DG     O19 2963   1.527   0.386   1.703  0.3128  0.1824  0.2324
  129DG     H20 2964   1.475   0.579   1.719  1.1064  0.0099 -1.7816
  129DG     H21 2965   1.515   0.503   1.875  2.6657 -1.1530  0.5333
  129DG     H22 2966   1.326   0.391   1.712 -0.2308 -1.1626 -0.3823
  129DG     H23 2967   1.393   0.319   1.858  0.4892 -1.2085 -0.2156
  130DG      C1 2968   4.660   3.670   0.111 -0.2015 -0.0009  0.1979
  130DG      C2 2969   4.489   3.654   0.756 -1.1182  0.4865 -0.2957
  130DG      H3 2970   4.732   3.661   0.030 -1.9203  1.6571 -1.6194
  130DG      H4 2971   4.628   3.774   0.119  0.7640  0.3718 -0.5103
  130DG      H5 2972   4.567   3.615   0.099  0.8228 -1.8151  0.3200
  130DG      H6 2973   4.520   3.729   0.829  1.3155 -0.2783 -0.4480
  130DG      H7 2974   4.394   3.676   0.709 -0.9347 -0.2017 -1.0057
  130DG      H8 2975   4.478   3.565   0.818 -1.2126 -0.7298 -1.9839
  130DG      O9 2976   4.726   3.624   0.224 -0.6054 -0.2241 -0.1300
  130DG     O10 2977   4.590   3.644   0.660 -0.1820 -0.0229  0.0339
  130DG     C11 2978   4.855   3.675   0.241 -0.0916  0.6171 -0.6630
  130DG     C12 2979   4.715   3.611   0.718  0.6144 -0.3766 -0.5396
  130DG     H13 2980   4.865   3.784   0.237  2.2477  0.4233 -2.9697
  130DG     H14 2981   4.918   3.641   0.159  0.2442 -1.7924  0.5312
  130DG     H15 2982   4.701   3.533   0.793  1.7944  1.0426  1.2217
  130DG     H16 2983   4.752   3.699   0.770  2.5308 -0.0955 -2.2342
  130DG     C17 2984   4.901   3.632   0.386  1.0859  0.1008 -0.9150
  130DG     C18 2985   4.820   3.575   0.611  0.9643  0.5504  0.6419
  130DG     O19 2986   4.795   3.649   0.492  0.0766 -0.3403  0.1990
  130DG     H20 2987   4.995   3.682   0.407  1.4527 -1.4599  1.4679
  130DG     H21 2988   4.924   3.526   0.389 -2.1155 -0.6808 -0.5047
  130DG     H22 2989   4.924   3.573   0.643  0.9346 -1.5677  0.7930
  130DG     H23 2990   4.816   3.467   0.593  0.7466  0.3098  1.9872
  131DG      C1 2991   1.100   2.014   3.251  0.6772  0.8268  0.4769
  131DG      C2 2992   1.725   1.651   3.388  0.5673 -0.7474 -0.7219
  131DG      H3 2993   0.998   1.983   3.231  0.6222  0.8646  0.7012
  131DG      H4 2994   1.123   2.069   3.159  3.0658  1.4102  1.3417
  131DG      H5 2995   1.093   2.086   3.332 -0.0861  1.3149 -0.0162
  131DG      H6 2996   1.761   1.679   3.289 -0.8650  1.0508 -0.8029
  131DG      H7 2997   1.814   1.613   3.439 -0.4585  0.3018  2.0790
  131DG      H8 2998   1.662   1.563   3.387 -1.1216  0.3721  0.5193
  131DG      O9 2999   1.189   1.908   3.281  0.2392  0.3776 -0.0858
  131DG     O10 3000   1.656   1.762   3.447  0.5244  0.0046  0.7607
  131DG     C11 3001   1.162   1.850   3.402  0.3977  0.1509 -0.0381
  131DG     C12 3002   1.595   1.739   3.574  0.1243  0.3881  0.1247
  131DG     H13 3003   1.057   1.822   3.399  0.6349 -0.9108  0.7569
  131DG     H14 3004   1.174   1.924   3.481  2.3876 -1.9618  1.8241
  131DG     H15 3005   1.597   1.837   3.620  0.3874  1.1628 -1.4739
  131DG     H16 3006   1.656   1.668   3.629  0.9124 -0.1303 -1.3559
  131DG     C17 3007   1.254   1.727   3.440  0.0224  0.1572  0.3900
  131DG     C18 3008   1.460   1.686   3.549 -0.3588  0.1753 -0.7240
  131DG     O19 3009   1.387   1.771   3.465  0.3736 -0.0007 -0.2347
  131DG     H20 3010   1.255   1.650   3.363 -0.0667 -1.4150  1.9130
  131DG     H21 3011   1.211   1.668   3.520 -0.2383 -1.3134 -0.7950
  131DG     H22 3012   1.478   1.591   3.500  3.3590  1.0862 -1.4465
  131DG     H23 3013   1.408   1.667   3.643  2.2662  1.4269  1.1199
  132DG      C1 3014   0.182   4.562   0.589  0.0874 -0.5484  0.5925
  132DG      C2 3015   0.471   4.232   1.121 -0.1459 -0.1042 -0.0755
  132DG      H3 3016   0.196   4.591   0.485  1.6394 -0.5123  0.7937
  132DG      H4 3017   0.227   4.649   0.638  1.1014 -0.2530 -0.8150
  132DG      H5 3018   0.077   4.559   0.620 -0.2748 -0.8423 -0.6308
  132DG      H6 3019   0.391   4.297   1.157 -1.7821  0.0558 -3.6021
  132DG      H7 3020   0.451   4.126   1.139  1.6776 -0.1483  2.1632
  132DG      H8 3021   0.566   4.260   1.166  0.9596 -0.1406 -2.2555
  132DG      O9 3022   0.254   4.445   0.639 -0.1065  0.0205 -0.2970
  132DG     O10 3023   0.471   4.244   0.980  0.6969  0.2962  0.6655
  132DG     C11 3024   0.378   4.434   0.570 -0.1257  0.3263  1.2146
  132DG     C12 3025   0.570   4.173   0.910  0.2196  0.5198 -0.8050
  132DG     H13 3026   0.437   4.517   0.608 -1.0980  0.0300  3.6033
  132DG     H14 3027   0.367   4.437   0.462 -1.2811 -0.3610  1.2973
  132DG     H15 3028   0.578   4.071   0.948 -0.7372  0.8476  0.3644
  132DG     H16 3029   0.663   4.226   0.925 -0.3439  1.0627  1.0367
  132DG     C17 3030   0.432   4.298   0.602 -0.6016  0.1140  0.9320
  132DG     C18 3031   0.561   4.186   0.762 -0.5125 -0.0749 -0.0229
  132DG     O19 3032   0.483   4.296   0.734  0.2003 -0.6488  0.4046
  132DG     H20 3033   0.512   4.272   0.533 -0.2667  0.4044  1.2058
  132DG     H21 3034   0.363   4.214   0.594  2.3882 -2.5402  0.8071
  132DG     H22 3035   0.658   4.188   0.714 -1.0535 -0.2499 -1.1614
  132DG     H23 3036   0.509   4.095   0.732 -2.1765  0.5820  0.7303
  133DG      C1 3037   0.196   0.033   3.888 -0.2520  0.0344  0.5053
  133DG      C2 3038  -0.076   0.537   4.265 -0.6536 -0.7329 -0.0598
  133DG      H3 3039   0.260   0.085   3.818 -1.6494  2.6134  1.0266
  133DG      H4 3040   0.153  -0.049   3.830  0.3077 -0.2050  0.4206
  133DG      H5 3041   0.263  -0.006   3.965  1.8468  0.7018 -0.8905
  133DG      H6 3042  -0.167   0.565   4.318 -0.7029  2.8794 -1.7221
  133DG      H7 3043  -0.002   0.493   4.331 -1.0831  0.2940  1.1340
  133DG      H8 3044  -0.031   0.630   4.230  0.7558 -0.7131  1.6809
  133DG      O9 3045   0.089   0.116   3.925 -1.2645 -0.4316  0.4357
  133DG     O10 3046  -0.093   0.448   4.158 -0.2136  0.0800  0.5438
  133DG     C11 3047   0.024   0.160   3.804  0.0974  0.4043 -0.1618
  133DG     C12 3048  -0.167   0.497   4.052 -0.6155 -0.3829  0.3725
  133DG     H13 3049   0.015   0.076   3.735 -2.5882  1.0300 -0.6954
  133DG     H14 3050   0.094   0.233   3.763  0.0474  1.7166  1.9465
  133DG     H15 3051  -0.111   0.574   3.998 -0.2209 -0.4232  0.7246
  133DG     H16 3052  -0.256   0.545   4.093  0.4053  0.6351  1.4992
  133DG     C17 3053  -0.112   0.208   3.840 -0.2894 -0.6776 -0.1305
  133DG     C18 3054  -0.207   0.382   3.958  0.3567  0.9163 -0.4210
  133DG     O19 3055  -0.085   0.322   3.919  0.4365 -0.0813  0.4710
  133DG     H20 3056  -0.180   0.137   3.887  1.2743 -0.9262  1.8876
  133DG     H21 3057  -0.152   0.240   3.743 -0.8301  0.9347  0.5881
  133DG     H22 3058  -0.285   0.326   4.010  0.2763  0.8207 -0.6459
  133DG     H23 3059  -0.260   0.416   3.870 -1.1483 -0.4470 -0.0933
  134DG      C1 3060   0.197   1.644   2.159  0.5906 -0.4905  0.8402
  134DG      C2 3061   0.198   1.800   1.529  0.3342 -0.2128  0.0256
  134DG      H3 3062   0.298   1.602   2.162  2.1438  2.6612 -1.3119
  134DG      H4 3063   0.125   1.577   2.112 -2.4457  2.6955  0.4778
  134DG      H5 3064   0.158   1.670   2.257  0.2302  0.2828  0.4993
  134DG      H6 3065   0.119   1.725   1.518 -0.1212  0.2500  0.1215
  134DG      H7 3066   0.162   1.869   1.454  3.2083 -0.2985 -1.5525
  134DG      H8 3067   0.295   1.764   1.495  0.2374  1.3129 -2.0131
  134DG      O9 3068   0.192   1.765   2.082 -0.0399 -1.0920  0.2408
  134DG     O10 3069   0.189   1.859   1.655  0.7963 -0.3001 -0.1100
  134DG     C11 3070   0.291   1.860   2.133  0.4242 -0.3070  0.3722
  134DG     C12 3071   0.279   1.969   1.674  0.2545 -0.4130  0.8192
  134DG     H13 3072   0.390   1.815   2.146  0.6053  0.1859  0.7292
  134DG     H14 3073   0.260   1.897   2.231 -1.7702  0.4248 -0.5401
  134DG     H15 3074   0.254   2.045   1.600  2.1016  0.2821  0.8502
  134DG     H16 3075   0.377   1.927   1.648  0.2750  0.9738 -1.6490
  134DG     C17 3076   0.301   1.978   2.032  0.2218 -0.4934  0.0346
  134DG     C18 3077   0.291   2.031   1.809  0.2321  0.3374  0.5155
  134DG     O19 3078   0.302   1.924   1.905  0.3964  0.3078  0.3658
  134DG     H20 3079   0.386   2.046   2.041 -0.9434  1.0151 -0.1028
  134DG     H21 3080   0.210   2.035   2.051  0.2946 -0.1740 -0.5507
  134DG     H22 3081   0.374   2.101   1.798  1.4214 -0.8131  1.8159
  134DG     H23 3082   0.205   2.093   1.832  0.4781  1.0021 -0.2996
  135DG      C1 3083   4.289   0.030   1.124 -0.0700  0.6611  0.2080
  135DG      C2 3084   4.735  -0.416   0.853 -0.2305 -0.4545 -0.3014
  135DG      H3 3085   4.297   0.102   1.205  0.4541 -0.1727  0.9113
  135DG      H4 3086   4.249  -0.055   1.180  2.4184  0.3470  1.6451
  135DG      H5 3087   4.225   0.071   1.045 -0.1571 -0.4020 -0.2916
  135DG      H6 3088   4.826  -0.473   0.835 -0.2414 -0.9256  1.0474
  135DG      H7 3089   4.686  -0.457   0.941  0.9213 -0.1459  0.5074
  135DG      H8 3090   4.671  -0.439   0.767 -1.3200  2.5450 -0.4342
  135DG      O9 3091   4.418  -0.001   1.074 -0.5996  0.6322 -0.2799
  135DG     O10 3092   4.755  -0.274   0.851 -0.2260  0.5925  0.1118
  135DG     C11 3093   4.495   0.100   1.005  0.1464  0.0692  0.0394
  135DG     C12 3094   4.842  -0.218   0.948 -0.3996 -0.2531  0.0642
  135DG     H13 3095   4.471   0.203   1.034 -0.9026 -0.7309  2.3262
  135DG     H14 3096   4.459   0.111   0.903 -0.8976  0.5597  0.4384
  135DG     H15 3097   4.946  -0.241   0.923  0.3359  1.7384  1.0377
  135DG     H16 3098   4.816  -0.265   1.042 -0.4289  2.0664  1.2871
  135DG     C17 3099   4.644   0.077   1.007  0.1277 -0.2305 -0.1539
  135DG     C18 3100   4.820  -0.070   0.973 -0.6269  0.2781 -0.0093
  135DG     O19 3101   4.676  -0.053   0.976  0.6709 -0.7542 -0.7045
  135DG     H20 3102   4.686   0.093   1.107  0.4395 -1.0837 -0.1402
  135DG     H21 3103   4.698   0.146   0.943  1.2954 -0.3054  0.7257
  135DG     H22 3104   4.859  -0.049   1.073 -0.5246 -1.3684  0.3279
  135DG     H23 3105   4.869  -0.010   0.896  2.6315 -2.3693 -0.2292
  136DG      C1 3106   1.518   4.464   0.985  0.0168 -0.4060  0.0507
  136DG      C2 3107   1.341   4.221   1.611 -0.0811  0.4108  1.0467
  136DG      H3 3108   1.544   4.552   0.926  3.2982  1.2734  3.5218
  136DG      H4 3109   1.474   4.381   0.930 -1.2545  0.0544  0.3351
  136DG      H5 3110   1.608   4.431   1.037  0.7395 -0.9483 -1.4960
  136DG      H6 3111   1.356   4.121   1.568  1.3732  1.0325  0.0071
  136DG      H7 3112   1.436   4.252   1.654  1.6817 -0.0862 -2.1192
  136DG      H8 3113   1.265   4.212   1.688  0.5952  0.4582  1.7309
  136DG      O9 3114   1.426   4.491   1.094  0.1571 -0.3328  0.2774
  136DG     O10 3115   1.300   4.319   1.523  0.2503  0.6349  0.1499
  136DG     C11 3116   1.470   4.590   1.191 -0.3263 -0.0496  0.3862
  136DG     C12 3117   1.269   4.444   1.584 -0.4507 -1.1043 -0.0590
  136DG     H13 3118   1.495   4.678   1.132  1.7123 -0.6371  0.2768
  136DG     H14 3119   1.556   4.565   1.253 -0.0218 -0.0589 -0.0314
  136DG     H15 3120   1.349   4.484   1.647 -0.9677  3.3945 -1.8680
  136DG     H16 3121   1.189   4.445   1.658 -0.6833 -0.5213 -0.3094
  136DG     C17 3122   1.355   4.628   1.281 -0.0192  0.2987 -0.0582
  136DG     C18 3123   1.252   4.554   1.485  0.1344 -0.1557  0.0029
  136DG     O19 3124   1.348   4.531   1.383  0.3030  0.2686 -0.0042
  136DG     H20 3125   1.257   4.641   1.234 -0.2740 -0.1616  0.3279
  136DG     H21 3126   1.367   4.726   1.328 -2.1492  1.4212 -1.6795
  136DG     H22 3127   1.155   4.550   1.435  0.3898  1.9064 -0.7651
  136DG     H23 3128   1.275   4.646   1.539  1.2976 -1.4199  1.7884
  137DG      C1 3129   2.327   4.712   3.218  0.3486 -0.1277 -0.4720
  137DG      C2 3130   2.651   5.281   2.957 -0.6415  0.1668  0.4721
  137DG      H3 3131   2.260   4.785   3.262  2.1850  0.7339  1.0443
  137DG      H4 3132   2.387   4.678   3.303 -0.7678 -0.0211  0.3856
  137DG      H5 3133   2.261   4.633   3.184  0.4952 -0.7715  0.6592
  137DG      H6 3134   2.704   5.316   3.046  1.1512  1.0199 -0.8798
  137DG      H7 3135   2.722   5.323   2.887  0.1047  0.9170  1.6308
  137DG      H8 3136   2.551   5.324   2.966 -0.7133 -0.1183  1.1493
  137DG      O9 3137   2.406   4.778   3.126 -0.0048 -0.1354  0.1919
  137DG     O10 3138   2.639   5.136   2.967 -0.1460  0.2945  0.1123
  137DG     C11 3139   2.494   4.686   3.064  0.6345 -0.0318  0.2205
  137DG     C12 3140   2.760   5.075   3.004 -0.4708  0.2448  0.0846
  137DG     H13 3141   2.439   4.603   3.019  0.4514 -1.1283  2.3358
  137DG     H14 3142   2.541   4.630   3.145 -1.2365 -0.2802  1.1746
  137DG     H15 3143   2.783   5.084   3.110 -0.1860  1.2387 -0.0490
  137DG     H16 3144   2.838   5.122   2.944  1.6597 -0.9787  1.7512
  137DG     C17 3145   2.589   4.752   2.966 -0.5544  0.2532 -0.0519
  137DG     C18 3146   2.738   4.930   2.957  0.2462  0.6546 -0.0441
  137DG     O19 3147   2.628   4.872   3.027  0.2840  0.6615  0.2082
  137DG     H20 3148   2.534   4.762   2.872  0.7710 -0.9830 -1.0076
  137DG     H21 3149   2.673   4.684   2.954 -1.7402 -1.6478  1.9117
  137DG     H22 3150   2.727   4.911   2.850  0.3011 -2.0880  0.3651
  137DG     H23 3151   2.825   4.871   2.985 -0.9410 -1.7210 -1.0843
  138DG      C1 3152   2.448   2.313   0.676  0.6128 -0.0159 -0.9722
  138DG      C2 3153   1.938   2.541   0.293 -0.1069 -0.3896  0.5600
  138DG      H3 3154   2.497   2.300   0.773  1.1093  1.5745 -0.9859
  138DG      H4 3155   2.472   2.418   0.658 -0.6146  0.2817 -0.9203
  138DG      H5 3156   2.500   2.249   0.604  1.7232  0.9285 -1.0414
  138DG      H6 3157   1.992   2.486   0.216  0.4700  0.0289  0.6546
  138DG      H7 3158   1.839   2.569   0.256  0.5787  1.2142 -0.1681
  138DG      H8 3159   1.994   2.633   0.312  1.4460 -1.3144  0.5889
  138DG      O9 3160   2.304   2.305   0.690  0.1052  0.4247  0.4220
  138DG     O10 3161   1.953   2.475   0.416 -0.2004  0.2230  0.0686
  138DG     C11 3162   2.252   2.171   0.679 -0.3923  0.6166 -0.0050
  138DG     C12 3163   1.894   2.348   0.411 -0.1307  0.9135  0.0465
  138DG     H13 3164   2.285   2.115   0.766  0.7360  1.3541  0.0589
  138DG     H14 3165   2.297   2.122   0.592  0.7154  0.7743  0.4597
  138DG     H15 3166   1.942   2.294   0.329 -1.5654  1.2883 -1.0787
  138DG     H16 3167   1.787   2.343   0.397 -0.4085 -2.0400  2.1961
  138DG     C17 3168   2.099   2.164   0.663  0.4079 -0.0726 -0.5771
  138DG     C18 3169   1.929   2.282   0.546  0.0422  1.0101  0.6835
  138DG     O19 3170   2.065   2.232   0.545  0.5912  0.1986  0.4573
  138DG     H20 3171   2.049   2.205   0.751  0.8176  0.6437 -0.6705
  138DG     H21 3172   2.068   2.059   0.655  0.7504 -0.0896 -2.0037
  138DG     H22 3173   1.917   2.353   0.627 -1.6345  0.7945  0.6628
  138DG     H23 3174   1.849   2.210   0.564 -0.3221  1.4647  0.8849
  139DG      C1 3175   1.943   1.090   1.013  0.0417  0.2413  0.3975
  139DG      C2 3176   1.411   1.421   0.980  0.3547  0.3132 -0.3696
  139DG      H3 3177   1.967   1.131   1.111 -1.2482  0.5759  0.5825
  139DG      H4 3178   2.031   1.034   0.981  1.3926  2.3804  0.1185
  139DG      H5 3179   1.860   1.020   1.016  0.3138 -0.2040 -1.3995
  139DG      H6 3180   1.315   1.380   0.952  0.6103 -1.1947  0.8271
  139DG      H7 3181   1.423   1.403   1.087  0.8945  1.3940 -0.2306
  139DG      H8 3182   1.405   1.530   0.978  2.2944  0.4753  0.0925
  139DG      O9 3183   1.917   1.193   0.922 -0.0341 -0.7565  1.2576
  139DG     O10 3184   1.518   1.366   0.901  0.3799  0.0753  0.3119
  139DG     C11 3185   1.925   1.163   0.784  0.0053  0.4924  0.3222
  139DG     C12 3186   1.513   1.405   0.764  0.1057 -0.1156  0.3064
  139DG     H13 3187   1.896   1.059   0.773  0.4911  0.5630 -2.2161
  139DG     H14 3188   2.033   1.172   0.771  0.1500  0.6585  1.5235
  139DG     H15 3189   1.512   1.514   0.753 -0.0885 -0.1564 -0.1464
  139DG     H16 3190   1.418   1.365   0.727 -0.6159  1.2060  0.6443
  139DG     C17 3191   1.846   1.257   0.699 -0.6455 -0.3635 -0.3272
  139DG     C18 3192   1.625   1.331   0.676  0.2026 -0.1608 -0.6016
  139DG     O19 3193   1.729   1.297   0.767  0.1180  0.0589  0.6788
  139DG     H20 3194   1.826   1.208   0.604  2.8873 -2.6371 -0.0649
  139DG     H21 3195   1.911   1.344   0.687 -1.2989  0.1940  0.1079
  139DG     H22 3196   1.581   1.240   0.635  1.4296 -1.1826  0.2611
  139DG     H23 3197   1.659   1.398   0.597  1.0254  1.8574  1.3289
  140DG      C1 3198   4.022   0.963   2.762  0.2047 -0.4098 -0.0264
  140DG      C2 3199   4.597   0.627   2.733  0.0571  0.4590  0.6182
  140DG      H3 3200   4.016   0.984   2.869  0.6527 -0.2042 -0.0425
  140DG      H4 3201   3.926   0.998   2.725 -0.4216 -1.4412  0.5443
  140DG      H5 3202   4.099   1.025   2.718  0.6292 -1.8675 -1.4399
  140DG      H6 3203   4.654   0.645   2.641 -1.2500 -0.4302 -0.3986
  140DG      H7 3204   4.617   0.707   2.805  0.8362  0.8337 -0.0020
  140DG      H8 3205   4.633   0.537   2.782 -1.3172  0.5007  1.7792
  140DG      O9 3206   4.039   0.828   2.739  0.3135 -0.3091 -0.4018
  140DG     O10 3207   4.456   0.621   2.704 -0.1259  0.0036  0.2437
  140DG     C11 3208   4.003   0.793   2.606 -0.3278  0.2204  0.5024
  140DG     C12 3209   4.406   0.529   2.608 -0.2033  0.8714 -0.0170
  140DG     H13 3210   4.062   0.853   2.537  0.3861 -0.8411  0.1707
  140DG     H14 3211   3.896   0.811   2.591 -0.4855 -0.3903  0.8522
  140DG     H15 3212   4.436   0.427   2.633 -0.4360  1.0883  1.2405
  140DG     H16 3213   4.433   0.558   2.507 -1.7765 -0.1527 -0.7727
  140DG     C17 3214   4.051   0.642   2.583 -0.3128  0.4914 -0.2683
  140DG     C18 3215   4.257   0.514   2.608 -0.3955  0.1949  0.1176
  140DG     O19 3216   4.192   0.639   2.619 -0.0277  0.6108 -0.7069
  140DG     H20 3217   4.020   0.600   2.487 -0.8828  2.5499 -1.0284
  140DG     H21 3218   3.995   0.583   2.656 -2.7651  3.1880  0.1809
  140DG     H22 3219   4.216   0.446   2.533 -0.1518  0.3058 -0.1221
  140DG     H23 3220   4.228   0.463   2.700  2.4070 -1.4797  0.1957
  141DG      C1 3221   4.523   3.285   0.630  0.0877  0.0232  0.5212
  141DG      C2 3222   4.530   3.873   0.451 -0.2245 -0.0745 -0.2399
  141DG      H3 3223   4.464   3.237   0.708  1.5099 -2.5848  0.1207
  141DG      H4 3224   4.622   3.318   0.661 -0.1120 -0.2851  1.5377
  141DG      H5 3225   4.542   3.208   0.555 -0.3293  2.6777 -2.4960
  141DG      H6 3226   4.536   3.969   0.401  1.4194  0.2204  0.4838
  141DG      H7 3227   4.484   3.881   0.549  0.5167  1.1782  0.0212
  141DG      H8 3228   4.636   3.857   0.466 -0.0613  1.3135  0.1859
  141DG      O9 3229   4.449   3.384   0.564  0.4217  0.4662 -0.4597
  141DG     O10 3230   4.471   3.768   0.374  0.4999 -0.2668  0.3084
  141DG     C11 3231   4.322   3.336   0.514 -0.3852  0.3504 -0.4115
  141DG     C12 3232   4.331   3.778   0.373 -0.0549 -0.2586  0.4415
  141DG     H13 3233   4.254   3.294   0.587 -1.2452 -0.7611 -1.7968
  141DG     H14 3234   4.336   3.257   0.441  0.4787 -0.3368  0.4710
  141DG     H15 3235   4.301   3.875   0.332  0.1982  1.1886  3.3793
  141DG     H16 3236   4.288   3.777   0.473 -0.5900 -2.3186  0.2252
  141DG     C17 3237   4.245   3.458   0.459  0.2551 -0.8175 -0.2573
  141DG     C18 3238   4.274   3.648   0.302 -0.0382  0.2791 -0.5039
  141DG     O19 3239   4.323   3.530   0.355  0.6294 -0.0457  0.5058
  141DG     H20 3240   4.252   3.527   0.544 -1.6179 -1.3010  0.3464
  141DG     H21 3241   4.138   3.458   0.437  0.0906 -0.8131  0.4945
  141DG     H22 3242   4.166   3.641   0.315 -0.1663  0.8942 -1.1669
  141DG     H23 3243   4.292   3.655   0.195  4.4894 -1.9219 -0.0897
  142DG      C1 3244   2.453   3.656   4.814  0.5125 -0.3813 -0.4581
  142DG      C2 3245   2.561   3.196   4.427 -0.3402  0.7862 -0.5563
  142DG      H3 3246   2.493   3.734   4.879  1.3620 -1.0138 -0.2060
  142DG      H4 3247   2.530   3.580   4.804 -0.9203 -1.9152 -0.4397
  142DG      H5 3248   2.379   3.617   4.884  0.9089  1.5625  1.1610
  142DG      H6 3249   2.471   3.153   4.471 -0.7571  1.2932 -0.9086
  142DG      H7 3250   2.552   3.181   4.320 -1.5834  1.5724 -0.5768
  142DG      H8 3251   2.640   3.142   4.479 -2.1704 -0.6854  0.8607
  142DG      O9 3252   2.395   3.699   4.684  0.4390  0.1056  0.2987
  142DG     O10 3253   2.569   3.332   4.475  0.8143  0.7789  0.1831
  142DG     C11 3254   2.476   3.791   4.615  0.1250 -0.4737  0.2550
  142DG     C12 3255   2.686   3.387   4.420 -0.4268  0.0456 -0.1791
  142DG     H13 3256   2.496   3.884   4.669  2.2569 -0.2930 -0.7594
  142DG     H14 3257   2.397   3.810   4.542 -0.4125 -1.2860  0.6096
  142DG     H15 3258   2.687   3.398   4.312 -0.9842 -2.8059 -0.5547
  142DG     H16 3259   2.761   3.309   4.433 -2.8637 -2.4795 -0.2598
  142DG     C17 3260   2.605   3.735   4.555 -0.3636 -0.4274  0.3692
  142DG     C18 3261   2.712   3.524   4.487 -0.0413  0.0878  0.5822
  142DG     O19 3262   2.590   3.605   4.500  0.4835  0.3651 -0.8532
  142DG     H20 3263   2.688   3.718   4.625  0.5935  1.6060 -0.1882
  142DG     H21 3264   2.646   3.794   4.473 -0.1091 -0.4590  0.4726
  142DG     H22 3265   2.747   3.508   4.589 -0.8180 -2.4589  0.5229
  142DG     H23 3266   2.788   3.583   4.436  1.4084 -1.6203  0.6660
  143DG      C1 3267   0.228   2.936   4.311 -0.7774  0.3427 -0.2646
  143DG      C2 3268  -0.061   2.712   3.697  1.0412  0.6909 -0.1793
  143DG      H3 3269   0.333   2.927   4.341 -0.6097 -0.3663 -1.0327
  143DG      H4 3270   0.166   2.880   4.381 -0.0895 -0.3390 -0.1899
  143DG      H5 3271   0.184   3.036   4.313 -2.0181 -0.1997  0.5532
  143DG      H6 3272   0.041   2.732   3.731  1.7503 -0.5123 -1.5223
  143DG      H7 3273  -0.059   2.668   3.598 -2.3769 -0.1864  0.0172
  143DG      H8 3274  -0.125   2.800   3.697 -0.2460 -0.2150  0.0366
  143DG      O9 3275   0.202   2.885   4.183 -0.1500 -0.4468 -0.4925
  143DG     O10 3276  -0.107   2.612   3.787  0.1022 -0.1268 -0.2801
  143DG     C11 3277   0.273   2.771   4.147  0.3861  0.6961  0.5854
  143DG     C12 3278  -0.105   2.654   3.927 -0.3001 -0.7260  0.1304
  143DG     H13 3279   0.224   2.689   4.201 -2.2006  2.5654  1.2502
  143DG     H14 3280   0.381   2.776   4.161  0.4947  0.0267  0.0667
  143DG     H15 3281  -0.185   2.604   3.983 -1.0325  0.5296  0.2397
  143DG     H16 3282  -0.143   2.756   3.930  0.2281 -0.5275 -0.0221
  143DG     C17 3283   0.256   2.741   4.003 -0.2832  0.1144 -0.2516
  143DG     C18 3284   0.031   2.648   4.001  0.2193 -0.6378 -0.0223
  143DG     O19 3285   0.122   2.749   3.953 -0.1623  0.1694 -0.9542
  143DG     H20 3286   0.300   2.643   3.985 -0.5318 -0.1066  0.3231
  143DG     H21 3287   0.323   2.805   3.945  1.4773 -0.5581  0.9596
  143DG     H22 3288   0.009   2.649   4.108 -4.4742 -3.1448 -0.6901
  143DG     H23 3289   0.075   2.552   3.974  0.0602 -0.6990 -0.0649
  144DG      C1 3290   2.103   3.684   1.749 -0.5383  0.3363  0.4933
  144DG      C2 3291   2.708   3.756   1.581  0.3773 -0.1380 -0.2004
  144DG      H3 3292   2.136   3.760   1.678 -1.1186 -1.3342 -1.6645
  144DG      H4 3293   2.075   3.711   1.851 -0.7874 -1.0515  0.8053
  144DG      H5 3294   2.008   3.646   1.711 -0.0625  2.2218 -3.0071
  144DG      H6 3295   2.659   3.821   1.508  1.8752 -1.7920 -2.8451
  144DG      H7 3296   2.739   3.817   1.666  1.1749 -0.3621 -0.3227
  144DG      H8 3297   2.792   3.725   1.519 -0.3761  0.7421 -1.7440
  144DG      O9 3298   2.215   3.594   1.748  0.0511  0.3415  0.1518
  144DG     O10 3299   2.632   3.638   1.618 -0.1980 -0.0126  0.2314
  144DG     C11 3300   2.231   3.497   1.856  0.4946  0.7065 -0.4123
  144DG     C12 3301   2.678   3.593   1.741 -0.2135  0.5084 -0.2489
  144DG     H13 3302   2.146   3.429   1.859  0.3902  0.5727 -3.4721
  144DG     H14 3303   2.236   3.551   1.950  0.4749  0.3015 -0.1781
  144DG     H15 3304   2.658   3.672   1.813  1.3104  2.6822 -2.0765
  144DG     H16 3305   2.787   3.582   1.744 -0.0308  2.2194  0.3166
  144DG     C17 3306   2.361   3.419   1.844 -0.3003 -0.3856 -0.4051
  144DG     C18 3307   2.591   3.464   1.761  0.3136  0.4724  0.1398
  144DG     O19 3308   2.453   3.509   1.793  0.0568  0.0373  0.4807
  144DG     H20 3309   2.347   3.330   1.782  1.2901 -0.8929 -0.0865
  144DG     H21 3310   2.400   3.390   1.941  0.0811  1.5026  0.0332
  144DG     H22 3311   2.605   3.388   1.684  0.4928  0.1184  0.5189
  144DG     H23 3312   2.627   3.403   1.844  1.9284  1.2685  0.0676
  145THF     O1 3313   4.322   0.908   4.765 -0.7306  0.3824  0.3022
  145THF     C2 3314   4.250   0.826   4.851 -0.5786  0.1006 -0.5821
  145THF     C3 3315   4.411   0.988   4.838 -0.7631  0.5405 -0.0313
  145THF     H4 3316   4.226   0.736   4.794 -0.4166 -0.9651  0.9591
  145THF     H5 3317   4.155   0.870   4.881 -0.6942  0.2481 -1.1532
  145THF     H6 3318   4.504   0.978   4.781 -2.2023  0.3467 -2.5107
  145THF     H7 3319   4.382   1.092   4.828 -1.8506  0.2971  0.4735
  145THF     C8 3320   4.397   0.941   4.983  0.0380 -0.0713 -0.7368
  145THF     C9 3321   4.344   0.806   4.968 -0.9400  0.1796 -0.2866
  145THF    H10 3322   4.315   0.994   5.032  1.4670  1.7828 -0.2390
  145THF    H11 3323   4.487   0.941   5.044 -0.4810  1.0803  0.0620
  145THF    H12 3324   4.421   0.731   4.946 -0.5769  0.2356  0.7174
  145THF    H13 3325   4.302   0.776   5.064  3.0930  1.1608  2.0250
  146THF     O1 3326   0.624   3.244   1.178 -0.3767 -0.2297 -0.7652
  146THF     C2 3327   0.706   3.209   1.074  0.5589  0.0210 -0.0835
  146THF     C3 3328   0.687   3.226   1.305 -0.4457 -0.1297 -0.3479
  146THF     H4 3329   0.739   3.299   1.021 -1.2872  0.1863 -1.0603
  146THF     H5 3330   0.657   3.159   0.991  0.2601  2.6329 -1.6029
  146THF     H6 3331   0.680   3.324   1.353 -4.2762  1.5808 -3.7436
  146THF     H7 3332   0.623   3.163   1.367  0.0759  0.7393  1.1195
  146THF     C8 3333   0.824   3.173   1.280 -0.0433  0.1129  0.0101
  146THF     C9 3334   0.818   3.121   1.139  0.4373  0.1146 -0.0432
  146THF    H10 3335   0.848   3.081   1.333 -3.4947 -0.4399  0.8506
  146THF    H11 3336   0.906   3.244   1.293  1.9813 -1.8906 -1.1215
  146THF    H12 3337   0.907   3.130   1.076  0.2808  1.0974 -0.1469
  146THF    H13 3338   0.790   3.016   1.141  0.7102  0.0075 -1.0685
  147THF     O1 3339   2.650   2.377   5.248 -0.3719  0.3600 -0.5221
  147THF     C2 3340   2.594   2.500   5.205  0.2163  0.0281  0.2048
  147THF     C3 3341   2.594   2.351   5.375 -0.9791 -0.0274 -0.1931
  147THF     H4 3342   2.596   2.503   5.096 -0.5312 -4.1236 -0.0715
  147THF     H5 3343   2.659   2.577   5.247  0.3398  0.6094 -0.9767
  147THF     H6 3344   2.605   2.247   5.409  1.4310  0.6542  1.4509
  147THF     H7 3345   2.634   2.426   5.444 -1.1757  1.4414 -1.6302
  147THF     C8 3346   2.452   2.371   5.350  0.7451 -0.4780  0.0049
  147THF     C9 3347   2.454   2.499   5.263  0.1893 -0.5260  0.4114
  147THF    H10 3348   2.394   2.372   5.443  1.9789  2.3079  0.8566
  147THF    H11 3349   2.412   2.298   5.281 -1.5439  2.1918 -1.6955
  147THF    H12 3350   2.373   2.496   5.189  1.3760 -0.9823 -0.9161
  147THF    H13 3351   2.433   2.589   5.321  1.8760  0.2188 -0.0851
  148THF     O1 3352   2.977   0.795   3.174  0.1247  0.0344 -0.2700
  148THF     C2 3353   3.109   0.767   3.218  0.1579  0.9335 -0.0730
  148THF     C3 3354   2.986   0.905   3.080  0.0468  0.1227 -0.1870
  148THF     H4 3355   3.125   0.661   3.201 -1.0924  0.8366 -0.8225
  148THF     H5 3356   3.106   0.793   3.324  0.2553 -0.0925  0.1928
  148THF     H6 3357   3.012   0.848   2.991  0.8202 -0.2726  0.2785
  148THF     H7 3358   2.899   0.968   3.061 -0.3875 -1.0342 -2.3344
  148THF     C8 3359   3.110   0.976   3.124 -0.0323 -0.3530  0.5039
  148THF     C9 3360   3.206   0.864   3.148 -0.5219  0.0380  0.3305
  148THF    H10 3361   3.094   1.026   3.220 -0.5065 -0.0758  0.2840
  148THF    H11 3362   3.136   1.051   3.049 -0.7004 -0.4856  0.1350
  148THF    H12 3363   3.241   0.823   3.054  1.0183 -0.5065  1.1053
  148THF    H13 3364   3.293   0.889   3.208 -0.6876  2.3334 -0.2743
  149THF     O1 3365   1.273   5.501   3.973 -0.2067 -0.4467  0.6364
  149THF     C2 3366   1.229   5.607   4.055  0.0324  0.4600  0.4999
  149THF     C3 3367   1.416   5.522   3.971  0.6041  0.1321  0.2373
  149THF     H4 3368   1.128   5.583   4.090  0.3204 -2.5573 -0.3872
  149THF     H5 3369   1.216   5.704   4.007 -2.0549  0.8046  1.6486
  149THF     H6 3370   1.477   5.448   3.920  2.2455  2.3790 -1.2690
  149THF     H7 3371   1.438   5.613   3.915  1.0724  1.9793  3.1701
  149THF     C8 3372   1.451   5.552   4.121  0.0646 -0.0244  0.0482
  149THF     C9 3373   1.325   5.615   4.171  0.3759  0.4611  0.4137
  149THF    H10 3374   1.540   5.614   4.124  0.5684 -0.6827 -0.7931
  149THF    H11 3375   1.467   5.465   4.185 -1.1619  0.8190  1.5692
  149THF    H12 3376   1.290   5.572   4.265 -3.6838  1.6989 -0.3199
  149THF    H13 3377   1.333   5.720   4.199 -2.3758  0.3439  1.9376
  150THF     O1 3378   3.366   2.902   2.585  0.0468  0.1607 -0.3067
  150THF     C2 3379   3.377   3.017   2.503 -0.4117  0.2895 -0.2391
  150THF     C3 3380   3.313   2.952   2.709  0.3523  0.1896 -0.1652
  150THF     H4 3381   3.399   2.995   2.399 -1.8324  1.5131 -0.8343
  150THF     H5 3382   3.452   3.087   2.541 -0.5898  0.1589  0.3700
  150THF     H6 3383   3.280   2.873   2.777  1.5698 -0.0043  0.2234
  150THF     H7 3384   3.380   3.014   2.769 -0.2282  0.9057 -0.2394
  150THF     C8 3385   3.199   3.051   2.669 -0.3552  0.7899  0.0791
  150THF     C9 3386   3.242   3.080   2.527  0.7133 -0.0761  0.4183
  150THF    H10 3387   3.196   3.146   2.723 -0.3477  1.4406 -1.0364
  150THF    H11 3388   3.098   3.009   2.680  0.6843 -1.5214  1.5142
  150THF    H12 3389   3.175   3.035   2.453 -0.4506 -0.7893  1.8445
  150THF    H13 3390   3.238   3.186   2.505  0.8238 -0.0338  0.6020
  151THF     O1 3391   0.700   3.112   4.046 -0.4415 -0.4298  0.3784
  151THF     C2 3392   0.642   3.012   4.134 -0.0042 -0.1805  0.2925
  151THF     C3 3393   0.785   3.056   3.947  0.7375  0.0879  0.6783
  151THF     H4 3394   0.535   3.024   4.151  0.3195  0.0463  2.6092
  151THF     H5 3395   0.692   3.003   4.231 -1.4473 -3.4838  0.8864
  151THF     H6 3396   0.746   3.082   3.849  0.2502  0.3923  0.9461
  151THF     H7 3397   0.884   3.098   3.961  0.9706  0.0846 -0.8424
  151THF     C8 3398   0.800   2.908   3.987  0.6114 -0.0846  0.6472
  151THF     C9 3399   0.670   2.884   4.057 -0.3078  0.4933 -0.2408
  151THF    H10 3400   0.888   2.893   4.050  0.6738  2.0668  1.1580
  151THF    H11 3401   0.809   2.847   3.897 -0.0147  2.4984 -1.2719
  151THF    H12 3402   0.591   2.864   3.984 -1.3789 -0.3168  1.0826
  151THF    H13 3403   0.676   2.798   4.123 -2.8463  1.2469  1.0949
  152THF     O1 3404   0.575   5.196   1.040 -0.2456 -0.6274  0.3239
  152THF     C2 3405   0.447   5.247   1.020 -0.6489 -0.2280  0.3314
  152THF     C3 3406   0.627   5.151   0.920 -0.3291 -0.1677 -0.0320
  152THF     H4 3407   0.444   5.325   1.096 -3.3105  0.4045 -0.3122
  152THF     H5 3408   0.363   5.182   1.041  1.1931 -2.0633  2.5707
  152THF     H6 3409   0.721   5.203   0.904 -1.2707  1.1253 -1.7827
  152THF     H7 3410   0.641   5.043   0.919  0.2801 -0.1070 -1.7846
  152THF     C8 3411   0.518   5.189   0.814  0.7343 -0.0193 -0.5938
  152THF     C9 3412   0.447   5.304   0.882  0.5170  0.2125  0.3400
  152THF    H10 3413   0.466   5.092   0.812  2.8192 -1.2927  1.8802
  152THF    H11 3414   0.555   5.208   0.713 -0.0861 -0.7840 -1.0690
  152THF    H12 3415   0.495   5.402   0.882  2.8398 -0.8408  1.4210
  152THF    H13 3416   0.354   5.325   0.830  1.1632  0.8818 -0.5714
  153THF     O1 3417   2.091   2.721   5.029  0.9191  0.2642 -0.1384
  153THF     C2 3418   2.175   2.698   4.911  0.3077 -0.4835 -0.2034
  153THF     C3 3419   1.954   2.679   4.998 -0.6185 -0.1235  0.1663
  153THF     H4 3420   2.253   2.634   4.953 -0.5898 -0.5590  1.4508
  153THF     H5 3421   2.232   2.784   4.875  0.2996 -0.9692 -1.4265
  153THF     H6 3422   1.938   2.579   5.037 -0.2941 -0.1671  0.1947
  153THF     H7 3423   1.881   2.751   5.034 -0.3324  0.9868 -1.3391
  153THF     C8 3424   1.961   2.691   4.842 -0.7799 -0.1678  0.1374
  153THF     C9 3425   2.092   2.638   4.801  0.2377 -0.2208 -0.4657
  153THF    H10 3426   1.964   2.798   4.822 -0.2200  0.1163  1.6134
  153THF    H11 3427   1.876   2.643   4.793 -0.6203 -0.1682 -0.1419
  153THF    H12 3428   2.095   2.530   4.813 -0.1511 -0.2504 -0.6302
  153THF    H13 3429   2.118   2.666   4.699  0.1882  1.5539 -0.0276
  154THF     O1 3430   2.508   5.501   3.183 -0.2910 -0.3948  0.5582
  154THF     C2 3431   2.384   5.558   3.131 -0.5336  1.0638  0.0667
  154THF     C3 3432   2.569   5.582   3.283  0.4142  0.4788 -0.0784
  154THF     H4 3433   2.311   5.536   3.208  2.1131 -1.3252  2.0675
  154THF     H5 3434   2.344   5.526   3.035  1.7316  0.7892 -0.8616
  154THF     H6 3435   2.535   5.549   3.381  2.0039 -2.5364 -0.4296
  154THF     H7 3436   2.676   5.563   3.270  0.0592 -0.2126 -2.4344
  154THF     C8 3437   2.528   5.726   3.240  0.4756 -0.5197 -0.1749
  154THF     C9 3438   2.428   5.708   3.120  0.2882 -0.2292 -0.3902
  154THF    H10 3439   2.611   5.787   3.206  0.0745  0.3345  0.3625
  154THF    H11 3440   2.495   5.786   3.324  3.3703  1.1751 -0.1148
  154THF    H12 3441   2.348   5.783   3.119  0.3804 -0.0759  1.0073
  154THF    H13 3442   2.483   5.726   3.028 -1.7799  0.8979 -1.4750
  155THF     O1 3443   3.744   1.905   2.246 -0.1965  0.3871  0.1459
  155THF     C2 3444   3.704   2.037   2.201  0.3043  0.4278  0.2412
  155THF     C3 3445   3.848   1.907   2.341  0.7597  0.3748 -0.1933
  155THF     H4 3446   3.605   2.063   2.239 -0.1678 -2.0553  0.8753
  155THF     H5 3447   3.704   2.039   2.092 -0.6488 -1.6276  0.1507
  155THF     H6 3448   3.827   1.826   2.411 -1.5014  1.6136  0.6607
  155THF     H7 3449   3.947   1.891   2.298  0.7683 -0.9064  0.2504
  155THF     C8 3450   3.848   2.049   2.393 -0.5645  0.5765 -0.5598
  155THF     C9 3451   3.810   2.126   2.269  0.1143 -0.5003  0.4588
  155THF    H10 3452   3.943   2.075   2.440 -0.1331 -0.0200 -1.0663
  155THF    H11 3453   3.764   2.056   2.462 -0.1295  0.0527  0.0363
  155THF    H12 3454   3.773   2.228   2.276  0.5639 -0.3447  0.6128
  155THF    H13 3455   3.897   2.146   2.206  0.7141 -0.3287  1.3260
  156THF     O1 3456   3.671   1.859   3.767 -0.3559 -0.2772 -0.4390
  156THF     C2 3457   3.605   1.833   3.648  0.1218  0.2104 -0.4595
  156THF     C3 3458   3.774   1.758   3.782 -0.5332 -0.1232 -0.7827
  156THF     H4 3459   3.670   1.851   3.562  2.4711 -1.9241  0.7181
  156THF     H5 3460   3.513   1.891   3.653  0.0690  0.1346 -0.5393
  156THF     H6 3461   3.859   1.794   3.724  0.2198  0.8885  0.8884
  156THF     H7 3462   3.813   1.748   3.883  0.5810  2.7572 -0.8529
  156THF     C8 3463   3.712   1.630   3.727 -0.4330  0.3564 -0.2345
  156THF     C9 3464   3.590   1.682   3.654  0.0042  0.2921 -0.4937
  156THF    H10 3465   3.683   1.580   3.819 -1.4259  1.3343  0.0055
  156THF    H11 3466   3.770   1.566   3.662 -1.3455 -2.1217  1.2570
  156THF    H12 3467   3.603   1.645   3.552  0.5403  0.6141 -0.5456
  156THF    H13 3468   3.497   1.648   3.699  0.3280  1.1353  0.8557
  157THF     O1 3469   4.778   4.502   5.371  0.7727 -0.2488  0.0293
  157THF     C2 3470   4.778   4.369   5.308 -0.6416 -0.1994 -0.3912
  157THF     C3 3471   4.824   4.597   5.275  0.3232  0.2985  0.4033
  157THF     H4 3472   4.697   4.355   5.237 -1.4861  0.8593  0.3501
  157THF     H5 3473   4.769   4.289   5.381  0.8533  0.0802  0.1300
  157THF     H6 3474   4.743   4.612   5.203  1.7510 -1.3316 -1.6975
  157THF     H7 3475   4.860   4.691   5.316  2.1460 -0.1862  0.0196
  157THF     C8 3476   4.935   4.515   5.204 -0.4629  0.5724 -0.1384
  157THF     C9 3477   4.921   4.368   5.249 -0.3312 -0.0502  0.4206
  157THF    H10 3478   5.034   4.548   5.236 -1.7009  2.0582  2.4859
  157THF    H11 3479   4.926   4.534   5.097  0.3727  0.3257 -0.2631
  157THF    H12 3480   4.922   4.297   5.166 -2.4444 -1.4856  1.5157
  157THF    H13 3481   4.999   4.345   5.321 -1.3815  0.0419  1.6371
  158THF     O1 3482   4.893   4.063   4.569 -0.1054  0.5426  0.1713
  158THF     C2 3483   4.788   4.090   4.664  0.8130 -0.0330 -0.4251
  158THF     C3 3484   5.011   4.078   4.647 -0.2578  0.0586 -0.5695
  158THF     H4 3485   4.696   4.044   4.630  0.3769  0.3475  0.2353
  158THF     H5 3486   4.783   4.195   4.692 -1.5966 -0.2003 -0.0456
  158THF     H6 3487   5.092   4.016   4.607 -1.0176 -0.4112 -1.4222
  158THF     H7 3488   5.038   4.183   4.635  2.6207 -0.6316 -0.9740
  158THF     C8 3489   4.980   4.055   4.802  0.3341  0.6871  0.4732
  158THF     C9 3490   4.830   4.011   4.786 -0.2259 -0.5513  0.1379
  158THF    H10 3491   4.987   4.153   4.849 -2.2297  1.3216 -0.3236
  158THF    H11 3492   5.042   3.980   4.851  1.4479  0.8842 -0.5748
  158THF    H12 3493   4.823   3.903   4.776 -1.5013 -0.4209 -0.5167
  158THF    H13 3494   4.767   4.038   4.871 -1.6250  2.0821 -1.6034
  159THF     O1 3495   3.312   0.183   2.006 -0.0482 -0.1084  0.2104
  159THF     C2 3496   3.433   0.231   1.949  0.2666  0.2179 -0.0658
  159THF     C3 3497   3.263   0.086   1.915  0.5549 -0.0878 -0.4256
  159THF     H4 3498   3.488   0.285   2.026 -0.4928 -1.5449  1.8215
  159THF     H5 3499   3.415   0.292   1.861  2.5817  2.9656  1.2107
  159THF     H6 3500   3.187   0.021   1.960  2.1600 -2.0150 -0.3447
  159THF     H7 3501   3.227   0.126   1.820  1.0580  0.2402 -0.4813
  159THF     C8 3502   3.392   0.012   1.877 -0.4898  0.2251  0.7181
  159THF     C9 3503   3.503   0.104   1.911  0.1498 -0.2556  0.0908
  159THF    H10 3504   3.391  -0.023   1.774  1.2311 -0.3999  0.8797
  159THF    H11 3505   3.405  -0.079   1.936 -1.6819 -0.7066 -0.4148
  159THF    H12 3506   3.573   0.068   1.986 -0.3957  2.0029  1.7996
  159THF    H13 3507   3.570   0.129   1.828 -0.2086  0.9496  0.1408
  160THF     O1 3508   0.117   3.837   4.727  0.3346  0.0074  0.5408
  160THF     C2 3509   0.025   3.877   4.622  0.6111 -0.1832 -0.3126
  160THF     C3 3510   0.055   3.724   4.791 -0.1255  0.0510 -0.4711
  160THF     H4 3511   0.021   3.816   4.532  0.4227 -1.6644  0.6759
  160THF     H5 3512   0.039   3.981   4.592 -0.3904 -0.3376 -1.3719
  160THF     H6 3513   0.078   3.639   4.727  0.5727  0.1310 -0.3341
  160THF     H7 3514   0.104   3.710   4.887 -1.2073 -1.7492 -0.1430
  160THF     C8 3515  -0.090   3.770   4.803 -0.2448 -0.0604  0.1145
  160THF     C9 3516  -0.111   3.864   4.688  0.3335 -1.0830 -0.2889
  160THF    H10 3517  -0.122   3.816   4.897  0.5275  0.2313  0.2440
  160THF    H11 3518  -0.161   3.690   4.781  0.0692 -0.4878  0.6284
  160THF    H12 3519  -0.187   3.825   4.620 -0.7149  0.5246 -0.0883
  160THF    H13 3520  -0.159   3.957   4.716  0.7417 -0.1944 -2.3786
  161THF     O1 3521   2.874   2.302   4.114  0.4131  0.9522  0.0495
  161THF     C2 3522   2.961   2.410   4.125  0.5308 -0.6453 -0.1732
  161THF     C3 3523   2.816   2.309   3.984  0.0919 -0.1314  0.3539
  161THF     H4 3524   3.039   2.373   4.192  0.9939 -1.6385 -1.2420
  161THF     H5 3525   2.902   2.496   4.159  0.6888  0.7728 -3.2206
  161THF     H6 3526   2.765   2.215   3.964  0.3391 -0.1561 -0.1894
  161THF     H7 3527   2.741   2.387   3.978  0.9001  0.6502  0.1834
  161THF     C8 3528   2.942   2.341   3.902 -0.6706  0.0982  0.1531
  161THF     C9 3529   3.029   2.427   3.990  0.5555  0.2635  0.1668
  161THF    H10 3530   2.924   2.389   3.806  2.1139 -1.0028 -1.0059
  161THF    H11 3531   2.995   2.252   3.868 -0.1062  0.1309  0.9163
  161THF    H12 3532   3.126   2.379   3.994  1.1712  1.5152  2.1088
  161THF    H13 3533   3.046   2.530   3.959 -1.0491  1.0947  1.7864
  162THF     O1 3534   1.439   3.809   4.309  0.0182 -1.0398  0.3208
  162THF     C2 3535   1.442   3.670   4.285  0.1290  0.3536  0.1550
  162THF     C3 3536   1.397   3.812   4.448 -0.4035  0.0619 -0.0162
  162THF     H4 3537   1.522   3.635   4.351 -0.0622  1.2998  0.9213
  162THF     H5 3538   1.473   3.638   4.186  0.4347  2.1836 -0.3654
  162THF     H6 3539   1.482   3.799   4.514  0.0871  1.4808 -0.3437
  162THF     H7 3540   1.361   3.913   4.468  2.8595  1.6173 -1.2990
  162THF     C8 3541   1.280   3.711   4.455  0.5183 -0.1914  0.1517
  162THF     C9 3542   1.310   3.616   4.338  0.0048 -0.0365 -0.5574
  162THF    H10 3543   1.185   3.765   4.447 -0.0656 -1.2964 -0.6907
  162THF    H11 3544   1.283   3.646   4.542  0.5790 -1.0507 -0.4818
  162THF    H12 3545   1.300   3.510   4.365 -0.9483  0.1571 -0.0921
  162THF    H13 3546   1.234   3.636   4.262 -2.0019 -2.6737  0.5830
  163THF     O1 3547   2.311   1.883   0.641  0.0335 -0.0026 -0.3510
  163THF     C2 3548   2.200   1.827   0.572 -0.2372  0.4016 -0.4467
  163THF     C3 3549   2.430   1.819   0.595  0.0074  0.3874 -1.2185
  163THF     H4 3550   2.168   1.902   0.499  0.2474 -0.9297 -2.0935
  163THF     H5 3551   2.115   1.805   0.637  0.1264 -2.5903 -0.8379
  163THF     H6 3552   2.452   1.864   0.498  0.9931  0.1806 -1.1036
  163THF     H7 3553   2.517   1.836   0.659 -0.3696 -1.5683 -0.1210
  163THF     C8 3554   2.382   1.674   0.596 -0.4504  0.1661  0.0168
  163THF     C9 3555   2.249   1.686   0.531  0.5566 -0.1421 -0.0630
  163THF    H10 3556   2.372   1.640   0.699 -0.5614 -1.8083 -0.6013
  163THF    H11 3557   2.451   1.607   0.546  0.2145 -0.9401  2.2881
  163THF    H12 3558   2.254   1.671   0.423 -0.9690 -0.5878 -0.1017
  163THF    H13 3559   2.173   1.615   0.566 -1.1758  1.2448 -0.8516
  164THF     O1 3560   0.974   4.937   1.030 -0.0122  0.2340 -0.0216
  164THF     C2 3561   1.048   4.845   1.095 -0.0292 -0.0905  0.2861
  164THF     C3 3562   0.859   4.952   1.115  0.8493 -0.3321  0.6853
  164THF     H4 3563   1.151   4.838   1.059  0.7116  1.9973  1.7589
  164THF     H5 3564   1.006   4.748   1.072  0.0106 -0.6018  2.2208
  164THF     H6 3565   0.809   5.046   1.091  3.0251  1.6555  3.2805
  164THF     H7 3566   0.793   4.868   1.094  0.3947 -0.0520  0.9838
  164THF     C8 3567   0.911   4.952   1.254  0.9001 -0.2733  0.7194
  164THF     C9 3568   1.048   4.895   1.235 -0.2873  0.3915  0.1041
  164THF    H10 3569   0.848   4.885   1.312 -1.4762  0.6024 -0.7469
  164THF    H11 3570   0.916   5.054   1.295 -0.3665 -0.0120  0.2672
  164THF    H12 3571   1.118   4.978   1.244 -0.7871  0.6989  1.3228
  164THF    H13 3572   1.061   4.822   1.315 -0.6728  1.0325  0.7725
  165THF     O1 3573   1.504   3.107   3.838  0.1401 -0.2002 -0.2353
  165THF     C2 3574   1.556   3.098   3.700 -0.4229 -0.2139 -0.2919
  165THF     C3 3575   1.462   3.239   3.864 -0.2333 -0.5789  0.5598
  165THF     H4 3576   1.473   3.070   3.635  1.3955 -1.3333 -2.2367
  165THF     H5 3577   1.634   3.024   3.683  0.2847  0.2135  0.9499
  165THF     H6 3578   1.377   3.261   3.799  0.7582  0.7151 -0.3391
  165THF     H7 3579   1.458   3.260   3.971  0.2242 -0.0099  0.4672
  165THF     C8 3580   1.576   3.314   3.798 -0.3686 -0.3603  0.5766
  165THF     C9 3581   1.606   3.235   3.669  0.3525 -0.6015 -0.2143
  165THF    H10 3582   1.661   3.323   3.865 -0.4539  3.4587  0.3957
  165THF    H11 3583   1.546   3.415   3.768 -0.7020  0.1065  2.4024
  165THF    H12 3584   1.562   3.278   3.579  0.2817 -0.6661 -0.2099
  165THF    H13 3585   1.714   3.234   3.652  0.7125 -0.0714  1.8080
  166THF     O1 3586   2.489   4.293   4.335 -0.5611  0.3221  0.0740
  166THF     C2 3587   2.426   4.186   4.404 -0.6237 -0.5393 -0.6421
  166THF     C3 3588   2.547   4.236   4.215  0.2520  0.5802 -0.3050
  166THF     H4 3589   2.363   4.216   4.488  1.4995 -0.6202  1.0760
  166THF     H5 3590   2.507   4.120   4.437 -0.4603  0.0965  0.2777
  166THF     H6 3591   2.578   4.316   4.146  1.1613  0.0071 -0.5744
  166THF     H7 3592   2.632   4.171   4.232  0.2235  1.1189  2.2987
  166THF     C8 3593   2.428   4.153   4.162 -0.1069 -0.2076  0.7854
  166THF     C9 3594   2.342   4.128   4.286  0.5381  0.1169  0.1988
  166THF    H10 3595   2.457   4.058   4.117  2.8766  0.5131  0.9960
  166THF    H11 3596   2.369   4.209   4.090 -0.3940 -0.2627  0.9753
  166THF    H12 3597   2.255   4.192   4.271  0.6854  0.1381 -0.5752
  166THF    H13 3598   2.313   4.025   4.308  1.2436 -0.3212 -0.8268
  167THF     O1 3599   1.897   0.643   5.320  0.3392 -0.1599  0.4178
  167THF     C2 3600   1.945   0.574   5.429  0.0879 -0.4772  0.0592
  167THF     C3 3601   1.817   0.561   5.229 -0.3923  0.2049 -0.3078
  167THF     H4 3602   1.895   0.610   5.519 -1.0367  0.2815 -0.8294
  167THF     H5 3603   2.053   0.566   5.427  0.1242 -0.5497  1.6133
  167THF     H6 3604   1.737   0.624   5.193 -0.4728  0.9861  1.1722
  167THF     H7 3605   1.863   0.516   5.141  0.9193 -0.7344  0.7977
  167THF     C8 3606   1.791   0.435   5.316  0.3174  0.3387  0.0089
  167THF     C9 3607   1.903   0.430   5.416 -0.4171  0.6684 -0.5767
  167THF    H10 3608   1.778   0.335   5.273 -1.0822  0.5614 -0.1460
  167THF    H11 3609   1.704   0.462   5.377  0.2460 -0.5140  0.3034
  167THF    H12 3610   1.873   0.381   5.508 -0.3176  2.0251  0.2016
  167THF    H13 3611   1.985   0.365   5.385 -0.8937 -1.1170  1.6630
  168THF     O1 3612   1.308   4.779   0.570 -0.0339  0.7387 -0.2129
  168THF     C2 3613   1.214   4.671   0.597 -0.7917 -0.7367  0.2010
  168THF     C3 3614   1.404   4.789   0.671 -0.2635 -0.1069  0.5268
  168THF     H4 3615   1.255   4.574   0.570  0.3639 -0.2939  0.2771
  168THF     H5 3616   1.124   4.692   0.540 -0.9423 -0.3792  0.5655
  168THF     H6 3617   1.479   4.710   0.662 -0.8720 -0.5829 -0.5688
  168THF     H7 3618   1.445   4.888   0.652 -0.4994 -0.4202 -1.9765
  168THF     C8 3619   1.322   4.774   0.799 -0.5159 -0.8337 -0.1698
  168THF     C9 3620   1.193   4.693   0.749 -0.7221  0.0484 -0.3394
  168THF    H10 3621   1.301   4.876   0.832 -0.2472 -0.4034 -1.2778
  168THF    H11 3622   1.379   4.727   0.880 -0.1021  1.3688  0.9048
  168THF    H12 3623   1.197   4.598   0.803 -2.4514  0.3749  0.4469
  168THF    H13 3624   1.104   4.752   0.771  0.4153  2.2071 -1.2369
  169THF     O1 3625   4.859   1.956   3.157 -0.1695  0.5011 -0.5035
  169THF     C2 3626   4.723   1.913   3.177  0.4714 -0.5091 -0.0031
  169THF     C3 3627   4.925   1.832   3.131 -0.4796 -0.8894  0.3851
  169THF     H4 3628   4.685   1.869   3.085 -0.1987 -2.7301  1.2686
  169THF     H5 3629   4.648   1.983   3.212 -1.3518 -1.6978 -1.3787
  169THF     H6 3630   4.904   1.799   3.030  2.6095 -1.2184 -0.2458
  169THF     H7 3631   5.034   1.839   3.138 -0.6653  1.0962  3.1176
  169THF     C8 3632   4.872   1.737   3.227 -0.1428  0.4466 -0.2317
  169THF     C9 3633   4.733   1.800   3.272  0.3596  0.6239  0.0942
  169THF    H10 3634   4.938   1.743   3.314 -1.7525  0.2755  1.0335
  169THF    H11 3635   4.871   1.634   3.191  0.9078  0.6405 -0.8614
  169THF    H12 3636   4.647   1.739   3.244  1.0928 -0.6106  0.4590
  169THF    H13 3637   4.724   1.818   3.379  0.3767 -1.2921  0.4679
  170THF     O1 3638   3.064   2.335   5.251  0.0011 -0.5701  0.9891
  170THF     C2 3639   3.029   2.438   5.343  0.4748  0.2156  0.8982
  170THF     C3 3640   3.204   2.323   5.237 -0.0769  0.3689 -0.1716
  170THF     H4 3641   3.023   2.389   5.440 -1.8029 -0.4222  0.4719
  170THF     H5 3642   2.931   2.476   5.316  0.6773 -0.5395 -1.0254
  170THF     H6 3643   3.238   2.272   5.327  0.0194  1.9044  0.6903
  170THF     H7 3644   3.230   2.263   5.150 -1.9942 -1.6688  0.5559
  170THF     C8 3645   3.250   2.466   5.239 -0.5966 -0.5583 -0.1179
  170THF     C9 3646   3.144   2.532   5.324  0.1058 -0.5531 -0.0125
  170THF    H10 3647   3.245   2.510   5.139 -1.4311 -0.4447 -0.0371
  170THF    H11 3648   3.348   2.457   5.285 -0.4563 -1.7430 -0.6351
  170THF    H12 3649   3.181   2.576   5.417  0.6208 -0.9598 -0.0169
  170THF    H13 3650   3.112   2.622   5.272 -0.6704 -1.7972 -1.7896
  171THF     O1 3651   3.388   4.999   5.035 -0.0192 -0.0567 -0.0154
  171THF     C2 3652   3.530   5.017   5.023  0.4973  0.0935 -0.2673
  171THF     C3 3653   3.329   5.087   4.934  0.2008 -0.1415 -0.5763
  171THF     H4 3654   3.571   4.925   5.065  0.5882  0.7200  1.0669
  171THF     H5 3655   3.569   5.102   5.079 -1.3635  2.9390 -2.9961
  171THF     H6 3656   3.233   5.046   4.903  0.0363  0.0382 -0.3131
  171THF     H7 3657   3.317   5.180   4.990 -0.3298 -1.5112  1.7099
  171THF     C8 3658   3.416   5.066   4.811  0.0892 -0.2109 -0.4995
  171THF     C9 3659   3.550   5.027   4.870 -0.2086 -0.1123 -0.3333
  171THF    H10 3660   3.423   5.153   4.746  0.1777  2.2249  2.5576
  171THF    H11 3661   3.389   4.976   4.755  2.7949 -3.1012  2.3767
  171THF    H12 3662   3.567   4.928   4.829 -0.1581  0.2947 -1.3124
  171THF    H13 3663   3.628   5.100   4.845  0.4129 -1.0200 -1.1190
  172THF     O1 3664   0.936   5.158   0.539  0.5203 -0.2037 -0.1939
  172THF     C2 3665   0.924   5.098   0.670  0.3278 -0.1443 -0.1183
  172THF     C3 3666   1.075   5.173   0.494  0.5925 -0.0956 -0.9007
  172THF     H4 3667   0.891   4.997   0.645 -1.3879  0.1888  0.6542
  172THF     H5 3668   0.850   5.126   0.744  0.0207 -1.8191  0.2454
  172THF     H6 3669   1.096   5.135   0.394 -1.1379  1.8973 -2.0871
  172THF     H7 3670   1.092   5.279   0.508 -2.3759  0.3356  0.0601
  172THF     C8 3671   1.159   5.102   0.604 -0.0278 -0.1691 -0.8717
  172THF     C9 3672   1.070   5.118   0.722  0.2275 -0.9879  0.0965
  172THF    H10 3673   1.260   5.143   0.611 -0.4607  0.9719 -0.9884
  172THF    H11 3674   1.166   4.995   0.586 -0.7785 -0.0637 -1.9162
  172THF    H12 3675   1.096   5.051   0.804  0.3975  0.3571  1.1831
  172THF    H13 3676   1.081   5.224   0.747 -2.3707 -0.9280  1.3595
  173THF     O1 3677   2.944   2.664   0.045 -0.6222  0.1021 -0.0162
  173THF     C2 3678   2.873   2.652   0.176 -0.3703  0.1403  0.5201
  173THF     C3 3679   2.890   2.774  -0.028 -0.0548  0.4542 -0.1747
  173THF     H4 3680   2.925   2.719   0.244 -0.8347  1.7378 -0.6531
  173THF     H5 3681   2.889   2.550   0.213  1.0864  0.7084  1.5548
  173THF     H6 3682   2.937   2.869  -0.006  0.4993  0.7748 -2.4764
  173THF     H7 3683   2.901   2.745  -0.132 -0.4573 -1.9344  0.3901
  173THF     C8 3684   2.741   2.763   0.010 -1.3390  0.1034 -0.7133
  173THF     C9 3685   2.724   2.686   0.143 -0.0993 -0.2269  0.0664
  173THF    H10 3686   2.684   2.720  -0.072 -1.0834  0.5074 -1.1057
  173THF    H11 3687   2.708   2.867   0.012  1.0132  0.9291 -1.2799
  173THF    H12 3688   2.671   2.744   0.219  1.0137 -0.0334  0.7159
  173THF    H13 3689   2.658   2.604   0.113  0.3930 -0.0960 -1.4458
  174THF     O1 3690   3.499   4.712   1.713  0.4348  0.2769  0.1368
  174THF     C2 3691   3.556   4.590   1.770  0.6166 -0.7586 -0.5306
  174THF     C3 3692   3.413   4.667   1.609  0.5172 -0.4101 -0.4509
  174THF     H4 3693   3.602   4.617   1.866  0.0160 -3.1851  0.5125
  174THF     H5 3694   3.639   4.546   1.715  0.2049 -0.4885 -1.3778
  174THF     H6 3695   3.339   4.733   1.564 -0.7799  0.0361  2.1534
  174THF     H7 3696   3.473   4.635   1.524 -0.2199 -1.4674 -0.5928
  174THF     C8 3697   3.346   4.544   1.674 -0.3315 -0.0577 -0.1083
  174THF     C9 3698   3.433   4.505   1.788 -0.4950  0.5304  0.3603
  174THF    H10 3699   3.338   4.465   1.599  1.0962  0.7149 -1.1235
  174THF    H11 3700   3.247   4.571   1.712 -1.2281 -1.3173 -1.3967
  174THF    H12 3701   3.388   4.520   1.886 -0.6636  0.3764  0.3075
  174THF    H13 3702   3.469   4.403   1.789 -1.7116  0.0562  2.9090
  175THF     O1 3703   2.856   0.861   4.796  0.1746 -0.1053  0.1643
  175THF     C2 3704   2.793   0.844   4.919 -0.6840  0.4533 -0.1555
  175THF     C3 3705   2.910   0.994   4.795 -0.1218  0.2236 -0.4804
  175THF     H4 3706   2.803   0.744   4.963 -0.9894 -0.1628 -1.4484
  175THF     H5 3707   2.690   0.869   4.894 -0.7011  0.4120 -0.1283
  175THF     H6 3708   3.019   0.999   4.795 -0.1777  1.8428 -0.7481
  175THF     H7 3709   2.872   1.049   4.709  0.1110 -0.2906 -0.9171
  175THF     C8 3710   2.876   1.064   4.925  0.8726  0.1422 -0.5021
  175THF     C9 3711   2.846   0.948   5.016  0.2689  0.5673  0.1557
  175THF    H10 3712   2.790   1.130   4.921 -0.4455 -1.4022  0.8259
  175THF    H11 3713   2.971   1.109   4.955  0.5738  0.2601  0.2905
  175THF    H12 3714   2.932   0.906   5.068  0.8165 -1.4606 -2.2165
  175THF    H13 3715   2.777   0.958   5.100 -1.5237 -0.4355 -1.1130
  176THF     O1 3716   0.585   5.101   0.265  0.2282 -0.1500  0.1725
  176THF     C2 3717   0.662   5.156   0.157 -0.2575  0.9550 -0.2476
  176THF     C3 3718   0.593   5.187   0.387 -0.4715  0.4145  0.9128
  176THF     H4 3719   0.633   5.119   0.059 -1.6070  1.3155 -0.0137
  176THF     H5 3720   0.770   5.153   0.169 -0.5636 -0.2167  4.4680
  176THF     H6 3721   0.511   5.167   0.455 -1.6968 -0.6482 -0.8014
  176THF     H7 3722   0.695   5.176   0.426  1.7867  1.2148 -4.0254
  176THF     C8 3723   0.588   5.328   0.315  0.7335  0.2068 -0.0604
  176THF     C9 3724   0.642   5.305   0.173  0.4006 -0.7848  0.2370
  176THF    H10 3725   0.641   5.396   0.382 -0.4068 -0.2962  1.4128
  176THF    H11 3726   0.485   5.365   0.312  0.2531 -1.1691 -2.2167
  176THF    H12 3727   0.547   5.333   0.128 -0.6405  2.0517  3.7405
  176THF    H13 3728   0.718   5.381   0.151 -1.5106  1.0036 -0.4700
  177THF     O1 3729   1.008   2.738   3.343  0.4378  0.0183  0.0068
  177THF     C2 3730   1.129   2.762   3.268 -0.0795  0.9894 -0.4831
  177THF     C3 3731   0.993   2.599   3.362 -0.2344  0.0990  1.4125
  177THF     H4 3732   1.155   2.867   3.283  0.1296  0.9050 -0.2313
  177THF     H5 3733   1.121   2.737   3.162  0.5137 -2.4189  0.1686
  177THF     H6 3734   0.953   2.574   3.460  1.4431  1.0348  2.3890
  177THF     H7 3735   0.922   2.558   3.290 -0.3135 -3.0248  3.1333
  177THF     C8 3736   1.132   2.541   3.333 -0.6148  0.5254 -0.2625
  177THF     C9 3737   1.219   2.663   3.335 -0.7150  0.1566 -0.2974
  177THF    H10 3738   1.125   2.483   3.241  0.4147 -0.1483  0.0609
  177THF    H11 3739   1.162   2.466   3.406  1.6508 -0.3746 -1.9797
  177THF    H12 3740   1.234   2.702   3.436  1.7032  2.3493 -1.4087
  177THF    H13 3741   1.316   2.642   3.292 -0.7298  0.2939 -0.3989
  178THF     O1 3742   2.797   3.064   4.969  0.2661 -0.2396 -0.0730
  178THF     C2 3743   2.678   2.983   4.958  0.1290 -0.3422  0.2909
  178THF     C3 3744   2.896   2.963   4.947  0.1596 -0.0634  0.3156
  178THF     H4 3745   2.659   2.962   4.852  0.6733  0.4425  0.0300
  178THF     H5 3746   2.601   3.049   4.998  0.9025 -0.5023  2.1347
  178THF     H6 3747   2.911   2.921   4.848 -1.0241 -4.4410  1.7941
  178THF     H7 3748   2.997   2.995   4.975 -0.2108  1.9248 -0.4289
  178THF     C8 3749   2.850   2.830   5.016 -0.3409  0.3577 -0.5646
  178THF     C9 3750   2.701   2.850   5.036  0.0013 -0.2647 -0.4598
  178THF    H10 3751   2.888   2.802   5.114 -4.2344 -3.3620  0.1635
  178THF    H11 3752   2.864   2.745   4.949  1.9510  0.7769 -0.6889
  178THF    H12 3753   2.628   2.778   4.997 -2.2328  3.1283 -3.1987
  178THF    H13 3754   2.681   2.858   5.143  2.5137  2.1093 -0.0768
  179THF     O1 3755   4.751   2.096   4.094  0.0495  0.5024  0.2492
  179THF     C2 3756   4.612   2.070   4.093  0.2930  0.4390  0.1884
  179THF     C3 3757   4.817   1.976   4.137  0.0364  0.6581  0.3212
  179THF     H4 3758   4.596   2.047   3.987  0.7331  1.0701 -0.0224
  179THF     H5 3759   4.554   2.155   4.128 -0.0743 -0.0413  0.7558
  179THF     H6 3760   4.845   1.914   4.053  1.3504  2.5202 -0.6965
  179THF     H7 3761   4.909   1.995   4.193  2.0285  0.5425 -2.6883
  179THF     C8 3762   4.716   1.902   4.232 -0.1705 -0.2062  0.3469
  179THF     C9 3763   4.585   1.935   4.168  0.4877  0.3692  0.6914
  179THF    H10 3764   4.706   1.948   4.331  0.0192  2.9155 -0.9562
  179THF    H11 3765   4.733   1.795   4.233  3.4568  0.1568 -2.1967
  179THF    H12 3766   4.574   1.869   4.082 -0.5914  0.0722  1.0473
  179THF    H13 3767   4.494   1.933   4.228 -0.3611  0.0706 -0.5625
  180THF     O1 3768   4.955   2.686   4.174  0.4083 -1.3116  0.4546
  180THF     C2 3769   4.922   2.596   4.069 -0.4405 -0.5846  0.5652
  180THF     C3 3770   4.878   2.803   4.158 -0.5542  0.2249  0.2842
  180THF     H4 3771   4.823   2.554   4.086 -1.9329  2.3235 -0.3859
  180THF     H5 3772   5.001   2.522   4.056  0.3686  0.0551  1.6681
  180THF     H6 3773   4.778   2.788   4.198  0.2094 -1.1595  1.7965
  180THF     H7 3774   4.928   2.878   4.220  0.8528  0.3290 -0.9296
  180THF     C8 3775   4.907   2.838   4.012  0.0457 -0.0291 -0.1685
  180THF     C9 3776   4.942   2.698   3.948 -0.2487  0.1337  0.1098
  180THF    H10 3777   4.980   2.916   3.991  0.7574 -0.1878  1.5521
  180THF    H11 3778   4.813   2.886   3.986  0.1216  0.3977  0.3222
  180THF    H12 3779   4.880   2.681   3.861 -1.0841 -1.2422  0.9426
  180THF    H13 3780   5.044   2.706   3.910 -0.2294  0.6342  0.2456
  181THF     O1 3781   0.952   3.255   5.117 -0.0486  0.1299  0.6592
  181THF     C2 3782   0.990   3.247   4.979  0.8245  0.3760  0.0312
  181THF     C3 3783   0.979   3.382   5.175 -0.4331 -0.1236  0.6794
  181THF     H4 3784   0.923   3.184   4.919 -1.5346  1.7818  1.0715
  181THF     H5 3785   1.089   3.205   4.965 -0.1064 -1.5870 -1.2683
  181THF     H6 3786   0.930   3.399   5.271 -2.8864  0.4360 -0.6021
  181THF     H7 3787   1.087   3.391   5.191 -0.2119 -1.5565  0.1315
  181THF     C8 3788   0.949   3.479   5.060 -0.6534  0.2176  0.2780
  181THF     C9 3789   0.961   3.392   4.941  0.2203 -0.3494  0.1062
  181THF    H10 3790   1.019   3.563   5.065  0.5036 -0.7169  0.2051
  181THF    H11 3791   0.846   3.513   5.066 -0.7500 -0.2421  1.6052
  181THF    H12 3792   0.868   3.395   4.884  0.2627  1.9038  0.0806
  181THF    H13 3793   1.029   3.429   4.864 -0.7968  1.0601 -0.1573
  182THF     O1 3794   2.266   1.923   0.122  0.1133  0.0257 -0.3775
  182THF     C2 3795   2.234   1.781   0.122  0.1705  0.4727  0.0498
  182THF     C3 3796   2.144   1.993   0.123 -0.4436  0.1685  0.0169
  182THF     H4 3797   2.207   1.745   0.221 -0.8368  0.1013 -0.3359
  182THF     H5 3798   2.306   1.713   0.078 -1.0841 -0.6136 -0.3877
  182THF     H6 3799   2.121   2.014   0.227 -0.3404  3.2391 -0.5005
  182THF     H7 3800   2.158   2.094   0.084 -1.1514  0.9710  1.7462
  182THF     C8 3801   2.052   1.906   0.046 -0.0248  0.5829  0.3281
  182THF     C9 3802   2.118   1.775   0.025 -0.9628 -0.1784 -0.2191
  182THF    H10 3803   2.009   1.947  -0.046  2.1963  0.3851 -0.8729
  182THF    H11 3804   1.960   1.901   0.103 -0.7408 -1.4401 -0.8856
  182THF    H12 3805   2.058   1.684   0.032  1.9156 -2.1200  1.1373
  182THF    H13 3806   2.147   1.765  -0.079 -1.0202  0.5661 -0.3119
  183THF     O1 3807   4.914   1.028   3.460  0.1804  0.4744 -0.1251
  183THF     C2 3808   4.955   0.892   3.416  0.4322  0.5567  0.1581
  183THF     C3 3809   4.991   1.052   3.575  0.2625 -0.0182 -0.2941
  183THF     H4 3810   5.043   0.901   3.351 -0.7751  0.3360 -1.5843
  183THF     H5 3811   4.875   0.845   3.359 -0.1948 -1.3902  2.5024
  183THF     H6 3812   5.088   1.093   3.544  1.0654 -1.8209 -0.3065
  183THF     H7 3813   4.946   1.128   3.639  0.1522 -0.4621  0.1619
  183THF     C8 3814   4.998   0.917   3.647  0.1941 -0.1965  0.4526
  183THF     C9 3815   4.974   0.808   3.543  0.2411  0.2068 -0.1173
  183THF    H10 3816   4.921   0.910   3.724 -0.7015  1.6561 -0.2066
  183THF    H11 3817   5.100   0.905   3.683  0.1307  2.1320  1.6307
  183THF    H12 3818   5.054   0.733   3.534  0.3339  0.1126  1.2201
  183THF    H13 3819   4.884   0.754   3.572 -0.6837  1.0443 -1.3540
  184THF     O1 3820   1.733   3.039   5.340  0.1209  0.0583 -0.1259
  184THF     C2 3821   1.737   2.987   5.205 -0.0263 -0.2400 -0.8541
  184THF     C3 3822   1.797   3.165   5.343 -0.2817  0.8028 -0.1587
  184THF     H4 3823   1.643   2.939   5.178 -1.1912  1.8672 -0.7058
  184THF     H5 3824   1.823   2.920   5.198  1.1950  1.2137 -0.2671
  184THF     H6 3825   1.748   3.217   5.425  0.3204 -2.2459  2.3225
  184THF     H7 3826   1.903   3.167   5.370  0.1459 -0.8352 -1.4896
  184THF     C8 3827   1.766   3.224   5.202 -0.2858  0.3811  0.4201
  184THF     C9 3828   1.763   3.106   5.116  0.1794  0.6577  0.1024
  184THF    H10 3829   1.846   3.293   5.176  1.6652 -1.8039  0.2427
  184THF    H11 3830   1.670   3.275   5.203 -0.1730  0.5910  0.8750
  184THF    H12 3831   1.692   3.111   5.033 -0.7290 -2.1036  0.6325
  184THF    H13 3832   1.858   3.091   5.064 -0.4232 -0.2587 -0.7708
  185THF     O1 3833   3.215   1.277   1.880  0.3830  0.0732  0.2300
  185THF     C2 3834   3.168   1.178   1.792  0.0190 -0.1342 -0.7068
  185THF     C3 3835   3.199   1.405   1.824 -0.2871  1.3275 -0.2729
  185THF     H4 3836   3.060   1.194   1.786  0.4833  3.2373 -2.3822
  185THF     H5 3837   3.206   1.084   1.832  0.5676  0.4561  0.2114
  185THF     H6 3838   3.094   1.436   1.831 -0.5015  1.0494 -1.7867
  185THF     H7 3839   3.253   1.479   1.882 -0.4593  1.1173  0.1620
  185THF     C8 3840   3.252   1.375   1.679  0.1210 -0.2969  0.2111
  185THF     C9 3841   3.228   1.229   1.664 -0.9071  0.1162  0.2771
  185THF    H10 3842   3.358   1.399   1.676  0.4451 -1.7071 -1.7529
  185THF    H11 3843   3.217   1.429   1.591 -3.0335 -0.7451  1.0621
  185THF    H12 3844   3.149   1.207   1.591 -0.0738  1.2216 -1.0102
  185THF    H13 3845   3.315   1.180   1.621 -1.1019 -1.1770  1.3305
  186THF     O1 3846   0.785   0.463   4.296 -0.5685 -0.1185  0.4984
  186THF     C2 3847   0.850   0.339   4.280  0.1064 -0.4717  0.0755
  186THF     C3 3848   0.750   0.511   4.172 -0.4405 -0.4373 -0.0754
  186THF     H4 3849   0.788   0.251   4.266  2.9828 -2.7180  0.5677
  186THF     H5 3850   0.912   0.321   4.368  0.3835 -0.0966 -0.0393
  186THF     H6 3851   0.663   0.452   4.141 -0.0086 -0.4205 -1.3995
  186THF     H7 3852   0.731   0.618   4.162 -0.8783 -0.6330 -1.6394
  186THF     C8 3853   0.861   0.473   4.085 -1.1075 -0.1309  0.7227
  186THF     C9 3854   0.944   0.380   4.166  0.4897  0.9840 -0.4294
  186THF    H10 3855   0.916   0.565   4.061  0.1142 -1.1444 -0.5008
  186THF    H11 3856   0.830   0.443   3.985 -0.4552 -0.2209  0.5416
  186THF    H12 3857   0.978   0.295   4.107 -1.3746 -1.4444  1.7640
  186THF    H13 3858   1.030   0.440   4.198  0.3614  0.4772  0.9258
  187THF     O1 3859   0.238   2.835   5.396 -0.4181  0.7183  0.3317
  187THF     C2 3860   0.347   2.758   5.455  0.7659 -0.5095  0.1354
  187THF     C3 3861   0.223   2.781   5.265 -0.0140  0.0581  0.0139
  187THF     H4 3862   0.333   2.753   5.563  0.2689  0.0501  0.1014
  187THF     H5 3863   0.451   2.788   5.449  0.3435  0.9444 -0.2104
  187THF     H6 3864   0.131   2.821   5.222 -1.1341 -1.5130  0.8816
  187THF     H7 3865   0.310   2.820   5.211 -0.1568  0.2995 -0.0402
  187THF     C8 3866   0.224   2.632   5.293 -0.0173  0.4306 -0.3102
  187THF     C9 3867   0.331   2.616   5.399 -0.5256  0.8497  0.4076
  187THF    H10 3868   0.223   2.574   5.201 -1.8032  2.4892 -1.6869
  187THF    H11 3869   0.127   2.619   5.341  0.8056 -0.7288  1.1340
  187THF    H12 3870   0.295   2.555   5.482  1.3462  1.2791  1.5961
  187THF    H13 3871   0.432   2.584   5.371 -0.8147  1.0036 -0.8971
  188THF     O1 3872   1.588   4.294   1.315 -0.0615 -0.9215  0.1306
  188THF     C2 3873   1.695   4.221   1.257 -0.0683 -0.4380  0.5601
  188THF     C3 3874   1.643   4.357   1.431 -0.2747  0.8368  0.0922
  188THF     H4 3875   1.682   4.188   1.154 -1.7266 -2.1625  1.2611
  188THF     H5 3876   1.703   4.126   1.310 -1.4635 -1.8803 -1.6631
  188THF     H6 3877   1.578   4.437   1.466  0.0168  0.6987  0.9846
  188THF     H7 3878   1.642   4.283   1.511 -3.7324 -0.7178 -1.2215
  188THF     C8 3879   1.780   4.409   1.387  0.2569 -0.1725  0.1702
  188THF     C9 3880   1.811   4.318   1.273 -0.4500  0.1411  0.1775
  188THF    H10 3881   1.854   4.403   1.467 -0.4876  1.3941  1.0286
  188THF    H11 3882   1.763   4.513   1.358  0.6889 -0.7585 -2.4365
  188THF    H12 3883   1.826   4.374   1.181 -2.2044 -0.5958 -0.6017
  188THF    H13 3884   1.899   4.259   1.296  0.7430  1.1248 -1.5940
  189THF     O1 3885   1.143   4.307   2.367 -0.0373 -0.9541 -0.3343
  189THF     C2 3886   1.115   4.170   2.346 -0.5029  0.2586 -1.0149
  189THF     C3 3887   1.034   4.389   2.331  0.3666 -0.1780 -0.2977
  189THF     H4 3888   1.143   4.113   2.435  1.9107  0.9310 -1.2683
  189THF     H5 3889   1.181   4.125   2.271  0.9885  0.0709  0.3371
  189THF     H6 3890   1.023   4.479   2.391  0.3617  0.6769 -1.5443
  189THF     H7 3891   1.046   4.416   2.226 -2.7666 -3.5831 -1.7674
  189THF     C8 3892   0.918   4.300   2.357  0.2468 -0.1199  0.3685
  189THF     C9 3893   0.967   4.161   2.319 -0.1526  0.5325  0.4186
  189THF    H10 3894   0.829   4.332   2.303 -0.8130  0.5012  2.4023
  189THF    H11 3895   0.893   4.306   2.462  0.1279 -1.1611  0.4053
  189THF    H12 3896   0.904   4.091   2.375 -0.7966  0.7648 -0.0118
  189THF    H13 3897   0.947   4.140   2.214 -0.7557 -3.6757  1.2067
  190THF     O1 3898   4.171   0.612   4.104 -0.2180  0.2115  0.5299
  190THF     C2 3899   4.079   0.591   3.999 -1.0370  0.1386 -0.1225
  190THF     C3 3900   4.287   0.525   4.087  0.1396 -0.3930  0.0177
  190THF     H4 3901   4.032   0.687   3.977  0.9752  1.5224  1.3534
  190THF     H5 3902   4.005   0.520   4.037 -0.4369 -0.6382 -0.3792
  190THF     H6 3903   4.361   0.585   4.139  0.6059 -1.2480  0.3609
  190THF     H7 3904   4.281   0.422   4.122  2.4808 -0.4490  0.4306
  190THF     C8 3905   4.310   0.530   3.932 -0.2364 -0.4919  0.6453
  190THF     C9 3906   4.166   0.540   3.880  0.0216  0.0107  0.6884
  190THF    H10 3907   4.354   0.441   3.888 -1.2901 -1.0411  0.6987
  190THF    H11 3908   4.363   0.615   3.887 -1.0107 -0.5559 -0.4364
  190THF    H12 3909   4.154   0.608   3.796 -1.9336  1.7318  2.2573
  190THF    H13 3910   4.126   0.446   3.842 -1.0756  1.1753 -1.1907
  191THF     O1 3911   2.022   3.418   3.217 -0.7229 -0.1580 -0.2050
  191THF     C2 3912   2.155   3.368   3.202 -0.6476 -0.4068 -0.3695
  191THF     C3 3913   1.998   3.522   3.121 -0.1472  0.1480  0.4572
  191THF     H4 3914   2.174   3.276   3.257 -1.3201 -1.5273 -1.9187
  191THF     H5 3915   2.219   3.448   3.240  0.4728 -0.5783 -1.7852
  191THF     H6 3916   1.896   3.511   3.084 -0.0356  1.8638 -0.4575
  191THF     H7 3917   2.002   3.617   3.175  1.7313 -0.0307  0.6955
  191THF     C8 3918   2.102   3.503   3.006 -0.1233  0.2659  0.2314
  191THF     C9 3919   2.171   3.376   3.050  0.0416 -0.1968  0.6863
  191THF    H10 3920   2.180   3.578   3.016  0.6271 -0.4310 -0.2687
  191THF    H11 3921   2.059   3.512   2.906 -0.2224  0.1354  0.2616
  191THF    H12 3922   2.121   3.289   3.007 -0.5867  0.7892 -0.6871
  191THF    H13 3923   2.277   3.369   3.026  0.4360 -0.9954  2.5362
  192THF     O1 3924   3.190   4.778   0.257  0.4551  0.1069 -0.1962
  192THF     C2 3925   3.177   4.916   0.259  0.2155  0.4763 -0.2763
  192THF     C3 3926   3.183   4.731   0.394 -0.6089 -0.1627 -0.8377
  192THF     H4 3927   3.150   4.941   0.156  1.7557  2.6517 -0.1995
  192THF     H5 3928   3.276   4.956   0.277  1.5706 -1.9611 -1.7723
  192THF     H6 3929   3.156   4.626   0.399  1.0976 -0.5915  2.9371
  192THF     H7 3930   3.275   4.745   0.452 -0.5488 -2.5976 -0.2524
  192THF     C8 3931   3.075   4.824   0.457  0.2179  0.8661 -0.4280
  192THF     C9 3932   3.084   4.954   0.377  0.3152  0.8057  0.1451
  192THF    H10 3933   3.084   4.833   0.565 -0.4357 -0.6184 -0.2316
  192THF    H11 3934   2.976   4.781   0.445  0.1040  1.1121 -0.3832
  192THF    H12 3935   2.982   4.972   0.344  0.6784  1.9221 -0.4064
  192THF    H13 3936   3.127   5.033   0.438 -0.0782  0.4963  0.8333
  193THF     O1 3937   4.682   3.387   3.565 -0.1340  0.2063 -0.0986
  193THF     C2 3938   4.823   3.394   3.544 -0.3247  0.1401 -0.5211
  193THF     C3 3939   4.644   3.386   3.701 -1.2822  0.1333  0.5823
  193THF     H4 3940   4.853   3.430   3.446  3.4131 -0.8260  0.0992
  193THF     H5 3941   4.874   3.302   3.573 -0.7739 -0.1858 -0.7583
  193THF     H6 3942   4.543   3.419   3.723 -1.9807 -0.0002 -2.0965
  193THF     H7 3943   4.648   3.281   3.732 -0.0958  0.4185  1.4890
  193THF     C8 3944   4.760   3.460   3.772 -0.0501 -0.3168  0.4907
  193THF     C9 3945   4.861   3.492   3.655  0.1749 -0.3708  0.1668
  193THF    H10 3946   4.813   3.407   3.851  2.3496  0.9238 -0.1645
  193THF    H11 3947   4.717   3.548   3.820  0.3259 -1.1755  2.4934
  193THF    H12 3948   4.837   3.591   3.616 -2.2513 -1.4666 -1.3810
  193THF    H13 3949   4.968   3.490   3.678  0.7752  4.4467 -1.1288
  194THF     O1 3950   0.141   2.453   4.294 -0.4712 -0.0314 -0.4810
  194THF     C2 3951   0.099   2.396   4.412  0.4845 -0.3791 -0.0565
  194THF     C3 3952   0.174   2.351   4.206  0.8800 -0.3264 -0.2773
  194THF     H4 3953  -0.009   2.387   4.410  0.3624  0.9296 -0.0019
  194THF     H5 3954   0.122   2.462   4.495 -0.7896  0.3048 -0.2235
  194THF     H6 3955   0.086   2.305   4.162  0.1463  0.3887  0.4142
  194THF     H7 3956   0.235   2.383   4.121 -0.1965  1.4781 -0.4290
  194THF     C8 3957   0.243   2.254   4.294 -0.4505  0.4907  0.6547
  194THF     C9 3958   0.165   2.259   4.424 -0.1406 -0.3474  0.1461
  194THF    H10 3959   0.351   2.264   4.309 -0.0500 -2.7044  0.5222
  194THF    H11 3960   0.230   2.155   4.250  0.9134  0.2051  0.8416
  194THF    H12 3961   0.100   2.172   4.431  1.2967 -1.3704  1.4947
  194THF    H13 3962   0.231   2.254   4.511  0.4472 -0.3567 -0.2884
  195THF     O1 3963   0.127   2.970   0.724  0.2070  0.2952  0.5032
  195THF     C2 3964   0.182   2.968   0.588 -0.2887 -0.1358 -0.0635
  195THF     C3 3965  -0.010   3.006   0.699 -0.3994  0.3457  0.4281
  195THF     H4 3966   0.281   2.923   0.595 -0.6466 -0.7286  1.8887
  195THF     H5 3967   0.189   3.064   0.538  5.0169 -0.4925 -0.5320
  195THF     H6 3968  -0.068   3.017   0.790 -0.3550  0.8082  0.4032
  195THF     H7 3969  -0.013   3.103   0.648 -1.6686  0.4303  0.6276
  195THF     C8 3970  -0.048   2.907   0.586  0.3219  0.1714  0.4752
  195THF     C9 3971   0.084   2.881   0.510  0.5547  0.0093 -0.4740
  195THF    H10 3972  -0.134   2.940   0.528  0.2040  2.4504  1.8335
  195THF    H11 3973  -0.072   2.813   0.637  1.1155 -0.8969 -1.0498
  195THF    H12 3974   0.099   2.774   0.522 -1.3771 -0.4552 -1.6264
  195THF    H13 3975   0.068   2.923   0.410  2.8121  1.4149 -0.2971
  196THF     O1 3976   1.815   2.791   1.142 -0.1386 -0.0780  0.0649
  196THF     C2 3977   1.867   2.914   1.196 -0.2208 -0.0204  0.1246
  196THF     C3 3978   1.694   2.824   1.074 -0.2879  0.1455 -0.3573
  196THF     H4 3979   1.967   2.905   1.239 -0.5284 -2.0052  0.5302
  196THF     H5 3980   1.801   2.954   1.273 -1.2543 -0.5573 -0.4648
  196THF     H6 3981   1.665   2.752   0.997 -1.9313  0.0406  0.3327
  196THF     H7 3982   1.625   2.822   1.158  1.3375  0.5078  1.0485
  196THF     C8 3983   1.721   2.964   1.016  0.2304 -0.5488  0.3645
  196THF     C9 3984   1.854   3.010   1.072 -0.1986  0.3565  0.2295
  196THF    H10 3985   1.652   3.041   1.051  1.0509  0.5367 -0.3408
  196THF    H11 3986   1.716   2.968   0.907 -0.3255  0.3630  0.4151
  196THF    H12 3987   1.927   2.991   0.993 -1.1047 -0.7774 -0.3864
  196THF    H13 3988   1.860   3.116   1.093  0.2836  0.1815  0.9929
  197THF     O1 3989   2.304   0.167   4.693  0.1256  0.4768  0.6204
  197THF     C2 3990   2.230   0.124   4.579  0.6545 -0.2990  0.0724
  197THF     C3 3991   2.405   0.253   4.645  0.6219 -0.3814 -0.0551
  197THF     H4 3992   2.124   0.143   4.596  1.0978  0.7698  1.8197
  197THF     H5 3993   2.251   0.018   4.569  0.9892 -0.6222  3.3629
  197THF     H6 3994   2.429   0.338   4.708 -0.1977 -0.5265  0.4755
  197THF     H7 3995   2.491   0.187   4.635  0.7966 -0.9043  3.5333
  197THF     C8 3996   2.356   0.308   4.516 -0.4236 -0.7597 -0.2142
  197THF     C9 3997   2.281   0.194   4.455  0.3214 -0.5302 -0.1017
  197THF    H10 3998   2.423   0.350   4.441 -1.9975  2.6982  0.1323
  197THF    H11 3999   2.295   0.396   4.539  3.6179  2.2195  0.2451
  197THF    H12 4000   2.196   0.215   4.390 -0.8705 -3.2331  0.4565
  197THF    H13 4001   2.351   0.126   4.408  1.4079 -0.0606  0.7776
  198THF     O1 4002   1.413   2.091   3.471  0.2410 -0.0618 -0.1890
  198THF     C2 4003   1.349   2.210   3.427  0.1363  0.3163  0.5090
  198THF     C3 4004   1.465   2.117   3.597 -0.0328 -0.2970  0.1367
  198THF     H4 4005   1.242   2.198   3.444  0.2253 -2.3893 -0.3318
  198THF     H5 4006   1.367   2.233   3.322 -3.9045  0.6095 -0.2687
  198THF     H6 4007   1.389   2.107   3.675 -1.4146 -1.3891 -1.2923
  198THF     H7 4008   1.552   2.058   3.625 -0.4384 -1.1835 -0.4419
  198THF     C8 4009   1.512   2.262   3.587  0.0678  0.5808  0.5230
  198THF     C9 4010   1.399   2.318   3.518  0.7743  1.0689 -0.2563
  198THF    H10 4011   1.602   2.263   3.525  1.2266 -0.5904  2.1027
  198THF    H11 4012   1.541   2.308   3.681  1.3100 -0.0296  0.4557
  198THF    H12 4013   1.313   2.340   3.581  1.0745  2.5473 -0.3279
  198THF    H13 4014   1.426   2.409   3.465 -1.4121  1.2938 -1.1241
  199THF     O1 4015   3.563   1.259   0.124 -0.2896  0.0672  0.3757
  199THF     C2 4016   3.436   1.262   0.058  0.5905  0.4693  0.3654
  199THF     C3 4017   3.547   1.271   0.267  0.3618  0.1224 -0.1412
  199THF     H4 4018   3.405   1.166   0.017 -1.6273  1.4720 -0.4911
  199THF     H5 4019   3.438   1.333  -0.025  0.1398  0.5235  0.3962
  199THF     H6 4020   3.622   1.204   0.308 -0.2079 -0.4018  0.0721
  199THF     H7 4021   3.582   1.371   0.290  1.0342 -0.8598  3.9300
  199THF     C8 4022   3.399   1.245   0.298  0.2526  0.6599  0.2551
  199THF     C9 4023   3.336   1.295   0.165  0.6893  0.6054 -0.0549
  199THF    H10 4024   3.366   1.291   0.391 -3.3059 -0.5141 -0.3011
  199THF    H11 4025   3.388   1.137   0.308  2.2208  0.3010 -0.8942
  199THF    H12 4026   3.245   1.241   0.136  1.0245 -0.1588  0.2939
  199THF    H13 4027   3.320   1.403   0.166 -0.3211  0.4717  0.3184
  200THF     O1 4028   1.528   0.207   1.067 -0.2426 -0.0509  0.0999
  200THF     C2 4029   1.393   0.201   1.034 -0.6294  0.4015  0.1741
  200THF     C3 4030   1.552   0.134   1.190  0.6515  0.3355 -0.1892
  200THF     H4 4031   1.373   0.106   0.986  0.6987  0.4515 -0.5349
  200THF     H5 4032   1.381   0.292   0.976 -1.3160  0.5717  0.5777
  200THF     H6 4033   1.606   0.043   1.165 -1.0365 -0.8999  0.5175
  200THF     H7 4034   1.615   0.200   1.250 -0.7188  0.0837  1.5849
  200THF     C8 4035   1.407   0.106   1.246  0.3252  0.5976  0.1879
  200THF     C9 4036   1.320   0.202   1.166  0.5460  0.5076  0.5048
  200THF    H10 4037   1.391   0.114   1.353 -0.9356 -1.4639  0.1972
  200THF    H11 4038   1.380   0.009   1.206 -0.4177  1.1898 -0.7995
  200THF    H12 4039   1.216   0.170   1.169  0.0526  2.0747  0.5794
  200THF    H13 4040   1.329   0.301   1.210 -1.1459  1.1124 -0.4456
  201THF     O1 4041   4.568   4.583   0.236 -0.3706 -0.2260 -0.2416
  201THF     C2 4042   4.590   4.661   0.118 -0.5981 -0.1374 -0.5328
  201THF     C3 4043   4.425   4.550   0.246  0.0794 -0.9484  0.0006
  201THF     H4 4044   4.669   4.622   0.054  0.8131  0.8293  0.5690
  201THF     H5 4045   4.640   4.753   0.146 -2.1037  0.6732 -0.3851
  201THF     H6 4046   4.399   4.447   0.222 -1.3905 -0.4411 -0.7069
  201THF     H7 4047   4.397   4.563   0.350 -1.0235  1.0342 -0.4833
  201THF     C8 4048   4.355   4.667   0.166 -0.2463 -0.1612 -0.1493
  201THF     C9 4049   4.456   4.691   0.051  0.0683  0.0035 -0.2483
  201THF    H10 4050   4.353   4.758   0.226 -1.8006  0.4105 -1.0236
  201THF    H11 4051   4.253   4.650   0.131 -0.2702  0.6039 -0.4866
  201THF    H12 4052   4.437   4.619  -0.029  0.0650 -1.6359  1.1536
  201THF    H13 4053   4.461   4.787   0.001 -0.9716  0.3227  0.2401
  202THF     O1 4054   4.960   4.068   0.711 -0.4362 -0.2171 -0.2272
  202THF     C2 4055   4.923   3.934   0.717  0.2316  1.2501  0.6614
  202THF     C3 4056   5.051   4.077   0.824  0.0956  0.1918  0.4617
  202THF     H4 4057   4.857   3.901   0.638  0.1142  0.3144  1.1418
  202THF     H5 4058   4.875   3.920   0.814  1.3855  0.5448  1.1651
  202THF     H6 4059   5.111   4.168   0.825 -1.3653  1.2106 -0.4995
  202THF     H7 4060   4.983   4.073   0.908 -1.5156 -1.2351 -0.8477
  202THF     C8 4061   5.141   3.952   0.815 -0.2260  0.1114  0.1498
  202THF     C9 4062   5.058   3.865   0.715 -0.2400 -0.0914  0.2562
  202THF    H10 4063   5.146   3.894   0.908  1.8397  1.1052  0.7293
  202THF    H11 4064   5.245   3.967   0.789 -1.2684  3.4681 -2.7546
  202THF    H12 4065   5.108   3.880   0.620 -1.3006 -0.7876 -0.4229
  202THF    H13 4066   5.053   3.757   0.727 -3.2697 -0.0610  0.0888
  203THF     O1 4067   3.644   5.340   1.654  0.3900  0.1031 -0.7477
  203THF     C2 4068   3.745   5.242   1.642 -0.4033  0.4149 -0.5801
  203THF     C3 4069   3.620   5.405   1.527  0.4694  0.3093 -0.7290
  203THF     H4 4070   3.700   5.145   1.621 -0.0852 -0.0315  0.7583
  203THF     H5 4071   3.794   5.238   1.739 -1.0092 -1.1311 -0.3103
  203THF     H6 4072   3.519   5.393   1.487  0.7991 -0.9663 -1.2371
  203THF     H7 4073   3.625   5.509   1.559 -1.5328  0.0651  0.5232
  203THF     C8 4074   3.738   5.362   1.435  0.8602 -0.4943  0.3888
  203THF     C9 4075   3.835   5.292   1.525  0.0213  0.2523  1.2451
  203THF    H10 4076   3.782   5.450   1.388  0.2026 -1.7912 -2.9269
  203THF    H11 4077   3.696   5.306   1.352 -1.9396  0.2927  1.1604
  203THF    H12 4078   3.900   5.220   1.476 -0.0165  0.3194  1.0928
  203THF    H13 4079   3.897   5.361   1.581 -0.8016  0.6979  1.6327
  204THF     O1 4080   2.915   0.400   1.625  0.7862 -0.0154 -0.0927
  204THF     C2 4081   2.918   0.362   1.760 -0.4130 -0.5933  0.0688
  204THF     C3 4082   3.035   0.356   1.579 -0.0221  0.1228  0.0333
  204THF     H4 4083   2.893   0.256   1.748 -0.3310 -0.7621  1.2401
  204THF     H5 4084   2.828   0.393   1.813 -0.3522 -2.7969  1.6074
  204THF     H6 4085   3.040   0.247   1.572  0.2785  0.0366  1.3782
  204THF     H7 4086   3.064   0.405   1.485  3.9248  0.7299  1.3621
  204THF     C8 4087   3.137   0.387   1.698  0.4566 -0.1825  0.5028
  204THF     C9 4088   3.052   0.402   1.820 -0.6539  0.6945 -0.5386
  204THF    H10 4089   3.203   0.472   1.676 -1.6853  1.2913 -0.6918
  204THF    H11 4090   3.191   0.293   1.695  1.4288  0.3783 -1.0052
  204THF    H12 4091   3.091   0.339   1.900 -0.6369  0.2869 -0.8623
  204THF    H13 4092   3.050   0.505   1.853  0.4412  0.0672  1.6786
  205THF     O1 4093   1.974   2.350   3.345 -0.5070 -0.0072  1.1474
  205THF     C2 4094   2.007   2.375   3.477 -0.5190 -0.2981 -0.4827
  205THF     C3 4095   1.948   2.478   3.289 -0.0238  0.5697  0.1302
  205THF     H4 4096   2.106   2.418   3.488 -0.7651  0.1890 -0.1656
  205THF     H5 4097   2.008   2.284   3.537  1.2171 -0.2851 -0.4411
  205THF     H6 4098   2.044   2.512   3.249  0.1901 -2.4238 -2.1992
  205THF     H7 4099   1.877   2.466   3.208  0.7432  0.8067 -0.5978
  205THF     C8 4100   1.877   2.552   3.402 -0.0535 -0.2906 -0.4703
  205THF     C9 4101   1.894   2.472   3.521 -0.2440 -0.2858 -0.2435
  205THF    H10 4102   1.771   2.561   3.375  0.2827  1.7550 -1.3740
  205THF    H11 4103   1.914   2.654   3.415 -1.4484  0.4374 -1.8803
  205THF    H12 4104   1.911   2.533   3.609 -0.4273 -0.2379 -0.2404
  205THF    H13 4105   1.799   2.423   3.545 -0.0039 -1.0759 -0.8436
  206THF     O1 4106   2.054   4.623   4.494  0.2342 -0.0810 -0.5634
  206THF     C2 4107   1.984   4.634   4.612 -0.5183 -0.6027 -0.0453
  206THF     C3 4108   2.037   4.491   4.435  0.4726  0.4745 -0.4503
  206THF     H4 4109   1.948   4.736   4.620  0.3448 -0.2662 -0.4034
  206THF     H5 4110   2.060   4.616   4.688  0.4701  1.7197 -0.4257
  206THF     H6 4111   2.015   4.490   4.328 -0.1858 -1.7414 -0.3488
  206THF     H7 4112   2.123   4.425   4.435 -0.5428 -0.9816 -3.0168
  206THF     C8 4113   1.917   4.424   4.513 -0.1492 -0.6985 -0.2804
  206THF     C9 4114   1.865   4.543   4.589 -0.6136  0.1732  0.4532
  206THF    H10 4115   1.961   4.344   4.573 -1.6924 -1.0003  0.4703
  206THF    H11 4116   1.843   4.382   4.445 -0.3914 -0.4300 -0.1822
  206THF    H12 4117   1.789   4.594   4.530 -0.7584  0.2553  0.7111
  206THF    H13 4118   1.828   4.514   4.687 -1.0329 -0.2568  0.1687
  207THF     O1 4119   2.376   3.952   3.163 -0.0600 -0.0561  0.9599
  207THF     C2 4120   2.248   3.888   3.162 -0.6292 -0.1973  0.3145
  207THF     C3 4121   2.424   3.942   3.294 -0.4457 -0.0786 -1.3204
  207THF     H4 4122   2.217   3.868   3.060  1.0834 -2.6561  0.1984
  207THF     H5 4123   2.169   3.947   3.209 -0.3780  0.8002 -0.4934
  207THF     H6 4124   2.533   3.949   3.293 -0.5121  1.1555 -0.9820
  207THF     H7 4125   2.378   4.014   3.361  2.4083  0.0100  0.7411
  207THF     C8 4126   2.394   3.792   3.335  0.0320 -0.7900 -0.5389
  207THF     C9 4127   2.276   3.755   3.233  0.5617 -0.3777  0.1988
  207THF    H10 4128   2.358   3.796   3.438  0.4128 -1.1803 -0.3891
  207THF    H11 4129   2.484   3.732   3.326 -0.0343 -0.7414 -1.7222
  207THF    H12 4130   2.321   3.688   3.160 -0.1243  0.1413 -0.7140
  207THF    H13 4131   2.196   3.694   3.275 -0.2026  1.9139  2.3694
  208THF     O1 4132   0.524   4.737   3.134  0.3662 -0.1992 -0.7345
  208THF     C2 4133   0.510   4.798   3.002  0.1001 -0.2045 -0.2624
  208THF     C3 4134   0.423   4.637   3.144 -0.1412  0.0596 -0.0596
  208THF     H4 4135   0.573   4.738   2.938  2.7433  2.4082 -0.3240
  208THF     H5 4136   0.546   4.901   3.000  3.8637 -1.3746 -0.3590
  208THF     H6 4137   0.465   4.542   3.112 -1.9261 -0.5666 -0.6801
  208THF     H7 4138   0.396   4.632   3.249 -1.4533 -0.1191 -0.3904
  208THF     C8 4139   0.301   4.681   3.057 -0.2392 -0.0294  0.1223
  208THF     C9 4140   0.361   4.788   2.970 -0.1645 -0.2004  0.2954
  208THF    H10 4141   0.223   4.727   3.117 -0.2090  0.5582 -0.2716
  208THF    H11 4142   0.259   4.592   3.011 -0.6775 -0.0240  0.5179
  208THF    H12 4143   0.329   4.778   2.866 -2.9972  0.5790  0.9966
  208THF    H13 4144   0.316   4.877   3.013 -1.6142 -1.1009  0.7176
  209THF     O1 4145   0.604   3.688   0.413  0.5925 -0.4429 -0.0372
  209THF     C2 4146   0.661   3.592   0.326 -0.2031  0.0262  0.2876
  209THF     C3 4147   0.697   3.799   0.427 -0.1524  0.6523 -0.4453
  209THF     H4 4148   0.600   3.587   0.236 -1.0280 -0.7784  0.8822
  209THF     H5 4149   0.669   3.490   0.361  0.6792  0.3909  1.2080
  209THF     H6 4150   0.638   3.890   0.432 -2.3520 -0.6621 -1.1675
  209THF     H7 4151   0.748   3.779   0.522 -1.1481  1.2262  0.2234
  209THF     C8 4152   0.784   3.791   0.307 -0.1144  0.3733  0.7600
  209THF     C9 4153   0.798   3.642   0.285 -0.8370 -0.0113  0.3670
  209THF    H10 4154   0.879   3.842   0.323  0.9823 -0.8764 -1.2997
  209THF    H11 4155   0.732   3.839   0.224  1.2976  0.2671 -0.2284
  209THF    H12 4156   0.820   3.616   0.182  1.0057 -2.7133  1.3183
  209THF    H13 4157   0.883   3.610   0.346 -0.4362  1.0535  0.3988
  210THF     O1 4158   2.077   2.586   0.720  0.1136 -0.6866  0.3642
  210THF     C2 4159   1.963   2.654   0.684  0.6323  0.4574 -0.3150
  210THF     C3 4160   2.089   2.589   0.863 -0.5647  0.8148  0.1157
  210THF     H4 4161   1.884   2.585   0.713  2.0870  0.0130  3.0421
  210THF     H5 4162   1.945   2.666   0.577 -2.0500 -1.1590 -0.1623
  210THF     H6 4163   2.017   2.529   0.919  0.0357 -0.3444 -0.3110
  210THF     H7 4164   2.189   2.566   0.901 -0.2719 -0.7532 -1.4741
  210THF     C8 4165   2.067   2.739   0.884 -0.2844  0.1603  0.4133
  210THF     C9 4166   1.975   2.783   0.770 -0.6768  0.4688 -0.3027
  210THF    H10 4167   2.167   2.774   0.857  0.2719 -3.2724 -2.8071
  210THF    H11 4168   2.044   2.758   0.989 -0.0098  0.7484  0.3713
  210THF    H12 4169   1.873   2.806   0.799 -0.5339  0.6856  0.0341
  210THF    H13 4170   2.021   2.865   0.715  1.6169 -0.6280 -0.1649
  211THF     O1 4171   0.932   1.341   3.193  0.1142  0.0559  0.1328
  211THF     C2 4172   0.818   1.348   3.112 -0.5893 -0.4871 -0.6038
  211THF     C3 4173   0.995   1.464   3.197  0.6052  0.6431  0.1196
  211THF     H4 4174   0.750   1.263   3.118  1.4074 -2.1484 -0.1289
  211THF     H5 4175   0.845   1.349   3.007  1.6655 -0.1598 -0.0803
  211THF     H6 4176   1.071   1.474   3.274 -0.7767 -0.8143  1.7663
  211THF     H7 4177   1.047   1.483   3.103 -2.1878  1.4341 -1.3831
  211THF     C8 4178   0.876   1.549   3.225  0.2703  0.2761  0.3017
  211THF     C9 4179   0.761   1.480   3.159  0.0465 -0.2080 -0.0072
  211THF    H10 4180   0.888   1.648   3.180 -0.3130  0.4714  0.5629
  211THF    H11 4181   0.847   1.554   3.330  0.3635 -0.8954  0.3889
  211THF    H12 4182   0.684   1.462   3.235 -0.9886  2.4007 -0.3059
  211THF    H13 4183   0.720   1.540   3.078 -1.9593  0.4385  1.4036
  212THF     O1 4184   3.408   0.008   0.171  0.2323  0.2862  0.0489
  212THF     C2 4185   3.537  -0.055   0.157 -0.0493  0.1246  0.4939
  212THF     C3 4186   3.350  -0.034   0.294  0.0694  0.3339 -1.0286
  212THF     H4 4187   3.614   0.022   0.159 -0.8491  0.9116  1.0823
  212THF     H5 4188   3.543  -0.110   0.063 -0.4587  1.4894 -0.3470
  212THF     H6 4189   3.389   0.026   0.376  0.0894 -2.5211  1.2407
  212THF     H7 4190   3.242  -0.022   0.299  0.2072  1.2441  0.3175
  212THF     C8 4191   3.403  -0.179   0.310  0.6344 -0.0219 -0.1550
  212THF     C9 4192   3.549  -0.152   0.281  0.1681  0.0864 -0.1591
  212THF    H10 4193   3.360  -0.256   0.245  1.8112 -1.5846  0.8504
  212THF    H11 4194   3.385  -0.223   0.408 -0.4890 -1.5257 -0.9917
  212THF    H12 4195   3.609  -0.110   0.361  0.6244 -0.6369 -0.1175
  212THF    H13 4196   3.603  -0.242   0.252  2.8596  1.9765 -1.5116
  213THF     O1 4197   3.222   1.203   5.371 -0.5706 -0.8333  0.1639
  213THF     C2 4198   3.254   1.222   5.233  0.1621 -0.3590  0.1614
  213THF     C3 4199   3.079   1.202   5.382  0.8094 -0.5004 -0.8295
  213THF     H4 4200   3.286   1.124   5.200 -0.8737 -0.3147 -1.0157
  213THF     H5 4201   3.321   1.305   5.211 -1.7975  1.5201  0.8887
  213THF     H6 4202   3.055   1.109   5.435 -0.4477  0.2384 -0.0285
  213THF     H7 4203   3.042   1.287   5.439  1.1234 -0.0998 -1.2164
  213THF     C8 4204   3.019   1.178   5.245 -0.1698 -0.2004 -0.7198
  213THF     C9 4205   3.121   1.266   5.172  0.4918 -0.3349 -0.0324
  213THF    H10 4206   2.919   1.219   5.230 -1.4312 -1.7676  2.4890
  213THF    H11 4207   3.033   1.072   5.221 -1.2356 -0.9659  1.7015
  213THF    H12 4208   3.127   1.259   5.064  1.3543 -1.7626  0.0728
  213THF    H13 4209   3.108   1.373   5.191  1.8279 -0.0502 -0.6186
  214THF     O1 4210   1.737   1.041   0.380  0.2943  0.8960  0.3078
  214THF     C2 4211   1.688   0.936   0.470 -0.2340  0.5271  0.8041
  214THF     C3 4212   1.858   0.987   0.319  0.7342 -0.4831 -0.3348
  214THF     H4 4213   1.579   0.931   0.477 -0.4523  0.8846 -1.6077
  214THF     H5 4214   1.729   0.950   0.571  3.4625  1.5640 -0.6808
  214THF     H6 4215   1.872   1.046   0.228 -3.5188  0.2403 -0.7271
  214THF     H7 4216   1.933   0.999   0.397 -0.5519  0.1429  0.8523
  214THF     C8 4217   1.830   0.845   0.301  0.3158 -0.2520 -0.6848
  214THF     C9 4218   1.733   0.811   0.408 -0.3041 -0.1893  0.9886
  214THF    H10 4219   1.927   0.795   0.296  1.1162  0.8568  2.0741
  214THF    H11 4220   1.779   0.821   0.207 -1.3679  1.2354 -0.2034
  214THF    H12 4221   1.651   0.748   0.372  0.8592 -0.7493 -0.8273
  214THF    H13 4222   1.783   0.756   0.488  0.3974 -0.7668  0.1643
  215THF     O1 4223   4.842   0.293   0.019  0.1647  0.2522  0.3351
  215THF     C2 4224   4.779   0.425   0.032  0.3729  0.6395  0.3415
  215THF     C3 4225   4.867   0.253  -0.121  0.0609 -0.1955 -0.9467
  215THF     H4 4226   4.857   0.500   0.037  0.7919  0.1848  0.8158
  215THF     H5 4227   4.716   0.426   0.121  0.0387 -0.7336  0.1505
  215THF     H6 4228   4.973   0.260  -0.147  0.0596  0.0463 -0.8895
  215THF     H7 4229   4.840   0.148  -0.132 -2.0632  0.2729 -0.5364
  215THF     C8 4230   4.787   0.356  -0.197 -0.3647 -0.0483  0.2156
  215THF     C9 4231   4.709   0.450  -0.104  0.2258 -0.1666  0.3972
  215THF    H10 4232   4.730   0.294  -0.266  0.1419  0.7203 -0.9255
  215THF    H11 4233   4.853   0.412  -0.263  1.2327  0.1540  1.8950
  215THF    H12 4234   4.715   0.556  -0.132  0.9879  0.0775  1.4363
  215THF    H13 4235   4.601   0.440  -0.092  0.0251  0.7739 -0.4172
  216THF     O1 4236   0.537   1.302   3.536  0.0142 -0.0410 -0.2477
  216THF     C2 4237   0.461   1.378   3.443  0.9080 -0.1197 -0.1676
  216THF     C3 4238   0.499   1.161   3.513 -0.1749  0.1753  0.2877
  216THF     H4 4239   0.529   1.458   3.416  3.0069 -1.3808  1.0979
  216THF     H5 4240   0.370   1.418   3.488  1.1311  0.5738 -0.3174
  216THF     H6 4241   0.563   1.080   3.548  0.6564  0.6754 -0.0574
  216THF     H7 4242   0.408   1.143   3.572  0.0094 -1.0727  0.2137
  216THF     C8 4243   0.475   1.155   3.362 -0.7012 -0.7065 -0.5744
  216THF     C9 4244   0.441   1.297   3.322  0.1146  0.5188  0.0830
  216THF    H10 4245   0.400   1.079   3.337 -0.5935 -0.3138 -2.2466
  216THF    H11 4246   0.556   1.120   3.298 -0.7637 -0.0226 -1.0427
  216THF    H12 4247   0.508   1.326   3.242 -1.3250 -3.0979 -2.7009
  216THF    H13 4248   0.338   1.290   3.288  0.3728 -1.3194 -0.4038
  217THF     O1 4249   0.332   1.376   4.113 -0.2945 -0.1966 -0.0787
  217THF     C2 4250   0.458   1.314   4.122  0.2189  0.4610  0.2366
  217THF     C3 4251   0.300   1.405   3.976 -0.7506 -0.1886 -0.2442
  217THF     H4 4252   0.451   1.207   4.137  2.1920  0.2311 -0.1772
  217THF     H5 4253   0.519   1.349   4.205  1.5928  0.8329 -0.8674
  217THF     H6 4254   0.199   1.374   3.951  0.1694 -3.4885 -0.3868
  217THF     H7 4255   0.303   1.514   3.965  0.4657 -0.2090 -0.2433
  217THF     C8 4256   0.401   1.337   3.889 -0.1144  0.7949 -0.4145
  217THF     C9 4257   0.520   1.340   3.985 -0.8110  0.2612 -0.3162
  217THF    H10 4258   0.425   1.384   3.794 -1.5638 -0.4128 -1.4232
  217THF    H11 4259   0.371   1.235   3.865  0.0480  0.8307 -0.7815
  217THF    H12 4260   0.589   1.258   3.964  0.7405  1.3007  0.5552
  217THF    H13 4261   0.580   1.431   3.982  0.8847 -0.8073 -0.6889
  218THF     O1 4262   4.004   3.255   5.064  0.5006 -0.4126 -0.2582
  218THF     C2 4263   4.036   3.268   4.929 -0.8992 -0.5121 -0.1267
  218THF     C3 4264   4.103   3.317   5.140 -0.6217  0.8602  0.2011
  218THF     H4 4265   4.006   3.368   4.898 -0.5616 -0.7440 -1.2728
  218THF     H5 4266   3.993   3.192   4.864 -0.4922 -0.0091 -1.0100
  218THF     H6 4267   4.073   3.419   5.163 -2.8830 -0.2030  2.3974
  218THF     H7 4268   4.116   3.279   5.241  1.7249  0.5371 -0.1706
  218THF     C8 4269   4.228   3.305   5.055 -0.3854  0.2104  0.4410
  218THF     C9 4270   4.188   3.249   4.924  0.1384  0.0138 -0.3187
  218THF    H10 4271   4.303   3.239   5.097  1.2051  1.7266  0.1073
  218THF    H11 4272   4.273   3.403   5.039 -0.1763  0.7246  3.4694
  218THF    H12 4273   4.234   3.291   4.835 -0.0144  0.2357 -0.2911
  218THF    H13 4274   4.207   3.141   4.919 -0.7605 -0.1444 -0.6165
  219THF     O1 4275   1.928   0.802   0.744 -0.3868 -0.4675  0.2733
  219THF     C2 4276   2.040   0.846   0.667  0.3812  0.0462  0.5369
  219THF     C3 4277   1.979   0.687   0.807 -0.2757 -0.6895 -0.4667
  219THF     H4 4278   2.114   0.892   0.733  0.2266  0.9809  0.0718
  219THF     H5 4279   2.012   0.926   0.599 -0.1678 -0.4260  0.1957
  219THF     H6 4280   2.038   0.715   0.894 -0.8103 -2.0389  0.3679
  219THF     H7 4281   1.896   0.627   0.845 -1.3046  1.6964  1.3168
  219THF     C8 4282   2.050   0.608   0.687 -0.0644 -0.2857  0.1078
  219THF     C9 4283   2.091   0.725   0.598  0.0473  0.8298  0.6920
  219THF    H10 4284   1.975   0.552   0.630 -0.7187  1.6157 -0.9843
  219THF    H11 4285   2.126   0.535   0.713 -0.0182 -0.2496  0.0739
  219THF    H12 4286   2.197   0.721   0.573 -0.1882 -1.1900 -0.1971
  219THF    H13 4287   2.031   0.708   0.509  0.4591  2.6819  0.0171
  220THF     O1 4288   0.857   1.451   4.212 -0.3737  0.6406  0.5533
  220THF     C2 4289   0.895   1.524   4.331 -0.7081  0.0384 -0.0335
  220THF     C3 4290   0.912   1.319   4.214 -0.4089  0.1004  0.0140
  220THF     H4 4291   0.832   1.613   4.339 -0.5848  0.0218  1.3970
  220THF     H5 4292   0.998   1.550   4.308 -1.2337  0.4448 -2.1284
  220THF     H6 4293   0.851   1.250   4.156  0.6790 -0.6670 -0.2434
  220THF     H7 4294   1.018   1.309   4.190 -0.1541  0.9576  0.7314
  220THF     C8 4295   0.893   1.286   4.359 -0.0609 -0.0681 -0.0993
  220THF     C9 4296   0.874   1.420   4.436 -0.0986 -0.0905  0.3209
  220THF    H10 4297   0.984   1.234   4.388 -0.9390 -1.0267  1.0575
  220THF    H11 4298   0.812   1.217   4.382  0.3453 -0.4947  0.0646
  220THF    H12 4299   0.776   1.411   4.482 -0.1647  0.8717  0.3907
  220THF    H13 4300   0.944   1.448   4.515 -0.7375 -0.7270  1.1318
  221THF     O1 4301   3.780   1.435   1.695  0.1447 -0.1963 -0.0198
  221THF     C2 4302   3.657   1.389   1.680 -0.0120  0.1035 -0.0107
  221THF     C3 4303   3.848   1.340   1.776  0.6774  0.2449 -0.0141
  221THF     H4 4304   3.647   1.305   1.612 -0.7282 -0.0873  0.3275
  221THF     H5 4305   3.595   1.472   1.647  0.8349  1.4548  1.6100
  221THF     H6 4306   3.870   1.246   1.726  0.9454  0.4919 -0.3580
  221THF     H7 4307   3.939   1.385   1.815  0.0950  0.5953  0.9910
  221THF     C8 4308   3.746   1.322   1.886  0.1688 -0.0042  0.4199
  221THF     C9 4309   3.617   1.324   1.809  0.5239 -0.4981  0.6315
  221THF    H10 4310   3.747   1.408   1.952  1.3177  0.5130 -0.2413
  221THF    H11 4311   3.762   1.230   1.942 -2.0649 -1.1206 -0.6065
  221THF    H12 4312   3.589   1.220   1.791  2.4023 -0.9199 -0.0492
  221THF    H13 4313   3.538   1.374   1.864  0.6067 -1.9494  2.1210
  222THF     O1 4314   3.688   2.411   5.163  0.3839  0.0415 -0.1061
  222THF     C2 4315   3.741   2.506   5.079  0.2811 -0.0259  0.3699
  222THF     C3 4316   3.665   2.469   5.290 -0.0355 -1.1445 -1.0910
  222THF     H4 4317   3.730   2.485   4.973  1.0368 -1.4848  0.5481
  222THF     H5 4318   3.844   2.533   5.103  1.0817 -1.0935 -1.6173
  222THF     H6 4319   3.590   2.413   5.346  0.2455  0.3706  0.8932
  222THF     H7 4320   3.756   2.476   5.349 -1.3850 -0.6412  1.0375
  222THF     C8 4321   3.628   2.610   5.258  0.5691 -0.6024  0.2629
  222THF     C9 4322   3.639   2.618   5.107 -0.1784  0.9505  0.5030
  222THF    H10 4323   3.698   2.675   5.310 -1.0246  0.5897  0.9778
  222THF    H11 4324   3.528   2.631   5.296  1.5614  1.5974  1.8689
  222THF    H12 4325   3.541   2.587   5.069 -0.4854 -0.4895  2.3224
  222THF    H13 4326   3.679   2.708   5.062 -1.1589  0.8415 -0.6392
  223THF     O1 4327   2.569   2.022   2.689 -0.4483 -0.0895 -0.6630
  223THF     C2 4328   2.484   1.911   2.683  0.2987  0.1947  0.5289
  223THF     C3 4329   2.519   2.099   2.806 -0.3984 -0.1195 -0.3024
  223THF     H4 4330   2.530   1.813   2.675 -0.4465 -0.2246  1.3287
  223THF     H5 4331   2.421   1.941   2.599 -0.4570 -0.4722  0.8429
  223THF     H6 4332   2.593   2.166   2.849 -0.8792  0.9771 -1.1378
  223THF     H7 4333   2.430   2.159   2.788 -1.0362 -1.3022 -1.3009
  223THF     C8 4334   2.484   1.986   2.907  0.9398 -0.4560 -0.4168
  223THF     C9 4335   2.398   1.904   2.811  0.1904  0.0566  0.8654
  223THF    H10 4336   2.427   2.017   2.995 -0.2144 -1.0850 -0.9171
  223THF    H11 4337   2.565   1.922   2.942  0.8817  0.9542  2.6229
  223THF    H12 4338   2.391   1.805   2.856  0.2156  0.4407  1.7495
  223THF    H13 4339   2.295   1.937   2.800 -0.6751 -2.9789 -1.3165
  224THF     O1 4340   5.086   0.659   1.147  0.4605  0.1303  0.1452
  224THF     C2 4341   4.965   0.634   1.214 -0.1309 -0.0291 -0.4801
  224THF     C3 4342   5.056   0.699   1.012  0.3916 -0.2798  0.4309
  224THF     H4 4343   4.917   0.721   1.258 -1.8134 -0.4787 -1.3605
  224THF     H5 4344   4.976   0.556   1.290  0.6780  1.1377  0.6557
  224THF     H6 4345   5.072   0.805   0.990  0.6340  0.0376  1.9851
  224THF     H7 4346   5.113   0.640   0.940 -0.6463 -2.7322  1.5062
  224THF     C8 4347   4.910   0.670   0.989  0.5200  0.2976 -0.5863
  224THF     C9 4348   4.873   0.586   1.108 -0.0278 -0.3136  0.1673
  224THF    H10 4349   4.881   0.619   0.897  2.6915 -0.3351 -0.9721
  224THF    H11 4350   4.856   0.765   0.985  0.9170  0.5264 -0.5262
  224THF    H12 4351   4.771   0.614   1.134 -0.5156 -0.4556 -1.5026
  224THF    H13 4352   4.875   0.477   1.096 -0.4002 -0.3757  0.6247
  225THF     O1 4353   1.098   2.249   1.348  0.1295 -0.7503 -0.1703
  225THF     C2 4354   0.966   2.255   1.296 -0.2969  0.3076  0.5841
  225THF     C3 4355   1.092   2.316   1.479 -0.1473  0.7937 -0.3057
  225THF     H4 4356   0.893   2.182   1.330  0.2827 -1.5684 -1.9170
  225THF     H5 4357   0.976   2.242   1.188  0.4004 -1.5307  0.8278
  225THF     H6 4358   1.047   2.246   1.549  0.4162  1.4698  0.7562
  225THF     H7 4359   1.193   2.342   1.510  0.0922  0.5925 -0.9075
  225THF     C8 4360   1.008   2.433   1.460 -0.1720  0.7665 -0.2704
  225THF     C9 4361   0.914   2.395   1.346  0.6369 -0.7963 -0.4507
  225THF    H10 4362   1.070   2.514   1.421  0.1674 -0.2833 -1.9764
  225THF    H11 4363   0.960   2.467   1.552  2.8459  0.0696  1.7144
  225THF    H12 4364   0.808   2.391   1.371  0.4863  3.0822  0.1113
  225THF    H13 4365   0.925   2.472   1.269 -1.1049  2.2510  2.0886
  226THF     O1 4366   3.867   5.408   0.155 -0.7192  0.1240 -0.0857
  226THF     C2 4367   3.877   5.476   0.033 -0.1882 -0.4907 -0.0604
  226THF     C3 4368   3.899   5.277   0.121 -0.5351  0.3947 -0.4608
  226THF     H4 4369   3.972   5.529   0.035 -1.6965  2.4013  1.2727
  226THF     H5 4370   3.797   5.549   0.021  1.1028  0.8681 -0.7931
  226THF     H6 4371   3.976   5.247   0.192 -0.8282  1.6007  0.4024
  226THF     H7 4372   3.815   5.210   0.138 -0.7127  1.1535  1.9612
  226THF     C8 4373   3.953   5.262  -0.017  0.0745 -0.0986  0.0545
  226THF     C9 4374   3.876   5.374  -0.081 -0.4107  0.4723 -0.2654
  226THF    H10 4375   3.932   5.165  -0.063 -2.1638  0.4852 -0.2706
  226THF    H11 4376   4.057   5.294  -0.022 -0.0673  0.3284 -0.2681
  226THF    H12 4377   3.927   5.413  -0.170  1.2582 -2.2250 -0.6087
  226THF    H13 4378   3.778   5.335  -0.109  0.1200 -0.4843 -0.8370
  227THF     O1 4379   2.998   3.568   2.520  0.5063  0.1992  0.1802
  227THF     C2 4380   3.045   3.446   2.471  0.4565  0.4258  0.7772
  227THF     C3 4381   2.862   3.545   2.554 -0.6073 -0.0647 -0.4777
  227THF     H4 4382   3.153   3.431   2.465  0.2114 -1.4620  0.6335
  227THF     H5 4383   3.007   3.431   2.370  0.2245  0.3601  0.8742
  227THF     H6 4384   2.827   3.627   2.616  1.3789  2.3945 -2.3680
  227THF     H7 4385   2.798   3.537   2.466  1.5782  1.5364 -2.3480
  227THF     C8 4386   2.857   3.417   2.634  0.1209  0.4433  0.9125
  227THF     C9 4387   2.977   3.341   2.566  0.7617 -0.3061  0.3068
  227THF    H10 4388   2.758   3.373   2.629  0.5144 -0.3545 -2.4054
  227THF    H11 4389   2.876   3.427   2.741 -0.3613  0.8071  0.9661
  227THF    H12 4390   3.051   3.321   2.644 -0.2579 -3.3485  0.6365
  227THF    H13 4391   2.968   3.240   2.528 -1.4679  0.5789 -1.7212
  228THF     O1 4392   1.178   2.545   2.237 -0.6111  0.0424 -0.5030
  228THF     C2 4393   1.313   2.560   2.268 -0.1166 -0.6059  0.0746
  228THF     C3 4394   1.101   2.656   2.277  0.1907 -0.3774  0.5168
  228THF     H4 4395   1.370   2.591   2.180 -1.8322  1.3646 -0.4218
  228THF     H5 4396   1.350   2.460   2.291 -1.9750 -1.1079  1.0704
  228THF     H6 4397   1.098   2.736   2.203  1.2177  0.4119  1.2866
  228THF     H7 4398   0.996   2.635   2.293 -1.1248  3.2435 -1.9637
  228THF     C8 4399   1.175   2.700   2.408 -0.6161 -0.6915  0.5513
  228THF     C9 4400   1.313   2.655   2.390 -0.1847  0.0819  0.2170
  228THF    H10 4401   1.133   2.651   2.495 -2.2714 -0.3516 -0.0163
  228THF    H11 4402   1.182   2.807   2.426 -1.1305 -0.3630 -1.0160
  228THF    H12 4403   1.381   2.737   2.372 -0.9940  0.5253 -0.9211
  228THF    H13 4404   1.339   2.605   2.484  2.1016  0.3841 -0.2097
  229THF     O1 4405   0.091   4.791   2.833 -0.0237  0.2471  0.0660
  229THF     C2 4406  -0.003   4.843   2.932  0.6458  0.3356 -0.0945
  229THF     C3 4407   0.013   4.733   2.730 -0.8874 -0.2178 -0.8399
  229THF     H4 4408  -0.005   4.949   2.909 -1.1211  0.5364  0.8303
  229THF     H5 4409   0.031   4.824   3.035  0.9389 -5.1289 -0.8648
  229THF     H6 4410  -0.021   4.807   2.657 -0.7157 -0.6346 -1.3579
  229THF     H7 4411   0.069   4.654   2.678 -0.5975  0.3031 -1.3302
  229THF     C8 4412  -0.100   4.675   2.800  0.3580  0.0771  0.3472
  229THF     C9 4413  -0.138   4.777   2.908 -0.3883  0.3882 -0.8131
  229THF    H10 4414  -0.058   4.585   2.845 -0.7621 -0.4231  0.4558
  229THF    H11 4415  -0.183   4.644   2.736 -1.2397  3.1511  0.7436
  229THF    H12 4416  -0.206   4.857   2.878 -0.1338  2.1464  2.7251
  229THF    H13 4417  -0.178   4.735   3.001  1.3906 -0.2395 -0.2887
  230THF     O1 4418   4.502   0.088   4.677  0.6583 -0.0838 -0.8807
  230THF     C2 4419   4.564   0.019   4.573  0.4422 -0.4385  0.7429
  230THF     C3 4420   4.363   0.084   4.631 -0.5846 -0.5903 -0.3413
  230THF     H4 4421   4.671   0.002   4.590  0.7459  0.2017 -0.4858
  230THF     H5 4422   4.556   0.085   4.487  0.9700 -1.4862 -0.1355
  230THF     H6 4423   4.283   0.103   4.703 -1.1181 -2.6667 -0.3440
  230THF     H7 4424   4.338   0.151   4.548  0.7268  0.1095 -0.2045
  230THF     C8 4425   4.342  -0.059   4.576 -0.4194 -0.1346 -0.7917
  230THF     C9 4426   4.483  -0.113   4.555 -0.0013 -0.9435 -0.4940
  230THF    H10 4427   4.294  -0.063   4.479  1.0991 -2.0997 -1.5294
  230THF    H11 4428   4.284  -0.119   4.646  1.1521 -3.1295 -1.9078
  230THF    H12 4429   4.506  -0.179   4.638 -3.4877  0.1071  1.5484
  230THF    H13 4430   4.506  -0.164   4.462 -0.1837  0.5174 -1.3850
  231THF     O1 4431   1.007   4.225   4.981 -1.2371  0.0690  0.4890
  231THF     C2 4432   0.951   4.331   4.907  0.5470 -0.0627 -0.5292
  231THF     C3 4433   1.139   4.273   5.001  0.8077 -0.0644 -0.6692
  231THF     H4 4434   0.936   4.412   4.979  2.5646 -2.0272  2.2956
  231THF     H5 4435   0.847   4.313   4.879  0.5108  0.9331 -1.1086
  231THF     H6 4436   1.151   4.352   5.075 -1.7123 -0.2138 -0.0257
  231THF     H7 4437   1.192   4.185   5.038 -0.8637 -0.5111  0.7656
  231THF     C8 4438   1.185   4.314   4.858  0.6742 -0.3273 -0.3893
  231THF     C9 4439   1.053   4.362   4.800  0.0685 -0.7566 -0.2251
  231THF    H10 4440   1.230   4.239   4.794  1.7608  0.5202 -0.6541
  231THF    H11 4441   1.259   4.394   4.866  1.8117 -1.2935 -0.9898
  231THF    H12 4442   1.053   4.467   4.772 -1.2574 -0.4924  0.6477
  231THF    H13 4443   1.026   4.314   4.705 -1.2027  0.5213 -0.5564
  232THF     O1 4444   0.185   5.162   2.471  0.8937 -0.0912 -0.3198
  232THF     C2 4445   0.149   5.023   2.510  0.5484  0.3441 -0.2537
  232THF     C3 4446   0.233   5.157   2.341  0.2418  0.4599 -0.0514
  232THF     H4 4447   0.042   4.999   2.506  0.8803 -2.0761  2.2770
  232THF     H5 4448   0.184   4.998   2.610  0.5881 -1.0942 -0.5950
  232THF     H6 4449   0.202   5.237   2.273 -1.1812 -0.3768 -0.4240
  232THF     H7 4450   0.340   5.179   2.339  0.1966  0.7125 -2.4775
  232THF     C8 4451   0.218   5.015   2.286  0.3298 -0.3272  0.4062
  232THF     C9 4452   0.207   4.934   2.409 -0.4616 -0.6616  0.0870
  232THF    H10 4453   0.301   4.988   2.222  0.5878 -0.0243  0.6100
  232THF    H11 4454   0.126   5.006   2.229  0.7893 -2.4103 -0.1002
  232THF    H12 4455   0.139   4.849   2.407 -1.0162 -0.2208 -1.4147
  232THF    H13 4456   0.310   4.911   2.437 -0.7274  0.4054  2.1617
  233THF     O1 4457   0.189   0.792   3.719  0.2265  1.0664 -0.3383
  233THF     C2 4458   0.177   0.931   3.751  0.0843  0.1368  0.7290
  233THF     C3 4459   0.076   0.725   3.784 -0.2153 -0.1642  0.4922
  233THF     H4 4460   0.116   0.986   3.679  2.2082  2.4722  0.5892
  233THF     H5 4461   0.273   0.983   3.751 -0.0768  0.4531 -0.3635
  233THF     H6 4462  -0.015   0.728   3.724 -0.3390 -1.1092  0.6144
  233THF     H7 4463   0.085   0.617   3.798 -0.3227 -0.1628  0.5700
  233THF     C8 4464   0.063   0.792   3.921  0.4929  0.0293  0.5176
  233THF     C9 4465   0.125   0.938   3.894 -0.2701  0.1901 -0.3815
  233THF    H10 4466   0.130   0.738   3.988 -0.5751 -1.0451  0.7623
  233THF    H11 4467  -0.039   0.802   3.958 -0.5145 -0.0117 -2.0603
  233THF    H12 4468   0.063   1.027   3.889 -1.0740 -0.3084  0.3168
  233THF    H13 4469   0.199   0.956   3.971 -1.0919  1.9945  0.0385
  234THF     O1 4470   5.016   1.144   0.304 -1.0917 -0.3284  0.1625
  234THF     C2 4471   5.011   1.027   0.387  0.6266 -0.1911 -0.0521
  234THF     C3 4472   5.133   1.214   0.333  0.0156  0.0487 -0.4836
  234THF     H4 4473   5.070   0.956   0.330  1.3210  1.4526 -1.4860
  234THF     H5 4474   4.913   0.980   0.393  1.3859 -2.1637 -2.0084
  234THF     H6 4475   5.227   1.164   0.308  0.6994 -0.4341  2.6863
  234THF     H7 4476   5.132   1.319   0.303  0.7022  0.6008  1.3140
  234THF     C8 4477   5.115   1.214   0.491 -0.0994 -0.2783 -0.4790
  234THF     C9 4478   5.068   1.076   0.524 -0.3106 -0.7865  0.3514
  234THF    H10 4479   5.049   1.288   0.537  1.2658 -0.2164  1.5026
  234THF    H11 4480   5.206   1.245   0.542 -0.4782 -0.1650  0.1441
  234THF    H12 4481   5.160   1.020   0.542  0.9298  1.1731  0.3513
  234THF    H13 4482   4.996   1.071   0.606 -2.3162  1.1966 -1.1941
  235THF     O1 4483   2.797   4.253   1.530 -0.3830  0.1567 -0.1449
  235THF     C2 4484   2.717   4.170   1.609  0.1683 -0.6034  0.8470
  235THF     C3 4485   2.784   4.224   1.395 -0.0858  0.1552  0.4204
  235THF     H4 4486   2.699   4.211   1.708  0.8792  1.2795  0.2369
  235THF     H5 4487   2.771   4.076   1.621 -1.1987 -1.2434  2.4272
  235THF     H6 4488   2.804   4.309   1.329  0.3002 -1.8336 -2.2131
  235THF     H7 4489   2.865   4.153   1.378 -2.4142 -2.2766 -1.6658
  235THF     C8 4490   2.650   4.160   1.380  0.3340  0.5579 -0.3627
  235THF     C9 4491   2.593   4.150   1.518 -0.5893 -0.7449  0.2615
  235THF    H10 4492   2.679   4.059   1.354 -0.9944  0.0803 -0.0653
  235THF    H11 4493   2.580   4.197   1.305 -2.8400 -0.2862  1.9816
  235THF    H12 4494   2.514   4.219   1.549  0.0991  0.7668 -1.1842
  235THF    H13 4495   2.553   4.051   1.541 -1.0991 -0.3507  1.1408
  236THF     O1 4496   3.391   0.863   4.951  0.0344 -0.2095 -0.0400
  236THF     C2 4497   3.497   0.951   4.939 -0.2778  0.3404 -0.3267
  236THF     C3 4498   3.264   0.928   4.940 -0.4438  0.2435 -0.7773
  236THF     H4 4499   3.593   0.905   4.917 -0.5548 -0.5335  0.2069
  236THF     H5 4500   3.511   1.018   5.024  2.0035 -0.5553  0.0693
  236THF     H6 4501   3.189   0.860   4.902  0.2585 -1.7528  1.2300
  236THF     H7 4502   3.227   0.972   5.033  1.3084  0.1312  0.0139
  236THF     C8 4503   3.300   1.044   4.851  0.2677  1.2889  0.3504
  236THF     C9 4504   3.447   1.033   4.815  0.1416 -0.3504 -0.0537
  236THF    H10 4505   3.278   1.137   4.903  1.6468  1.8616 -0.0323
  236THF    H11 4506   3.237   1.057   4.763  2.6918 -0.2074 -1.7487
  236THF    H12 4507   3.456   0.970   4.727  0.0626 -0.9447  0.3510
  236THF    H13 4508   3.493   1.128   4.789  0.3018 -0.4045  0.0303
  237THF     O1 4509   0.827   3.354   0.193 -0.5499  0.3441 -0.4176
  237THF     C2 4510   0.933   3.269   0.242  0.6400 -0.3220  0.0380
  237THF     C3 4511   0.847   3.363   0.058  0.4008  0.0044 -0.6643
  237THF     H4 4512   0.911   3.227   0.340 -0.4629 -2.7121 -1.1534
  237THF     H5 4513   1.023   3.328   0.261 -0.5921  1.2521  1.2891
  237THF     H6 4514   0.752   3.393   0.015  0.1428 -0.2856 -0.3008
  237THF     H7 4515   0.926   3.428   0.021  0.1219 -0.0810 -1.4174
  237THF     C8 4516   0.884   3.224   0.012 -0.1971  0.2821 -0.1144
  237THF     C9 4517   0.957   3.161   0.135  0.4807  0.3341  0.1608
  237THF    H10 4518   0.941   3.213  -0.080 -2.7844 -0.0212 -1.8073
  237THF    H11 4519   0.792   3.181  -0.026  0.6611 -0.3055 -1.5869
  237THF    H12 4520   0.910   3.069   0.170 -0.0236  1.2493  2.0385
  237THF    H13 4521   1.061   3.140   0.109  0.8190  0.3049  1.4760
  238THF     O1 4522   4.253   1.577   4.384 -0.0680 -0.1546 -0.5517
  238THF     C2 4523   4.354   1.631   4.475 -0.0623 -0.1486 -0.5568
  238THF     C3 4524   4.128   1.611   4.441  0.2109  0.2239 -0.4287
  238THF     H4 4525   4.448   1.643   4.422 -0.7324  0.6037 -1.6048
  238THF     H5 4526   4.365   1.582   4.572  1.2105  1.2217  0.0267
  238THF     H6 4527   4.049   1.604   4.366  1.3666  1.7682 -1.8733
  238THF     H7 4528   4.109   1.529   4.510 -0.4252 -2.1289 -3.1707
  238THF     C8 4529   4.148   1.747   4.501  0.1630 -0.1141  0.0606
  238THF     C9 4530   4.296   1.768   4.508 -0.0055 -0.2288  0.5074
  238THF    H10 4531   4.099   1.745   4.598  1.8001 -2.4124  0.9277
  238THF    H11 4532   4.099   1.829   4.448 -2.7374 -1.8631 -0.1688
  238THF    H12 4533   4.327   1.825   4.420  1.2028 -2.2895 -0.5020
  238THF    H13 4534   4.334   1.814   4.599  1.3885 -1.1733  0.4373
  239THF     O1 4535   3.166   3.134   3.514 -0.1544 -0.3644  0.3475
  239THF     C2 4536   3.095   3.094   3.633 -0.3194 -0.2675  0.6143
  239THF     C3 4537   3.070   3.161   3.417  0.4651  0.1128  0.3358
  239THF     H4 4538   3.133   3.153   3.716  2.0512 -0.6383 -0.1333
  239THF     H5 4539   3.102   2.987   3.649  0.5824 -0.1107  1.3823
  239THF     H6 4540   3.107   3.227   3.338  0.6567 -0.5928 -0.1778
  239THF     H7 4541   3.055   3.067   3.365  2.2057  0.8276 -1.6062
  239THF     C8 4542   2.949   3.219   3.481  0.3460  0.3655 -0.2063
  239THF     C9 4543   2.949   3.128   3.605  0.5282  0.2798  0.5942
  239THF    H10 4544   2.858   3.206   3.423  1.4424  0.2470 -1.9931
  239THF    H11 4545   2.965   3.325   3.500 -2.1851  0.8877 -0.6887
  239THF    H12 4546   2.905   3.179   3.691 -0.3874 -0.4651  0.5842
  239THF    H13 4547   2.883   3.043   3.586 -1.3356  0.8160  3.8588
  240THF     O1 4548   1.595   5.006   0.902  0.0358  0.7285 -0.3476
  240THF     C2 4549   1.507   5.050   1.001  0.0225  0.1840 -0.0184
  240THF     C3 4550   1.631   5.120   0.827 -0.1551  0.8086 -0.1933
  240THF     H4 4551   1.561   5.097   1.084 -1.4056  0.2606  0.9038
  240THF     H5 4552   1.443   4.971   1.042  1.8320  0.1105  3.0141
  240THF     H6 4553   1.705   5.175   0.885  1.6392 -0.4397 -1.2207
  240THF     H7 4554   1.684   5.112   0.732  0.4867  1.5938  0.0860
  240THF     C8 4555   1.502   5.188   0.809  0.2085 -0.0932  0.2543
  240THF     C9 4556   1.422   5.157   0.929  0.3631  0.3622  0.3346
  240THF    H10 4557   1.448   5.139   0.728 -1.3261 -0.5217  1.4972
  240THF    H11 4558   1.509   5.294   0.786  0.8068 -0.4879 -1.5980
  240THF    H12 4559   1.399   5.244   0.990 -3.7164  0.4936 -1.1214
  240THF    H13 4560   1.325   5.118   0.901  0.0348  1.6557 -0.4503
  241THF     O1 4561   2.810   1.752   2.463  0.3857  0.2750  0.1884
  241THF     C2 4562   2.872   1.664   2.561 -0.3025 -0.0610  0.3121
  241THF     C3 4563   2.885   1.863   2.446  0.4951 -0.0214  0.0990
  241THF     H4 4564   2.959   1.632   2.503  1.1782 -0.3878  2.6063
  241THF     H5 4565   2.809   1.581   2.595 -1.0836 -0.1923 -1.3126
  241THF     H6 4566   2.971   1.841   2.383 -0.6539 -0.4008 -1.3908
  241THF     H7 4567   2.813   1.936   2.408 -0.3573 -1.7585 -1.7784
  241THF     C8 4568   2.932   1.899   2.589 -0.5619 -0.7966 -0.0392
  241THF     C9 4569   2.910   1.766   2.663  0.0119 -0.4403 -0.2967
  241THF    H10 4570   2.872   1.979   2.632  1.5922  0.4324  0.8261
  241THF    H11 4571   3.033   1.937   2.599 -0.5715 -0.8638  0.3187
  241THF    H12 4572   3.000   1.748   2.723  1.0564  2.4912 -0.8112
  241THF    H13 4573   2.825   1.786   2.728 -0.5004  1.1104 -1.3713
  242THF     O1 4574   4.840   4.878   0.395 -0.3348 -0.0944 -0.0104
  242THF     C2 4575   4.740   4.911   0.490 -0.1749 -0.1187 -0.5399
  242THF     C3 4576   4.889   5.000   0.329  0.0767 -0.6731  0.2501
  242THF     H4 4577   4.774   4.897   0.592  0.1878 -2.1808 -0.9085
  242THF     H5 4578   4.657   4.841   0.492 -0.2387 -0.1069 -1.8691
  242THF     H6 4579   4.974   5.048   0.376 -0.4533  1.0619 -0.4467
  242THF     H7 4580   4.933   4.981   0.231  0.4830 -0.6028  0.4192
  242THF     C8 4581   4.764   5.085   0.320 -0.6795 -0.3221  0.0407
  242THF     C9 4582   4.697   5.058   0.452 -0.4557  0.1734  0.2148
  242THF    H10 4583   4.704   5.065   0.231  0.3153  2.3885 -1.3322
  242THF    H11 4584   4.794   5.189   0.310  0.9484 -0.6816  0.7840
  242THF    H12 4585   4.738   5.134   0.520 -1.5846  0.4248  0.6265
  242THF    H13 4586   4.590   5.071   0.462 -0.5923 -1.3735  1.1474
  243THF     O1 4587   4.476   5.395   0.741 -0.0380  0.3992 -0.2975
  243THF     C2 4588   4.557   5.393   0.624 -0.1928  0.6116 -0.2191
  243THF     C3 4589   4.339   5.376   0.693 -0.1916  0.7695 -0.1997
  243THF     H4 4590   4.580   5.288   0.603 -2.7633 -0.4945  1.9282
  243THF     H5 4591   4.650   5.448   0.637  0.0600 -0.2478  2.0381
  243THF     H6 4592   4.321   5.275   0.654 -3.2259  1.4386 -0.7465
  243THF     H7 4593   4.264   5.386   0.771 -0.3371  0.5522 -0.3074
  243THF     C8 4594   4.333   5.475   0.584 -0.1175 -0.1353  0.7656
  243THF     C9 4595   4.466   5.445   0.517  0.7119  0.6141  0.3399
  243THF    H10 4596   4.338   5.582   0.606  0.1544 -0.2436  1.2520
  243THF    H11 4597   4.246   5.462   0.519  2.0397 -2.6703 -1.9388
  243THF    H12 4598   4.453   5.370   0.438  2.4377 -2.4442  2.7380
  243THF    H13 4599   4.512   5.528   0.461  0.9172 -0.8815 -1.8600
  244THF     O1 4600   2.571   0.522   2.578  0.0886  0.8474 -0.5633
  244THF     C2 4601   2.702   0.574   2.588 -0.9261  0.3602 -0.5219
  244THF     C3 4602   2.518   0.524   2.448 -0.8834 -0.1163 -0.0025
  244THF     H4 4603   2.777   0.509   2.541  0.5772  1.7344 -0.1042
  244THF     H5 4604   2.733   0.601   2.689  0.2928  0.4349 -0.8941
  244THF     H6 4605   2.550   0.430   2.402  0.4671 -0.6197  1.8554
  244THF     H7 4606   2.410   0.537   2.450 -0.8315  0.2623  0.3477
  244THF     C8 4607   2.573   0.659   2.402 -0.4244 -0.2946  0.7572
  244THF     C9 4608   2.680   0.701   2.503 -0.5240  0.4646  0.4751
  244THF    H10 4609   2.492   0.733   2.403  0.2161  0.4380  2.4145
  244THF    H11 4610   2.616   0.651   2.302 -2.3324 -0.8285 -0.0767
  244THF    H12 4611   2.769   0.721   2.444 -0.1670  1.5315  1.3412
  244THF    H13 4612   2.640   0.787   2.558 -0.0116  0.5106  0.7759
  245THF     O1 4613   1.884   3.755   0.026 -0.0706 -0.2959  0.2354
  245THF     C2 4614   1.780   3.799   0.116 -0.4430  1.1904 -0.2452
  245THF     C3 4615   1.851   3.621  -0.024 -0.9299 -0.0396  0.9056
  245THF     H4 4616   1.729   3.887   0.077 -0.7870  1.5794  1.0245
  245THF     H5 4617   1.825   3.829   0.211 -0.8391  0.6197  0.1306
  245THF     H6 4618   1.800   3.627  -0.120  1.2824 -0.6011 -0.3803
  245THF     H7 4619   1.942   3.564  -0.043 -2.4627 -2.1065 -0.7381
  245THF     C8 4620   1.766   3.555   0.080  0.0437  1.0036 -0.1491
  245THF     C9 4621   1.687   3.679   0.121 -0.3577  0.2794 -0.3408
  245THF    H10 4622   1.818   3.523   0.170  0.3194 -0.9434 -0.9391
  245THF    H11 4623   1.712   3.465   0.050  0.7524  0.0129  1.3913
  245THF    H12 4624   1.600   3.689   0.056 -1.3339  0.0591  0.8959
  245THF    H13 4625   1.648   3.656   0.220 -0.6359 -2.6126 -1.0382
  246THF     O1 4626   2.039   2.604   2.073  0.1158 -0.7207 -0.3673
  246THF     C2 4627   1.989   2.579   2.208 -0.1054  0.1075 -0.2946
  246THF     C3 4628   1.931   2.597   1.982  0.5804 -0.0851 -0.4302
  246THF     H4 4629   1.928   2.662   2.246 -1.6885 -0.5490 -1.2554
  246THF     H5 4630   2.072   2.555   2.274 -0.9394 -0.9594  0.3939
  246THF     H6 4631   1.887   2.696   1.983  1.0256  0.1076  0.1088
  246THF     H7 4632   1.967   2.576   1.881 -0.7562 -1.5724 -0.6448
  246THF     C8 4633   1.827   2.503   2.042  0.5151  0.0465  0.4174
  246THF     C9 4634   1.888   2.469   2.177 -0.1957  0.1329 -0.3105
  246THF    H10 4635   1.785   2.412   2.000 -1.5356  0.5272  1.2755
  246THF    H11 4636   1.736   2.561   2.060  0.2707 -0.4868  0.9357
  246THF    H12 4637   1.806   2.449   2.247  0.5689 -1.2296  0.2553
  246THF    H13 4638   1.947   2.377   2.169  0.0107  0.3505 -1.4346
  247THF     O1 4639   4.044   3.741   1.965 -0.1938 -0.2356  0.2299
  247THF     C2 4640   4.033   3.761   2.100 -0.8804  0.2523 -0.9475
  247THF     C3 4641   4.178   3.795   1.934 -0.5384 -0.0982  0.3857
  247THF     H4 4642   3.950   3.707   2.145  1.3488 -2.8219 -0.1677
  247THF     H5 4643   4.021   3.863   2.137 -2.0312 -0.7208  1.5890
  247THF     H6 4644   4.223   3.751   1.845 -1.0603  0.9076 -0.3870
  247THF     H7 4645   4.183   3.898   1.901  0.3144 -0.7191 -1.5572
  247THF     C8 4646   4.262   3.767   2.057  0.3272 -0.7682  0.2611
  247THF     C9 4647   4.164   3.708   2.151 -0.3582 -0.0831  0.0628
  247THF    H10 4648   4.313   3.854   2.099  2.5105 -1.0965 -1.5126
  247THF    H11 4649   4.342   3.697   2.032  1.5637  0.3300  1.0262
  247THF    H12 4650   4.169   3.599   2.143 -0.0570 -0.1538  1.0572
  247THF    H13 4651   4.193   3.738   2.251 -1.1873  0.9018  0.0255
  248THF     O1 4652   2.338   5.489   0.755 -0.4825 -0.0783 -0.0570
  248THF     C2 4653   2.447   5.409   0.819  0.1928 -0.6268  0.5232
  248THF     C3 4654   2.294   5.417   0.651 -0.0594  0.7347 -0.3828
  248THF     H4 4655   2.399   5.326   0.870 -0.2371  0.5361  2.1167
  248THF     H5 4656   2.512   5.465   0.886 -1.2176 -1.6256  2.8523
  248THF     H6 4657   2.231   5.335   0.683 -1.2254  1.4750 -0.7393
  248THF     H7 4658   2.234   5.480   0.585  0.9814  1.9085 -0.2641
  248THF     C8 4659   2.424   5.367   0.583 -0.1696  0.6668  0.5305
  248THF     C9 4660   2.528   5.365   0.695  0.1902 -0.0624  0.5931
  248THF    H10 4661   2.449   5.433   0.500  0.4533 -1.0384 -0.6906
  248THF    H11 4662   2.412   5.268   0.539 -0.4028  0.5649  0.8194
  248THF    H12 4663   2.555   5.262   0.715 -1.1713 -0.0639  2.7304
  248THF    H13 4664   2.606   5.439   0.680  0.6640 -1.0838 -2.7211
  249THF     O1 4665   3.964   1.368   3.680 -0.2333  0.5801  0.0023
  249THF     C2 4666   3.999   1.301   3.805  1.0399  0.1963  0.4902
  249THF     C3 4667   4.057   1.475   3.660  0.2687  0.4074  0.0890
  249THF     H4 4668   4.091   1.244   3.805  1.1165  0.2931 -0.9538
  249THF     H5 4669   3.915   1.250   3.851 -0.2640  0.3191 -1.6189
  249THF     H6 4670   4.145   1.433   3.611  2.1667  0.6766  2.9921
  249THF     H7 4671   4.002   1.546   3.598  1.3442  1.3226  0.1493
  249THF     C8 4672   4.095   1.526   3.802  0.4795 -0.0484  0.1223
  249THF     C9 4673   4.022   1.425   3.897 -0.2471 -0.1301  0.4897
  249THF    H10 4674   4.072   1.629   3.831 -1.2404 -0.4731  0.3761
  249THF    H11 4675   4.204   1.514   3.801  0.3019 -1.9970 -1.4130
  249THF    H12 4676   4.080   1.402   3.987  1.0357 -1.2422 -0.5775
  249THF    H13 4677   3.924   1.470   3.917 -0.1675  1.6011 -2.4540
  250THF     O1 4678   4.484   2.774   4.168 -0.1140 -0.0626 -0.2854
  250THF     C2 4679   4.357   2.809   4.218 -0.0827  0.1033 -0.1082
  250THF     C3 4680   4.474   2.801   4.030 -0.5031  0.5708  0.2992
  250THF     H4 4681   4.361   2.814   4.327  1.8960  1.5591 -0.1801
  250THF     H5 4682   4.283   2.734   4.190 -0.1322 -0.4991  1.5048
  250THF     H6 4683   4.565   2.796   3.970  0.1379  2.6583  1.0429
  250THF     H7 4684   4.415   2.724   3.979  0.3107  0.2084 -0.1259
  250THF     C8 4685   4.405   2.939   4.014 -0.1219 -0.0155 -0.5125
  250THF     C9 4686   4.323   2.943   4.143  1.1925  0.1124 -0.5200
  250THF    H10 4687   4.344   2.945   3.924  2.2151 -1.5515 -2.3154
  250THF    H11 4688   4.484   3.015   4.020 -1.5068  1.3758  0.9229
  250THF    H12 4689   4.355   3.032   4.198 -1.1784  1.7258 -1.5705
  250THF    H13 4690   4.215   2.950   4.126  1.2136  1.2880 -0.2554
  251THF     O1 4691   2.664   1.369   1.793 -0.0124 -0.4714  0.2445
  251THF     C2 4692   2.602   1.338   1.662  0.2340  0.1748 -0.4620
  251THF     C3 4693   2.711   1.243   1.849 -0.2422  0.3275  0.1799
  251THF     H4 4694   2.678   1.328   1.584  0.4871 -1.8569 -0.0004
  251THF     H5 4695   2.525   1.411   1.637  1.8448  2.3512  0.5272
  251THF     H6 4696   2.798   1.218   1.789 -1.4795  0.6778 -1.8391
  251THF     H7 4697   2.746   1.248   1.952 -1.5991  0.6069  0.6484
  251THF     C8 4698   2.592   1.150   1.822 -0.7613 -0.2098 -0.0063
  251THF     C9 4699   2.536   1.195   1.692  0.3729 -0.0284  0.1141
  251THF    H10 4700   2.519   1.158   1.903 -2.2595  0.2447 -1.3447
  251THF    H11 4701   2.621   1.045   1.821  1.6453  0.3955  0.9492
  251THF    H12 4702   2.571   1.132   1.610 -0.3714 -1.3719  0.8047
  251THF    H13 4703   2.432   1.185   1.664  0.8162 -1.8527 -0.9887
  252THF     O1 4704   5.088   0.660   0.327 -0.0967  0.5513 -0.9895
  252THF     C2 4705   5.173   0.549   0.310  0.1612  0.1916 -0.1339
  252THF     C3 4706   5.005   0.635   0.443  0.3308 -0.3383 -0.0801
  252THF     H4 4707   5.261   0.568   0.249  0.7573  1.9435  1.1761
  252THF     H5 4708   5.117   0.465   0.271  0.4340 -1.2080  2.2725
  252THF     H6 4709   4.946   0.721   0.473 -1.0903 -1.7533  1.3777
  252THF     H7 4710   4.940   0.553   0.414  3.4692 -2.7450 -0.9399
  252THF     C8 4711   5.113   0.584   0.533  0.1841  0.4158  0.2979
  252THF     C9 4712   5.217   0.519   0.451  0.7362  0.1154 -0.1403
  252THF    H10 4713   5.075   0.524   0.616 -1.4349 -0.7354 -1.2215
  252THF    H11 4714   5.154   0.672   0.584 -0.2677  1.0834 -0.4715
  252THF    H12 4715   5.318   0.556   0.470 -0.1845  2.0827  1.3936
  252THF    H13 4716   5.211   0.411   0.459 -2.5813 -0.0190 -2.5223
  253THF     O1 4717   2.322   0.439   0.059  0.2674  0.6792 -1.1785
  253THF     C2 4718   2.331   0.560   0.136 -0.0737 -0.4717  1.0943
  253THF     C3 4719   2.283   0.343   0.153 -0.2408  0.5565 -0.7121
  253THF     H4 4720   2.346   0.641   0.065 -1.5350 -0.3863  0.8517
  253THF     H5 4721   2.426   0.563   0.190  0.2940 -0.7172  0.4723
  253THF     H6 4722   2.251   0.245   0.116 -3.5205 -0.3759  3.6431
  253THF     H7 4723   2.365   0.327   0.223  0.4075 -0.5638 -1.6969
  253THF     C8 4724   2.161   0.414   0.224 -0.9759 -0.3418 -0.3073
  253THF     C9 4725   2.199   0.564   0.207 -0.0339 -0.5193 -0.0931
  253THF    H10 4726   2.154   0.392   0.331  0.9402  1.7396  0.3404
  253THF    H11 4727   2.068   0.386   0.175 -0.4124 -3.4475  0.2238
  253THF    H12 4728   2.134   0.628   0.148 -1.5218 -0.7282  1.2228
  253THF    H13 4729   2.201   0.606   0.308  0.1259 -0.1634 -0.2434
  254THF     O1 4730   5.215   0.159   2.399  0.1789 -0.4190 -0.1853
  254THF     C2 4731   5.165   0.272   2.474  0.2238  0.7180 -0.2406
  254THF     C3 4732   5.355   0.180   2.386 -0.2559 -0.5379  0.0625
  254THF     H4 4733   5.075   0.249   2.530  0.4567 -0.1396 -0.2098
  254THF     H5 4734   5.161   0.357   2.405  0.2360  1.6717  0.9003
  254THF     H6 4735   5.406   0.085   2.407 -0.8833 -0.4866  2.0156
  254THF     H7 4736   5.387   0.207   2.286 -0.3607  1.7650  0.5919
  254THF     C8 4737   5.401   0.290   2.487  0.2429 -0.2875  0.3256
  254THF     C9 4738   5.273   0.299   2.574  0.2662 -0.1714  0.9425
  254THF    H10 4739   5.404   0.385   2.434 -2.2970 -0.0305  0.5053
  254THF    H11 4740   5.490   0.258   2.542  0.6184 -0.9439 -0.6466
  254THF    H12 4741   5.279   0.224   2.653  1.1581 -1.0315  0.0801
  254THF    H13 4742   5.256   0.403   2.600  0.1754  0.5812 -1.8118
  255THF     O1 4743   0.965   2.442   4.872 -0.2662  0.2206  0.3665
  255THF     C2 4744   0.886   2.477   4.986 -0.5561  0.7593  0.4723
  255THF     C3 4745   1.105   2.427   4.912  1.0065 -0.0447  0.4202
  255THF     H4 4746   0.850   2.380   5.021 -0.7020  0.3906 -0.6717
  255THF     H5 4747   0.796   2.523   4.945 -0.3943  0.2181 -0.5339
  255THF     H6 4748   1.132   2.323   4.926  1.4905  0.3965  3.6778
  255THF     H7 4749   1.171   2.478   4.843 -0.1299  1.8163  0.6244
  255THF     C8 4750   1.109   2.488   5.054  0.1393 -0.6632 -0.0974
  255THF     C9 4751   0.975   2.555   5.078  0.3501 -0.0158  1.1668
  255THF    H10 4752   1.186   2.564   5.068 -1.2561  0.9207 -0.7343
  255THF    H11 4753   1.117   2.411   5.131  0.3653 -0.4541  0.0908
  255THF    H12 4754   0.940   2.553   5.181  0.3241 -2.5899  1.1965
  255THF    H13 4755   0.984   2.658   5.045 -1.7409  0.0160  0.5445
  256THF     O1 4756   5.337   0.034   3.558  0.1620  0.3078 -0.3364
  256THF     C2 4757   5.198   0.014   3.586  0.2011  0.4440  0.3504
  256THF     C3 4758   5.378  -0.076   3.472 -0.3033  0.5474  0.1358
  256THF     H4 4759   5.145   0.044   3.495 -0.7453 -0.7453  0.4839
  256THF     H5 4760   5.161   0.088   3.657  3.3622  1.1767  1.3775
  256THF     H6 4761   5.341  -0.061   3.370  0.5613  1.3005 -0.0793
  256THF     H7 4762   5.486  -0.089   3.475 -0.3529  0.2660  0.7016
  256THF     C8 4763   5.305  -0.197   3.537 -0.5258  0.0063  0.4933
  256THF     C9 4764   5.180  -0.137   3.611 -0.2026 -0.6159  0.2085
  256THF    H10 4765   5.359  -0.243   3.619 -0.4750 -1.3258 -0.2517
  256THF    H11 4766   5.289  -0.279   3.467 -1.0346 -1.7937  2.6044
  256THF    H12 4767   5.089  -0.181   3.572 -0.4517  0.8151 -0.9121
  256THF    H13 4768   5.191  -0.157   3.718 -0.8009  0.7038  0.5456
  257THF     O1 4769   3.584   5.171   5.315  0.6384  0.5354 -0.3366
  257THF     C2 4770   3.445   5.211   5.320  0.6212  0.1095 -0.0496
  257THF     C3 4771   3.595   5.044   5.382  1.1363 -0.0596 -0.3650
  257THF     H4 4772   3.402   5.224   5.221  0.2283  0.9383  0.2217
  257THF     H5 4773   3.421   5.309   5.362 -0.3723 -0.6912  1.3722
  257THF     H6 4774   3.577   4.965   5.308  2.5856  0.6059 -1.4764
  257THF     H7 4775   3.692   5.036   5.431  0.8309 -0.1738  0.2323
  257THF     C8 4776   3.477   5.035   5.479 -0.0447  0.9903  0.4046
  257THF     C9 4777   3.361   5.106   5.400  0.1527 -0.2293 -0.1488
  257THF    H10 4778   3.496   5.098   5.566  1.9508  1.3206 -0.2303
  257THF    H11 4779   3.452   4.930   5.498 -0.4076  1.2092  1.1566
  257THF    H12 4780   3.301   5.042   5.336  0.3269  0.9502 -1.5362
  257THF    H13 4781   3.285   5.154   5.462  0.0039  0.6901 -1.0329
  258THF     O1 4782   1.296   0.898   2.928  0.0501  0.5333 -0.1120
  258THF     C2 4783   1.406   0.909   2.837  0.0378 -0.5583 -0.0832
  258THF     C3 4784   1.353   0.914   3.057 -0.4666  0.4108  0.1347
  258THF     H4 4785   1.439   1.011   2.815  3.3407 -1.6983 -1.0295
  258THF     H5 4786   1.389   0.871   2.736 -0.8478 -2.8170  0.8645
  258THF     H6 4787   1.353   1.017   3.093  1.2898  0.1343  1.0318
  258THF     H7 4788   1.303   0.851   3.131 -0.5619 -0.4440 -0.6362
  258THF     C8 4789   1.497   0.862   3.060 -0.3367  0.3098  0.5238
  258THF     C9 4790   1.530   0.851   2.912 -0.3904 -0.5780  0.4512
  258THF    H10 4791   1.497   0.767   3.113  1.6602 -0.7660 -1.2434
  258THF    H11 4792   1.575   0.920   3.110  0.8669 -1.6468  0.9950
  258THF    H12 4793   1.613   0.916   2.882 -2.1313  0.8592 -1.6035
  258THF    H13 4794   1.528   0.748   2.876  2.2853 -0.6149  0.1790
  259THF     O1 4795   2.936   0.256   2.819 -0.2022 -0.1299  0.4019
  259THF     C2 4796   2.904   0.215   2.687 -0.4517 -0.2858  0.3430
  259THF     C3 4797   2.815   0.299   2.887 -0.0107  0.5596  0.5243
  259THF     H4 4798   2.986   0.174   2.628  1.0965  1.5884  1.0463
  259THF     H5 4799   2.876   0.301   2.626  0.3888 -1.0070 -1.1094
  259THF     H6 4800   2.824   0.296   2.996 -0.2231 -0.7298  0.5209
  259THF     H7 4801   2.793   0.404   2.867  0.6032  1.0617  2.3020
  259THF     C8 4802   2.715   0.212   2.821  0.3412 -0.0019  0.6510
  259THF     C9 4803   2.776   0.142   2.704  0.1894  0.9824  0.6347
  259THF    H10 4804   2.626   0.264   2.785  0.2589 -1.4519 -1.3818
  259THF    H11 4805   2.672   0.138   2.888 -2.1274  0.6761 -0.0794
  259THF    H12 4806   2.775   0.038   2.736 -1.3873  0.9772  0.6582
  259THF    H13 4807   2.716   0.151   2.613 -0.0544  1.7704  0.8626
  260THF     O1 4808   4.133   4.403   4.350  0.2885  0.3694 -0.3145
  260THF     C2 4809   4.173   4.538   4.351 -0.1245 -0.4072  0.6476
  260THF     C3 4810   4.091   4.368   4.221 -0.2136 -0.6277  0.7713
  260THF     H4 4811   4.241   4.554   4.435  1.1639  0.1098 -0.4731
  260THF     H5 4812   4.082   4.597   4.363  1.4490  1.9529  1.7334
  260THF     H6 4813   4.086   4.260   4.209 -1.5094 -0.4518 -0.4704
  260THF     H7 4814   3.987   4.398   4.212  0.6171  2.4638  0.1911
  260THF     C8 4815   4.185   4.440   4.124 -0.3954 -0.1048 -0.0857
  260THF     C9 4816   4.229   4.563   4.205  0.0461 -0.0791  0.3382
  260THF    H10 4817   4.140   4.468   4.029  0.1430 -1.7676 -0.8739
  260THF    H11 4818   4.279   4.387   4.108 -0.6120  0.0251 -1.9438
  260THF    H12 4819   4.337   4.573   4.208 -0.0182  0.5294  1.3991
  260THF    H13 4820   4.194   4.654   4.156  0.7761  0.6794  1.1802
  261THF     O1 4821   4.012   4.857   4.513 -0.9821 -0.8931  0.1644
  261THF     C2 4822   4.130   4.808   4.580 -0.2765 -0.0703  0.2616
  261THF     C3 4823   4.057   4.949   4.414  0.4537  0.2475  0.4181
  261THF     H4 4824   4.124   4.700   4.591  3.1793 -0.4634 -0.7022
  261THF     H5 4825   4.139   4.839   4.684 -0.2923  0.0247  0.2347
  261THF     H6 4826   3.978   4.940   4.338  0.2309 -2.8327  0.8679
  261THF     H7 4827   4.055   5.051   4.452 -1.6471  0.6696 -0.6269
  261THF     C8 4828   4.195   4.899   4.370  0.1899  0.2403 -0.0186
  261THF     C9 4829   4.251   4.841   4.494 -0.0666  0.8415 -0.2723
  261THF    H10 4830   4.248   4.980   4.321  0.2650  0.5126  0.5065
  261THF    H11 4831   4.176   4.825   4.292  0.5515  0.7164 -0.5608
  261THF    H12 4832   4.322   4.760   4.477 -0.3051  0.2137  1.5071
  261THF    H13 4833   4.304   4.924   4.541  0.0133  0.4999  0.2518
  262THF     O1 4834   0.156   2.194   2.775 -0.3094 -0.4095 -0.5312
  262THF     C2 4835   0.113   2.336   2.776 -0.5524 -1.1719  0.6399
  262THF     C3 4836   0.206   2.161   2.903 -0.5066  0.2339  0.1039
  262THF     H4 4837   0.043   2.378   2.704 -0.2373 -1.6124  0.0725
  262THF     H5 4838   0.205   2.394   2.769  1.6823 -4.5100 -0.0570
  262THF     H6 4839   0.174   2.060   2.929  1.0168 -0.0795  0.9072
  262THF     H7 4840   0.315   2.166   2.909 -0.5694  3.0661  0.4574
  262THF     C8 4841   0.141   2.257   3.000 -0.7944  0.2093 -0.8038
  262THF     C9 4842   0.059   2.349   2.915  0.5576  0.1542 -0.1899
  262THF    H10 4843   0.225   2.314   3.038 -0.3971  0.3634 -1.8890
  262THF    H11 4844   0.090   2.197   3.076  0.5616  0.4577  0.3509
  262THF    H12 4845  -0.046   2.320   2.917  0.8497 -1.2076 -1.6979
  262THF    H13 4846   0.060   2.452   2.950 -0.9936 -0.5631  2.2045
  263THF     O1 4847   0.910   5.004   3.070 -0.4986 -0.2364  0.1182
  263THF     C2 4848   0.924   4.887   2.985 -0.3493 -0.5899  0.0145
  263THF     C3 4849   1.003   5.003   3.173  0.0488  0.0048 -0.4796
  263THF     H4 4850   0.937   4.911   2.879  1.0815 -1.5210 -0.0484
  263THF     H5 4851   0.832   4.828   2.989 -0.5587 -0.2416  0.4188
  263THF     H6 4852   1.081   5.078   3.158  0.2648 -0.0639  0.2457
  263THF     H7 4853   0.959   5.035   3.267  0.6615 -0.7803  0.0862
  263THF     C8 4854   1.070   4.860   3.183 -0.0637 -0.1973 -0.2243
  263THF     C9 4855   1.047   4.809   3.043 -0.0989 -0.0623 -0.0478
  263THF    H10 4856   1.034   4.793   3.261  1.3454  0.3522  0.9391
  263THF    H11 4857   1.177   4.861   3.202 -0.0259 -1.3055 -0.3086
  263THF    H12 4858   1.131   4.803   2.974 -0.7607 -1.5547 -0.7680
  263THF    H13 4859   1.031   4.702   3.042  0.2596 -0.1160 -0.1172
  264THF     O1 4860   0.905   4.498   1.998  0.0479 -0.5172  0.0744
  264THF     C2 4861   0.775   4.454   1.973 -0.1716  0.2705 -0.2444
  264THF     C3 4862   1.005   4.416   1.929 -0.2851 -0.6187  1.1172
  264THF     H4 4863   0.703   4.536   1.974 -1.2342 -0.6354  0.4923
  264THF     H5 4864   0.759   4.383   2.054 -1.0273 -0.6454 -1.1942
  264THF     H6 4865   1.102   4.467   1.928 -0.5240 -0.1066  2.3382
  264THF     H7 4866   1.008   4.327   1.993 -1.7714 -0.2452  1.7521
  264THF     C8 4867   0.934   4.393   1.798  0.0208 -0.2935 -0.1028
  264THF     C9 4868   0.782   4.384   1.840  0.3826  0.0566  0.2805
  264THF    H10 4869   0.977   4.310   1.742  2.4136 -0.7182  2.1117
  264THF    H11 4870   0.939   4.475   1.726 -1.0635 -1.2149 -1.2697
  264THF    H12 4871   0.727   4.446   1.770  1.3233  1.6011  0.8483
  264THF    H13 4872   0.754   4.280   1.855  0.6865  0.1657  1.7635
  265THF     O1 4873   3.353   0.592   0.725  0.1363  0.4375  0.0896
  265THF     C2 4874   3.227   0.655   0.708 -0.0136  0.0539 -0.3282
  265THF     C3 4875   3.320   0.453   0.763  0.1688 -0.3228  0.4616
  265THF     H4 4876   3.229   0.733   0.633  1.4814 -0.6238 -1.0315
  265THF     H5 4877   3.194   0.692   0.805  1.0711 -2.4366  1.0836
  265THF     H6 4878   3.383   0.379   0.714  1.0959  0.5754  0.2441
  265THF     H7 4879   3.348   0.434   0.867 -0.2842 -0.2828  0.5895
  265THF     C8 4880   3.167   0.433   0.745  0.2759  0.1123 -0.0326
  265THF     C9 4881   3.126   0.548   0.662 -0.0432 -0.0792  0.3470
  265THF    H10 4882   3.105   0.435   0.835 -1.3291  0.3776 -1.1104
  265THF    H11 4883   3.143   0.340   0.694  3.6661 -1.4899  0.9749
  265THF    H12 4884   3.129   0.512   0.560  1.3342 -0.2743  0.4290
  265THF    H13 4885   3.022   0.578   0.675 -0.8060 -2.8148  1.1007
  266THF     O1 4886   1.455   5.115   2.206  0.0920  0.4328 -0.0946
  266THF     C2 4887   1.562   5.151   2.295  0.4907  0.0340 -0.1882
  266THF     C3 4888   1.499   5.110   2.072  0.6924 -0.4979  0.2802
  266THF     H4 4889   1.621   5.063   2.322 -0.6321 -1.0889 -1.2776
  266THF     H5 4890   1.532   5.204   2.386  0.7515  0.8908 -0.5895
  266THF     H6 4891   1.558   5.024   2.039  0.4519 -0.4904 -0.1888
  266THF     H7 4892   1.408   5.103   2.013  0.8384 -0.8775  0.0961
  266THF     C8 4893   1.576   5.232   2.062 -0.2207 -0.6169  0.2362
  266THF     C9 4894   1.635   5.248   2.201  0.7313 -0.4978  0.2746
  266THF    H10 4895   1.535   5.328   2.029  0.3932 -0.4806 -0.1572
  266THF    H11 4896   1.663   5.215   1.999 -0.8134 -1.5457 -0.3525
  266THF    H12 4897   1.743   5.228   2.196  0.9020  0.5211 -0.6433
  266THF    H13 4898   1.621   5.351   2.233  2.3849 -0.1360 -0.0525
  267THF     O1 4899   5.491   4.016   4.180 -0.1431  0.5501  0.3105
  267THF     C2 4900   5.420   3.932   4.267  0.2945  0.8201 -0.0132
  267THF     C3 4901   5.411   4.057   4.069  0.2860  0.7657  0.3268
  267THF     H4 4902   5.447   3.959   4.370 -2.3623  1.2476  0.6430
  267THF     H5 4903   5.449   3.827   4.263  0.1864  0.7325  1.0455
  267THF     H6 4904   5.371   4.158   4.073 -3.5161 -0.6311  2.4653
  267THF     H7 4905   5.455   4.037   3.972 -1.1212  0.0601 -0.1958
  267THF     C8 4906   5.280   3.958   4.077 -0.1099  0.1128 -0.6307
  267THF     C9 4907   5.267   3.947   4.233  0.2657  0.2141 -0.0970
  267THF    H10 4908   5.297   3.859   4.036 -2.1089 -0.8213  0.6464
  267THF    H11 4909   5.191   3.991   4.024  0.3195 -0.3366 -1.6436
  267THF    H12 4910   5.221   4.038   4.271  0.9471  1.6259 -2.4664
  267THF    H13 4911   5.217   3.857   4.270 -1.0084  1.1314  0.4666
  268THF     O1 4912   3.457   2.341   1.705 -0.0238 -0.5185 -0.1784
  268THF     C2 4913   3.485   2.203   1.727  0.1597 -0.7649  0.4513
  268THF     C3 4914   3.543   2.416   1.784  0.3255  0.0296 -0.4584
  268THF     H4 4915   3.432   2.133   1.662  0.6630 -1.8482  1.1801
  268THF     H5 4916   3.446   2.184   1.826 -0.0629  0.8216  0.6990
  268THF     H6 4917   3.550   2.519   1.749  1.1771  0.6618  1.4241
  268THF     H7 4918   3.499   2.410   1.883 -3.2712  1.0033 -1.8466
  268THF     C8 4919   3.683   2.347   1.760  0.0534 -0.0884 -0.1991
  268THF     C9 4920   3.645   2.200   1.736  0.1475 -0.0628 -0.2468
  268THF    H10 4921   3.743   2.369   1.848  0.1000  0.1477 -0.2891
  268THF    H11 4922   3.730   2.400   1.677 -0.8827 -0.4981 -1.0134
  268THF    H12 4923   3.675   2.158   1.640  0.3187 -0.4124 -0.0429
  268THF    H13 4924   3.681   2.125   1.806  2.9229  0.5524 -0.8859
  269THF     O1 4925   4.627   3.831   2.023 -0.7873 -0.3939  0.3547
  269THF     C2 4926   4.669   3.931   1.931 -0.4997  0.3332 -0.6920
  269THF     C3 4927   4.644   3.700   1.962 -0.5831 -0.2547 -0.5529
  269THF     H4 4928   4.749   3.982   1.983  0.4733 -0.9701 -0.8507
  269THF     H5 4929   4.589   4.002   1.910 -1.3487 -0.3928  0.0018
  269THF     H6 4930   4.658   3.611   2.022 -0.7483  1.0520  1.5060
  269THF     H7 4931   4.549   3.687   1.910 -1.5765 -0.1437  1.1604
  269THF     C8 4932   4.757   3.719   1.861  0.2070  0.5172  0.3515
  269THF     C9 4933   4.722   3.855   1.804  0.1576  0.3536 -0.4608
  269THF    H10 4934   4.778   3.637   1.792  3.0251 -0.5704  2.3291
  269THF    H11 4935   4.846   3.727   1.923  1.3705  0.2532 -1.2181
  269THF    H12 4936   4.794   3.901   1.737 -0.4067 -0.2820 -1.5202
  269THF    H13 4937   4.631   3.837   1.747 -0.2509 -2.0014  0.8106
  270THF     O1 4938   3.373   1.180   0.898 -0.0643  0.5980  0.4341
  270THF     C2 4939   3.332   1.318   0.913 -0.3126  1.0024 -0.0184
  270THF     C3 4940   3.394   1.164   0.760 -0.3129  0.3922  0.6494
  270THF     H4 4941   3.418   1.382   0.895  1.3128 -1.9054 -4.0343
  270THF     H5 4942   3.296   1.338   1.014 -1.9548  0.6328 -0.5016
  270THF     H6 4943   3.491   1.204   0.729 -2.3439  3.6002 -2.2950
  270THF     H7 4944   3.396   1.057   0.738  0.1708  0.5140  0.0651
  270THF     C8 4945   3.263   1.231   0.708  0.4444 -0.0360  0.1950
  270THF     C9 4946   3.230   1.342   0.807  0.6077 -0.2632  0.0821
  270THF    H10 4947   3.176   1.165   0.699 -0.5410  1.1184  0.9382
  270THF    H11 4948   3.284   1.281   0.613 -1.3355 -2.5127 -1.6226
  270THF    H12 4949   3.231   1.443   0.766 -1.1200 -0.9061 -1.7414
  270THF    H13 4950   3.128   1.337   0.846  0.5905  0.2858  0.1257
  271THF     O1 4951   4.496   2.677   3.001 -0.3491 -0.0441  0.1678
  271THF     C2 4952   4.634   2.704   3.016  0.2137  0.7533 -0.4014
  271THF     C3 4953   4.434   2.624   3.116  0.3861 -0.1951 -0.5195
  271THF     H4 4954   4.653   2.809   2.997 -1.7577  1.9311  3.1035
  271THF     H5 4955   4.694   2.640   2.951 -2.0312 -0.6812 -1.1793
  271THF     H6 4956   4.380   2.706   3.163  0.5429 -0.1334 -0.4446
  271THF     H7 4957   4.365   2.541   3.105  1.8968 -1.6482  0.5545
  271THF     C8 4958   4.551   2.575   3.200  0.3577 -0.4210  0.1278
  271THF     C9 4959   4.659   2.671   3.162 -0.4711 -0.0903 -0.1436
  271THF    H10 4960   4.573   2.475   3.163  3.7328 -0.6482  2.3356
  271THF    H11 4961   4.520   2.564   3.304 -2.4085  0.8721 -0.4625
  271THF    H12 4962   4.651   2.761   3.223  0.6686  1.6376 -2.3593
  271THF    H13 4963   4.753   2.619   3.174 -1.3588 -1.8899 -0.6670
  272THF     O1 4964   3.517   2.404   4.614  0.2007  0.0098  0.3823
  272THF     C2 4965   3.388   2.469   4.600  0.0910  0.1742  0.2539
  272THF     C3 4966   3.535   2.381   4.752  0.5277 -0.8246 -0.4645
  272THF     H4 4967   3.341   2.483   4.502 -2.2628  0.6539  1.3942
  272THF     H5 4968   3.403   2.564   4.650  0.9921  0.4284 -0.4791
  272THF     H6 4969   3.614   2.306   4.761  1.0669 -0.3895 -1.4023
  272THF     H7 4970   3.556   2.467   4.815  0.2023 -0.4250 -0.8956
  272THF     C8 4971   3.392   2.322   4.793 -0.8227  0.0946 -0.0422
  272THF     C9 4972   3.302   2.389   4.696  0.8120 -0.2972  0.4990
  272THF    H10 4973   3.364   2.321   4.899 -1.1749 -1.2041 -0.1265
  272THF    H11 4974   3.394   2.217   4.763  1.6649  0.6144 -1.9726
  272THF    H12 4975   3.240   2.319   4.640  0.9397  0.3268 -0.4462
  272THF    H13 4976   3.233   2.455   4.749  3.4058  2.0655  1.2134
  273THF     O1 4977   1.287   1.922   0.937  0.0311  0.3897  0.1374
  273THF     C2 4978   1.256   1.907   0.799 -0.0662  0.4373 -0.8725
  273THF     C3 4979   1.228   2.045   0.980  0.2923  0.0941  0.2716
  273THF     H4 4980   1.270   1.807   0.759 -0.7182  0.4804 -1.2252
  273THF     H5 4981   1.307   1.977   0.733 -0.2071 -0.8942 -2.4598
  273THF     H6 4982   1.212   2.037   1.088 -1.1239 -1.2395  0.0045
  273THF     H7 4983   1.286   2.136   0.964  0.2282  0.1751  0.5008
  273THF     C8 4984   1.095   2.055   0.908  0.6660  0.4361  0.0481
  273THF     C9 4985   1.101   1.947   0.803  0.0588  1.1123  0.2592
  273THF    H10 4986   1.077   2.155   0.869 -0.5583  0.8446  1.5857
  273THF    H11 4987   1.020   2.025   0.982  1.0958 -0.5409  0.1009
  273THF    H12 4988   1.025   1.871   0.821 -0.0512  1.0751 -0.3307
  273THF    H13 4989   1.074   1.973   0.700 -0.9196 -0.4782  0.0769
  274THF     O1 4990   5.030   3.536   3.977  0.3722  0.2570  0.3548
  274THF     C2 4991   5.123   3.643   4.000 -0.2849  0.3134 -0.6192
  274THF     C3 4992   5.104   3.418   3.974 -0.4502 -0.4942  0.1589
  274THF     H4 4993   5.063   3.727   4.034 -0.6659  0.1872 -0.9618
  274THF     H5 4994   5.177   3.655   3.906 -0.3291  1.2873 -0.5306
  274THF     H6 4995   5.033   3.344   4.011 -0.7482 -1.0323 -1.4194
  274THF     H7 4996   5.140   3.393   3.875 -2.5103  1.2202 -1.1107
  274THF     C8 4997   5.222   3.448   4.067 -0.1755 -0.1727 -0.9630
  274THF     C9 4998   5.212   3.590   4.109 -0.8711  0.4763 -0.1938
  274THF    H10 4999   5.315   3.425   4.016  1.3463 -2.0612  2.3564
  274THF    H11 5000   5.233   3.384   4.155  0.3845  1.6390  0.3520
  274THF    H12 5001   5.149   3.599   4.198 -0.5906 -0.3905  0.0952
  274THF    H13 5002   5.305   3.647   4.113 -0.1361 -0.7406  0.5807
  275THF     O1 5003   0.324   2.544   2.986 -0.2737  0.0061  0.4518
  275THF     C2 5004   0.266   2.628   3.093  0.0598 -0.2773  0.0248
  275THF     C3 5005   0.454   2.508   3.031  0.0157  0.2700  0.1316
  275THF     H4 5006   0.158   2.627   3.080  0.1882  2.5911 -2.6470
  275THF     H5 5007   0.303   2.731   3.093 -0.0624 -0.2305  0.7479
  275THF     H6 5008   0.492   2.420   2.979 -0.7084 -0.4945  0.8718
  275THF     H7 5009   0.527   2.587   3.013  0.5110 -0.4025 -0.9202
  275THF     C8 5010   0.436   2.481   3.177  0.2513  0.0050 -0.4890
  275THF     C9 5011   0.306   2.566   3.222 -0.6100 -0.1078  0.3226
  275THF    H10 5012   0.524   2.499   3.238 -0.9132 -0.6795  1.4718
  275THF    H11 5013   0.420   2.374   3.186  1.1759 -0.4849 -3.5189
  275THF    H12 5014   0.234   2.495   3.261  0.5771 -1.8205 -0.4625
  275THF    H13 5015   0.325   2.638   3.302 -0.3940  1.2662 -0.9181
  276THF     O1 5016   4.070   0.357   4.441 -0.4731 -0.1827 -0.3811
  276THF     C2 5017   3.979   0.388   4.339 -0.0442 -0.2248 -0.6609
  276THF     C3 5018   4.009   0.261   4.517 -0.0880 -0.1916  0.2095
  276THF     H4 5019   4.014   0.449   4.256 -1.2312  0.0998 -0.9412
  276THF     H5 5020   3.890   0.443   4.372  0.0518  0.6394 -1.7818
  276THF     H6 5021   4.077   0.200   4.578  0.9130  1.0514  0.3743
  276THF     H7 5022   3.945   0.319   4.584  0.5344  1.5328 -0.6358
  276THF     C8 5023   3.926   0.172   4.432  0.4202  0.6109  0.0014
  276THF     C9 5024   3.932   0.248   4.300  0.3768 -0.3101  0.0443
  276THF    H10 5025   3.826   0.152   4.471  0.3681 -0.4121 -0.6335
  276THF    H11 5026   3.993   0.087   4.432  1.7020  1.5790  1.1761
  276THF    H12 5027   4.008   0.214   4.231  1.1819  1.7609 -0.1694
  276THF    H13 5028   3.835   0.247   4.250 -0.6570 -0.9847  1.9491
  277THF     O1 5029   3.265   1.187   2.318 -0.3785  0.3458  0.2666
  277THF     C2 5030   3.159   1.221   2.236 -0.6211  0.0763  0.0058
  277THF     C3 5031   3.285   1.041   2.314  0.0837 -0.6997 -0.5555
  277THF     H4 5032   3.201   1.273   2.150  0.0533 -0.2094  0.1529
  277THF     H5 5033   3.101   1.293   2.295 -0.3459  0.3615 -0.0675
  277THF     H6 5034   3.392   1.020   2.313  0.3875 -0.0604  3.2004
  277THF     H7 5035   3.242   1.003   2.407  0.2987 -0.8481 -0.5159
  277THF     C8 5036   3.193   0.994   2.196  0.5367 -0.3775 -0.3270
  277THF     C9 5037   3.080   1.102   2.187 -0.4698 -0.4853 -0.0603
  277THF    H10 5038   3.160   0.891   2.206 -0.7347  0.1250  1.0517
  277THF    H11 5039   3.262   0.994   2.111  1.5137  1.7187  0.3900
  277THF    H12 5040   3.054   1.108   2.081 -0.9321 -1.0315  0.0202
  277THF    H13 5041   2.996   1.075   2.250 -0.6535 -2.9926 -1.2590
  278THF     O1 5042   1.140   5.393   0.264  0.1549  0.0936  0.2274
  278THF     C2 5043   1.054   5.321   0.174 -0.3764 -0.5781 -0.3511
  278THF     C3 5044   1.085   5.528   0.252 -0.8798 -0.1610  0.3738
  278THF     H4 5045   0.959   5.290   0.217  0.7083 -1.8631  1.2584
  278THF     H5 5046   1.103   5.226   0.154  2.4303  0.8765 -0.9385
  278THF     H6 5047   1.001   5.536   0.321 -0.5662  1.8353  0.5857
  278THF     H7 5048   1.165   5.596   0.280  0.6187  0.0624 -3.7423
  278THF     C8 5049   1.038   5.543   0.106  0.0347 -0.0907 -1.0401
  278THF     C9 5050   1.026   5.405   0.047 -0.1240  1.2179 -1.1098
  278THF    H10 5051   1.119   5.594   0.054 -1.4624  2.0687 -1.3852
  278THF    H11 5052   0.940   5.590   0.098  0.0923  0.1631 -0.3084
  278THF    H12 5053   0.931   5.383  -0.001 -0.6947 -1.3127  0.9343
  278THF    H13 5054   1.103   5.385  -0.027 -1.9403 -2.3110 -2.2589
  279THF     O1 5055   0.976   2.178   0.316  0.1563 -0.6764  0.1968
  279THF     C2 5056   0.953   2.049   0.372  0.5975 -0.2611 -0.1933
  279THF     C3 5057   0.847   2.223   0.285  0.6874 -0.5104 -0.1969
  279THF     H4 5058   1.040   2.032   0.437  0.9762  1.4326 -0.2025
  279THF     H5 5059   0.948   1.982   0.287  0.9734  2.0576 -2.1385
  279THF     H6 5060   0.850   2.331   0.268 -3.7932 -0.2413 -0.5316
  279THF     H7 5061   0.830   2.178   0.187 -0.1925  0.5782 -0.5714
  279THF     C8 5062   0.755   2.180   0.399  0.2129  0.1676 -0.0810
  279THF     C9 5063   0.828   2.060   0.453 -0.6459  0.4994  0.2777
  279THF    H10 5064   0.651   2.156   0.378  0.0323  1.1346 -0.3424
  279THF    H11 5065   0.745   2.269   0.461  2.0647  0.1975  0.2160
  279THF    H12 5066   0.863   2.083   0.554  2.0842 -0.0011 -0.4932
  279THF    H13 5067   0.767   1.970   0.451  0.1078 -0.0461  1.2263
  280THF     O1 5068   5.467   3.717   1.184 -0.2460  0.3711  0.2084
  280THF     C2 5069   5.560   3.607   1.213  0.4803  0.3587  0.4008
  280THF     C3 5070   5.330   3.681   1.209  0.5074  0.0789  0.3680
  280THF     H4 5071   5.629   3.636   1.293 -0.1937 -0.0590  1.1490
  280THF     H5 5072   5.625   3.597   1.126  1.5738  1.4201  1.0597
  280THF     H6 5073   5.308   3.740   1.297  2.0283  1.7708 -0.3339
  280THF     H7 5074   5.279   3.725   1.123  2.5827 -1.8434 -2.0162
  280THF     C8 5075   5.330   3.526   1.203  0.5981  0.0553  0.3697
  280THF     C9 5076   5.468   3.490   1.259 -0.7510 -0.2468 -0.1238
  280THF    H10 5077   5.345   3.495   1.099 -0.0936 -1.4335  0.6809
  280THF    H11 5078   5.241   3.478   1.245  0.8462  0.3318  1.2168
  280THF    H12 5079   5.457   3.495   1.367 -1.0895  0.8063 -0.1986
  280THF    H13 5080   5.502   3.392   1.226 -0.7886 -0.6511  0.9880
  281THF     O1 5081   1.807   5.440   3.973  0.2662  0.0047 -0.2726
  281THF     C2 5082   1.730   5.360   3.883 -0.1622  0.0854  0.3535
  281THF     C3 5083   1.937   5.454   3.909 -0.2750  0.5385 -0.3975
  281THF     H4 5084   1.714   5.419   3.793 -2.3352  2.5002  2.1891
  281THF     H5 5085   1.633   5.324   3.917 -0.4331 -0.0218 -0.5002
  281THF     H6 5086   1.943   5.542   3.845 -2.3599  1.4697  0.5808
  281THF     H7 5087   2.008   5.480   3.987  0.4539 -1.0924 -0.4752
  281THF     C8 5088   1.962   5.314   3.852 -0.2088  0.8065 -0.2867
  281THF     C9 5089   1.828   5.245   3.858 -0.0911 -0.3514 -0.1781
  281THF    H10 5090   2.034   5.259   3.913 -0.6755  1.0953  0.5345
  281THF    H11 5091   1.998   5.303   3.750 -2.3419 -2.6835 -0.8583
  281THF    H12 5092   1.804   5.191   3.766 -1.9426  0.3045 -0.1198
  281THF    H13 5093   1.826   5.178   3.944 -1.4653 -0.8234 -0.5450
  282THF     O1 5094   2.944   3.491   3.074  0.2962  0.4974 -0.3312
  282THF     C2 5095   3.067   3.484   2.997 -0.0573  0.2932  0.2424
  282THF     C3 5096   2.889   3.370   3.113 -0.3229  0.3390  0.4296
  282THF     H4 5097   3.145   3.539   3.051  0.1378  1.1060 -0.8273
  282THF     H5 5098   3.055   3.515   2.893  2.0138  0.7411  0.0823
  282THF     H6 5099   2.922   3.356   3.216 -0.1807 -1.9763  0.1091
  282THF     H7 5100   2.780   3.364   3.112 -0.4507  2.1490 -0.7044
  282THF     C8 5101   2.969   3.278   3.025  0.4314  0.1542 -0.1333
  282THF     C9 5102   3.108   3.338   3.008  0.4634  0.5352 -0.2194
  282THF    H10 5103   2.929   3.281   2.924 -1.4694  0.1195  0.5959
  282THF    H11 5104   2.974   3.176   3.064  2.4544  0.7743  1.4273
  282THF    H12 5105   3.180   3.318   3.087  0.9804  0.8497 -0.6011
  282THF    H13 5106   3.148   3.293   2.917 -0.6178 -3.5570  1.1510
  283THF     O1 5107   2.084   3.452   0.186 -0.7269 -0.7819  0.5335
  283THF     C2 5108   2.118   3.363   0.287 -0.1022 -0.0138 -0.0751
  283THF     C3 5109   2.178   3.441   0.084 -0.0962  0.1002 -0.3975
  283THF     H4 5110   2.090   3.263   0.253  2.3492 -1.3740  1.5903
  283THF     H5 5111   2.067   3.392   0.379  0.7799 -1.0097  0.7515
  283THF     H6 5112   2.154   3.354   0.023 -0.5229  0.1531 -0.3033
  283THF     H7 5113   2.188   3.524   0.015  1.0460  0.7180  0.4667
  283THF     C8 5114   2.311   3.395   0.154  0.0174  0.0358 -0.3870
  283THF     C9 5115   2.270   3.366   0.303  0.7310 -0.6052  0.1559
  283THF    H10 5116   2.368   3.488   0.153  0.6567 -0.3286  0.5217
  283THF    H11 5117   2.368   3.314   0.110  0.5814 -1.6605  3.1100
  283THF    H12 5118   2.308   3.271   0.340  0.5198 -0.9673 -0.5426
  283THF    H13 5119   2.304   3.443   0.372 -1.1645 -0.4975  1.0297
  284THF     O1 5120   0.437   1.045   0.918  0.5020  0.0831  1.0243
  284THF     C2 5121   0.476   1.142   1.016  0.8184  0.6200  0.0418
  284THF     C3 5122   0.296   1.044   0.896 -0.3679 -0.4966 -0.1470
  284THF     H4 5123   0.477   1.246   0.982 -1.7732  0.7950  0.3593
  284THF     H5 5124   0.580   1.121   1.042  1.3733  1.9983 -0.9292
  284THF     H6 5125   0.269   1.127   0.829  0.2191  0.9714  1.3650
  284THF     H7 5126   0.251   0.953   0.856  0.2752 -0.2693 -1.4481
  284THF     C8 5127   0.242   1.057   1.040  0.2117  0.5395 -0.2011
  284THF     C9 5128   0.364   1.110   1.118  0.1326 -0.4997  0.0055
  284THF    H10 5129   0.220   0.956   1.075 -0.0654  0.6282 -0.1153
  284THF    H11 5130   0.144   1.104   1.042  0.3823  0.9951 -1.4930
  284THF    H12 5131   0.348   1.189   1.191 -1.0044 -0.2633 -0.4781
  284THF    H13 5132   0.403   1.030   1.182  1.1942 -0.8126 -0.9793
  285THF     O1 5133   2.487   2.362   2.423 -0.3781 -0.0617 -0.6139
  285THF     C2 5134   2.542   2.251   2.362  0.7271  0.3391 -0.3282
  285THF     C3 5135   2.554   2.392   2.542 -0.0809  0.0497  0.1794
  285THF     H4 5136   2.519   2.256   2.256 -0.4034 -1.1450 -0.1855
  285THF     H5 5137   2.498   2.169   2.419  1.3639  0.4118  0.2840
  285THF     H6 5138   2.549   2.500   2.557 -1.6449  0.1091 -0.6206
  285THF     H7 5139   2.508   2.336   2.624 -1.4417 -0.1954 -0.7276
  285THF     C8 5140   2.701   2.341   2.520 -0.6558 -0.5170  0.4930
  285THF     C9 5141   2.689   2.255   2.397 -0.6973 -0.7658  0.2323
  285THF    H10 5142   2.735   2.289   2.610 -1.2848  1.3390  1.8677
  285THF    H11 5143   2.770   2.425   2.512  1.0266 -1.9365 -1.1431
  285THF    H12 5144   2.740   2.302   2.313  0.0509 -0.0832  1.0609
  285THF    H13 5145   2.721   2.152   2.417  1.0609 -0.8555 -2.5166
  286THF     O1 5146   3.005   1.067   0.273 -0.2421 -0.4535  0.2771
  286THF     C2 5147   2.988   1.007   0.401  0.4931  0.3125 -0.5628
  286THF     C3 5148   2.979   1.203   0.292 -0.2373 -0.2115 -0.2424
  286THF     H4 5149   3.066   1.047   0.466 -0.0367 -0.1601  0.3814
  286THF     H5 5150   2.998   0.899   0.389  0.9090  0.0485  1.7191
  286THF     H6 5151   3.055   1.258   0.348 -0.5264  1.4091 -1.3568
  286THF     H7 5152   2.970   1.260   0.199 -1.5574  0.5859  0.3457
  286THF     C8 5153   2.847   1.195   0.371 -0.3756  0.6641  0.2844
  286THF     C9 5154   2.848   1.057   0.437 -0.0338 -0.0983 -0.5778
  286THF    H10 5155   2.766   1.215   0.300  0.3661  0.4609 -0.6495
  286THF    H11 5156   2.849   1.270   0.449 -0.4827  1.7364 -0.7193
  286THF    H12 5157   2.822   1.058   0.543  2.2138 -1.0981  0.0182
  286THF    H13 5158   2.768   1.000   0.389  0.1327 -1.0347  0.2351
  287THF     O1 5159   4.570   2.293   0.653 -0.1963  0.7995  0.3114
  287THF     C2 5160   4.462   2.295   0.559 -0.0369  0.1186 -0.1646
  287THF     C3 5161   4.512   2.291   0.784 -0.4140 -0.2033 -0.5123
  287THF     H4 5162   4.465   2.201   0.504  0.7232 -0.9280  1.5494
  287THF     H5 5163   4.494   2.384   0.505  0.6645 -0.6366 -1.0233
  287THF     H6 5164   4.501   2.188   0.816 -0.4898  0.0264  0.2272
  287THF     H7 5165   4.583   2.337   0.852  0.1429 -0.0519 -1.1924
  287THF     C8 5166   4.373   2.355   0.777  0.4198  0.4966 -0.8309
  287THF     C9 5167   4.332   2.326   0.635 -0.3673 -0.4386  0.9427
  287THF    H10 5168   4.379   2.461   0.798  0.5004  0.1158  1.3829
  287THF    H11 5169   4.308   2.310   0.853  2.4748 -3.3508 -1.0823
  287THF    H12 5170   4.265   2.240   0.634 -0.9009 -0.0770 -1.9782
  287THF    H13 5171   4.276   2.409   0.593 -2.5576 -1.7851  1.0429
  288THF     O1 5172   1.923   0.414   4.921  0.0997  0.2111  0.0040
  288THF     C2 5173   1.835   0.331   4.846  0.1402 -0.0612 -0.6730
  288THF     C3 5174   2.055   0.377   4.894  0.6118 -0.4194 -0.4550
  288THF     H4 5175   1.823   0.350   4.740 -2.4035  0.3088 -0.3896
  288THF     H5 5176   1.737   0.338   4.894  1.4138  2.6272  1.8230
  288THF     H6 5177   2.102   0.412   4.802 -1.2782  1.1112 -0.9109
  288THF     H7 5178   2.119   0.413   4.974  0.6100  0.6029 -0.8989
  288THF     C8 5179   2.039   0.228   4.903  0.1583  0.9077  0.1108
  288THF     C9 5180   1.894   0.200   4.892  0.2710  0.6921  1.0591
  288THF    H10 5181   2.065   0.210   5.007  1.1291  2.1902  0.1152
  288THF    H11 5182   2.108   0.168   4.843 -0.9418 -0.5003  0.2022
  288THF    H12 5183   1.887   0.126   4.812  2.7434 -0.7015  2.0262
  288THF    H13 5184   1.846   0.161   4.982 -0.0420 -2.9397 -0.4959
  289THF     O1 5185   5.379   2.734   5.180  0.0057 -0.4642  0.0312
  289THF     C2 5186   5.425   2.677   5.054  0.0567  0.4080 -0.0967
  289THF     C3 5187   5.279   2.650   5.227  0.3026  0.0769  0.1225
  289THF     H4 5188   5.529   2.705   5.039  0.6344 -1.8843 -0.7523
  289THF     H5 5189   5.365   2.724   4.976 -0.8388 -0.1219  0.2478
  289THF     H6 5190   5.240   2.673   5.326  0.3964 -1.7193  0.6290
  289THF     H7 5191   5.191   2.664   5.164  0.4157  2.3422  0.4160
  289THF     C8 5192   5.342   2.511   5.204  0.2003  0.0951 -0.6127
  289THF     C9 5193   5.408   2.529   5.067 -0.2699 -0.0946 -0.0359
  289THF    H10 5194   5.267   2.432   5.201  0.4970 -0.1860 -0.6721
  289THF    H11 5195   5.416   2.477   5.276 -0.5329 -0.3784 -0.0669
  289THF    H12 5196   5.501   2.473   5.075  0.4408  1.1464  0.7108
  289THF    H13 5197   5.346   2.499   4.983 -0.5117 -0.1726  0.1680
  290THF     O1 5198   4.487   1.123   1.284 -0.8090  0.4718 -0.1480
  290THF     C2 5199   4.621   1.180   1.304 -0.3285  0.3627  0.1014
  290THF     C3 5200   4.474   1.101   1.144  0.0579  0.1732  0.0739
  290THF     H4 5201   4.658   1.147   1.402  0.2788  3.0595  0.8595
  290THF     H5 5202   4.615   1.287   1.324 -0.8971  0.1376  1.2477
  290THF     H6 5203   4.394   1.029   1.125  0.0789  0.7321 -2.6325
  290THF     H7 5204   4.445   1.196   1.101  1.9790  0.8150  0.1008
  290THF     C8 5205   4.612   1.056   1.096  0.7697  0.3819 -0.7599
  290THF     C9 5206   4.706   1.123   1.193 -0.5889  0.1640 -0.0230
  290THF    H10 5207   4.639   1.074   0.992  1.1580  2.4987 -0.3349
  290THF    H11 5208   4.616   0.949   1.116 -2.7840  0.1667 -0.5411
  290THF    H12 5209   4.787   1.058   1.226  1.8185  2.8369 -0.2830
  290THF    H13 5210   4.768   1.192   1.135 -0.2836 -0.4708 -0.4592
  291THF     O1 5211   3.955   1.554   2.444 -0.1620  0.6130  0.0900
  291THF     C2 5212   3.819   1.518   2.422  0.3946 -0.0380  0.3802
  291THF     C3 5213   4.022   1.534   2.322  0.3533 -0.1760 -0.0220
  291THF     H4 5214   3.753   1.583   2.479 -0.0549 -0.7452  0.6697
  291THF     H5 5215   3.772   1.423   2.446 -1.9674  1.2405  1.1685
  291THF     H6 5216   4.112   1.595   2.333 -1.0108  1.4815  3.1171
  291THF     H7 5217   4.039   1.428   2.304  1.0654  0.2248 -1.9131
  291THF     C8 5218   3.922   1.586   2.220  0.1063 -0.1332 -0.1794
  291THF     C9 5219   3.788   1.548   2.278 -0.2179 -0.6151  0.0093
  291THF    H10 5220   3.937   1.540   2.123 -0.5307  0.6489 -0.6593
  291THF    H11 5221   3.931   1.692   2.195  1.2685 -0.9937 -4.0767
  291THF    H12 5222   3.707   1.621   2.276  1.2097  1.0591  0.8427
  291THF    H13 5223   3.763   1.453   2.231 -2.5868 -1.5851  2.9328
  292THF     O1 5224   2.500   0.606   3.024  0.4817  0.1497  0.1685
  292THF     C2 5225   2.607   0.609   3.121  0.8340 -0.5450  0.7025
  292THF     C3 5226   2.379   0.609   3.101  0.1830 -0.2409 -0.8054
  292THF     H4 5227   2.707   0.625   3.081  0.3150 -0.5130 -0.6443
  292THF     H5 5228   2.608   0.506   3.155 -1.3234 -1.3980 -1.4774
  292THF     H6 5229   2.293   0.630   3.038  0.0716  2.7545  0.2066
  292THF     H7 5230   2.368   0.516   3.156  1.6727  0.4521  0.7572
  292THF     C8 5231   2.409   0.718   3.206  0.4555 -0.9883  0.1902
  292THF     C9 5232   2.555   0.707   3.220 -0.5295 -0.0692  0.3210
  292THF    H10 5233   2.357   0.700   3.300 -0.6908  0.9301 -0.0216
  292THF    H11 5234   2.377   0.812   3.160  2.3527 -0.6208 -0.5163
  292THF    H12 5235   2.596   0.807   3.210 -0.9494  0.3341  2.1512
  292THF    H13 5236   2.579   0.683   3.324 -0.4387 -2.0747 -0.1164
  293THF     O1 5237   4.362   0.539   5.375  0.1016 -0.2442 -0.2223
  293THF     C2 5238   4.270   0.438   5.329 -0.2762 -0.3025 -0.5063
  293THF     C3 5239   4.295   0.635   5.465 -0.0097  0.3451  0.4434
  293THF     H4 5240   4.332   0.348   5.326 -1.9759 -1.5440 -3.6473
  293THF     H5 5241   4.245   0.463   5.226  1.3968 -0.4083 -0.9739
  293THF     H6 5242   4.363   0.688   5.533  0.5320 -1.3621  1.2723
  293THF     H7 5243   4.251   0.713   5.402 -3.1936 -1.6619  0.0111
  293THF     C8 5244   4.201   0.536   5.535 -0.7191 -0.0348 -0.5057
  293THF     C9 5245   4.150   0.445   5.425  0.8486 -0.4792  0.1891
  293THF    H10 5246   4.125   0.588   5.593  2.2051  2.5888  1.2697
  293THF    H11 5247   4.267   0.478   5.601  0.0850  2.0340  0.5896
  293THF    H12 5248   4.126   0.346   5.461 -1.1315  0.4978  1.7210
  293THF    H13 5249   4.069   0.485   5.364  0.5478 -0.7562  0.4137
  294THF     O1 5250   3.450   4.052   1.862 -0.3544 -0.2885  0.7931
  294THF     C2 5251   3.529   3.936   1.878  0.5327  0.5010  0.2728
  294THF     C3 5252   3.433   4.108   1.991  0.0378 -0.3390 -0.0480
  294THF     H4 5253   3.634   3.955   1.859  0.6303 -0.9215 -0.7201
  294THF     H5 5254   3.498   3.856   1.812 -2.9758  0.5396  1.6175
  294THF     H6 5255   3.517   4.171   2.019  0.9518  0.2866 -3.6220
  294THF     H7 5256   3.340   4.166   1.993 -0.8829 -1.7910  0.9376
  294THF     C8 5257   3.414   3.988   2.077  0.2533 -0.2903  0.8189
  294THF     C9 5258   3.520   3.892   2.021  0.2494  0.4956 -0.1856
  294THF    H10 5259   3.316   3.944   2.061  0.8464 -0.9943 -1.2971
  294THF    H11 5260   3.422   4.005   2.184  0.1077 -1.9529  1.1322
  294THF    H12 5261   3.618   3.910   2.065  0.4707 -2.1364  0.5188
  294THF    H13 5262   3.494   3.787   2.030 -2.0292  1.0239  0.1771
  295THF     O1 5263   3.734   1.234   4.769 -0.0520 -0.7310 -0.0616
  295THF     C2 5264   3.763   1.201   4.633  0.2211  0.2413  0.0125
  295THF     C3 5265   3.806   1.154   4.856 -0.1161  0.0981 -0.5402
  295THF     H4 5266   3.850   1.257   4.600  0.8599 -0.7333 -0.0061
  295THF     H5 5267   3.674   1.214   4.572 -0.0058  2.0339  0.6915
  295THF     H6 5268   3.870   1.209   4.925  2.0656 -0.3868 -2.0729
  295THF     H7 5269   3.731   1.095   4.910 -1.1355  1.1084 -0.8146
  295THF     C8 5270   3.881   1.062   4.768  0.7051  0.9785  0.1344
  295THF     C9 5271   3.814   1.056   4.638  0.0485  0.3922  0.2379
  295THF    H10 5272   3.897   0.962   4.810 -2.0085 -0.0552 -1.0625
  295THF    H11 5273   3.977   1.106   4.742 -0.0676  1.9190 -1.2109
  295THF    H12 5274   3.874   1.022   4.554  0.6402 -0.7636  1.0986
  295THF    H13 5275   3.733   0.984   4.649  0.5467 -0.5435 -1.7976
  296THF     O1 5276   3.767   0.200   3.141 -0.4594 -0.1219  0.2722
  296THF     C2 5277   3.821   0.140   3.260 -0.4152 -0.4679 -0.1556
  296THF     C3 5278   3.832   0.330   3.141  0.0033 -0.3931 -0.6458
  296THF     H4 5279   3.924   0.107   3.248 -1.0910 -2.7136 -0.1557
  296THF     H5 5280   3.760   0.054   3.286 -1.4715  0.5227  0.8010
  296THF     H6 5281   3.930   0.316   3.095  0.4987  0.2457  0.1956
  296THF     H7 5282   3.782   0.395   3.070  2.7186 -0.9180 -3.2742
  296THF     C8 5283   3.830   0.379   3.288 -0.5887  0.3953  0.0654
  296THF     C9 5284   3.816   0.246   3.361  0.2101  0.0181 -0.5336
  296THF    H10 5285   3.745   0.445   3.303 -0.6069  0.3473  0.1761
  296THF    H11 5286   3.928   0.426   3.301  0.1724 -0.9112 -0.7739
  296THF    H12 5287   3.876   0.230   3.450  1.7593 -0.6574 -1.6669
  296THF    H13 5288   3.721   0.256   3.415  1.1066 -0.9474  1.3324
  297THF     O1 5289   3.615   3.886   4.774 -0.7507 -0.0703  0.4061
  297THF     C2 5290   3.661   4.018   4.799 -0.0385 -0.4878  0.5375
  297THF     C3 5291   3.512   3.899   4.678 -0.2639 -0.1952  0.0276
  297THF     H4 5292   3.739   4.025   4.724 -0.9776  1.6781 -0.3324
  297THF     H5 5293   3.710   4.026   4.895 -0.8236  0.0264  0.9069
  297THF     H6 5294   3.558   3.891   4.579  0.4661 -0.1059  0.3584
  297THF     H7 5295   3.443   3.815   4.681  0.6454 -0.9206  1.1617
  297THF     C8 5296   3.431   4.033   4.709 -0.4582 -0.9219 -0.0323
  297THF     C9 5297   3.542   4.113   4.775 -0.0114 -0.5628 -0.1896
  297THF    H10 5298   3.348   4.015   4.778 -0.0218 -0.0252  0.7427
  297THF    H11 5299   3.386   4.085   4.625 -1.7039 -0.2868  0.9923
  297THF    H12 5300   3.572   4.213   4.742 -0.6272 -0.1911  0.3475
  297THF    H13 5301   3.501   4.138   4.873  1.1947  2.0629 -0.2573
  298THF     O1 5302   1.775   4.118   1.793 -0.0142  0.2163 -0.0807
  298THF     C2 5303   1.842   4.081   1.667  0.3411 -0.3057 -0.4597
  298THF     C3 5304   1.793   4.253   1.805 -0.3888 -0.0900  0.3134
  298THF     H4 5305   1.783   4.122   1.584  0.1408 -0.7392 -0.5364
  298THF     H5 5306   1.851   3.973   1.650 -0.5875 -0.7228  1.4497
  298THF     H6 5307   1.718   4.295   1.736  1.6457 -1.0191 -2.6522
  298THF     H7 5308   1.786   4.294   1.905 -0.3654  3.9459 -1.1371
  298THF     C8 5309   1.936   4.272   1.757  0.2436  0.1571  1.2651
  298THF     C9 5310   1.977   4.148   1.673 -0.1585  0.7332  0.4574
  298THF    H10 5311   2.005   4.294   1.839 -0.4249 -3.3147  2.9280
  298THF    H11 5312   1.948   4.361   1.695  0.3702  2.1835  3.9898
  298THF    H12 5313   1.996   4.173   1.569 -2.3081 -0.7856 -0.3553
  298THF    H13 5314   2.059   4.096   1.723  0.4903  0.6637 -0.6552
  299THF     O1 5315   0.450   2.917   2.086  0.1068 -0.2503  0.6394
  299THF     C2 5316   0.386   2.878   2.196 -0.2495 -0.0261 -1.1753
  299THF     C3 5317   0.401   3.046   2.056 -0.1064 -0.1264  0.1770
  299THF     H4 5318   0.425   2.782   2.230  0.3691 -0.0544 -1.9447
  299THF     H5 5319   0.279   2.866   2.179 -0.7666 -0.9481  2.0856
  299THF     H6 5320   0.469   3.099   1.990 -0.0467  0.0308  0.3631
  299THF     H7 5321   0.307   3.038   2.001 -0.5969  0.2713  0.9326
  299THF     C8 5322   0.381   3.113   2.192  0.6725 -0.7492  0.2566
  299THF     C9 5323   0.403   2.995   2.295  0.0210  0.0184  0.3379
  299THF    H10 5324   0.282   3.154   2.213 -0.0102 -2.9622  1.6159
  299THF    H11 5325   0.441   3.198   2.224 -0.9184  0.7316 -0.5455
  299THF    H12 5326   0.502   3.005   2.341  0.2361 -1.6981  0.3010
  299THF    H13 5327   0.320   2.986   2.365 -2.7792 -1.0797 -2.8668
  300THF     O1 5328   2.329   3.364   4.747  0.5647 -0.7402 -0.0785
  300THF     C2 5329   2.380   3.231   4.740  0.0695 -0.0725 -0.6635
  300THF     C3 5330   2.196   3.355   4.801 -0.4560  0.6799 -0.4124
  300THF     H4 5331   2.488   3.229   4.746  0.0128  1.0345  1.1668
  300THF     H5 5332   2.350   3.174   4.651  1.7709 -0.8909 -0.7452
  300THF     H6 5333   2.179   3.422   4.886  2.1380 -0.4623  1.1170
  300THF     H7 5334   2.121   3.400   4.735  1.7264  2.1888 -1.9892
  300THF     C8 5335   2.176   3.209   4.848  0.0859  0.1593 -0.0219
  300THF     C9 5336   2.320   3.151   4.853  1.0345 -0.0262 -0.9717
  300THF    H10 5337   2.117   3.148   4.779  0.8069  0.5172 -0.9811
  300THF    H11 5338   2.124   3.197   4.943  1.3143  1.9922  0.9358
  300THF    H12 5339   2.369   3.176   4.948  0.1743  1.1208 -0.8179
  300THF    H13 5340   2.319   3.042   4.853  0.8431 -0.0261 -1.5233
  301THF     O1 5341   0.238   4.439   4.491  1.1840 -0.3310 -0.2084
  301THF     C2 5342   0.098   4.462   4.469  0.4744 -0.4835  0.2245
  301THF     C3 5343   0.244   4.311   4.546 -0.2929 -0.1317  0.2235
  301THF     H4 5344   0.074   4.541   4.397 -0.6478 -1.7245 -0.8013
  301THF     H5 5345   0.053   4.494   4.563  0.6118  1.7636 -0.4130
  301THF     H6 5346   0.341   4.267   4.524 -0.0631  0.4400  0.0577
  301THF     H7 5347   0.237   4.311   4.655 -0.8402 -2.0029  0.2289
  301THF     C8 5348   0.119   4.235   4.497  0.2333  0.3707 -0.1156
  301THF     C9 5349   0.036   4.327   4.418  0.0529  0.1417  0.2724
  301THF    H10 5350   0.062   4.211   4.587 -0.5668  1.2503 -0.3660
  301THF    H11 5351   0.148   4.143   4.447 -0.7345 -0.4185  0.7220
  301THF    H12 5352   0.046   4.317   4.310 -3.8076  0.9428 -0.2895
  301THF    H13 5353  -0.072   4.317   4.431 -0.1526 -1.1601 -1.8964
  302THF     O1 5354   3.383   2.798   3.571  0.6250 -0.0276 -0.2396
  302THF     C2 5355   3.340   2.712   3.678 -0.0899  0.7776 -0.1445
  302THF     C3 5356   3.314   2.757   3.452 -0.0426  0.6493 -0.3809
  302THF     H4 5357   3.295   2.770   3.758  0.6519 -1.0601  1.7012
  302THF     H5 5358   3.424   2.656   3.720  0.6219  0.9394 -1.2894
  302THF     H6 5359   3.216   2.803   3.446  0.4976  1.7642 -1.0377
  302THF     H7 5360   3.372   2.783   3.363  0.9130 -1.7932 -0.5491
  302THF     C8 5361   3.290   2.608   3.462  0.1105 -0.2239  0.0337
  302THF     C9 5362   3.243   2.608   3.612 -0.0257 -0.6330  0.4595
  302THF    H10 5363   3.382   2.552   3.442  0.2279  0.5302 -1.6933
  302THF    H11 5364   3.214   2.576   3.391  0.8890 -1.5334 -0.2484
  302THF    H12 5365   3.141   2.642   3.631  0.5927  0.3906  2.1147
  302THF    H13 5366   3.254   2.512   3.663  0.6920 -1.5252 -1.2509
  303THF     O1 5367   4.396   0.173   4.114 -0.1355  0.5041 -0.1936
  303THF     C2 5368   4.379   0.060   4.203  0.1961  0.4620 -0.3582
  303THF     C3 5369   4.322   0.145   3.995 -0.2417 -0.1106  0.1421
  303THF     H4 5370   4.381   0.083   4.310  0.0745 -1.7601  0.1746
  303THF     H5 5371   4.456  -0.018   4.199 -1.4333 -1.3316  0.8001
  303THF     H6 5372   4.230   0.204   3.991 -0.1654 -0.0803 -1.7842
  303THF     H7 5373   4.373   0.168   3.902 -2.2748  1.3512 -0.6832
  303THF     C8 5374   4.298  -0.001   3.996 -0.4347 -0.1040 -0.0624
  303THF     C9 5375   4.261  -0.010   4.142 -0.3072 -0.3355 -0.1863
  303THF    H10 5376   4.391  -0.051   3.969 -1.0262 -0.2939 -1.8613
  303THF    H11 5377   4.227  -0.037   3.921  0.6778  2.7412 -2.6660
  303THF    H12 5378   4.167   0.040   4.165  1.1470  1.5799  2.2234
  303THF    H13 5379   4.254  -0.111   4.181 -2.2463 -0.3593 -0.4821
  304THF     O1 5380   4.552   0.540   5.013 -0.7793 -0.3725  0.1008
  304THF     C2 5381   4.662   0.570   4.916 -0.1087  0.1013 -0.1298
  304THF     C3 5382   4.485   0.424   4.969 -0.5995 -0.9242 -0.0056
  304THF     H4 5383   4.745   0.629   4.955  0.3826 -1.1019  0.7157
  304THF     H5 5384   4.617   0.617   4.829  0.5551 -1.1609 -1.1933
  304THF     H6 5385   4.431   0.381   5.053 -1.1327  1.6675  1.0508
  304THF     H7 5386   4.417   0.452   4.889  0.6630 -0.5676 -0.9790
  304THF     C8 5387   4.605   0.335   4.939  0.3172  0.7567  0.3883
  304THF     C9 5388   4.707   0.426   4.870  0.8464 -0.5684 -0.0904
  304THF    H10 5389   4.583   0.246   4.880  0.3380 -0.4496  2.1249
  304THF    H11 5390   4.649   0.306   5.034 -0.2534 -1.7861 -0.0429
  304THF    H12 5391   4.809   0.408   4.903  0.1196 -0.4423  2.4187
  304THF    H13 5392   4.692   0.418   4.763  1.3880 -0.9000 -0.1462
  305THF     O1 5393   1.747   4.647   0.183 -0.5775  0.4965 -1.2015
  305THF     C2 5394   1.832   4.699   0.282  0.1690  0.0133 -0.1628
  305THF     C3 5395   1.674   4.534   0.241  0.2434 -0.0428 -0.8017
  305THF     H4 5396   1.874   4.797   0.258  0.0819  0.1145  0.0998
  305THF     H5 5397   1.914   4.627   0.282  0.8542  0.6759 -2.5622
  305THF     H6 5398   1.587   4.508   0.182  0.6520  0.2083 -1.5235
  305THF     H7 5399   1.736   4.445   0.255 -0.0645 -0.3450 -1.3312
  305THF     C8 5400   1.643   4.589   0.383 -0.7527 -0.1059 -0.6429
  305THF     C9 5401   1.747   4.701   0.404  0.0817 -0.0473 -0.9761
  305THF    H10 5402   1.650   4.512   0.460  2.1468  0.8198  0.1539
  305THF    H11 5403   1.543   4.633   0.387 -1.0711 -0.8846  0.8008
  305THF    H12 5404   1.695   4.796   0.415 -1.9245 -1.3602  3.6910
  305THF    H13 5405   1.798   4.690   0.500  1.3267  0.2301 -1.5889
  306THF     O1 5406   0.184   0.503   1.785 -0.0266 -0.1210  0.4674
  306THF     C2 5407   0.158   0.586   1.673  0.0772  0.2201 -0.0041
  306THF     C3 5408   0.058   0.485   1.857  0.4584  0.2007  0.6695
  306THF     H4 5409   0.127   0.516   1.596  0.2518 -0.3690  0.4526
  306THF     H5 5410   0.252   0.635   1.649  0.6464 -0.7893  0.1075
  306THF     H6 5411   0.012   0.387   1.845 -1.7639  1.2638 -0.0645
  306THF     H7 5412   0.078   0.505   1.963 -1.1920 -3.1467  1.7454
  306THF     C8 5413  -0.044   0.578   1.792  0.4762  0.5378  0.2316
  306THF     C9 5414   0.044   0.679   1.713  0.5046  0.3880 -0.0050
  306THF    H10 5415  -0.102   0.619   1.876  0.2779 -1.4806  1.1297
  306THF    H11 5416  -0.097   0.513   1.722  0.1323  1.4461 -0.3719
  306THF    H12 5417  -0.002   0.719   1.623  0.5659 -1.8930 -1.1038
  306THF    H13 5418   0.079   0.756   1.783 -0.6939 -0.1039  1.1822
  307THF     O1 5419   2.914   1.140   3.350  0.2735  0.2842 -0.6005
  307THF     C2 5420   2.945   1.235   3.456 -0.3744  0.1173  0.4239
  307THF     C3 5421   2.864   1.024   3.417 -0.1031 -0.7145 -0.0062
  307THF     H4 5422   2.854   1.295   3.466 -0.6530 -0.3142  0.5068
  307THF     H5 5423   3.020   1.308   3.427 -1.4405  1.5800  1.2357
  307THF     H6 5424   2.765   1.059   3.445  0.0346 -0.0027 -0.3825
  307THF     H7 5425   2.867   0.933   3.356  0.7028  0.3026 -1.5500
  307THF     C8 5426   2.955   1.017   3.539 -0.0049 -0.7127 -0.2537
  307THF     C9 5427   2.984   1.160   3.574 -0.4445  0.3320  0.2988
  307THF    H10 5428   3.050   0.978   3.502 -0.1946 -0.5986 -0.8745
  307THF    H11 5429   2.929   0.950   3.620  0.0405  1.3037  1.5255
  307THF    H12 5430   2.925   1.178   3.664  1.0229 -1.3979  1.6901
  307THF    H13 5431   3.089   1.180   3.595 -0.5229  1.2130 -0.0686
  308THF     O1 5432   3.483   2.698   0.991  1.0534  0.0247 -0.5489
  308THF     C2 5433   3.598   2.758   0.940  0.0883  0.1423  0.1117
  308THF     C3 5434   3.440   2.770   1.105  0.7188  0.1578  0.1537
  308THF     H4 5435   3.591   2.744   0.832 -1.7620  0.7717  0.1322
  308THF     H5 5436   3.684   2.713   0.989 -0.6106 -0.3243  0.9264
  308THF     H6 5437   3.343   2.738   1.143  1.3512 -1.4711  0.4951
  308THF     H7 5438   3.510   2.738   1.183  1.1109 -1.6496 -0.8962
  308THF     C8 5439   3.463   2.915   1.052 -0.6864  0.6271 -1.1786
  308THF     C9 5440   3.585   2.903   0.962  0.0879  0.0565  0.0078
  308THF    H10 5441   3.475   2.983   1.136  0.9870 -0.5561 -0.4039
  308THF    H11 5442   3.378   2.945   0.991  0.9253  1.3862 -3.1987
  308THF    H12 5443   3.569   2.957   0.869 -0.4672 -2.0700 -1.1948
  308THF    H13 5444   3.668   2.955   1.011 -0.6869  0.7231  0.6533
  309THF     O1 5445   0.845   5.026   1.749 -0.5176 -0.0542  0.2236
  309THF     C2 5446   0.926   5.026   1.864 -0.6494  0.4805 -0.4315
  309THF     C3 5447   0.901   4.938   1.648 -0.1408  0.0226 -0.0233
  309THF     H4 5448   0.871   5.075   1.945 -2.0818 -2.3363  0.4590
  309THF     H5 5449   1.018   5.079   1.841 -1.1526  0.9470 -1.4118
  309THF     H6 5450   0.824   4.919   1.573 -0.9105  1.4432  0.3773
  309THF     H7 5451   0.991   4.975   1.598  0.1176 -0.3512  0.1591
  309THF     C8 5452   0.927   4.814   1.733 -0.5238 -0.0134 -0.3782
  309THF     C9 5453   0.929   4.870   1.878 -0.5897  0.2682 -0.3467
  309THF    H10 5454   1.025   4.774   1.706 -0.6012  0.3961 -1.2608
  309THF    H11 5455   0.848   4.741   1.718 -1.9117  0.8397  2.0817
  309THF    H12 5456   0.830   4.835   1.908  0.0778 -0.2061  1.4315
  309THF    H13 5457   1.010   4.833   1.941  0.0110  0.3798 -1.0376
  310THF     O1 5458   2.555   1.722   4.764 -0.3821  0.1038  0.1625
  310THF     C2 5459   2.670   1.765   4.828  0.5847 -0.1475 -0.1866
  310THF     C3 5460   2.541   1.798   4.639 -0.0306 -0.1407  0.0535
  310THF     H4 5461   2.712   1.687   4.892  1.6586  0.0129 -0.6714
  310THF     H5 5462   2.640   1.853   4.886 -0.0409 -0.2117 -0.4105
  310THF     H6 5463   2.458   1.755   4.583  0.3667 -1.9757  0.7947
  310THF     H7 5464   2.521   1.901   4.669  0.3321  0.2161 -0.8923
  310THF     C8 5465   2.688   1.785   4.589  1.1942  0.1597  0.0932
  310THF     C9 5466   2.765   1.814   4.713 -0.1887 -0.5353 -0.9720
  310THF    H10 5467   2.699   1.851   4.502 -0.4897 -0.8209 -0.9327
  310THF    H11 5468   2.694   1.683   4.550  0.6723  0.9873 -2.3501
  310THF    H12 5469   2.856   1.755   4.708 -0.4416 -1.1731  0.9555
  310THF    H13 5470   2.782   1.921   4.727 -0.5682 -0.3242 -2.0677
  311THF     O1 5471   0.898   3.993   0.668  0.1179 -0.2773 -0.1799
  311THF     C2 5472   0.927   3.948   0.802 -0.2817 -0.2705  0.0342
  311THF     C3 5473   0.999   3.944   0.591  0.0786  0.5208  0.5151
  311THF     H4 5474   0.908   3.842   0.819  0.5629 -0.3427  0.6035
  311THF     H5 5475   0.869   4.013   0.869  0.1179 -0.0162  0.1424
  311THF     H6 5476   0.969   3.843   0.563  0.0347  0.2638  1.4802
  311THF     H7 5477   1.006   3.999   0.497  0.6656 -2.2549 -1.1753
  311THF     C8 5478   1.122   3.949   0.671 -0.8154 -0.1022  0.5038
  311THF     C9 5479   1.076   3.969   0.809 -0.4482 -0.7282 -0.8783
  311THF    H10 5480   1.183   4.035   0.643 -1.6068  0.5033  0.6081
  311THF    H11 5481   1.186   3.862   0.652 -1.1647 -0.0476 -1.0059
  311THF    H12 5482   1.120   3.906   0.886  1.5025  1.4160 -0.0910
  311THF    H13 5483   1.100   4.073   0.833  0.7644 -0.7092 -2.0701
  312THF     O1 5484   4.963   0.199   3.147  0.2434  0.0355  0.2084
  312THF     C2 5485   4.948   0.225   3.008 -0.4858  0.0827 -0.4551
  312THF     C3 5486   5.079   0.270   3.186 -0.7306  0.3606 -0.6215
  312THF     H4 5487   4.894   0.318   2.996 -1.0471 -0.4305 -2.1347
  312THF     H5 5488   4.900   0.141   2.957 -0.9378  0.1515 -0.1476
  312THF     H6 5489   5.050   0.375   3.195  3.6311  1.7894 -0.6035
  312THF     H7 5490   5.118   0.230   3.280  0.4296 -0.1760 -1.3027
  312THF     C8 5491   5.183   0.253   3.068 -0.1896 -0.4917 -0.4930
  312THF     C9 5492   5.092   0.229   2.948 -0.0398  0.1437  0.6018
  312THF    H10 5493   5.237   0.161   3.091  0.4724  0.2686  1.0918
  312THF    H11 5494   5.241   0.345   3.063  1.6300 -1.5597 -0.1866
  312THF    H12 5495   5.088   0.311   2.876 -0.2785 -0.5889 -0.2234
  312THF    H13 5496   5.123   0.142   2.890  2.7374  2.0803 -1.0725
  313THF     O1 5497   3.336   0.261   2.991 -0.0384  0.7992  0.1383
  313THF     C2 5498   3.381   0.277   3.125 -0.3410  0.2923 -0.2563
  313THF     C3 5499   3.354   0.385   2.920  0.3485  0.3856  0.3853
  313THF     H4 5500   3.487   0.254   3.135 -0.8416 -1.2853  2.3732
  313THF     H5 5501   3.326   0.210   3.191 -0.3885  0.8129  0.2456
  313THF     H6 5502   3.457   0.401   2.887 -0.1498  1.9367 -0.5308
  313THF     H7 5503   3.287   0.397   2.835 -1.6768 -0.2471  1.8078
  313THF     C8 5504   3.311   0.482   3.023 -0.1123 -0.3052  0.0457
  313THF     C9 5505   3.357   0.429   3.156  0.5935 -0.2608  0.1665
  313THF    H10 5506   3.203   0.500   3.026  0.1269  1.4595  3.4908
  313THF    H11 5507   3.340   0.586   3.005 -0.7392  0.4928  3.0687
  313THF    H12 5508   3.441   0.481   3.202  0.1445  1.0314 -0.4338
  313THF    H13 5509   3.274   0.445   3.225  1.3074 -0.1920  1.0291
  314THF     O1 5510   1.811   1.357   3.314  0.1226 -0.5409 -0.2987
  314THF     C2 5511   1.919   1.274   3.354  0.0145 -0.0146  1.2047
  314THF     C3 5512   1.712   1.275   3.252  0.1874 -0.5998  0.6574
  314THF     H4 5513   1.985   1.328   3.420  0.7309 -0.5923  0.9720
  314THF     H5 5514   1.971   1.250   3.261 -3.0953 -0.0216 -0.7011
  314THF     H6 5515   1.610   1.313   3.255  0.4124 -0.0385  2.2911
  314THF     H7 5516   1.744   1.243   3.153  0.1870 -0.7349  0.7010
  314THF     C8 5517   1.721   1.141   3.343 -0.2971 -0.4974  0.3450
  314THF     C9 5518   1.856   1.149   3.410  0.3166  1.1197 -0.2800
  314THF    H10 5519   1.721   1.057   3.274  0.7052 -1.0200  0.9558
  314THF    H11 5520   1.644   1.124   3.418 -1.5512  1.4644 -0.4230
  314THF    H12 5521   1.850   1.157   3.519  2.5476  0.1747 -0.0427
  314THF    H13 5522   1.914   1.058   3.396  0.3753  0.9402  0.9738
  315THF     O1 5523   1.822   4.802   5.465  0.2398 -0.0985  0.1595
  315THF     C2 5524   1.943   4.870   5.433 -0.1686 -0.4214 -0.7182
  315THF     C3 5525   1.708   4.892   5.468  1.3030 -0.0581  0.5842
  315THF     H4 5526   1.955   4.887   5.326 -1.5072  0.9615 -0.6823
  315THF     H5 5527   2.024   4.807   5.469 -1.9344 -2.0888  0.5369
  315THF     H6 5528   1.673   4.917   5.368 -0.9646 -1.8385  0.8550
  315THF     H7 5529   1.618   4.856   5.518  1.6294  2.2775  3.0942
  315THF     C8 5530   1.775   5.005   5.553  0.3346  0.4408  0.6051
  315THF     C9 5531   1.928   4.995   5.527  0.8735  0.2727 -0.4263
  315THF    H10 5532   1.753   4.986   5.658  1.3801  0.9922  0.9427
  315THF    H11 5533   1.723   5.100   5.538 -1.0415 -0.3933 -0.0250
  315THF    H12 5534   1.980   5.085   5.494  1.5348 -0.4487 -1.4358
  315THF    H13 5535   1.981   4.977   5.620  1.5097 -1.9160 -1.1621
  316THF     O1 5536   3.858   0.723   5.490 -0.4460 -0.2280 -0.2775
  316THF     C2 5537   3.814   0.669   5.617 -0.2362  0.4392  0.1971
  316THF     C3 5538   3.934   0.841   5.510  0.3910 -0.3171  0.5323
  316THF     H4 5539   3.861   0.575   5.648 -2.5301 -0.5172  1.0344
  316THF     H5 5540   3.709   0.645   5.630  0.1203 -0.7125  1.1908
  316THF     H6 5541   4.016   0.859   5.440 -0.0902  0.4125  0.1480
  316THF     H7 5542   3.862   0.922   5.499  1.0903  0.5449  2.0561
  316THF     C8 5543   3.982   0.836   5.650  0.5368  0.7592 -0.0952
  316THF     C9 5544   3.857   0.774   5.719 -0.1139  0.0383  0.6776
  316THF    H10 5545   3.997   0.934   5.696 -0.1255  0.6479  0.3685
  316THF    H11 5546   4.071   0.775   5.667 -0.1923 -0.7439 -1.4390
  316THF    H12 5547   3.887   0.733   5.816  2.0696  0.5375  0.2616
  316THF    H13 5548   3.781   0.850   5.731 -0.9784 -0.9627  1.8751
  317THF     O1 5549   1.692   1.913   4.585  0.0963  0.2880  0.3941
  317THF     C2 5550   1.623   1.797   4.641 -0.0124 -0.2060  0.4766
  317THF     C3 5551   1.795   1.872   4.494 -0.2443 -0.2538 -0.4477
  317THF     H4 5552   1.518   1.826   4.643  0.3512  1.5502 -2.0328
  317THF     H5 5553   1.657   1.778   4.743 -0.6589  0.8739  0.9052
  317THF     H6 5554   1.786   1.930   4.403 -3.3001 -1.0418 -0.7356
  317THF     H7 5555   1.900   1.881   4.524  0.0998  1.6300 -2.0037
  317THF     C8 5556   1.781   1.728   4.468  0.0706  0.5699  0.3093
  317THF     C9 5557   1.662   1.683   4.546  0.3198  0.3498  0.4304
  317THF    H10 5558   1.874   1.674   4.488 -1.4015 -1.6912  1.4456
  317THF    H11 5559   1.762   1.707   4.363  0.5590  0.0139  0.3272
  317THF    H12 5560   1.578   1.665   4.478  0.5716 -0.9198  0.4382
  317THF    H13 5561   1.669   1.587   4.596  1.5010  0.6776  0.9271
  318THF     O1 5562   1.915   0.563   3.081  0.7029  0.0490  0.6122
  318THF     C2 5563   1.921   0.447   3.158 -0.7502 -0.2943 -0.3185
  318THF     C3 5564   1.800   0.644   3.118  0.6206  0.7967  0.4432
  318THF     H4 5565   1.998   0.452   3.235  0.0605 -1.5268 -1.0140
  318THF     H5 5566   1.961   0.358   3.109 -0.8177  0.0234 -0.9613
  318THF     H6 5567   1.829   0.699   3.208  0.8669  1.6345 -0.1379
  318THF     H7 5568   1.791   0.715   3.035  1.0188  1.8374  1.2731
  318THF     C8 5569   1.698   0.539   3.140 -0.3376  0.0016  0.4855
  318THF     C9 5570   1.784   0.437   3.216  0.5001 -0.2715 -0.6337
  318THF    H10 5571   1.651   0.497   3.051  0.8759 -2.4795  0.9296
  318THF    H11 5572   1.621   0.559   3.214  0.7926  2.6933  1.0467
  318THF    H12 5573   1.787   0.477   3.317  0.6970  0.2172 -0.8284
  318THF    H13 5574   1.732   0.342   3.209 -0.3649 -0.1538  2.6420
  319THF     O1 5575   1.365   2.894   5.264  0.0966 -0.5764 -0.7842
  319THF     C2 5576   1.233   2.929   5.213  0.1442  0.3325  0.4055
  319THF     C3 5577   1.400   3.003   5.350  0.1415  0.5077  0.4331
  319THF     H4 5578   1.172   2.846   5.177  1.2858  0.2711 -1.4941
  319THF     H5 5579   1.254   2.987   5.124  1.0924  2.4678  1.9219
  319THF     H6 5580   1.436   2.973   5.448 -0.8779 -0.5936  0.4986
  319THF     H7 5581   1.472   3.063   5.294  0.1325  2.3004  2.2336
  319THF     C8 5582   1.280   3.099   5.372 -0.1314 -0.2050 -0.5151
  319THF     C9 5583   1.170   3.025   5.308  0.3950 -0.3491 -0.4281
  319THF    H10 5584   1.291   3.196   5.325  2.0833 -0.5301 -0.7969
  319THF    H11 5585   1.256   3.112   5.478 -0.5806  1.5574 -0.8072
  319THF    H12 5586   1.117   2.972   5.387  0.9131  0.7356  0.6785
  319THF    H13 5587   1.104   3.094   5.256  0.0969 -0.4975 -0.2522
  320THF     O1 5588   1.430   0.902   0.949 -0.0706  0.2166  0.0151
  320THF     C2 5589   1.327   0.841   1.030  0.6665  0.1456 -0.3585
  320THF     C3 5590   1.391   1.025   0.901  0.0240 -0.5177  0.3378
  320THF     H4 5591   1.366   0.782   1.112  0.5028  1.9220  1.0434
  320THF     H5 5592   1.282   0.764   0.966  0.4843  0.3294 -0.4528
  320THF     H6 5593   1.458   1.097   0.948 -0.0965 -0.1612 -0.0299
  320THF     H7 5594   1.409   1.032   0.794 -0.2300  1.4381  0.3748
  320THF     C8 5595   1.244   1.037   0.945 -0.5386  0.0997  0.4580
  320THF     C9 5596   1.226   0.954   1.066 -0.0387 -0.1403 -0.1902
  320THF    H10 5597   1.182   1.002   0.862 -2.5883  0.2501  1.8596
  320THF    H11 5598   1.214   1.140   0.966  0.1505  0.4547 -0.2713
  320THF    H12 5599   1.258   1.007   1.156 -0.9023  2.2513 -1.1835
  320THF    H13 5600   1.123   0.920   1.077 -0.6925  0.6584 -2.9142
  321THF     O1 5601   0.779   1.844   0.130  0.2165 -0.5375 -0.1675
  321THF     C2 5602   0.765   1.734   0.211  0.4532 -0.5363  0.3800
  321THF     C3 5603   0.656   1.921   0.132 -0.1148 -0.2558  0.3907
  321THF     H4 5604   0.770   1.749   0.319  0.1446 -1.4771  0.5359
  321THF     H5 5605   0.844   1.663   0.187 -0.0997 -0.9261 -0.3356
  321THF     H6 5606   0.642   1.972   0.227  1.5042  1.0205  0.0039
  321THF     H7 5607   0.654   1.989   0.046 -0.1425 -1.3145 -0.4733
  321THF     C8 5608   0.559   1.807   0.105 -0.4379 -0.0819 -0.5724
  321THF     C9 5609   0.629   1.684   0.178  0.5964 -0.4579 -0.2945
  321THF    H10 5610   0.560   1.782  -0.001 -0.0954 -0.3407 -0.5097
  321THF    H11 5611   0.463   1.839   0.146  0.0058  1.3631 -0.6341
  321THF    H12 5612   0.572   1.665   0.269 -0.7840 -0.6779 -1.1788
  321THF    H13 5613   0.630   1.596   0.114 -0.6256  0.2591 -1.3475
  322THF     O1 5614   4.643   4.029   3.687 -0.3728  0.0221  0.3835
  322THF     C2 5615   4.593   4.010   3.820 -0.4058 -0.0526  0.0152
  322THF     C3 5616   4.784   4.012   3.680 -0.3141  0.0451  0.9522
  322THF     H4 5617   4.490   3.976   3.826 -1.0846  2.0526  1.3827
  322THF     H5 5618   4.613   4.104   3.872  1.8132 -2.4553  4.0719
  322THF     H6 5619   4.804   3.992   3.575 -1.6489 -1.3632  0.9188
  322THF     H7 5620   4.841   4.096   3.721  0.9553 -1.4764  2.4343
  322THF     C8 5621   4.789   3.889   3.760 -0.1735  0.2888 -0.2951
  322THF     C9 5622   4.686   3.901   3.866 -0.4283  0.0104  0.4382
  322THF    H10 5623   4.882   3.869   3.814 -1.6041  0.4156  2.3809
  322THF    H11 5624   4.780   3.797   3.702 -0.6279  0.6654 -0.8304
  322THF    H12 5625   4.631   3.809   3.886  1.2880 -1.1312  0.0210
  322THF    H13 5626   4.743   3.925   3.956  1.8371  1.0440 -1.1923
  323THF     O1 5627   0.917   5.414   2.901  0.2608 -0.0627 -0.1643
  323THF     C2 5628   0.886   5.385   3.035  0.2799  0.8314 -0.1703
  323THF     C3 5629   0.807   5.471   2.833  0.7518  0.2876 -0.1733
  323THF     H4 5630   0.973   5.394   3.100  1.3131 -2.1304 -0.9718
  323THF     H5 5631   0.849   5.283   3.048  0.4912  0.7658 -0.0836
  323THF     H6 5632   0.839   5.572   2.808 -0.1571  0.6504  0.0691
  323THF     H7 5633   0.786   5.416   2.741  0.3739 -1.7951  1.0852
  323THF     C8 5634   0.694   5.469   2.935  0.9696 -0.0214  0.6924
  323THF     C9 5635   0.764   5.470   3.065  0.2485  0.2743  0.2242
  323THF    H10 5636   0.634   5.381   2.910  1.2773  0.5832 -2.7185
  323THF    H11 5637   0.640   5.564   2.927 -1.0583 -1.1626 -0.0050
  323THF    H12 5638   0.787   5.573   3.091 -3.4279  1.1676  0.4919
  323THF    H13 5639   0.710   5.428   3.150 -0.0172 -1.6960 -0.8565
  324THF     O1 5640   2.027   1.961   4.246 -0.2029 -0.5917  0.2862
  324THF     C2 5641   2.083   2.059   4.329 -0.0043  0.4556  0.0265
  324THF     C3 5642   2.135   1.879   4.184  0.4957  0.5303 -0.6564
  324THF     H4 5643   2.042   2.042   4.428  1.3627 -4.2390  0.0530
  324THF     H5 5644   2.063   2.158   4.290 -0.3825 -0.3746 -1.9912
  324THF     H6 5645   2.104   1.778   4.157 -2.8258  1.3206 -0.2241
  324THF     H7 5646   2.164   1.935   4.095  1.2391  5.2983  2.2192
  324THF     C8 5647   2.245   1.891   4.292  0.3212  0.4600  0.5046
  324THF     C9 5648   2.236   2.033   4.337 -0.0522 -0.7154 -0.2854
  324THF    H10 5649   2.343   1.866   4.251 -0.7408 -1.4024 -1.0486
  324THF    H11 5650   2.228   1.832   4.382  0.5222  0.2869  0.4296
  324THF    H12 5651   2.280   2.038   4.437  2.2313  0.7025 -1.2700
  324THF    H13 5652   2.289   2.103   4.272  0.0527  1.5932  2.0903
  325THF     O1 5653   4.679   0.666   0.309  0.0046  1.1614  0.0748
  325THF     C2 5654   4.707   0.750   0.199  0.5744 -0.7119 -0.6562
  325THF     C3 5655   4.535   0.675   0.324 -0.4617  0.6987  0.2402
  325THF     H4 5656   4.686   0.698   0.106 -1.2168  2.8446 -2.4819
  325THF     H5 5657   4.811   0.783   0.201 -0.1327  1.7825  2.0287
  325THF     H6 5658   4.477   0.603   0.265 -0.9936  1.3498 -0.0423
  325THF     H7 5659   4.491   0.637   0.417 -1.2896 -1.6345 -0.9934
  325THF     C8 5660   4.495   0.817   0.288 -0.3730  0.4073 -0.0170
  325THF     C9 5661   4.618   0.873   0.211 -0.7239 -0.2296  0.2465
  325THF    H10 5662   4.485   0.873   0.382 -0.3823  0.3067  0.0418
  325THF    H11 5663   4.403   0.815   0.230 -2.1149  0.0109  2.5959
  325THF    H12 5664   4.589   0.901   0.110  2.8016 -3.0684 -1.7975
  325THF    H13 5665   4.663   0.958   0.263 -0.5986 -0.5498  0.6660
  326THF     O1 5666   0.703   5.000   4.175  0.3050 -0.1491 -0.4182
  326THF     C2 5667   0.609   5.092   4.228  0.3456  0.3569 -0.0542
  326THF     C3 5668   0.633   4.929   4.073  0.0235  0.0388  0.2562
  326THF     H4 5669   0.581   5.161   4.148 -1.7926  0.3638  0.6507
  326THF     H5 5670   0.643   5.149   4.314 -1.2932  0.5837  0.4742
  326THF     H6 5671   0.600   4.997   3.994  0.2428  0.3767  0.4541
  326THF     H7 5672   0.685   4.850   4.019  0.3578  0.5145 -0.1238
  326THF     C8 5673   0.508   4.884   4.157 -0.3764 -0.2758  0.0981
  326THF     C9 5674   0.478   5.001   4.250  0.3375 -0.0835 -0.4322
  326THF    H10 5675   0.551   4.804   4.218  0.5712  0.6240  0.6381
  326THF    H11 5676   0.425   4.843   4.100 -3.8682  3.8108  1.6756
  326THF    H12 5677   0.391   5.062   4.226  0.6010  1.7431  2.7115
  326THF    H13 5678   0.462   4.969   4.353  1.0582  3.3640  0.8832
  327THF     O1 5679   1.714   1.089   4.408 -0.1822  0.0889 -0.1765
  327THF     C2 5680   1.749   1.122   4.538  0.1339 -0.2252  0.2017
  327THF     C3 5681   1.800   0.981   4.366  0.8148 -0.0919 -0.0936
  327THF     H4 5682   1.682   1.081   4.614 -0.0229 -1.0772 -0.3815
  327THF     H5 5683   1.749   1.231   4.544  2.4518 -0.2188  0.9431
  327THF     H6 5684   1.755   0.888   4.403  1.8948 -1.8721 -2.9132
  327THF     H7 5685   1.795   0.973   4.258  2.1248 -1.8301 -0.0656
  327THF     C8 5686   1.932   1.011   4.431 -0.1995  0.7740 -0.6123
  327THF     C9 5687   1.897   1.080   4.558 -0.2370  0.0902  0.4897
  327THF    H10 5688   1.983   1.083   4.366  1.8860  1.8718  2.0412
  327THF    H11 5689   1.992   0.922   4.447  0.5941  1.3445 -0.3446
  327THF    H12 5690   1.905   1.016   4.646  2.4096 -0.5605 -0.1521
  327THF    H13 5691   1.960   1.165   4.582  1.4910 -1.6858  2.7007
  328THF     O1 5692   4.758   4.129   4.141 -0.4177  0.4918  0.2067
  328THF     C2 5693   4.822   4.134   4.265 -0.4587  0.3210  0.4460
  328THF     C3 5694   4.620   4.173   4.151  0.0216 -0.1168 -0.1617
  328THF     H4 5695   4.930   4.140   4.258 -0.4876  1.2853  0.7899
  328THF     H5 5696   4.792   4.039   4.309 -0.9199 -0.6514 -1.7810
  328THF     H6 5697   4.606   4.234   4.062  1.5830  0.1089 -0.2868
  328THF     H7 5698   4.551   4.089   4.162  0.6925 -0.8294 -1.2022
  328THF     C8 5699   4.612   4.249   4.285 -1.0431 -0.8061 -0.1827
  328THF     C9 5700   4.757   4.256   4.335 -0.1699  0.2789 -0.4736
  328THF    H10 5701   4.554   4.197   4.361  0.0294 -0.4385  0.9196
  328THF    H11 5702   4.561   4.345   4.283 -1.1165 -0.8158  0.8823
  328THF    H12 5703   4.814   4.344   4.304  0.6412  0.0964  0.4622
  328THF    H13 5704   4.758   4.248   4.444 -2.5057  0.8071 -0.3635
  329THF     O1 5705   4.346   2.380   1.101  0.2787  0.1430  0.2683
  329THF     C2 5706   4.329   2.519   1.082 -0.1831 -0.5245 -0.5348
  329THF     C3 5707   4.463   2.355   1.171  0.1682 -0.7666 -0.0619
  329THF     H4 5708   4.234   2.546   1.036  0.3665  2.1976 -0.2275
  329THF     H5 5709   4.400   2.557   1.009  0.6166 -1.3259 -0.1991
  329THF     H6 5710   4.462   2.262   1.228  1.4291 -0.4407  0.5342
  329THF     H7 5711   4.550   2.341   1.108  1.3550 -1.2222  1.6107
  329THF     C8 5712   4.479   2.482   1.256  0.4015 -0.4416  0.2203
  329THF     C9 5713   4.363   2.571   1.219  0.1563 -0.0131 -1.0059
  329THF    H10 5714   4.558   2.536   1.204  1.9637 -4.0523 -1.4881
  329THF    H11 5715   4.505   2.470   1.361  1.7922  0.7102  0.0388
  329THF    H12 5716   4.281   2.554   1.289  1.1134  0.3726  0.2495
  329THF    H13 5717   4.384   2.679   1.217 -3.1994  0.9503  2.7451
  330THF     O1 5718   0.506   2.204   5.393 -0.1757  0.3712 -0.1371
  330THF     C2 5719   0.601   2.295   5.455  0.3292 -0.1864  0.7984
  330THF     C3 5720   0.464   2.235   5.263  0.6932  0.5619  0.5830
  330THF     H4 5721   0.688   2.254   5.506  0.9365 -0.6480 -0.5589
  330THF     H5 5722   0.552   2.365   5.523  0.1861  0.8196 -0.3244
  330THF     H6 5723   0.425   2.144   5.217 -1.1951  1.2779  0.6584
  330THF     H7 5724   0.385   2.310   5.271 -1.1984 -1.1192 -1.2592
  330THF     C8 5725   0.596   2.287   5.202  0.4907 -0.8995  0.6018
  330THF     C9 5726   0.656   2.361   5.323 -0.0639  0.6789 -0.6018
  330THF    H10 5727   0.587   2.345   5.110  0.6994 -1.3163  0.3160
  330THF    H11 5728   0.657   2.200   5.175  0.9643  0.1426 -1.9939
  330THF    H12 5729   0.765   2.357   5.316  0.1659  0.9444  2.0346
  330THF    H13 5730   0.633   2.467   5.332  1.4803  1.0630 -0.8308
  331THF     O1 5731   1.107   4.660   4.218  0.4351  0.2988 -0.5001
  331THF     C2 5732   1.030   4.590   4.127  0.1765  0.3515 -0.1624
  331THF     C3 5733   1.158   4.764   4.143 -0.6869  0.6666  0.3982
  331THF     H4 5734   0.975   4.515   4.184  2.1459 -2.7953 -2.0474
  331THF     H5 5735   1.095   4.526   4.066 -0.7393 -1.1037  0.3340
  331THF     H6 5736   1.199   4.830   4.219  0.3452 -1.5536  1.8831
  331THF     H7 5737   1.246   4.717   4.099 -0.1134 -1.3455  3.4087
  331THF     C8 5738   1.047   4.813   4.044 -0.3733 -0.3215  0.3965
  331THF     C9 5739   0.948   4.699   4.060  0.0571 -0.3316  0.1547
  331THF    H10 5740   1.093   4.830   3.946  3.2227 -0.6970  1.8763
  331THF    H11 5741   0.992   4.898   4.083 -0.4857 -0.9830  1.7387
  331THF    H12 5742   0.870   4.740   4.125  1.1559  0.5593  0.9614
  331THF    H13 5743   0.899   4.662   3.970  0.0879 -0.5081  0.2095
  332THF     O1 5744   2.254   5.090   4.217 -0.2318 -1.0495 -0.3319
  332THF     C2 5745   2.362   5.142   4.291 -0.1894  0.8367 -0.4330
  332THF     C3 5746   2.171   5.194   4.185 -0.1660 -0.4883 -0.3876
  332THF     H4 5747   2.441   5.178   4.225  0.1268  0.4334 -0.2772
  332THF     H5 5748   2.400   5.056   4.346  0.0334  1.0951 -0.1837
  332THF     H6 5749   2.211   5.246   4.098  1.3031 -3.4515 -1.5912
  332THF     H7 5750   2.074   5.147   4.169  0.7537 -3.0263  1.0568
  332THF     C8 5751   2.173   5.281   4.318 -0.3318 -0.9331 -0.5911
  332THF     C9 5752   2.301   5.241   4.385 -0.3565  0.2026 -0.0768
  332THF    H10 5753   2.090   5.251   4.381 -0.1257 -0.9392 -0.3237
  332THF    H11 5754   2.175   5.389   4.302 -1.0071 -0.9703 -0.9576
  332THF    H12 5755   2.360   5.326   4.421  1.1766 -0.3967 -1.0937
  332THF    H13 5756   2.267   5.182   4.470 -2.0445  0.6185 -0.4235
  333THF     O1 5757   0.868   0.855   1.231 -0.1911  0.1606  0.4296
  333THF     C2 5758   0.738   0.906   1.196  0.0042  0.0221  0.3500
  333THF     C3 5759   0.854   0.742   1.310  0.0293  0.2810 -1.3524
  333THF     H4 5760   0.730   0.970   1.108 -0.5280  3.5018  2.7540
  333THF     H5 5761   0.712   0.967   1.282 -1.5084  0.0602 -0.1112
  333THF     H6 5762   0.908   0.658   1.267  2.1731  1.1436 -0.4656
  333THF     H7 5763   0.882   0.756   1.415 -3.4591 -1.4957 -0.0168
  333THF     C8 5764   0.705   0.701   1.304 -0.2062  0.6369  0.1068
  333THF     C9 5765   0.648   0.783   1.193 -0.3382 -0.4040  0.3148
  333THF    H10 5766   0.659   0.715   1.401  1.0481 -0.8343  0.9761
  333THF    H11 5767   0.700   0.596   1.275  0.9809  0.4381  0.5452
  333THF    H12 5768   0.667   0.743   1.093 -0.8650 -1.1836  0.5158
  333THF    H13 5769   0.540   0.800   1.198 -0.6306 -2.2510  0.7366
  334THF     O1 5770   1.967   2.675   4.394 -0.1762  0.0657 -0.6068
  334THF     C2 5771   2.014   2.634   4.269 -0.6322  0.0072 -0.3460
  334THF     C3 5772   2.019   2.804   4.418  0.2750  0.5257  0.6465
  334THF     H4 5773   1.944   2.558   4.233  1.0735 -1.0036 -1.6291
  334THF     H5 5774   2.109   2.582   4.281 -2.3338 -3.0224  1.1973
  334THF     H6 5775   1.963   2.857   4.495 -2.2332  0.6869 -1.1558
  334THF     H7 5776   2.121   2.806   4.455  0.0822  0.9364  1.1684
  334THF     C8 5777   1.993   2.873   4.281  0.5348 -0.4022  0.3678
  334THF     C9 5778   2.010   2.760   4.184 -0.3221 -0.2061 -0.2894
  334THF    H10 5779   2.072   2.945   4.262  0.2189 -0.4852 -1.3876
  334THF    H11 5780   1.894   2.916   4.266  0.9074  0.4855  0.4201
  334THF    H12 5781   1.920   2.768   4.123 -0.0303  1.6548 -0.5392
  334THF    H13 5782   2.102   2.762   4.127 -0.2098 -1.8264 -0.2057
  335THF     O1 5783   0.984   3.003   2.842 -0.4243 -0.1052 -0.8694
  335THF     C2 5784   0.979   2.997   2.705 -0.2057 -0.3121  0.4481
  335THF     C3 5785   0.873   2.937   2.902 -0.1852 -0.3517  0.0403
  335THF     H4 5786   1.078   3.007   2.660  1.3203 -1.4179  3.2539
  335THF     H5 5787   0.919   3.080   2.670  2.2968  1.4751  0.1475
  335THF     H6 5788   0.889   2.911   3.007 -0.8341  1.5706  0.6536
  335THF     H7 5789   0.789   3.004   2.887  0.9584  0.4043 -4.1765
  335THF     C8 5790   0.861   2.811   2.814 -0.2046  0.3807 -0.2588
  335THF     C9 5791   0.916   2.862   2.679  0.4188 -0.2312  0.4681
  335THF    H10 5792   0.766   2.756   2.814  1.1296 -2.0768 -1.6699
  335THF    H11 5793   0.934   2.743   2.858  0.3579 -0.2875 -2.1433
  335THF    H12 5794   0.998   2.804   2.637  2.7197  1.2127  2.7403
  335THF    H13 5795   0.835   2.869   2.605 -1.1051 -2.4686  1.7866
  336THF     O1 5796   1.711   3.452   4.237 -0.0356  0.0634  0.4645
  336THF     C2 5797   1.733   3.459   4.375  0.5484 -0.0364  0.0025
  336THF     C3 5798   1.748   3.317   4.194 -0.3485  0.3226  0.2362
  336THF     H4 5799   1.642   3.422   4.421  2.3733 -3.7020  1.0582
  336THF     H5 5800   1.752   3.562   4.406  0.9325  0.2244 -1.0564
  336THF     H6 5801   1.666   3.247   4.211 -0.0021 -0.0547  0.3454
  336THF     H7 5802   1.783   3.308   4.091 -1.2763 -1.1398  0.0174
  336THF     C8 5803   1.864   3.279   4.278 -0.6699  0.3429 -0.1778
  336THF     C9 5804   1.854   3.368   4.401  0.2213  0.4962 -0.2804
  336THF    H10 5805   1.962   3.274   4.230  0.6139  0.9008  2.2055
  336THF    H11 5806   1.851   3.176   4.314  0.5979  0.6922  1.4364
  336THF    H12 5807   1.849   3.321   4.499  0.1794  0.7555 -0.1568
  336THF    H13 5808   1.934   3.442   4.402  0.8729 -0.2005  0.2625
  337THF     O1 5809   2.685   0.349   0.242  0.1612 -0.2305  0.4153
  337THF     C2 5810   2.649   0.222   0.207 -0.2256  0.0072  0.4919
  337THF     C3 5811   2.694   0.424   0.121 -0.4228  0.7168  0.1101
  337THF     H4 5812   2.547   0.208   0.172 -0.3354  0.0136  0.8085
  337THF     H5 5813   2.667   0.158   0.292 -0.5023 -0.1774  0.4139
  337THF     H6 5814   2.599   0.456   0.079  0.8643  2.5540 -1.5990
  337THF     H7 5815   2.762   0.510   0.127  1.7345 -0.9943  1.8980
  337THF     C8 5816   2.755   0.329   0.023 -0.3728  0.4220  0.2366
  337THF     C9 5817   2.741   0.196   0.094 -0.1375 -0.0134 -0.7758
  337THF    H10 5818   2.863   0.339   0.039 -0.3580 -0.7753  0.9895
  337THF    H11 5819   2.729   0.343  -0.082 -0.3647  1.6788  0.3820
  337THF    H12 5820   2.708   0.113   0.032  0.3209 -0.4733 -0.4113
  337THF    H13 5821   2.832   0.150   0.132 -0.5104 -1.4879 -1.5860
  338THF     O1 5822   3.138   0.101   1.338  0.1840  0.1144  0.1901
  338THF     C2 5823   3.149  -0.032   1.298 -0.0953  0.2621 -0.2081
  338THF     C3 5824   3.277   0.141   1.339 -0.3241 -0.6664 -0.7311
  338THF     H4 5825   3.051  -0.068   1.267 -0.9037  2.2117 -0.0757
  338THF     H5 5826   3.184  -0.094   1.380  1.7233 -0.0241 -1.1379
  338THF     H6 5827   3.277   0.250   1.338 -2.4213 -0.6316 -1.9569
  338THF     H7 5828   3.327   0.105   1.429 -0.2576 -1.1454 -0.9581
  338THF     C8 5829   3.324   0.092   1.203 -0.5804  0.2173 -0.0896
  338THF     C9 5830   3.250  -0.039   1.181 -0.3410 -0.2697  0.6003
  338THF    H10 5831   3.433   0.090   1.207 -0.4156 -0.3914 -2.6776
  338THF    H11 5832   3.302   0.156   1.118 -0.0027 -0.9060 -1.1257
  338THF    H12 5833   3.196  -0.036   1.086 -0.1373  0.4862  0.5001
  338THF    H13 5834   3.315  -0.125   1.192  0.5732  0.1650 -1.0124
  339THF     O1 5835   4.394   4.685   5.206  0.3715 -0.1086  0.5616
  339THF     C2 5836   4.260   4.651   5.244 -0.0627  0.2995  0.8359
  339THF     C3 5837   4.478   4.576   5.184  0.0080  0.1698  0.5674
  339THF     H4 5838   4.191   4.733   5.221 -1.3195 -1.1768 -0.9437
  339THF     H5 5839   4.235   4.622   5.346 -2.4387 -0.1842  0.1858
  339THF     H6 5840   4.538   4.589   5.094 -1.2691 -1.0558 -0.5201
  339THF     H7 5841   4.548   4.553   5.264  2.2166  0.9274 -1.0495
  339THF     C8 5842   4.381   4.465   5.153  0.8149 -0.2419  0.1720
  339THF     C9 5843   4.248   4.533   5.153  0.4627  0.3527 -0.3887
  339THF    H10 5844   4.382   4.379   5.220 -1.8300 -1.6374 -1.3949
  339THF    H11 5845   4.393   4.418   5.056  1.1065  0.2551 -0.0363
  339THF    H12 5846   4.229   4.570   5.052 -1.7104  0.8457  0.1448
  339THF    H13 5847   4.166   4.463   5.173 -0.0509  1.2713  0.9065
  340THF     O1 5848   2.961   3.789   2.090  0.1614  0.4538 -0.4072
  340THF     C2 5849   2.953   3.746   2.233 -0.0875  0.3495  0.5834
  340THF     C3 5850   2.838   3.778   2.029 -0.8930  0.3908  0.3664
  340THF     H4 5851   3.027   3.793   2.297 -0.0032  1.2804 -0.1853
  340THF     H5 5852   2.958   3.637   2.239 -2.1273  0.0718 -1.2091
  340THF     H6 5853   2.836   3.827   1.931  0.2450  0.2520  0.2692
  340THF     H7 5854   2.826   3.672   2.006  1.0474  0.0363  0.8400
  340THF     C8 5855   2.740   3.821   2.129  0.1911 -0.6083 -0.8059
  340THF     C9 5856   2.809   3.792   2.263  0.5752 -0.6659  0.2745
  340THF    H10 5857   2.641   3.774   2.125 -0.0276 -0.5454  2.1310
  340THF    H11 5858   2.722   3.928   2.115  0.2330 -0.5563 -0.4772
  340THF    H12 5859   2.812   3.881   2.326 -0.2639 -1.1318  0.9896
  340THF    H13 5860   2.759   3.711   2.316 -0.9378 -1.1801 -1.8425
  341THF     O1 5861   1.121   5.203   2.601  0.0896 -0.8457  0.2518
  341THF     C2 5862   1.058   5.148   2.715  1.0493 -0.1949 -0.4055
  341THF     C3 5863   1.257   5.160   2.586 -0.4584  0.2785 -0.2585
  341THF     H4 5864   1.006   5.060   2.677  1.2497  0.0936 -1.3927
  341THF     H5 5865   0.979   5.215   2.747  0.5914 -0.7004 -0.4647
  341THF     H6 5866   1.254   5.064   2.533  1.6564 -0.2905  0.5698
  341THF     H7 5867   1.313   5.236   2.532 -0.8231  0.5795 -0.2190
  341THF     C8 5868   1.302   5.147   2.729  0.2088  0.3404 -0.5856
  341THF     C9 5869   1.175   5.104   2.804 -0.1601  0.4394 -0.1260
  341THF    H10 5870   1.334   5.247   2.757  0.5425 -0.4974  2.4099
  341THF    H11 5871   1.391   5.090   2.756  0.1296  0.9614  1.0868
  341THF    H12 5872   1.170   4.998   2.826 -0.6100  0.8787  2.1212
  341THF    H13 5873   1.161   5.147   2.903 -2.5270 -1.5344  0.4851
  342THF     O1 5874   2.262   1.332   4.404 -0.2731 -0.4113  0.3858
  342THF     C2 5875   2.291   1.465   4.450 -0.1107  0.0929 -0.3005
  342THF     C3 5876   2.137   1.339   4.343 -0.3063 -0.3440 -0.2998
  342THF     H4 5877   2.397   1.484   4.436 -0.0149 -0.9967 -1.1702
  342THF     H5 5878   2.280   1.476   4.558 -0.0657  0.7313 -0.3583
  342THF     H6 5879   2.110   1.261   4.273  0.2780 -3.5971  2.8152
  342THF     H7 5880   2.064   1.341   4.424  0.6497 -0.4112  0.5831
  342THF     C8 5881   2.115   1.475   4.287  0.0165 -0.1393 -0.2664
  342THF     C9 5882   2.202   1.564   4.379 -0.0938  0.6525  0.5671
  342THF    H10 5883   2.011   1.510   4.288  0.7441  2.2052 -0.7679
  342THF    H11 5884   2.151   1.479   4.184  0.4271 -1.0947 -0.1723
  342THF    H12 5885   2.262   1.641   4.332 -1.2758  1.1165 -0.2361
  342THF    H13 5886   2.143   1.621   4.451 -0.8237 -0.7874  1.1506
  343THF     O1 5887   3.010   3.346   4.307 -0.0779 -0.2946 -0.2368
  343THF     C2 5888   2.996   3.209   4.274 -0.2653 -0.3759  0.1514
  343THF     C3 5889   3.071   3.359   4.432  0.0323  0.1568  0.8227
  343THF     H4 5890   3.072   3.182   4.202  0.2246  0.1741  0.4598
  343THF     H5 5891   2.901   3.187   4.224 -0.1620 -0.2708 -0.0874
  343THF     H6 5892   3.178   3.353   4.418 -0.2769 -0.9614 -1.4414
  343THF     H7 5893   3.042   3.451   4.484 -1.2906  0.3563 -0.2256
  343THF     C8 5894   3.015   3.246   4.512  0.4355 -0.5557  0.8694
  343THF     C9 5895   2.994   3.136   4.411 -0.1108  0.0801 -1.0783
  343THF    H10 5896   2.927   3.272   4.570  0.1708  4.3199 -1.2019
  343THF    H11 5897   3.081   3.222   4.596  1.6447 -0.0294  0.1120
  343THF    H12 5898   3.067   3.055   4.410  1.0341  1.0607 -0.2115
  343THF    H13 5899   2.906   3.075   4.428  1.1880 -2.3037 -2.3353
  344THF     O1 5900   3.286   2.343   0.132  0.3042  0.2270 -0.3290
  344THF     C2 5901   3.323   2.216   0.193  0.0584 -0.1725 -0.2463
  344THF     C3 5902   3.329   2.454   0.208  0.0439  0.3755  0.2112
  344THF     H4 5903   3.310   2.129   0.129 -0.7384 -1.1690  1.2014
  344THF     H5 5904   3.241   2.209   0.265 -0.0046  2.5009  0.0426
  344THF     H6 5905   3.377   2.524   0.141  1.9463  1.1584  2.2881
  344THF     H7 5906   3.242   2.496   0.259  2.1529  1.6894  2.9863
  344THF     C8 5907   3.423   2.404   0.316 -0.2164  0.5839 -0.0032
  344THF     C9 5908   3.454   2.264   0.264  0.8078  0.1329  0.2633
  344THF    H10 5909   3.372   2.397   0.412  1.7423  0.9475  1.1020
  344THF    H11 5910   3.518   2.456   0.327  0.2568 -0.5639  1.6951
  344THF    H12 5911   3.531   2.272   0.188  1.7976 -2.1211  0.9401
  344THF    H13 5912   3.482   2.197   0.345 -1.2774 -0.2210  0.7434
  345THF     O1 5913   3.775   3.767   4.497 -0.5609  0.2508 -0.2633
  345THF     C2 5914   3.877   3.843   4.439 -0.7141  0.1361  0.5181
  345THF     C3 5915   3.696   3.704   4.401  0.5576  0.0035 -0.8195
  345THF     H4 5916   3.960   3.777   4.414 -2.5750 -2.0861 -0.2106
  345THF     H5 5917   3.906   3.934   4.492  0.7499  0.5572 -0.9412
  345THF     H6 5918   3.755   3.634   4.343 -0.0364 -0.3127 -1.0515
  345THF     H7 5919   3.610   3.670   4.460  1.3168 -1.2961 -0.4386
  345THF     C8 5920   3.675   3.822   4.318 -0.5520 -0.3882 -0.7647
  345THF     C9 5921   3.811   3.891   4.308 -0.0334  0.2637 -0.1913
  345THF    H10 5922   3.602   3.887   4.365  1.6905  2.0875 -0.4244
  345THF    H11 5923   3.643   3.803   4.215 -2.7512 -0.2922 -0.1437
  345THF    H12 5924   3.873   3.871   4.220 -2.6552 -1.6866 -1.7311
  345THF    H13 5925   3.814   4.000   4.307 -2.1728  0.3673 -1.0316
  346THF     O1 5926   2.470   3.077   2.884 -0.1612 -0.0541  0.4035
  346THF     C2 5927   2.439   3.160   2.767 -0.5742  0.4166  0.4483
  346THF     C3 5928   2.558   3.148   2.978 -0.6039 -1.2846 -0.2159
  346THF     H4 5929   2.331   3.170   2.760 -0.3944  3.7977  0.9558
  346THF     H5 5930   2.470   3.113   2.673 -1.4385  1.3735 -0.3364
  346THF     H6 5931   2.501   3.210   3.047  1.8850  1.5432 -0.5031
  346THF     H7 5932   2.628   3.094   3.041 -1.2798  0.8470  2.5484
  346THF     C8 5933   2.625   3.250   2.885 -0.5564  0.1068 -0.4214
  346THF     C9 5934   2.512   3.290   2.794 -0.0137 -0.6541  0.2714
  346THF    H10 5935   2.705   3.200   2.830  1.2761  1.4095  0.9269
  346THF    H11 5936   2.661   3.331   2.948 -0.9341  1.7144 -2.1807
  346THF    H12 5937   2.448   3.356   2.853  1.5035  0.5629  0.6410
  346THF    H13 5938   2.535   3.333   2.697 -0.6022  0.3870  0.5749
  347THF     O1 5939   4.809   1.857   1.890 -0.3007  0.1941  0.0438
  347THF     C2 5940   4.940   1.809   1.847  0.3623 -0.4613 -0.3615
  347THF     C3 5941   4.764   1.768   1.990  0.5256 -0.3038  0.2993
  347THF     H4 5942   5.015   1.887   1.828  2.6575 -1.7700  2.5536
  347THF     H5 5943   4.931   1.738   1.764  0.0911  1.0068 -1.6399
  347THF     H6 5944   4.753   1.834   2.076  0.3946  0.9511 -0.6489
  347THF     H7 5945   4.669   1.714   1.984 -0.8304  1.9707  0.1637
  347THF     C8 5946   4.872   1.669   2.025  0.2161 -0.2067  0.0056
  347THF     C9 5947   4.993   1.745   1.975 -0.0747 -0.0119  0.3336
  347THF    H10 5948   4.853   1.587   1.955 -1.0224 -0.6142  0.7926
  347THF    H11 5949   4.871   1.642   2.130  0.9045  1.4401  0.4611
  347THF    H12 5950   5.029   1.823   2.042 -1.1334  1.2353 -0.4917
  347THF    H13 5951   5.073   1.674   1.954  0.5613  0.7808  0.0067
  348THF     O1 5952   3.502   1.917   2.794  1.2823  0.2871  0.0178
  348THF     C2 5953   3.540   2.052   2.754 -0.8525  0.2475  0.4388
  348THF     C3 5954   3.370   1.926   2.848  0.3503  0.5111 -0.2204
  348THF     H4 5955   3.614   2.047   2.674 -1.1583 -2.9429  0.2454
  348THF     H5 5956   3.580   2.114   2.834 -0.7394  2.7604 -1.4257
  348THF     H6 5957   3.311   1.834   2.848 -1.5541  1.6654 -2.0827
  348THF     H7 5958   3.372   1.983   2.941 -1.1621  1.2265 -0.6009
  348THF     C8 5959   3.302   2.012   2.739  0.0791 -0.2160  0.3802
  348THF     C9 5960   3.411   2.116   2.688 -0.4423  0.4346  0.3352
  348THF    H10 5961   3.220   2.069   2.783  0.7271  2.0731 -1.1792
  348THF    H11 5962   3.251   1.954   2.661  1.4790  1.8276 -2.1901
  348THF    H12 5963   3.419   2.108   2.579 -1.6535  0.6343  0.2167
  348THF    H13 5964   3.386   2.218   2.719 -0.5053  0.6707 -0.4559
  349THF     O1 5965   2.755   4.604   1.157 -0.5988  0.2719  0.0159
  349THF     C2 5966   2.653   4.520   1.110  0.9440 -0.1207 -0.4368
  349THF     C3 5967   2.740   4.726   1.096  0.0513  0.1389  0.2399
  349THF     H4 5968   2.574   4.551   1.178  1.7572  1.1722 -0.0495
  349THF     H5 5969   2.670   4.413   1.120  0.7502 -0.2004 -0.9294
  349THF     H6 5970   2.661   4.778   1.153  0.6521  1.0425  0.2759
  349THF     H7 5971   2.836   4.776   1.103 -0.0511  0.2494  1.0281
  349THF     C8 5972   2.701   4.693   0.950  0.3935  0.0467  0.2079
  349THF     C9 5973   2.644   4.558   0.963 -0.4017  0.2965  0.5037
  349THF    H10 5974   2.786   4.704   0.883  2.2783  0.0384  2.4667
  349THF    H11 5975   2.624   4.763   0.917  0.2088 -0.9627 -1.5916
  349THF    H12 5976   2.545   4.547   0.918 -0.0250 -0.2228 -0.2269
  349THF    H13 5977   2.721   4.498   0.915 -0.5371  1.2530 -0.9762
  350THF     O1 5978   1.239   4.630   5.064 -0.2799  0.3414  0.2043
  350THF     C2 5979   1.306   4.734   4.990 -0.9129 -0.8651 -0.7646
  350THF     C3 5980   1.099   4.657   5.064  0.1504 -0.0118 -0.1708
  350THF     H4 5981   1.402   4.702   4.950 -0.8514  0.1718 -1.4998
  350THF     H5 5982   1.329   4.820   5.054 -2.1648 -0.5754 -0.6786
  350THF     H6 5983   1.039   4.567   5.049  0.2999  0.0776 -1.4395
  350THF     H7 5984   1.075   4.723   5.147 -0.8042 -0.5892  0.0280
  350THF     C8 5985   1.084   4.755   4.945 -0.7431 -0.3579  0.2548
  350THF     C9 5986   1.219   4.775   4.890  0.3160 -0.1972  0.5427
  350THF    H10 5987   1.050   4.856   4.966 -1.1497 -0.5191  0.3850
  350THF    H11 5988   1.021   4.712   4.866  1.9090 -1.8264 -1.2021
  350THF    H12 5989   1.238   4.716   4.800 -1.3811  0.0894 -0.0239
  350THF    H13 5990   1.239   4.877   4.856  1.2645 -0.9597 -1.3376
  351THF     O1 5991   0.682   4.460   4.460  0.4546 -0.2047 -0.2550
  351THF     C2 5992   0.581   4.552   4.478 -0.0270  0.2115 -0.0903
  351THF     C3 5993   0.773   4.458   4.565  0.0568 -0.4407 -0.1757
  351THF     H4 5994   0.485   4.531   4.432  0.3666 -1.3406 -0.2441
  351THF     H5 5995   0.610   4.648   4.434 -0.4714  1.5490  2.3330
  351THF     H6 5996   0.818   4.360   4.577  1.2076  0.0781 -0.0839
  351THF     H7 5997   0.862   4.521   4.558  1.0996 -2.0031 -1.9339
  351THF     C8 5998   0.699   4.508   4.689 -0.6547  0.3140 -0.1888
  351THF     C9 5999   0.573   4.571   4.629 -0.4919  0.2221  0.3053
  351THF    H10 6000   0.764   4.577   4.744 -0.1451 -0.3648  0.0723
  351THF    H11 6001   0.668   4.428   4.756 -0.9218  0.9517  0.4759
  351THF    H12 6002   0.485   4.518   4.667 -1.1032  0.2917 -0.9603
  351THF    H13 6003   0.566   4.675   4.661 -0.0749 -0.0867  1.4786
  352THF     O1 6004   3.468   4.808   0.924 -0.2966 -0.1374  0.0924
  352THF     C2 6005   3.578   4.824   1.012  0.0842 -0.5585  0.1871
  352THF     C3 6006   3.383   4.905   0.964 -0.0920 -0.0327  0.4690
  352THF     H4 6007   3.667   4.787   0.962  1.0591  2.1641 -0.2354
  352THF     H5 6008   3.570   4.753   1.095 -2.1206 -2.1049 -1.2218
  352THF     H6 6009   3.309   4.909   0.883 -0.1765  0.2122  0.5573
  352THF     H7 6010   3.346   4.893   1.066  2.3992  1.3427  1.6253
  352THF     C8 6011   3.465   5.030   0.967 -0.0349 -0.5785  0.1653
  352THF     C9 6012   3.593   4.974   1.025  0.1564  0.5235 -0.1964
  352THF    H10 6013   3.419   5.102   1.035 -2.2323 -0.0882 -1.6915
  352THF    H11 6014   3.484   5.055   0.862  0.4692 -0.5368  0.2658
  352THF    H12 6015   3.684   5.005   0.973  0.5638 -1.1791 -0.5471
  352THF    H13 6016   3.586   4.995   1.132 -0.8827  1.4865 -0.4368
  353THF     O1 6017   4.198   4.290   4.808  0.0065  0.1364 -0.2119
  353THF     C2 6018   4.221   4.188   4.717 -0.1547 -0.9835 -0.2407
  353THF     C3 6019   4.112   4.382   4.753  0.4066 -0.4367  0.5287
  353THF     H4 6020   4.283   4.108   4.758  0.4887 -0.4008 -0.0724
  353THF     H5 6021   4.266   4.224   4.625  0.2845 -0.6428  0.1071
  353THF     H6 6022   4.056   4.438   4.828 -1.1036  1.4935 -1.9226
  353THF     H7 6023   4.163   4.451   4.686  1.9980 -1.1801  0.9012
  353THF     C8 6024   4.010   4.300   4.673 -0.0166 -0.5634 -0.1972
  353THF     C9 6025   4.071   4.159   4.694 -0.7341  0.0440 -0.0507
  353THF    H10 6026   4.015   4.321   4.566 -0.9416 -1.9620 -0.5377
  353THF    H11 6027   3.906   4.309   4.704 -0.5671 -0.1873 -2.0042
  353THF    H12 6028   4.025   4.116   4.783 -0.3305  1.7705  1.0254
  353THF    H13 6029   4.045   4.106   4.602 -1.7034  0.2267  0.1034
  354THF     O1 6030   0.944   4.461   3.140  0.2952  0.1703 -0.3708
  354THF     C2 6031   0.817   4.518   3.116 -0.6845 -0.5239 -0.0967
  354THF     C3 6032   0.934   4.391   3.261  0.4420 -0.2144 -0.0306
  354THF     H4 6033   0.772   4.439   3.056  1.2700 -1.3293 -0.5704
  354THF     H5 6034   0.832   4.608   3.056  1.4400 -0.5410  0.3317
  354THF     H6 6035   0.940   4.282   3.252 -2.2523 -0.4100 -0.3046
  354THF     H7 6036   1.011   4.447   3.314  0.5875  1.3655 -1.8119
  354THF     C8 6037   0.799   4.418   3.329 -0.6809  0.0361 -0.8581
  354THF     C9 6038   0.761   4.540   3.256  0.0879 -0.2274  0.7275
  354THF    H10 6039   0.805   4.432   3.437 -2.5296 -3.3697 -0.1649
  354THF    H11 6040   0.735   4.330   3.325 -3.3686  1.7292  1.6276
  354THF    H12 6041   0.652   4.543   3.258  0.0414 -0.3887 -0.5391
  354THF    H13 6042   0.810   4.626   3.299 -0.7358  0.7237 -0.1707
  355THF     O1 6043   0.755   2.319   1.029  0.2108  0.0819 -0.6932
  355THF     C2 6044   0.650   2.407   1.054  0.7167 -1.0392 -0.3549
  355THF     C3 6045   0.767   2.281   0.896 -0.0223  0.5328 -0.5292
  355THF     H4 6046   0.671   2.489   1.122  0.5531 -1.9467  0.8111
  355THF     H5 6047   0.568   2.350   1.096 -0.5932 -0.3385 -1.8697
  355THF     H6 6048   0.841   2.348   0.853  2.0817 -2.6913 -2.3318
  355THF     H7 6049   0.796   2.178   0.878  3.2694  0.9485  1.5621
  355THF     C8 6050   0.636   2.330   0.841  0.9928 -0.2092 -0.0397
  355THF     C9 6051   0.606   2.454   0.916 -0.3628 -0.3201 -0.4602
  355THF    H10 6052   0.547   2.269   0.856  1.0047 -0.2608 -0.1746
  355THF    H11 6053   0.644   2.345   0.733  0.2927  1.3983  0.1075
  355THF    H12 6054   0.675   2.534   0.892  0.4778 -0.2162  1.9811
  355THF    H13 6055   0.499   2.474   0.922 -0.6991 -2.1681  0.7925
  356THF     O1 6056   3.834   0.324   0.810  0.5257 -0.0129  0.7980
  356THF     C2 6057   3.926   0.400   0.890 -0.5596 -0.5092  0.3577
  356THF     C3 6058   3.704   0.369   0.848  0.2041 -0.7843 -0.4217
  356THF     H4 6059   4.029   0.403   0.855 -0.2862 -0.5682  1.1489
  356THF     H5 6060   3.916   0.381   0.997 -0.6318  2.1412  0.8895
  356THF     H6 6061   3.626   0.327   0.784  1.3251 -2.1349 -0.9374
  356THF     H7 6062   3.676   0.351   0.952 -1.3527 -2.1855 -1.0187
  356THF     C8 6063   3.718   0.517   0.857  0.0993  0.3776 -0.5515
  356THF     C9 6064   3.867   0.540   0.874  0.1307  0.4211  0.3279
  356THF    H10 6065   3.647   0.550   0.933  1.4983  1.5586  0.2991
  356THF    H11 6066   3.682   0.540   0.757  0.3774 -2.0789 -1.2862
  356THF    H12 6067   3.911   0.570   0.779  3.2843 -1.0628  1.1878
  356THF    H13 6068   3.906   0.594   0.961  2.3367 -1.5413  0.6520
  357THF     O1 6069   0.290   0.122   3.400  0.1404 -0.2509  0.2123
  357THF     C2 6070   0.178   0.208   3.420 -0.5856 -0.2834 -0.4790
  357THF     C3 6071   0.402   0.198   3.401  0.2073 -0.0393 -0.4138
  357THF     H4 6072   0.180   0.237   3.525 -0.2424  3.6803 -1.4281
  357THF     H5 6073   0.080   0.163   3.402 -0.4695 -0.9656  0.5610
  357THF     H6 6074   0.435   0.218   3.503  1.8132 -1.1760 -0.6572
  357THF     H7 6075   0.482   0.139   3.354 -0.7448 -1.7635  0.0579
  357THF     C8 6076   0.364   0.333   3.340  0.1821 -0.5718  0.1803
  357THF     C9 6077   0.209   0.336   3.339 -0.7953  0.1540 -0.4440
  357THF    H10 6078   0.411   0.353   3.244  1.9021  0.5032  1.1711
  357THF    H11 6079   0.402   0.420   3.394 -0.7174 -0.2346  0.2848
  357THF    H12 6080   0.174   0.431   3.380 -1.4752 -0.2614 -0.0534
  357THF    H13 6081   0.169   0.326   3.238  2.1734  3.9227 -2.2604
  358THF     O1 6082   2.069   4.559   3.823  0.5064 -0.4018  0.4263
  358THF     C2 6083   2.113   4.428   3.836 -0.7918 -0.4541 -0.1506
  358THF     C3 6084   1.925   4.562   3.829 -0.2371  0.6275 -0.6949
  358THF     H4 6085   2.218   4.434   3.865 -0.6156  1.2058 -1.0673
  358THF     H5 6086   2.113   4.365   3.747 -2.4699 -1.8736  0.7548
  358THF     H6 6087   1.895   4.657   3.875  0.4101  1.9454 -2.8616
  358THF     H7 6088   1.881   4.557   3.730 -0.4886  4.5294 -0.9247
  358THF     C8 6089   1.885   4.435   3.902 -0.3396 -0.3451  0.7427
  358THF     C9 6090   2.019   4.374   3.942 -0.0777 -0.2255 -0.3498
  358THF    H10 6091   1.833   4.367   3.835  2.1789 -1.5175 -0.1425
  358THF    H11 6092   1.826   4.457   3.991 -1.8645 -0.1440 -0.2772
  358THF    H12 6093   2.041   4.432   4.032 -3.6760  0.4200  0.2693
  358THF    H13 6094   2.019   4.265   3.950  0.9277 -0.1599  0.7943
  359THF     O1 6095   2.997   4.068   5.484 -0.2351 -0.2310  0.1153
  359THF     C2 6096   2.930   4.027   5.366 -0.0035  0.3947  0.5688
  359THF     C3 6097   3.112   4.136   5.441  0.2315 -0.5696  0.2130
  359THF     H4 6098   2.821   4.025   5.375  0.1021 -0.6637  1.8410
  359THF     H5 6099   2.964   3.924   5.358 -2.3431 -0.3847 -0.4099
  359THF     H6 6100   3.107   4.238   5.479  0.6903 -0.7348  0.7338
  359THF     H7 6101   3.205   4.088   5.471  0.7101  0.5083  0.5142
  359THF     C8 6102   3.115   4.142   5.293  0.9682  0.5351  0.4318
  359THF     C9 6103   2.970   4.115   5.256 -0.6465 -0.0101  1.0466
  359THF    H10 6104   3.176   4.065   5.245 -1.0266  0.7953 -2.8682
  359THF    H11 6105   3.141   4.239   5.250 -1.0580  1.6604  1.6029
  359THF    H12 6106   2.908   4.204   5.246 -0.2955  0.0966 -0.5014
  359THF    H13 6107   2.960   4.059   5.162 -1.8876  1.4787  0.2456
  360THF     O1 6108   3.673   5.306   3.171  0.3292  0.0083 -0.0928
  360THF     C2 6109   3.595   5.369   3.071 -0.0975  0.0065  0.4418
  360THF     C3 6110   3.596   5.308   3.296 -0.3488  0.7750 -0.3014
  360THF     H4 6111   3.590   5.296   2.990 -1.7646 -0.5118  0.9618
  360THF     H5 6112   3.630   5.466   3.037 -0.3306  0.4337  1.3783
  360THF     H6 6113   3.553   5.212   3.327 -0.8102  0.3801 -2.0654
  360THF     H7 6114   3.663   5.338   3.377 -0.0288  0.9291 -0.6230
  360THF     C8 6115   3.493   5.409   3.278  0.7527 -0.2427 -0.1083
  360THF     C9 6116   3.462   5.393   3.134  0.0685 -0.0690  0.2988
  360THF    H10 6117   3.545   5.503   3.293 -0.3241  0.2773  0.4816
  360THF    H11 6118   3.401   5.403   3.337 -1.3027  1.6417 -2.8534
  360THF    H12 6119   3.398   5.306   3.123 -1.9400  1.5361 -1.7518
  360THF    H13 6120   3.412   5.480   3.090  0.4974 -0.5684 -1.2632
  361THF     O1 6121   0.216   3.288   5.391  0.2773  0.5263 -0.6319
  361THF     C2 6122   0.243   3.154   5.434  0.0430 -0.1554  0.2619
  361THF     C3 6123   0.312   3.353   5.478  0.4887 -1.0673 -0.1599
  361THF     H4 6124   0.197   3.084   5.365  0.6748 -1.5315  1.1853
  361THF     H5 6125   0.202   3.132   5.533  2.0848  0.0478  1.2207
  361THF     H6 6126   0.329   3.455   5.444  0.2729 -0.8405  0.4024
  361THF     H7 6127   0.280   3.366   5.582  1.2938 -0.5639  0.0327
  361THF     C8 6128   0.441   3.268   5.479 -0.0972 -0.7424  0.0539
  361THF     C9 6129   0.397   3.134   5.433  0.1157  0.1586  0.8966
  361THF    H10 6130   0.496   3.268   5.573  0.7451  1.6218 -0.3874
  361THF    H11 6131   0.515   3.309   5.411  0.7574 -1.0314  0.7834
  361THF    H12 6132   0.424   3.120   5.328 -2.2955 -1.6729  0.4484
  361THF    H13 6133   0.430   3.049   5.492  2.9945 -0.6835 -1.6590
  362THF     O1 6134   0.767   0.397   0.291  0.3112 -0.2694  0.3058
  362THF     C2 6135   0.705   0.278   0.327 -0.7736 -0.1182 -0.5376
  362THF     C3 6136   0.679   0.504   0.311 -0.5388 -0.2709 -0.1264
  362THF     H4 6137   0.701   0.277   0.436  0.6236  0.4395 -0.4533
  362THF     H5 6138   0.763   0.192   0.292  2.1024  1.1050  0.8457
  362THF     H6 6139   0.672   0.527   0.417 -2.3125  0.4736 -0.3629
  362THF     H7 6140   0.703   0.589   0.247  2.8985 -2.5449 -2.1763
  362THF     C8 6141   0.544   0.443   0.280 -0.3612  0.0395 -0.3978
  362THF     C9 6142   0.563   0.292   0.267  0.5614 -0.3716  0.9309
  362THF    H10 6143   0.518   0.502   0.191 -0.3529  3.1308  1.4956
  362THF    H11 6144   0.462   0.470   0.346 -0.0343  0.3405 -0.1076
  362THF    H12 6145   0.485   0.238   0.320 -0.6759 -0.9160 -1.3488
  362THF    H13 6146   0.570   0.259   0.164  0.7589 -0.2861  0.9143
  363THF     O1 6147   0.429   4.171   0.320 -0.2351 -0.0520 -0.3013
  363THF     C2 6148   0.441   4.274   0.218  0.1757  0.3165 -0.2582
  363THF     C3 6149   0.415   4.043   0.265 -0.2485  0.4676 -0.1260
  363THF     H4 6150   0.484   4.366   0.257 -1.7965  1.9463 -1.7036
  363THF     H5 6151   0.341   4.308   0.191  0.2294  1.2469  0.6788
  363THF     H6 6152   0.433   3.964   0.338 -3.8935 -1.3059 -0.9082
  363THF     H7 6153   0.312   4.036   0.231 -0.7438 -4.4729  1.5564
  363THF     C8 6154   0.504   4.047   0.146 -0.1572 -0.3748  0.2054
  363THF     C9 6155   0.494   4.194   0.102  0.0788 -0.3282  0.3648
  363THF    H10 6156   0.479   3.979   0.065 -1.8629 -0.1070  0.4729
  363THF    H11 6157   0.609   4.040   0.176 -0.1650 -1.3652  0.0307
  363THF    H12 6158   0.589   4.229   0.062  0.6392  0.0668  1.9460
  363THF    H13 6159   0.437   4.206   0.010  1.2006  2.3199 -0.0782
  364THF     O1 6160   2.249   0.701   1.978 -0.3421  0.0482  0.4455
  364THF     C2 6161   2.279   0.767   1.850  0.4178  0.4534 -0.2178
  364THF     C3 6162   2.286   0.790   2.086 -0.1083  0.3029 -0.0848
  364THF     H4 6163   2.182   0.805   1.818  0.6807  0.6137 -0.8334
  364THF     H5 6164   2.318   0.698   1.775  1.2106  0.4692  0.1656
  364THF     H6 6165   2.202   0.796   2.156 -2.1184 -1.9937 -2.1416
  364THF     H7 6166   2.381   0.747   2.120  0.2551  0.5824 -0.7208
  364THF     C8 6167   2.318   0.929   2.019  0.2704 -0.5336  0.0699
  364THF     C9 6168   2.360   0.891   1.874  0.0277  0.7752 -0.9092
  364THF    H10 6169   2.389   0.992   2.073  1.2649  0.2053 -1.9733
  364THF    H11 6170   2.228   0.989   2.009  0.0160 -1.0750 -1.0182
  364THF    H12 6171   2.339   0.971   1.803  1.0786  2.5089  0.6248
  364THF    H13 6172   2.464   0.862   1.890 -1.1020 -2.3409  2.1185
  365THF     O1 6173   0.234   1.814   2.465 -0.4368  0.0229  0.2540
  365THF     C2 6174   0.221   1.715   2.569  0.4875  0.1102  0.3304
  365THF     C3 6175   0.201   1.944   2.525 -0.1895  0.0574  0.2488
  365THF     H4 6176   0.322   1.698   2.607  0.0904  0.3445  1.5422
  365THF     H5 6177   0.182   1.626   2.520  1.2725  0.9815 -2.0295
  365THF     H6 6178   0.285   1.989   2.577 -0.3971  0.0123  0.6275
  365THF     H7 6179   0.170   2.015   2.448 -1.7679  0.2396  1.0059
  365THF     C8 6180   0.082   1.905   2.614  0.7080 -0.7869 -0.0190
  365THF     C9 6181   0.120   1.773   2.665 -0.5009 -0.4740 -0.6304
  365THF    H10 6182  -0.011   1.902   2.558  1.2113  0.9714 -1.0099
  365THF    H11 6183   0.064   1.976   2.695 -0.7995 -1.5640  0.3662
  365THF    H12 6184   0.177   1.777   2.758 -0.7556  0.7916 -0.5095
  365THF    H13 6185   0.030   1.711   2.672 -0.5478 -0.2957  0.6743
  366THF     O1 6186   2.920   5.356   3.144  0.6423 -0.1976 -0.4042
  366THF     C2 6187   2.971   5.474   3.086 -0.2832 -0.6438  0.4048
  366THF     C3 6188   2.973   5.349   3.279 -0.3705  0.0860  0.2222
  366THF     H4 6189   2.912   5.558   3.122  0.1931  1.2638 -2.8062
  366THF     H5 6190   2.971   5.462   2.977 -0.9298  1.6009  0.1062
  366THF     H6 6191   2.906   5.403   3.346 -0.3031 -1.9452  2.0282
  366THF     H7 6192   2.973   5.245   3.312 -0.8297  0.1502  0.4291
  366THF     C8 6193   3.116   5.407   3.275 -0.2070 -0.2140  0.0331
  366THF     C9 6194   3.121   5.477   3.141 -0.0853 -0.1437  0.2890
  366THF    H10 6195   3.195   5.333   3.290 -0.4139 -0.7627 -1.3694
  366THF    H11 6196   3.131   5.478   3.356  0.4902  0.5884 -0.7766
  366THF    H12 6197   3.166   5.576   3.145 -2.5539  1.1610 -1.5536
  366THF    H13 6198   3.178   5.409   3.077  0.6426  0.6482  0.0896
  367THF     O1 6199   0.115   2.077   0.181  0.2589  0.1887 -0.3110
  367THF     C2 6200   0.066   2.101   0.049 -0.0190 -0.0365 -0.4075
  367THF     C3 6201   0.175   2.197   0.231  0.4266 -0.1076  0.8758
  367THF     H4 6202  -0.041   2.120   0.034 -0.2137 -2.2226 -2.2953
  367THF     H5 6203   0.064   2.010  -0.010  0.3079 -1.5889  1.8182
  367THF     H6 6204   0.089   2.259   0.256  0.6197 -0.6754  3.1969
  367THF     H7 6205   0.250   2.179   0.308  0.5671 -1.1636  0.5193
  367THF     C8 6206   0.241   2.253   0.104 -0.2926 -0.4596 -0.4004
  367THF     C9 6207   0.165   2.195  -0.009  0.3291 -0.5671  0.0602
  367THF    H10 6208   0.346   2.231   0.118 -0.0392  0.9821  0.0959
  367THF    H11 6209   0.233   2.362   0.109 -1.0597 -0.5623  1.4043
  367THF    H12 6210   0.120   2.264  -0.081 -0.0065  0.7838  1.5014
  367THF    H13 6211   0.240   2.153  -0.075 -0.8271 -0.1509 -1.5843
  368THF     O1 6212   4.616   4.859   1.717  0.0407  0.1418  0.6055
  368THF     C2 6213   4.600   4.729   1.777  0.2655  0.3524  0.2731
  368THF     C3 6214   4.493   4.874   1.645 -0.4154  0.5247 -1.0710
  368THF     H4 6215   4.664   4.702   1.861  1.3374 -1.4605 -1.0580
  368THF     H5 6216   4.617   4.653   1.701 -2.7294 -0.4696  0.3136
  368THF     H6 6217   4.483   4.975   1.607  0.7452  1.0071 -0.1493
  368THF     H7 6218   4.497   4.808   1.558 -4.1090 -1.1635 -0.1438
  368THF     C8 6219   4.385   4.834   1.738 -0.1178 -0.3526  1.2032
  368THF     C9 6220   4.459   4.733   1.821  0.3740  0.5463  0.9641
  368THF    H10 6221   4.299   4.797   1.682  1.4524 -1.5236 -0.5543
  368THF    H11 6222   4.357   4.923   1.794 -1.4561  0.7884 -1.1330
  368THF    H12 6223   4.437   4.757   1.926  0.7192 -1.1261  1.4525
  368THF    H13 6224   4.413   4.634   1.809  0.9957  0.1571  1.7070
  369THF     O1 6225   5.462   4.593   1.568 -0.2187 -0.2369  0.3023
  369THF     C2 6226   5.542   4.653   1.461 -0.6936  0.8488 -0.3827
  369THF     C3 6227   5.342   4.556   1.504  0.5928  0.5636 -0.0332
  369THF     H4 6228   5.595   4.580   1.399 -2.8036 -1.2970  0.2044
  369THF     H5 6229   5.615   4.717   1.512  0.9529 -1.4158  0.2788
  369THF     H6 6230   5.367   4.458   1.465  0.4545 -0.1093  1.5046
  369THF     H7 6231   5.264   4.556   1.580  0.7575  3.0945  0.2297
  369THF     C8 6232   5.322   4.652   1.387  0.0404  0.5827 -0.1484
  369THF     C9 6233   5.447   4.743   1.392 -0.2254  0.3960  0.4134
  369THF    H10 6234   5.227   4.702   1.405 -0.7404 -0.5458 -0.9756
  369THF    H11 6235   5.309   4.603   1.291  0.5776  1.6309 -0.7726
  369THF    H12 6236   5.485   4.768   1.293  0.0231  1.7701  0.8382
  369THF    H13 6237   5.432   4.832   1.453  1.2653  1.2955 -0.4573
  370THF     O1 6238   3.694   0.848   2.863 -0.6848 -0.0557 -0.0325
  370THF     C2 6239   3.689   0.935   2.971  0.3724  0.4253  0.0496
  370THF     C3 6240   3.737   0.720   2.912  0.1474  0.3655 -0.2089
  370THF     H4 6241   3.618   1.017   2.960  2.8201  2.6282 -0.2486
  370THF     H5 6242   3.784   0.982   2.998 -0.6760  2.8790 -0.2695
  370THF     H6 6243   3.721   0.640   2.840  0.7117  0.0132  0.0512
  370THF     H7 6244   3.839   0.706   2.948 -0.2851 -2.8302  0.0304
  370THF     C8 6245   3.632   0.704   3.020 -0.9081  0.4125 -0.3722
  370THF     C9 6246   3.633   0.844   3.076 -0.2180  0.9578 -0.0415
  370THF    H10 6247   3.645   0.629   3.099  2.0660  0.8884 -0.2805
  370THF    H11 6248   3.539   0.685   2.967 -0.3971 -1.9688 -0.5298
  370THF    H12 6249   3.538   0.874   3.119 -0.4990  1.6836 -1.1395
  370THF    H13 6250   3.699   0.833   3.163  0.4544  0.4204 -0.6053
  371THF     O1 6251   0.668   4.802   2.265  0.9284  0.9367  0.3308
  371THF     C2 6252   0.600   4.689   2.312  0.2999  0.1467 -0.0626
  371THF     C3 6253   0.586   4.859   2.167 -0.2426 -0.0638 -0.7775
  371THF     H4 6254   0.568   4.718   2.413  0.0772  2.0258 -0.6290
  371THF     H5 6255   0.669   4.609   2.338  0.5973  1.2310  2.9300
  371THF     H6 6256   0.507   4.909   2.223  0.0819 -0.6386  0.2207
  371THF     H7 6257   0.633   4.933   2.102  2.1692  0.0405  0.9580
  371THF     C8 6258   0.510   4.736   2.096  0.2099 -0.4795  0.0794
  371THF     C9 6259   0.488   4.655   2.213  0.6088  0.3463 -1.0076
  371THF    H10 6260   0.565   4.677   2.022  0.2166 -0.5500  0.1413
  371THF    H11 6261   0.418   4.770   2.049 -0.2508 -0.8880  0.6832
  371THF    H12 6262   0.389   4.670   2.257  1.1979 -2.4994  1.5506
  371THF    H13 6263   0.479   4.549   2.188 -0.2307 -0.2413  1.4684
  372THF     O1 6264   3.037   1.660   2.966 -0.2993 -0.6428 -0.1589
  372THF     C2 6265   3.005   1.535   2.922 -0.3914 -0.2564 -0.1228
  372THF     C3 6266   3.155   1.642   3.039  0.4352  0.3044 -0.2236
  372THF     H4 6267   3.061   1.504   2.835  0.6808  0.1099  0.4251
  372THF     H5 6268   2.899   1.538   2.896 -0.2285  1.4387 -0.7157
  372THF     H6 6269   3.239   1.631   2.971  0.0123 -0.0153 -0.7032
  372THF     H7 6270   3.177   1.733   3.095 -0.1668  1.0461 -1.1402
  372THF     C8 6271   3.123   1.525   3.132  0.0121  0.0403 -0.6522
  372THF     C9 6272   3.050   1.437   3.033 -0.0175 -0.2612  0.3591
  372THF    H10 6273   3.070   1.560   3.220  1.9443 -0.3002  0.7138
  372THF    H11 6274   3.212   1.476   3.170  1.7108  1.8429 -2.0910
  372THF    H12 6275   3.119   1.357   3.004 -0.0952 -0.7326  1.4630
  372THF    H13 6276   2.961   1.389   3.073 -0.9048  0.8364 -0.2495
  373THF     O1 6277   0.585   1.783   4.396  0.4392  0.3910  0.2684
  373THF     C2 6278   0.634   1.860   4.280 -0.2231  0.0692 -0.1847
  373THF     C3 6279   0.492   1.687   4.362 -0.7720  0.1813 -0.6132
  373THF     H4 6280   0.743   1.862   4.282 -0.1778 -1.2207 -0.2345
  373THF     H5 6281   0.587   1.957   4.296  1.5631  0.7769  1.0704
  373THF     H6 6282   0.526   1.586   4.386 -2.8883 -0.0120  2.0994
  373THF     H7 6283   0.402   1.711   4.418 -0.5060  0.8613 -0.4728
  373THF     C8 6284   0.468   1.713   4.209  0.4728  0.1216 -0.3135
  373THF     C9 6285   0.591   1.771   4.154 -0.7631  0.0446 -0.9125
  373THF    H10 6286   0.386   1.781   4.186 -0.3318 -1.6582 -3.2572
  373THF    H11 6287   0.448   1.629   4.142 -0.6557  1.9362 -2.3815
  373THF    H12 6288   0.664   1.690   4.162 -1.1204 -0.1953  0.0343
  373THF    H13 6289   0.602   1.817   4.056 -0.1472  1.6661 -0.1267
  374THF     O1 6290   4.517   2.468   3.721  0.6769 -0.4213  0.2031
  374THF     C2 6291   4.392   2.406   3.752  0.2333  0.0197 -0.5652
  374THF     C3 6292   4.610   2.436   3.819 -0.1949  0.2376  0.3781
  374THF     H4 6293   4.394   2.308   3.705 -1.7835  0.4414 -1.6258
  374THF     H5 6294   4.310   2.459   3.704  1.7957  0.4158 -2.9320
  374THF     H6 6295   4.671   2.352   3.786  0.7690  0.6453  1.0995
  374THF     H7 6296   4.677   2.522   3.830  0.2179  0.0497 -0.5411
  374THF     C8 6297   4.530   2.413   3.950  0.2158  0.4806 -0.0309
  374THF     C9 6298   4.389   2.417   3.904  0.9618  0.1291  0.0803
  374THF    H10 6299   4.557   2.488   4.025  2.7241 -0.5670  0.2045
  374THF    H11 6300   4.544   2.314   3.992  0.0056 -0.6108 -2.3904
  374THF    H12 6301   4.329   2.344   3.959  0.5950  0.6027  0.3215
  374THF    H13 6302   4.340   2.514   3.915 -1.0209 -0.6174 -1.5278
  375THF     O1 6303   3.049   5.209   1.567 -0.4102  0.0809  0.1385
  375THF     C2 6304   3.081   5.145   1.689 -0.5024 -0.4909 -0.6287
  375THF     C3 6305   3.000   5.336   1.604 -0.0176  0.5525  0.1720
  375THF     H4 6306   3.158   5.071   1.669  1.2591  1.0956 -0.1218
  375THF     H5 6307   2.998   5.109   1.750  1.4795 -1.9312  1.3599
  375THF     H6 6308   2.988   5.408   1.523 -2.3655 -0.1573 -0.1965
  375THF     H7 6309   2.907   5.321   1.659 -0.9809  0.7977 -1.3230
  375THF     C8 6310   3.111   5.382   1.691  0.7644  0.6340 -0.6635
  375THF     C9 6311   3.151   5.260   1.772 -0.5266  0.2698 -0.0251
  375THF    H10 6312   3.081   5.469   1.749  0.4324  0.4970 -0.6308
  375THF    H11 6313   3.201   5.400   1.632 -0.6093 -0.0451 -3.1237
  375THF    H12 6314   3.260   5.256   1.761 -0.4593  0.5935  0.5054
  375THF    H13 6315   3.122   5.266   1.877 -0.6343 -2.1078  0.1315
  376THF     O1 6316   3.087   0.845   4.471  0.2678 -0.1849 -0.1622
  376THF     C2 6317   3.140   0.729   4.399  0.0867  0.1195  0.2105
  376THF     C3 6318   2.969   0.797   4.534 -0.5763 -0.2084  1.1325
  376THF     H4 6319   3.236   0.698   4.441  1.4184 -0.0297 -2.7002
  376THF     H5 6320   3.164   0.750   4.295  0.8631 -2.3315 -0.1920
  376THF     H6 6321   2.985   0.749   4.630  1.0482  0.5476  1.2739
  376THF     H7 6322   2.892   0.873   4.551  1.1313  1.6342  1.0007
  376THF     C8 6323   2.913   0.696   4.434  0.3869  0.2283 -0.4325
  376THF     C9 6324   3.033   0.612   4.401 -0.6968  0.7135 -0.0024
  376THF    H10 6325   2.877   0.752   4.348 -0.0219  1.5105  0.5327
  376THF    H11 6326   2.840   0.623   4.470  0.7178  1.1250  2.2880
  376THF    H12 6327   3.059   0.540   4.479 -0.4883 -1.3616 -1.9013
  376THF    H13 6328   3.035   0.560   4.306  0.7882 -1.1335  0.9867
  377THF     O1 6329   3.497   0.426   4.263  0.5160 -0.4241 -0.1204
  377THF     C2 6330   3.478   0.306   4.338 -0.0366 -1.2096  0.1061
  377THF     C3 6331   3.426   0.407   4.143 -0.0048  0.1027 -0.2275
  377THF     H4 6332   3.503   0.327   4.442 -1.1675 -2.7830  0.7335
  377THF     H5 6333   3.557   0.235   4.315  0.6079  0.1548 -2.3211
  377THF     H6 6334   3.414   0.497   4.083 -2.7280 -0.7483 -1.1199
  377THF     H7 6335   3.462   0.325   4.080  0.4092 -0.7587  1.0915
  377THF     C8 6336   3.292   0.360   4.195 -0.4587 -0.0267 -0.2621
  377THF     C9 6337   3.334   0.273   4.317 -0.5577  0.1771 -0.0957
  377THF    H10 6338   3.229   0.305   4.125  0.2445 -0.4125 -0.6031
  377THF    H11 6339   3.239   0.448   4.232  1.1282  1.5847 -1.6681
  377THF    H12 6340   3.278   0.305   4.404  2.1759 -0.6542  2.1231
  377THF    H13 6341   3.314   0.166   4.307  1.4863 -0.1803 -0.9071
  378THF     O1 6342   4.655   2.695   2.274  0.0419  0.3216 -0.2932
  378THF     C2 6343   4.623   2.837   2.267 -0.2301 -0.1276 -0.1119
  378THF     C3 6344   4.629   2.628   2.148  0.4189 -0.5722  0.2764
  378THF     H4 6345   4.702   2.888   2.212  0.1915  0.3702  0.9460
  378THF     H5 6346   4.608   2.889   2.361  0.5674 -0.2902  0.1098
  378THF     H6 6347   4.700   2.657   2.071  1.4984  0.4507  1.5877
  378THF     H7 6348   4.629   2.519   2.150 -0.5673 -0.7064 -2.4910
  378THF     C8 6349   4.495   2.691   2.114 -0.4360 -0.5602  0.5887
  378THF     C9 6350   4.501   2.833   2.173  0.2427 -0.1219  1.0440
  378THF    H10 6351   4.424   2.626   2.165 -0.5961 -2.0299 -1.3614
  378THF    H11 6352   4.461   2.686   2.010 -0.1291 -1.2606  0.5139
  378THF    H12 6353   4.519   2.903   2.092 -2.1442 -1.1141 -0.4701
  378THF    H13 6354   4.407   2.862   2.220  0.9030  1.7475  1.3070
  379THF     O1 6355   4.131   1.989   0.226  0.1122 -0.0919 -0.2093
  379THF     C2 6356   4.238   2.082   0.215 -0.2369  0.2072 -0.1172
  379THF     C3 6357   4.188   1.861   0.205  0.4482 -0.2979 -0.0346
  379THF     H4 6358   4.230   2.159   0.292  1.5739 -1.4568  1.8786
  379THF     H5 6359   4.228   2.128   0.117 -2.1726 -2.1643 -1.1281
  379THF     H6 6360   4.169   1.799   0.293  1.0682 -0.1190  0.2326
  379THF     H7 6361   4.142   1.809   0.121 -0.0905  0.3178 -0.1303
  379THF     C8 6362   4.340   1.870   0.180 -0.5748 -0.5471  0.0285
  379THF     C9 6363   4.368   2.006   0.240  0.2019 -0.1756  0.2393
  379THF    H10 6364   4.367   1.870   0.074  2.5099  1.5101  0.6919
  379THF    H11 6365   4.403   1.797   0.232  1.3243  1.6944  1.0506
  379THF    H12 6366   4.396   1.996   0.345  0.8892 -0.7253  0.0059
  379THF    H13 6367   4.454   2.055   0.194  0.1783  3.1756  3.2617
  380THF     O1 6368   4.746   4.465   4.703 -0.0607 -0.8941  0.0319
  380THF     C2 6369   4.788   4.492   4.834  0.2445 -0.3186 -0.6453
  380THF     C3 6370   4.614   4.413   4.697 -0.8695  0.3888 -0.6944
  380THF     H4 6371   4.737   4.579   4.876  1.7757 -0.3249  1.3847
  380THF     H5 6372   4.895   4.508   4.840  0.4458 -1.7514 -0.0260
  380THF     H6 6373   4.540   4.493   4.686  0.0298  1.3948  0.3678
  380THF     H7 6374   4.596   4.353   4.608  0.7534  0.8844 -1.3950
  380THF     C8 6375   4.596   4.348   4.835 -0.3187 -0.0039 -0.0493
  380THF     C9 6376   4.726   4.370   4.913 -0.2243 -0.2408  0.3470
  380THF    H10 6377   4.576   4.241   4.823  0.6193 -0.2881  0.8151
  380THF    H11 6378   4.514   4.383   4.899  0.0420 -0.4104  0.6477
  380THF    H12 6379   4.713   4.382   5.021 -1.5762 -0.3283  0.2136
  380THF    H13 6380   4.786   4.282   4.889 -1.0365 -1.2711  1.9038
  381THF     O1 6381   0.409   4.520   4.013  0.3032  0.1660 -0.0274
  381THF     C2 6382   0.536   4.450   4.027  0.3301 -0.2460 -0.5990
  381THF     C3 6383   0.330   4.484   4.121 -0.6170 -0.0514  0.2681
  381THF     H4 6384   0.619   4.509   4.065  1.0188 -1.9077  0.6076
  381THF     H5 6385   0.565   4.415   3.928 -1.5250 -0.8887 -0.9594
  381THF     H6 6386   0.363   4.545   4.205 -0.2508 -1.9403  1.5269
  381THF     H7 6387   0.225   4.513   4.108 -1.2017 -1.8469  0.7674
  381THF     C8 6388   0.360   4.336   4.139 -0.2569  0.2948 -0.0638
  381THF     C9 6389   0.514   4.328   4.118  0.3959 -0.3811  0.0100
  381THF    H10 6390   0.321   4.269   4.062  5.3261 -2.0357 -1.3472
  381THF    H11 6391   0.320   4.289   4.229  3.1198 -1.2744  0.7906
  381THF    H12 6392   0.575   4.329   4.208 -0.4145  2.2375  0.6361
  381THF    H13 6393   0.539   4.240   4.060  0.1171 -1.1726  1.0517
  382THF     O1 6394   1.539   0.654   1.272 -0.2480 -1.0003 -0.1451
  382THF     C2 6395   1.574   0.544   1.351  0.1495  0.4843  0.3429
  382THF     C3 6396   1.665   0.711   1.218  0.6513 -1.0536 -0.3834
  382THF     H4 6397   1.513   0.459   1.320  0.7022  0.9759 -2.3635
  382THF     H5 6398   1.545   0.564   1.454  1.4829  1.0727  0.6273
  382THF     H6 6399   1.644   0.767   1.127 -1.0049 -1.7680 -0.4766
  382THF     H7 6400   1.705   0.783   1.290  0.5619 -0.4086 -0.9692
  382THF     C8 6401   1.756   0.596   1.214  0.6238 -0.4267  0.5296
  382THF     C9 6402   1.721   0.517   1.334 -0.0604  0.0033  0.5121
  382THF    H10 6403   1.861   0.620   1.204  0.8417 -1.8702 -1.2581
  382THF    H11 6404   1.731   0.539   1.124  0.6913 -2.2343  1.6195
  382THF    H12 6405   1.740   0.410   1.319  1.7111  0.2922  0.4859
  382THF    H13 6406   1.774   0.555   1.421  1.8398  1.3310 -1.1367
  383THF     O1 6407   1.217   2.301   2.950  1.0527  0.2624 -0.0498
  383THF     C2 6408   1.294   2.261   2.835  0.1276 -0.0698 -0.2826
  383THF     C3 6409   1.078   2.292   2.907 -0.1013 -0.8294 -0.1928
  383THF     H4 6410   1.291   2.155   2.813  2.9420 -0.3261  0.2128
  383THF     H5 6411   1.396   2.299   2.827  0.6253 -1.4420 -0.6850
  383THF     H6 6412   1.065   2.186   2.889  0.5917 -0.6815 -1.7750
  383THF     H7 6413   1.011   2.333   2.982  2.6546  2.5703  0.7185
  383THF     C8 6414   1.089   2.368   2.772  0.2858 -0.0321  0.4418
  383THF     C9 6415   1.223   2.332   2.720  0.1846 -0.2200 -0.0953
  383THF    H10 6416   1.084   2.476   2.790 -0.9082  0.0476 -0.2749
  383THF    H11 6417   1.002   2.349   2.711  1.3438 -0.9250 -0.8469
  383THF    H12 6418   1.212   2.272   2.629 -1.2548 -1.4192  0.8070
  383THF    H13 6419   1.285   2.418   2.696  1.8863 -1.7599 -1.4983
  384THF     O1 6420   0.543   3.864   1.052  0.7767  0.0482 -0.1305
  384THF     C2 6421   0.448   3.785   1.132  0.2799  0.0567  0.0591
  384THF     C3 6422   0.637   3.774   0.993  0.1176  0.6890 -0.4831
  384THF     H4 6423   0.347   3.815   1.105  0.7381  1.1054 -0.5691
  384THF     H5 6424   0.468   3.812   1.236 -0.1015 -0.9255  0.3960
  384THF     H6 6425   0.593   3.747   0.897  0.2071 -0.9250 -0.0970
  384THF     H7 6426   0.732   3.827   0.993 -1.0014  2.7966 -0.5084
  384THF     C8 6427   0.637   3.650   1.080  0.8129  0.1843 -0.1336
  384THF     C9 6428   0.491   3.639   1.111  1.0863  0.8946  0.0358
  384THF    H10 6429   0.689   3.678   1.171  2.6338  1.6360 -1.5506
  384THF    H11 6430   0.687   3.561   1.041 -0.9114 -1.4249  1.1421
  384THF    H12 6431   0.428   3.593   1.035  1.8935 -0.3856  0.1249
  384THF    H13 6432   0.475   3.579   1.200 -0.6172  1.2287 -0.0020
  385THF     O1 6433   0.739   1.341   5.433 -0.0015 -0.5515 -0.1075
  385THF     C2 6434   0.774   1.416   5.315 -0.4114 -0.4582 -0.0228
  385THF     C3 6435   0.829   1.365   5.540 -0.5021 -0.8038 -0.0537
  385THF     H4 6436   0.686   1.465   5.273 -1.3555 -0.7977  1.4681
  385THF     H5 6437   0.816   1.364   5.228 -1.6324 -0.4766 -0.6227
  385THF     H6 6438   0.793   1.416   5.629 -0.7464 -1.3223  0.1433
  385THF     H7 6439   0.865   1.269   5.574  1.7809  0.5986  1.7511
  385THF     C8 6440   0.947   1.450   5.480  0.8230  0.3690  0.3020
  385THF     C9 6441   0.883   1.516   5.359  0.2912  0.6814  0.1337
  385THF    H10 6442   1.023   1.384   5.439 -0.6850 -0.1219 -1.8880
  385THF    H11 6443   0.990   1.524   5.547 -0.4102  0.7224  0.7352
  385THF    H12 6444   0.845   1.611   5.397  1.7360  1.4443 -0.2355
  385THF    H13 6445   0.953   1.555   5.285 -0.5538  0.0312 -1.0382
  386THF     O1 6446   3.279   5.364   0.812  0.2039  0.3243  0.2008
  386THF     C2 6447   3.256   5.430   0.692 -0.5837  0.2631  1.1663
  386THF     C3 6448   3.417   5.369   0.846  0.8137  0.3757  0.1250
  386THF     H4 6449   3.150   5.445   0.672 -0.2236  0.4134 -0.8429
  386THF     H5 6450   3.309   5.384   0.608  0.5420  0.2460  1.8604
  386THF     H6 6451   3.436   5.347   0.951  0.3916  2.0940  0.5970
  386THF     H7 6452   3.469   5.292   0.790  0.3012  0.7691 -0.9232
  386THF     C8 6453   3.457   5.506   0.796 -0.3633 -0.0870  0.6236
  386THF     C9 6454   3.338   5.555   0.721 -0.7802 -0.2565 -0.2580
  386THF    H10 6455   3.545   5.483   0.735 -0.9571 -0.6935 -0.0271
  386THF    H11 6456   3.489   5.570   0.878  0.2981 -0.6216  0.7973
  386THF    H12 6457   3.287   5.626   0.786 -2.6936 -0.0499 -1.9037
  386THF    H13 6458   3.370   5.608   0.632  0.3238 -0.1326  0.1949
  387THF     O1 6459   3.335   3.426   0.405  0.2338  0.2436  0.0368
  387THF     C2 6460   3.255   3.422   0.523 -0.5439 -0.1715  0.5211
  387THF     C3 6461   3.467   3.385   0.435 -0.7504 -0.4039  0.3861
  387THF     H4 6462   3.152   3.414   0.490 -0.0742  0.3042 -1.1626
  387THF     H5 6463   3.286   3.508   0.582  0.9625  0.1607 -0.6686
  387THF     H6 6464   3.508   3.348   0.341 -1.4235 -0.9977  0.3167
  387THF     H7 6465   3.521   3.458   0.496 -2.3205 -0.4936  1.9767
  387THF     C8 6466   3.444   3.275   0.540  0.1656 -0.3321 -0.0242
  387THF     C9 6467   3.304   3.288   0.584  0.5391  0.6479  0.3555
  387THF    H10 6468   3.508   3.301   0.624 -1.1382  0.4500  0.7712
  387THF    H11 6469   3.472   3.174   0.511  0.8365  0.3970 -2.0386
  387THF    H12 6470   3.247   3.208   0.538  2.0138 -0.4559  0.3497
  387THF    H13 6471   3.275   3.302   0.688 -2.8501  1.6237 -0.5986
  388THF     O1 6472   0.575   4.356   2.576 -0.0102  0.0735  0.9283
  388THF     C2 6473   0.459   4.444   2.547 -0.8362 -0.5668 -0.0031
  388THF     C3 6474   0.589   4.337   2.715  0.4339  0.3575  0.5111
  388THF     H4 6475   0.361   4.397   2.540 -0.5503 -1.1893  0.1294
  388THF     H5 6476   0.483   4.501   2.457  2.0946 -2.8441 -0.8246
  388THF     H6 6477   0.587   4.230   2.736  0.0221  0.4571  1.0030
  388THF     H7 6478   0.690   4.367   2.743  0.0267  0.9762  1.3481
  388THF     C8 6479   0.492   4.422   2.791  0.5071  0.1734 -0.0235
  388THF     C9 6480   0.440   4.513   2.682 -0.8305 -0.0890  0.7229
  388THF    H10 6481   0.540   4.476   2.872  0.5886  2.4353 -1.5075
  388THF    H11 6482   0.415   4.354   2.829  0.2223  0.0712 -0.7709
  388THF    H12 6483   0.337   4.540   2.707 -1.2972 -2.4384  1.6700
  388THF    H13 6484   0.491   4.608   2.697  0.4101 -0.5309 -0.5844
  389THF     O1 6485   0.432   2.686   0.527 -0.1878 -0.0041  0.7207
  389THF     C2 6486   0.400   2.594   0.627  0.5809 -0.5515  0.1740
  389THF     C3 6487   0.428   2.621   0.401 -0.3864  0.1262  0.4108
  389THF     H4 6488   0.384   2.630   0.729 -1.9054 -0.5880 -0.1511
  389THF     H5 6489   0.491   2.535   0.633  0.6314 -0.4113  0.8923
  389THF     H6 6490   0.404   2.689   0.319 -2.1979 -2.0283 -0.9482
  389THF     H7 6491   0.524   2.569   0.392 -0.2151  0.5002  0.0237
  389THF     C8 6492   0.318   2.527   0.415 -0.3989  0.1214  0.3514
  389THF     C9 6493   0.292   2.508   0.566  0.0776  0.9148 -0.1755
  389THF    H10 6494   0.350   2.437   0.363  0.3186  0.0468  0.9051
  389THF    H11 6495   0.230   2.556   0.357 -0.8344 -0.5315  0.6650
  389THF    H12 6496   0.199   2.550   0.607  0.5908 -0.1195  2.2099
  389THF    H13 6497   0.286   2.406   0.603  0.6820  1.2293  0.8274
  390THF     O1 6498   3.447   1.572   2.488  0.5857  0.5315  0.3410
  390THF     C2 6499   3.328   1.607   2.417  0.6872 -0.1560 -0.3060
  390THF     C3 6500   3.487   1.690   2.562  0.4021  0.2734  0.0647
  390THF     H4 6501   3.250   1.628   2.490 -0.0332  0.1285 -1.1434
  390THF     H5 6502   3.286   1.543   2.340 -1.1829 -1.0684  1.3724
  390THF     H6 6503   3.421   1.714   2.646  2.6003  1.4947  1.5519
  390THF     H7 6504   3.588   1.697   2.603  0.5179 -0.8893  0.0153
  390THF     C8 6505   3.475   1.792   2.456 -0.1282  0.0010 -0.0790
  390THF     C9 6506   3.374   1.744   2.355 -0.1909  0.0057 -0.0258
  390THF    H10 6507   3.569   1.816   2.406 -0.1002  0.4316  0.1836
  390THF    H11 6508   3.441   1.890   2.489 -1.9642 -0.0841 -1.5583
  390THF    H12 6509   3.286   1.806   2.337 -1.2269 -0.9980  1.4297
  390THF    H13 6510   3.430   1.730   2.263  0.6417  0.3372  0.4181
  391THF     O1 6511   3.783   0.713   5.046 -0.0092 -0.6464 -1.1800
  391THF     C2 6512   3.827   0.636   5.161 -0.0146  0.1098  0.5574
  391THF     C3 6513   3.808   0.649   4.925  0.5639  0.4607 -0.7780
  391THF     H4 6514   3.773   0.664   5.252 -0.0646 -0.8489  0.8309
  391THF     H5 6515   3.930   0.671   5.171  1.1075 -2.7327 -0.1060
  391THF     H6 6516   3.721   0.659   4.860 -0.1621  1.4235  0.2839
  391THF     H7 6517   3.893   0.689   4.871  1.1893 -0.2449 -0.3297
  391THF     C8 6518   3.839   0.506   4.959  0.2374 -1.2249  0.3493
  391THF     C9 6519   3.812   0.493   5.109  0.3439 -0.3700 -0.0782
  391THF    H10 6520   3.943   0.493   4.930 -0.3416 -0.0719 -2.6210
  391THF    H11 6521   3.790   0.426   4.904 -1.3205 -1.5672  2.1258
  391THF    H12 6522   3.708   0.463   5.120 -0.4654  2.1626  0.0468
  391THF    H13 6523   3.887   0.431   5.159  0.2932 -1.1823 -0.9837
  392THF     O1 6524   4.382   0.943   1.505 -0.1514  0.1428  0.9204
  392THF     C2 6525   4.422   0.847   1.398 -0.3932 -0.3251 -0.1728
  392THF     C3 6526   4.446   0.891   1.619 -0.0122  0.5657  0.0484
  392THF     H4 6527   4.405   0.882   1.296  1.1221 -1.6712 -0.9409
  392THF     H5 6528   4.378   0.749   1.413  2.2407 -1.4089  1.0858
  392THF     H6 6529   4.449   0.956   1.707  3.5104  0.9189 -0.2037
  392THF     H7 6530   4.414   0.789   1.640  1.9024 -0.1315 -0.2161
  392THF     C8 6531   4.592   0.880   1.555 -0.1030  0.2524  0.0062
  392THF     C9 6532   4.565   0.815   1.424 -0.3141 -0.3701  0.2695
  392THF    H10 6533   4.655   0.817   1.618 -1.5397 -2.7003 -1.3374
  392THF    H11 6534   4.631   0.980   1.536  0.0909 -0.0688 -1.4512
  392THF    H12 6535   4.625   0.854   1.342  1.7895 -2.5979  0.6122
  392THF    H13 6536   4.582   0.707   1.426  0.4390 -0.3619 -2.1420
  393THF     O1 6537   2.874   0.084   0.712  0.3310  0.3485 -0.2220
  393THF     C2 6538   2.839   0.221   0.716 -0.1323 -0.2500  0.2792
  393THF     C3 6539   2.930   0.043   0.838 -0.1732  0.4909  0.5630
  393THF     H4 6540   2.737   0.224   0.676  0.0170 -0.9318 -0.1645
  393THF     H5 6541   2.915   0.270   0.655 -0.5173  0.0201  0.0110
  393THF     H6 6542   2.923  -0.061   0.871  0.1766 -0.1281 -1.1574
  393THF     H7 6543   3.037   0.061   0.846 -0.3513  0.9474  2.2239
  393THF     C8 6544   2.848   0.123   0.938 -0.0898 -0.0027 -0.1132
  393THF     C9 6545   2.844   0.255   0.860  0.3390 -0.6348  0.4655
  393THF    H10 6546   2.902   0.137   1.032 -0.9829  1.7823  0.1780
  393THF    H11 6547   2.748   0.088   0.964 -0.5789  1.9440  0.8173
  393THF    H12 6548   2.769   0.329   0.885  0.6633  0.5473 -1.7293
  393THF    H13 6549   2.938   0.308   0.879 -0.9993  1.1553  2.4826
  394THF     O1 6550   2.446   0.936   0.078 -0.1103 -0.2953  0.2158
  394THF     C2 6551   2.580   0.934   0.112 -0.7187 -0.2589 -0.4706
  394THF     C3 6552   2.429   0.929  -0.059 -0.2953 -0.5554  0.9619
  394THF     H4 6553   2.631   0.839   0.098  0.0266  0.2658 -1.5027
  394THF     H5 6554   2.606   0.971   0.211 -2.6875 -1.4616  0.5548
  394THF     H6 6555   2.407   0.831  -0.100  2.3430 -0.1681 -1.7671
  394THF     H7 6556   2.344   0.992  -0.085 -0.4880 -0.2090  2.3353
  394THF     C8 6557   2.563   0.976  -0.117  0.0306  0.3150 -0.1358
  394THF     C9 6558   2.642   1.025   0.009  0.2328  0.3394 -0.1753
  394THF    H10 6559   2.551   1.051  -0.195 -0.9471  0.5522  0.2303
  394THF    H11 6560   2.616   0.890  -0.156  0.5651 -0.7499  2.6593
  394THF    H12 6561   2.750   1.010   0.005  0.2659  0.4877  0.1688
  394THF    H13 6562   2.628   1.131   0.026  2.3463  0.3661  1.9314
  395THF     O1 6563   2.481   3.363   2.421  0.3235  0.9593 -0.2082
  395THF     C2 6564   2.528   3.405   2.300  0.9681  0.0688  0.9149
  395THF     C3 6565   2.360   3.430   2.448 -0.3080  0.0086 -0.7312
  395THF     H4 6566   2.501   3.333   2.223  0.0459 -0.5936  1.8429
  395THF     H5 6567   2.636   3.416   2.296  1.2269 -2.1363  0.6577
  395THF     H6 6568   2.276   3.367   2.421 -0.2479 -0.5179  0.2687
  395THF     H7 6569   2.356   3.445   2.556  1.2200 -1.1077 -0.4779
  395THF     C8 6570   2.353   3.558   2.369 -0.1312 -0.3257 -0.0140
  395THF     C9 6571   2.445   3.523   2.250 -0.1149 -0.5798 -0.2198
  395THF    H10 6572   2.405   3.644   2.412 -0.2436 -0.1431 -0.2465
  395THF    H11 6573   2.253   3.591   2.339 -0.0827 -1.9770 -2.2009
  395THF    H12 6574   2.382   3.497   2.165 -0.3953 -4.0537  0.9123
  395THF    H13 6575   2.511   3.605   2.219  1.8452 -1.4088  1.5333
  396THF     O1 6576   2.752   3.408   0.487 -0.2583 -0.3079  0.2854
  396THF     C2 6577   2.751   3.350   0.618  0.1001 -0.3597  0.3775
  396THF     C3 6578   2.621   3.390   0.440 -0.0641  0.1348  0.1836
  396THF     H4 6579   2.842   3.382   0.669  0.2645 -0.1363 -0.0477
  396THF     H5 6580   2.746   3.241   0.615  2.8528 -0.5162 -1.3146
  396THF     H6 6581   2.598   3.475   0.375  2.2072  1.0586  0.4924
  396THF     H7 6582   2.601   3.296   0.388  1.8266 -0.6521  0.7986
  396THF     C8 6583   2.533   3.392   0.565  0.5160 -0.4667  0.3848
  396THF     C9 6584   2.620   3.401   0.684  0.5895 -0.8050  0.8813
  396THF    H10 6585   2.472   3.302   0.573  1.1774 -0.9282  0.2927
  396THF    H11 6586   2.465   3.475   0.547 -3.4504 -3.8214 -2.0029
  396THF    H12 6587   2.622   3.506   0.714 -1.0927 -1.3196  3.0261
  396THF    H13 6588   2.585   3.344   0.770 -2.7817  1.0756  0.9284
  397THF     O1 6589   4.976   4.859   3.792 -0.4879 -0.3188 -0.3833
  397THF     C2 6590   4.919   4.880   3.919  0.8832 -0.5550 -0.1158
  397THF     C3 6591   5.115   4.864   3.802 -0.4769 -0.0092  0.1465
  397THF     H4 6592   4.890   4.783   3.959  1.1211  0.0467  1.5946
  397THF     H5 6593   4.830   4.943   3.919 -1.4031 -3.5413 -0.1424
  397THF     H6 6594   5.154   4.776   3.751 -4.3507 -1.1255 -1.2348
  397THF     H7 6595   5.148   4.953   3.748  2.8849 -0.9443  0.4159
  397THF     C8 6596   5.143   4.885   3.953  0.0070 -0.4382  0.4601
  397THF     C9 6597   5.021   4.953   3.988  0.4469 -0.4499 -0.1013
  397THF    H10 6598   5.232   4.946   3.971 -1.0586  1.8575 -1.4673
  397THF    H11 6599   5.153   4.788   4.001  0.5135  0.3889  2.1356
  397THF    H12 6600   4.994   4.945   4.093  1.9880  0.0210  0.3608
  397THF    H13 6601   5.042   5.053   3.952 -1.6836 -0.1069 -0.5321
  398THF     O1 6602   3.399   5.412   2.734 -0.5133  0.5137  0.2105
  398THF     C2 6603   3.384   5.552   2.753  0.4991 -0.0319 -0.2544
  398THF     C3 6604   3.496   5.399   2.629  0.2252  0.6643 -0.4231
  398THF     H4 6605   3.471   5.592   2.807  0.1367  2.7718 -1.5479
  398THF     H5 6606   3.293   5.578   2.806  0.8641  3.8626 -1.2440
  398THF     H6 6607   3.592   5.390   2.681 -0.7985 -1.1585  1.2520
  398THF     H7 6608   3.475   5.303   2.583 -3.9665  0.5955  1.1913
  398THF     C8 6609   3.482   5.519   2.535 -0.1149 -0.1098 -0.0761
  398THF     C9 6610   3.408   5.625   2.618  0.7105 -0.0212 -0.3082
  398THF    H10 6611   3.410   5.492   2.457  1.4538 -0.9792 -1.2722
  398THF    H11 6612   3.574   5.562   2.496 -0.3638  1.0187  0.5354
  398THF    H12 6613   3.461   5.719   2.632  2.5418 -1.1073  0.2431
  398THF    H13 6614   3.313   5.641   2.566  1.3402 -3.4479 -2.8647
  399THF     O1 6615   1.342   3.184   3.314  0.5934 -0.0632 -0.4984
  399THF     C2 6616   1.365   3.312   3.383  0.8738  0.2857  0.1575
  399THF     C3 6617   1.296   3.209   3.186  0.4111 -0.5529 -0.2333
  399THF     H4 6618   1.465   3.336   3.348  0.8347 -2.0377 -1.7429
  399THF     H5 6619   1.372   3.322   3.492 -0.9217  0.6508  0.2804
  399THF     H6 6620   1.364   3.191   3.103 -1.7566 -0.8997 -2.0081
  399THF     H7 6621   1.213   3.141   3.167  1.1963 -0.9592 -2.5165
  399THF     C8 6622   1.258   3.362   3.183  0.3050 -0.2026  0.0272
  399THF     C9 6623   1.266   3.412   3.328  0.9818 -0.1327  0.2069
  399THF    H10 6624   1.152   3.375   3.163 -0.7022 -4.8948  1.0324
  399THF    H11 6625   1.332   3.407   3.116 -0.1202  0.4065 -0.0405
  399THF    H12 6626   1.301   3.515   3.336 -2.9669  1.2610  1.9988
  399THF    H13 6627   1.171   3.411   3.382  1.7171  2.0697  1.6669
  400THF     O1 6628   4.560   5.487   0.065  0.8159  0.2212 -0.2492
  400THF     C2 6629   4.432   5.429   0.072  0.4855  0.3559  0.1176
  400THF     C3 6630   4.559   5.612   0.126  0.6269 -0.2228 -0.6209
  400THF     H4 6631   4.435   5.356   0.152 -2.3883  0.5850  0.5310
  400THF     H5 6632   4.398   5.374  -0.016 -0.0699  2.7092 -1.2561
  400THF     H6 6633   4.566   5.597   0.234  0.8288  1.5699 -0.3599
  400THF     H7 6634   4.639   5.679   0.094  0.3647  1.0349  1.2200
  400THF     C8 6635   4.415   5.670   0.097 -0.2843 -0.1485 -0.0476
  400THF     C9 6636   4.333   5.539   0.100  0.3115  0.9680 -0.5912
  400THF    H10 6637   4.415   5.728   0.005  0.5039 -1.4953 -0.9406
  400THF    H11 6638   4.386   5.732   0.181  1.1348 -1.9004  1.8390
  400THF    H12 6639   4.273   5.528   0.190  0.4781 -0.3734 -0.6238
  400THF    H13 6640   4.255   5.543   0.024  0.2659  1.6482 -0.5184
  401THF     O1 6641   0.006   1.214   3.643 -0.0033 -0.1768  0.4581
  401THF     C2 6642   0.089   1.245   3.532 -0.2750  0.3319  0.2180
  401THF     C3 6643  -0.122   1.242   3.595 -1.0814  0.3260 -0.0645
  401THF     H4 6644   0.193   1.216   3.545 -0.5599 -0.5742  0.5181
  401THF     H5 6645   0.104   1.352   3.515  0.9903  0.2813  0.8764
  401THF     H6 6646  -0.196   1.187   3.652 -0.2905 -0.9578 -0.2485
  401THF     H7 6647  -0.131   1.351   3.591 -0.5000  0.3947  0.2768
  401THF     C8 6648  -0.122   1.173   3.458 -0.4597 -0.3805 -0.2837
  401THF     C9 6649   0.025   1.182   3.407  0.0618 -0.5946 -0.6950
  401THF    H10 6650  -0.197   1.224   3.398 -1.8802 -1.8341  0.1941
  401THF    H11 6651  -0.163   1.078   3.491 -1.2062  0.6561  1.9477
  401THF    H12 6652   0.070   1.084   3.392 -0.1385 -1.0420  1.3635
  401THF    H13 6653   0.034   1.238   3.314  0.8428  0.2251 -0.1440
  402THF     O1 6654   1.147   2.187   1.873 -0.2493 -0.1215  0.2908
  402THF     C2 6655   1.258   2.157   1.968  0.4004 -0.3785  0.9259
  402THF     C3 6656   1.067   2.282   1.931 -0.3153 -0.3721 -0.3879
  402THF     H4 6657   1.337   2.227   1.940 -2.1042  2.0407 -0.7786
  402THF     H5 6658   1.301   2.059   1.951 -1.4214 -1.5514  2.7308
  402THF     H6 6659   1.114   2.381   1.924 -0.7279 -0.0834  0.6966
  402THF     H7 6660   0.965   2.298   1.897 -0.1704  0.8942 -0.2933
  402THF     C8 6661   1.055   2.226   2.071 -0.4162  0.4775  0.0473
  402THF     C9 6662   1.189   2.170   2.104 -0.3697  0.4986  0.7912
  402THF    H10 6663   0.988   2.140   2.062  0.8695 -0.4079 -1.7221
  402THF    H11 6664   1.017   2.285   2.154  2.7293 -0.0980  2.1149
  402THF    H12 6665   1.236   2.236   2.177 -1.8340  1.8836  0.5249
  402THF    H13 6666   1.179   2.069   2.143  0.2487 -0.5260 -1.5137
  403THF     O1 6667   4.864   2.613   1.591  0.2406  0.5904  0.6639
  403THF     C2 6668   4.937   2.682   1.688  0.5442  0.0856 -0.1212
  403THF     C3 6669   4.726   2.645   1.616 -1.2146 -0.4899  0.3149
  403THF     H4 6670   4.942   2.786   1.655 -2.7427  0.6037  0.5880
  403THF     H5 6671   5.037   2.641   1.692  0.1857 -0.7124  1.0136
  403THF     H6 6672   4.707   2.732   1.553 -1.0325 -0.6387  0.0532
  403THF     H7 6673   4.647   2.577   1.584 -1.9965 -0.3230  1.7720
  403THF     C8 6674   4.715   2.687   1.763  0.5181 -0.3832 -0.0166
  403THF     C9 6675   4.856   2.668   1.816  0.0563  0.7990 -0.2099
  403THF    H10 6676   4.640   2.617   1.801 -1.1799  0.5950 -1.4094
  403THF    H11 6677   4.675   2.788   1.765  1.0305 -0.1175 -1.5874
  403THF    H12 6678   4.879   2.748   1.887  1.2397  1.2063 -1.0142
  403THF    H13 6679   4.858   2.568   1.860  0.7548  0.0506 -1.8536
  404THF     O1 6680   0.943   0.906   2.232  0.2925  0.4062  0.4374
  404THF     C2 6681   0.996   0.830   2.336  0.0222 -0.0818  0.9129
  404THF     C3 6682   1.035   1.008   2.208  0.4715 -0.6410 -0.5253
  404THF     H4 6683   1.091   0.794   2.297 -1.1016  0.1993 -2.3647
  404THF     H5 6684   0.933   0.746   2.364  1.8723 -1.6999  0.4405
  404THF     H6 6685   1.123   0.973   2.155  0.4734 -0.0237 -0.9451
  404THF     H7 6686   0.985   1.089   2.155  2.4340  0.6467 -0.5142
  404THF     C8 6687   1.073   1.048   2.349  0.5001 -0.5333 -0.5371
  404THF     C9 6688   1.022   0.938   2.441  0.1004 -0.0920 -0.7553
  404THF    H10 6689   1.018   1.137   2.379 -4.8577 -3.3935 -0.7223
  404THF    H11 6690   1.175   1.079   2.371  0.0075  0.3335  0.6246
  404THF    H12 6691   1.101   0.910   2.510  2.0960  1.0783 -2.4511
  404THF    H13 6692   0.934   0.980   2.491  0.4125  1.5101 -1.5044
  405THF     O1 6693   4.404   2.793   2.644  0.4825 -0.2678 -1.0487
  405THF     C2 6694   4.318   2.690   2.702 -0.0142 -0.0658  0.0072
  405THF     C3 6695   4.374   2.818   2.507  0.5647 -0.3012 -0.6115
  405THF     H4 6696   4.277   2.723   2.797  0.4570  2.6578 -0.6488
  405THF     H5 6697   4.378   2.601   2.720  1.2033  0.4866 -1.1590
  405THF     H6 6698   4.393   2.921   2.478  0.3117  0.3920  1.4876
  405THF     H7 6699   4.439   2.744   2.461  1.4307 -0.1428  0.3291
  405THF     C8 6700   4.224   2.782   2.497 -0.1833  0.0686  0.2651
  405THF     C9 6701   4.213   2.660   2.590  0.2759  0.1396 -0.0841
  405THF    H10 6702   4.191   2.769   2.394 -0.3368 -1.2099  0.4524
  405THF    H11 6703   4.176   2.872   2.534 -1.4855  0.0215 -1.2272
  405THF    H12 6704   4.116   2.634   2.631  0.5299 -0.4403  0.1565
  405THF    H13 6705   4.247   2.581   2.524  0.0565 -0.7695  0.8658
  406THF     O1 6706   2.974   2.120   3.505 -0.1504  0.0540  0.3383
  406THF     C2 6707   2.854   2.135   3.428 -0.4761  0.1665  0.2589
  406THF     C3 6708   3.038   2.248   3.515  0.2014  0.4476 -0.0468
  406THF     H4 6709   2.788   2.052   3.452  3.8751 -3.5491  0.8777
  406THF     H5 6710   2.881   2.109   3.326  0.2441 -2.4062  1.0200
  406THF     H6 6711   3.076   2.281   3.612 -0.7389  2.2372 -0.2274
  406THF     H7 6712   3.117   2.245   3.440 -0.2080  0.0474 -0.4658
  406THF     C8 6713   2.934   2.350   3.457  0.6993  0.6150 -0.1894
  406THF     C9 6714   2.805   2.275   3.440 -0.7222 -0.7634 -0.3691
  406THF    H10 6715   2.964   2.386   3.359  1.1360  0.5225 -0.0935
  406THF    H11 6716   2.927   2.438   3.521  1.0001  0.6293 -0.1775
  406THF    H12 6717   2.734   2.293   3.521  0.2588 -0.3829  0.4157
  406THF    H13 6718   2.750   2.327   3.361  0.8149  1.7225  0.1146
  407THF     O1 6719   2.742   5.175   4.763 -0.4170 -0.1393 -0.3167
  407THF     C2 6720   2.615   5.126   4.801 -0.0307  0.1774 -0.6080
  407THF     C3 6721   2.718   5.307   4.729  0.4458 -0.7460 -0.2310
  407THF     H4 6722   2.584   5.150   4.903 -0.7702 -0.1252 -0.7577
  407THF     H5 6723   2.634   5.019   4.792  1.5452  0.2045  1.4579
  407THF     H6 6724   2.700   5.374   4.813 -1.6223 -0.9434 -0.4491
  407THF     H7 6725   2.802   5.356   4.679  0.2098  1.0846  1.0783
  407THF     C8 6726   2.593   5.301   4.646 -0.1043 -0.9895 -0.2383
  407THF     C9 6727   2.516   5.179   4.699  0.2740 -0.7416 -0.5133
  407THF    H10 6728   2.614   5.274   4.542 -2.2279  0.2929 -1.0662
  407THF    H11 6729   2.543   5.398   4.651  0.9104 -0.3110 -2.1488
  407THF    H12 6730   2.423   5.209   4.747  0.7907  0.9254 -0.4865
  407THF    H13 6731   2.485   5.103   4.628 -2.8466 -2.5282  2.4573
  408THF     O1 6732   2.754   2.420   0.583  0.1396 -1.0189  0.2362
  408THF     C2 6733   2.762   2.553   0.634  0.9081 -0.2081  0.0098
  408THF     C3 6734   2.861   2.391   0.489 -0.4359 -0.3376 -0.4160
  408THF     H4 6735   2.770   2.547   0.742 -1.9413  1.7015  0.4603
  408THF     H5 6736   2.671   2.612   0.622  1.8329  1.1829 -0.3711
  408THF     H6 6737   2.888   2.287   0.504 -1.8347 -0.3262  3.1644
  408THF     H7 6738   2.818   2.409   0.390 -2.1122  2.0506  0.6487
  408THF     C8 6739   2.963   2.499   0.527 -0.6706 -0.6725  0.0487
  408THF     C9 6740   2.878   2.621   0.566 -0.7473 -0.6516  0.8568
  408THF    H10 6741   3.021   2.525   0.438 -0.5286 -1.8855 -0.2348
  408THF    H11 6742   3.037   2.456   0.594  3.2511  0.4584 -3.1331
  408THF    H12 6743   2.927   2.695   0.630 -0.6002 -0.1652  0.1889
  408THF    H13 6744   2.831   2.682   0.489  0.3621 -2.0032 -0.9765
  409THF     O1 6745   2.369   2.356   0.392  0.0388  0.1738 -0.1803
  409THF     C2 6746   2.335   2.239   0.314 -0.5037 -0.1851 -0.1999
  409THF     C3 6747   2.487   2.419   0.336 -0.2777  0.1226 -0.0100
  409THF     H4 6748   2.305   2.277   0.216  1.3752 -0.5943 -0.9671
  409THF     H5 6749   2.262   2.174   0.363  0.4900 -0.1103  1.4436
  409THF     H6 6750   2.458   2.500   0.269 -0.4777 -0.2971 -0.4361
  409THF     H7 6751   2.544   2.458   0.421  2.5650 -1.2807 -1.1342
  409THF     C8 6752   2.562   2.300   0.267 -0.5428 -0.9861 -0.5318
  409THF     C9 6753   2.481   2.182   0.305  0.1904  0.2215  0.5767
  409THF    H10 6754   2.663   2.293   0.308 -0.8116  1.2362  0.6761
  409THF    H11 6755   2.570   2.324   0.161 -2.0555 -0.1054 -0.4729
  409THF    H12 6756   2.488   2.103   0.230 -0.9552 -0.0644  0.7522
  409THF    H13 6757   2.513   2.130   0.395 -0.0313  0.1365  0.6052
  410THF     O1 6758   3.592   2.270   3.063 -0.0228 -0.7882 -0.7196
  410THF     C2 6759   3.653   2.195   3.160  0.0920 -0.2744 -0.4337
  410THF     C3 6760   3.500   2.366   3.129 -0.4896 -0.0574  0.1153
  410THF     H4 6761   3.725   2.264   3.203 -0.8728  2.0133 -2.2598
  410THF     H5 6762   3.703   2.108   3.118 -1.0197 -1.2747  0.2532
  410THF     H6 6763   3.543   2.464   3.149 -5.9667  2.5784  0.5380
  410THF     H7 6764   3.412   2.387   3.068 -1.3400 -1.5884  0.7467
  410THF     C8 6765   3.463   2.292   3.262  0.4538 -0.8803 -0.2714
  410THF     C9 6766   3.542   2.158   3.263  0.3605 -0.1398  0.4835
  410THF    H10 6767   3.358   2.278   3.284  0.3590  0.2761  0.0917
  410THF    H11 6768   3.497   2.357   3.343 -0.4206  1.6167 -1.7754
  410THF    H12 6769   3.570   2.133   3.366 -0.4794 -2.6072  0.1884
  410THF    H13 6770   3.475   2.083   3.221  0.4330 -0.9753  1.7906
  411THF     O1 6771   3.129   5.142   4.512 -0.2657  0.0436  0.0456
  411THF     C2 6772   3.206   5.069   4.415  0.3461  0.0464  0.3389
  411THF     C3 6773   3.168   5.282   4.505 -0.1139  0.5815 -0.3784
  411THF     H4 6774   3.167   4.968   4.403  0.8851  0.0508 -2.1837
  411THF     H5 6775   3.308   5.070   4.452 -0.7567 -0.1785  3.6780
  411THF     H6 6776   3.095   5.362   4.520  0.0750  0.4509  1.4625
  411THF     H7 6777   3.248   5.311   4.574 -1.8324  3.0002  0.7380
  411THF     C8 6778   3.207   5.287   4.363 -0.3905 -0.3077  0.4572
  411THF     C9 6779   3.195   5.156   4.290 -0.6900  0.6255 -0.1336
  411THF    H10 6780   3.307   5.325   4.342 -1.3356  1.2990 -1.3862
  411THF    H11 6781   3.140   5.355   4.311 -0.8029 -1.4460 -0.5752
  411THF    H12 6782   3.096   5.148   4.246 -0.9433 -0.4622  0.5766
  411THF    H13 6783   3.258   5.144   4.202 -0.8389  0.8077 -0.2643
  412THF     O1 6784   2.058   3.169   2.606  0.2648 -0.3868 -0.7877
  412THF     C2 6785   1.932   3.150   2.552  1.1310 -0.1783  0.2117
  412THF     C3 6786   2.066   3.289   2.668  0.4551  0.1374  0.0489
  412THF     H4 6787   1.865   3.087   2.611  1.9532 -0.8621  0.4318
  412THF     H5 6788   1.946   3.115   2.449  2.0942 -0.5733  0.4654
  412THF     H6 6789   2.027   3.279   2.769 -0.9061 -0.4647 -0.5105
  412THF     H7 6790   2.173   3.306   2.668  0.3889  0.5775 -0.4570
  412THF     C8 6791   1.983   3.387   2.578 -0.6501  0.0960 -0.0137
  412THF     C9 6792   1.867   3.292   2.553 -0.3649  0.1807 -0.1822
  412THF    H10 6793   2.030   3.409   2.482 -0.1526 -0.7677  0.0175
  412THF    H11 6794   1.957   3.481   2.625  0.8089 -0.0003  1.0525
  412THF    H12 6795   1.802   3.294   2.641  1.1066 -1.5506  1.0395
  412THF    H13 6796   1.810   3.314   2.463 -0.7534 -3.2839 -0.9457
  413THF     O1 6797   1.233   5.310   1.929 -0.2135 -0.1723 -0.1413
  413THF     C2 6798   1.218   5.414   2.030  0.2965 -0.9261 -0.4797
  413THF     C3 6799   1.152   5.353   1.816  0.1245  0.3611 -0.5017
  413THF     H4 6800   1.300   5.487   2.032  0.4669 -1.0993  2.4573
  413THF     H5 6801   1.235   5.360   2.123  4.3130 -0.7869 -0.9272
  413THF     H6 6802   1.203   5.434   1.764  0.9546  1.5498  1.9863
  413THF     H7 6803   1.125   5.269   1.751  0.6415  0.4661 -0.8532
  413THF     C8 6804   1.031   5.417   1.880  0.3450 -0.0211 -0.0110
  413THF     C9 6805   1.086   5.477   2.011  0.3399 -0.4105  0.1451
  413THF    H10 6806   0.956   5.339   1.897  1.1331 -1.8965 -4.0160
  413THF    H11 6807   0.983   5.489   1.815 -0.2982  1.4174  1.9459
  413THF    H12 6808   1.103   5.584   1.997 -1.6619 -0.2259 -1.3242
  413THF    H13 6809   1.017   5.461   2.094  0.4851  1.1190  0.5870
  414THF     O1 6810   3.917   0.187   2.262  0.3089 -0.1719 -0.0457
  414THF     C2 6811   3.778   0.171   2.287  0.8074  0.3135  0.5559
  414THF     C3 6812   3.957   0.299   2.335 -0.1830 -0.1055  0.7387
  414THF     H4 6813   3.765   0.132   2.387  2.6767  2.6406  1.8075
  414THF     H5 6814   3.739   0.103   2.211  1.6498  2.3939 -1.8797
  414THF     H6 6815   3.957   0.279   2.442  1.1243 -1.2105  0.5561
  414THF     H7 6816   4.057   0.337   2.312 -0.8603  1.5851  0.4145
  414THF     C8 6817   3.849   0.399   2.304  0.3750 -0.6062  1.0571
  414THF     C9 6818   3.726   0.314   2.278 -0.8828  0.8805 -0.3865
  414THF    H10 6819   3.884   0.454   2.216  2.0637 -0.2204  1.9365
  414THF    H11 6820   3.840   0.460   2.394 -3.2651 -1.3811  1.3757
  414THF    H12 6821   3.642   0.335   2.344 -2.3795 -0.7051 -1.7036
  414THF    H13 6822   3.700   0.330   2.174  1.2070  0.8602 -0.9490
  415THF     O1 6823   0.500   3.068   0.304 -0.2459 -0.6776  0.0888
  415THF     C2 6824   0.554   3.195   0.342  0.6023  0.0264  0.0939
  415THF     C3 6825   0.582   2.969   0.372  0.6907 -0.5529  0.9622
  415THF     H4 6826   0.479   3.268   0.312  1.1886 -0.2258 -2.2256
  415THF     H5 6827   0.637   3.215   0.274 -0.4732  0.9558 -1.0021
  415THF     H6 6828   0.528   2.875   0.367  2.3698 -1.4792 -1.2416
  415THF     H7 6829   0.673   2.956   0.313  0.2216 -1.7831  0.4892
  415THF     C8 6830   0.611   3.025   0.505 -0.2479  0.8466 -0.0430
  415THF     C9 6831   0.595   3.177   0.482  0.4999 -0.3819  0.2283
  415THF    H10 6832   0.701   2.990   0.554  0.1517  0.7231 -0.8494
  415THF    H11 6833   0.525   2.995   0.565  1.0191 -2.5245  0.3074
  415THF    H12 6834   0.518   3.221   0.545  0.2763  0.9206 -0.9155
  415THF    H13 6835   0.684   3.231   0.515  0.4559 -0.0672 -0.1710
  416THF     O1 6836   0.811   1.163   0.601  0.0397 -0.4727 -0.3361
  416THF     C2 6837   0.794   1.033   0.656 -0.9768 -0.2059 -0.5672
  416THF     C3 6838   0.952   1.178   0.578  0.7619 -0.9987 -0.0762
  416THF     H4 6839   0.730   0.984   0.583 -1.5376  3.5360 -2.8691
  416THF     H5 6840   0.741   1.044   0.751  0.1538  1.4582 -0.0684
  416THF     H6 6841   0.968   1.232   0.485  1.2846 -1.0596 -0.0268
  416THF     H7 6842   1.000   1.234   0.658  1.6116 -0.4206 -0.9809
  416THF     C8 6843   1.010   1.039   0.557 -0.2530  0.2076 -0.5305
  416THF     C9 6844   0.930   0.957   0.659 -0.6159  0.5073 -0.6108
  416THF    H10 6845   1.114   1.039   0.587 -0.7476  0.8685  1.3495
  416THF    H11 6846   0.995   1.005   0.454  2.5591 -1.1229 -0.5692
  416THF    H12 6847   0.930   0.850   0.635 -0.8960  0.5643 -0.8669
  416THF    H13 6848   0.976   0.970   0.758 -1.9705 -2.0029  0.4589
  417THF     O1 6849   2.297   2.521   2.016  0.0615  0.0180  0.1062
  417THF     C2 6850   2.372   2.422   2.072  0.1481  0.3268  0.4687
  417THF     C3 6851   2.258   2.460   1.898  0.1085 -0.2343  0.0244
  417THF     H4 6852   2.400   2.449   2.174  1.7298 -0.2295  0.2213
  417THF     H5 6853   2.468   2.431   2.020  0.6150 -0.2212  1.2071
  417THF     H6 6854   2.174   2.517   1.858  0.7606  2.0741  1.7252
  417THF     H7 6855   2.339   2.470   1.826 -0.1359  3.5510  0.0603
  417THF     C8 6856   2.216   2.321   1.934 -0.1256  0.4961 -0.1364
  417THF     C9 6857   2.298   2.289   2.057 -0.5397 -0.1220  0.5324
  417THF    H10 6858   2.251   2.255   1.855 -2.2621  0.3165 -1.0047
  417THF    H11 6859   2.114   2.298   1.966  0.7682 -2.1970  1.0149
  417THF    H12 6860   2.239   2.273   2.147 -1.0505  0.1503  0.2511
  417THF    H13 6861   2.370   2.211   2.033 -1.8573 -0.8115 -1.3777
  418THF     O1 6862   1.609   4.212   2.723  0.0971 -0.7672  0.1193
  418THF     C2 6863   1.542   4.132   2.627 -0.5052 -0.0932 -0.0468
  418THF     C3 6864   1.746   4.207   2.684 -0.2649 -0.4667 -0.6792
  418THF     H4 6865   1.434   4.132   2.632 -0.5365  1.0143 -0.3819
  418THF     H5 6866   1.560   4.025   2.625  0.7533  0.1077 -1.9555
  418THF     H6 6867   1.802   4.286   2.733 -2.3203  1.5795 -1.4541
  418THF     H7 6868   1.791   4.113   2.714  2.2548  0.2890 -1.7787
  418THF     C8 6869   1.736   4.217   2.533  0.0967 -0.3220  0.2301
  418THF     C9 6870   1.595   4.179   2.497  0.4194  0.4646  0.3066
  418THF    H10 6871   1.804   4.155   2.475  0.5817  1.4864 -1.2410
  418THF    H11 6872   1.760   4.317   2.499  0.4651 -0.2785  0.6076
  418THF    H12 6873   1.535   4.266   2.469  2.0191  1.4747 -0.1412
  418THF    H13 6874   1.607   4.109   2.414  1.6939  1.5969 -0.5145
  419THF     O1 6875   0.153   1.559   0.125 -0.2441  0.1540  0.3063
  419THF     C2 6876   0.118   1.440   0.191  0.5851 -0.2733 -0.1229
  419THF     C3 6877   0.256   1.544   0.024  0.5360  0.3372 -0.5277
  419THF     H4 6878   0.021   1.418   0.147  0.3547  1.5791 -0.6256
  419THF     H5 6879   0.129   1.439   0.300  0.9225  0.5956 -0.1435
  419THF     H6 6880   0.216   1.562  -0.076 -1.0570 -0.9487 -0.1583
  419THF     H7 6881   0.329   1.623   0.042  0.4398  0.0058  1.6251
  419THF     C8 6882   0.322   1.410   0.057 -0.2703 -0.4693  0.7488
  419THF     C9 6883   0.203   1.334   0.118  0.1676  0.3808 -0.6976
  419THF    H10 6884   0.397   1.429   0.134 -0.6632  0.4084  0.9197
  419THF    H11 6885   0.362   1.363  -0.033 -3.9557 -1.9868 -0.2905
  419THF    H12 6886   0.148   1.283   0.039  0.3063 -0.2006 -0.4214
  419THF    H13 6887   0.227   1.246   0.178 -2.6008 -0.7968 -1.1683
  420THF     O1 6888   0.857   5.021   4.457  0.4111  0.0102  0.0920
  420THF     C2 6889   0.929   4.909   4.412  0.3302  0.2146 -0.3446
  420THF     C3 6890   0.778   4.970   4.560 -0.8786 -0.1485  0.3341
  420THF     H4 6891   1.019   4.935   4.357  0.4936 -1.0823 -0.7388
  420THF     H5 6892   0.859   4.845   4.358 -0.1127 -0.8538  1.4039
  420THF     H6 6893   0.763   5.056   4.625 -0.3745 -0.5175  0.9531
  420THF     H7 6894   0.685   4.933   4.517 -0.4316 -2.2100  1.0101
  420THF     C8 6895   0.851   4.856   4.632 -0.1182 -0.2712  0.0658
  420THF     C9 6896   0.967   4.835   4.540 -0.1215 -0.2577  0.1987
  420THF    H10 6897   0.781   4.775   4.651  0.5674 -0.4485  2.0373
  420THF    H11 6898   0.881   4.888   4.732 -2.7605 -2.5771  1.7404
  420THF    H12 6899   1.052   4.891   4.580 -1.4497  1.4527  0.7410
  420THF    H13 6900   0.994   4.733   4.516  1.0915 -0.3219  1.6744
  421THF     O1 6901   4.706   2.198   0.229 -0.2009 -0.2169 -0.7622
  421THF     C2 6902   4.840   2.184   0.265 -0.0714 -0.0367 -0.3183
  421THF     C3 6903   4.673   2.341   0.233 -0.5376  0.1018 -0.0702
  421THF     H4 6904   4.899   2.190   0.173  0.4197  0.6974  0.0387
  421THF     H5 6905   4.864   2.080   0.285 -1.6859 -0.2950  0.3642
  421THF     H6 6906   4.704   2.384   0.138  0.1177 -1.1261 -0.4405
  421THF     H7 6907   4.568   2.361   0.255 -1.1812 -1.6527 -1.3208
  421THF     C8 6908   4.768   2.387   0.342 -0.1550  0.1273  0.0293
  421THF     C9 6909   4.861   2.281   0.378 -0.1788  0.0990  0.3334
  421THF    H10 6910   4.727   2.420   0.437  0.0636 -1.0493  0.5448
  421THF    H11 6911   4.829   2.470   0.306  1.3428 -0.6984  0.5991
  421THF    H12 6912   4.966   2.310   0.384  0.2132 -0.9401 -0.9333
  421THF    H13 6913   4.836   2.240   0.475 -2.6778  1.3998  0.3124
  422THF     O1 6914   4.097   3.279   1.689  0.2691 -0.4527  0.5548
  422THF     C2 6915   4.052   3.390   1.766 -1.1796 -0.8470 -0.0279
  422THF     C3 6916   4.198   3.212   1.763  0.4442 -0.2327  0.2084
  422THF     H4 6917   3.948   3.387   1.799 -1.2632  0.3190 -0.1619
  422THF     H5 6918   4.050   3.463   1.685  1.6006 -2.4819 -1.7459
  422THF     H6 6919   4.148   3.149   1.837  0.4719  0.2666  0.6584
  422THF     H7 6920   4.268   3.161   1.698 -0.8036 -2.8573  0.7775
  422THF     C8 6921   4.267   3.326   1.836  0.2141 -0.0806 -0.8817
  422THF     C9 6922   4.146   3.408   1.881 -0.3939 -0.2273  0.0091
  422THF    H10 6923   4.341   3.381   1.779  0.8591  0.3844  0.3591
  422THF    H11 6924   4.311   3.283   1.927 -1.5079 -1.0635 -0.4648
  422THF    H12 6925   4.103   3.369   1.974 -1.0970  0.4511 -0.0323
  422THF    H13 6926   4.183   3.510   1.888 -1.4436  0.2117 -0.6521
  423THF     O1 6927   2.071   1.027   5.079 -0.2394 -0.9491  0.3218
  423THF     C2 6928   2.211   1.020   5.060 -0.7204  0.4618 -0.4583
  423THF     C3 6929   2.005   0.913   5.022  0.1799  0.7745 -0.0322
  423THF     H4 6930   2.271   1.008   5.150 -1.5529 -0.7417 -0.0403
  423THF     H5 6931   2.238   1.106   4.999 -1.0811  0.3887 -0.7248
  423THF     H6 6932   1.993   0.829   5.091  0.2022  0.1981 -0.7262
  423THF     H7 6933   1.908   0.938   4.979  0.9286  1.0985 -1.5666
  423THF     C8 6934   2.109   0.863   4.921  0.1173  0.2586 -0.4700
  423THF     C9 6935   2.240   0.891   4.980 -0.5584  0.2006 -0.3259
  423THF    H10 6936   2.109   0.923   4.830  2.9626 -1.4221 -1.7064
  423THF    H11 6937   2.088   0.759   4.895  0.9172 -0.1697  0.5390
  423THF    H12 6938   2.265   0.805   5.043  1.4560 -0.5995 -2.0586
  423THF    H13 6939   2.326   0.908   4.915  0.4112 -0.1482  0.8088
  424THF     O1 6940   1.164   5.389   1.383 -0.1159 -0.5117  0.2520
  424THF     C2 6941   1.052   5.451   1.325  0.0597 -0.5033 -0.2316
  424THF     C3 6942   1.185   5.264   1.320 -0.9396 -0.2800 -0.4079
  424THF     H4 6943   1.065   5.560   1.326  2.3135 -0.7405  0.0523
  424THF     H5 6944   0.974   5.415   1.392 -1.2760  1.0931 -0.8302
  424THF     H6 6945   1.288   5.230   1.325 -1.0764 -0.9310 -1.6097
  424THF     H7 6946   1.135   5.186   1.378  1.1949 -1.5106 -0.1027
  424THF     C8 6947   1.132   5.279   1.175  0.7215  0.1943 -0.1646
  424THF     C9 6948   1.031   5.395   1.182 -0.6570  0.0711  0.5583
  424THF    H10 6949   1.077   5.191   1.143 -0.0047  0.7963 -0.6018
  424THF    H11 6950   1.207   5.286   1.096 -0.6371 -0.3808 -1.5611
  424THF    H12 6951   1.058   5.468   1.106  3.1322  0.2796  1.9015
  424THF    H13 6952   0.933   5.358   1.151  1.4329 -2.4152 -4.1618
  425THF     O1 6953   3.496   5.390   4.880  0.2192  0.2756 -0.5888
  425THF     C2 6954   3.558   5.458   4.985 -0.4447  0.5137 -0.1727
  425THF     C3 6955   3.393   5.471   4.828 -0.0392  0.1637  0.0048
  425THF     H4 6956   3.662   5.481   4.961  0.0748 -0.1959  1.3159
  425THF     H5 6957   3.568   5.398   5.075  1.9239  0.5987 -0.3136
  425THF     H6 6958   3.416   5.539   4.746 -0.2986  1.1651  0.7515
  425THF     H7 6959   3.311   5.406   4.798 -0.2215  0.1399  0.5489
  425THF     C8 6960   3.337   5.544   4.952 -0.2913  0.2675  0.2797
  425THF     C9 6961   3.472   5.580   5.010 -0.1840  0.5870 -0.1825
  425THF    H10 6962   3.288   5.477   5.022  0.5307 -0.0585  0.5513
  425THF    H11 6963   3.266   5.624   4.929 -2.1468 -1.3325  0.2150
  425THF    H12 6964   3.507   5.674   4.967  0.4123 -0.3424 -1.8427
  425THF    H13 6965   3.458   5.597   5.116  0.1232  1.1173 -0.2243
  426THF     O1 6966   2.824   2.180   0.086 -0.3629 -0.6494  0.5136
  426THF     C2 6967   2.797   2.040   0.085 -0.5770  0.4662  0.4593
  426THF     C3 6968   2.954   2.198   0.129 -0.6216 -0.3598  0.0092
  426THF     H4 6969   2.835   2.006  -0.011  0.8513  0.1455  1.1099
  426THF     H5 6970   2.691   2.015   0.085 -0.1097 -1.8649 -1.1557
  426THF     H6 6971   3.026   2.165   0.055 -0.6407 -1.2062  0.3598
  426THF     H7 6972   2.972   2.304   0.151 -2.8820  0.8584 -3.1914
  426THF     C8 6973   2.961   2.098   0.247  0.4250 -0.5494 -0.0089
  426THF     C9 6974   2.869   1.985   0.207 -0.9554 -0.2913 -0.4391
  426THF    H10 6975   2.913   2.130   0.340 -0.1295 -1.1439 -0.0858
  426THF    H11 6976   3.060   2.054   0.258  1.6139  1.6846 -1.0187
  426THF    H12 6977   2.933   1.899   0.186  1.9148  1.2532  1.3238
  426THF    H13 6978   2.807   1.959   0.293  0.6911  0.7621  1.1579
  427THF     O1 6979   3.973   3.330   2.322 -0.0401 -0.0415 -0.5218
  427THF     C2 6980   3.964   3.462   2.385 -0.5006  0.4172  0.5128
  427THF     C3 6981   3.866   3.255   2.376 -0.1428 -0.3267  0.4020
  427THF     H4 6982   4.014   3.547   2.337 -0.8897 -0.0337 -0.6982
  427THF     H5 6983   4.006   3.458   2.486  0.2526  0.1477  0.1975
  427THF     H6 6984   3.824   3.186   2.302  2.7658  0.0210 -1.7574
  427THF     H7 6985   3.902   3.194   2.459  1.0015  0.9795  0.8964
  427THF     C8 6986   3.756   3.362   2.418 -0.2977  0.3410 -0.2470
  427THF     C9 6987   3.819   3.485   2.372  0.0876 -0.1050 -0.0855
  427THF    H10 6988   3.750   3.374   2.526 -1.1273  0.8747 -0.3424
  427THF    H11 6989   3.654   3.341   2.385  0.5315 -1.6720 -1.7508
  427THF    H12 6990   3.795   3.516   2.271  0.3628  1.0172  0.1798
  427THF    H13 6991   3.771   3.569   2.423 -0.1977  0.2768 -0.9733
  428THF     O1 6992   1.178   2.372   0.682 -0.5456 -0.3329 -0.2769
  428THF     C2 6993   1.040   2.374   0.650  0.2128 -0.6847  0.9087
  428THF     C3 6994   1.251   2.342   0.563  0.7315 -0.5177 -0.0113
  428THF     H4 6995   0.994   2.428   0.733 -0.2984  0.7887 -0.2987
  428THF     H5 6996   0.999   2.272   0.648 -1.0806 -0.1855  1.0493
  428THF     H6 6997   1.353   2.378   0.577  0.4715 -0.3549  1.6568
  428THF     H7 6998   1.261   2.236   0.540 -0.5014 -0.1589 -2.4204
  428THF     C8 6999   1.170   2.409   0.455 -0.7674  0.3769  0.3878
  428THF     C9 7000   1.041   2.457   0.519 -0.4407  0.2948  0.2505
  428THF    H10 7001   1.150   2.330   0.383 -0.4905  0.2248  0.4775
  428THF    H11 7002   1.223   2.484   0.397 -0.1938 -1.3970 -1.5020
  428THF    H12 7003   1.058   2.562   0.541  1.8693  0.1909 -0.7535
  428THF    H13 7004   0.946   2.446   0.466 -0.8387 -2.2877  1.3126
  429THF     O1 7005   3.876   4.312   2.299  0.7459 -0.3405  0.8394
  429THF     C2 7006   3.800   4.381   2.394 -0.2347  0.4734  0.4223
  429THF     C3 7007   3.853   4.168   2.312  0.4912 -0.2344  0.3145
  429THF     H4 7008   3.770   4.478   2.353 -2.2425 -0.1676  0.2580
  429THF     H5 7009   3.866   4.408   2.477  0.9254 -1.6101  0.2566
  429THF     H6 7010   3.880   4.112   2.223 -0.8906 -0.2949 -0.0891
  429THF     H7 7011   3.909   4.135   2.400 -2.1161 -2.9818  1.1103
  429THF     C8 7012   3.698   4.161   2.349 -0.7117  0.3018  0.0695
  429THF     C9 7013   3.687   4.282   2.440  0.4022 -0.1883 -0.0962
  429THF    H10 7014   3.681   4.060   2.387  2.2287 -0.4982 -0.4619
  429THF    H11 7015   3.649   4.182   2.254  2.7833  0.4923 -1.8924
  429THF    H12 7016   3.587   4.325   2.445  0.5266  0.0668  0.2582
  429THF    H13 7017   3.711   4.245   2.540  0.8277 -3.1445 -1.2056
  430THF     O1 7018   0.841   3.962   1.486  0.3070 -0.0665  0.1826
  430THF     C2 7019   0.831   3.945   1.342  0.4592 -0.2588  0.2940
  430THF     C3 7020   0.815   4.093   1.518  0.0020 -1.1188 -0.0033
  430THF     H4 7021   0.776   3.859   1.305  1.0531 -0.1175 -0.9789
  430THF     H5 7022   0.928   3.938   1.294  0.2732  1.7790 -0.4934
  430THF     H6 7023   0.789   4.088   1.624 -0.1647  1.1304  0.0965
  430THF     H7 7024   0.902   4.158   1.509  0.3336 -1.7400 -1.6501
  430THF     C8 7025   0.702   4.133   1.420  0.2981  0.0695  0.3125
  430THF     C9 7026   0.752   4.063   1.295  0.1467  0.0322 -0.0666
  430THF    H10 7027   0.687   4.239   1.398  0.4287 -0.0396 -0.3104
  430THF    H11 7028   0.604   4.093   1.446  0.7848 -1.4912 -0.1307
  430THF    H12 7029   0.671   4.030   1.229  0.4050 -2.0500  0.6237
  430THF    H13 7030   0.806   4.149   1.255 -2.1266  1.8868  0.6327
  431THF     O1 7031   4.417   3.226   1.174 -0.4432  0.1211  0.3785
  431THF     C2 7032   4.536   3.308   1.190 -0.5623 -0.1785 -0.1574
  431THF     C3 7033   4.341   3.239   1.300  0.9122  0.8259 -0.3654
  431THF     H4 7034   4.520   3.414   1.172 -1.5449 -0.4097 -0.6908
  431THF     H5 7035   4.607   3.277   1.113  0.4487  1.5442  0.0468
  431THF     H6 7036   4.288   3.333   1.313 -1.4600 -0.8160  3.9788
  431THF     H7 7037   4.265   3.162   1.312  1.2865  0.2679 -1.3859
  431THF     C8 7038   4.449   3.223   1.402 -0.5970 -0.0592  0.5837
  431THF     C9 7039   4.571   3.289   1.334 -0.4891 -0.0070 -0.3973
  431THF    H10 7040   4.470   3.118   1.420 -1.9449 -0.9096 -2.1873
  431THF    H11 7041   4.428   3.275   1.496 -1.7357  0.4158  0.0872
  431THF    H12 7042   4.593   3.390   1.369  1.8347 -0.4101 -0.4840
  431THF    H13 7043   4.658   3.227   1.356 -1.9064 -1.7213  0.5443
  432THF     O1 7044   1.161   1.182   0.244 -0.1374 -0.5068 -0.0402
  432THF     C2 7045   1.194   1.320   0.203 -0.5305  0.2334 -0.2721
  432THF     C3 7046   1.278   1.105   0.260 -0.0090  0.5596  0.3227
  432THF     H4 7047   1.119   1.385   0.249 -0.0351  1.2221 -0.8226
  432THF     H5 7048   1.193   1.316   0.094  3.0688  2.0503 -0.5411
  432THF     H6 7049   1.262   1.083   0.366  2.4163  0.2853  0.6871
  432THF     H7 7050   1.281   1.010   0.207  3.8067 -0.3751  1.8403
  432THF     C8 7051   1.393   1.198   0.216 -0.4332 -0.7763  0.3657
  432THF     C9 7052   1.335   1.334   0.257 -0.1462 -0.5752 -0.3450
  432THF    H10 7053   1.404   1.209   0.108  2.0989 -0.0437  0.6268
  432THF    H11 7054   1.486   1.173   0.266  0.1718  0.1895 -0.2411
  432THF    H12 7055   1.341   1.356   0.363  0.5650  0.6018 -0.6073
  432THF    H13 7056   1.390   1.414   0.206 -1.3273  0.6398  0.2491
  433THF     O1 7057   0.244   3.230   3.878 -0.6865 -0.7653  0.7596
  433THF     C2 7058   0.208   3.092   3.913  0.3748  0.0125 -0.4129
  433THF     C3 7059   0.174   3.271   3.759 -0.5877  0.7430 -0.6476
  433THF     H4 7060   0.112   3.090   3.963  0.4246 -1.4210 -0.3308
  433THF     H5 7061   0.281   3.053   3.985  1.2392  2.1172 -0.0604
  433THF     H6 7062   0.075   3.298   3.794  0.2624 -1.3289  4.1247
  433THF     H7 7063   0.224   3.357   3.714  2.6687 -1.5223 -1.7200
  433THF     C8 7064   0.163   3.150   3.672  0.3572  0.7705 -0.0744
  433THF     C9 7065   0.197   3.028   3.771  0.3255 -0.1875  0.0735
  433THF    H10 7066   0.244   3.162   3.600  0.6938 -2.5638 -0.4260
  433THF    H11 7067   0.063   3.137   3.631 -0.3219 -2.5571  2.2341
  433THF    H12 7068   0.121   2.950   3.772  0.0592  0.0719  0.9957
  433THF    H13 7069   0.287   2.976   3.739  1.8798  1.5446  1.4546
  434THF     O1 7070   5.182   5.433   4.108 -0.2891  0.0189  0.1904
  434THF     C2 7071   5.147   5.324   4.196  0.0715  0.0247  0.4828
  434THF     C3 7072   5.091   5.431   4.000  0.0250  0.3075 -0.1969
  434THF     H4 7073   5.173   5.353   4.298  1.6870  1.1502 -0.2219
  434THF     H5 7074   5.199   5.231   4.172 -1.1562 -0.1793 -1.6096
  434THF     H6 7075   5.098   5.519   3.936  2.2657 -0.7720 -1.5445
  434THF     H7 7076   5.109   5.353   3.926 -3.4706  1.5443 -2.6162
  434THF     C8 7077   4.961   5.412   4.074  0.2022  0.4896 -0.0902
  434THF     C9 7078   4.996   5.320   4.185 -0.2494  0.2944  0.1584
  434THF    H10 7079   4.874   5.385   4.014  0.6374 -0.2508 -0.4061
  434THF    H11 7080   4.943   5.512   4.113 -2.6567  0.2602 -0.6411
  434THF    H12 7081   4.945   5.346   4.277  0.9112  2.1291  0.3388
  434THF    H13 7082   4.976   5.219   4.150  0.1180  0.0918  0.5308
  435THF     O1 7083   3.834   0.768   1.323 -0.4776 -0.1959 -0.0244
  435THF     C2 7084   3.734   0.737   1.231  0.3428 -0.6725 -0.0634
  435THF     C3 7085   3.816   0.904   1.354  0.0998  0.3331 -0.3062
  435THF     H4 7086   3.643   0.723   1.290  0.3361 -0.0282  0.0865
  435THF     H5 7087   3.762   0.652   1.168  0.3839  0.6629 -1.9413
  435THF     H6 7088   3.743   0.909   1.436 -0.2190 -2.1729 -0.3517
  435THF     H7 7089   3.903   0.947   1.403  0.2495 -1.0630  0.7094
  435THF     C8 7090   3.769   0.970   1.227 -0.6544  0.2520  1.1821
  435THF     C9 7091   3.725   0.856   1.137 -0.2877  0.0442  0.7382
  435THF    H10 7092   3.852   1.018   1.176 -1.4542  0.1837 -0.2551
  435THF    H11 7093   3.690   1.043   1.246 -0.3754  0.4214  1.7114
  435THF    H12 7094   3.623   0.872   1.103  0.8797  1.1953 -2.6616
  435THF    H13 7095   3.794   0.852   1.053 -1.1367  0.2767  0.0202
  436THF     O1 7096   4.909   1.740   0.085 -0.2617  0.9625  0.3848
  436THF     C2 7097   4.835   1.729  -0.037  0.6557  0.4231  0.9824
  436THF     C3 7098   4.814   1.733   0.186  0.1012 -0.3450  0.4366
  436THF     H4 7099   4.898   1.702  -0.122  2.2224 -0.1985  2.2963
  436THF     H5 7100   4.783   1.822  -0.061 -1.5226 -0.9917 -0.0672
  436THF     H6 7101   4.855   1.682   0.273  1.0849  0.5321  0.4976
  436THF     H7 7102   4.776   1.828   0.223 -0.3261 -0.4422  0.2544
  436THF     C8 7103   4.689   1.661   0.131  0.5759  0.0019 -0.5804
  436THF     C9 7104   4.734   1.619  -0.008  0.3329 -0.7042 -0.0563
  436THF    H10 7105   4.604   1.729   0.123  1.1570  0.8475  0.2765
  436THF    H11 7106   4.662   1.570   0.184 -0.1780  0.4758 -0.1435
  436THF    H12 7107   4.790   1.527   0.006  0.5768 -0.5103  0.2432
  436THF    H13 7108   4.651   1.604  -0.077  1.8449 -0.6242 -1.9727
  437THF     O1 7109   1.754   2.368   0.869  0.4637  0.1421  0.9082
  437THF     C2 7110   1.762   2.429   1.001 -0.1738  0.0799  0.1184
  437THF     C3 7111   1.672   2.247   0.874  0.0768 -0.3096 -0.0630
  437THF     H4 7112   1.777   2.536   0.994 -0.6786  0.1461 -0.0378
  437THF     H5 7113   1.837   2.378   1.061 -0.8392 -0.1325  0.7801
  437THF     H6 7114   1.629   2.228   0.776 -0.5376 -0.8058  0.2955
  437THF     H7 7115   1.749   2.175   0.902 -0.3888 -0.5887  0.5249
  437THF     C8 7116   1.575   2.273   0.990  0.2272  0.5954  1.3398
  437THF     C9 7117   1.629   2.398   1.070  0.7165  0.5474  0.9406
  437THF    H10 7118   1.572   2.182   1.050 -1.9133 -1.8198 -2.0813
  437THF    H11 7119   1.472   2.291   0.959  0.1039 -1.9965  0.0057
  437THF    H12 7120   1.566   2.486   1.064  0.6095  0.4002 -0.8703
  437THF    H13 7121   1.656   2.373   1.172 -0.5735  0.9378  1.3925
  438THF     O1 7122   3.915   1.231   3.189  0.5575  0.3898 -0.3877
  438THF     C2 7123   3.966   1.107   3.159  0.1203  0.4718  0.0720
  438THF     C3 7124   4.022   1.311   3.234 -0.0914  0.3705  0.2305
  438THF     H4 7125   3.987   1.093   3.053 -0.9941 -0.6858 -0.0299
  438THF     H5 7126   3.897   1.025   3.181  1.5616 -1.1554 -1.1679
  438THF     H6 7127   4.095   1.352   3.165 -0.4680  1.0502  0.2244
  438THF     H7 7128   3.992   1.396   3.297  1.3221  1.0650  0.0037
  438THF     C8 7129   4.091   1.217   3.327 -0.5757 -0.0148 -0.2260
  438THF     C9 7130   4.098   1.091   3.245  0.8922 -0.2502  0.6830
  438THF    H10 7131   4.043   1.202   3.423  0.0734  2.5349  0.5652
  438THF    H11 7132   4.193   1.255   3.337 -1.2400  1.9250 -0.4629
  438THF    H12 7133   4.198   1.094   3.201  0.0028 -1.0113 -1.5578
  438THF    H13 7134   4.086   0.996   3.298  1.3559 -1.8936 -1.9626
  439THF     O1 7135   4.913   4.452   0.983 -0.2259  0.0609  0.2497
  439THF     C2 7136   4.797   4.488   1.056 -0.2115 -0.2175  0.1626
  439THF     C3 7137   4.986   4.364   1.060 -0.0284 -0.3802  0.4983
  439THF     H4 7138   4.721   4.409   1.060  0.7219 -1.0956  1.5353
  439THF     H5 7139   4.737   4.574   1.025  1.0564  0.0850 -1.6233
  439THF     H6 7140   4.972   4.258   1.041 -0.2213 -0.0964 -1.0417
  439THF     H7 7141   5.094   4.371   1.046  0.1161  0.9273  1.9753
  439THF     C8 7142   4.951   4.398   1.205  0.1738 -0.3971  0.4580
  439THF     C9 7143   4.851   4.511   1.199  0.2967  0.5423  0.2033
  439THF    H10 7144   5.041   4.430   1.258  0.2835  0.3280 -0.1551
  439THF    H11 7145   4.913   4.310   1.257 -0.6928 -0.7173 -0.6877
  439THF    H12 7146   4.777   4.498   1.278 -1.2118 -0.6583 -1.3312
  439THF    H13 7147   4.898   4.609   1.195  3.2039 -0.7889 -2.2085
  440THF     O1 7148   2.273   0.299   2.782  0.2107  0.5714 -0.9492
  440THF     C2 7149   2.341   0.411   2.831 -0.3809 -0.1181  0.5249
  440THF     C3 7150   2.208   0.332   2.657  0.7196 -0.1181 -0.1150
  440THF     H4 7151   2.447   0.405   2.808 -0.3303 -1.3265  1.0016
  440THF     H5 7152   2.340   0.420   2.939 -1.6970  1.5248  0.4159
  440THF     H6 7153   2.279   0.311   2.578  2.3431 -2.6251  1.8463
  440THF     H7 7154   2.121   0.268   2.644  0.4029  0.2433  0.2016
  440THF     C8 7155   2.179   0.480   2.666  0.3022 -0.5485  0.1553
  440THF     C9 7156   2.281   0.528   2.763  0.6195  0.0043  0.2098
  440THF    H10 7157   2.082   0.504   2.710 -1.1140 -1.8501 -2.0730
  440THF    H11 7158   2.194   0.535   2.574 -0.7155 -0.3283  0.1076
  440THF    H12 7159   2.358   0.596   2.725 -0.3920  2.3830  2.1454
  440THF    H13 7160   2.234   0.585   2.844 -1.0332 -0.6622 -0.2592
  441THF     O1 7161   4.498   2.657   0.350 -0.0491 -0.6476 -0.0954
  441THF     C2 7162   4.445   2.748   0.449  0.4353 -0.4536  0.3667
  441THF     C3 7163   4.427   2.657   0.231 -0.7711  0.4444  0.1692
  441THF     H4 7164   4.527   2.816   0.475  0.3887  0.3444 -1.4272
  441THF     H5 7165   4.398   2.692   0.529 -0.0595  0.2290  0.5638
  441THF     H6 7166   4.479   2.715   0.154 -1.0645  1.5778  0.7986
  441THF     H7 7167   4.431   2.558   0.186 -1.5085  0.7613 -0.6358
  441THF     C8 7168   4.292   2.708   0.275 -0.3163  0.1934  0.0048
  441THF     C9 7169   4.337   2.824   0.364 -0.0392  1.6553  0.9434
  441THF    H10 7170   4.229   2.641   0.333  0.2605  0.5978  1.1180
  441THF    H11 7171   4.236   2.748   0.190  1.2445  1.7231 -0.3521
  441THF    H12 7172   4.376   2.909   0.308 -1.2117  1.8339  0.3461
  441THF    H13 7173   4.250   2.865   0.415 -1.9334  2.3440 -2.4653
  442THF     O1 7174   4.982   3.010   3.320 -0.0798 -0.6233  0.9260
  442THF     C2 7175   4.920   3.139   3.296 -0.4892  0.0804 -0.6996
  442THF     C3 7176   5.063   2.977   3.202 -0.3357  0.0192 -0.1360
  442THF     H4 7177   4.966   3.214   3.360  2.2406 -1.5460 -0.6082
  442THF     H5 7178   4.813   3.153   3.311 -0.5216 -0.9618  0.0994
  442THF     H6 7179   5.158   3.032   3.206 -0.4241  0.3749 -2.1094
  442THF     H7 7180   5.059   2.869   3.192 -0.9859 -0.0985  1.1917
  442THF     C8 7181   4.994   3.043   3.084  0.3370 -0.2201 -0.3775
  442THF     C9 7182   4.943   3.170   3.149 -0.7637 -0.4954 -0.7850
  442THF    H10 7183   4.909   2.982   3.052 -0.0869  0.0777  0.1627
  442THF    H11 7184   5.073   3.057   3.010  0.6647  0.0748  0.0264
  442THF    H12 7185   5.023   3.244   3.149 -0.1345 -1.0693  1.7462
  442THF    H13 7186   4.857   3.215   3.099  0.1604  0.8283 -1.2453
  443THF     O1 7187   1.048   3.065   2.284  0.6575  0.6700  0.0641
  443THF     C2 7188   1.167   3.118   2.335 -0.4805 -0.8781 -0.1899
  443THF     C3 7189   0.937   3.120   2.347  0.2253  0.0065  0.0433
  443THF     H4 7190   1.252   3.106   2.267  0.5479  1.5738  0.5348
  443THF     H5 7191   1.206   3.075   2.428  0.1462  0.5255  0.2336
  443THF     H6 7192   0.850   3.132   2.283 -0.9141 -1.0838  1.3221
  443THF     H7 7193   0.911   3.050   2.426 -2.7661  1.0968  0.1695
  443THF     C8 7194   0.983   3.247   2.421  0.3329  0.4818  0.3994
  443THF     C9 7195   1.122   3.260   2.374 -0.5553 -0.4916 -0.1985
  443THF    H10 7196   0.978   3.249   2.530  1.0081  1.7012  0.4267
  443THF    H11 7197   0.940   3.342   2.388 -1.8264 -1.3899 -2.7351
  443THF    H12 7198   1.116   3.307   2.276  1.2945 -1.7167 -0.9703
  443THF    H13 7199   1.191   3.314   2.439  0.8308 -0.7820 -1.3856
  444THF     O1 7200   2.195   0.422   5.234 -0.1060  0.0713 -0.0288
  444THF     C2 7201   2.294   0.522   5.222 -0.3315 -0.1982  0.4514
  444THF     C3 7202   2.261   0.297   5.271  0.2654 -0.1946  0.1356
  444THF     H4 7203   2.294   0.569   5.320 -3.1899 -1.9877  1.4290
  444THF     H5 7204   2.265   0.594   5.146 -0.3529  0.7758  1.3586
  444THF     H6 7205   2.245   0.286   5.378 -1.9272 -2.2690 -0.3197
  444THF     H7 7206   2.234   0.206   5.218  1.6535  1.0777 -3.0246
  444THF     C8 7207   2.403   0.314   5.240  0.0591  0.5232 -0.1145
  444THF     C9 7208   2.419   0.451   5.181 -0.5581 -0.0384  0.2443
  444THF    H10 7209   2.447   0.240   5.173 -1.6013 -1.0954  0.4697
  444THF    H11 7210   2.457   0.307   5.334 -0.7273  0.0608  0.3175
  444THF    H12 7211   2.507   0.500   5.222 -0.8009 -0.6346  1.5218
  444THF    H13 7212   2.424   0.459   5.072 -1.3017 -2.0540  0.0125
  445THF     O1 7213   5.278   1.876   4.299  0.5097 -0.0181  0.6521
  445THF     C2 7214   5.145   1.907   4.350  0.3667  0.0594 -0.3867
  445THF     C3 7215   5.366   1.837   4.410 -0.4709  0.1345  0.1838
  445THF     H4 7216   5.075   1.824   4.344  0.2550  0.0032  1.2153
  445THF     H5 7217   5.105   1.995   4.300 -0.0662 -0.0422 -0.2241
  445THF     H6 7218   5.348   1.730   4.419 -1.3604  0.1802 -0.8454
  445THF     H7 7219   5.472   1.851   4.389  0.6260 -3.7172  2.1286
  445THF     C8 7220   5.322   1.934   4.520 -0.8836 -0.2469 -0.2003
  445THF     C9 7221   5.175   1.940   4.498  0.0022 -0.3130 -0.2399
  445THF    H10 7222   5.361   2.034   4.501 -0.0552 -0.3061  1.0618
  445THF    H11 7223   5.359   1.899   4.616  2.4662  0.0228 -1.2871
  445THF    H12 7224   5.122   1.868   4.560  1.7791 -0.2546  1.4634
  445THF    H13 7225   5.142   2.036   4.537 -0.3342 -0.8175  0.7347
  446THF     O1 7226   5.408   5.178   1.740  0.7430  0.3755 -0.3861
  446THF     C2 7227   5.443   5.183   1.879 -0.4480 -0.3839  0.5689
  446THF     C3 7228   5.487   5.075   1.689 -0.3198 -1.0096  0.5627
  446THF     H4 7229   5.376   5.250   1.933  1.2815  2.3771 -0.4655
  446THF     H5 7230   5.537   5.239   1.878 -0.8613  0.6481 -4.0721
  446THF     H6 7231   5.481   5.046   1.584 -1.4911 -1.3090  0.7047
  446THF     H7 7232   5.594   5.094   1.693 -0.3587 -0.6679  0.1227
  446THF     C8 7233   5.467   4.960   1.789 -0.2132 -0.2129 -0.2170
  446THF     C9 7234   5.448   5.039   1.920 -0.5028  0.2431 -0.7240
  446THF    H10 7235   5.550   4.890   1.800  0.7316  0.9499  0.3350
  446THF    H11 7236   5.372   4.909   1.772  0.7363 -2.0646 -0.2829
  446THF    H12 7237   5.358   5.010   1.973 -1.9750  0.7912 -2.7901
  446THF    H13 7238   5.527   5.015   1.991 -1.1522  0.4051  0.0597
  447THF     O1 7239   3.327   0.079   3.845  0.1502 -0.0612 -0.0705
  447THF     C2 7240   3.428  -0.009   3.892  0.5795  0.2594 -0.1528
  447THF     C3 7241   3.205   0.028   3.906 -0.5290  0.4450  0.1301
  447THF     H4 7242   3.528   0.029   3.877  1.1284 -0.2508  1.8260
  447THF     H5 7243   3.409  -0.103   3.839 -0.3662  0.1136  0.4093
  447THF     H6 7244   3.130   0.107   3.907 -0.7620  0.2197  0.2421
  447THF     H7 7245   3.177  -0.057   3.844  2.6085 -1.7563  1.4277
  447THF     C8 7246   3.244  -0.019   4.047 -0.3179 -0.5002  0.2746
  447THF     C9 7247   3.395  -0.033   4.040 -0.1535  0.3572 -0.2123
  447THF    H10 7248   3.196  -0.112   4.076 -2.2279 -1.1343 -4.0883
  447THF    H11 7249   3.202   0.054   4.116 -0.9310 -2.2295  1.7877
  447THF    H12 7250   3.441   0.044   4.102 -0.4945  0.0070  0.4887
  447THF    H13 7251   3.418  -0.135   4.073 -2.5569 -0.7549 -1.7122
  448THF     O1 7252   3.326   1.738   0.352  0.4476  0.0884 -0.1542
  448THF     C2 7253   3.463   1.726   0.326 -0.0011 -0.1278 -0.3183
  448THF     C3 7254   3.308   1.841   0.449  0.1009  0.2564  0.5841
  448THF     H4 7255   3.497   1.810   0.267 -0.4493 -0.1353 -0.5967
  448THF     H5 7256   3.492   1.632   0.278 -0.5715  0.0041 -0.9385
  448THF     H6 7257   3.337   1.939   0.412  0.9438 -0.2280 -0.0461
  448THF     H7 7258   3.204   1.828   0.479 -0.1298  0.4691 -0.0973
  448THF     C8 7259   3.414   1.808   0.555 -0.7254  0.4767  0.5865
  448THF     C9 7260   3.522   1.743   0.465 -0.1313  0.3749  0.1775
  448THF    H10 7261   3.371   1.735   0.623 -1.5021  0.8744  0.5383
  448THF    H11 7262   3.431   1.906   0.600 -0.9756  1.5864 -1.5544
  448THF    H12 7263   3.619   1.793   0.455  1.2816 -2.2377 -0.0321
  448THF    H13 7264   3.543   1.641   0.497 -0.6907 -0.2202 -1.2712
  449THF     O1 7265   1.036   0.475   0.820  0.1049  0.2022 -0.0984
  449THF     C2 7266   0.939   0.577   0.847  0.3307 -0.1975  0.3074
  449THF     C3 7267   1.079   0.432   0.955 -0.4789  0.3933 -0.8052
  449THF     H4 7268   0.859   0.545   0.780 -0.5994 -0.3356  1.4552
  449THF     H5 7269   0.971   0.680   0.832 -1.2918  0.2156 -0.6215
  449THF     H6 7270   1.114   0.329   0.950 -1.6301 -0.0638  0.1049
  449THF     H7 7271   1.161   0.494   0.989  0.4535 -0.4163 -1.5203
  449THF     C8 7272   0.952   0.439   1.034  0.3300 -0.1110  0.3038
  449THF     C9 7273   0.885   0.566   0.985 -0.4970 -0.2535 -0.1911
  449THF    H10 7274   0.948   0.422   1.141 -0.4149  0.0234  0.3050
  449THF    H11 7275   0.899   0.349   1.001 -0.5936  0.8048 -0.8253
  449THF    H12 7276   0.776   0.569   0.991 -0.4444  1.8381  0.6257
  449THF    H13 7277   0.927   0.645   1.046 -0.6723  1.4155 -2.1393
  450THF     O1 7278   3.519   0.758   0.004  0.0571 -0.0012 -0.1043
  450THF     C2 7279   3.432   0.779   0.113  0.7592  0.8412 -1.1472
  450THF     C3 7280   3.434   0.713  -0.098  0.1390  0.8690  0.1624
  450THF     H4 7281   3.478   0.830   0.198  2.5670 -3.2088  0.5651
  450THF     H5 7282   3.407   0.680   0.151 -3.0878  1.3738 -1.8301
  450THF     H6 7283   3.493   0.710  -0.189  1.5892 -0.8231  1.1054
  450THF     H7 7284   3.385   0.617  -0.080  1.1079  0.6978  2.1139
  450THF     C8 7285   3.323   0.819  -0.091  0.3640 -0.0445 -0.0046
  450THF     C9 7286   3.309   0.842   0.054  0.0611 -0.0268 -0.5727
  450THF    H10 7287   3.232   0.774  -0.133  0.3683  0.9718 -1.1788
  450THF    H11 7288   3.344   0.911  -0.147 -1.5220  1.1630  1.1561
  450THF    H12 7289   3.321   0.950   0.059 -0.1123 -0.0622  0.7517
  450THF    H13 7290   3.212   0.803   0.085 -0.8658  2.1761 -0.4494
  451THF     O1 7291   5.348   1.860   5.409 -0.0066  0.2513  0.1267
  451THF     C2 7292   5.213   1.821   5.369 -0.1530  0.0540 -0.7067
  451THF     C3 7293   5.426   1.731   5.422  0.0676  0.4100 -0.3276
  451THF     H4 7294   5.165   1.907   5.321  1.0264  3.3581  3.4700
  451THF     H5 7295   5.147   1.797   5.453  2.3058  0.1551  1.3697
  451THF     H6 7296   5.532   1.753   5.422 -0.4221  3.0458 -0.7420
  451THF     H7 7297   5.391   1.680   5.512 -2.8072  0.6534 -1.1848
  451THF     C8 7298   5.382   1.660   5.295 -0.3219  0.2479  1.0851
  451THF     C9 7299   5.239   1.693   5.280  0.4082 -0.6608 -0.4050
  451THF    H10 7300   5.397   1.552   5.290 -0.1690  0.2670  1.1279
  451THF    H11 7301   5.438   1.702   5.211 -0.6876 -0.9353  0.2171
  451THF    H12 7302   5.221   1.728   5.178 -0.8928 -0.5949 -0.1724
  451THF    H13 7303   5.173   1.612   5.307 -0.4980 -0.4016 -1.7260
  452THF     O1 7304   2.378   4.689   4.691 -0.0930  0.1111 -0.5828
  452THF     C2 7305   2.381   4.776   4.575 -0.1246 -0.2197  0.1171
  452THF     C3 7306   2.414   4.560   4.646  0.4177 -0.0319  0.5726
  452THF     H4 7307   2.373   4.881   4.603  0.1387  0.3804 -1.8910
  452THF     H5 7308   2.289   4.742   4.527  0.3045 -0.3991 -0.6112
  452THF     H6 7309   2.450   4.501   4.731 -0.5022  0.5695  1.4030
  452THF     H7 7310   2.325   4.514   4.603 -0.9846 -2.8290  5.5245
  452THF     C8 7311   2.512   4.585   4.523 -0.2278 -0.3935 -0.1240
  452THF     C9 7312   2.516   4.737   4.502 -0.4323  1.0136  0.1913
  452THF    H10 7313   2.483   4.526   4.436  1.2728 -2.1715  0.5180
  452THF    H11 7314   2.610   4.547   4.551 -0.1890  0.9970  1.8015
  452THF    H12 7315   2.610   4.769   4.546  0.0655  0.1016 -0.1731
  452THF    H13 7316   2.520   4.752   4.394  0.6280 -0.0487  0.0544
  453THF     O1 7317   1.321   4.424   4.559 -0.6047  0.1857  0.8911
  453THF     C2 7318   1.439   4.470   4.619 -0.4315 -0.8390 -0.3025
  453THF     C3 7319   1.257   4.535   4.499 -0.6547 -0.0613  0.3958
  453THF     H4 7320   1.511   4.390   4.631 -0.5479 -0.9951 -0.6320
  453THF     H5 7321   1.405   4.506   4.717  0.4983  2.3603 -1.0261
  453THF     H6 7322   1.208   4.499   4.408 -0.3423  0.6915 -0.0766
  453THF     H7 7323   1.186   4.562   4.577  0.0591 -4.3325  2.8545
  453THF     C8 7324   1.367   4.641   4.468  0.2597  0.2304  0.4275
  453THF     C9 7325   1.495   4.575   4.520  0.6212  0.4786 -0.2712
  453THF    H10 7326   1.335   4.724   4.532 -1.0447  0.5506 -0.5932
  453THF    H11 7327   1.361   4.690   4.370 -1.2296  0.2058  0.4862
  453THF    H12 7328   1.549   4.520   4.443  0.5978 -1.0065  0.7359
  453THF    H13 7329   1.556   4.655   4.562 -0.1316  1.3118 -0.7207
  454THF     O1 7330   2.208   2.817   2.798 -0.1722  0.9048 -0.0229
  454THF     C2 7331   2.222   2.685   2.749  0.3579 -0.2991 -0.9593
  454THF     C3 7332   2.165   2.885   2.683  0.2204 -0.5055 -0.2424
  454THF     H4 7333   2.124   2.638   2.739  0.1171 -0.4293  1.4156
  454THF     H5 7334   2.285   2.641   2.827  1.5237  1.4124 -0.8959
  454THF     H6 7335   2.063   2.861   2.654 -0.7918 -0.7216  3.0574
  454THF     H7 7336   2.176   2.994   2.687 -3.7167  0.0201  3.1343
  454THF     C8 7337   2.272   2.837   2.584  0.0749 -0.4180  0.3076
  454THF     C9 7338   2.281   2.694   2.619  0.1287 -0.0640  0.4799
  454THF    H10 7339   2.359   2.898   2.608 -1.9756  2.0267  2.1363
  454THF    H11 7340   2.255   2.849   2.477  1.6987 -0.7926 -0.0269
  454THF    H12 7341   2.231   2.625   2.551  0.9706 -0.4132  0.2097
  454THF    H13 7342   2.386   2.670   2.634 -0.7613 -2.7728  3.5933
  455THF     O1 7343   3.842   0.402   2.753  0.1444  0.4188  0.3776
  455THF     C2 7344   3.960   0.325   2.751 -0.2462 -0.0159  0.0489
  455THF     C3 7345   3.727   0.325   2.786 -0.0598  0.9026 -0.1418
  455THF     H4 7346   4.025   0.341   2.837  2.9022  1.6850 -2.4453
  455THF     H5 7347   4.015   0.329   2.657  0.4738  1.8399  0.5026
  455THF     H6 7348   3.705   0.317   2.893 -0.1332 -0.0306 -0.2214
  455THF     H7 7349   3.633   0.351   2.737 -0.6424 -1.3313 -0.2835
  455THF     C8 7350   3.770   0.194   2.725  0.2238 -0.2044  0.1697
  455THF     C9 7351   3.908   0.184   2.767  0.4489 -0.4701 -0.9533
  455THF    H10 7352   3.764   0.208   2.617  0.0012 -1.6540 -0.0333
  455THF    H11 7353   3.712   0.107   2.755  1.6559 -0.7334  1.5714
  455THF    H12 7354   3.915   0.137   2.865 -0.4560  0.0419 -0.6278
  455THF    H13 7355   3.959   0.119   2.696  0.9737  0.0970 -1.0966
  456THF     O1 7356   2.638   2.046   1.244  0.1261 -0.1339 -0.2941
  456THF     C2 7357   2.591   2.156   1.160 -0.0252  0.4796  0.0918
  456THF     C3 7358   2.556   1.934   1.220  0.2630  0.0771  0.4744
  456THF     H4 7359   2.674   2.217   1.126  0.3433 -0.3105 -0.4758
  456THF     H5 7360   2.517   2.223   1.204 -0.1571  1.2614 -1.2727
  456THF     H6 7361   2.607   1.845   1.258  1.7697  1.1174  0.9915
  456THF     H7 7362   2.466   1.946   1.281  0.7436 -0.7556  1.3864
  456THF     C8 7363   2.536   1.946   1.066 -0.4832 -0.0712  0.1285
  456THF     C9 7364   2.525   2.095   1.034  0.0973 -0.3816 -0.2801
  456THF    H10 7365   2.452   1.888   1.028 -1.3390  1.3895 -0.2677
  456THF    H11 7366   2.630   1.898   1.037 -0.9436 -0.9840  0.1162
  456THF    H12 7367   2.583   2.128   0.948  1.5598 -1.4199  0.2549
  456THF    H13 7368   2.422   2.127   1.022  0.3747  0.9244  0.6663
  457THF     O1 7369   0.850   1.635   4.961  0.0051 -0.2706 -0.0107
  457THF     C2 7370   0.773   1.712   4.869  0.5616 -0.1354  0.4515
  457THF     C3 7371   0.800   1.502   4.972  0.5375 -0.3842 -0.5249
  457THF     H4 7372   0.843   1.742   4.790  0.0926 -0.5735 -0.1404
  457THF     H5 7373   0.723   1.801   4.908 -0.8913 -0.3411 -0.8364
  457THF     H6 7374   0.884   1.434   4.974 -1.0928 -2.5474 -1.5677
  457THF     H7 7375   0.730   1.496   5.055 -0.5479  0.9871 -1.2970
  457THF     C8 7376   0.720   1.482   4.842 -0.3959 -0.0422 -0.1181
  457THF     C9 7377   0.662   1.615   4.820  0.5088  0.2191 -0.3225
  457THF    H10 7378   0.644   1.404   4.848  0.2853 -0.6298  3.6855
  457THF    H11 7379   0.781   1.448   4.759 -1.1312 -1.9834  0.0738
  457THF    H12 7380   0.628   1.625   4.717 -0.8764 -2.2726 -0.1999
  457THF    H13 7381   0.567   1.621   4.872  1.0992  1.0115  0.6951
  458THF     O1 7382   1.135   0.392   3.347  0.6531 -0.2847  0.4000
  458THF     C2 7383   1.155   0.530   3.308  0.2654 -0.3238 -0.0586
  458THF     C3 7384   1.252   0.356   3.424  0.2561  0.1699 -0.0767
  458THF     H4 7385   1.132   0.604   3.385  0.5849  1.3611 -1.5131
  458THF     H5 7386   1.085   0.574   3.238 -0.9691 -0.3950  1.0842
  458THF     H6 7387   1.232   0.396   3.524  1.3651 -0.5346  0.4407
  458THF     H7 7388   1.272   0.249   3.434 -2.7476 -0.3795  1.1899
  458THF     C8 7389   1.368   0.426   3.355  0.2453  0.6395 -0.4765
  458THF     C9 7390   1.304   0.536   3.273 -0.0351 -0.1999 -0.1145
  458THF    H10 7391   1.422   0.354   3.293 -0.2971 -1.6402  1.5527
  458THF    H11 7392   1.428   0.462   3.438  0.5303 -0.5877 -0.1286
  458THF    H12 7393   1.352   0.632   3.294 -0.5555 -0.4199  2.4212
  458THF    H13 7394   1.315   0.534   3.165  2.1886  1.1761  0.0114
  459THF     O1 7395   0.456   5.343   4.707  0.1930  0.1527 -0.0056
  459THF     C2 7396   0.509   5.246   4.623 -0.3370 -0.6056 -0.0000
  459THF     C3 7397   0.314   5.331   4.708  0.4351 -0.1769 -0.8993
  459THF     H4 7398   0.613   5.235   4.653  0.1869 -1.6928 -1.9735
  459THF     H5 7399   0.531   5.286   4.524  0.1900 -2.0879 -0.5134
  459THF     H6 7400   0.278   5.370   4.804  1.2707 -1.1886 -0.1531
  459THF     H7 7401   0.265   5.390   4.631 -1.2504  0.5008  0.6035
  459THF     C8 7402   0.289   5.184   4.707  0.1520 -0.0126  0.0724
  459THF     C9 7403   0.412   5.130   4.629  0.2424  0.1213 -0.2441
  459THF    H10 7404   0.197   5.164   4.651  0.1333  2.6030 -1.0305
  459THF    H11 7405   0.286   5.139   4.806  0.3121 -0.3218 -0.0622
  459THF    H12 7406   0.445   5.037   4.675  0.7690  0.4749  0.1060
  459THF    H13 7407   0.388   5.096   4.528  2.9821 -0.3524 -0.8111
  460THF     O1 7408   2.056   1.784   2.788 -0.1551 -0.2155 -0.5298
  460THF     C2 7409   1.922   1.806   2.823 -0.2716  0.1230 -0.1188
  460THF     C3 7410   2.049   1.703   2.676  0.6219  1.4577 -0.4652
  460THF     H4 7411   1.875   1.881   2.760  1.6090  1.3799 -0.1074
  460THF     H5 7412   1.903   1.850   2.921 -1.7422  0.3170 -0.4580
  460THF     H6 7413   2.043   1.766   2.587  0.8611 -0.1310 -1.6470
  460THF     H7 7414   2.131   1.631   2.665 -1.9711 -1.8660  0.3155
  460THF     C8 7415   1.916   1.618   2.677 -0.5317 -0.7670 -0.6079
  460THF     C9 7416   1.855   1.670   2.809  0.0730  0.0163 -0.3460
  460THF    H10 7417   1.935   1.511   2.680  0.5254 -0.5563  0.9916
  460THF    H11 7418   1.850   1.646   2.595 -0.1585  1.7620 -0.1340
  460THF    H12 7419   1.746   1.670   2.809  0.0352 -1.9343  0.4433
  460THF    H13 7420   1.890   1.605   2.889  0.0549  0.6376  0.1694
  461THF     O1 7421   3.110   0.579   2.573  0.7229  0.0189 -0.0134
  461THF     C2 7422   3.076   0.723   2.553 -1.2169 -0.4355 -0.9256
  461THF     C3 7423   3.058   0.544   2.701  0.6515 -1.3033  0.0888
  461THF     H4 7424   2.968   0.726   2.537 -1.1743 -0.4913 -1.2297
  461THF     H5 7425   3.129   0.766   2.467  2.5840 -1.5730  0.6493
  461THF     H6 7426   2.950   0.526   2.707  0.8302 -2.4128  0.1916
  461THF     H7 7427   3.112   0.455   2.731  2.4324 -0.0034  0.8693
  461THF     C8 7428   3.070   0.671   2.785 -0.1443  0.1752  0.6964
  461THF     C9 7429   3.117   0.780   2.686  0.7551 -0.2479  0.2997
  461THF    H10 7430   3.142   0.658   2.866 -1.4898  1.4217  2.1484
  461THF    H11 7431   2.975   0.700   2.830 -1.3499 -0.2881 -1.4430
  461THF    H12 7432   3.060   0.870   2.710  2.4937  0.8322  0.5017
  461THF    H13 7433   3.224   0.797   2.694  0.5405  0.8655  1.0060
  462THF     O1 7434   2.727   2.175   4.547 -0.0552 -0.5557 -1.2117
  462THF     C2 7435   2.584   2.151   4.540 -0.4762 -0.4695  0.1266
  462THF     C3 7436   2.755   2.271   4.442  0.2678  0.5816 -0.1891
  462THF     H4 7437   2.546   2.159   4.642 -1.3280  0.9679 -0.2759
  462THF     H5 7438   2.585   2.052   4.494 -3.7305 -0.1542 -0.8885
  462THF     H6 7439   2.832   2.342   4.473  0.6120 -0.1410  0.6343
  462THF     H7 7440   2.786   2.225   4.348  0.5243 -0.7601  0.5229
  462THF     C8 7441   2.624   2.352   4.417 -0.4664  0.3908 -0.3445
  462THF     C9 7442   2.519   2.249   4.433 -0.0338  0.8505 -0.5411
  462THF    H10 7443   2.625   2.396   4.318  1.3930  1.6128  0.1687
  462THF    H11 7444   2.597   2.435   4.482 -2.6205 -0.5509  0.0556
  462THF    H12 7445   2.425   2.293   4.468  0.1756 -0.9620  2.6760
  462THF    H13 7446   2.504   2.192   4.342  1.7016 -0.6708  0.0625
  463THF     O1 7447   0.736   0.154   3.455 -0.7550  0.1817 -0.3744
  463THF     C2 7448   0.737   0.069   3.559  0.3454  0.7784  0.0937
  463THF     C3 7449   0.875   0.170   3.415  0.0687  0.8697 -0.0697
  463THF     H4 7450   0.639   0.025   3.581  0.6153  1.4296  3.0283
  463THF     H5 7451   0.767   0.118   3.651  2.3717  0.7632 -0.5187
  463THF     H6 7452   0.886   0.216   3.317  0.1340  0.1128 -0.4240
  463THF     H7 7453   0.925   0.236   3.486  2.9420 -0.6212 -0.5472
  463THF     C8 7454   0.909   0.020   3.409  0.3081 -0.4899 -0.0519
  463THF     C9 7455   0.839  -0.036   3.520  0.7316  0.6647 -0.4126
  463THF    H10 7456   1.015   0.000   3.396  1.3787  4.0661  0.0061
  463THF    H11 7457   0.874  -0.017   3.313  0.3857  0.8397 -0.6105
  463THF    H12 7458   0.786  -0.123   3.482  0.0085  1.9929 -2.6041
  463THF    H13 7459   0.903  -0.061   3.605 -0.2320  0.9725  0.4123
  464THF     O1 7460   5.292   4.619   5.307 -0.2488  0.3436  0.5164
  464THF     C2 7461   5.285   4.736   5.387  0.0505 -0.0685  0.5420
  464THF     C3 7462   5.363   4.649   5.185 -0.2408  0.4442  0.0511
  464THF     H4 7463   5.297   4.711   5.492  1.4665  0.4636  0.5313
  464THF     H5 7464   5.197   4.799   5.371  0.8801  0.7649 -1.0161
  464THF     H6 7465   5.406   4.560   5.137  0.8210  1.5714 -1.1772
  464THF     H7 7466   5.288   4.704   5.127 -2.6763  0.6856  3.1772
  464THF     C8 7467   5.469   4.747   5.223 -0.4665 -0.0473 -0.4917
  464THF     C9 7468   5.421   4.806   5.356  0.7292 -0.9140 -0.3369
  464THF    H10 7469   5.496   4.827   5.155 -0.6940  1.4935  1.1757
  464THF    H11 7470   5.558   4.687   5.242 -0.0579  0.8643  0.5579
  464THF    H12 7471   5.493   4.787   5.436  1.6327  0.3163 -0.8190
  464THF    H13 7472   5.404   4.912   5.337  0.2208 -0.7741  0.8143
  465THF     O1 7473   0.055   1.150   0.524 -0.3335  0.8340  0.3098
  465THF     C2 7474   0.105   1.036   0.460  0.0657 -0.7390  0.5813
  465THF     C3 7475  -0.067   1.117   0.585 -0.3559  0.4539 -0.2177
  465THF     H4 7476   0.212   1.043   0.484 -0.3773  0.3904  2.4304
  465THF     H5 7477   0.088   1.047   0.353 -1.7713 -1.9675  0.7145
  465THF     H6 7478  -0.110   1.192   0.651  0.8949  0.2655  0.8581
  465THF     H7 7479  -0.142   1.109   0.506 -1.8237  2.1778  0.9244
  465THF     C8 7480  -0.043   0.974   0.642 -0.4616 -0.6544 -0.2684
  465THF     C9 7481   0.036   0.922   0.528 -0.2768  0.6900  0.0574
  465THF    H10 7482  -0.134   0.923   0.675  0.1397 -2.1225 -0.7839
  465THF    H11 7483   0.027   0.980   0.725  0.6506 -3.0499 -0.9285
  465THF    H12 7484   0.111   0.851   0.563  0.5171  1.2063 -0.5730
  465THF    H13 7485  -0.024   0.883   0.446  1.5832  1.0521 -1.5421
  466THF     O1 7486   3.930   5.350   4.659 -0.5881 -0.1896  0.6800
  466THF     C2 7487   3.850   5.373   4.776  0.3590 -0.1269 -0.3133
  466THF     C3 7488   3.980   5.217   4.671  0.2958  0.0089  0.3602
  466THF     H4 7489   3.743   5.363   4.758  0.4237  0.2955 -0.9629
  466THF     H5 7490   3.872   5.478   4.797 -2.1161 -0.1277  3.0907
  466THF     H6 7491   3.895   5.157   4.637 -0.8131  2.1418 -0.8213
  466THF     H7 7492   4.078   5.219   4.622  1.4298  0.0722  2.5293
  466THF     C8 7493   4.007   5.207   4.816  0.8226  0.4501  0.0924
  466THF     C9 7494   3.895   5.279   4.885 -0.0423  0.5474 -0.0015
  466THF    H10 7495   4.103   5.253   4.838  1.5091 -0.2462 -1.3496
  466THF    H11 7496   4.022   5.109   4.862  0.5943  1.0124  1.4207
  466THF    H12 7497   3.815   5.215   4.922 -0.5390  0.5916 -0.9548
  466THF    H13 7498   3.914   5.341   4.972 -2.9620  0.9284  0.4673
  467THF     O1 7499   4.039   3.053   0.555 -0.0910  0.0625 -0.1617
  467THF     C2 7500   3.927   3.132   0.591 -0.6772  0.9948  0.9344
  467THF     C3 7501   4.027   2.990   0.429 -0.1876  0.1259 -0.4310
  467THF     H4 7502   3.957   3.201   0.670  2.5258  2.5218 -1.3985
  467THF     H5 7503   3.838   3.078   0.623 -0.8277  1.4042  1.2167
  467THF     H6 7504   4.127   3.017   0.395  0.5610 -0.5871  1.1117
  467THF     H7 7505   4.014   2.882   0.432 -0.6646  0.1158 -2.1785
  467THF     C8 7506   3.914   3.076   0.364 -0.3465 -0.3214  0.0759
  467THF     C9 7507   3.896   3.204   0.456  0.2188 -0.2398  0.0164
  467THF    H10 7508   3.822   3.018   0.376  0.0921 -0.5340  3.1767
  467THF    H11 7509   3.937   3.095   0.260  0.0127 -2.1105 -0.2125
  467THF    H12 7510   3.964   3.284   0.427 -0.6803  0.5915  0.1459
  467THF    H13 7511   3.793   3.238   0.449  0.8092  1.6582 -0.1848
  468THF     O1 7512   1.780   2.962   3.463 -0.0030  0.2302  0.1386
  468THF     C2 7513   1.910   2.987   3.416 -0.0074  0.1246  1.0394
  468THF     C3 7514   1.702   3.003   3.348 -0.0608 -0.2323 -0.9413
  468THF     H4 7515   1.946   2.904   3.354  1.1287  0.8375  0.7212
  468THF     H5 7516   1.979   2.981   3.500  0.8556  0.9232  0.4078
  468THF     H6 7517   1.720   2.922   3.277  0.5020 -0.7718 -0.2039
  468THF     H7 7518   1.601   2.999   3.388 -0.1347 -2.3486 -1.2451
  468THF     C8 7519   1.756   3.142   3.310  0.2276  0.6846 -0.0946
  468THF     C9 7520   1.900   3.124   3.349 -0.0817 -0.0625 -0.0068
  468THF    H10 7521   1.708   3.213   3.377  0.0037 -0.5995  1.1564
  468THF    H11 7522   1.738   3.167   3.205 -0.8797 -2.8530 -0.8661
  468THF    H12 7523   1.961   3.136   3.260 -0.1385  1.5852  0.1536
  468THF    H13 7524   1.937   3.203   3.413 -1.1043  0.3746  0.0690
  469THF     O1 7525   0.621   0.743   3.978  0.3066  0.0696 -0.2515
  469THF     C2 7526   0.715   0.757   3.873  0.0960  0.3236 -0.5225
  469THF     C3 7527   0.512   0.830   3.953 -0.3756  0.4128  0.1245
  469THF     H4 7528   0.661   0.710   3.791 -1.2711 -0.9466  1.0391
  469THF     H5 7529   0.809   0.707   3.897 -1.2506 -1.8662  0.5159
  469THF     H6 7530   0.435   0.771   3.903 -0.8679  0.1323  1.1811
  469THF     H7 7531   0.467   0.863   4.047 -2.4484 -1.2160 -0.2104
  469THF     C8 7532   0.568   0.945   3.864 -0.4095  0.2863  0.2809
  469THF     C9 7533   0.713   0.903   3.841  0.0856  0.0091  0.3967
  469THF    H10 7534   0.568   1.040   3.918 -0.2861  1.0191 -0.9826
  469THF    H11 7535   0.518   0.949   3.767  0.0626 -0.7993 -0.0273
  469THF    H12 7536   0.758   0.932   3.746  0.8355 -2.1788  0.0234
  469THF    H13 7537   0.779   0.944   3.917 -1.0188 -0.0757  1.4330
  470THF     O1 7538   2.976   2.182   0.707  0.4329  0.1768 -0.0385
  470THF     C2 7539   3.007   2.055   0.646 -0.6168  0.3232  0.0516
  470THF     C3 7540   2.858   2.178   0.794  0.0817 -0.5321  0.2289
  470THF     H4 7541   3.081   1.997   0.701 -2.2630  1.6680  4.0604
  470THF     H5 7542   3.028   2.074   0.540 -2.9902  0.8174 -0.3807
  470THF     H6 7543   2.891   2.174   0.898  1.3649  0.7136 -0.0973
  470THF     H7 7544   2.789   2.260   0.774 -0.0079 -1.3924 -3.8141
  470THF     C8 7545   2.788   2.046   0.747  0.1290 -0.0969  0.8076
  470THF     C9 7546   2.875   1.975   0.652 -0.3386 -0.4648  0.0380
  470THF    H10 7547   2.695   2.072   0.696 -1.6055 -3.0514  2.1899
  470THF    H11 7548   2.760   1.979   0.828 -0.9963  3.0784  3.2559
  470THF    H12 7549   2.889   1.869   0.672  3.1297 -0.8829 -3.3426
  470THF    H13 7550   2.830   1.968   0.554 -1.2875 -0.1249  0.4403
  471THF     O1 7551   2.548   0.559   4.676 -0.4388  0.5729 -0.2101
  471THF     C2 7552   2.480   0.646   4.578 -0.5321  0.1169  0.4389
  471THF     C3 7553   2.498   0.587   4.804 -0.1616 -0.0798  0.2501
  471THF     H4 7554   2.472   0.603   4.478 -0.8664  0.8261  0.1560
  471THF     H5 7555   2.533   0.741   4.569 -0.4285 -0.0873 -1.3684
  471THF     H6 7556   2.518   0.501   4.869 -0.6124  0.9460  1.8040
  471THF     H7 7557   2.534   0.680   4.848 -0.5557  0.1361  0.1229
  471THF     C8 7558   2.349   0.608   4.779 -1.1444  0.4040  0.0149
  471THF     C9 7559   2.345   0.673   4.638  0.1450 -0.2947  0.1458
  471THF    H10 7560   2.311   0.668   4.862  1.3376  0.8572  0.9208
  471THF    H11 7561   2.303   0.510   4.785  0.2226 -0.1692  2.3915
  471THF    H12 7562   2.266   0.621   4.584 -2.6167  0.0948  3.4729
  471THF    H13 7563   2.325   0.780   4.633  1.1717 -0.1383 -3.7880
  472THF     O1 7564   4.584   1.160   3.533 -0.0480  0.0761  0.1680
  472THF     C2 7565   4.442   1.164   3.539 -1.0823  0.0943 -0.3760
  472THF     C3 7566   4.616   1.183   3.670 -0.4309 -0.0347 -0.6209
  472THF     H4 7567   4.388   1.077   3.578  0.0413 -0.1023  0.8058
  472THF     H5 7568   4.418   1.172   3.433 -0.3447  3.6101 -0.3856
  472THF     H6 7569   4.612   1.088   3.725 -0.3268  0.5427  0.4051
  472THF     H7 7570   4.716   1.224   3.685 -0.9559  1.0473  0.0343
  472THF     C8 7571   4.519   1.297   3.721 -0.4239 -0.3575 -0.2482
  472THF     C9 7572   4.407   1.285   3.620  0.2571 -0.4820  0.0316
  472THF    H10 7573   4.570   1.390   3.698  0.4250 -1.0888 -1.4367
  472THF    H11 7574   4.484   1.292   3.824 -0.3188 -1.5698 -0.2525
  472THF    H12 7575   4.312   1.277   3.672 -0.3402  3.5626 -0.1500
  472THF    H13 7576   4.394   1.372   3.555  2.5453  2.0467  2.6980
  473THF     O1 7577   3.488   1.103   1.428 -0.3502  0.1608  0.0269
  473THF     C2 7578   3.418   1.172   1.321  0.7630 -0.2334  0.1817
  473THF     C3 7579   3.421   0.974   1.451  0.0121 -0.1473 -0.4616
  473THF     H4 7580   3.479   1.245   1.267  2.0491 -1.8445 -0.6729
  473THF     H5 7581   3.326   1.214   1.361  0.5224  0.1782 -0.7797
  473THF     H6 7582   3.492   0.916   1.509  2.3011 -1.0458 -3.8837
  473THF     H7 7583   3.330   0.998   1.506  0.9410  0.1629  1.0143
  473THF     C8 7584   3.403   0.936   1.307  0.4086  0.3028 -0.9924
  473THF     C9 7585   3.391   1.054   1.232  0.1668  0.4935 -0.4836
  473THF    H10 7586   3.321   0.868   1.283  1.4242 -0.7868 -1.4789
  473THF    H11 7587   3.493   0.888   1.269 -0.2317 -1.1867 -0.6660
  473THF    H12 7588   3.467   1.054   1.153  0.0667 -0.8347 -0.6009
  473THF    H13 7589   3.290   1.053   1.192 -0.1972 -3.0626  0.2090
  474THF     O1 7590   2.773   1.120   4.208  0.2553  0.9120 -0.3485
  474THF     C2 7591   2.683   1.226   4.193  0.5892  0.3843 -0.0341
  474THF     C3 7592   2.702   0.999   4.169 -0.5212  0.1928 -0.7545
  474THF     H4 7593   2.736   1.322   4.192  1.3869  0.0549  2.6297
  474THF     H5 7594   2.614   1.245   4.276  0.8159  0.7585  0.0741
  474THF     H6 7595   2.779   0.924   4.156  0.6242  1.0810  0.5889
  474THF     H7 7596   2.645   0.971   4.258 -0.0495  0.0087 -0.5069
  474THF     C8 7597   2.630   1.044   4.039 -0.1442 -0.2537  0.5240
  474THF     C9 7598   2.601   1.189   4.070 -0.5840 -0.6578  0.2374
  474THF    H10 7599   2.554   0.975   4.002 -0.1274  1.6839 -3.7221
  474THF    H11 7600   2.704   1.029   3.960  0.0782 -1.4238  0.9232
  474THF    H12 7601   2.610   1.259   3.986 -2.4965 -1.2272 -0.5098
  474THF    H13 7602   2.493   1.196   4.083 -0.4499  1.6125  0.6499
  475THF     O1 7603   5.291   1.990   2.980  0.0913 -0.2233 -0.6844
  475THF     C2 7604   5.300   2.094   2.883  1.1087 -0.1554  0.7668
  475THF     C3 7605   5.267   1.872   2.906 -0.3242  0.5496 -0.5822
  475THF     H4 7606   5.403   2.092   2.846  0.8957 -1.6700  0.1545
  475THF     H5 7607   5.284   2.188   2.935 -1.4709 -0.0146 -0.1350
  475THF     H6 7608   5.352   1.828   2.855 -0.6052 -0.7940  0.0809
  475THF     H7 7609   5.228   1.797   2.975  2.3322 -1.4518 -1.0891
  475THF     C8 7610   5.159   1.919   2.806 -0.4199 -0.5672 -0.7924
  475THF     C9 7611   5.204   2.061   2.769  0.1248  0.7572 -0.0360
  475THF    H10 7612   5.067   1.936   2.863  0.6619  1.3412  0.4892
  475THF    H11 7613   5.151   1.852   2.720  0.8454  0.6928 -1.9399
  475THF    H12 7614   5.244   2.077   2.669  1.2047 -0.8546  0.1095
  475THF    H13 7615   5.117   2.128   2.764  0.4112  1.2195  1.0413
  476THF     O1 7616   0.560   2.889   3.359  0.1740 -0.3059 -0.0428
  476THF     C2 7617   0.516   2.938   3.483  0.5406 -0.2333  0.1049
  476THF     C3 7618   0.691   2.836   3.383  0.1658  0.0416 -0.2307
  476THF     H4 7619   0.411   2.969   3.488  1.5672  3.6068  2.0036
  476THF     H5 7620   0.563   3.031   3.517 -0.2737  0.2604 -0.0829
  476THF     H6 7621   0.722   2.762   3.310  1.2077 -0.9271  1.1495
  476THF     H7 7622   0.772   2.909   3.386  1.8394 -1.6708 -1.3029
  476THF     C8 7623   0.680   2.771   3.520 -0.0188  0.3846  0.0999
  476THF     C9 7624   0.550   2.825   3.581 -0.8876 -0.2262 -0.4429
  476THF    H10 7625   0.761   2.796   3.589 -0.1445 -1.4757  0.9936
  476THF    H11 7626   0.676   2.663   3.508  0.8926  0.3899 -0.3317
  476THF    H12 7627   0.477   2.744   3.582 -0.3890 -0.6879 -0.7755
  476THF    H13 7628   0.571   2.852   3.685  1.2368 -0.1694 -0.8422
  477THF     O1 7629   3.739   0.418   0.365 -0.5676  0.0224  0.3543
  477THF     C2 7630   3.719   0.284   0.402  0.4149 -0.0625 -0.2212
  477THF     C3 7631   3.645   0.497   0.435  0.4910  0.0976 -0.1850
  477THF     H4 7632   3.757   0.256   0.500 -0.2559 -0.2331 -0.0066
  477THF     H5 7633   3.755   0.206   0.336 -1.6993 -1.3789  0.0876
  477THF     H6 7634   3.662   0.515   0.541 -1.9551 -1.1006  0.4801
  477THF     H7 7635   3.625   0.592   0.386 -0.0299  1.0822  1.8108
  477THF     C8 7636   3.520   0.414   0.426 -0.1847  0.3286 -0.3237
  477THF     C9 7637   3.569   0.273   0.407 -0.2487 -0.4853 -0.3911
  477THF    H10 7638   3.462   0.460   0.346 -1.7429  0.6377  0.9434
  477THF    H11 7639   3.464   0.420   0.519  2.0394  0.2541  1.1057
  477THF    H12 7640   3.546   0.204   0.488  1.0143 -1.1497 -0.5767
  477THF    H13 7641   3.539   0.232   0.310  2.9325 -3.6547 -0.2469
  478THF     O1 7642   4.350   0.384   0.445  0.2426 -0.1415 -0.9655
  478THF     C2 7643   4.386   0.415   0.584  0.4001 -0.4303  0.8592
  478THF     C3 7644   4.211   0.417   0.435 -0.0556  0.4708 -1.1798
  478THF     H4 7645   4.419   0.517   0.601  1.3003 -0.7601  1.1749
  478THF     H5 7646   4.479   0.367   0.616  1.8410  1.9160  0.4569
  478THF     H6 7647   4.183   0.522   0.438 -2.9863 -0.2610  0.3426
  478THF     H7 7648   4.162   0.371   0.350  0.9158  0.9872 -2.0432
  478THF     C8 7649   4.158   0.355   0.568  0.0052 -0.2310  0.1553
  478THF     C9 7650   4.272   0.363   0.667  0.0808 -0.2377 -0.5214
  478THF    H10 7651   4.133   0.250   0.559  3.2159 -0.9989 -1.3236
  478THF    H11 7652   4.069   0.407   0.604 -1.4866 -1.9591 -0.9119
  478THF    H12 7653   4.249   0.426   0.754  0.2247 -0.5843 -0.2315
  478THF    H13 7654   4.299   0.263   0.699 -0.0852 -0.6341 -1.5803
  479THF     O1 7655   4.502   2.815   1.008  0.0567 -0.0853 -0.1219
  479THF     C2 7656   4.432   2.921   0.932 -0.5125 -0.3751  0.1485
  479THF     C3 7657   4.622   2.784   0.942 -0.0739 -0.1255  0.6386
  479THF     H4 7658   4.476   3.017   0.959 -0.3466 -0.0214 -1.2907
  479THF     H5 7659   4.324   2.923   0.943 -0.6490  1.0805 -1.1520
  479THF     H6 7660   4.702   2.856   0.957  1.6429 -1.7172 -0.4284
  479THF     H7 7661   4.647   2.683   0.977 -0.1821 -0.0838  0.8357
  479THF     C8 7662   4.571   2.772   0.792  0.1566  0.0897  0.5872
  479THF     C9 7663   4.465   2.882   0.785  0.1456 -0.2295 -0.0426
  479THF    H10 7664   4.526   2.677   0.763 -0.1545  0.1157  0.9873
  479THF    H11 7665   4.653   2.786   0.722 -0.2701 -0.2232  0.0193
  479THF    H12 7666   4.493   2.979   0.745  0.8263  0.5378  2.1418
  479THF    H13 7667   4.378   2.834   0.739  0.6529 -1.2062  0.0011
  480THF     O1 7668   4.470   2.384   1.892 -0.0609  0.1589 -0.0499
  480THF     C2 7669   4.500   2.338   1.762 -0.0309  0.7218  0.0554
  480THF     C3 7670   4.416   2.283   1.970  0.2491  0.2711  0.0994
  480THF     H4 7671   4.569   2.404   1.709 -0.3365 -0.3478 -1.7379
  480THF     H5 7672   4.409   2.347   1.703 -0.3732 -0.1360  0.4281
  480THF     H6 7673   4.434   2.284   2.078 -1.5072 -0.9505  0.4475
  480THF     H7 7674   4.307   2.294   1.964  0.1887 -0.9111 -1.5380
  480THF     C8 7675   4.456   2.152   1.908 -0.3841 -0.4372 -0.3503
  480THF     C9 7676   4.545   2.192   1.791  0.4312 -0.1653  0.2753
  480THF    H10 7677   4.365   2.103   1.873 -0.1857 -1.5430  0.6387
  480THF    H11 7678   4.502   2.079   1.974  1.1542  1.1902  0.4654
  480THF    H12 7679   4.651   2.197   1.818 -0.0509 -1.3552  2.7414
  480THF    H13 7680   4.521   2.138   1.700 -2.4343  0.2389  0.7043
  481THF     O1 7681   5.159   5.408   0.566 -1.0693  0.6319  0.1890
  481THF     C2 7682   5.253   5.299   0.549  0.8954  0.6972  0.2211
  481THF     C3 7683   5.074   5.375   0.675  0.2621 -0.1571  0.5968
  481THF     H4 7684   5.327   5.295   0.628  1.2693 -2.2484 -0.1556
  481THF     H5 7685   5.302   5.296   0.452  0.3999 -3.7099 -0.1132
  481THF     H6 7686   5.122   5.401   0.769  0.1594  0.8755  0.3729
  481THF     H7 7687   4.982   5.434   0.676  0.0345 -0.5160  2.0581
  481THF     C8 7688   5.049   5.231   0.640 -0.1664  0.3940  0.0537
  481THF     C9 7689   5.170   5.174   0.563 -0.8123  0.3170  0.4965
  481THF    H10 7690   4.964   5.226   0.572  0.1972  0.3698 -0.3977
  481THF    H11 7691   5.017   5.163   0.720 -1.2127 -1.0151 -1.4936
  481THF    H12 7692   5.236   5.103   0.614 -0.3360  0.4914  0.1300
  481THF    H13 7693   5.141   5.138   0.464 -0.7007  2.4375 -0.3664
  482THF     O1 7694   0.818   0.156   0.878  0.6338  0.4708  0.6515
  482THF     C2 7695   0.727   0.206   0.776 -0.1712  1.1211  0.1187
  482THF     C3 7696   0.794   0.008   0.880  0.2141 -0.3981  0.0031
  482THF     H4 7697   0.748   0.306   0.737 -1.3615  0.9310 -1.0632
  482THF     H5 7698   0.625   0.208   0.813 -0.4198  0.5392 -0.5179
  482THF     H6 7699   0.868  -0.049   0.937 -0.2164 -0.3851  0.5802
  482THF     H7 7700   0.706   0.007   0.944  1.3437  1.4908  1.7012
  482THF     C8 7701   0.777  -0.034   0.734 -0.8762 -0.6886  0.2395
  482THF     C9 7702   0.741   0.102   0.663  0.0641  0.5004 -0.5009
  482THF    H10 7703   0.709  -0.115   0.707 -1.0318 -0.3835 -0.2808
  482THF    H11 7704   0.873  -0.069   0.698 -1.3353 -0.2657 -1.4450
  482THF    H12 7705   0.827   0.143   0.610  0.3473 -0.7271 -1.0209
  482THF    H13 7706   0.662   0.092   0.588  0.4170 -1.5765 -0.6458
  483THF     O1 7707   0.119   2.718   1.152 -0.1014 -0.0523 -0.4758
  483THF     C2 7708   0.214   2.729   1.042 -0.1021  0.2476 -0.5318
  483THF     C3 7709   0.112   2.846   1.218  0.2845 -0.0837  0.6567
  483THF     H4 7710   0.156   2.782   0.966  0.5720 -0.0891 -1.2950
  483THF     H5 7711   0.254   2.637   0.999  1.2064  0.6917 -0.2803
  483THF     H6 7712   0.017   2.889   1.186  0.6404  0.1972 -0.0474
  483THF     H7 7713   0.108   2.837   1.327  0.9137  3.8480  1.1653
  483THF     C8 7714   0.226   2.933   1.164 -0.0825 -0.2554  0.0830
  483THF     C9 7715   0.315   2.835   1.093  0.6797  0.2552 -0.6013
  483THF    H10 7716   0.281   2.964   1.253 -0.9254 -0.2307  0.6102
  483THF    H11 7717   0.195   3.022   1.110  1.7226  1.0170  1.0259
  483THF    H12 7718   0.375   2.875   1.011 -1.1067  0.1501 -2.0038
  483THF    H13 7719   0.383   2.794   1.168  0.6390  2.6307  0.8370
  484THF     O1 7720   0.307   0.064   0.514  0.2038 -0.2683 -0.0966
  484THF     C2 7721   0.327   0.028   0.651 -0.3462  0.5342  0.0032
  484THF     C3 7722   0.198   0.157   0.523  0.2730 -0.9359  0.3722
  484THF     H4 7723   0.417  -0.034   0.659 -0.3391  0.4289 -0.7758
  484THF     H5 7724   0.240  -0.035   0.670 -1.1153  1.4455 -0.4243
  484THF     H6 7725   0.187   0.214   0.431 -0.0187  2.4004  2.3211
  484THF     H7 7726   0.106   0.102   0.542 -1.8498  2.1313 -0.2931
  484THF     C8 7727   0.246   0.237   0.645  0.0298 -0.8574 -0.1226
  484THF     C9 7728   0.327   0.150   0.737 -0.1098 -0.0696 -0.5497
  484THF    H10 7729   0.163   0.292   0.689  1.5758  2.0580 -0.6357
  484THF    H11 7730   0.321   0.310   0.616 -1.3230  0.7750  0.3065
  484THF    H12 7731   0.427   0.185   0.764 -1.5521  1.3108  3.7806
  484THF    H13 7732   0.282   0.137   0.835  1.5441 -0.6668  0.1691
  485THF     O1 7733   4.568   3.225   1.823  0.4595  0.1690  0.5638
  485THF     C2 7734   4.577   3.093   1.764 -0.4557  0.4524  0.2230
  485THF     C3 7735   4.647   3.311   1.756  0.1475 -0.0074 -0.3898
  485THF     H4 7736   4.497   3.073   1.693  0.7916  0.0324 -1.1088
  485THF     H5 7737   4.556   3.012   1.835  1.0966 -1.1215 -1.0167
  485THF     H6 7738   4.603   3.364   1.671 -0.0916  0.1884 -0.1434
  485THF     H7 7739   4.673   3.387   1.829  2.6152 -1.0829 -0.0466
  485THF     C8 7740   4.768   3.223   1.705 -0.1578  0.2536  0.6880
  485THF     C9 7741   4.715   3.079   1.712 -1.1044  0.3287 -0.0749
  485THF    H10 7742   4.853   3.242   1.769 -0.0460  1.9447  0.0755
  485THF    H11 7743   4.783   3.254   1.601  0.5232  0.7953  0.9428
  485THF    H12 7744   4.706   3.038   1.611 -1.5687  0.7396 -0.2025
  485THF    H13 7745   4.772   3.016   1.779  0.0354  0.0855 -1.2175
  486THF     O1 7746   1.685   5.403   4.448 -0.3738 -0.6559  0.1904
  486THF     C2 7747   1.728   5.480   4.335 -0.7843  0.0042  0.4749
  486THF     C3 7748   1.800   5.365   4.524  0.6784  1.0841 -0.6860
  486THF     H4 7749   1.674   5.574   4.338 -1.9112 -0.5180 -1.4968
  486THF     H5 7750   1.709   5.434   4.238 -2.0260 -1.2614  1.2777
  486THF     H6 7751   1.779   5.342   4.628 -0.3376 -2.7812 -1.5916
  486THF     H7 7752   1.832   5.272   4.477  1.2053  1.4435 -1.0622
  486THF     C8 7753   1.889   5.486   4.504 -0.2147  0.0777  0.0047
  486THF     C9 7754   1.872   5.502   4.352 -0.1778 -0.0629 -0.7713
  486THF    H10 7755   1.995   5.465   4.518  0.8058  3.3671 -1.6351
  486THF    H11 7756   1.858   5.572   4.564  1.0751  1.1129 -0.7641
  486THF    H12 7757   1.898   5.604   4.321 -0.1410  0.5688  1.1866
  486THF    H13 7758   1.928   5.425   4.300 -0.3903 -1.8489  1.5136
  487THF     O1 7759   3.709   2.921   1.331  0.0535 -0.5071 -0.0335
  487THF     C2 7760   3.789   3.040   1.319  0.8041  0.2021  0.1950
  487THF     C3 7761   3.796   2.810   1.319  0.4237 -0.7353  0.3046
  487THF     H4 7762   3.831   3.082   1.410 -0.0766 -0.7883  1.0817
  487THF     H5 7763   3.739   3.129   1.280  3.9510  2.4496  0.9071
  487THF     H6 7764   3.820   2.771   1.418  0.4586  2.4344  1.6680
  487THF     H7 7765   3.740   2.735   1.263  0.2906 -1.3252  1.2023
  487THF     C8 7766   3.922   2.862   1.250  0.3927 -0.0219  0.1228
  487THF     C9 7767   3.886   3.005   1.216 -0.1485 -0.2358  0.3942
  487THF    H10 7768   3.931   2.812   1.154  1.1264  0.3577 -0.0173
  487THF    H11 7769   4.005   2.852   1.321  1.2895  2.3860 -0.4921
  487THF    H12 7770   3.974   3.069   1.221 -1.1203  1.7645 -3.6331
  487THF    H13 7771   3.855   3.024   1.114 -1.7236  3.4213  1.3839
  488THF     O1 7772   3.411   2.844   5.269 -0.1362 -0.3749 -0.2002
  488THF     C2 7773   3.286   2.899   5.230 -0.3037 -0.2517 -0.9808
  488THF     C3 7774   3.504   2.928   5.197 -0.6769 -0.2117  0.8119
  488THF     H4 7775   3.248   2.985   5.285 -1.4931 -1.7832  0.6946
  488THF     H5 7776   3.209   2.824   5.249 -0.4166  0.3224  1.1183
  488THF     H6 7777   3.518   3.023   5.247  0.6220  0.6858 -1.1230
  488THF     H7 7778   3.605   2.890   5.183 -0.9569 -0.1541 -1.9206
  488THF     C8 7779   3.440   2.943   5.057  0.8893  0.4691 -0.2255
  488THF     C9 7780   3.291   2.916   5.080  0.5364 -0.0614 -0.0365
  488THF    H10 7781   3.476   2.859   4.998 -1.2941  0.1786 -1.2600
  488THF    H11 7782   3.460   3.039   5.008  0.3194  1.6803  1.7652
  488THF    H12 7783   3.245   3.011   5.052  2.1113  0.5668 -0.5984
  488THF    H13 7784   3.246   2.833   5.026 -1.0127  1.8613 -1.8679
  489THF     O1 7785   5.435   1.333   2.574  0.6232  0.2639  0.4198
  489THF     C2 7786   5.356   1.215   2.565  0.2527 -0.2686  0.4110
  489THF     C3 7787   5.450   1.348   2.719 -0.4171 -0.2522  0.2558
  489THF     H4 7788   5.423   1.131   2.583  1.4141  0.0460 -2.0329
  489THF     H5 7789   5.318   1.216   2.463  3.3542  1.0338 -0.8644
  489THF     H6 7790   5.512   1.266   2.756  0.2322  0.0087 -0.2212
  489THF     H7 7791   5.492   1.444   2.748  3.5162 -1.4041 -1.0065
  489THF     C8 7792   5.307   1.345   2.762 -0.0435  0.9819 -0.1773
  489THF     C9 7793   5.259   1.229   2.673 -0.2337 -0.6416 -0.0667
  489THF    H10 7794   5.246   1.434   2.747 -1.3993  0.2303  0.7606
  489THF    H11 7795   5.290   1.335   2.869 -0.9917 -0.6448 -0.4535
  489THF    H12 7796   5.247   1.134   2.725 -2.7296 -0.1399  0.4170
  489THF    H13 7797   5.160   1.257   2.636 -1.4762 -1.5149  2.3280
  490THF     O1 7798   0.614   4.962   2.760  0.9338  0.1554  0.1130
  490THF     C2 7799   0.649   5.096   2.769  0.2564  0.1036 -0.1755
  490THF     C3 7800   0.538   4.947   2.641  0.0844  0.5866  0.3930
  490THF     H4 7801   0.732   5.120   2.701  1.7156 -0.8290  1.2080
  490THF     H5 7802   0.688   5.118   2.868  1.7163  0.3261 -0.7613
  490THF     H6 7803   0.600   4.925   2.554 -1.7867 -3.3261 -0.1967
  490THF     H7 7804   0.482   4.854   2.656 -1.3493  1.2297 -0.7492
  490THF     C8 7805   0.458   5.076   2.642  0.1106  0.4825  0.2111
  490THF     C9 7806   0.520   5.170   2.741 -0.9757 -0.1187  0.3057
  490THF    H10 7807   0.359   5.047   2.678 -0.8519  2.7700 -0.4169
  490THF    H11 7808   0.441   5.127   2.547  2.0787  0.0345 -0.4254
  490THF    H12 7809   0.517   5.271   2.700 -1.2063 -0.3706 -0.3083
  490THF    H13 7810   0.472   5.176   2.839 -3.5612 -0.3778 -0.8510
  491THF     O1 7811   5.437   0.399   3.319  0.2659  0.0079  0.1916
  491THF     C2 7812   5.424   0.539   3.284  0.5761 -0.3963  0.0566
  491THF     C3 7813   5.360   0.370   3.438  0.4189  0.0359 -0.3667
  491THF     H4 7814   5.351   0.572   3.210  1.1232 -0.4310 -0.5021
  491THF     H5 7815   5.524   0.558   3.244  0.8447 -0.9952  0.4263
  491THF     H6 7816   5.283   0.303   3.401  0.6909 -0.2949 -0.3426
  491THF     H7 7817   5.424   0.314   3.506  0.7933  0.6132 -0.2331
  491THF     C8 7818   5.304   0.502   3.488 -0.0097  0.3074  0.0156
  491THF     C9 7819   5.386   0.604   3.415 -0.4755  0.3040 -0.0975
  491THF    H10 7820   5.319   0.513   3.595  1.2376  2.3213 -0.3226
  491THF    H11 7821   5.197   0.513   3.472 -0.1627 -0.3045  0.5939
  491THF    H12 7822   5.343   0.705   3.413  2.4987  1.7158  1.5887
  491THF    H13 7823   5.476   0.626   3.472  0.0437 -0.2935 -0.6751
  492THF     O1 7824   5.324   2.138   1.910  0.1784 -1.3865  0.2901
  492THF     C2 7825   5.441   2.205   1.868 -0.3699  0.1504  0.1071
  492THF     C3 7826   5.224   2.178   1.804  0.6763 -0.2243 -0.0084
  492THF     H4 7827   5.480   2.138   1.790  1.0244  1.5470 -0.4551
  492THF     H5 7828   5.509   2.207   1.953 -0.8927 -2.0100  0.6461
  492THF     H6 7829   5.244   2.129   1.709  0.1091 -1.8135  0.6458
  492THF     H7 7830   5.122   2.154   1.834  1.3924 -0.4374  2.4941
  492THF     C8 7831   5.245   2.330   1.798 -0.2265  0.3075 -0.2996
  492THF     C9 7832   5.395   2.339   1.813 -0.4722 -0.3149 -0.8662
  492THF    H10 7833   5.194   2.361   1.889  0.7984  1.6656 -0.1647
  492THF    H11 7834   5.211   2.371   1.703 -0.4885  0.0055 -0.3385
  492THF    H12 7835   5.441   2.344   1.714  1.4025  0.2292  0.0032
  492THF    H13 7836   5.431   2.407   1.891  1.0973 -0.8863 -1.0582
  493THF     O1 7837   4.739   1.017   4.726 -0.8063 -0.2275 -0.3068
  493THF     C2 7838   4.831   0.995   4.827 -0.1486 -0.2364 -0.2632
  493THF     C3 7839   4.816   1.103   4.631  0.0498 -0.1037 -0.7589
  493THF     H4 7840   4.921   0.940   4.800  0.5237  0.7551 -0.0977
  493THF     H5 7841   4.801   0.947   4.920 -1.9433 -0.6333 -1.0089
  493THF     H6 7842   4.892   1.042   4.582  0.0627 -0.8376  0.1357
  493THF     H7 7843   4.735   1.136   4.565  0.5631  1.3981 -0.6690
  493THF     C8 7844   4.882   1.208   4.722 -0.0856  0.0924  0.7614
  493THF     C9 7845   4.858   1.141   4.858  0.0454  0.2360  0.3108
  493THF    H10 7846   4.840   1.307   4.707 -1.0758 -0.3688  0.4134
  493THF    H11 7847   4.988   1.197   4.697 -0.2247 -2.3132  0.9630
  493THF    H12 7848   4.934   1.158   4.934 -0.2903  2.5987  0.2224
  493THF    H13 7849   4.768   1.191   4.896 -0.6935  0.1236 -1.2218
  494THF     O1 7850   2.297   1.269   3.940  0.0566 -0.1490 -0.3138
  494THF     C2 7851   2.289   1.158   3.858  0.0053  0.7291 -0.8602
  494THF     C3 7852   2.193   1.358   3.889  0.1829 -0.2403 -0.2893
  494THF     H4 7853   2.220   1.087   3.902  0.8793  1.1088  1.2797
  494THF     H5 7854   2.387   1.110   3.865 -0.4074 -0.0109  0.0098
  494THF     H6 7855   2.094   1.328   3.925  0.3373  1.0190  1.3160
  494THF     H7 7856   2.193   1.459   3.929 -1.1202 -0.0057 -0.8196
  494THF     C8 7857   2.203   1.347   3.740  0.2148  0.5559  0.0163
  494THF     C9 7858   2.261   1.210   3.717  0.3841 -0.3887 -0.3240
  494THF    H10 7859   2.278   1.420   3.710  2.1447 -0.7911  1.3019
  494THF    H11 7860   2.121   1.376   3.674 -0.6322 -0.7474  0.4706
  494THF    H12 7861   2.184   1.152   3.666 -0.6668  1.8315 -1.3863
  494THF    H13 7862   2.354   1.224   3.661  0.2502  0.1261 -0.4236
  495THF     O1 7863   0.400   1.477   2.869 -0.3570  0.2487 -0.3480
  495THF     C2 7864   0.376   1.404   2.752 -0.7879  0.0193  0.2634
  495THF     C3 7865   0.318   1.431   2.976 -0.1489 -1.2473  0.1293
  495THF     H4 7866   0.459   1.400   2.681 -1.4223 -1.3769 -0.4338
  495THF     H5 7867   0.279   1.440   2.720 -2.1833  0.0798  4.0736
  495THF     H6 7868   0.354   1.455   3.076 -2.5473  0.6720  0.6033
  495THF     H7 7869   0.221   1.478   2.962 -0.0905 -1.1188  0.1568
  495THF     C8 7870   0.298   1.285   2.958  0.2291  0.3541  0.3556
  495THF     C9 7871   0.350   1.266   2.812 -0.1182 -0.7961  0.2213
  495THF    H10 7872   0.194   1.255   2.943  0.1734  0.2927  0.8401
  495THF    H11 7873   0.348   1.214   3.025 -0.1607  0.2390  0.5287
  495THF    H12 7874   0.449   1.222   2.827 -0.3353 -0.9862  1.1633
  495THF    H13 7875   0.285   1.207   2.748  1.3142 -2.1913  0.0019
  496THF     O1 7876   1.796   1.135   5.434 -0.2962 -0.6058 -0.2044
  496THF     C2 7877   1.681   1.081   5.477  0.6532 -0.1441  0.2482
  496THF     C3 7878   1.854   1.048   5.336  0.3180 -0.3990 -0.7510
  496THF     H4 7879   1.604   1.156   5.497 -0.9048 -1.8683  1.0516
  496THF     H5 7880   1.689   1.018   5.566  1.0944 -0.3610  0.0548
  496THF     H6 7881   1.927   1.107   5.281 -0.1391  1.5354  0.6105
  496THF     H7 7882   1.891   0.958   5.385 -1.5395 -0.3791  0.7956
  496THF     C8 7883   1.737   1.015   5.249 -0.0074 -0.6182 -0.5971
  496THF     C9 7884   1.628   0.995   5.353  0.4253 -0.4654  0.4136
  496THF    H10 7885   1.758   0.938   5.175 -0.9094 -0.8158 -0.6551
  496THF    H11 7886   1.716   1.106   5.193  1.2212  0.0006 -0.0902
  496THF    H12 7887   1.538   1.046   5.317 -0.1745 -1.2369  0.7810
  496THF    H13 7888   1.600   0.890   5.361 -1.0596 -0.0421  1.2765
  497THF     O1 7889   0.088   4.126   1.575  0.6563  0.3582  0.3467
  497THF     C2 7890   0.116   4.213   1.473  0.2505  0.2200 -0.1959
  497THF     C3 7891   0.080   3.999   1.520  0.8538  0.3351  0.1413
  497THF     H4 7892   0.167   4.307   1.493  1.8059 -0.7208  0.4598
  497THF     H5 7893   0.018   4.234   1.431  0.3042  1.0011  0.0622
  497THF     H6 7894   0.108   3.916   1.585  0.8365  0.0261 -0.2400
  497THF     H7 7895  -0.020   3.980   1.481  1.0274 -0.3685  0.0279
  497THF     C8 7896   0.184   3.993   1.402  0.5277  0.3881  0.7253
  497THF     C9 7897   0.190   4.141   1.361  0.2151 -0.0899  0.4788
  497THF    H10 7898   0.146   3.920   1.329  1.4618 -0.9646  1.5428
  497THF    H11 7899   0.281   3.961   1.440  0.1220  0.1667  1.5943
  497THF    H12 7900   0.292   4.177   1.350  0.7747 -1.8784 -0.6996
  497THF    H13 7901   0.137   4.148   1.266 -0.1487 -2.0547  0.4939
  498THF     O1 7902   4.277   3.982   3.946  0.1286  0.0344  0.7815
  498THF     C2 7903   4.263   3.864   4.021 -0.1227 -0.1447 -0.3381
  498THF     C3 7904   4.192   4.071   4.013  0.1940 -0.3504  0.3804
  498THF     H4 7905   4.315   3.876   4.116  1.0687  1.2908 -1.1217
  498THF     H5 7906   4.302   3.769   3.985 -1.1069 -1.4249  1.7977
  498THF     H6 7907   4.231   4.108   4.108 -0.0438  0.1604  0.2801
  498THF     H7 7908   4.181   4.154   3.943  1.2397 -0.2662  0.2944
  498THF     C8 7909   4.061   4.000   4.043  0.0647  0.2782 -0.4781
  498THF     C9 7910   4.111   3.851   4.053  0.4823  0.0963  0.7162
  498THF    H10 7911   3.988   4.009   3.962 -2.3048 -0.0089  1.4828
  498THF    H11 7912   4.025   4.043   4.137 -2.9473 -1.1220 -0.8571
  498THF    H12 7913   4.096   3.809   4.152  1.6904  0.4507  1.0635
  498THF    H13 7914   4.057   3.795   3.976  0.4440  2.2686 -0.9440
  499THF     O1 7915   1.374   5.054   4.679 -0.5766  0.0020  0.1810
  499THF     C2 7916   1.287   5.161   4.644 -0.2651 -0.4675 -0.6344
  499THF     C3 7917   1.458   5.027   4.569  0.1607  0.3587  0.3969
  499THF     H4 7918   1.347   5.248   4.667 -0.1533 -0.2066 -1.8284
  499THF     H5 7919   1.190   5.160   4.694  0.2019 -2.1366  0.3416
  499THF     H6 7920   1.561   5.061   4.584  0.7124 -1.2283  0.4629
  499THF     H7 7921   1.471   4.920   4.554  0.7772  0.6398 -1.2217
  499THF     C8 7922   1.393   5.084   4.445  0.1812 -0.2175 -0.3840
  499THF     C9 7923   1.276   5.164   4.495 -0.1404 -0.1836 -0.0286
  499THF    H10 7924   1.349   5.011   4.377 -2.5113  1.3614 -0.5095
  499THF    H11 7925   1.458   5.158   4.397 -0.1439  0.4456  0.1692
  499THF    H12 7926   1.277   5.263   4.450  1.7504  0.4032  1.1685
  499THF    H13 7927   1.186   5.117   4.456 -1.1472  0.7968  1.0471
  500THF     O1 7928   2.749   0.334   1.364 -0.1746  0.6229 -0.0876
  500THF     C2 7929   2.632   0.276   1.427  0.7531 -0.1565  0.0142
  500THF     C3 7930   2.790   0.232   1.270  0.2016 -0.4748 -0.1254
  500THF     H4 7931   2.550   0.279   1.355  0.3494 -1.2292  0.4117
  500THF     H5 7932   2.615   0.339   1.514  0.5952  2.1354 -1.5700
  500THF     H6 7933   2.748   0.257   1.172  0.3781  1.1750  0.2016
  500THF     H7 7934   2.899   0.236   1.274  0.1549 -0.1380  0.8623
  500THF     C8 7935   2.739   0.092   1.320  0.1838  0.7088  0.7251
  500THF     C9 7936   2.664   0.132   1.445 -0.1305  0.2512 -0.6568
  500THF    H10 7937   2.825   0.027   1.340 -0.5266  0.1533  2.0655
  500THF    H11 7938   2.668   0.046   1.253  0.5016 -0.7390  1.3539
  500THF    H12 7939   2.572   0.077   1.464 -0.8643  1.7005  0.1267
  500THF    H13 7940   2.727   0.141   1.533  0.2677 -0.8184 -0.8225
  501THF     O1 7941   3.759   0.882   3.584  0.0390  0.2791  0.6729
  501THF     C2 7942   3.861   0.922   3.489  0.9796  0.2038 -0.0329
  501THF     C3 7943   3.816   0.765   3.648  0.3684 -0.3243 -0.0877
  501THF     H4 7944   3.832   1.025   3.467  2.7030  0.7230 -0.0248
  501THF     H5 7945   3.863   0.864   3.396 -0.6667  0.1311 -0.0560
  501THF     H6 7946   3.758   0.735   3.736 -0.8351  1.1316 -0.3435
  501THF     H7 7947   3.826   0.683   3.577  1.0935 -0.7241  0.4639
  501THF     C8 7948   3.954   0.814   3.678  0.4683 -0.2671 -0.6855
  501THF     C9 7949   3.993   0.914   3.565  1.0937  0.5067 -0.5129
  501THF    H10 7950   4.041   0.748   3.682 -0.1396 -1.0552 -0.2394
  501THF    H11 7951   3.945   0.878   3.766 -2.4998  2.8535 -3.0118
  501THF    H12 7952   4.026   1.014   3.593 -2.1853  1.8215 -0.9525
  501THF    H13 7953   4.071   0.872   3.501  3.5252  1.7422  1.4725
  502THF     O1 7954   2.927   0.317   4.893 -0.4690  0.3031  0.2262
  502THF     C2 7955   2.926   0.407   4.783  0.5170  0.1660 -0.3760
  502THF     C3 7956   2.995   0.200   4.858  0.3466 -0.1121  0.3771
  502THF     H4 7957   2.998   0.487   4.800  0.1214  0.4579 -0.0278
  502THF     H5 7958   2.825   0.449   4.780 -0.6895 -2.3265  1.2131
  502THF     H6 7959   3.098   0.238   4.858 -0.5352  2.6482 -1.8362
  502THF     H7 7960   2.986   0.113   4.922 -0.8455 -0.1404  0.1838
  502THF     C8 7961   2.949   0.173   4.713  0.3488 -0.0375  0.0626
  502THF     C9 7962   2.950   0.318   4.659 -0.2080  0.0165 -0.0651
  502THF    H10 7963   2.847   0.138   4.726 -0.0276  0.4086 -1.5043
  502THF    H11 7964   3.016   0.105   4.660 -0.6441 -0.0572 -1.2167
  502THF    H12 7965   3.050   0.344   4.625  0.6635 -1.1113  1.4972
  502THF    H13 7966   2.882   0.338   4.576  0.1641  1.4864 -0.0482
  503THF     O1 7967   3.483   1.166   3.948 -0.0274 -0.2068 -0.0514
  503THF     C2 7968   3.461   1.067   3.856  0.3319  0.0742 -0.2795
  503THF     C3 7969   3.466   1.286   3.881 -0.1837 -0.5140 -0.2404
  503THF     H4 7970   3.354   1.069   3.834  0.1068  0.0538  0.7686
  503THF     H5 7971   3.482   0.967   3.893 -2.6881 -0.0119  1.5053
  503THF     H6 7972   3.362   1.315   3.865  0.6337  2.6265 -0.4539
  503THF     H7 7973   3.513   1.366   3.939  1.1147 -0.3589 -1.4427
  503THF     C8 7974   3.550   1.261   3.757  0.2759 -0.7204  0.1848
  503THF     C9 7975   3.563   1.107   3.749 -0.0011 -0.3840 -0.3848
  503THF    H10 7976   3.648   1.309   3.753 -0.1731  0.1259 -2.7326
  503THF    H11 7977   3.495   1.306   3.675  0.6954 -0.5881 -0.0279
  503THF    H12 7978   3.553   1.065   3.649  0.0286 -2.6259  0.4950
  503THF    H13 7979   3.655   1.069   3.792 -0.9252 -0.3249  1.7557
  504THF     O1 7980   3.335   4.849   4.250  0.0218 -0.4551  0.3766
  504THF     C2 7981   3.256   4.786   4.149 -0.6141  0.0914 -1.1057
  504THF     C3 7982   3.453   4.904   4.186  0.5507  0.0745  0.3554
  504THF     H4 7983   3.210   4.861   4.084  2.4516  1.3768 -1.9671
  504THF     H5 7984   3.186   4.717   4.196  0.8431  0.3079  1.5356
  504THF     H6 7985   3.426   4.996   4.134  2.4640 -0.3180 -1.4489
  504THF     H7 7986   3.526   4.940   4.258  0.9450  1.1302 -0.5472
  504THF     C8 7987   3.493   4.792   4.086  0.2994 -0.2582 -0.1912
  504THF     C9 7988   3.365   4.714   4.065 -0.6559 -0.2383 -0.1690
  504THF    H10 7989   3.575   4.734   4.128  0.4144  0.4284  0.5476
  504THF    H11 7990   3.518   4.839   3.991 -0.3994 -0.7851 -0.6449
  504THF    H12 7991   3.328   4.722   3.962 -0.0327  1.8750 -0.2711
  504THF    H13 7992   3.370   4.610   4.096 -0.6993 -0.0528  0.4605
  505THF     O1 7993   0.889   4.252   3.875  0.0263 -0.4253 -0.1614
  505THF     C2 7994   1.029   4.241   3.870 -0.8860  0.7090 -0.0849
  505THF     C3 7995   0.843   4.365   3.793 -0.3291  0.7619  0.5634
  505THF     H4 7996   1.064   4.140   3.851  0.7729  1.0982  0.7052
  505THF     H5 7997   1.068   4.253   3.971  2.0060 -0.5132 -0.9484
  505THF     H6 7998   0.792   4.319   3.709 -1.0581 -0.4779  1.6403
  505THF     H7 7999   0.777   4.430   3.851 -0.6529 -0.5329  1.7102
  505THF     C8 8000   0.973   4.448   3.756  0.1229 -0.3180 -0.0952
  505THF     C9 8001   1.085   4.337   3.763  0.7534 -0.4277  0.4424
  505THF    H10 8002   0.988   4.524   3.833 -1.9334  0.0202  0.0344
  505THF    H11 8003   0.966   4.493   3.657 -1.7031  2.6962  1.2678
  505THF    H12 8004   1.107   4.294   3.666  2.0654  1.7417 -0.2966
  505THF    H13 8005   1.180   4.373   3.801  0.9821 -1.4746  0.9013
  506THF     O1 8006   2.395   1.253   0.519  0.6156  0.1080  0.6369
  506THF     C2 8007   2.402   1.133   0.436  0.0620  0.2411  0.8205
  506THF     C3 8008   2.311   1.328   0.438 -0.3130 -0.3253 -1.0928
  506THF     H4 8009   2.440   1.044   0.486  1.2534  0.3916  0.2205
  506THF     H5 8010   2.464   1.152   0.349  1.5377  0.0255  1.7903
  506THF     H6 8011   2.284   1.411   0.503  1.1891 -0.4052 -0.3207
  506THF     H7 8012   2.368   1.365   0.353  1.6431 -2.1580 -0.6703
  506THF     C8 8013   2.202   1.242   0.401  0.0989  0.6840 -0.0380
  506THF     C9 8014   2.263   1.108   0.389  0.2915 -0.7816 -0.8096
  506THF    H10 8015   2.144   1.275   0.315 -2.4430  0.0090  1.3144
  506THF    H11 8016   2.128   1.244   0.481 -1.5042  1.4726 -1.4790
  506THF    H12 8017   2.212   1.040   0.457  1.5604 -0.2530  0.7207
  506THF    H13 8018   2.263   1.061   0.290 -2.4393  0.4639 -1.5062
  507THF     O1 8019   0.935   2.097   5.128 -0.1444 -0.3335 -0.0851
  507THF     C2 8020   0.894   1.958   5.118  0.2459  0.7119  0.4014
  507THF     C3 8021   0.971   2.118   5.266 -0.0912  0.0085  0.8127
  507THF     H4 8022   0.972   1.883   5.109 -0.3539  0.1288 -0.1130
  507THF     H5 8023   0.837   1.940   5.026  0.1810 -1.4462  0.8301
  507THF     H6 8024   1.068   2.073   5.288 -0.1316 -0.5484 -0.0937
  507THF     H7 8025   0.975   2.223   5.294 -0.1462 -0.0164  0.9113
  507THF     C8 8026   0.870   2.035   5.344  0.3647 -0.1279  0.0552
  507THF     C9 8027   0.801   1.939   5.235  0.1554  0.1338 -0.0424
  507THF    H10 8028   0.798   2.101   5.392  0.1381 -1.4465  1.6008
  507THF    H11 8029   0.921   1.982   5.425  1.6679 -0.8882 -1.2246
  507THF    H12 8030   0.793   1.832   5.257  1.2223 -0.0908 -0.6541
  507THF    H13 8031   0.698   1.968   5.217 -0.4308 -1.4827  0.4713
  508THF     O1 8032   3.988   2.254   5.329 -0.1392  0.3002  0.2346
  508THF     C2 8033   3.897   2.164   5.264 -0.4786  0.6783 -1.0461
  508THF     C3 8034   4.060   2.178   5.431 -0.3461  0.2619  0.3062
  508THF     H4 8035   3.882   2.203   5.163 -1.1666 -0.8858 -1.5797
  508THF     H5 8036   3.811   2.177   5.329  1.2860 -0.4526  1.6911
  508THF     H6 8037   4.164   2.210   5.429 -0.1155 -0.1650  2.4710
  508THF     H7 8038   4.013   2.194   5.528 -0.2303  0.3156  0.3533
  508THF     C8 8039   4.045   2.031   5.394  0.0546  0.6619  0.7200
  508THF     C9 8040   3.969   2.031   5.266 -0.1408 -0.2841 -0.2004
  508THF    H10 8041   3.977   1.977   5.459 -2.1319  1.6894 -0.5912
  508THF    H11 8042   4.141   1.979   5.384 -1.8150 -2.7326 -1.8757
  508THF    H12 8043   4.046   2.023   5.189 -0.5428 -0.3553 -0.5985
  508THF    H13 8044   3.904   1.945   5.251  0.2674 -0.8362  1.0871
  509THF     O1 8045   2.997   3.959   1.677  0.1269  0.1170 -0.3483
  509THF     C2 8046   3.001   4.022   1.806  0.0205  0.4398 -0.0184
  509THF     C3 8047   3.101   4.025   1.600 -0.3095 -0.0873 -0.3837
  509THF     H4 8048   3.066   3.966   1.874 -1.5800  0.9065  2.0174
  509THF     H5 8049   2.904   4.018   1.856 -0.0753 -1.2811 -0.2807
  509THF     H6 8050   3.173   3.951   1.566 -1.8097 -1.5444 -0.5429
  509THF     H7 8051   3.061   4.069   1.509 -1.6917 -0.7318 -0.1127
  509THF     C8 8052   3.171   4.140   1.685  0.0391  0.3221  0.6655
  509THF     C9 8053   3.059   4.162   1.782  0.2567 -0.1967 -0.6678
  509THF    H10 8054   3.194   4.225   1.620  0.7021 -1.7570 -1.9937
  509THF    H11 8055   3.260   4.100   1.731  1.4066  0.0419 -2.0484
  509THF    H12 8056   3.102   4.202   1.874 -0.7192  0.2547 -0.3831
  509THF    H13 8057   2.985   4.240   1.762 -0.0425  0.4054  2.3016
  510THF     O1 8058   3.949   2.579   4.590 -0.4483  0.2822 -0.2686
  510THF     C2 8059   3.998   2.703   4.543  0.3043  0.8655  0.3185
  510THF     C3 8060   3.813   2.572   4.577  1.0087 -0.8546 -0.5869
  510THF     H4 8061   4.008   2.700   4.435 -0.1547 -1.6465  0.2820
  510THF     H5 8062   4.094   2.731   4.587  0.0500  1.0947  0.7379
  510THF     H6 8063   3.770   2.546   4.481 -0.4473 -0.8525  0.0410
  510THF     H7 8064   3.766   2.511   4.654 -0.3527  0.0155 -0.6996
  510THF     C8 8065   3.770   2.716   4.613 -0.5408  0.9901  0.2745
  510THF     C9 8066   3.890   2.798   4.594  0.3892  0.1425  0.2963
  510THF    H10 8067   3.729   2.718   4.714 -0.1009  0.1775  0.4728
  510THF    H11 8068   3.683   2.758   4.562 -1.5511 -0.7970  0.4455
  510THF    H12 8069   3.871   2.882   4.528 -0.1158 -0.3725 -0.2188
  510THF    H13 8070   3.921   2.842   4.688  2.3686 -0.5746  0.0288
  511THF     O1 8071   3.294   4.570   5.152  0.2257  0.3340  0.1605
  511THF     C2 8072   3.357   4.688   5.199  0.1760  0.2852 -0.4319
  511THF     C3 8073   3.392   4.466   5.144  0.6076 -0.6271  0.1312
  511THF     H4 8074   3.281   4.762   5.226 -0.7069 -1.4944  2.4593
  511THF     H5 8075   3.408   4.744   5.121 -0.4647  1.0074 -0.3468
  511THF     H6 8076   3.330   4.377   5.156 -1.1393  0.5712  0.3326
  511THF     H7 8077   3.434   4.480   5.044  1.4564 -1.5030  0.3540
  511THF     C8 8078   3.496   4.496   5.249  0.9021 -0.2815 -0.5564
  511THF     C9 8079   3.457   4.635   5.307  0.2396 -0.0327  0.3362
  511THF    H10 8080   3.596   4.505   5.206  1.7424  0.8559  1.4652
  511THF    H11 8081   3.515   4.427   5.332  0.7285 -0.6710 -0.8357
  511THF    H12 8082   3.391   4.620   5.393 -1.1898  1.0983 -0.5145
  511THF    H13 8083   3.551   4.685   5.328  0.0944  0.6568 -0.5789
  512THF     O1 8084   3.534   2.084   4.382  0.2634  0.4025 -0.0308
  512THF     C2 8085   3.527   2.062   4.521 -0.1955 -0.7844  0.2035
  512THF     C3 8086   3.653   2.148   4.358 -0.3689  0.4966  0.0514
  512THF     H4 8087   3.451   1.991   4.554 -0.1536 -0.8510  0.1576
  512THF     H5 8088   3.486   2.155   4.560  0.0966 -0.5669 -0.0011
  512THF     H6 8089   3.682   2.136   4.254  1.7739  0.0954  0.6424
  512THF     H7 8090   3.620   2.249   4.384 -0.6467  0.0852  1.3524
  512THF     C8 8091   3.753   2.082   4.445  1.1344  0.5247  0.2415
  512THF     C9 8092   3.674   2.048   4.572 -0.3399  0.0784  0.5233
  512THF    H10 8093   3.842   2.144   4.458  0.3026  2.2606 -1.7918
  512THF    H11 8094   3.795   1.995   4.395  0.2884  0.4213 -0.2894
  512THF    H12 8095   3.681   1.942   4.597 -0.4165 -0.2718 -0.8418
  512THF    H13 8096   3.698   2.112   4.656  0.3193 -1.3786  1.4885
  513THF     O1 8097   2.402   2.109   3.352 -0.2207 -0.4495  0.1575
  513THF     C2 8098   2.333   2.231   3.333  0.5699 -0.4788  0.0546
  513THF     C3 8099   2.335   2.014   3.277 -0.2238 -0.3545 -0.9049
  513THF     H4 8100   2.391   2.323   3.342 -0.4764  0.0628  1.8544
  513THF     H5 8101   2.257   2.234   3.412  0.7677  0.9644  0.2194
  513THF     H6 8102   2.401   1.952   3.216  0.8285  0.0389 -0.2011
  513THF     H7 8103   2.277   1.943   3.336  0.2195 -1.3245 -1.5887
  513THF     C8 8104   2.231   2.073   3.187  0.5031 -0.0814  0.2534
  513THF     C9 8105   2.271   2.223   3.193 -0.3570  0.5628 -0.4005
  513THF    H10 8106   2.128   2.066   3.223 -0.3134  2.4541 -1.3589
  513THF    H11 8107   2.240   2.025   3.090  0.1250 -1.6927  0.9671
  513THF    H12 8108   2.344   2.244   3.114  0.1526  1.1334  0.2106
  513THF    H13 8109   2.190   2.292   3.173 -1.8790 -1.1395 -0.3531
  514THF     O1 8110   1.504   0.357   4.702 -0.4360  0.3449 -0.1271
  514THF     C2 8111   1.504   0.257   4.602  0.1507 -0.4791 -0.0294
  514THF     C3 8112   1.416   0.322   4.803  0.1380 -0.1365  0.6528
  514THF     H4 8113   1.579   0.180   4.616  0.7697 -0.1020 -1.1225
  514THF     H5 8114   1.538   0.293   4.505 -1.1107 -0.1183 -0.3561
  514THF     H6 8115   1.483   0.301   4.886  3.9841 -0.3071 -2.1864
  514THF     H7 8116   1.335   0.391   4.825 -0.4702  0.8122 -3.5919
  514THF     C8 8117   1.343   0.201   4.746 -0.4072  0.7271  0.4929
  514THF     C9 8118   1.368   0.206   4.603  0.0510  0.3398  0.4052
  514THF    H10 8119   1.241   0.217   4.779 -0.3298 -1.0064  1.7409
  514THF    H11 8120   1.384   0.106   4.782  0.0354  0.1540 -1.4238
  514THF    H12 8121   1.364   0.115   4.543  2.9021  1.5601 -1.8766
  514THF    H13 8122   1.303   0.275   4.549 -1.0761 -1.2027 -0.3058
  515THF     O1 8123   2.828   1.123   1.055  0.3242  0.2180  0.1462
  515THF     C2 8124   2.930   1.048   1.109  0.3556 -0.1773  0.2439
  515THF     C3 8125   2.863   1.165   0.921 -1.5656 -1.1390  0.2431
  515THF     H4 8126   2.894   0.976   1.183 -2.5405 -0.0316 -0.9259
  515THF     H5 8127   2.998   1.109   1.169 -0.9949 -0.2999  2.0021
  515THF     H6 8128   2.773   1.185   0.862 -1.9457 -2.2937  0.3998
  515THF     H7 8129   2.917   1.258   0.936  0.3883 -2.1950  0.1245
  515THF     C8 8130   2.938   1.048   0.871 -0.3818 -0.3639  0.1609
  515THF     C9 8131   3.001   0.984   0.988 -0.2888  0.2846 -0.2775
  515THF    H10 8132   3.001   1.065   0.784 -3.2634 -1.1655 -2.2588
  515THF    H11 8133   2.864   0.978   0.832 -0.0922  0.6447 -2.3270
  515THF    H12 8134   2.991   0.875   0.980  1.8039 -0.1516  1.9160
  515THF    H13 8135   3.105   1.011   1.005 -0.1376 -1.7569  2.9279
  516THF     O1 8136   1.894   3.233   1.850 -0.3554 -0.0603  0.3444
  516THF     C2 8137   1.852   3.319   1.741 -0.1216  0.7403  0.3466
  516THF     C3 8138   1.780   3.173   1.904 -0.5646 -0.1685 -0.9108
  516THF     H4 8139   1.927   3.353   1.669  1.2743 -2.2200  0.2465
  516THF     H5 8140   1.815   3.407   1.794 -0.6695  1.0175 -0.4743
  516THF     H6 8141   1.815   3.077   1.944 -0.7665  0.2177  0.2335
  516THF     H7 8142   1.732   3.234   1.980 -1.1681 -1.3165 -0.3343
  516THF     C8 8143   1.685   3.150   1.786  0.1668  0.3939  0.0554
  516THF     C9 8144   1.748   3.232   1.669  0.1951  0.3787 -0.2833
  516THF    H10 8145   1.585   3.190   1.804 -1.0029 -2.4353  0.2968
  516THF    H11 8146   1.673   3.045   1.758  0.8388  0.8429 -2.0813
  516THF    H12 8147   1.784   3.172   1.586 -0.3980 -1.8509  0.9926
  516THF    H13 8148   1.672   3.286   1.613  0.8261  0.2765 -1.2640
  517THF     O1 8149   3.858   1.789   4.972  0.4907  0.1347 -0.4857
  517THF     C2 8150   3.995   1.785   4.933  0.2837  0.1214  0.5720
  517THF     C3 8151   3.815   1.673   5.037  0.1184  0.2455  0.1791
  517THF     H4 8152   4.070   1.824   5.001  1.5789  0.3267 -0.9114
  517THF     H5 8153   4.003   1.844   4.841  1.1223 -0.4033  0.3038
  517THF     H6 8154   3.837   1.669   5.144 -0.6071  2.4899  0.4691
  517THF     H7 8155   3.707   1.664   5.030  0.3537 -2.1812 -2.0124
  517THF     C8 8156   3.885   1.569   4.950  0.5917 -0.1288 -0.0992
  517THF     C9 8157   4.014   1.634   4.900  0.9531 -0.2297 -0.4322
  517THF    H10 8158   3.826   1.571   4.859  0.1885  1.8889  0.1550
  517THF    H11 8159   3.895   1.467   4.985  0.0353  0.1372  0.8821
  517THF    H12 8160   4.095   1.573   4.939 -0.2808 -2.2306 -0.8522
  517THF    H13 8161   4.020   1.624   4.792  0.6767  0.0305 -0.4752
  518THF     O1 8162   4.459   3.373   4.015  0.2282 -0.3165  0.3491
  518THF     C2 8163   4.525   3.487   4.056 -0.1893  0.0668  0.0907
  518THF     C3 8164   4.319   3.398   4.012 -0.6587  0.0399  0.5463
  518THF     H4 8165   4.511   3.577   3.996 -1.7195  0.0351  0.3632
  518THF     H5 8166   4.627   3.466   4.088  0.9840  0.9099 -2.7341
  518THF     H6 8167   4.286   3.458   3.928  0.9163 -1.7897 -1.4950
  518THF     H7 8168   4.264   3.304   4.001  1.3902 -1.1254 -0.3984
  518THF     C8 8169   4.300   3.466   4.147 -0.0705 -0.0314  0.6986
  518THF     C9 8170   4.437   3.523   4.179 -0.2993 -0.1198  0.3695
  518THF    H10 8171   4.281   3.392   4.224 -0.7418 -0.1252  0.4536
  518THF    H11 8172   4.217   3.536   4.136 -0.5612 -0.7797 -0.5735
  518THF    H12 8173   4.425   3.630   4.197  0.3430 -0.0946  0.6547
  518THF    H13 8174   4.477   3.494   4.276 -0.2134  0.6911  0.5830
  519THF     O1 8175   1.281   4.162   5.467  0.4575 -0.1309  0.1209
  519THF     C2 8176   1.310   4.049   5.548 -1.1284  0.3635  0.4811
  519THF     C3 8177   1.257   4.113   5.337  0.0301  0.1309 -0.5294
  519THF     H4 8178   1.226   3.980   5.546 -0.7062 -0.1513 -1.0411
  519THF     H5 8179   1.355   4.075   5.644 -0.9257 -1.6168  0.9697
  519THF     H6 8180   1.155   4.075   5.328 -0.3254  0.8790  0.2238
  519THF     H7 8181   1.253   4.192   5.262 -1.6464  0.1287 -0.4708
  519THF     C8 8182   1.364   4.009   5.318 -0.1388  0.5353  0.3909
  519THF     C9 8183   1.414   3.971   5.460  0.1463  0.2952 -0.4188
  519THF    H10 8184   1.445   4.051   5.258 -0.4913 -1.6711 -1.7654
  519THF    H11 8185   1.328   3.928   5.255 -0.7637  1.1981 -0.1242
  519THF    H12 8186   1.400   3.863   5.464  0.8834  0.2023 -0.1593
  519THF    H13 8187   1.518   3.988   5.486  0.2642 -2.3704  1.1524
  520THF     O1 8188   4.702   5.091   3.477  0.0037 -0.7281 -0.5521
  520THF     C2 8189   4.779   5.184   3.552 -0.3588  1.4032  0.5308
  520THF     C3 8190   4.573   5.086   3.539  0.7087  0.1494  0.7957
  520THF     H4 8191   4.761   5.285   3.517  1.1302  0.4506 -3.4877
  520THF     H5 8192   4.885   5.166   3.539  0.1752  3.7636  1.2366
  520THF     H6 8193   4.513   5.173   3.511  1.1746  0.4356  0.6734
  520THF     H7 8194   4.523   4.996   3.504 -0.0141  1.1189 -0.7701
  520THF     C8 8195   4.600   5.086   3.687 -0.2399  0.0005 -0.3203
  520THF     C9 8196   4.735   5.165   3.698  0.0646  0.1118 -0.6408
  520THF    H10 8197   4.620   4.985   3.724 -1.3464  0.4129  1.5572
  520THF    H11 8198   4.533   5.134   3.759  1.3612 -0.0044  1.2316
  520THF    H12 8199   4.726   5.266   3.738  1.2807 -0.2115  0.5374
  520THF    H13 8200   4.811   5.103   3.746 -0.0027 -0.3257 -1.0914
  521THF     O1 8201   1.708   4.855   4.839 -0.2195 -0.0599  0.3370
  521THF     C2 8202   1.744   4.789   4.962 -0.4253  0.5478  0.4155
  521THF     C3 8203   1.606   4.946   4.876 -0.8188  0.4830 -0.1783
  521THF     H4 8204   1.834   4.728   4.954  0.6501  1.7677  2.3646
  521THF     H5 8205   1.664   4.723   4.995  0.2989 -0.4773  0.1898
  521THF     H6 8206   1.586   5.011   4.791  0.1166 -0.7352 -1.3692
  521THF     H7 8207   1.505   4.905   4.879 -1.2275  0.9915 -3.4241
  521THF     C8 8208   1.656   5.009   5.003  0.2379 -0.1501 -0.0980
  521THF     C9 8209   1.761   4.915   5.052 -0.2601 -0.0604 -0.6655
  521THF    H10 8210   1.573   5.023   5.073 -0.7662 -1.6253 -0.9362
  521THF    H11 8211   1.695   5.110   4.989  0.0295  0.0789  0.9028
  521THF    H12 8212   1.863   4.951   5.041  0.6859 -1.7840  1.6518
  521THF    H13 8213   1.746   4.901   5.159  1.0172 -0.9381 -0.5652
  522THF     O1 8214   2.598   3.141   5.299 -0.2047  0.3193  0.4330
  522THF     C2 8215   2.736   3.154   5.268  0.1566 -0.2892  0.6926
  522THF     C3 8216   2.588   3.164   5.433 -0.6164 -0.3459  0.6163
  522THF     H4 8217   2.744   3.177   5.162 -1.8537 -0.6998  0.4153
  522THF     H5 8218   2.794   3.065   5.293  0.5360 -0.4330 -0.6283
  522THF     H6 8219   2.482   3.153   5.457 -1.2670 -0.8909 -2.1685
  522THF     H7 8220   2.630   3.077   5.485  0.0477 -0.9305 -0.8536
  522THF     C8 8221   2.669   3.295   5.447  0.2420  0.2771 -0.0325
  522THF     C9 8222   2.781   3.271   5.348 -0.0691 -0.5151 -0.5952
  522THF    H10 8223   2.708   3.324   5.545 -1.0740  0.2161  0.5199
  522THF    H11 8224   2.609   3.383   5.424 -0.3457  0.0504  0.5990
  522THF    H12 8225   2.786   3.360   5.284 -1.7283  0.0164 -0.0279
  522THF    H13 8226   2.872   3.239   5.399 -0.2555 -0.8355 -0.4621
  523THF     O1 8227   4.429   4.039   1.385  0.4203 -0.2093  0.3149
  523THF     C2 8228   4.553   4.004   1.439 -0.3047 -0.5735  0.6199
  523THF     C3 8229   4.426   4.175   1.365  0.0164  0.2648  0.2434
  523THF     H4 8230   4.562   3.897   1.426 -1.8419 -0.6666  0.0842
  523THF     H5 8231   4.549   4.030   1.545 -0.0218 -1.4314  0.8461
  523THF     H6 8232   4.341   4.203   1.303  1.4151  0.8871 -1.4741
  523THF     H7 8233   4.427   4.216   1.466  3.0887  1.8587 -0.2855
  523THF     C8 8234   4.562   4.206   1.294  0.5344  0.3588 -1.0769
  523THF     C9 8235   4.648   4.095   1.350 -0.1571  0.6652  0.1046
  523THF    H10 8236   4.601   4.302   1.328  0.2808  0.2920 -0.5911
  523THF    H11 8237   4.556   4.204   1.185 -0.4574 -0.9045 -1.0177
  523THF    H12 8238   4.691   4.039   1.267 -0.5221  0.4296  0.0714
  523THF    H13 8239   4.735   4.128   1.405  0.6324  0.5338 -1.0327
  524THF     O1 8240   1.114   2.958   3.801  0.2770 -0.2324  0.2157
  524THF     C2 8241   1.071   2.842   3.727  0.3411  0.0877 -0.0394
  524THF     C3 8242   1.231   2.917   3.871 -0.4936  0.3863  0.0075
  524THF     H4 8243   1.120   2.844   3.630  0.5170 -0.7611  0.0244
  524THF     H5 8244   0.962   2.847   3.716  0.1168 -1.5641  1.1345
  524THF     H6 8245   1.319   2.925   3.807 -0.7706  0.7172 -0.3399
  524THF     H7 8246   1.250   2.989   3.951 -1.7523 -1.5762  2.1869
  524THF     C8 8247   1.208   2.777   3.920 -0.0687  0.2062  0.0995
  524THF     C9 8248   1.117   2.721   3.806  0.2063  0.2099  0.1480
  524THF    H10 8249   1.160   2.788   4.018  2.8465  2.6410  1.4078
  524THF    H11 8250   1.290   2.708   3.935  0.5871  1.2028  1.2721
  524THF    H12 8251   1.171   2.659   3.734 -2.5080 -0.4273 -1.4923
  524THF    H13 8252   1.037   2.662   3.851 -0.2115 -0.3940 -1.3094
  525THF     O1 8253   2.664   2.951   3.399 -0.2234 -0.1121 -0.3407
  525THF     C2 8254   2.621   2.912   3.533 -0.0408  0.4346  0.2431
  525THF     C3 8255   2.703   2.836   3.329 -0.0722 -0.0590  0.3980
  525THF     H4 8256   2.515   2.934   3.548 -0.9267 -2.0181 -1.7538
  525THF     H5 8257   2.678   2.973   3.604 -1.4150  2.4070 -0.2599
  525THF     H6 8258   2.622   2.772   3.293  1.5774 -1.1585 -1.5638
  525THF     H7 8259   2.764   2.849   3.240 -0.8979 -1.6007 -0.4461
  525THF     C8 8260   2.764   2.746   3.436 -0.0165 -0.1054  0.1527
  525THF     C9 8261   2.653   2.765   3.538  0.0258  0.8058  0.0411
  525THF    H10 8262   2.860   2.781   3.472  0.7777 -0.1595 -1.7541
  525THF    H11 8263   2.789   2.645   3.402  0.7318  0.0056  0.3672
  525THF    H12 8264   2.564   2.702   3.528 -0.4734  1.5598 -0.3719
  525THF    H13 8265   2.699   2.727   3.629  0.5790 -0.8337 -0.8803
  526THF     O1 8266   2.412   3.002   1.427  0.2247 -0.0259 -0.0944
  526THF     C2 8267   2.290   2.933   1.419 -0.3854  0.4085  0.1255
  526THF     C3 8268   2.503   2.968   1.325 -0.0377 -0.4477  0.5355
  526THF     H4 8269   2.203   2.990   1.451 -0.4834 -1.3040  3.2289
  526THF     H5 8270   2.299   2.847   1.486  0.9228 -1.1671 -1.9261
  526THF     H6 8271   2.579   3.045   1.311 -0.7094  0.3584  1.1623
  526THF     H7 8272   2.545   2.871   1.352 -0.8128 -0.8964  0.1617
  526THF     C8 8273   2.414   2.945   1.203 -0.3867  0.9689 -0.1374
  526THF     C9 8274   2.281   2.901   1.267 -0.0606  0.0198 -0.1884
  526THF    H10 8275   2.460   2.876   1.132 -0.0695  0.7749  0.2515
  526THF    H11 8276   2.401   3.039   1.150 -1.0488  0.3749 -1.0555
  526THF    H12 8277   2.186   2.943   1.233  0.8438  2.6644  0.3301
  526THF    H13 8278   2.264   2.795   1.252 -0.7345  0.0561  0.2890
  527THF     O1 8279   2.233   1.437   5.497  0.2307 -0.3496  0.1971
  527THF     C2 8280   2.150   1.452   5.385  0.7992  0.4948  0.5246
  527THF     C3 8281   2.267   1.303   5.504 -0.8999 -0.6724  0.1150
  527THF     H4 8282   2.167   1.557   5.358 -1.2966  1.0669  1.2191
  527THF     H5 8283   2.048   1.431   5.416  0.7491 -1.0083 -0.5907
  527THF     H6 8284   2.365   1.286   5.548 -0.5508 -0.8164 -0.7106
  527THF     H7 8285   2.199   1.245   5.567 -3.4931  0.1907 -1.6902
  527THF     C8 8286   2.265   1.251   5.358  0.2889 -0.5534 -0.2175
  527THF     C9 8287   2.211   1.369   5.273  0.4115 -0.7144 -0.8282
  527THF    H10 8288   2.210   1.157   5.359 -0.3801 -0.2016  2.1703
  527THF    H11 8289   2.363   1.219   5.322  0.7711  1.4771 -0.8239
  527THF    H12 8290   2.295   1.416   5.223  0.0275  0.5682 -0.3127
  527THF    H13 8291   2.134   1.336   5.202 -0.9000  1.4179 -0.5061
  528THF     O1 8292   5.333   4.279   0.047  0.3587  0.2099  0.2297
  528THF     C2 8293   5.447   4.205   0.023  0.3109  0.0674 -0.1760
  528THF     C3 8294   5.353   4.403  -0.025 -0.1136 -0.1073  0.2900
  528THF     H4 8295   5.431   4.156  -0.073 -1.1687 -1.1809  0.6574
  528THF     H5 8296   5.454   4.132   0.104 -2.4168 -2.0330 -1.6526
  528THF     H6 8297   5.294   4.387  -0.115  2.0127  0.2219 -1.2261
  528THF     H7 8298   5.307   4.485   0.031 -2.9183 -2.3083  1.4649
  528THF     C8 8299   5.498   4.422  -0.044 -0.2682  0.1575  0.6410
  528THF     C9 8300   5.563   4.298   0.008 -0.0240  0.1839 -0.4208
  528THF    H10 8301   5.536   4.516  -0.003  0.3765  0.5024 -0.6750
  528THF    H11 8302   5.515   4.437  -0.151 -2.7434 -1.2488 -0.0192
  528THF    H12 8303   5.647   4.274  -0.058  0.3093  0.1361  0.0087
  528THF    H13 8304   5.608   4.319   0.106 -0.2638 -0.5673 -0.1420
  529THF     O1 8305   0.648   2.800   5.105 -0.1239 -0.0075 -0.2492
  529THF     C2 8306   0.732   2.859   5.007  0.3142 -0.3310 -0.2906
  529THF     C3 8307   0.577   2.901   5.171 -0.6285 -0.4306  0.3497
  529THF     H4 8308   0.666   2.880   4.922 -0.3403  0.3365  0.3740
  529THF     H5 8309   0.807   2.790   4.968  0.9378 -0.8335  1.7235
  529THF     H6 8310   0.500   2.938   5.104 -0.6486 -0.7308  0.2111
  529THF     H7 8311   0.522   2.869   5.259 -0.4816  1.3440  1.1486
  529THF     C8 8312   0.689   3.002   5.194 -0.0092  0.5363  0.0231
  529THF     C9 8313   0.784   2.982   5.078 -0.1882  0.5880 -0.1182
  529THF    H10 8314   0.748   2.976   5.281 -1.1625  0.4954  0.8045
  529THF    H11 8315   0.652   3.105   5.189  1.0037  0.8620 -2.8506
  529THF    H12 8316   0.784   3.075   5.023 -3.6153 -0.2396 -1.7425
  529THF    H13 8317   0.883   2.961   5.119 -0.4440 -0.4300  0.0235
  530THF     O1 8318   2.331   0.006   0.205  0.0891 -0.0413  0.1634
  530THF     C2 8319   2.211  -0.026   0.279  0.0981 -0.0835  0.3802
  530THF     C3 8320   2.350  -0.096   0.112  0.9812  0.1861 -0.3100
  530THF     H4 8321   2.172   0.056   0.340  0.4132  0.1566  0.2666
  530THF     H5 8322   2.239  -0.098   0.356  2.9843  0.0481 -0.4112
  530THF     H6 8323   2.415  -0.054   0.035 -0.5039  0.6338 -1.3582
  530THF     H7 8324   2.417  -0.173   0.150  0.5753 -0.6090 -1.1716
  530THF     C8 8325   2.209  -0.146   0.075 -0.9335  0.5878 -0.0787
  530THF     C9 8326   2.116  -0.081   0.171 -0.5929  0.0556 -0.0864
  530THF    H10 8327   2.208  -0.254   0.076  0.6597  0.5487  1.7476
  530THF    H11 8328   2.194  -0.102  -0.024  0.5177  1.9630  0.2480
  530THF    H12 8329   2.081   0.011   0.125  0.9145  0.9032  0.4202
  530THF    H13 8330   2.031  -0.143   0.202 -1.6962  0.8350 -1.4230
  531THF     O1 8331   3.880   2.772   3.522  0.0895  0.6687 -0.2569
  531THF     C2 8332   3.924   2.681   3.420  0.6472  0.2652 -0.9632
  531THF     C3 8333   3.736   2.775   3.555  0.1592  0.4176 -0.4031
  531THF     H4 8334   4.018   2.630   3.442  0.5549  1.0478  1.4552
  531THF     H5 8335   3.916   2.715   3.317 -1.9167 -0.5512 -1.1203
  531THF     H6 8336   3.723   2.754   3.661  1.2606  0.1898 -0.2952
  531THF     H7 8337   3.680   2.867   3.541  1.1130  0.9659 -0.6829
  531THF     C8 8338   3.686   2.658   3.464 -0.5044 -0.0651 -0.2158
  531THF     C9 8339   3.814   2.575   3.442 -0.3152  0.3388  0.2125
  531THF    H10 8340   3.642   2.705   3.376 -2.2268  0.2585  0.7802
  531THF    H11 8341   3.612   2.589   3.504 -2.0193  0.9111 -1.2556
  531THF    H12 8342   3.844   2.524   3.533 -0.5751 -0.8380 -0.3487
  531THF    H13 8343   3.804   2.501   3.362  1.9144  0.6880 -0.4518
  532THF     O1 8344   2.690   2.066   1.577 -0.2230  0.5875  0.5518
  532THF     C2 8345   2.679   2.206   1.567 -0.4223 -0.3939  0.4728
  532THF     C3 8346   2.557   2.012   1.595  0.1666  0.5276  0.2270
  532THF     H4 8347   2.732   2.249   1.482 -0.0389 -1.5441  0.1090
  532THF     H5 8348   2.720   2.241   1.662  0.8464 -0.4792 -0.0377
  532THF     H6 8349   2.539   1.971   1.495 -1.3665 -0.0973  0.7443
  532THF     H7 8350   2.548   1.929   1.665  0.5383  1.3342  1.2458
  532THF     C8 8351   2.467   2.130   1.625 -0.0866 -0.4777  0.0403
  532THF     C9 8352   2.538   2.235   1.548 -0.0821  0.1162  0.5315
  532THF    H10 8353   2.465   2.165   1.728  0.1012  0.3744 -0.2410
  532THF    H11 8354   2.365   2.115   1.589  0.6587  0.8414 -2.9554
  532THF    H12 8355   2.508   2.217   1.444 -0.0146  2.6587 -0.0035
  532THF    H13 8356   2.510   2.337   1.576  1.1372  0.3576  0.9520
  533THF     O1 8357   2.273   5.084   3.059  0.1333  0.1725  0.2171
  533THF     C2 8358   2.138   5.072   3.108 -0.3898  0.1554 -0.5909
  533THF     C3 8359   2.257   5.166   2.944 -0.4212 -0.5304 -0.0192
  533THF     H4 8360   2.128   5.170   3.154  1.2335 -1.0561  2.7035
  533THF     H5 8361   2.116   4.996   3.183 -1.2756  1.7121  0.7995
  533THF     H6 8362   2.243   5.263   2.992  0.1775 -0.6902  0.4970
  533THF     H7 8363   2.348   5.175   2.884 -1.3870 -0.2536 -1.4940
  533THF     C8 8364   2.136   5.119   2.864  0.0462 -0.2844 -0.5091
  533THF     C9 8365   2.055   5.060   2.982  0.3793 -0.3974 -0.8134
  533THF    H10 8366   2.159   5.052   2.781  3.4151 -0.8786  0.7691
  533THF    H11 8367   2.083   5.206   2.826  0.9291 -0.1561 -1.4833
  533THF    H12 8368   1.958   5.104   3.004  1.0094  0.0936  1.2480
  533THF    H13 8369   2.047   4.954   2.960 -2.4520 -0.3014 -0.6003
  534THF     O1 8370   0.781   0.804   4.499  0.1786  0.4612 -0.0378
  534THF     C2 8371   0.677   0.832   4.407 -0.0740 -0.2585 -0.4037
  534THF     C3 8372   0.901   0.787   4.423  0.3600  0.2203 -0.8592
  534THF     H4 8373   0.593   0.894   4.438  0.3115  0.1478 -0.1605
  534THF     H5 8374   0.638   0.742   4.360  0.5122 -1.0616  0.6260
  534THF     H6 8375   0.991   0.776   4.484 -1.7847 -1.1320  2.3444
  534THF     H7 8376   0.896   0.711   4.345  1.9823  0.0983 -0.8803
  534THF     C8 8377   0.891   0.916   4.346 -0.7254  0.5228 -0.1876
  534THF     C9 8378   0.752   0.915   4.298  0.0769 -0.9006 -0.4069
  534THF    H10 8379   0.949   0.924   4.254 -0.9000  2.2162 -0.1786
  534THF    H11 8380   0.926   0.997   4.410 -2.2240  1.4335 -0.4943
  534THF    H12 8381   0.712   1.017   4.302  0.1265 -0.8668 -0.7984
  534THF    H13 8382   0.761   0.874   4.198 -0.8890 -1.1013 -0.4242
  535THF     O1 8383   3.686   5.465   4.334 -0.3398  0.4820  0.4898
  535THF     C2 8384   3.687   5.353   4.416 -0.4732  0.9328 -0.0021
  535THF     C3 8385   3.772   5.450   4.223 -0.1592  0.5246  0.5470
  535THF     H4 8386   3.585   5.315   4.421  0.4894 -2.4949 -2.5735
  535THF     H5 8387   3.727   5.381   4.514 -1.6098  1.0813  0.4415
  535THF     H6 8388   3.732   5.513   4.143  0.7716  1.0657  0.4838
  535THF     H7 8389   3.876   5.476   4.243  1.0701 -3.4968  0.1206
  535THF     C8 8390   3.764   5.295   4.197  0.8184  0.0496  0.1982
  535THF     C9 8391   3.762   5.238   4.339 -0.4192  0.0923 -0.2904
  535THF    H10 8392   3.855   5.262   4.147  1.5729  1.3503  0.6419
  535THF    H11 8393   3.664   5.268   4.163  0.5209 -0.4214  1.3997
  535THF    H12 8394   3.727   5.135   4.342  1.3344 -0.5354 -0.1917
  535THF    H13 8395   3.865   5.224   4.371 -0.5668  0.4406  0.3613
  536THF     O1 8396   5.459   2.870   1.902  0.3197  0.0934 -0.3162
  536THF     C2 8397   5.550   2.830   2.002 -0.3536 -0.6323  0.2528
  536THF     C3 8398   5.464   2.782   1.790  0.0314  0.2962 -0.6070
  536THF     H4 8399   5.505   2.836   2.101 -0.1732 -1.5076  0.3935
  536THF     H5 8400   5.640   2.890   1.996 -1.5934  1.1507 -2.1032
  536THF     H6 8401   5.368   2.729   1.786 -0.4093  1.0181  0.0968
  536THF     H7 8402   5.470   2.837   1.696 -3.2107  0.9643 -0.5415
  536THF     C8 8403   5.588   2.689   1.820  0.8473 -0.5362  0.1061
  536THF     C9 8404   5.574   2.685   1.972  0.0686  0.1555  0.3601
  536THF    H10 8405   5.680   2.736   1.784  0.5576  0.1741  0.2694
  536THF    H11 8406   5.574   2.591   1.775  4.5299 -1.5636  0.8369
  536THF    H12 8407   5.494   2.618   2.005  0.1369  0.1782  0.5757
  536THF    H13 8408   5.668   2.661   2.023  0.3860 -1.4422 -0.8995
  537THF     O1 8409   3.071   4.106   2.382  0.3002 -0.5099  0.3710
  537THF     C2 8410   3.049   4.223   2.467  0.5182 -0.0499  0.4167
  537THF     C3 8411   3.040   4.147   2.249 -0.1843 -0.0051  0.6144
  537THF     H4 8412   3.137   4.285   2.452 -0.1483  0.2103 -3.6561
  537THF     H5 8413   3.037   4.198   2.572  1.4241  0.0318  0.5477
  537THF     H6 8414   3.137   4.149   2.198 -0.3314  0.6222  0.3557
  537THF     H7 8415   2.978   4.069   2.204 -2.5952  2.1799 -0.0715
  537THF     C8 8416   2.972   4.285   2.251  0.6373 -0.1299 -0.6545
  537THF     C9 8417   2.930   4.296   2.399 -0.2275  0.8007 -1.0388
  537THF    H10 8418   2.889   4.310   2.185 -0.3849  1.9374  1.2884
  537THF    H11 8419   3.041   4.365   2.227 -0.9649  1.4593 -0.1843
  537THF    H12 8420   2.930   4.393   2.448  4.0522 -0.5825  2.4332
  537THF    H13 8421   2.840   4.236   2.410  0.9620 -1.0687 -1.0356
  538THF     O1 8422   3.222   4.417   0.177  0.0111  0.4977 -0.2052
  538THF     C2 8423   3.264   4.307   0.257  0.6993 -0.1700 -0.0403
  538THF     C3 8424   3.337   4.493   0.158  0.0688 -0.0830  0.2545
  538THF     H4 8425   3.181   4.239   0.276  1.9644 -1.6536  0.3193
  538THF     H5 8426   3.295   4.352   0.352  0.3439 -0.7306  0.3439
  538THF     H6 8427   3.316   4.580   0.096  0.7058  1.0700  1.5885
  538THF     H7 8428   3.362   4.544   0.252 -0.7974  3.1419 -1.1086
  538THF     C8 8429   3.436   4.392   0.107  0.2028 -0.0646  0.3354
  538THF     C9 8430   3.395   4.267   0.184 -0.0499  0.3938  0.5008
  538THF    H10 8431   3.534   4.430   0.137 -0.3095 -0.1726  2.3032
  538THF    H11 8432   3.434   4.375  -0.000 -0.3716 -0.0826  0.3449
  538THF    H12 8433   3.384   4.187   0.111  1.1397  0.3635  0.3360
  538THF    H13 8434   3.477   4.227   0.244 -0.8240 -0.0655  1.2759
  539THF     O1 8435   2.077   1.661   5.136  0.2162  0.4135  0.4148
  539THF     C2 8436   2.124   1.670   5.000 -0.5228 -0.2283  0.1502
  539THF     C3 8437   1.966   1.752   5.156 -0.2590 -0.2174 -0.1436
  539THF     H4 8438   2.092   1.590   4.933 -0.9079  1.5406 -1.8848
  539THF     H5 8439   2.232   1.662   4.998 -0.4926 -0.5458  1.5707
  539THF     H6 8440   1.869   1.703   5.164  0.1675 -0.8583  1.2790
  539THF     H7 8441   1.982   1.811   5.246  2.1556  1.4201 -1.5211
  539THF     C8 8442   1.960   1.844   5.029  0.3520 -0.2077  0.0297
  539THF     C9 8443   2.089   1.812   4.957 -0.5872  0.0515 -0.5413
  539THF    H10 8444   1.946   1.948   5.059 -2.1599 -0.2901 -0.6411
  539THF    H11 8445   1.867   1.820   4.976  1.4236 -1.2180 -1.4625
  539THF    H12 8446   2.088   1.837   4.851  0.9258  1.2396 -0.3144
  539THF    H13 8447   2.159   1.887   4.994 -2.8904  2.0182  0.0526
  540THF     O1 8448   4.075   5.405   2.945  0.5449  0.1283  0.4598
  540THF     C2 8449   3.948   5.376   2.996  0.2337 -0.2681 -0.2864
  540THF     C3 8450   4.106   5.318   2.841 -0.2917 -0.4621 -0.2623
  540THF     H4 8451   3.872   5.426   2.935  2.2047  0.4003 -2.3305
  540THF     H5 8452   3.925   5.397   3.100 -2.3544 -0.9077 -0.6577
  540THF     H6 8453   4.143   5.372   2.753  2.7508  1.4012  1.9538
  540THF     H7 8454   4.190   5.257   2.874 -0.3725 -0.8170 -0.6988
  540THF     C8 8455   3.984   5.228   2.819  0.5061  0.1883 -0.0903
  540THF     C9 8456   3.941   5.233   2.971  0.4838 -0.2424  0.5900
  540THF    H10 8457   4.015   5.130   2.784  0.7875 -0.7264  2.5754
  540THF    H11 8458   3.905   5.259   2.750  0.4890  0.0550 -0.1307
  540THF    H12 8459   3.844   5.185   2.986  0.9850 -0.9584  1.6616
  540THF    H13 8460   4.012   5.183   3.037  1.5222  0.7382  0.2289
  541THF     O1 8461   0.468   3.338   4.924  0.1660  0.3862 -0.0241
  541THF     C2 8462   0.371   3.433   4.884  0.1916  0.4972 -0.4010
  541THF     C3 8463   0.519   3.377   5.053 -0.3326  0.2264 -0.0230
  541THF     H4 8464   0.280   3.397   4.930  0.7850 -0.3204  0.1590
  541THF     H5 8465   0.369   3.428   4.775  2.4087 -1.7699 -0.4361
  541THF     H6 8466   0.450   3.339   5.129 -1.8279 -0.3962 -1.6062
  541THF     H7 8467   0.619   3.335   5.062 -0.9474 -1.8949 -1.8532
  541THF     C8 8468   0.536   3.531   5.038  0.3788  0.7498  0.4236
  541THF     C9 8469   0.425   3.564   4.934 -0.1810 -0.1586 -0.2873
  541THF    H10 8470   0.629   3.552   4.985  0.0589  0.6821 -0.1771
  541THF    H11 8471   0.545   3.592   5.127 -0.5280 -0.5108  1.4203
  541THF    H12 8472   0.356   3.622   4.995  1.7614  0.5981  1.3062
  541THF    H13 8473   0.457   3.632   4.856 -0.2691  0.2383  0.0161
  542THF     O1 8474   3.285   4.988   2.148 -0.3843  0.3182 -0.5900
  542THF     C2 8475   3.241   4.972   2.283  0.5179 -0.4917 -0.2291
  542THF     C3 8476   3.268   5.122   2.097  0.0526  0.4018  0.0676
  542THF     H4 8477   3.313   4.908   2.334  1.8643  0.6933 -0.5438
  542THF     H5 8478   3.144   4.924   2.286  0.3681 -0.6140 -3.4563
  542THF     H6 8479   3.364   5.172   2.082  0.3396  0.7595  2.5565
  542THF     H7 8480   3.220   5.120   1.999 -0.5920  0.5347  0.3724
  542THF     C8 8481   3.185   5.192   2.211 -0.5083 -0.1557  0.1276
  542THF     C9 8482   3.236   5.116   2.333  0.0042 -0.0027  0.0090
  542THF    H10 8483   3.078   5.172   2.200 -0.3463  0.3209 -3.1249
  542THF    H11 8484   3.209   5.298   2.214 -1.8135  0.1367  1.2169
  542THF    H12 8485   3.340   5.146   2.342  0.4051 -0.3337 -2.5132
  542THF    H13 8486   3.188   5.131   2.429  0.2527 -1.8888  0.4642
  543THF     O1 8487   4.035   3.594   3.314 -0.0911 -0.4541  0.0014
  543THF     C2 8488   3.895   3.602   3.323 -0.1277  0.0858 -0.2102
  543THF     C3 8489   4.071   3.593   3.176 -0.5911  0.1145 -0.0403
  543THF     H4 8490   3.867   3.700   3.285  0.9481  0.5826  0.2251
  543THF     H5 8491   3.856   3.583   3.423  1.2311 -1.6180  0.0439
  543THF     H6 8492   4.068   3.688   3.124 -2.6896  0.9038  1.3876
  543THF     H7 8493   4.167   3.545   3.158 -0.7838  0.1124 -1.1884
  543THF     C8 8494   3.973   3.493   3.123 -0.1477 -0.6999 -0.4201
  543THF     C9 8495   3.853   3.499   3.223 -0.1706 -0.0625 -0.4447
  543THF    H10 8496   3.997   3.387   3.122  0.4051 -0.5815 -0.0532
  543THF    H11 8497   3.943   3.520   3.022 -0.4043  0.8771  0.0502
  543THF    H12 8498   3.764   3.531   3.169  0.7738 -0.3366 -2.2472
  543THF    H13 8499   3.822   3.403   3.266  1.0371  0.7805  2.5479
  544THF     O1 8500   0.603   4.621   0.836 -0.3404  0.3444 -0.2930
  544THF     C2 8501   0.737   4.591   0.880  0.3010  0.2861  0.0831
  544THF     C3 8502   0.599   4.763   0.833  0.4311 -0.3973 -0.0321
  544THF     H4 8503   0.752   4.484   0.875 -1.8996 -0.0274 -1.1618
  544THF     H5 8504   0.743   4.630   0.982  2.1068  1.7443 -0.5226
  544THF     H6 8505   0.512   4.797   0.776  0.3789  0.1108  0.3513
  544THF     H7 8506   0.603   4.807   0.932 -0.2766 -1.4887  0.5073
  544THF     C8 8507   0.719   4.798   0.755  0.9062  0.6954  0.2136
  544THF     C9 8508   0.821   4.686   0.796 -0.2195  0.2064 -0.2539
  544THF    H10 8509   0.759   4.894   0.789  0.8306  0.5261  0.7995
  544THF    H11 8510   0.698   4.798   0.648 -0.0059 -2.4990  0.3004
  544THF    H12 8511   0.868   4.640   0.709  3.9520  0.3555  1.6822
  544THF    H13 8512   0.900   4.731   0.857 -2.4276  2.1578  1.3569
  545THF     O1 8513   2.678   4.451   0.626 -0.0035  0.3192 -0.7737
  545THF     C2 8514   2.544   4.487   0.584 -0.2066  0.5815 -0.1785
  545THF     C3 8515   2.765   4.501   0.523  0.1908  0.3428  0.3201
  545THF     H4 8516   2.479   4.479   0.671  1.0820 -0.8041  0.7124
  545THF     H5 8517   2.508   4.417   0.509 -1.0730  0.4823  0.3166
  545THF     H6 8518   2.867   4.528   0.551 -0.0640  3.7781 -1.5475
  545THF     H7 8519   2.776   4.427   0.444  2.9670 -1.4135  2.1581
  545THF     C8 8520   2.693   4.632   0.483 -0.3780 -0.2623 -0.2533
  545THF     C9 8521   2.548   4.624   0.526 -0.7458  0.6640 -0.4904
  545THF    H10 8522   2.708   4.657   0.378  4.2214  1.9389  0.7037
  545THF    H11 8523   2.731   4.722   0.530  1.3199 -0.2904 -1.4886
  545THF    H12 8524   2.514   4.691   0.605  0.7906 -0.6902  1.4051
  545THF    H13 8525   2.481   4.653   0.445 -1.0035 -0.6312 -0.7558
  546THF     O1 8526   3.656   4.615   4.747  0.0182 -0.1898  0.3783
  546THF     C2 8527   3.629   4.480   4.720  0.3976  0.2959 -0.1352
  546THF     C3 8528   3.587   4.703   4.662 -0.1856  0.3217  0.1321
  546THF     H4 8529   3.591   4.420   4.803 -0.1665  3.2092  1.8540
  546THF     H5 8530   3.714   4.430   4.675  0.9309  2.0654 -1.1662
  546THF     H6 8531   3.496   4.733   4.714  1.4264  2.7751  1.7443
  546THF     H7 8532   3.627   4.797   4.622 -0.6256 -0.5119 -2.4615
  546THF     C8 8533   3.543   4.612   4.549  0.5748  0.1892 -0.1980
  546THF     C9 8534   3.514   4.481   4.622 -0.1183 -0.0908  0.1306
  546THF    H10 8535   3.624   4.593   4.479  1.0488  2.3265 -0.2902
  546THF    H11 8536   3.462   4.657   4.490  0.2419  0.0489  0.1434
  546THF    H12 8537   3.414   4.480   4.666 -0.7137  1.6649 -1.0727
  546THF    H13 8538   3.514   4.393   4.558  1.1917  0.3075 -0.4539
  547THF     O1 8539   2.887   3.701   5.012  0.2828  0.0871 -0.2744
  547THF     C2 8540   2.837   3.830   5.007  0.7841 -0.5868 -0.1176
  547THF     C3 8541   2.775   3.619   5.044 -0.3398  1.3950 -0.2445
  547THF     H4 8542   2.785   3.835   4.912  1.3504 -0.9592 -0.4498
  547THF     H5 8543   2.919   3.901   5.018  1.4376 -1.5871  1.9482
  547THF     H6 8544   2.727   3.585   4.953 -2.6282  1.3439  0.9208
  547THF     H7 8545   2.815   3.535   5.101  1.0167  1.6554 -0.7694
  547THF     C8 8546   2.676   3.699   5.125  0.2144 -0.1243 -0.0006
  547THF     C9 8547   2.741   3.835   5.119 -0.4105 -0.1318 -0.2594
  547THF    H10 8548   2.665   3.663   5.227 -1.1666 -3.5737 -1.1880
  547THF    H11 8549   2.579   3.704   5.074 -0.1381  1.3269  0.7362
  547THF    H12 8550   2.668   3.915   5.111 -0.1280  0.0578 -1.0336
  547THF    H13 8551   2.790   3.856   5.214 -1.3033 -3.3149  1.0730
  548THF     O1 8552   1.021   5.431   4.837  0.0602 -0.1082  0.3738
  548THF     C2 8553   0.968   5.553   4.893  0.7602  0.7562  0.5028
  548THF     C3 8554   0.934   5.326   4.879 -0.2744 -0.5518  0.7646
  548THF     H4 8555   0.943   5.616   4.807 -1.2544 -0.4974  0.1084
  548THF     H5 8556   1.045   5.595   4.957  0.5161  1.3585  0.4028
  548THF     H6 8557   0.942   5.244   4.807 -0.5545  0.7727 -0.8165
  548THF     H7 8558   0.972   5.294   4.976  3.5052  2.8233  0.6350
  548THF     C8 8559   0.794   5.388   4.895 -0.1273 -0.4088  0.2314
  548THF     C9 8560   0.841   5.509   4.962 -0.6726 -0.3818 -0.8625
  548THF    H10 8561   0.719   5.331   4.949  0.0337  0.1584  1.0745
  548THF    H11 8562   0.757   5.420   4.798  4.0854  0.6715 -1.2258
  548THF    H12 8563   0.758   5.580   4.961 -0.1097  0.3487  0.9189
  548THF    H13 8564   0.864   5.475   5.062 -1.1927 -2.3030 -1.3496
  549THF     O1 8565   1.214   0.484   5.145 -0.6032 -0.6194 -0.0926
  549THF     C2 8566   1.306   0.378   5.149  0.2044 -0.6213  0.5195
  549THF     C3 8567   1.280   0.589   5.068  0.0046  0.1152 -0.4231
  549THF     H4 8568   1.295   0.328   5.053  2.2862  1.1603 -0.7414
  549THF     H5 8569   1.285   0.307   5.229  1.4231 -1.5981  0.0090
  549THF     H6 8570   1.252   0.577   4.964 -0.0326  2.2100 -0.6974
  549THF     H7 8571   1.265   0.695   5.087 -1.3039  0.1501 -1.5358
  549THF     C8 8572   1.431   0.566   5.092  0.0030  0.0911  1.0079
  549THF     C9 8573   1.443   0.437   5.174 -0.2883  0.3835 -0.1073
  549THF    H10 8574   1.477   0.649   5.145 -0.5813  0.1067  1.5098
  549THF    H11 8575   1.476   0.543   4.996  1.2368 -0.5616  1.7102
  549THF    H12 8576   1.522   0.365   5.148 -0.5661 -0.3896  1.0865
  549THF    H13 8577   1.449   0.454   5.281  2.6654  1.3336 -0.3280
  550THF     O1 8578   2.362   3.755   1.010  0.4157 -0.3343 -0.0524
  550THF     C2 8579   2.238   3.692   1.004  0.1503  0.0927  0.5617
  550THF     C3 8580   2.439   3.690   0.914  0.0842  0.2959  0.0752
  550THF     H4 8581   2.158   3.754   1.044 -0.9694  0.5253 -2.1501
  550THF     H5 8582   2.244   3.592   1.048  1.2161 -0.8263 -1.5123
  550THF     H6 8583   2.518   3.759   0.884  0.1734  1.1582  2.1547
  550THF     H7 8584   2.487   3.598   0.947  0.0277 -0.2991 -1.4339
  550THF     C8 8585   2.347   3.665   0.800  0.8743  0.2591  0.5728
  550THF     C9 8586   2.207   3.684   0.856 -0.4911  0.6016  0.4446
  550THF    H10 8587   2.371   3.568   0.757  0.6177  0.7849 -0.7965
  550THF    H11 8588   2.374   3.745   0.731  0.1127  0.6825  0.7532
  550THF    H12 8589   2.176   3.777   0.808 -0.2945 -0.1913 -1.2823
  550THF    H13 8590   2.140   3.605   0.822 -0.0090  1.1550 -2.0312
  551THF     O1 8591   4.012   3.913   1.401 -0.6697  0.1254 -0.2268
  551THF     C2 8592   3.968   4.043   1.440  0.4209  0.2579  0.0655
  551THF     C3 8593   3.932   3.824   1.479  0.4412  0.1369 -0.1957
  551THF     H4 8594   3.876   4.079   1.394  0.6449  0.7161 -0.0307
  551THF     H5 8595   4.040   4.119   1.410 -0.0523  0.4780 -0.5447
  551THF     H6 8596   3.849   3.800   1.413  2.5101 -0.4920 -2.7559
  551THF     H7 8597   3.980   3.729   1.502  1.5881  0.0980 -2.4797
  551THF     C8 8598   3.884   3.896   1.612 -0.5164 -0.0717 -0.1574
  551THF     C9 8599   3.950   4.029   1.589  0.6010 -0.6104 -0.2038
  551THF    H10 8600   3.914   3.841   1.702 -2.0320  2.1005  1.7832
  551THF    H11 8601   3.777   3.918   1.610 -0.4008  0.9134  2.0986
  551THF    H12 8602   3.884   4.106   1.629  0.1774  0.1524 -2.2611
  551THF    H13 8603   4.045   4.031   1.644  0.1279  0.1628  0.6033
  552THF     O1 8604   2.911   3.004   0.222 -0.0505 -0.1537  0.0394
  552THF     C2 8605   2.886   2.977   0.350 -0.5214 -0.5369 -0.2649
  552THF     C3 8606   2.958   3.145   0.198  0.4002  0.1201 -0.3370
  552THF     H4 8607   2.881   2.874   0.386  1.0205 -1.2029 -1.8115
  552THF     H5 8608   2.780   3.002   0.361 -0.4419  0.1680 -0.9845
  552THF     H6 8609   3.037   3.155   0.124  1.0990  0.9169  0.4958
  552THF     H7 8610   2.870   3.198   0.161 -0.6478 -0.7673  0.8098
  552THF     C8 8611   3.008   3.189   0.331  0.4162 -0.0090  0.1810
  552THF     C9 8612   2.970   3.075   0.432 -0.2858 -0.0450  0.3207
  552THF    H10 8613   2.972   3.290   0.351 -1.1349 -0.5676  0.2853
  552THF    H11 8614   3.117   3.190   0.319  0.3414  0.4054 -0.5376
  552THF    H12 8615   3.062   3.031   0.470 -0.3213 -2.0159 -1.6481
  552THF    H13 8616   2.909   3.114   0.514 -1.5432  0.4489 -0.8053
  553THF     O1 8617   0.449   0.865   3.350  0.2488  0.2405  0.5531
  553THF     C2 8618   0.330   0.845   3.431 -0.9807 -0.8894 -0.1171
  553THF     C3 8619   0.421   0.810   3.221 -0.1368  0.4510 -0.2523
  553THF     H4 8620   0.252   0.919   3.413  0.4901  0.4798 -1.0578
  553THF     H5 8621   0.371   0.843   3.532 -0.3619  0.1568 -0.3416
  553THF     H6 8622   0.352   0.881   3.174 -0.6752  0.2053  0.1573
  553THF     H7 8623   0.498   0.785   3.148 -0.0004 -1.4514  0.4877
  553THF     C8 8624   0.335   0.687   3.244 -0.1622  0.1469  0.1829
  553THF     C9 8625   0.280   0.711   3.390  0.0038 -0.1944 -0.3612
  553THF    H10 8626   0.400   0.601   3.256  0.2001  0.3827 -0.0827
  553THF    H11 8627   0.246   0.675   3.182 -1.1595 -0.5067  1.6772
  553THF    H12 8628   0.172   0.713   3.396 -0.1011  2.4471 -1.5701
  553THF    H13 8629   0.314   0.630   3.454 -0.0758 -0.5437 -0.7606
  554THF     O1 8630   2.966   4.860   1.862 -0.2106 -0.1099  0.5107
  554THF     C2 8631   2.977   4.909   1.990 -0.9326  0.2828 -0.3842
  554THF     C3 8632   3.063   4.756   1.848  0.0647  0.2126  0.3967
  554THF     H4 8633   2.905   4.984   2.023  0.2823  0.9676  0.8162
  554THF     H5 8634   3.075   4.957   1.987 -0.3668 -0.7269  0.9273
  554THF     H6 8635   3.036   4.690   1.766  3.0341 -2.0114  1.0293
  554THF     H7 8636   3.168   4.775   1.823 -0.3142 -0.5294 -2.0449
  554THF     C8 8637   3.048   4.685   1.983 -0.4095 -0.7083  0.4238
  554THF     C9 8638   2.979   4.786   2.076 -0.2120 -0.3114  0.1006
  554THF    H10 8639   3.148   4.659   2.018 -0.2408 -0.0716  0.4264
  554THF    H11 8640   2.993   4.591   1.979 -0.1774 -0.9549  2.1037
  554THF    H12 8641   2.876   4.763   2.103 -0.7903  0.7912 -1.0574
  554THF    H13 8642   3.028   4.802   2.172 -0.9103 -2.2500  0.8364
  555THF     O1 8643   1.149   1.340   2.580 -0.3838 -0.3599 -0.0080
  555THF     C2 8644   1.100   1.469   2.616 -0.4032  0.6960 -0.3525
  555THF     C3 8645   1.252   1.313   2.669  0.2532  0.2030  0.7040
  555THF     H4 8646   0.994   1.474   2.590 -1.3941  1.0297  3.2577
  555THF     H5 8647   1.152   1.559   2.584 -1.6989  2.7139  2.7631
  555THF     H6 8648   1.266   1.205   2.667 -1.2255 -0.0018  0.3481
  555THF     H7 8649   1.353   1.351   2.658 -0.3240  1.5325 -0.2100
  555THF     C8 8650   1.199   1.357   2.805  0.7407  0.2062 -0.1525
  555THF     C9 8651   1.101   1.468   2.769  0.3026 -0.0207 -0.3376
  555THF    H10 8652   1.278   1.384   2.875 -2.9082  3.2317  3.3583
  555THF    H11 8653   1.146   1.272   2.849  0.4105 -0.2579 -1.4236
  555THF    H12 8654   0.999   1.444   2.798  0.7604 -2.2923 -0.3754
  555THF    H13 8655   1.130   1.565   2.808 -1.7510  0.4832  0.0607
  556THF     O1 8656   0.556   1.491   0.530 -0.0761 -0.3426 -0.3712
  556THF     C2 8657   0.550   1.363   0.472  0.9856  0.2200 -0.2694
  556THF     C3 8658   0.564   1.472   0.668  0.5128 -0.7424 -0.3350
  556THF     H4 8659   0.647   1.312   0.474 -0.4968 -2.7412  0.8461
  556THF     H5 8660   0.525   1.382   0.368 -1.9087  1.0547  0.4978
  556THF     H6 8661   0.665   1.444   0.697  0.4737  1.1364  1.9031
  556THF     H7 8662   0.538   1.564   0.720 -1.8617 -1.5052 -0.0699
  556THF     C8 8663   0.459   1.365   0.690 -0.3061  0.0126  0.1376
  556THF     C9 8664   0.445   1.294   0.558  0.6483  0.7268 -0.1229
  556THF    H10 8665   0.363   1.410   0.715  0.5183  0.9291  1.8189
  556THF    H11 8666   0.498   1.313   0.778  1.7843 -0.1484 -0.8217
  556THF    H12 8667   0.473   1.190   0.573 -0.9166  0.2831 -0.0549
  556THF    H13 8668   0.341   1.293   0.525  0.2913 -0.4261  0.9550
  557THF     O1 8669   4.828   2.078   1.471 -0.0171  0.7243 -0.7159
  557THF     C2 8670   4.836   2.194   1.392  0.0342  0.1233  1.0048
  557THF     C3 8671   4.863   2.122   1.604 -0.0706  0.1055  0.2080
  557THF     H4 8672   4.734   2.232   1.394 -0.4784 -0.9867 -1.0237
  557THF     H5 8673   4.860   2.175   1.287 -4.0219  2.2599 -0.4918
  557THF     H6 8674   4.770   2.104   1.658  0.3573 -2.3686  0.2608
  557THF     H7 8675   4.941   2.062   1.650 -0.2398  0.4974  1.0189
  557THF     C8 8676   4.903   2.271   1.595 -0.3759 -0.6950 -0.7158
  557THF     C9 8677   4.939   2.283   1.454 -0.0205  0.4455 -0.4040
  557THF    H10 8678   4.987   2.294   1.660 -1.1148 -1.7824  0.6814
  557THF    H11 8679   4.825   2.343   1.618  0.3336  0.1919 -1.0446
  557THF    H12 8680   4.944   2.384   1.413 -1.8464  0.3847 -0.8509
  557THF    H13 8681   5.038   2.238   1.449 -0.0848 -0.4728  3.3293
  558THF     O1 8682   0.933   1.476   3.629 -0.4384 -0.3743 -0.1542
  558THF     C2 8683   0.839   1.377   3.594 -0.4481 -0.1684  0.2599
  558THF     C3 8684   1.021   1.426   3.728 -0.1641 -0.5998 -0.2179
  558THF     H4 8685   0.873   1.306   3.518  1.1506 -0.0707  0.8527
  558THF     H5 8686   0.768   1.436   3.536  1.7013  0.5304 -1.8192
  558THF     H6 8687   1.088   1.358   3.676  0.2036 -0.2116 -0.2559
  558THF     H7 8688   1.091   1.500   3.766  0.8461  0.4828 -3.8181
  558THF     C8 8689   0.926   1.342   3.821 -0.0510 -0.0978  0.0354
  558THF     C9 8690   0.805   1.312   3.728  0.3179 -0.1584  0.4644
  558THF    H10 8691   0.894   1.403   3.905 -0.3817  0.4334 -0.4636
  558THF    H11 8692   0.983   1.254   3.851 -0.2406 -0.3028 -0.1933
  558THF    H12 8693   0.792   1.205   3.716 -0.3441 -0.1322  0.8455
  558THF    H13 8694   0.713   1.345   3.778 -0.5892 -0.8172 -0.7058
  559THF     O1 8695   3.514   2.752   4.103 -0.6050 -0.2242  0.2037
  559THF     C2 8696   3.524   2.606   4.095 -0.3578 -0.4784  0.3092
  559THF     C3 8697   3.379   2.785   4.109  0.3831  0.1596  1.0173
  559THF     H4 8698   3.619   2.568   4.133 -0.1016 -0.6516 -0.4758
  559THF     H5 8699   3.524   2.566   3.993 -1.1850  0.3292 -0.0175
  559THF     H6 8700   3.372   2.886   4.148  1.5109 -0.0213  1.7079
  559THF     H7 8701   3.339   2.782   4.007 -1.2317 -0.5956  1.6304
  559THF     C8 8702   3.321   2.681   4.205  0.0205 -0.1164  0.2031
  559THF     C9 8703   3.390   2.554   4.159  0.8282 -1.1302 -0.4388
  559THF    H10 8704   3.212   2.685   4.209  0.0481  0.8136  0.2131
  559THF    H11 8705   3.347   2.707   4.308  0.2504 -2.4025  0.7656
  559THF    H12 8706   3.420   2.488   4.240  0.9358 -1.2535 -0.5797
  559THF    H13 8707   3.319   2.506   4.092 -1.5154  0.1221  1.0000
  560THF     O1 8708   3.854   2.290   3.935 -0.2048 -0.1092 -0.1291
  560THF     C2 8709   3.925   2.351   3.829 -0.4734 -0.0717 -0.5484
  560THF     C3 8710   3.809   2.397   4.022 -0.2652  0.4262  0.0285
  560THF     H4 8711   3.846   2.359   3.754  0.3632  0.2625 -1.4174
  560THF     H5 8712   4.000   2.284   3.787 -2.2929 -1.7360 -1.3016
  560THF     H6 8713   3.715   2.430   3.978  0.4088  1.1396 -0.8999
  560THF     H7 8714   3.794   2.353   4.121  1.6355 -0.7064 -0.1259
  560THF     C8 8715   3.914   2.508   4.010  0.0318 -0.2893 -0.2420
  560THF     C9 8716   3.967   2.488   3.871 -0.8199 -0.4818 -0.2134
  560THF    H10 8717   3.994   2.496   4.084  0.3450  2.0517 -0.1341
  560THF    H11 8718   3.873   2.608   4.005  0.1310 -0.2455 -0.1830
  560THF    H12 8719   3.928   2.562   3.800  1.9363  2.0606  0.6915
  560THF    H13 8720   4.075   2.493   3.858 -0.7705 -0.4060  0.2212
  561THF     O1 8721   2.511   1.110   0.947 -0.4404  0.0851  0.2724
  561THF     C2 8722   2.471   1.155   0.818 -0.6065  0.4373  0.0204
  561THF     C3 8723   2.459   0.980   0.960 -0.6415  0.5047  1.2139
  561THF     H4 8724   2.552   1.150   0.746 -1.4535 -2.2601 -0.8449
  561THF     H5 8725   2.453   1.263   0.824 -0.3938  0.4261  1.1528
  561THF     H6 8726   2.526   0.915   0.902  0.1429  0.2669  2.3434
  561THF     H7 8727   2.469   0.946   1.063  2.4158 -1.2010  0.5003
  561THF     C8 8728   2.318   0.991   0.905  0.1552  0.0185  0.2452
  561THF     C9 8729   2.340   1.073   0.783 -0.0886 -0.4161 -0.7726
  561THF    H10 8730   2.253   1.044   0.975  0.7116  1.3489 -0.2262
  561THF    H11 8731   2.284   0.889   0.887 -0.8078  0.5446 -1.0198
  561THF    H12 8732   2.357   1.006   0.698 -0.8857 -3.8180  1.5517
  561THF    H13 8733   2.249   1.130   0.766 -2.3793 -2.6828  2.7261
  562THF     O1 8734   5.417   4.712   3.724  0.1648 -0.0029  0.1319
  562THF     C2 8735   5.477   4.738   3.846 -0.2198  0.5155 -0.0052
  562THF     C3 8736   5.393   4.568   3.712  0.4075 -0.4830 -0.5555
  562THF     H4 8737   5.457   4.840   3.880 -0.7400  0.3173  0.3046
  562THF     H5 8738   5.586   4.734   3.840 -0.0330  1.9009  1.4442
  562THF     H6 8739   5.290   4.538   3.694  0.6641  0.2508 -3.9462
  562THF     H7 8740   5.441   4.521   3.626 -1.7830  0.1057 -2.1557
  562THF     C8 8741   5.450   4.506   3.849 -0.2070 -0.6530 -0.2832
  562THF     C9 8742   5.433   4.627   3.939  0.3563  0.1230 -0.0291
  562THF    H10 8743   5.555   4.480   3.833 -0.0110 -0.2768  0.3537
  562THF    H11 8744   5.398   4.418   3.887 -0.5455 -0.3524 -0.0352
  562THF    H12 8745   5.329   4.620   3.971  0.3542  0.1869 -0.0208
  562THF    H13 8746   5.491   4.623   4.031 -0.8105 -1.7937  0.6799
  563THF     O1 8747   4.597   3.335   0.304 -0.3481  0.1253  1.0340
  563THF     C2 8748   4.520   3.259   0.214 -0.3035  0.0085 -0.3465
  563THF     C3 8749   4.736   3.309   0.281 -0.7001 -0.9230 -0.2965
  563THF     H4 8750   4.478   3.325   0.139 -2.4667 -0.1365  0.6685
  563THF     H5 8751   4.448   3.205   0.276 -0.6593  1.1741  0.2900
  563THF     H6 8752   4.781   3.374   0.205 -2.6894  0.2235 -0.5686
  563THF     H7 8753   4.796   3.324   0.370 -1.2903  0.4514 -0.1053
  563THF     C8 8754   4.734   3.163   0.241 -0.2738  0.6482  0.2001
  563THF     C9 8755   4.616   3.159   0.146 -0.4739  0.0047  0.0233
  563THF    H10 8756   4.710   3.097   0.324  0.3171 -0.4538 -0.4744
  563THF    H11 8757   4.821   3.118   0.193 -1.0480  0.1899 -0.8179
  563THF    H12 8758   4.640   3.197   0.046  1.3514  1.1402  0.8550
  563THF    H13 8759   4.571   3.060   0.144  1.0270 -0.6941  0.1794
  564THF     O1 8760   5.321   1.430   4.879 -0.1874  0.4956 -0.2080
  564THF     C2 8761   5.407   1.523   4.940 -0.6570  0.1872 -0.1307
  564THF     C3 8762   5.384   1.304   4.899  0.3125 -0.0889  0.0054
  564THF     H4 8763   5.356   1.555   5.031 -0.1095 -0.5672  0.4673
  564THF     H5 8764   5.428   1.607   4.874 -0.2495  0.0011 -0.2451
  564THF     H6 8765   5.302   1.237   4.927  1.1058 -1.3743 -0.6425
  564THF     H7 8766   5.439   1.262   4.815 -2.5668  0.0029 -2.0963
  564THF     C8 8767   5.476   1.313   5.019 -0.0185 -0.1682  0.6472
  564THF     C9 8768   5.530   1.449   4.989  0.0682 -0.0590 -0.4975
  564THF    H10 8769   5.549   1.232   5.014 -0.5246 -0.5687 -0.8585
  564THF    H11 8770   5.429   1.314   5.117  1.5033 -2.0036  1.4669
  564THF    H12 8771   5.553   1.505   5.079 -3.6789  1.9991 -0.6292
  564THF    H13 8772   5.612   1.456   4.918 -1.1480  0.0915 -1.9521
  565THF     O1 8773   4.955   1.159   1.489  0.0719  0.1093  0.5691
  565THF     C2 8774   5.016   1.165   1.367 -0.3948 -0.5101 -0.5311
  565THF     C3 8775   5.010   1.258   1.568 -0.0478  0.3535  0.0495
  565THF     H4 8776   4.988   1.248   1.302  3.1628 -0.0373 -1.6919
  565THF     H5 8777   4.979   1.076   1.317  0.9253 -1.3973 -0.0095
  565THF     H6 8778   4.988   1.361   1.537 -0.2752  0.6795  1.2692
  565THF     H7 8779   4.983   1.232   1.670  0.1004  3.2119  0.9095
  565THF     C8 8780   5.162   1.254   1.533  0.2184 -0.0462  0.8524
  565THF     C9 8781   5.167   1.186   1.395  0.0694 -0.1879  0.0417
  565THF    H10 8782   5.205   1.177   1.598  1.9805 -1.4305 -1.7722
  565THF    H11 8783   5.198   1.356   1.540 -2.5771  0.9660  1.5572
  565THF    H12 8784   5.222   1.245   1.322  3.0957 -0.4304  1.9697
  565THF    H13 8785   5.227   1.095   1.399 -0.9571 -0.9120 -0.2708
  566THF     O1 8786   1.451   3.407   1.938 -0.2304  0.3782  0.0438
  566THF     C2 8787   1.399   3.407   1.801 -0.0021 -0.1919  0.4896
  566THF     C3 8788   1.353   3.413   2.039  0.0883  0.2216  0.3939
  566THF     H4 8789   1.471   3.357   1.736  0.1336  3.1285 -2.1486
  566THF     H5 8790   1.383   3.504   1.755  2.2637  0.6835  1.4072
  566THF     H6 8791   1.391   3.339   2.109  0.1393  0.3109  0.4607
  566THF     H7 8792   1.333   3.509   2.085  1.9159  2.3026 -2.7574
  566THF     C8 8793   1.225   3.359   1.978  0.2138  0.6302  0.0811
  566THF     C9 8794   1.259   3.348   1.825  0.0015  0.2567 -0.4467
  566THF    H10 8795   1.148   3.435   1.992 -2.4657 -2.1445  1.5180
  566THF    H11 8796   1.189   3.266   2.021 -3.0117 -0.3139 -3.9855
  566THF    H12 8797   1.274   3.240   1.826  0.8413  0.3394  1.6004
  566THF    H13 8798   1.183   3.377   1.753 -0.4617  0.7931  0.2410
  567THF     O1 8799   0.807   0.855   2.880  0.0158 -0.1762 -0.9932
  567THF     C2 8800   0.821   0.858   3.024 -0.0616  0.1900 -0.1139
  567THF     C3 8801   0.830   0.978   2.827  0.0331 -0.9370  0.2954
  567THF     H4 8802   0.853   0.757   3.050  0.0630 -0.0580 -1.1651
  567THF     H5 8803   0.720   0.867   3.064 -0.7751 -0.1768 -1.7665
  567THF     H6 8804   0.847   0.972   2.719  0.5745 -0.6545  0.3601
  567THF     H7 8805   0.733   1.022   2.850 -0.1173 -2.1858  2.2071
  567THF     C8 8806   0.952   1.021   2.914 -0.2942 -0.3362  0.0524
  567THF     C9 8807   0.920   0.968   3.055  0.3542  0.4597 -0.0992
  567THF    H10 8808   0.974   1.127   2.901  1.8772 -0.8315 -0.9026
  567THF    H11 8809   1.039   0.978   2.864 -0.9016  0.9609 -2.2622
  567THF    H12 8810   1.004   0.922   3.107  0.1755 -3.0217 -2.5295
  567THF    H13 8811   0.880   1.054   3.109 -1.8233 -0.1835 -0.5944
  568THF     O1 8812   0.704   0.517   4.663 -0.3882 -0.1246  0.1839
  568THF     C2 8813   0.577   0.555   4.716  0.3906 -0.3351  0.0716
  568THF     C3 8814   0.692   0.374   4.630  0.6183 -0.1980 -0.5673
  568THF     H4 8815   0.504   0.581   4.639  0.3574 -0.9440 -0.1087
  568THF     H5 8816   0.588   0.640   4.783 -2.2094  0.5634 -0.5069
  568THF     H6 8817   0.637   0.357   4.538  1.5704 -0.7169 -1.0498
  568THF     H7 8818   0.789   0.325   4.625  0.9543  0.4627 -0.6823
  568THF     C8 8819   0.592   0.313   4.729 -0.1033  0.1441  0.3164
  568THF     C9 8820   0.534   0.433   4.802 -0.0990 -0.1482  0.3400
  568THF    H10 8821   0.641   0.256   4.807  0.2457  1.1302  0.8291
  568THF    H11 8822   0.522   0.248   4.677 -2.2818  1.5070  1.4095
  568THF    H12 8823   0.426   0.427   4.810 -0.1606  1.6945  1.5527
  568THF    H13 8824   0.572   0.443   4.904  0.4724  0.5005  0.0740
  569THF     O1 8825   3.826   2.571   0.317  0.3044  0.0878 -0.0477
  569THF     C2 8826   3.733   2.645   0.245  1.2697  0.6032  1.1259
  569THF     C3 8827   3.936   2.547   0.231  0.0616 -0.4998  0.3184
  569THF     H4 8828   3.680   2.714   0.311  0.3911 -0.9008  2.0316
  569THF     H5 8829   3.657   2.575   0.210  1.0020  0.9874  0.9292
  569THF     H6 8830   4.029   2.540   0.287 -0.4993 -0.5680  1.2623
  569THF     H7 8831   3.934   2.446   0.190 -0.0597 -0.3252 -0.1097
  569THF     C8 8832   3.942   2.665   0.131 -0.5271 -0.2708 -0.7636
  569THF     C9 8833   3.795   2.711   0.123 -0.8610 -0.1981 -0.0524
  569THF    H10 8834   3.990   2.623   0.042 -0.5982 -2.3352  0.1117
  569THF    H11 8835   4.005   2.743   0.172 -1.4190  0.2061 -0.2765
  569THF    H12 8836   3.804   2.819   0.133  1.2162 -0.1376 -1.7950
  569THF    H13 8837   3.737   2.680   0.036 -0.9620 -1.3669  0.4151
  570THF     O1 8838   3.000   0.612   0.204 -0.4789  0.6823  0.2567
  570THF     C2 8839   3.132   0.558   0.181 -0.3068 -0.0496  0.4877
  570THF     C3 8840   2.960   0.546   0.316 -0.0371 -0.4549 -0.2169
  570THF     H4 8841   3.203   0.607   0.247  1.1237  0.2511 -1.1952
  570THF     H5 8842   3.173   0.573   0.081 -0.7338  1.8749  0.5672
  570THF     H6 8843   3.009   0.589   0.403  0.5948  0.2402 -0.9077
  570THF     H7 8844   2.852   0.554   0.327 -0.2728 -1.5043 -1.4909
  570THF     C8 8845   3.017   0.397   0.318  0.5965 -0.5074  0.5325
  570THF     C9 8846   3.127   0.412   0.204  0.3799 -0.0149 -0.2292
  570THF    H10 8847   2.938   0.327   0.292  3.0090 -3.2170 -0.0588
  570THF    H11 8848   3.050   0.359   0.415 -0.7498 -1.2808  0.7167
  570THF    H12 8849   3.220   0.382   0.253  0.0438 -0.2009  0.3052
  570THF    H13 8850   3.101   0.363   0.110  2.9436 -1.0496 -0.5077
  571THF     O1 8851   4.243   4.020   0.135 -0.6070  0.9865 -0.3754
  571THF     C2 8852   4.374   3.992   0.093  0.0401  0.0642  0.1536
  571THF     C3 8853   4.193   4.119   0.054  0.4554  0.0727 -0.1264
  571THF     H4 8854   4.362   3.933   0.002 -1.6580 -1.1735  1.1344
  571THF     H5 8855   4.428   3.928   0.163 -0.0225 -1.1224 -0.8534
  571THF     H6 8856   4.146   4.074  -0.034 -0.0609  1.0600 -0.3725
  571THF     H7 8857   4.112   4.177   0.098 -0.2029 -1.7760  1.2304
  571THF     C8 8858   4.316   4.210   0.025  0.5036  0.4506  0.3745
  571THF     C9 8859   4.437   4.123   0.064  0.3526 -0.4465 -0.2995
  571THF    H10 8860   4.322   4.305   0.077 -0.3119 -0.4868  2.2955
  571THF    H11 8861   4.315   4.233  -0.082 -2.1061 -1.4907 -0.1270
  571THF    H12 8862   4.522   4.125  -0.005  1.4829  2.3823  1.0176
  571THF    H13 8863   4.489   4.170   0.148 -0.7032  0.3067 -0.0510
  572THF     O1 8864   0.267   4.487   1.831  0.0572 -0.7669  0.5521
  572THF     C2 8865   0.214   4.367   1.885 -0.4348 -0.1662  0.0300
  572THF     C3 8866   0.403   4.475   1.793  0.6670  0.7850  0.5817
  572THF     H4 8867   0.147   4.330   1.807 -1.0937  1.7623 -0.3813
  572THF     H5 8868   0.154   4.381   1.974 -0.2798  0.1134  0.0916
  572THF     H6 8869   0.414   4.524   1.696 -0.9128  0.8898  0.4157
  572THF     H7 8870   0.478   4.513   1.862  0.6182  0.3813  0.8572
  572THF     C8 8871   0.415   4.326   1.777  0.0128 -0.2918 -0.3012
  572THF     C9 8872   0.334   4.279   1.894  0.3450 -0.7416 -0.1311
  572THF    H10 8873   0.518   4.289   1.771  0.9893  2.3440 -1.3190
  572THF    H11 8874   0.377   4.284   1.684 -0.1213 -2.2597  0.5893
  572THF    H12 8875   0.297   4.179   1.870 -1.4991  0.3536 -2.2216
  572THF    H13 8876   0.385   4.283   1.990  0.8167 -1.9709 -0.3123
  573THF     O1 8877   5.159   3.509   1.735 -0.1712  0.1632 -0.5890
  573THF     C2 8878   5.052   3.502   1.645  0.2217  0.5575  0.1356
  573THF     C3 8879   5.204   3.648   1.733  0.2669 -0.3801  0.3432
  573THF     H4 8880   4.964   3.522   1.705  0.3573  1.8131 -0.0556
  573THF     H5 8881   5.044   3.404   1.597  0.1127  0.5423  0.1840
  573THF     H6 8882   5.143   3.709   1.800  1.6710  0.4106  0.9317
  573THF     H7 8883   5.308   3.661   1.764  0.3621  1.5516 -0.6620
  573THF     C8 8884   5.184   3.699   1.586  0.4072  0.4839  0.0718
  573THF     C9 8885   5.062   3.617   1.537 -0.1983 -0.8792 -0.2587
  573THF    H10 8886   5.272   3.661   1.535  0.4031  2.1132 -1.2205
  573THF    H11 8887   5.178   3.808   1.579  0.1288  0.4034 -1.0646
  573THF    H12 8888   4.961   3.658   1.538 -0.3445 -1.2191  1.0788
  573THF    H13 8889   5.081   3.583   1.435  1.4704 -1.0662  0.0828
  574THF     O1 8890   0.004   0.500   4.818 -0.3846 -0.1313  0.1238
  574THF     C2 8891  -0.091   0.507   4.716  0.1746 -0.0802 -0.2610
  574THF     C3 8892  -0.025   0.376   4.887  0.1673  0.8039 -0.1870
  574THF     H4 8893  -0.051   0.546   4.622 -0.9604 -0.5366 -0.9641
  574THF     H5 8894  -0.175   0.569   4.747  1.6488  1.8023  0.1134
  574THF     H6 8895   0.058   0.331   4.942 -1.5354 -2.6301 -0.2055
  574THF     H7 8896  -0.109   0.383   4.956  1.8413 -1.2656  2.2543
  574THF     C8 8897  -0.053   0.288   4.768 -0.4214 -0.9685 -0.5790
  574THF     C9 8898  -0.137   0.368   4.681  0.0600  0.9515 -0.0624
  574THF    H10 8899  -0.106   0.196   4.792 -0.2246 -0.5864  1.5829
  574THF    H11 8900   0.045   0.273   4.724  0.0574 -0.8150  0.4078
  574THF    H12 8901  -0.124   0.342   4.576 -0.3229 -1.1954  0.3709
  574THF    H13 8902  -0.244   0.355   4.693  0.3422 -1.0011  0.6242
  575THF     O1 8903   4.642   4.641   4.243 -0.5922 -0.7363  0.1436
  575THF     C2 8904   4.610   4.679   4.380  0.6993 -0.0882  1.0679
  575THF     C3 8905   4.742   4.739   4.211 -0.2704 -0.5694 -0.3797
  575THF     H4 8906   4.551   4.604   4.433 -0.5066 -0.8685 -1.2239
  575THF     H5 8907   4.541   4.762   4.365  0.3706 -0.4037  0.7929
  575THF     H6 8908   4.793   4.699   4.123 -0.9399 -1.1289 -0.5194
  575THF     H7 8909   4.705   4.839   4.186  3.8200  1.6638  1.6140
  575THF     C8 8910   4.826   4.752   4.337  0.4467 -0.0784  0.4703
  575THF     C9 8911   4.735   4.712   4.447 -0.7855  0.3628 -0.0026
  575THF    H10 8912   4.848   4.859   4.330  0.0118 -0.0529 -0.6473
  575THF    H11 8913   4.915   4.690   4.327  0.6508 -0.0449  1.8076
  575THF    H12 8914   4.775   4.625   4.499  1.8942  0.4307 -1.7299
  575THF    H13 8915   4.718   4.783   4.528  0.5499  0.5657  0.1378
  576THF     O1 8916   5.364   2.580   2.833 -0.0932 -0.4477 -0.4486
  576THF     C2 8917   5.417   2.710   2.808  0.0334 -0.1370  0.1696
  576THF     C3 8918   5.273   2.607   2.935  0.4138  0.0475  0.1362
  576THF     H4 8919   5.469   2.712   2.712 -0.4344 -0.7487 -0.0983
  576THF     H5 8920   5.486   2.744   2.886  0.2622 -2.5320  1.0988
  576THF     H6 8921   5.211   2.523   2.964  0.5003  0.2129  0.8287
  576THF     H7 8922   5.322   2.619   3.032  1.2471 -1.2470 -0.1006
  576THF     C8 8923   5.189   2.731   2.896 -0.1068  0.1381 -0.6807
  576THF     C9 8924   5.286   2.800   2.801 -0.4821  0.1711 -0.1274
  576THF    H10 8925   5.162   2.788   2.985  1.2222 -0.7940  0.3546
  576THF    H11 8926   5.097   2.700   2.846 -1.0001  0.0310  0.9287
  576THF    H12 8927   5.251   2.779   2.700 -0.0503  1.3960 -0.5444
  576THF    H13 8928   5.314   2.904   2.813  1.1837 -0.0434 -1.6824
  577THF     O1 8929   0.584   3.362   2.085 -0.4392 -0.5574 -0.3615
  577THF     C2 8930   0.584   3.466   1.990 -0.1162 -0.2126  0.0863
  577THF     C3 8931   0.687   3.382   2.180 -0.3562  0.2483 -0.0111
  577THF     H4 8932   0.506   3.532   2.031  1.7946  1.1568  1.6995
  577THF     H5 8933   0.556   3.416   1.897 -2.2242  1.1008 -0.0763
  577THF     H6 8934   0.643   3.424   2.271  1.2401  0.1673  0.8323
  577THF     H7 8935   0.734   3.286   2.200  0.3792  0.3095 -1.3713
  577THF     C8 8936   0.789   3.478   2.112 -0.3276 -0.3594 -0.1177
  577THF     C9 8937   0.727   3.529   1.986 -0.1289  0.3991 -0.0261
  577THF    H10 8938   0.869   3.408   2.087 -0.1318 -1.4935  3.1887
  577THF    H11 8939   0.814   3.569   2.167 -0.9568  1.6580 -2.9877
  577THF    H12 8940   0.727   3.638   1.980 -0.8197  0.3489 -1.7499
  577THF    H13 8941   0.787   3.490   1.903  0.0761 -0.1233  0.3654
  578THF     O1 8942   5.461   2.196   5.102  0.0597  0.1511  0.4547
  578THF     C2 8943   5.571   2.208   5.004  0.3603 -0.5434 -0.7228
  578THF     C3 8944   5.423   2.060   5.114 -0.6276 -0.0609 -0.4165
  578THF     H4 8945   5.671   2.199   5.047  0.1359 -1.3505 -0.3368
  578THF     H5 8946   5.573   2.306   4.957  3.4024 -0.0676  0.2188
  578THF     H6 8947   5.507   2.020   5.171  1.3646  0.6919 -2.6412
  578THF     H7 8948   5.331   2.045   5.170  0.2071  0.1905  1.0777
  578THF     C8 8949   5.428   2.025   4.960 -0.4672 -0.3550  0.5049
  578THF     C9 8950   5.560   2.087   4.906  0.0291 -0.0538 -1.1746
  578THF    H10 8951   5.345   2.082   4.919 -0.2987  0.1538  0.8530
  578THF    H11 8952   5.420   1.920   4.933  0.4836  0.3500 -3.0742
  578THF    H12 8953   5.638   2.013   4.922 -0.5016 -1.1162 -3.1373
  578THF    H13 8954   5.557   2.111   4.800  0.5778  0.4145 -1.0875
  579THF     O1 8955   2.174   2.913   3.635 -0.1091 -0.9240  0.2519
  579THF     C2 8956   2.143   2.771   3.650 -0.4120 -0.4810 -0.1086
  579THF     C3 8957   2.195   2.963   3.766 -0.6543 -0.1621 -0.1813
  579THF     H4 8958   2.213   2.707   3.596  0.4171 -0.9689  1.4914
  579THF     H5 8959   2.042   2.762   3.611 -0.4752  2.1615 -0.7694
  579THF     H6 8960   2.268   3.044   3.768 -0.6150 -0.0704 -2.3167
  579THF     H7 8961   2.098   2.992   3.805 -0.6531 -0.1579 -0.1815
  579THF     C8 8962   2.252   2.845   3.857 -0.0171 -0.6230  0.0897
  579THF     C9 8963   2.164   2.735   3.801  0.1665  0.1429 -0.3213
  579THF    H10 8964   2.233   2.864   3.963 -1.8422  0.2436 -0.3486
  579THF    H11 8965   2.359   2.829   3.846  0.4108  0.3836  2.2958
  579THF    H12 8966   2.201   2.636   3.828  1.3321  0.5918 -0.2111
  579THF    H13 8967   2.065   2.725   3.845  0.6011  0.3728  0.7458
  580THF     O1 8968   3.912   2.326   0.919  0.4537 -0.1912 -0.0044
  580THF     C2 8969   3.975   2.243   1.014  0.2318  0.6144 -0.3360
  580THF     C3 8970   3.958   2.454   0.945  0.6575 -0.2046  0.2826
  580THF     H4 8971   4.070   2.210   0.972  1.4763  1.3764  1.7766
  580THF     H5 8972   3.918   2.153   1.039 -0.9052  1.7069  1.1667
  580THF     H6 8973   4.058   2.483   0.912 -0.2283  2.0446 -0.6274
  580THF     H7 8974   3.895   2.541   0.924 -1.0848 -1.4774  0.0760
  580THF     C8 8975   3.962   2.465   1.096  0.1107  0.4591 -0.2731
  580THF     C9 8976   4.000   2.332   1.133  0.1677  0.6319 -0.6533
  580THF    H10 8977   3.863   2.486   1.136 -0.6631 -1.4744 -1.0621
  580THF    H11 8978   4.036   2.538   1.130  0.2940 -0.7948  2.2573
  580THF    H12 8979   4.104   2.311   1.158  0.2237 -0.8318 -1.9813
  580THF    H13 8980   3.945   2.304   1.224 -2.1279  1.6717 -1.6466
  581THF     O1 8981   2.690   4.751   1.650 -0.1654  0.1996  0.0337
  581THF     C2 8982   2.630   4.639   1.582  0.5958 -0.3470 -0.0244
  581THF     C3 8983   2.750   4.827   1.547 -0.0635  0.4257  0.1008
  581THF     H4 8984   2.544   4.605   1.640  1.0644 -0.1244  0.8191
  581THF     H5 8985   2.702   4.558   1.571  2.4138  0.7493  2.7335
  581THF     H6 8986   2.789   4.925   1.573  0.0566  0.7608 -1.2558
  581THF     H7 8987   2.832   4.775   1.497  1.2086  0.9374  1.5746
  581THF     C8 8988   2.640   4.830   1.437 -0.4446  0.1100 -0.1830
  581THF     C9 8989   2.591   4.687   1.443  0.1207 -0.1376  0.2471
  581THF    H10 8990   2.670   4.861   1.337 -0.9101  0.3462 -0.2550
  581THF    H11 8991   2.569   4.902   1.478  2.7936  2.0362  2.5486
  581THF    H12 8992   2.483   4.693   1.433 -0.1360 -1.9697  1.4412
  581THF    H13 8993   2.637   4.615   1.376 -1.1744 -1.5314  0.7861
  582THF     O1 8994   3.086   2.817   3.916 -0.0339  0.1371 -0.0018
  582THF     C2 8995   2.963   2.782   3.846 -0.7559 -0.0174 -0.4505
  582THF     C3 8996   3.061   2.939   3.988 -0.6795  0.5294 -0.3315
  582THF     H4 8997   2.965   2.684   3.800 -0.1775 -0.5993  0.7584
  582THF     H5 8998   2.935   2.852   3.767 -0.0266  1.1576  0.2872
  582THF     H6 8999   3.138   2.955   4.065 -1.0909  0.0241  0.1907
  582THF     H7 9000   3.060   3.030   3.928  0.5468  0.7075 -0.1189
  582THF     C8 9001   2.921   2.922   4.048  0.2101 -0.6065  0.1116
  582THF     C9 9002   2.877   2.797   3.972  0.2079 -0.1932  0.0724
  582THF    H10 9003   2.864   3.008   4.011 -1.5042 -1.2677  1.0818
  582THF    H11 9004   2.917   2.922   4.157 -1.2346  2.1600  0.1537
  582THF    H12 9005   2.896   2.707   4.029 -0.4908 -1.3305 -1.4185
  582THF    H13 9006   2.774   2.802   3.939  0.1846 -0.3650  0.1192
  583THF     O1 9007   4.888   2.255   5.063  0.4539  0.5714  0.2647
  583THF     C2 9008   4.868   2.129   4.999 -0.0647 -1.0448  0.2129
  583THF     C3 9009   5.023   2.280   5.047  0.6947 -0.4129 -0.2810
  583THF     H4 9010   4.761   2.123   4.977 -0.3899 -0.0541  1.3658
  583THF     H5 9011   4.888   2.059   5.080 -0.6330 -3.9937 -2.0584
  583THF     H6 9012   5.055   2.382   5.068 -2.1373  0.7772 -1.2339
  583THF     H7 9013   5.078   2.214   5.114  0.3412 -0.4611 -0.0332
  583THF     C8 9014   5.059   2.239   4.905 -0.0937 -0.6695 -0.1225
  583THF     C9 9015   4.969   2.121   4.877  0.2335 -1.1941 -0.2910
  583THF    H10 9016   5.166   2.229   4.885 -0.1956 -0.7547 -0.6469
  583THF    H11 9017   5.020   2.320   4.844 -0.5118 -1.7065 -1.2727
  583THF    H12 9018   4.934   2.152   4.779 -2.2921 -0.9967  0.5877
  583THF    H13 9019   5.014   2.022   4.866 -0.0213 -1.6151  1.8147
  584THF     O1 9020   5.248   4.578   2.134 -0.0446  0.1121  0.6977
  584THF     C2 9021   5.190   4.511   2.021  0.5660 -0.4534  0.4058
  584THF     C3 9022   5.341   4.672   2.094 -0.2066  0.2674  0.3422
  584THF     H4 9023   5.126   4.576   1.961 -0.1658 -2.0325 -0.5895
  584THF     H5 9024   5.137   4.416   2.026  0.5540 -0.4981 -0.4249
  584THF     H6 9025   5.291   4.767   2.078 -0.6828 -0.1780 -0.9237
  584THF     H7 9026   5.422   4.675   2.167 -0.3022 -1.7696  0.5800
  584THF     C8 9027   5.393   4.623   1.957 -0.2067  0.5495 -0.1132
  584THF     C9 9028   5.311   4.486   1.944  0.0035  0.3161 -0.5256
  584THF    H10 9029   5.498   4.595   1.960  0.1822  1.6512 -1.9087
  584THF    H11 9030   5.372   4.694   1.877  1.2976 -0.4299 -1.4361
  584THF    H12 9031   5.277   4.464   1.843  0.1424  1.3507 -0.7999
  584THF    H13 9032   5.360   4.393   1.973 -3.7574 -2.0388 -0.9138
  585THF     O1 9033   5.297   1.900   3.364 -0.2902  0.5865  0.2995
  585THF     C2 9034   5.379   1.865   3.474  0.0161  0.3991  0.1003
  585THF     C3 9035   5.164   1.900   3.407 -0.1396 -0.0914  0.5028
  585THF     H4 9036   5.484   1.888   3.455 -0.1682  0.2140 -1.2801
  585THF     H5 9037   5.371   1.757   3.485 -2.5712  0.2271 -2.4994
  585THF     H6 9038   5.100   1.954   3.338  0.9244  2.2402  1.2499
  585THF     H7 9039   5.129   1.797   3.419  1.6193 -0.7501  0.3767
  585THF     C8 9040   5.176   1.973   3.544 -0.1169  0.3321  0.7237
  585THF     C9 9041   5.319   1.942   3.591 -0.2498 -0.2237 -0.2629
  585THF    H10 9042   5.092   1.941   3.605 -0.7489 -1.0144 -0.7727
  585THF    H11 9043   5.169   2.079   3.519  0.5066  0.1760 -0.1722
  585THF    H12 9044   5.362   2.038   3.619  1.8485 -1.5616  1.4104
  585THF    H13 9045   5.321   1.879   3.680 -1.1060  0.0262 -0.0522
  586THF     O1 9046   2.415   5.064   5.137  0.0376  0.1011 -0.6466
  586THF     C2 9047   2.331   4.979   5.061 -0.4120 -0.6260  0.2590
  586THF     C3 9048   2.336   5.166   5.191 -0.1990  0.2109  0.7266
  586THF     H4 9049   2.379   4.896   5.009 -1.4379 -2.3953  1.9758
  586THF     H5 9050   2.287   5.043   4.984  0.5709  1.0926  1.0778
  586THF     H6 9051   2.392   5.198   5.278  1.6328 -0.1872 -0.2657
  586THF     H7 9052   2.313   5.243   5.118  0.6888  0.1376  0.3557
  586THF     C8 9053   2.207   5.094   5.233 -0.7212  0.2361 -0.4073
  586THF     C9 9054   2.223   4.952   5.165 -0.4358 -0.1127 -0.3369
  586THF    H10 9055   2.120   5.142   5.189 -0.9312  1.6893  1.4625
  586THF    H11 9056   2.188   5.082   5.339 -0.7713 -0.8588 -0.5281
  586THF    H12 9057   2.266   4.885   5.239  2.2072 -0.0617 -1.7131
  586THF    H13 9058   2.144   4.900   5.111 -0.8539  0.3828 -0.2236
  587THF     O1 9059   2.337   2.854   3.088  0.4654  0.2148 -0.6290
  587THF     C2 9060   2.205   2.807   3.124 -0.3756 -0.3992 -0.3675
  587THF     C3 9061   2.355   2.962   3.175  0.6505  0.6620 -0.5573
  587THF     H4 9062   2.169   2.714   3.079  0.9924 -1.4719  0.6667
  587THF     H5 9063   2.133   2.879   3.086  0.2765  0.8503  0.7237
  587THF     H6 9064   2.460   2.985   3.189  1.1764 -1.1199 -1.3318
  587THF     H7 9065   2.303   3.045   3.128  0.0154  0.2310 -0.6298
  587THF     C8 9066   2.283   2.936   3.303  0.2455  0.7439 -0.6811
  587THF     C9 9067   2.219   2.797   3.273  0.2766  0.0892 -0.1377
  587THF    H10 9068   2.198   3.001   3.325  0.6824  1.7978 -1.9981
  587THF    H11 9069   2.344   2.931   3.393 -0.1798 -1.7796 -0.4409
  587THF    H12 9070   2.301   2.727   3.291  0.2990 -0.0507 -0.7545
  587THF    H13 9071   2.129   2.786   3.332 -0.1998  2.2589 -0.3537
  588THF     O1 9072   2.271   4.069   4.756  0.5930  0.8407 -0.2872
  588THF     C2 9073   2.286   4.202   4.805  1.0467  0.8678  0.4954
  588THF     C3 9074   2.136   4.040   4.733  0.1349  0.3704  0.0101
  588THF     H4 9075   2.362   4.263   4.755  0.1738  2.8146  1.4185
  588THF     H5 9076   2.294   4.204   4.914 -1.7669  2.3946  0.7582
  588THF     H6 9077   2.116   4.009   4.631 -1.5855 -0.7328  0.6436
  588THF     H7 9078   2.092   3.959   4.790 -1.0699  1.2370  0.3603
  588THF     C8 9079   2.059   4.169   4.764 -0.0818 -0.1266 -0.3122
  588THF     C9 9080   2.166   4.266   4.745 -0.6077 -0.3935 -0.1868
  588THF    H10 9081   2.027   4.157   4.867 -1.4720 -2.0450 -0.9176
  588THF    H11 9082   1.972   4.186   4.701 -0.4840  0.1306  0.3075
  588THF    H12 9083   2.186   4.280   4.639 -0.7462  0.7681 -0.0747
  588THF    H13 9084   2.160   4.364   4.792 -1.1834 -1.3382  1.8068
  589THF     O1 9085   3.657   1.501   1.020 -0.1565 -0.2821  0.7883
  589THF     C2 9086   3.731   1.497   0.895  0.0006  0.0795 -0.4172
  589THF     C3 9087   3.728   1.423   1.117 -0.4147  0.3193  0.3256
  589THF     H4 9088   3.798   1.581   0.878 -0.9525  0.8615 -0.3805
  589THF     H5 9089   3.658   1.493   0.814 -0.2564  0.1841 -0.1927
  589THF     H6 9090   3.801   1.473   1.182  2.4682  0.0097 -2.4008
  589THF     H7 9091   3.653   1.370   1.175  0.5863 -0.4872  0.9223
  589THF     C8 9092   3.817   1.322   1.046  0.1229  0.2398 -0.4997
  589THF     C9 9093   3.798   1.354   0.902 -0.4065  0.1388 -0.1087
  589THF    H10 9094   3.791   1.223   1.083 -1.5614 -0.7015 -3.7882
  589THF    H11 9095   3.920   1.330   1.082 -0.1069 -0.5897  0.3718
  589THF    H12 9096   3.896   1.353   0.854 -0.9421 -1.0033 -1.2164
  589THF    H13 9097   3.749   1.276   0.845 -0.4417  1.4314 -1.9116
  590THF     O1 9098   3.886   5.278   1.005  0.5725  0.0965 -0.3014
  590THF     C2 9099   3.775   5.338   0.938  0.5254  0.2777  0.2259
  590THF     C3 9100   3.960   5.386   1.055  0.2580 -0.2124 -0.0780
  590THF     H4 9101   3.699   5.344   1.015 -1.5874 -4.0463 -1.2124
  590THF     H5 9102   3.723   5.275   0.866 -1.0735 -2.6769  3.6663
  590THF     H6 9103   3.899   5.435   1.130  0.3221  0.6459 -0.5835
  590THF     H7 9104   4.060   5.352   1.086  0.4680 -1.5282 -2.0075
  590THF     C8 9105   3.972   5.475   0.938 -0.1504 -0.8334  0.3825
  590THF     C9 9106   3.830   5.463   0.880 -0.0177 -0.6396  0.5428
  590THF    H10 9107   4.046   5.453   0.861 -0.4035  0.1300 -0.1646
  590THF    H11 9108   3.991   5.578   0.971  0.9423 -0.5079 -1.1269
  590THF    H12 9109   3.768   5.542   0.922  0.4097  0.1160 -0.2347
  590THF    H13 9110   3.813   5.469   0.772 -0.6496 -0.7600  0.6290
  591THF     O1 9111   1.316   1.497   4.427  0.2365 -0.1151  0.1950
  591THF     C2 9112   1.410   1.445   4.336  0.4331 -0.6933 -0.0112
  591THF     C3 9113   1.255   1.385   4.500 -0.6691 -0.5129 -0.1065
  591THF     H4 9114   1.477   1.514   4.285  2.8190 -0.7347  2.8009
  591THF     H5 9115   1.350   1.392   4.262  0.7738 -1.0410 -0.0350
  591THF     H6 9116   1.216   1.411   4.599 -3.1484  1.5300 -1.5029
  591THF     H7 9117   1.172   1.333   4.453 -2.3160 -0.3008  2.3903
  591THF     C8 9118   1.371   1.287   4.516 -0.2847 -0.3759  0.1460
  591THF     C9 9119   1.480   1.343   4.428  0.1550  0.4139 -0.1563
  591THF    H10 9120   1.337   1.193   4.474 -0.5851 -0.2874  0.1902
  591THF    H11 9121   1.408   1.262   4.615 -0.9794 -2.3145 -0.0499
  591THF    H12 9122   1.566   1.382   4.483  0.3196  0.3542 -0.3682
  591THF    H13 9123   1.528   1.256   4.384  0.2669  0.0319  0.6887
  592THF     O1 9124   2.747   3.675   1.124  0.0641 -0.0801 -0.0406
  592THF     C2 9125   2.823   3.777   1.192 -0.0635 -0.5227 -0.3881
  592THF     C3 9126   2.825   3.564   1.100 -0.0019 -0.3389 -0.0080
  592THF     H4 9127   2.764   3.822   1.272  0.8678 -0.3091  0.1943
  592THF     H5 9128   2.861   3.843   1.115 -0.0418  0.8085  0.7247
  592THF     H6 9129   2.753   3.483   1.107  0.6543 -0.7899  2.9768
  592THF     H7 9130   2.869   3.561   1.001 -0.4898  3.7635 -0.5190
  592THF     C8 9131   2.916   3.559   1.227 -0.1892 -0.2902  0.4516
  592THF     C9 9132   2.938   3.708   1.250  0.0968 -0.0455 -0.4048
  592THF    H10 9133   3.013   3.510   1.225 -0.4856 -0.9412 -2.0397
  592THF    H11 9134   2.856   3.518   1.308 -1.5552 -0.0569 -0.4099
  592THF    H12 9135   2.940   3.707   1.359  0.3582 -3.1853 -0.3387
  592THF    H13 9136   3.035   3.743   1.215 -0.7812  1.3635 -1.5305
  593THF     O1 9137   0.665   5.206   3.240 -0.0217 -0.2239 -0.5580
  593THF     C2 9138   0.654   5.072   3.288  0.3225 -0.0536  0.9968
  593THF     C3 9139   0.530   5.239   3.185 -0.4461 -0.0175 -0.1886
  593THF     H4 9140   0.710   5.064   3.381  0.9161 -1.9424  0.5044
  593THF     H5 9141   0.703   5.015   3.209 -1.6805  0.5987 -0.8071
  593THF     H6 9142   0.498   5.329   3.236  0.5858 -0.4637  1.3367
  593THF     H7 9143   0.532   5.251   3.077  0.3244 -1.0066 -0.3044
  593THF     C8 9144   0.430   5.135   3.212  0.2166  0.0378  0.4147
  593THF     C9 9145   0.501   5.049   3.310 -0.0489  0.3468  0.3818
  593THF    H10 9146   0.418   5.089   3.114  2.0839 -1.5314  0.8589
  593THF    H11 9147   0.334   5.169   3.251 -0.0261 -0.4778  0.2763
  593THF    H12 9148   0.480   5.080   3.412 -1.3697  0.6433  0.0256
  593THF    H13 9149   0.464   4.946   3.309 -0.3134  0.4118  1.8853
  594THF     O1 9150   0.334   0.895   1.646  0.5265 -0.4617  0.5723
  594THF     C2 9151   0.418   0.886   1.527 -0.1926  0.2880 -0.3291
  594THF     C3 9152   0.227   0.988   1.620  0.6145 -0.4235  0.0899
  594THF     H4 9153   0.434   0.778   1.518 -0.0820  0.2894 -0.1467
  594THF     H5 9154   0.513   0.939   1.529 -0.4219  0.6848  0.0969
  594THF     H6 9155   0.144   0.982   1.690  0.4622 -4.0338 -0.2112
  594THF     H7 9156   0.268   1.089   1.623  0.1548 -0.1107 -2.1957
  594THF     C8 9157   0.190   0.966   1.477  0.1088  0.4725 -0.1289
  594THF     C9 9158   0.326   0.941   1.417  0.3307  0.2030 -0.2311
  594THF    H10 9159   0.140   1.056   1.443 -0.0053  1.6767  2.8850
  594THF    H11 9160   0.121   0.883   1.466 -0.3571  1.0276 -1.6630
  594THF    H12 9161   0.321   0.864   1.340 -1.1883 -0.0881  0.1231
  594THF    H13 9162   0.367   1.036   1.383  1.8927 -0.6477 -0.8274
  595THF     O1 9163   5.181   2.892   4.308  0.0234  0.2007 -0.2430
  595THF     C2 9164   5.182   3.035   4.276  0.1316  0.7810 -0.1048
  595THF     C3 9165   5.268   2.826   4.217 -0.1254 -1.3984 -0.1760
  595THF     H4 9166   5.135   3.086   4.360 -0.7385 -3.8590  2.5902
  595THF     H5 9167   5.129   3.048   4.182  1.4637 -0.0031 -0.9956
  595THF     H6 9168   5.283   2.723   4.248 -1.4803 -1.9555 -1.2684
  595THF     H7 9169   5.224   2.823   4.117  1.2630 -0.7772 -0.8408
  595THF     C8 9170   5.388   2.923   4.221  1.2610 -0.0708 -0.4984
  595THF     C9 9171   5.332   3.064   4.253  0.2394 -0.1105 -0.3078
  595THF    H10 9172   5.436   2.921   4.124 -0.6071 -0.7236 -1.4616
  595THF    H11 9173   5.460   2.891   4.297 -0.5757  0.3592  1.5391
  595THF    H12 9174   5.373   3.111   4.343  1.2303 -1.0066 -0.2743
  595THF    H13 9175   5.338   3.117   4.158  0.0277 -1.6538 -1.1955
  596THF     O1 9176   1.878   4.073   5.231 -0.3139  0.1490  0.0023
  596THF     C2 9177   1.960   4.050   5.124 -0.0979  0.0301  0.0925
  596THF     C3 9178   1.871   3.957   5.306  0.0043  0.1141  0.1402
  596THF     H4 9179   2.007   4.141   5.085 -1.0512  1.0140  1.1418
  596THF     H5 9180   1.895   4.013   5.045 -1.8736  0.1802  1.4155
  596THF     H6 9181   1.909   3.986   5.404 -1.0709 -0.2457  0.6753
  596THF     H7 9182   1.767   3.929   5.319 -0.9571  2.5396 -1.7071
  596THF     C8 9183   1.968   3.852   5.243 -0.2602 -0.3495 -0.9716
  596THF     C9 9184   2.058   3.941   5.160  0.3571  0.2953  0.7682
  596THF    H10 9185   1.912   3.786   5.176  0.2347 -1.5232 -0.2658
  596THF    H11 9186   2.022   3.787   5.312 -2.9879  0.4036  2.1811
  596THF    H12 9187   2.142   3.977   5.221  1.9887 -1.7769 -0.1216
  596THF    H13 9188   2.106   3.896   5.073 -2.2866 -3.5533  1.0698
  597THF     O1 9189   2.631   2.524   1.073 -0.4475 -0.2082 -0.3537
  597THF     C2 9190   2.528   2.592   1.000 -0.0689 -0.1080 -0.3017
  597THF     C3 9191   2.605   2.533   1.209 -0.2447  0.8467  0.0854
  597THF     H4 9192   2.540   2.555   0.898  3.7106 -2.3464  0.7194
  597THF     H5 9193   2.555   2.696   1.013  2.6782 -1.0211  2.5714
  597THF     H6 9194   2.665   2.459   1.262  0.7627  1.9437  0.5007
  597THF     H7 9195   2.636   2.629   1.250  0.9882  0.2067  0.6880
  597THF     C8 9196   2.449   2.523   1.217 -0.5233 -0.0471 -0.4430
  597THF     C9 9197   2.404   2.557   1.072  0.3817  0.3575 -0.6016
  597THF    H10 9198   2.409   2.598   1.285  1.2385  0.3681  0.1990
  597THF    H11 9199   2.412   2.424   1.242 -0.5450 -0.2484 -1.2462
  597THF    H12 9200   2.363   2.465   1.032  0.3655 -1.4004  3.0392
  597THF    H13 9201   2.335   2.642   1.068 -1.5545 -1.1989 -2.9491
  598THF     O1 9202   1.628   0.345   3.991 -0.3815 -0.3203 -0.6193
  598THF     C2 9203   1.752   0.359   4.052  0.1142  0.5434 -0.5766
  598THF     C3 9204   1.587   0.470   3.944  0.1397 -0.7191 -0.0878
  598THF     H4 9205   1.804   0.263   4.057 -0.8201  0.0696  0.6079
  598THF     H5 9206   1.731   0.400   4.151 -1.4334 -1.6383  0.0995
  598THF     H6 9207   1.517   0.471   3.860 -1.3971 -0.2066  1.1484
  598THF     H7 9208   1.538   0.517   4.029  1.4952  1.2286 -0.3124
  598THF     C8 9209   1.727   0.535   3.898  0.6013 -0.2473 -0.3884
  598THF     C9 9210   1.836   0.463   3.972 -0.0335  0.3158 -0.2230
  598THF    H10 9211   1.725   0.644   3.899  1.2368 -0.2025 -1.8344
  598THF    H11 9212   1.748   0.525   3.792 -3.5248 -1.3453 -1.2429
  598THF    H12 9213   1.916   0.411   3.919  1.4783 -0.6468  2.7477
  598THF    H13 9214   1.882   0.529   4.046  0.5794 -0.8268  0.4366
  599THF     O1 9215   4.105   3.776   1.122  0.5004 -0.6203 -0.2294
  599THF     C2 9216   3.993   3.831   1.061  0.0847  0.0260 -0.4068
  599THF     C3 9217   4.170   3.695   1.032  0.2983  0.3838 -0.1836
  599THF     H4 9218   3.970   3.920   1.120  1.6200 -0.5183  1.0769
  599THF     H5 9219   3.909   3.764   1.042  0.3135 -0.0213 -1.3058
  599THF     H6 9220   4.266   3.669   1.077 -0.6357 -1.1882  0.9922
  599THF     H7 9221   4.121   3.600   1.010  0.2287  0.3236  0.2360
  599THF     C8 9222   4.170   3.781   0.904  0.4276  0.0986 -0.3309
  599THF     C9 9223   4.050   3.866   0.923  0.6883 -0.4848  0.3206
  599THF    H10 9224   4.176   3.721   0.813 -0.4054 -3.5474  1.8070
  599THF    H11 9225   4.258   3.845   0.907 -0.3801  1.4519 -2.6248
  599THF    H12 9226   4.064   3.973   0.908  1.3885 -0.2032  2.6151
  599THF    H13 9227   3.970   3.831   0.858 -0.8187 -1.6568  2.6274
  600THF     O1 9228   4.299   1.132   4.138 -0.1166  0.5261  0.4418
  600THF     C2 9229   4.263   1.094   4.007 -0.4440 -0.6563 -0.3852
  600THF     C3 9230   4.398   1.034   4.190  0.2628  0.0125  0.6241
  600THF     H4 9231   4.282   1.177   3.938 -0.9229 -0.3911 -0.2043
  600THF     H5 9232   4.156   1.080   4.001 -0.4002 -0.5031 -1.8613
  600THF     H6 9233   4.497   1.075   4.169  0.0971 -0.4966 -1.2816
  600THF     H7 9234   4.378   1.019   4.296  0.6855 -1.8016  0.4633
  600THF     C8 9235   4.365   0.906   4.106  0.2742 -0.8246  0.1440
  600THF     C9 9236   4.349   0.971   3.972  0.6687  0.4703 -0.0461
  600THF    H10 9237   4.278   0.855   4.147  1.4010 -2.5101  0.5507
  600THF    H11 9238   4.452   0.841   4.111  0.5117 -0.4778  0.6281
  600THF    H12 9239   4.443   0.991   3.921  0.3295 -1.4809 -1.5903
  600THF    H13 9240   4.293   0.903   3.907 -0.7881  0.3092  1.3229
  601THF     O1 9241   0.352   3.301   1.509 -0.1762 -0.5231  0.7392
  601THF     C2 9242   0.310   3.304   1.644 -0.2675 -0.1035  0.3373
  601THF     C3 9243   0.305   3.413   1.441 -0.7959 -0.7958  0.0148
  601THF     H4 9244   0.378   3.253   1.712 -0.1190 -0.2600  0.0731
  601THF     H5 9245   0.210   3.262   1.645  0.4507 -2.3351  5.1097
  601THF     H6 9246   0.348   3.433   1.343  0.0369  3.0706  1.0176
  601THF     H7 9247   0.200   3.408   1.414 -0.3406  1.7346 -2.6500
  601THF     C8 9248   0.335   3.516   1.541 -0.1770 -0.0986  0.2406
  601THF     C9 9249   0.311   3.455   1.678 -0.6246  0.0139  0.2456
  601THF    H10 9250   0.270   3.603   1.539  2.6002  2.2188  1.9553
  601THF    H11 9251   0.439   3.547   1.530 -0.2635  0.0686 -0.1119
  601THF    H12 9252   0.378   3.484   1.758  0.6630 -0.3395 -0.6824
  601THF    H13 9253   0.212   3.486   1.712  0.0534 -0.2136  2.5511
  602THF     O1 9254   0.352   0.799   4.489 -0.7287  0.3141  0.4460
  602THF     C2 9255   0.250   0.818   4.586 -1.0725 -0.2111 -0.1652
  602THF     C3 9256   0.302   0.869   4.371 -0.2593  0.1313  0.0189
  602THF     H4 9257   0.244   0.921   4.622  0.2580 -0.2866  0.3117
  602THF     H5 9258   0.252   0.752   4.673 -1.0642 -1.4267 -1.0699
  602THF     H6 9259   0.323   0.976   4.368 -0.1476  0.1883  1.7038
  602THF     H7 9260   0.338   0.820   4.280  0.1763  1.5678 -0.6064
  602THF     C8 9261   0.147   0.855   4.371 -0.0187  0.5010 -0.4447
  602THF     C9 9262   0.123   0.786   4.510  0.6951 -0.4924 -0.2767
  602THF    H10 9263   0.119   0.783   4.293  0.6501  0.3088 -0.5134
  602THF    H11 9264   0.105   0.955   4.375  3.3637  2.0344  0.5155
  602THF    H12 9265   0.048   0.838   4.570  1.2053  4.5724 -3.4007
  602THF    H13 9266   0.109   0.679   4.498 -0.3472 -0.2424 -1.5547
  603THF     O1 9267   1.931   5.271   4.844  0.4188  0.0676  0.2509
  603THF     C2 9268   1.969   5.135   4.819  0.0247  0.0425  0.8261
  603THF     C3 9269   2.045   5.355   4.838 -0.3085 -0.2473  0.4456
  603THF     H4 9270   1.886   5.076   4.780 -0.8935  2.2385 -0.7397
  603THF     H5 9271   2.006   5.081   4.907  0.5473 -1.0169 -0.0159
  603THF     H6 9272   2.036   5.448   4.783  0.2713 -0.4773 -0.0487
  603THF     H7 9273   2.071   5.387   4.939  0.0316  3.0318 -0.5698
  603THF     C8 9274   2.151   5.274   4.764  0.4509 -0.4276  0.5473
  603THF     C9 9275   2.065   5.165   4.703  0.3302 -0.1581 -0.0043
  603THF    H10 9276   2.231   5.241   4.830  2.9090  0.9373 -1.5628
  603THF    H11 9277   2.203   5.325   4.683  3.0129 -0.3755  2.1246
  603THF    H12 9278   2.012   5.199   4.614 -0.7634  0.4321  0.8457
  603THF    H13 9279   2.130   5.081   4.676  0.5852  0.2420 -0.6549
  604THF     O1 9280   4.099   2.438   2.035 -0.3845  0.1547 -0.3303
  604THF     C2 9281   3.990   2.442   2.118  0.4082 -0.4643 -0.1658
  604THF     C3 9282   4.118   2.574   2.001  0.3737  0.5028  0.1073
  604THF     H4 9283   3.991   2.354   2.183 -1.6288 -0.8103 -0.5437
  604THF     H5 9284   3.901   2.428   2.057 -0.0306  2.0301 -0.1816
  604THF     H6 9285   4.216   2.593   1.959  0.4624  2.7713  1.2133
  604THF     H7 9286   4.036   2.610   1.937 -0.3733 -3.2829 -1.3207
  604THF     C8 9287   4.100   2.653   2.130 -0.2114  0.1293 -0.0035
  604THF     C9 9288   3.984   2.573   2.198 -0.1788  0.3204 -0.3175
  604THF    H10 9289   4.082   2.759   2.115  0.0042 -0.0975 -2.2175
  604THF    H11 9290   4.195   2.645   2.183  0.7686  2.3744 -1.3005
  604THF    H12 9291   4.002   2.560   2.304  1.8795 -2.7443 -0.9211
  604THF    H13 9292   3.882   2.613   2.196 -0.6863 -0.8484  0.8232
  605THF     O1 9293   2.801   2.935   0.652 -0.1240 -0.0473  0.2304
  605THF     C2 9294   2.660   2.934   0.670 -0.1249  0.2619 -0.4372
  605THF     C3 9295   2.851   2.917   0.783  0.0350 -0.5219  0.1328
  605THF     H4 9296   2.626   2.834   0.696  1.0471  0.5950  2.7964
  605THF     H5 9297   2.620   2.968   0.574  0.8886 -0.6260 -1.1974
  605THF     H6 9298   2.834   2.820   0.828 -0.1310  1.0255  3.7466
  605THF     H7 9299   2.957   2.942   0.783  0.2666 -1.2502 -1.9661
  605THF     C8 9300   2.768   3.012   0.866  0.5162 -0.0365 -0.3695
  605THF     C9 9301   2.636   3.021   0.792 -0.3990  0.0033 -0.6526
  605THF    H10 9302   2.807   3.112   0.849 -0.4238  0.0473 -2.2946
  605THF    H11 9303   2.762   3.000   0.974 -1.3287  4.6696  0.2661
  605THF    H12 9304   2.556   2.971   0.847  0.2402 -0.3131  0.0114
  605THF    H13 9305   2.614   3.121   0.756  2.0695  1.2090  0.9543
  606THF     O1 9306   0.360   3.496   4.329 -0.1890 -0.2462  0.3319
  606THF     C2 9307   0.356   3.362   4.367  0.1274  0.2227 -0.0560
  606THF     C3 9308   0.255   3.563   4.398 -0.3775 -0.1057 -0.1444
  606THF     H4 9309   0.444   3.299   4.358  0.4565  0.2394  2.3412
  606THF     H5 9310   0.276   3.312   4.314  0.9665  0.4114 -1.5589
  606THF     H6 9311   0.272   3.669   4.413 -1.2360 -0.0566  0.5695
  606THF     H7 9312   0.160   3.554   4.346  0.4867  0.3996 -1.8726
  606THF     C8 9313   0.256   3.497   4.535 -0.4413 -0.1291  0.1498
  606THF     C9 9314   0.332   3.363   4.515 -0.5528 -0.6132 -0.0208
  606THF    H10 9315   0.151   3.486   4.561 -0.1917 -0.7720  0.9086
  606THF    H11 9316   0.292   3.559   4.618 -2.4681  1.7476 -0.2637
  606THF    H12 9317   0.423   3.364   4.575 -0.5607 -2.4847  0.0862
  606THF    H13 9318   0.271   3.276   4.541 -0.3800 -0.5316  0.6651
  607THF     O1 9319   0.800   4.453   5.199 -0.2224  0.1847  0.9634
  607THF     C2 9320   0.770   4.315   5.205 -0.2622  0.5643  0.2823
  607THF     C3 9321   0.861   4.491   5.319  0.1585  0.2585  0.6481
  607THF     H4 9322   0.858   4.251   5.196 -0.8296 -0.2399  0.4025
  607THF     H5 9323   0.707   4.283   5.123 -0.3495 -0.8269  0.8628
  607THF     H6 9324   0.962   4.459   5.294 -0.6661 -0.8771 -1.4903
  607THF     H7 9325   0.853   4.596   5.346 -2.6235 -0.4734  3.3342
  607THF     C8 9326   0.790   4.398   5.423 -1.0170 -0.8279 -0.2276
  607THF     C9 9327   0.710   4.300   5.336  0.0749  0.5257  0.0570
  607THF    H10 9328   0.727   4.457   5.490 -1.0442  0.2170 -1.1575
  607THF    H11 9329   0.872   4.357   5.481  0.3879  1.4771 -0.4662
  607THF    H12 9330   0.712   4.198   5.374 -1.1566  0.6808  0.5589
  607THF    H13 9331   0.615   4.352   5.346  0.0765  0.7049 -0.7755
  608THF     O1 9332   4.229   2.267   4.230  0.4038 -0.0304  0.3989
  608THF     C2 9333   4.246   2.406   4.249 -0.8636  0.4392  0.0141
  608THF     C3 9334   4.225   2.194   4.349 -0.5647 -0.5323  0.0291
  608THF     H4 9335   4.145   2.445   4.262 -1.4929 -0.3751 -2.0497
  608THF     H5 9336   4.292   2.457   4.165 -0.7396  1.0411  0.4457
  608THF     H6 9337   4.121   2.204   4.381 -1.8041 -4.3683 -2.1040
  608THF     H7 9338   4.241   2.087   4.341 -2.2706 -0.8426  0.3487
  608THF     C8 9339   4.328   2.274   4.434  0.0030 -0.1119 -0.7576
  608THF     C9 9340   4.332   2.421   4.379  0.2243  0.1849  0.2804
  608THF    H10 9341   4.421   2.218   4.422  0.4680  0.9291 -2.3142
  608THF    H11 9342   4.313   2.264   4.542 -0.7984 -1.8328 -0.9914
  608THF    H12 9343   4.296   2.504   4.439  0.5597 -0.7793  1.8838
  608THF    H13 9344   4.432   2.455   4.352 -0.5870  1.1579 -1.6709
  609THF     O1 9345   0.193   3.690   2.392 -0.0962 -0.2598  0.2965
  609THF     C2 9346   0.283   3.660   2.283 -0.1016 -0.0821  0.0749
  609THF     C3 9347   0.107   3.576   2.410  0.0732  0.3240 -0.4667
  609THF     H4 9348   0.387   3.651   2.315  0.1023  2.0882  0.1939
  609THF     H5 9349   0.289   3.731   2.200 -0.9613 -2.3089 -1.9934
  609THF     H6 9350   0.086   3.569   2.517  2.6566  2.8298  0.3581
  609THF     H7 9351   0.019   3.601   2.351 -1.1262 -0.5981  0.8824
  609THF     C8 9352   0.187   3.450   2.357  0.4955 -0.8576  0.1892
  609THF     C9 9353   0.242   3.516   2.232  0.6464 -0.3744  0.2012
  609THF    H10 9354   0.125   3.361   2.347 -0.9047  0.2139 -1.2115
  609THF    H11 9355   0.275   3.428   2.418 -0.4982 -0.6657  1.7701
  609THF    H12 9356   0.311   3.447   2.185  0.4830  0.0939 -0.7582
  609THF    H13 9357   0.159   3.526   2.162  0.8689 -0.1916 -0.0375
  610THF     O1 9358   1.720   1.610   1.108 -0.7477 -0.3510  0.1732
  610THF     C2 9359   1.788   1.735   1.079  0.1164 -0.3901  0.1058
  610THF     C3 9360   1.614   1.642   1.199 -0.2622 -0.7747  0.2110
  610THF     H4 9361   1.843   1.742   0.985  0.7719  0.7556  0.5599
  610THF     H5 9362   1.855   1.756   1.163 -2.2746  0.9028  1.8190
  610THF     H6 9363   1.526   1.579   1.190 -0.5935 -0.5801  1.8337
  610THF     H7 9364   1.651   1.634   1.301 -1.6704 -0.7373  0.7531
  610THF     C8 9365   1.574   1.788   1.170  0.1834  0.3572 -0.7519
  610THF     C9 9366   1.668   1.829   1.066  0.1991  0.2992 -0.5097
  610THF    H10 9367   1.583   1.839   1.265  0.5943 -0.5001 -0.3189
  610THF    H11 9368   1.469   1.798   1.142 -0.9417 -1.2284  2.3876
  610THF    H12 9369   1.618   1.819   0.969 -0.1007 -1.5617 -0.1972
  610THF    H13 9370   1.685   1.936   1.080  1.4353 -0.0056  0.5449
  611THF     O1 9371   2.565   4.360   2.071 -0.2211  0.1183  0.1700
  611THF     C2 9372   2.658   4.325   1.974 -0.4353 -0.2150  0.0527
  611THF     C3 9373   2.576   4.500   2.109  0.0164  0.4089  0.1120
  611THF     H4 9374   2.613   4.252   1.906  2.0627 -1.1032 -0.7505
  611THF     H5 9375   2.735   4.285   2.041 -1.8506  0.0352  1.9245
  611THF     H6 9376   2.483   4.532   2.157  0.0884 -0.0198  0.5434
  611THF     H7 9377   2.654   4.503   2.186 -1.5065  0.1604  1.7241
  611THF     C8 9378   2.625   4.565   1.977 -0.7592 -0.0015  0.1587
  611THF     C9 9379   2.722   4.458   1.928 -0.5672  0.5003  0.3679
  611THF    H10 9380   2.672   4.662   1.995 -3.6432  1.1686  2.1604
  611THF    H11 9381   2.543   4.573   1.905 -0.1830 -0.4373 -0.5572
  611THF    H12 9382   2.732   4.462   1.819 -1.2130 -1.6261  0.1866
  611THF    H13 9383   2.820   4.466   1.974 -0.1085 -2.6486  0.1298
  612THF     O1 9384   1.923   1.724   0.450 -0.7323 -0.1589  0.4094
  612THF     C2 9385   1.804   1.662   0.497  0.5998 -0.3572 -0.0613
  612THF     C3 9386   1.884   1.849   0.406  0.5520 -0.2593  0.4345
  612THF     H4 9387   1.847   1.592   0.568 -1.7445 -1.2033  0.6030
  612THF     H5 9388   1.741   1.617   0.420 -0.2566  0.0296  0.4084
  612THF     H6 9389   1.958   1.922   0.373  0.4299 -1.0474 -1.7443
  612THF     H7 9390   1.825   1.846   0.314  0.2509 -1.8006  0.6518
  612THF     C8 9391   1.795   1.905   0.508  0.7849  0.3235  0.0290
  612THF     C9 9392   1.734   1.782   0.568 -0.2738 -1.2044  0.0122
  612THF    H10 9393   1.722   1.974   0.466  0.0660  0.9542  2.1912
  612THF    H11 9394   1.839   1.964   0.588  1.7655  1.4282 -1.2697
  612THF    H12 9395   1.734   1.773   0.676 -1.9888  0.1863  0.1718
  612THF    H13 9396   1.631   1.773   0.534 -0.7938  0.6486  1.0034
  613THF     O1 9397   5.118   4.170   1.375  0.2800 -0.5226  0.4697
  613THF     C2 9398   5.069   4.041   1.386 -0.4929 -0.5767  0.1936
  613THF     C3 9399   5.244   4.168   1.305  0.2114  0.2257  0.3592
  613THF     H4 9400   4.963   4.051   1.407 -0.0232  2.6675  1.6073
  613THF     H5 9401   5.106   3.991   1.476 -1.2954  0.2826  1.0168
  613THF     H6 9402   5.268   4.267   1.267 -0.2823  0.8266  1.5699
  613THF     H7 9403   5.325   4.145   1.375 -1.0629 -3.0272  0.9447
  613THF     C8 9404   5.226   4.056   1.200 -0.6795 -0.4145 -0.7352
  613THF     C9 9405   5.108   3.970   1.254  0.9356  0.1385 -0.4687
  613THF    H10 9406   5.310   3.991   1.173 -1.0247 -0.5277 -1.5678
  613THF    H11 9407   5.193   4.101   1.107  0.0300  1.4353 -0.1250
  613THF    H12 9408   5.039   3.979   1.170  1.0365  1.4671 -0.4353
  613THF    H13 9409   5.136   3.866   1.264  4.3455  0.8386 -1.5287
  614THF     O1 9410   2.665   5.420   3.736 -0.6122  0.4539  0.3836
  614THF     C2 9411   2.735   5.475   3.626  0.6104 -0.1549  0.1296
  614THF     C3 9412   2.655   5.517   3.836 -0.1074 -0.2449 -0.0902
  614THF     H4 9413   2.660   5.539   3.577  1.9204  1.5878  0.3168
  614THF     H5 9414   2.769   5.404   3.551  1.1930  0.7486 -0.4785
  614THF     H6 9415   2.579   5.591   3.811  0.1381  1.2351  3.0955
  614THF     H7 9416   2.636   5.473   3.933  3.0666  1.1266  1.2980
  614THF     C8 9417   2.795   5.578   3.830 -0.4931 -0.5235  0.3764
  614THF     C9 9418   2.841   5.553   3.691 -0.1395 -0.0832  0.6332
  614THF    H10 9419   2.866   5.526   3.895  2.9817  2.0901 -0.9886
  614THF    H11 9420   2.809   5.684   3.851  0.4885 -0.1678 -1.7919
  614THF    H12 9421   2.841   5.654   3.649 -1.9772 -0.6099 -0.7533
  614THF    H13 9422   2.939   5.505   3.679 -1.8912 -3.7685 -0.4922
  615THF     O1 9423   3.401   0.603   1.766 -0.1987  0.2375  0.0213
  615THF     C2 9424   3.314   0.717   1.759  0.7711  0.1399 -0.0274
  615THF     C3 9425   3.409   0.570   1.907  0.4824  0.8497 -0.3826
  615THF     H4 9426   3.209   0.689   1.762  0.3623  1.4804 -1.1652
  615THF     H5 9427   3.331   0.762   1.662 -0.6306  1.6146  0.3661
  615THF     H6 9428   3.312   0.527   1.929  0.7738 -0.1022 -0.9156
  615THF     H7 9429   3.495   0.506   1.929 -0.5110 -0.4184 -0.0969
  615THF     C8 9430   3.430   0.702   1.974  0.0412 -0.3146  0.7188
  615THF     C9 9431   3.373   0.803   1.872  0.3622 -0.4808 -0.8416
  615THF    H10 9432   3.532   0.722   2.006 -0.6059  0.0197  2.7664
  615THF    H11 9433   3.369   0.711   2.065 -1.4300 -2.3961 -0.0023
  615THF    H12 9434   3.309   0.866   1.934  2.4767  0.7288  0.2253
  615THF    H13 9435   3.458   0.860   1.835  0.8775  0.4510  1.5793
  616THF     O1 9436   1.346   5.133   3.090  0.1761  0.2995 -0.9734
  616THF     C2 9437   1.456   5.219   3.123  0.4659 -0.3346  0.1931
  616THF     C3 9438   1.407   5.003   3.062  0.8033 -0.0597  0.4292
  616THF     H4 9439   1.487   5.204   3.226  0.9404 -1.2349 -0.0664
  616THF     H5 9440   1.416   5.320   3.113  0.9088 -0.0708  1.0131
  616THF     H6 9441   1.425   4.951   3.156  1.1999 -1.6407 -0.4954
  616THF     H7 9442   1.346   4.938   3.000  0.1891  0.1617  0.7834
  616THF     C8 9443   1.537   5.026   2.998  0.6517 -0.2551  0.1413
  616THF     C9 9444   1.549   5.179   3.012  0.1391 -0.2298  0.5042
  616THF    H10 9445   1.538   5.002   2.892 -0.9847 -0.3382  0.1302
  616THF    H11 9446   1.629   4.993   3.046  0.8046  1.7178  1.3363
  616THF    H12 9447   1.647   5.224   3.029 -0.9767  2.1307  1.1909
  616THF    H13 9448   1.512   5.225   2.920  1.8962 -1.1469 -0.7278
  617THF     O1 9449   4.998   4.560   0.503  0.1403 -0.2768 -0.3759
  617THF     C2 9450   5.114   4.631   0.466 -0.0364 -0.4020 -0.8018
  617THF     C3 9451   5.043   4.474   0.608  0.0235 -0.3658  0.7766
  617THF     H4 9452   5.091   4.724   0.413 -1.7802 -0.9478 -1.0449
  617THF     H5 9453   5.182   4.580   0.399  0.1145 -0.5148 -0.5642
  617THF     H6 9454   4.963   4.414   0.652 -0.4143  0.7983  1.6169
  617THF     H7 9455   5.116   4.403   0.568  1.1122  0.8892  0.4648
  617THF     C8 9456   5.107   4.577   0.709 -0.2981  0.3779 -0.2894
  617THF     C9 9457   5.174   4.670   0.608  0.3105  0.2527 -0.4603
  617THF    H10 9458   5.185   4.532   0.771  0.3730  1.1883 -0.5138
  617THF    H11 9459   5.032   4.621   0.774 -0.7586 -0.9820  0.1291
  617THF    H12 9460   5.149   4.775   0.622 -3.2838 -0.7136  1.6823
  617THF    H13 9461   5.281   4.652   0.605  0.1939 -0.3898 -1.1671
  618THF     O1 9462   4.918   0.744   2.945  0.0571  0.2064  0.1940
  618THF     C2 9463   4.992   0.636   2.989 -0.1721  0.3180 -0.0686
  618THF     C3 9464   4.980   0.803   2.825 -0.4645 -0.0869  0.3111
  618THF     H4 9465   4.926   0.558   3.028 -1.7080  1.9218  0.7048
  618THF     H5 9466   5.046   0.661   3.080 -1.0976 -0.2443  0.6587
  618THF     H6 9467   4.915   0.797   2.737  0.6501  0.2962 -0.5652
  618THF     H7 9468   5.004   0.905   2.856  0.3041 -0.4139  0.8122
  618THF     C8 9469   5.126   0.740   2.824 -0.2749  0.0364  0.1791
  618THF     C9 9470   5.087   0.598   2.877  0.0722 -0.3643  0.0773
  618THF    H10 9471   5.197   0.796   2.884 -0.7532  0.2449  0.5516
  618THF    H11 9472   5.174   0.732   2.726 -0.5130 -1.9315  0.1874
  618THF    H12 9473   5.019   0.551   2.806  1.3239  0.4318 -1.7309
  618THF    H13 9474   5.173   0.540   2.910  0.4272  0.5783  0.8845
  619THF     O1 9475   4.852   2.406   3.099  0.1491  0.1821 -0.5660
  619THF     C2 9476   4.876   2.433   2.960 -0.7436 -0.5490 -0.1592
  619THF     C3 9477   4.816   2.270   3.105 -0.2038  0.2398  0.4874
  619THF     H4 9478   4.922   2.530   2.943 -0.1984 -0.3168  2.2976
  619THF     H5 9479   4.780   2.436   2.907 -0.1501  1.8419 -1.2566
  619THF     H6 9480   4.813   2.233   3.208  1.9227  2.1461  1.3299
  619THF     H7 9481   4.718   2.268   3.057 -0.4104 -1.3688  0.9306
  619THF     C8 9482   4.919   2.201   3.017 -0.7587 -0.9631 -0.4008
  619THF     C9 9483   4.958   2.312   2.926 -0.1538 -0.1789 -0.0816
  619THF    H10 9484   4.881   2.122   2.953  0.2691  1.1467 -3.9432
  619THF    H11 9485   5.009   2.173   3.070 -0.8474 -1.1608 -0.3567
  619THF    H12 9486   5.060   2.344   2.948 -0.2630 -0.0524  0.2421
  619THF    H13 9487   4.942   2.296   2.819 -1.4296  0.5951 -0.0386
  620THF     O1 9488   2.853   0.313   2.327  0.2194 -0.0934 -0.2243
  620THF     C2 9489   2.959   0.399   2.361  0.5902 -0.1611  0.2260
  620THF     C3 9490   2.912   0.182   2.304 -0.8416 -0.4613  0.3464
  620THF     H4 9491   3.000   0.378   2.460 -0.3329  0.5638  0.7680
  620THF     H5 9492   2.929   0.503   2.346 -3.9456 -1.0545  1.5934
  620THF     H6 9493   2.944   0.116   2.384 -0.2464 -2.6280 -1.5781
  620THF     H7 9494   2.847   0.123   2.238 -0.6059  1.9893 -2.2872
  620THF     C8 9495   3.028   0.221   2.210  0.2030  0.4610 -0.8051
  620THF     C9 9496   3.066   0.361   2.262 -0.3070  0.7387 -0.1896
  620THF    H10 9497   2.987   0.228   2.109  1.1513 -1.8346 -1.4268
  620THF    H11 9498   3.104   0.144   2.198 -0.0489 -0.2596  1.6549
  620THF    H12 9499   3.163   0.357   2.311 -1.0845  1.8258  1.5108
  620THF    H13 9500   3.077   0.438   2.185  0.1196  2.6273  1.6782
  621THF     O1 9501   3.561   0.799   2.383 -0.0688 -0.6278 -0.4503
  621THF     C2 9502   3.429   0.746   2.408 -0.0159  0.6510 -0.4898
  621THF     C3 9503   3.639   0.757   2.499 -0.5008  0.2743  0.0848
  621THF     H4 9504   3.348   0.757   2.337 -0.8045 -1.0452  0.1027
  621THF     H5 9505   3.393   0.803   2.494  2.2944  1.0525  0.2776
  621THF     H6 9506   3.739   0.752   2.456 -1.2392  1.1984 -1.8492
  621THF     H7 9507   3.641   0.846   2.563 -0.7222  1.2572 -1.2414
  621THF     C8 9508   3.570   0.634   2.555 -0.2049  0.1406  0.6092
  621THF     C9 9509   3.468   0.604   2.453 -0.3267  0.1387  0.0616
  621THF    H10 9510   3.525   0.643   2.654 -0.6945 -1.3108  0.5460
  621THF    H11 9511   3.644   0.557   2.578 -0.1295  0.3571  1.1019
  621THF    H12 9512   3.508   0.544   2.371  1.8436  1.1381  0.3305
  621THF    H13 9513   3.394   0.539   2.500  2.0290 -2.4220  0.4953
  622THF     O1 9514   0.280   3.221   2.904  0.6065  0.5426 -0.2724
  622THF     C2 9515   0.175   3.315   2.886  0.2558  0.5676 -0.5701
  622THF     C3 9516   0.344   3.244   3.029  0.0943  0.0862  0.0326
  622THF     H4 9517   0.078   3.266   2.895 -0.6570  2.1584 -1.3323
  622THF     H5 9518   0.185   3.360   2.787  2.3353  2.1615  0.2735
  622THF     H6 9519   0.286   3.190   3.103 -1.5048  0.5969 -0.8158
  622THF     H7 9520   0.445   3.206   3.014 -1.0719 -4.2342  1.7039
  622THF     C8 9521   0.328   3.400   3.052 -0.0656 -0.1855  0.2664
  622THF     C9 9522   0.192   3.422   2.997 -0.5397 -0.4001 -0.2519
  622THF    H10 9523   0.404   3.463   3.006  1.8256 -1.6144  1.2841
  622THF    H11 9524   0.331   3.407   3.160 -1.4472 -2.7224  0.5673
  622THF    H12 9525   0.115   3.400   3.071  0.1065  1.2026  0.9467
  622THF    H13 9526   0.167   3.527   2.986  0.8632  0.2113  1.8676
  623THF     O1 9527   2.642   2.846   2.733 -0.6207 -0.6382  0.3232
  623THF     C2 9528   2.752   2.771   2.784  0.4496  0.0008 -0.4822
  623THF     C3 9529   2.666   2.886   2.597  0.1010 -0.5805  0.0924
  623THF     H4 9530   2.745   2.668   2.748 -3.8915  0.0430 -0.2858
  623THF     H5 9531   2.768   2.755   2.891 -2.6088  0.4499  0.1281
  623THF     H6 9532   2.643   2.789   2.552 -0.2747 -2.1251  3.2777
  623THF     H7 9533   2.614   2.970   2.553  1.6642 -0.3993 -1.5196
  623THF     C8 9534   2.812   2.931   2.609  0.5832  0.8140  0.1467
  623THF     C9 9535   2.873   2.851   2.728 -0.0216  0.7845 -0.0063
  623THF    H10 9536   2.830   3.038   2.620 -0.5100  1.0657 -0.3518
  623THF    H11 9537   2.859   2.902   2.515 -1.6424  0.4233 -0.9375
  623THF    H12 9538   2.948   2.783   2.686 -1.6882 -0.8722 -0.4194
  623THF    H13 9539   2.919   2.917   2.802 -0.6762  1.4402 -0.1826
  624THF     O1 9540   1.273   1.472   5.384 -0.1155 -0.0824 -0.1275
  624THF     C2 9541   1.330   1.383   5.286  0.3433 -0.4490 -0.1906
  624THF     C3 9542   1.351   1.586   5.383 -0.6304 -0.1022  0.6092
  624THF     H4 9543   1.288   1.407   5.189  0.7477 -0.8837 -0.4749
  624THF     H5 9544   1.314   1.278   5.309  1.9591 -0.5411  0.6834
  624THF     H6 9545   1.298   1.674   5.346  0.1589 -0.4836 -1.5715
  624THF     H7 9546   1.399   1.594   5.480  0.8117 -1.1438  0.0260
  624THF     C8 9547   1.471   1.571   5.290  0.0820 -0.2489 -0.1596
  624THF     C9 9548   1.481   1.422   5.280  0.1766  0.4979 -0.3890
  624THF    H10 9549   1.554   1.629   5.329 -0.4134  0.0545  0.4574
  624THF    H11 9550   1.446   1.604   5.189  1.3166 -0.9787 -0.7195
  624THF    H12 9551   1.537   1.404   5.188  0.4143  0.9373 -0.3327
  624THF    H13 9552   1.538   1.380   5.363  2.1778  2.0246 -0.9276
  625THF     O1 9553   1.900   3.630   4.871 -0.2816 -0.1299 -0.0496
  625THF     C2 9554   1.783   3.715   4.878  0.9571  0.7115 -0.2927
  625THF     C3 9555   1.852   3.502   4.906  0.1040  0.1492  0.2742
  625THF     H4 9556   1.714   3.708   4.793  1.0339 -1.9210 -0.2330
  625THF     H5 9557   1.826   3.814   4.892 -0.1557  0.8445  3.0398
  625THF     H6 9558   1.815   3.459   4.813  0.3593  1.2469 -0.3483
  625THF     H7 9559   1.922   3.422   4.933 -1.2506 -1.0911  0.2177
  625THF     C8 9560   1.743   3.532   5.024 -0.1229  0.0650  0.5443
  625THF     C9 9561   1.690   3.668   4.994  0.6803  0.4808  0.2936
  625THF    H10 9562   1.795   3.530   5.120  1.8370 -0.4606 -0.4608
  625THF    H11 9563   1.664   3.457   5.021 -0.1435  0.1010 -0.2167
  625THF    H12 9564   1.586   3.669   4.961  0.7859 -1.5794 -0.2476
  625THF    H13 9565   1.694   3.733   5.082 -1.1135 -0.4541  1.1006
  626THF     O1 9566   1.611   0.288   3.456 -0.6766  0.4927 -0.2163
  626THF     C2 9567   1.671   0.163   3.424 -0.4315 -0.3829 -0.0483
  626THF     C3 9568   1.688   0.344   3.567  0.6064 -0.2253  0.1773
  626THF     H4 9569   1.769   0.180   3.379 -0.7680  0.9456 -0.3503
  626THF     H5 9570   1.602   0.100   3.368 -0.3647 -1.5160  1.1034
  626THF     H6 9571   1.787   0.376   3.535 -0.0811  1.7793 -0.1336
  626THF     H7 9572   1.634   0.424   3.619  1.6328  0.3823  0.3341
  626THF     C8 9573   1.711   0.216   3.657  0.2215  0.2129 -0.4438
  626THF     C9 9574   1.695   0.101   3.557 -0.3451 -0.6472 -0.2076
  626THF    H10 9575   1.637   0.210   3.736 -0.5830  2.1732 -0.9713
  626THF    H11 9576   1.806   0.228   3.709  0.0765  1.0763 -0.3627
  626THF    H12 9577   1.776   0.028   3.563  0.5024  0.3147  0.3560
  626THF    H13 9578   1.605   0.052   3.594 -1.7306  2.6199  1.1376
  627THF     O1 9579   1.913   0.565   2.425 -0.1035  0.5962 -0.0995
  627THF     C2 9580   1.910   0.428   2.398 -0.4390 -0.4896  0.2520
  627THF     C3 9581   1.954   0.622   2.306 -0.3595 -0.2730  0.3431
  627THF     H4 9582   1.815   0.414   2.346  0.5304 -1.0500 -1.4857
  627THF     H5 9583   1.903   0.377   2.493 -0.2505  2.0670  1.7324
  627THF     H6 9584   1.874   0.648   2.237  0.9246 -1.3584 -1.6504
  627THF     H7 9585   2.002   0.717   2.331  0.0039 -0.3172 -0.1777
  627THF     C8 9586   2.056   0.522   2.235  0.0831  0.2427  0.6913
  627THF     C9 9587   2.023   0.388   2.303 -0.3687 -0.7641  0.0564
  627THF    H10 9588   2.157   0.556   2.257 -0.6421  2.7176  0.5140
  627THF    H11 9589   2.042   0.509   2.128  1.1019 -0.4040  0.6256
  627THF    H12 9590   2.002   0.314   2.226 -0.3983 -0.2391 -0.4411
  627THF    H13 9591   2.110   0.352   2.359  2.2729  0.6036 -2.8521
  628THF     O1 9592   3.267   4.592   3.742 -0.4562 -0.1762 -1.0303
  628THF     C2 9593   3.281   4.687   3.644  0.3302 -0.0578  0.2404
  628THF     C3 9594   3.334   4.472   3.695 -0.4182 -0.9655 -0.9789
  628THF     H4 9595   3.257   4.782   3.691  0.6943  0.0145  0.2833
  628THF     H5 9596   3.212   4.654   3.566  1.5394 -1.2208 -0.3862
  628THF     H6 9597   3.369   4.404   3.773 -0.8122  1.5540  1.5569
  628THF     H7 9598   3.275   4.416   3.623 -0.6585 -1.7059 -0.2311
  628THF     C8 9599   3.454   4.529   3.623 -0.0519  0.1863  0.1471
  628THF     C9 9600   3.421   4.674   3.593  0.2574 -0.2766 -0.2508
  628THF    H10 9601   3.476   4.466   3.536 -1.5465 -0.6434  0.3413
  628THF    H11 9602   3.544   4.519   3.684  0.2593 -2.1251 -0.5972
  628THF    H12 9603   3.482   4.752   3.638 -3.3490  2.3758  0.5523
  628THF    H13 9604   3.421   4.689   3.485 -1.2977  1.4211 -0.0762
  629THF     O1 9605   5.443   3.468   1.979  0.4017  0.2041  0.2364
  629THF     C2 9606   5.473   3.385   1.875 -0.1386 -0.1700 -0.6968
  629THF     C3 9607   5.348   3.403   2.064 -0.2278 -0.1976 -0.1623
  629THF     H4 9608   5.579   3.390   1.854  0.4781 -0.9661  1.8590
  629THF     H5 9609   5.403   3.410   1.795 -1.1154 -1.9889 -0.4679
  629THF     H6 9610   5.348   3.446   2.164 -0.4620 -0.5170 -0.0275
  629THF     H7 9611   5.247   3.413   2.024 -0.6444 -0.6388  0.7731
  629THF     C8 9612   5.387   3.257   2.052  0.2711 -0.3206 -0.3353
  629THF     C9 9613   5.437   3.244   1.913  0.2335  0.6297 -0.3821
  629THF    H10 9614   5.301   3.195   2.076 -0.8323  0.7150 -1.5087
  629THF    H11 9615   5.465   3.246   2.127 -0.4918  3.1835  1.1160
  629THF    H12 9616   5.527   3.184   1.901 -0.1496  0.1368 -0.8403
  629THF    H13 9617   5.362   3.202   1.846 -0.7049  0.3251  0.8174
  630THF     O1 9618   2.894   4.178   0.382  0.2578 -0.0446 -0.1464
  630THF     C2 9619   2.844   4.166   0.513 -0.1519 -0.0402 -0.5229
  630THF     C3 9620   2.812   4.092   0.301  0.4567  0.3677 -0.2093
  630THF     H4 9621   2.871   4.241   0.587  0.3647  0.1599 -0.9093
  630THF     H5 9622   2.882   4.072   0.551 -0.1592  0.0907 -0.1861
  630THF     H6 9623   2.807   4.124   0.197  0.5838  0.3846 -0.2106
  630THF     H7 9624   2.863   3.996   0.310  0.5478  0.2973 -1.3507
  630THF     C8 9625   2.672   4.087   0.359  0.3148  0.4251  0.3540
  630THF     C9 9626   2.695   4.153   0.496  0.3816  0.5695 -0.3451
  630THF    H10 9627   2.633   3.985   0.360 -1.2520  0.9465  3.3405
  630THF    H11 9628   2.598   4.142   0.302 -1.1543 -2.0697 -0.3232
  630THF    H12 9629   2.650   4.252   0.510  0.9449  1.2032 -2.5478
  630THF    H13 9630   2.665   4.098   0.585  1.8890  1.1484  0.5603
  631THF     O1 9631   3.074   3.540   3.783  0.3230 -0.3845  0.0137
  631THF     C2 9632   2.968   3.452   3.815 -0.0390 -0.5034  0.4392
  631THF     C3 9633   3.193   3.466   3.818 -0.0785 -0.0933 -0.4767
  631THF     H4 9634   2.956   3.381   3.733  0.0345  0.9273 -0.8373
  631THF     H5 9635   2.873   3.502   3.833 -1.1254 -1.8613 -1.2370
  631THF     H6 9636   3.199   3.387   3.744 -0.3326  1.3215 -2.0612
  631THF     H7 9637   3.284   3.525   3.818  2.0745 -3.1563  0.8469
  631THF     C8 9638   3.159   3.414   3.958 -0.4090 -0.5918 -0.5113
  631THF     C9 9639   3.016   3.361   3.930 -1.1714 -0.1002 -0.7744
  631THF    H10 9640   3.158   3.506   4.017 -0.6960 -0.8006 -0.1821
  631THF    H11 9641   3.224   3.337   3.999 -0.7681 -1.1023 -0.8842
  631THF    H12 9642   3.019   3.256   3.898 -0.9324 -1.1218  2.2806
  631THF    H13 9643   2.959   3.359   4.023  0.1030 -2.1306  0.0325
  632THF     O1 9644   4.991   0.708   1.602  0.7765 -0.7568 -0.3454
  632THF     C2 9645   4.985   0.672   1.744  0.5184 -0.6882  0.5009
  632THF     C3 9646   4.981   0.849   1.592  0.5335 -0.3337 -0.2925
  632THF     H4 9647   5.021   0.569   1.756  0.3076 -0.7924  0.2531
  632THF     H5 9648   4.887   0.685   1.788  0.9289 -0.1368  1.2782
  632THF     H6 9649   5.030   0.884   1.502  3.4121  0.0645  1.3020
  632THF     H7 9650   4.878   0.883   1.596  0.6297  0.0705 -1.1811
  632THF     C8 9651   5.055   0.898   1.722 -0.5789  0.2788 -0.0145
  632THF     C9 9652   5.074   0.772   1.809 -0.0191 -0.1578  0.2056
  632THF    H10 9653   4.998   0.971   1.779 -2.2425 -0.7641 -0.2823
  632THF    H11 9654   5.155   0.939   1.707 -1.1522  1.7421  0.0540
  632THF    H12 9655   5.175   0.735   1.796 -0.1806 -1.4037  2.0931
  632THF    H13 9656   5.051   0.790   1.914  2.2506 -1.7477  1.0369
  633THF     O1 9657   5.415   5.073   3.343 -0.1941  0.3414  0.5935
  633THF     C2 9658   5.540   5.092   3.272  0.6906  0.4154 -0.3924
  633THF     C3 9659   5.458   5.025   3.470 -0.0991  0.5019  0.4025
  633THF     H4 9660   5.586   5.183   3.311 -0.4790  0.0542  1.9681
  633THF     H5 9661   5.518   5.109   3.166 -2.9965  0.3753  0.2403
  633THF     H6 9662   5.511   5.107   3.517 -0.4044  2.3728 -2.2747
  633THF     H7 9663   5.369   4.994   3.526  0.5138 -0.4846  0.8449
  633THF     C8 9664   5.550   4.912   3.427 -0.0924  0.1182 -0.3298
  633THF     C9 9665   5.625   4.964   3.307  0.1709 -0.3660 -0.5428
  633THF    H10 9666   5.496   4.819   3.406  2.0397 -0.7316 -2.4837
  633THF    H11 9667   5.614   4.886   3.511  0.2246 -1.8096 -1.1234
  633THF    H12 9668   5.721   5.000   3.345 -1.3715  4.6319 -0.6284
  633THF    H13 9669   5.642   4.897   3.222 -1.1369 -0.2848 -0.8974
  634THF     O1 9670   4.525   4.728   4.888 -0.4377  0.0031  0.4100
  634THF     C2 9671   4.633   4.814   4.846  0.3007  0.4612 -0.0639
  634THF     C3 9672   4.406   4.807   4.895 -0.3882 -0.1449  0.2291
  634THF     H4 9673   4.694   4.759   4.775 -1.0116  0.3303 -1.1287
  634THF     H5 9674   4.688   4.839   4.937  1.3580 -0.6111 -0.3943
  634THF     H6 9675   4.334   4.776   4.820 -0.6577  0.6878  0.1344
  634THF     H7 9676   4.364   4.803   4.996  0.7842  1.5139  0.8205
  634THF     C8 9677   4.462   4.950   4.886  0.2203  1.0165  0.4189
  634THF     C9 9678   4.572   4.939   4.792  0.2011 -0.2425  0.2822
  634THF    H10 9679   4.507   4.982   4.980  2.2802  0.4889 -0.3507
  634THF    H11 9680   4.388   5.026   4.862 -0.0890 -0.2195 -2.9976
  634THF    H12 9681   4.529   4.912   4.696 -0.2890  0.6574  0.2426
  634THF    H13 9682   4.646   5.019   4.789  0.9039 -0.9172 -1.1062
  635THF     O1 9683   4.913   1.742   3.757  0.1290 -0.3126 -0.1908
  635THF     C2 9684   4.871   1.659   3.865 -0.7160 -0.5707  0.4970
  635THF     C3 9685   4.816   1.847   3.748  0.2975  0.0572 -0.0615
  635THF     H4 9686   4.903   1.703   3.960 -1.4571  1.5654 -0.1776
  635THF     H5 9687   4.915   1.560   3.878  0.9848 -0.2617 -2.1733
  635THF     H6 9688   4.842   1.918   3.826  0.3192 -0.9966  0.9031
  635THF     H7 9689   4.822   1.906   3.656  0.4117 -0.0082 -0.0962
  635THF     C8 9690   4.685   1.787   3.787  0.6781 -0.1441  0.2362
  635THF     C9 9691   4.720   1.654   3.853  1.1401  0.3076 -0.6215
  635THF    H10 9692   4.627   1.768   3.697  0.4945 -0.5937  0.4480
  635THF    H11 9693   4.637   1.869   3.841  0.9623  0.8414 -0.9629
  635THF    H12 9694   4.680   1.634   3.952  0.5956 -0.1694 -0.9345
  635THF    H13 9695   4.707   1.562   3.797  0.0007  1.3305 -2.1115
  636THF     O1 9696   5.212   5.254   2.473  0.6700  0.0319 -0.1822
  636THF     C2 9697   5.151   5.317   2.369  0.1852 -0.0294 -1.4909
  636THF     C3 9698   5.344   5.226   2.438 -0.3149  0.2817  0.1412
  636THF     H4 9699   5.179   5.419   2.343  0.8609 -0.5779 -3.0156
  636THF     H5 9700   5.046   5.326   2.396  0.2666 -2.9304  0.1501
  636THF     H6 9701   5.408   5.314   2.443 -1.2544  1.0251 -0.5953
  636THF     H7 9702   5.372   5.139   2.497 -3.2691 -1.7804 -1.2408
  636THF     C8 9703   5.329   5.182   2.297 -0.5293 -0.2978 -0.1253
  636THF     C9 9704   5.192   5.223   2.252 -0.0317 -0.1804 -0.8878
  636THF    H10 9705   5.335   5.073   2.303  0.8150 -0.2596 -0.5669
  636THF    H11 9706   5.415   5.222   2.244 -0.5298  0.2913  0.3082
  636THF    H12 9707   5.192   5.289   2.166 -0.2194 -0.0899 -0.8194
  636THF    H13 9708   5.127   5.136   2.242 -1.2440  0.7095 -1.0194
  637THF     O1 9709   3.478   0.459   3.690  0.2820 -0.5955 -0.3335
  637THF     C2 9710   3.529   0.378   3.588  0.6079  0.4108 -0.3037
  637THF     C3 9711   3.373   0.396   3.766 -0.3728 -0.0613  0.1249
  637THF     H4 9712   3.604   0.311   3.630 -0.4636 -1.2073 -0.8915
  637THF     H5 9713   3.564   0.433   3.501  0.3330  2.2178  0.6858
  637THF     H6 9714   3.412   0.315   3.829  0.3483 -1.0038 -1.4503
  637THF     H7 9715   3.326   0.476   3.822 -1.1178  0.0491 -0.6449
  637THF     C8 9716   3.298   0.337   3.653  0.5922 -0.7926 -0.3499
  637THF     C9 9717   3.408   0.278   3.565  0.1031  0.5643 -0.4251
  637THF    H10 9718   3.248   0.423   3.609 -0.4709 -0.9622  0.4982
  637THF    H11 9719   3.226   0.263   3.689 -0.6021  2.0388  3.7717
  637THF    H12 9720   3.436   0.179   3.601  1.7123  0.8202 -0.8936
  637THF    H13 9721   3.391   0.281   3.457 -0.0023 -1.4944 -0.5164
  638THF     O1 9722   4.362   2.743   1.659 -0.2237 -0.3388  0.5089
  638THF     C2 9723   4.252   2.807   1.736 -0.3209  0.0726  0.0626
  638THF     C3 9724   4.388   2.824   1.550  0.3614 -0.0364 -0.1020
  638THF     H4 9725   4.298   2.881   1.801  2.4627 -0.2069 -1.4356
  638THF     H5 9726   4.209   2.723   1.791 -1.2037  0.9945  0.8062
  638THF     H6 9727   4.459   2.899   1.585  0.7139  0.3563 -1.5954
  638THF     H7 9728   4.441   2.773   1.469  0.5292  1.9518 -1.3183
  638THF     C8 9729   4.252   2.882   1.505 -0.2468  0.2669 -0.7912
  638THF     C9 9730   4.161   2.872   1.628  0.3740  0.0328 -0.3025
  638THF    H10 9731   4.212   2.824   1.423 -1.9795  0.1522  0.0971
  638THF    H11 9732   4.280   2.983   1.475  0.6722  0.0172 -0.8178
  638THF    H12 9733   4.118   2.966   1.662 -0.5407 -1.1438  1.9718
  638THF    H13 9734   4.086   2.798   1.603 -0.1293  0.2720  0.4534
  639THF     O1 9735   2.587   1.116   2.447  0.0015  0.2890 -0.2199
  639THF     C2 9736   2.715   1.176   2.431  0.1470  0.7930 -0.2602
  639THF     C3 9737   2.536   1.095   2.311  0.4148 -0.0997 -0.0995
  639THF     H4 9738   2.792   1.103   2.407 -1.4562 -0.4827 -1.8226
  639THF     H5 9739   2.746   1.219   2.527  1.4358  0.5790 -0.5656
  639THF     H6 9740   2.605   1.029   2.257  0.0904 -0.1918 -0.4039
  639THF     H7 9741   2.431   1.067   2.302  0.1699  0.8282 -0.2868
  639THF     C8 9742   2.569   1.226   2.244 -0.0344  1.2877  0.2498
  639THF     C9 9743   2.691   1.278   2.325  0.4656  0.2285 -0.0117
  639THF    H10 9744   2.477   1.284   2.246 -0.5213  0.5025  1.7441
  639THF    H11 9745   2.596   1.200   2.142  1.7574 -1.0296  1.2124
  639THF    H12 9746   2.783   1.293   2.269  0.6521 -2.0760 -0.4157
  639THF    H13 9747   2.658   1.372   2.370 -3.2866  0.4007 -2.6938
  640THF     O1 9748   1.758   0.915   3.917  0.4819  0.2749 -0.1590
  640THF     C2 9749   1.836   1.028   3.887 -0.2785  0.3066  0.1970
  640THF     C3 9750   1.644   0.952   4.002 -0.5762  0.0044  0.9821
  640THF     H4 9751   1.813   1.067   3.788 -1.5374  1.8658  1.0428
  640THF     H5 9752   1.943   1.012   3.888 -0.1908  0.7256  2.1279
  640THF     H6 9753   1.551   0.947   3.945 -1.1467 -0.1355  1.8956
  640THF     H7 9754   1.650   0.884   4.087 -0.3542  0.0561  1.0078
  640THF     C8 9755   1.672   1.095   4.036 -0.3832 -0.7768 -0.8334
  640THF     C9 9756   1.820   1.123   4.004 -0.2514 -1.0276 -0.2038
  640THF    H10 9757   1.672   1.111   4.144  3.2953  0.6221 -0.8915
  640THF    H11 9758   1.599   1.167   4.000 -0.9365 -1.0385 -0.2574
  640THF    H12 9759   1.860   1.222   3.985 -0.3230 -1.2631 -1.7673
  640THF    H13 9760   1.875   1.088   4.091  0.9942 -0.5469 -0.7777
  641THF     O1 9761   2.201   0.123   3.590  0.5471  0.5328 -0.5920
  641THF     C2 9762   2.269   0.229   3.530 -0.0078 -0.3502 -1.0704
  641THF     C3 9763   2.156   0.035   3.489 -0.2692 -0.6454 -0.6417
  641THF     H4 9764   2.372   0.214   3.496  0.1912 -0.9088 -0.2624
  641THF     H5 9765   2.264   0.314   3.598 -0.3735  0.0571 -1.6062
  641THF     H6 9766   2.240   0.015   3.422  0.5076 -0.3130  0.2125
  641THF     H7 9767   2.101  -0.046   3.536 -0.3333  0.3086  1.0124
  641THF     C8 9768   2.077   0.144   3.415  0.3009 -0.1370 -0.6433
  641THF     C9 9769   2.175   0.269   3.417  0.0175 -0.0483 -0.0018
  641THF    H10 9770   1.988   0.168   3.473  0.3304 -0.6520 -0.3846
  641THF    H11 9771   2.045   0.123   3.313  0.4552  3.7312 -1.6722
  641THF    H12 9772   2.238   0.273   3.328 -1.5047 -1.2245 -1.2066
  641THF    H13 9773   2.126   0.365   3.432  1.2400  0.4426  0.9568
  642THF     O1 9774   4.104   3.282   3.755  0.0993  0.0736  0.0491
  642THF     C2 9775   4.149   3.164   3.688  0.4672  0.6328  0.3538
  642THF     C3 9776   4.131   3.391   3.668  0.0587  0.1248  0.2019
  642THF     H4 9777   4.093   3.079   3.727  0.5483  1.2863  1.9881
  642THF     H5 9778   4.254   3.151   3.714  0.2737 -0.8616  0.5015
  642THF     H6 9779   4.068   3.473   3.704 -0.4765  0.4221 -1.3022
  642THF     H7 9780   4.237   3.412   3.678 -0.1574  1.8339 -0.6887
  642THF     C8 9781   4.086   3.346   3.534  0.1693  0.2672  0.1949
  642THF     C9 9782   4.125   3.200   3.536 -0.9214 -0.6165 -0.2748
  642THF    H10 9783   4.138   3.397   3.453  0.7398 -0.1041  0.3189
  642THF    H11 9784   3.979   3.353   3.514  0.4350 -0.9767 -1.9214
  642THF    H12 9785   4.054   3.133   3.488 -1.1760 -0.4536 -0.1301
  642THF    H13 9786   4.223   3.188   3.490 -0.0705 -2.8430  1.8842
  643THF     O1 9787   2.692   1.502   5.084  0.7600  0.4755 -0.0930
  643THF     C2 9788   2.720   1.480   5.224  0.1863  0.3510  0.5097
  643THF     C3 9789   2.704   1.370   5.025  1.0667  0.8174  0.2173
  643THF     H4 9790   2.688   1.557   5.294  1.1001 -0.1925  1.5617
  643THF     H5 9791   2.828   1.496   5.232  0.2475  0.8904 -0.9737
  643THF     H6 9792   2.689   1.359   4.918  3.6074 -1.8003 -0.0079
  643THF     H7 9793   2.807   1.336   5.026  0.7296 -0.5407 -2.1879
  643THF     C8 9794   2.630   1.280   5.116  0.3802  0.1224  0.3738
  643THF     C9 9795   2.672   1.330   5.255  0.3154 -0.0974 -0.4232
  643THF    H10 9796   2.646   1.173   5.105 -2.5105 -0.5907  1.9189
  643THF    H11 9797   2.523   1.299   5.110  0.1100 -0.5933  2.1404
  643THF    H12 9798   2.578   1.328   5.311  0.6484 -0.2775  0.1282
  643THF    H13 9799   2.740   1.278   5.322 -0.2557 -0.3771 -0.0497
  644THF     O1 9800   2.125   0.621   4.013 -0.1712  0.1148 -0.2974
  644THF     C2 9801   2.028   0.728   4.021 -0.1411  0.1057 -0.2672
  644THF     C3 9802   2.252   0.673   4.000 -0.7697  0.0422  1.3602
  644THF     H4 9803   1.973   0.712   4.114  2.4548 -0.2781  1.2898
  644THF     H5 9804   1.958   0.735   3.937  0.3493  1.8218 -0.5777
  644THF     H6 9805   2.311   0.612   4.069  0.4790  0.9834  1.1521
  644THF     H7 9806   2.283   0.677   3.896 -0.3640  0.6385  1.4985
  644THF     C8 9807   2.243   0.808   4.074 -0.2666  0.7501  0.3336
  644THF     C9 9808   2.110   0.851   4.031  0.4059  0.5632  0.1386
  644THF    H10 9809   2.319   0.882   4.048  0.4097 -0.4149 -1.1579
  644THF    H11 9810   2.218   0.794   4.179  1.7986  0.9201  0.8824
  644THF    H12 9811   2.065   0.925   4.097  1.1019  1.4375 -0.3402
  644THF    H13 9812   2.114   0.898   3.933 -1.2307  2.1812  0.7891
  645THF     O1 9813   2.278   4.808   2.436 -0.0928 -0.1580  0.3763
  645THF     C2 9814   2.420   4.791   2.445  0.4740 -0.4020  0.2401
  645THF     C3 9815   2.231   4.890   2.540 -0.2353 -0.8531 -0.0812
  645THF     H4 9816   2.461   4.879   2.395 -0.6236 -0.1552 -0.2586
  645THF     H5 9817   2.450   4.700   2.394  1.3879  0.6937 -1.2844
  645THF     H6 9818   2.221   4.992   2.502  1.7532 -1.4150 -2.3660
  645THF     H7 9819   2.136   4.861   2.584  1.2192 -1.0302  3.2278
  645THF     C8 9820   2.341   4.886   2.651 -0.1939  0.2118  0.0957
  645THF     C9 9821   2.452   4.800   2.595  0.3364 -0.5069  0.4388
  645THF    H10 9822   2.307   4.837   2.743 -0.9947  1.2867  0.3879
  645THF    H11 9823   2.378   4.988   2.657  0.6253  0.0275 -1.4359
  645THF    H12 9824   2.544   4.857   2.609  1.1948 -0.5760 -3.6176
  645THF    H13 9825   2.471   4.706   2.648  2.1823 -0.3605  0.1200
  646THF     O1 9826   5.230   2.067   2.409  0.0367  0.4944  1.2908
  646THF     C2 9827   5.260   2.017   2.279 -0.4187  0.0080  0.4968
  646THF     C3 9828   5.279   2.203   2.408  0.0989  0.5573 -0.0699
  646THF     H4 9829   5.197   2.077   2.214 -1.7449 -1.1660  0.6413
  646THF     H5 9830   5.252   1.909   2.265 -0.8226 -0.2417  2.4174
  646THF     H6 9831   5.215   2.276   2.359 -0.8911  0.2696  0.7539
  646THF     H7 9832   5.297   2.239   2.509  0.9012  1.4953 -0.5288
  646THF     C8 9833   5.419   2.191   2.342 -0.2091 -0.3656 -0.3125
  646THF     C9 9834   5.403   2.061   2.258 -0.2560 -1.1131 -0.3083
  646THF    H10 9835   5.492   2.189   2.422 -1.1989 -1.5569  0.6063
  646THF    H11 9836   5.438   2.278   2.278  3.2302 -0.7783 -0.0313
  646THF    H12 9837   5.429   2.082   2.154  0.9134  2.5781  0.5532
  646THF    H13 9838   5.452   1.972   2.298  0.1663 -0.9456 -0.4521
  647THF     O1 9839   1.418   4.772   3.787  0.1380  0.2673  0.5012
  647THF     C2 9840   1.303   4.674   3.772 -0.6108  0.2025  0.6066
  647THF     C3 9841   1.522   4.739   3.685 -0.1267  0.1111  0.0077
  647THF     H4 9842   1.212   4.729   3.794  1.0349  2.9254  1.1456
  647THF     H5 9843   1.310   4.584   3.832 -1.5076 -0.4148 -0.1853
  647THF     H6 9844   1.587   4.822   3.660 -0.6293  0.2139 -0.9737
  647THF     H7 9845   1.596   4.665   3.715  1.7708  1.2141 -1.7016
  647THF     C8 9846   1.446   4.706   3.561 -0.0080  0.1294  0.1581
  647THF     C9 9847   1.323   4.632   3.622 -0.2437  0.5547  0.3022
  647THF    H10 9848   1.496   4.653   3.481  0.2188  1.3729 -0.5496
  647THF    H11 9849   1.413   4.800   3.516 -0.9966 -0.3303 -0.0885
  647THF    H12 9850   1.235   4.634   3.557  0.8554  1.2353 -1.2263
  647THF    H13 9851   1.349   4.526   3.622 -3.0197 -0.2134  1.4033
  648THF     O1 9852   1.037   1.352   0.953 -0.3947 -0.1339  0.3569
  648THF     C2 9853   0.991   1.482   0.998 -0.4741 -0.3997  0.0290
  648THF     C3 9854   0.937   1.262   0.984 -0.1250  0.6958  0.5042
  648THF     H4 9855   1.044   1.567   0.956  0.2724 -1.5345 -1.4590
  648THF     H5 9856   1.007   1.494   1.105 -1.0491  0.4711  0.0231
  648THF     H6 9857   0.947   1.173   0.922 -0.7899 -1.4462  3.2585
  648THF     H7 9858   0.952   1.228   1.087  0.8547  2.3155  0.9485
  648THF     C8 9859   0.809   1.335   0.956  0.6711  0.5974  0.0564
  648THF     C9 9860   0.846   1.479   0.966  0.3517 -0.2487  0.2147
  648THF    H10 9861   0.735   1.304   1.030  2.5790 -1.5379  1.2227
  648THF    H11 9862   0.781   1.310   0.854  2.4974 -1.1285 -0.0889
  648THF    H12 9863   0.818   1.518   0.868  0.0186  0.9441  0.7637
  648THF    H13 9864   0.784   1.536   1.036  1.6773  2.3117 -0.5623
  649THF     O1 9865   0.223   3.311   0.987  0.6520  0.1900 -0.0460
  649THF     C2 9866   0.361   3.268   0.992  0.0869  0.0469  0.1457
  649THF     C3 9867   0.178   3.264   0.855 -0.4036 -0.1675  0.4864
  649THF     H4 9868   0.358   3.165   1.029 -0.2210  0.0774  0.2081
  649THF     H5 9869   0.407   3.330   1.068 -0.6769 -0.0690  0.7136
  649THF     H6 9870   0.147   3.159   0.849 -0.5471 -0.1583  1.0473
  649THF     H7 9871   0.098   3.323   0.810  1.5494  1.1740 -1.4178
  649THF     C8 9872   0.297   3.276   0.757 -0.0304  0.6853 -1.0560
  649THF     C9 9873   0.426   3.282   0.844 -0.5648  0.8499 -0.0890
  649THF    H10 9874   0.287   3.350   0.678 -4.0429 -0.4699 -1.8531
  649THF    H11 9875   0.299   3.183   0.702 -1.2720  0.6119 -1.0049
  649THF    H12 9876   0.500   3.211   0.808  0.7666  1.4466  1.3477
  649THF    H13 9877   0.478   3.376   0.821  1.6021 -0.0768  0.7326
  650THF     O1 9878   0.383   1.120   5.302 -0.9370  0.3146 -0.0483
  650THF     C2 9879   0.279   1.187   5.238  0.1055  0.4889 -0.1255
  650THF     C3 9880   0.503   1.140   5.223 -0.4100  0.3527 -0.9043
  650THF     H4 9881   0.236   1.265   5.301 -2.0607 -1.6767  1.2394
  650THF     H5 9882   0.201   1.112   5.229 -0.5082  0.7042  2.5878
  650THF     H6 9883   0.549   1.238   5.239  1.5301 -0.3368 -2.0343
  650THF     H7 9884   0.580   1.066   5.239 -1.3630 -0.1572  1.8816
  650THF     C8 9885   0.446   1.139   5.083  0.2050  0.1926  0.5437
  650THF     C9 9886   0.323   1.224   5.103  0.1473 -0.0449 -0.3999
  650THF    H10 9887   0.427   1.041   5.041 -0.2969  0.0962  0.9864
  650THF    H11 9888   0.515   1.191   5.016  0.1268  0.4796  0.6822
  650THF    H12 9889   0.357   1.327   5.094  1.9575 -0.6854 -1.3468
  650THF    H13 9890   0.259   1.207   5.016  2.0412 -0.7645 -1.7095
  651THF     O1 9891   0.438   2.028   0.724 -0.8145  0.8212 -0.7946
  651THF     C2 9892   0.546   1.945   0.698 -0.1774  0.1045  0.3155
  651THF     C3 9893   0.335   2.009   0.630  0.3386 -0.0804  0.5139
  651THF     H4 9894   0.569   1.875   0.778 -1.1686  0.1718  0.6749
  651THF     H5 9895   0.627   2.016   0.677 -1.3570  1.2014 -0.6803
  651THF     H6 9896   0.269   1.933   0.671 -0.3191 -0.6040 -1.4225
  651THF     H7 9897   0.296   2.107   0.606  2.1774  0.3876 -0.8167
  651THF     C8 9898   0.400   1.946   0.500 -0.5507  0.2278  0.0152
  651THF     C9 9899   0.511   1.869   0.566  0.2716  0.1079  0.6733
  651THF    H10 9900   0.441   2.026   0.438 -0.7847  0.3003 -0.0482
  651THF    H11 9901   0.342   1.883   0.432  0.5503 -0.1966 -0.5517
  651THF    H12 9902   0.460   1.775   0.587 -0.2238  0.4351  0.9679
  651THF    H13 9903   0.588   1.859   0.490  0.1796  1.2250  0.4184
  652THF     O1 9904   2.690   0.867   1.991  0.3489  0.6396 -0.6748
  652THF     C2 9905   2.826   0.896   1.964  0.0334 -1.0635 -0.4237
  652THF     C3 9906   2.674   0.786   2.106  0.1934  0.2409 -0.1622
  652THF     H4 9907   2.845   0.981   2.030 -1.5936 -0.3081 -0.8848
  652THF     H5 9908   2.858   0.929   1.865  3.0631 -1.3612  0.3581
  652THF     H6 9909   2.668   0.844   2.199  1.8033  0.4775 -0.1810
  652THF     H7 9910   2.581   0.731   2.095 -0.9552  2.1341 -0.4636
  652THF     C8 9911   2.799   0.701   2.110  0.4665  0.1741 -0.2191
  652THF     C9 9912   2.897   0.777   2.019 -0.5506  0.0946 -0.1377
  652THF    H10 9913   2.777   0.597   2.085 -0.9681 -0.4804  3.1671
  652THF    H11 9914   2.837   0.706   2.212  1.2939  2.7029 -0.5799
  652THF    H12 9915   2.981   0.818   2.076 -0.3578  0.5472 -0.7367
  652THF    H13 9916   2.933   0.709   1.942  2.5167  0.9674  0.4054
  653THF     O1 9917   0.930   2.812   4.441 -0.0654  0.3885 -0.1636
  653THF     C2 9918   0.953   2.723   4.557 -0.3793  0.1739 -0.1735
  653THF     C3 9919   1.023   2.780   4.338  0.5842  0.2917 -0.3959
  653THF     H4 9920   0.860   2.669   4.572 -0.5194  0.6797  0.8857
  653THF     H5 9921   0.993   2.778   4.642 -0.6010 -0.8073  0.5757
  653THF     H6 9922   0.959   2.722   4.271  0.6808  0.3212 -0.5148
  653THF     H7 9923   1.063   2.856   4.272  1.4603 -0.5803 -0.8930
  653THF     C8 9924   1.134   2.690   4.396  0.2066  0.6753  0.1952
  653THF     C9 9925   1.061   2.620   4.505  0.2811  0.6348  0.2322
  653THF    H10 9926   1.207   2.756   4.442  0.3211  0.0090  1.0050
  653THF    H11 9927   1.182   2.617   4.330 -2.1357 -1.4490  0.6901
  653THF    H12 9928   1.012   2.537   4.453  0.6616  0.8664 -0.5159
  653THF    H13 9929   1.119   2.589   4.592 -2.2572  1.3492  2.3003
  654THF     O1 9930   5.001   5.045   1.506  0.0480 -0.6898 -0.0713
  654THF     C2 9931   4.972   5.159   1.419  0.2682  0.1353  0.0072
  654THF     C3 9932   5.136   5.005   1.477  0.0002 -0.0830  0.1014
  654THF     H4 9933   4.932   5.238   1.483  0.9475 -0.5020  1.2585
  654THF     H5 9934   4.910   5.107   1.345  0.0211 -0.9754  0.9682
  654THF     H6 9935   5.194   5.052   1.557 -0.8794  2.0653 -0.4565
  654THF     H7 9936   5.142   4.897   1.466  2.6442 -0.0398  0.5249
  654THF     C8 9937   5.182   5.073   1.352  0.1995 -0.4957  0.0705
  654THF     C9 9938   5.100   5.200   1.344 -0.1986  0.0095  0.0212
  654THF    H10 9939   5.148   5.010   1.270 -1.2430  0.4470 -0.0954
  654THF    H11 9940   5.291   5.080   1.345  0.3309 -1.9029  0.4558
  654THF    H12 9941   5.139   5.287   1.396 -2.4673  1.7299 -0.9391
  654THF    H13 9942   5.074   5.240   1.246 -2.6437  0.0773  0.6202
  655THF     O1 9943   2.877   4.208   3.927  0.4471 -0.0115 -0.2816
  655THF     C2 9944   2.754   4.209   3.861  0.1439 -0.2412  0.4668
  655THF     C3 9945   2.953   4.095   3.901  0.3372 -0.9949  0.4469
  655THF     H4 9946   2.755   4.303   3.806  1.8934  0.2248  1.2175
  655THF     H5 9947   2.671   4.227   3.930 -0.4359  1.4073 -0.5814
  655THF     H6 9948   3.013   4.105   3.811  1.8669 -1.7295  1.3407
  655THF     H7 9949   3.022   4.063   3.979  0.6511 -1.3318  0.0387
  655THF     C8 9950   2.852   3.993   3.867  0.0080  0.3263  0.2098
  655THF     C9 9951   2.743   4.074   3.796  0.2333  0.0828 -0.1227
  655THF    H10 9952   2.805   3.957   3.959  1.2558  0.6851  1.0123
  655THF    H11 9953   2.885   3.905   3.812 -3.2677 -0.6647 -0.4160
  655THF    H12 9954   2.757   4.085   3.688  0.8567 -2.2804 -0.3400
  655THF    H13 9955   2.652   4.018   3.818  0.6990 -0.5111  0.3047
  656THF     O1 9956   4.283   3.748   1.451 -0.2056  0.1725  0.2654
  656THF     C2 9957   4.358   3.629   1.413 -0.0649  0.0697  0.4272
  656THF     C3 9958   4.268   3.751   1.591  0.2354  0.1666  0.4120
  656THF     H4 9959   4.407   3.661   1.321  0.3097  0.1613  0.6555
  656THF     H5 9960   4.298   3.540   1.391 -2.0182  1.2802  0.5823
  656THF     H6 9961   4.307   3.842   1.636  0.7892  0.2699 -0.2684
  656THF     H7 9962   4.161   3.745   1.613  0.0179  0.9002 -0.3737
  656THF     C8 9963   4.347   3.641   1.647  0.1021  0.9400  0.4223
  656THF     C9 9964   4.446   3.606   1.539 -0.1534  0.4583  0.3753
  656THF    H10 9965   4.272   3.562   1.654  0.6136  0.4354  0.3464
  656THF    H11 9966   4.390   3.659   1.746 -1.4845 -1.6125  1.6756
  656THF    H12 9967   4.518   3.687   1.545 -0.1212  0.3972  0.9497
  656THF    H13 9968   4.482   3.504   1.556  1.6294  0.9603 -0.2160
  657THF     O1 9969   2.844   3.603   0.111  0.6867  0.0319  0.5836
  657THF     C2 9970   2.927   3.678   0.035 -0.3847  0.2757 -0.6173
  657THF     C3 9971   2.926   3.527   0.207  0.4774  0.3554  0.4421
  657THF     H4 9972   2.872   3.757  -0.016  2.6687  1.2982 -2.5857
  657THF     H5 9973   2.986   3.624  -0.039 -1.6083  0.5176 -1.8097
  657THF     H6 9974   2.867   3.502   0.296 -0.1239  1.2643  0.3187
  657THF     H7 9975   2.947   3.430   0.161 -0.6623 -0.0767  0.7689
  657THF     C8 9976   3.050   3.621   0.215 -0.3892 -0.0070  0.1494
  657THF     C9 9977   3.036   3.737   0.117 -0.2113 -0.4066 -0.5900
  657THF    H10 9978   3.145   3.573   0.190  0.1000  1.4078 -0.8290
  657THF    H11 9979   3.062   3.658   0.317  2.1424  1.4215 -0.5844
  657THF    H12 9980   3.003   3.831   0.161  0.9576  0.4172 -1.4074
  657THF    H13 9981   3.121   3.757   0.053 -1.0576 -0.4198 -1.7493
  658THF     O1 9982   3.519   4.601   2.328 -0.0635 -0.0966 -0.2535
  658THF     C2 9983   3.475   4.543   2.206  0.8814 -0.1373 -0.8086
  658THF     C3 9984   3.400   4.600   2.421  0.3428 -0.6268  0.7006
  658THF     H4 9985   3.478   4.434   2.205 -2.7305 -0.4357  1.5129
  658THF     H5 9986   3.528   4.593   2.125  2.0538  0.1263  0.1058
  658THF     H6 9987   3.410   4.529   2.503  0.5870 -0.3417  0.9228
  658THF     H7 9988   3.375   4.700   2.457  0.4129 -0.5919  0.6512
  658THF     C8 9989   3.277   4.558   2.337  0.5054 -0.3719  0.0706
  658THF     C9 9990   3.321   4.579   2.196 -0.4211 -1.1484  0.0737
  658THF    H10 9991   3.188   4.618   2.356  1.5632  0.9557  1.0006
  658THF    H11 9992   3.254   4.452   2.345 -0.4458 -0.2455 -0.7480
  658THF    H12 9993   3.276   4.511   2.124  1.3088 -2.1966 -0.0824
  658THF    H13 9994   3.304   4.684   2.173 -2.5324 -1.0970  1.5430
  659THF     O1 9995   3.062   1.518   2.151 -0.7232 -0.6682  0.3136
  659THF     C2 9996   2.917   1.507   2.142  0.4506  0.0663  0.0856
  659THF     C3 9997   3.095   1.660   2.126 -1.4339  0.0131  0.0863
  659THF     H4 9998   2.871   1.507   2.240  0.1366  1.2669 -0.0452
  659THF     H5 9999   2.893   1.416   2.089 -1.1258 -1.3898  3.0760
  659THF     H610000   3.094   1.718   2.219  0.4602  2.4068 -1.2755
  659THF     H710001   3.194   1.679   2.086 -0.4537  0.6188  2.5788
  659THF     C810002   2.983   1.712   2.032 -0.3141 -0.2089  0.0552
  659THF     C910003   2.863   1.641   2.084 -0.2064 -0.2911  0.3163
  659THF    H1010004   3.005   1.683   1.929  2.3837 -1.1221  0.8031
  659THF    H1110005   2.976   1.820   2.044  0.6720  0.1301 -1.9620
  659THF    H1210006   2.825   1.705   2.165 -2.3324 -0.5871 -0.3800
  659THF    H1310007   2.783   1.628   2.011 -1.2960  2.2977  0.9351
  660THF     O110008   1.468   5.085   0.237  0.6182 -0.5596  0.3635
  660THF     C210009   1.396   5.205   0.254 -0.8695 -0.1475 -0.4170
  660THF     C310010   1.562   5.073   0.346  0.2740 -0.4988  0.0156
  660THF     H410011   1.306   5.188   0.313  0.4498 -1.0052  1.4413
  660THF     H510012   1.359   5.242   0.158  0.1285 -0.5297 -0.9696
  660THF     H610013   1.520   5.038   0.440  1.7597  2.0793  1.7610
  660THF     H710014   1.649   5.008   0.331 -0.3655 -1.0122 -1.6396
  660THF     C810015   1.616   5.219   0.355 -0.1463  0.0186 -0.7163
  660THF     C910016   1.495   5.304   0.330 -0.2690  0.0190 -0.8000
  660THF    H1010017   1.677   5.234   0.266 -2.5188 -0.6307 -2.5594
  660THF    H1110018   1.676   5.231   0.446 -0.3065 -1.7750 -0.3352
  660THF    H1210019   1.443   5.339   0.419  1.9596  1.7636 -0.0951
  660THF    H1310020   1.522   5.391   0.269  2.1092  0.4310  0.7022
  661THF     O110021   4.295   3.377   2.701  0.5030 -0.0398 -0.0051
  661THF     C210022   4.185   3.396   2.791  0.2265 -0.4705 -0.5031
  661THF     C310023   4.267   3.266   2.622 -0.0588  0.1058 -0.0961
  661THF     H410024   4.096   3.431   2.739  0.9612 -0.3282 -1.7290
  661THF     H510025   4.218   3.462   2.871  0.2797 -0.3129 -0.6533
  661THF     H610026   4.195   3.281   2.541 -1.9801 -0.5806  1.4113
  661THF     H710027   4.362   3.231   2.581  0.2646 -0.5647  1.1739
  661THF     C810028   4.219   3.169   2.733  0.0845  0.1172 -0.4179
  661THF     C910029   4.173   3.258   2.847  0.0930 -0.1708  0.3249
  661THF    H1010030   4.296   3.104   2.774 -1.0167 -0.4777  0.7552
  661THF    H1110031   4.136   3.111   2.693 -0.2750  0.1451  0.2805
  661THF    H1210032   4.071   3.249   2.886 -0.7778  1.3931 -1.4019
  661THF    H1310033   4.240   3.241   2.931  1.1648 -0.2292 -0.5207
  662THF     O110034   3.956   0.164   1.943 -0.3111 -0.4762  0.3623
  662THF     C210035   3.897   0.087   1.841  0.0297 -0.1353  0.7447
  662THF     C310036   3.998   0.288   1.879  0.7978 -0.1816  0.0056
  662THF     H410037   3.813   0.027   1.877 -1.4628  0.4379 -1.5651
  662THF     H510038   3.970   0.014   1.807 -0.6211 -0.6674  0.4622
  662THF     H610039   4.012   0.370   1.949 -0.7839 -0.3914  0.6131
  662THF     H710040   4.098   0.284   1.836  0.1445 -0.4416 -1.5627
  662THF     C810041   3.895   0.331   1.784  0.2866  0.8130  0.2795
  662THF     C910042   3.871   0.187   1.726 -0.1093 -0.0035 -0.1327
  662THF    H1010043   3.919   0.407   1.710  0.9585 -0.1113 -0.4735
  662THF    H1110044   3.811   0.368   1.843 -0.8381  1.1648 -1.4618
  662THF    H1210045   3.771   0.181   1.684  0.2087  0.3151 -0.9612
  662THF    H1310046   3.939   0.167   1.643 -1.0627 -2.0276 -0.4990
  663THF     O110047   0.685   3.753   5.279  0.1879  0.0145 -0.6473
  663THF     C210048   0.792   3.725   5.361 -0.6071 -0.1298  0.2798
  663THF     C310049   0.725   3.837   5.179 -0.4253 -0.5748 -0.4557
  663THF     H410050   0.869   3.665   5.311 -0.7965  0.1838 -0.4008
  663THF     H510051   0.773   3.684   5.460 -0.2139 -0.4459  0.2276
  663THF     H610052   0.759   3.772   5.099  1.1995  0.2803 -0.4883
  663THF     H710053   0.636   3.892   5.147 -0.4673 -0.2746  0.1741
  663THF     C810054   0.835   3.923   5.244  0.3724  0.0133  0.3989
  663THF     C910055   0.861   3.861   5.373  0.1836 -0.2000  0.2932
  663THF    H1010056   0.807   4.028   5.248  0.2426 -0.0337  0.8391
  663THF    H1110057   0.927   3.925   5.186  0.4972 -0.8361  0.5445
  663THF    H1210058   0.965   3.858   5.404  0.1993  1.8318  0.5940
  663THF    H1310059   0.796   3.917   5.440 -1.8315 -0.5966 -1.2192
  664THF     O110060   4.851   0.272   1.695  0.1245 -0.0296  0.2339
  664THF     C210061   4.988   0.281   1.662 -0.5505 -0.0890 -0.8766
  664THF     C310062   4.781   0.338   1.589  0.3353  0.2411 -0.7337
  664THF     H410063   5.035   0.183   1.652  2.2797  0.8910  1.3688
  664THF     H510064   5.045   0.333   1.739 -0.3568  0.9775 -1.7158
  664THF     H610065   4.681   0.294   1.587  1.2697 -2.1440  0.7633
  664THF     H710066   4.772   0.444   1.611 -1.4117 -0.1096  0.5358
  664THF     C810067   4.865   0.315   1.467  0.0445 -0.3609  0.2439
  664THF     C910068   5.004   0.340   1.519  0.7317  0.4764 -0.3804
  664THF    H1010069   4.826   0.371   1.382  0.9789 -0.8772 -0.5435
  664THF    H1110070   4.872   0.209   1.442  0.7932 -1.0402  3.0291
  664THF    H1210071   5.082   0.304   1.452  2.9722  2.5034  1.0173
  664THF    H1310072   5.036   0.444   1.518 -0.8657  0.9957 -0.6942
  665THF     O110073   0.863   0.053   4.534 -0.8266  0.0808 -0.1685
  665THF     C210074   0.998   0.092   4.502  0.2385  0.1077 -0.8927
  665THF     C310075   0.839  -0.082   4.486  0.2598  0.3724  0.6272
  665THF     H410076   1.044   0.173   4.557  1.5916 -1.6001  0.6329
  665THF     H510077   1.004   0.115   4.396  0.6574  1.7992 -0.5241
  665THF     H610078   0.759  -0.142   4.528 -0.6966 -0.4943 -2.2282
  665THF     H710079   0.806  -0.069   4.383 -2.2404 -1.2054  1.1585
  665THF     C810080   0.977  -0.153   4.490 -0.0344  0.7068  0.1071
  665THF     C910081   1.080  -0.039   4.523  0.2448 -0.0049 -0.2994
  665THF    H1010082   0.994  -0.185   4.387  0.0226 -0.9372  0.6091
  665THF    H1110083   0.984  -0.236   4.560  2.3515  0.4002 -0.3914
  665THF    H1210084   1.117  -0.037   4.625 -0.3699 -0.7017 -0.0564
  665THF    H1310085   1.172  -0.042   4.463  0.6812 -2.5733  0.3880
  666THF     O110086   5.263   4.839   2.524 -0.6388  0.1692  0.4226
  666THF     C210087   5.172   4.936   2.566 -0.4008 -0.1877  0.3092
  666THF     C310088   5.188   4.747   2.445 -0.7583 -0.1078 -0.0093
  666THF     H410089   5.116   4.987   2.487 -2.5861 -3.0412 -0.1544
  666THF     H510090   5.221   4.998   2.641  1.3722 -1.5025  0.3222
  666THF     H610091   5.175   4.788   2.345 -1.9365 -2.4126 -0.8702
  666THF     H710092   5.242   4.656   2.420 -1.7706 -1.0110  0.9680
  666THF     C810093   5.056   4.728   2.515 -0.1593  0.6383 -0.1422
  666THF     C910094   5.051   4.844   2.613  0.5395 -0.1860  0.3685
  666THF    H1010095   5.072   4.636   2.572  0.2435 -0.6390 -2.2226
  666THF    H1110096   4.970   4.733   2.449 -1.1161 -0.1113  0.9984
  666THF    H1210097   4.959   4.903   2.621 -0.0820 -1.2007  0.9534
  666THF    H1310098   5.077   4.817   2.716  0.5923  1.4337  0.8046
  667THF     O110099   0.405   4.080   2.129  0.3422  0.5401  0.2072
  667THF     C210100   0.540   4.102   2.166  0.0429  0.2461 -0.1827
  667THF     C310101   0.343   4.065   2.252  0.2644  0.4186 -0.5627
  667THF     H410102   0.601   4.139   2.083 -1.1201 -1.8814 -2.1056
  667THF     H510103   0.583   4.011   2.206 -0.6480 -0.5408 -1.1921
  667THF     H610104   0.235   4.077   2.244  0.1929  1.2331  1.0907
  667THF     H710105   0.375   3.970   2.294  0.0554  0.6263  0.0894
  667THF     C810106   0.401   4.173   2.343  0.1920 -0.3738  0.1067
  667THF     C910107   0.531   4.206   2.279 -0.4255 -0.0586  0.2184
  667THF    H1010108   0.406   4.127   2.442 -1.6669 -0.6598  0.1083
  667THF    H1110109   0.345   4.264   2.362  1.6345  0.5852 -0.1254
  667THF    H1210110   0.528   4.307   2.238 -0.9148  0.7885  2.2045
  667THF    H1310111   0.605   4.197   2.358 -0.0869 -2.0290 -0.2756
  668THF     O110112   2.165   2.004   0.976  0.0318 -0.8361  0.1659
  668THF     C210113   2.096   2.081   1.078  0.2088 -0.0302  0.0897
  668THF     C310114   2.158   1.867   1.008  0.1117  0.4845 -0.7511
  668THF     H410115   1.988   2.078   1.063  0.3063 -1.0546 -0.4585
  668THF     H510116   2.119   2.187   1.085 -0.7311  0.1213  1.3243
  668THF     H610117   2.068   1.830   0.957 -1.3972  2.4702  0.3105
  668THF     H710118   2.243   1.815   0.965  0.0816  0.1601 -0.4260
  668THF     C810119   2.153   1.858   1.165  0.1928  0.0127  0.7136
  668THF     C910120   2.122   2.005   1.208  0.4902  0.5790  0.3015
  668THF    H1010121   2.253   1.830   1.199  0.5004 -0.3247 -0.4600
  668THF    H1110122   2.079   1.783   1.190  1.0958 -0.8230  0.9450
  668THF    H1210123   2.046   2.003   1.285  0.6792 -1.8002  0.5275
  668THF    H1310124   2.219   2.043   1.238  0.5714  1.3865 -0.8959
  669THF     O110125   3.096   4.054   2.872  0.1310  0.2115  0.9150
  669THF     C210126   3.055   3.994   2.997  0.4532  0.0482 -0.7005
  669THF     C310127   3.057   3.966   2.768  0.3460 -0.1368  0.3169
  669THF     H410128   2.947   3.995   3.013  0.8603 -0.0401  2.9045
  669THF     H510129   3.106   4.042   3.080 -0.7853 -1.1546  0.8099
  669THF     H610130   2.952   3.990   2.749 -0.2848 -1.1886  2.2080
  669THF     H710131   3.126   3.976   2.684  1.7419  1.0638  1.5533
  669THF     C810132   3.064   3.830   2.831 -0.4499 -0.2726 -0.2438
  669THF     C910133   3.108   3.856   2.973 -0.6351  0.2676 -0.1954
  669THF    H1010134   3.127   3.762   2.773  1.1024 -0.0666  1.1365
  669THF    H1110135   2.964   3.787   2.836 -0.0478 -1.1664  0.4312
  669THF    H1210136   3.070   3.782   3.043  0.4051  0.3989  0.5227
  669THF    H1310137   3.216   3.846   2.983 -0.6115 -0.9694 -1.4302
  670THF     O110138   1.305   2.617   1.053  0.0879 -0.5406 -0.0299
  670THF     C210139   1.212   2.722   1.080  0.3688 -0.7909  0.7208
  670THF     C310140   1.237   2.495   1.030  0.2956 -0.4663  0.0742
  670THF     H410141   1.201   2.792   0.997 -0.7573 -1.8856 -0.0855
  670THF     H510142   1.244   2.784   1.163  2.7729 -0.9576  0.0091
  670THF     H610143   1.276   2.446   0.940 -0.8132  1.0469 -1.2869
  670THF     H710144   1.271   2.435   1.114  1.7622  0.0643 -0.1177
  670THF     C810145   1.088   2.531   1.013  0.6181  0.4144 -0.3952
  670THF     C910146   1.079   2.657   1.094 -0.0314  0.4898  0.1280
  670THF    H1010147   1.013   2.458   1.044  1.3506  0.7870  2.6455
  670THF    H1110148   1.071   2.556   0.909  0.0249 -0.5793 -0.5502
  670THF    H1210149   0.995   2.724   1.076  0.2373  1.9249  3.4317
  670THF    H1310150   1.057   2.617   1.193  0.5610 -2.5815 -0.8901
  671THF     O110151   1.285   2.937   0.463  0.3719  0.4981  0.0019
  671THF     C210152   1.175   3.001   0.526  1.0625 -0.2147  0.2227
  671THF     C310153   1.243   2.824   0.396 -0.6348  0.4838  0.5083
  671THF     H410154   1.195   3.106   0.547  0.0466 -0.1184  0.7449
  671THF     H510155   1.143   2.946   0.614  0.9005 -0.1262  0.2200
  671THF     H610156   1.324   2.805   0.326 -0.2311  1.5872  0.6455
  671THF     H710157   1.240   2.735   0.458 -0.6362 -0.2438 -0.5098
  671THF     C810158   1.107   2.870   0.338 -0.3331  0.0457 -0.3259
  671THF     C910159   1.064   2.990   0.423  0.5652  0.1977  0.7360
  671THF    H1010160   1.030   2.796   0.357 -0.4358  0.3708  0.6028
  671THF    H1110161   1.109   2.888   0.231 -1.7755 -2.3423 -0.8068
  671THF    H1210162   1.066   3.082   0.366 -0.8924  0.2385  0.7186
  671THF    H1310163   0.962   2.986   0.463 -0.0693  0.3125 -0.7974
  672THF     O110164   2.933   0.052   4.284 -0.5060 -0.1403 -1.0261
  672THF     C210165   2.816   0.075   4.366 -0.5898 -0.4621  0.2854
  672THF     C310166   2.968   0.164   4.207  0.3166 -0.2652  1.2907
  672THF     H410167   2.853   0.115   4.460  1.9132 -2.0394  0.0581
  672THF     H510168   2.752  -0.011   4.386  0.5284 -1.5565 -0.6932
  672THF     H610169   3.054   0.199   4.264  0.3821  0.2981  0.8588
  672THF     H710170   3.001   0.128   4.109 -2.1283  0.2986  0.1758
  672THF     C810171   2.843   0.251   4.198 -0.5508 -0.0835 -0.3282
  672THF     C910172   2.739   0.178   4.283 -0.6326 -0.4790  0.0458
  672THF    H1010173   2.820   0.254   4.091  3.2064  2.7977 -1.2937
  672THF    H1110174   2.870   0.355   4.219 -1.3765  0.0348  0.2130
  672THF    H1210175   2.678   0.245   4.344 -0.9051 -0.6987  0.0138
  672THF    H1310176   2.676   0.113   4.222 -0.6851  0.1647 -0.6006
  673THF     O110177   3.740   4.390   3.853 -1.1795  0.5087 -0.4541
  673THF     C210178   3.811   4.259   3.850  0.0236  1.0616 -0.2031
  673THF     C310179   3.634   4.389   3.950  0.3434 -0.2357  0.5804
  673THF     H410180   3.919   4.270   3.863  0.0210  2.3228 -1.0651
  673THF     H510181   3.795   4.198   3.762 -2.6559  1.1350  0.1389
  673THF     H610182   3.600   4.486   3.983 -2.1050 -0.6883 -0.4207
  673THF     H710183   3.545   4.344   3.907 -0.1011  1.4900 -0.3936
  673THF     C810184   3.682   4.292   4.049  0.5060 -0.3205 -0.5782
  673THF     C910185   3.744   4.182   3.962  0.0255  0.1620 -0.4742
  673THF    H1010186   3.604   4.267   4.121  1.4708  1.4153  1.1590
  673THF    H1110187   3.761   4.343   4.103  0.6794 -0.3242 -0.8268
  673THF    H1210188   3.822   4.138   4.023 -0.6539 -1.1525 -0.5214
  673THF    H1310189   3.678   4.100   3.933  1.2460 -0.6442 -1.0390
  674THF     O110190   0.962   1.701   0.545 -0.3984 -0.0913  0.8939
  674THF     C210191   1.060   1.669   0.443  0.1006  0.4766  0.5371
  674THF     C310192   0.974   1.607   0.643 -0.3831  0.5833 -0.5547
  674THF     H410193   1.076   1.756   0.380  0.1864  0.1178  0.0512
  674THF     H510194   1.021   1.594   0.374 -1.4091  2.2156 -0.5659
  674THF     H610195   0.965   1.652   0.742 -1.7218 -0.2347 -0.2728
  674THF     H710196   0.887   1.543   0.624 -1.0576  0.9912  0.9701
  674THF     C810197   1.112   1.537   0.621 -0.4616  0.7387 -0.3052
  674THF     C910198   1.179   1.620   0.522 -0.2593 -0.3066  0.3898
  674THF    H1010199   1.092   1.436   0.584 -2.1360  0.6218  0.7882
  674THF    H1110200   1.163   1.518   0.715 -2.0933 -1.0310  0.3077
  674THF    H1210201   1.226   1.708   0.564  0.6281 -0.7096  0.2700
  674THF    H1310202   1.254   1.563   0.466 -0.8044 -1.1093  0.4608
  675THF     O110203   3.074   4.351   3.405  0.5945 -0.4480 -0.3459
  675THF     C210204   3.070   4.209   3.410 -0.2259 -0.3659  0.3367
  675THF     C310205   2.997   4.405   3.515  0.5786  0.0076  0.5203
  675THF     H410206   3.153   4.157   3.460 -1.2428 -2.7035 -0.2471
  675THF     H510207   3.074   4.163   3.312 -0.9865  1.1317 -0.4219
  675THF     H610208   3.048   4.393   3.611 -1.1590 -0.6929  1.4022
  675THF     H710209   2.982   4.512   3.507 -0.0994 -0.1340 -0.1747
  675THF     C810210   2.872   4.312   3.499 -0.9242 -0.3122  0.2566
  675THF     C910211   2.937   4.181   3.485  0.2133 -0.0708 -0.4721
  675THF    H1010212   2.826   4.348   3.408  1.6673  0.5812 -0.7941
  675THF    H1110213   2.802   4.319   3.582 -1.0240  2.0983  0.0504
  675THF    H1210214   2.954   4.140   3.584  0.7689  0.1241 -0.4863
  675THF    H1310215   2.886   4.111   3.418  1.8122 -1.7153 -0.0532
  676THF     O110216   2.696   5.085   4.369 -0.7442  0.0232  0.6197
  676THF     C210217   2.775   5.093   4.258 -0.7864  0.4028  0.2170
  676THF     C310218   2.789   5.045   4.471  0.2507 -0.2249 -0.2814
  676THF     H410219   2.849   5.172   4.269 -1.2030  0.5544  2.2279
  676THF     H510220   2.717   5.109   4.167  1.1337  1.8565 -0.8531
  676THF     H610221   2.862   5.119   4.501 -1.0729  1.2552 -0.5583
  676THF     H710222   2.746   5.022   4.568  0.0949  1.6634  0.1170
  676THF     C810223   2.863   4.930   4.402 -0.0625  1.2172  0.5616
  676THF     C910224   2.856   4.962   4.254 -0.6853  0.2145  0.0332
  676THF    H1010225   2.825   4.830   4.425  1.9232 -0.4072 -2.6032
  676THF    H1110226   2.967   4.920   4.434  0.2358  0.8551 -0.4974
  676THF    H1210227   2.957   4.970   4.215 -0.3298  1.6730  1.1954
  676THF    H1310228   2.800   4.882   4.204 -1.5431 -0.1413  1.4874
  677THF     O110229   2.164   4.096   2.159  0.6782 -0.0085 -0.9967
  677THF     C210230   2.191   3.970   2.223 -0.3802 -0.0725  0.5568
  677THF     C310231   2.020   4.108   2.156 -0.3863 -0.2514 -0.1086
  677THF     H410232   2.242   3.994   2.316  2.4537 -1.2554 -0.5694
  677THF     H510233   2.260   3.924   2.153  0.0998 -0.5866  1.3642
  677THF     H610234   1.984   4.210   2.171 -0.8491  0.0991 -3.0360
  677THF     H710235   1.996   4.078   2.054  1.1150  1.2457 -0.9724
  677THF     C810236   1.957   4.006   2.245  0.0008  0.0518 -0.1030
  677THF     C910237   2.061   3.893   2.226  0.2246  0.3461 -0.0929
  677THF    H1010238   1.857   3.975   2.216 -1.1506  3.4547 -0.1448
  677THF    H1110239   1.963   4.048   2.345  0.9912  1.4291 -0.7163
  677THF    H1210240   2.055   3.824   2.310  3.3601  0.7834  0.6286
  677THF    H1310241   2.048   3.832   2.136  2.5354  1.2989 -1.1622
  678THF     O110242   1.818   4.586   0.810  0.0977 -0.3706  0.1979
  678THF     C210243   1.775   4.723   0.803 -1.2546 -0.5787 -1.0284
  678THF     C310244   1.910   4.584   0.919  0.0591  0.1569 -0.0896
  678THF     H410245   1.684   4.730   0.744 -2.3249 -2.0345  0.3693
  678THF     H510246   1.850   4.790   0.761 -1.5778  1.5379  1.4802
  678THF     H610247   1.922   4.484   0.959  3.0707  1.4182  2.5916
  678THF     H710248   2.009   4.622   0.895  0.6176 -0.5915  0.9484
  678THF     C810249   1.846   4.658   1.029  0.1576  0.0795  1.0099
  678THF     C910250   1.752   4.749   0.954  0.1914  0.3309 -0.3898
  678THF    H1010251   1.919   4.711   1.090  0.8198  0.0991  0.2189
  678THF    H1110252   1.792   4.594   1.100 -0.2432 -0.6202  0.0883
  678THF    H1210253   1.648   4.736   0.987 -0.0361 -0.7952 -1.4831
  678THF    H1310254   1.781   4.852   0.975 -1.0252  0.2032  2.4916
  679THF     O110255   1.996   0.851   3.534 -0.1412 -0.1126 -0.7914
  679THF     C210256   2.098   0.780   3.459  0.8218 -0.0852 -0.0808
  679THF     C310257   2.015   0.804   3.669  0.1826  0.1116 -0.1139
  679THF     H410258   2.198   0.816   3.482  0.3818  1.6626 -0.7618
  679THF     H510259   2.077   0.798   3.354  0.1845 -3.0233 -0.5535
  679THF     H610260   2.077   0.868   3.731 -0.8593  1.3000 -0.2674
  679THF     H710261   1.924   0.814   3.728  1.5412  3.7860  1.6712
  679THF     C810262   2.049   0.656   3.655 -0.2569 -0.0252 -0.5968
  679THF     C910263   2.074   0.637   3.502 -0.3558  0.1408 -0.3049
  679THF    H1010264   1.966   0.598   3.695 -1.0346  1.3760 -0.1004
  679THF    H1110265   2.141   0.632   3.709 -1.2486 -1.2806  0.6106
  679THF    H1210266   2.165   0.582   3.475  0.0926  0.6299  0.1787
  679THF    H1310267   1.992   0.590   3.448 -2.7394  0.7321  2.5156
  680THF     O110268   4.945   3.098   2.687  0.0786  0.4482  0.7180
  680THF     C210269   4.842   3.003   2.728 -0.5644 -0.3541  0.1141
  680THF     C310270   4.953   3.088   2.548  0.2868 -0.1569  0.1774
  680THF     H410271   4.804   3.033   2.826 -0.7870 -0.9701  0.2183
  680THF     H510272   4.898   2.909   2.728  0.5950  0.2742 -1.8849
  680THF     H610273   5.007   3.176   2.512 -3.1802  2.5509  1.0602
  680THF     H710274   5.008   2.998   2.521  0.6510  0.6862 -2.1486
  680THF     C810275   4.812   3.087   2.499  0.3899  0.3612 -0.2511
  680THF     C910276   4.740   3.006   2.615 -0.0154 -0.3923 -0.1529
  680THF    H1010277   4.807   3.059   2.394 -1.8969  4.5422 -1.4982
  680THF    H1110278   4.771   3.188   2.495  1.7021  0.8659 -2.8989
  680THF    H1210279   4.657   3.071   2.645  0.2759 -0.6750  1.3888
  680THF    H1310280   4.705   2.906   2.594  0.3348 -0.5891  0.1868
  681THF     O110281   1.421   2.645   1.752  0.2309  0.6765  0.1968
  681THF     C210282   1.448   2.507   1.760  0.4081 -0.4607  0.3051
  681THF     C310283   1.497   2.708   1.646  0.4071 -0.8128  0.2960
  681THF     H410284   1.400   2.459   1.675 -1.1268  0.9170  0.3466
  681THF     H510285   1.416   2.451   1.847  0.0843 -0.8344 -0.0507
  681THF     H610286   1.427   2.720   1.563 -0.8901 -0.7272  1.3787
  681THF     H710287   1.524   2.809   1.675 -0.8126 -0.3849  0.0101
  681THF     C810288   1.608   2.607   1.615  0.3278 -0.2271  0.3118
  681THF     C910289   1.595   2.507   1.733 -0.8308 -0.3518 -0.5845
  681THF    H1010290   1.704   2.659   1.616 -1.3175  3.1810 -1.7463
  681THF    H1110291   1.572   2.572   1.518  1.5940  2.1450 -1.1322
  681THF    H1210292   1.638   2.408   1.718 -2.8536 -2.0100  3.0789
  681THF    H1310293   1.646   2.546   1.821 -0.8627  1.7607 -1.4317
  682THF     O110294   1.552   1.957   2.454  0.2058  0.5407  0.3320
  682THF     C210295   1.525   2.089   2.416  0.0546  0.1762  0.6265
  682THF     C310296   1.660   1.955   2.543 -0.4420  0.1525 -0.5217
  682THF     H410297   1.424   2.102   2.377  0.1548 -1.1601 -0.1397
  682THF     H510298   1.596   2.131   2.344 -2.0827  1.3752 -0.8707
  682THF     H610299   1.644   1.866   2.604  1.1085  0.7538  0.8179
  682THF     H710300   1.757   1.932   2.496  0.7828 -1.4289  2.5011
  682THF     C810301   1.658   2.094   2.619 -0.1408  0.2356  0.7786
  682THF     C910302   1.541   2.165   2.551 -0.5960 -0.5423 -0.0002
  682THF    H1010303   1.756   2.141   2.606  0.1950 -0.5452  0.3977
  682THF    H1110304   1.632   2.084   2.725 -2.8867  1.7932  0.3307
  682THF    H1210305   1.445   2.157   2.601 -1.5239 -0.0720 -1.6228
  682THF    H1310306   1.559   2.272   2.544  1.0203 -0.8349 -0.9143
  683THF     O110307   2.840   0.258   3.442  0.6293 -0.1829  0.0813
  683THF     C210308   2.777   0.375   3.500  0.6611 -0.3590  0.2959
  683THF     C310309   2.970   0.283   3.403 -0.3286  0.7640 -0.0083
  683THF     H410310   2.794   0.363   3.607 -0.1534 -1.1504  0.3472
  683THF     H510311   2.670   0.382   3.483  0.9432  0.9053 -1.2827
  683THF     H610312   3.028   0.269   3.494 -2.7609 -0.9002  1.3803
  683THF     H710313   2.996   0.207   3.329 -1.6669 -1.9106  2.1022
  683THF     C810314   2.956   0.420   3.353  0.1299 -0.2334  0.7468
  683THF     C910315   2.847   0.488   3.439 -0.6768 -0.1488  0.9388
  683THF    H1010316   2.921   0.421   3.249 -3.2022  1.7079  1.7324
  683THF    H1110317   3.051   0.473   3.359 -0.6250  0.9680  3.0535
  683THF    H1210318   2.890   0.543   3.523 -1.0895 -0.5655  1.4349
  683THF    H1310319   2.787   0.555   3.378  0.6318  0.3055  0.1091
  684THF     O110320   2.435   1.550   2.318  0.9713  0.4596  0.1832
  684THF     C210321   2.550   1.631   2.288 -0.4080 -0.7488 -0.1633
  684THF     C310322   2.323   1.639   2.345  0.0254  0.7822 -0.6300
  684THF     H410323   2.567   1.611   2.182 -2.9501  1.4016 -1.1041
  684THF     H510324   2.641   1.606   2.342  0.9680  4.4061  0.4890
  684THF     H610325   2.223   1.617   2.306 -0.1876  1.1777 -0.3149
  684THF     H710326   2.319   1.653   2.453 -1.8054 -2.8858 -0.0548
  684THF     C810327   2.359   1.769   2.278 -0.5413 -0.0329 -0.0444
  684THF     C910328   2.513   1.777   2.301 -0.0322  0.0614 -0.7548
  684THF    H1010329   2.297   1.848   2.320 -1.2403 -1.1865  1.1668
  684THF    H1110330   2.351   1.767   2.169 -0.9131 -2.2974 -0.0259
  684THF    H1210331   2.578   1.827   2.230  0.0619 -0.3255 -0.9451
  684THF    H1310332   2.540   1.814   2.400 -0.2922  1.2023 -1.0948
  685THF     O110333   4.662   3.253   4.898 -0.3145 -0.3498 -0.4825
  685THF     C210334   4.598   3.176   5.000 -0.1409  0.4707 -0.0042
  685THF     C310335   4.612   3.217   4.767  0.4693  0.1494  0.4373
  685THF     H410336   4.514   3.228   5.046  0.3803  1.1348  0.2171
  685THF     H510337   4.682   3.165   5.069  0.4692  0.8486 -0.6762
  685THF     H610338   4.584   3.304   4.708 -1.0923 -0.3120  0.4563
  685THF     H710339   4.702   3.179   4.720  0.6881 -1.1431  1.8233
  685THF     C810340   4.512   3.097   4.786 -0.5923 -0.0233  0.6447
  685THF     C910341   4.555   3.052   4.921 -0.1791  0.5464 -0.4938
  685THF    H1010342   4.514   3.018   4.711 -0.3787 -0.4097  1.0579
  685THF    H1110343   4.411   3.134   4.803 -1.3243 -2.0010  0.8535
  685THF    H1210344   4.470   3.016   4.979  0.4932 -0.6752 -0.2372
  685THF    H1310345   4.641   2.986   4.929 -0.4757  0.3328  1.2441
  686THF     O110346   0.354   5.124   3.725 -0.6758  0.6269  0.2543
  686THF     C210347   0.286   5.202   3.625  0.1228  0.2583 -0.6417
  686THF     C310348   0.449   5.203   3.793  0.1301 -0.3817  0.6941
  686THF     H410349   0.182   5.200   3.657  1.1839 -0.6576  3.2390
  686THF     H510350   0.292   5.140   3.535  0.6086  0.5888 -0.8394
  686THF     H610351   0.401   5.243   3.883 -1.7510  0.3596 -0.5632
  686THF     H710352   0.535   5.146   3.828  1.2200  1.0053  0.4000
  686THF     C810353   0.485   5.310   3.690  0.3593  0.3236 -0.1952
  686THF     C910354   0.357   5.333   3.612  0.8851 -0.2551  0.7944
  686THF    H1010355   0.561   5.265   3.626  2.7917  1.4616  1.7495
  686THF    H1110356   0.528   5.400   3.733  1.8118 -0.7524  0.7071
  686THF    H1210357   0.319   5.419   3.667 -0.5569 -0.4599  0.1635
  686THF    H1310358   0.378   5.363   3.509 -1.2818 -1.0525  0.0572
  687THF     O110359   2.823   1.483   0.518  0.3337  0.0546 -0.1187
  687THF     C210360   2.951   1.472   0.581 -0.2876  0.2956 -0.5991
  687THF     C310361   2.801   1.616   0.477  0.1204  0.0609 -0.4137
  687THF     H410362   2.989   1.372   0.561  0.0883  0.2836  0.1180
  687THF     H510363   2.929   1.496   0.686 -2.4250 -1.8995 -0.4590
  687THF     H610364   2.718   1.626   0.407 -0.0633 -3.4709 -0.9070
  687THF     H710365   2.766   1.679   0.558  1.3083  1.9874 -1.3305
  687THF     C810366   2.934   1.670   0.435  0.4493 -0.1189  0.7992
  687THF     C910367   3.039   1.582   0.512  0.8421 -0.0144  0.1805
  687THF    H1010368   2.957   1.775   0.449  2.6983 -0.0155 -2.5446
  687THF    H1110369   2.943   1.638   0.331  0.0980 -0.0356  0.7404
  687THF    H1210370   3.105   1.533   0.440  1.0346  0.2073  0.2054
  687THF    H1310371   3.098   1.629   0.590 -0.8256 -0.8876  2.0594
  688THF     O110372   0.538   2.184   4.633 -0.6359 -0.4980 -0.7333
  688THF     C210373   0.562   2.202   4.770  0.6206  0.1841  0.0287
  688THF     C310374   0.647   2.112   4.583 -0.2935  1.2419 -0.0291
  688THF     H410375   0.473   2.188   4.831 -0.0060  2.8137 -0.1779
  688THF     H510376   0.608   2.300   4.782  1.7890 -0.3718  0.2988
  688THF     H610377   0.621   2.056   4.493  2.5507 -1.4554  0.6247
  688THF     H710378   0.722   2.186   4.555 -0.6348  0.9373 -1.8769
  688THF     C810379   0.682   2.008   4.700 -0.0571 -0.2237  0.4036
  688THF     C910380   0.668   2.098   4.815  0.2058 -0.4735  0.0079
  688THF    H1010381   0.778   1.960   4.684 -0.2892 -0.4796 -0.2537
  688THF    H1110382   0.606   1.930   4.700  1.0922 -1.3881 -0.6343
  688THF    H1210383   0.637   2.041   4.903  3.1151 -1.7427  0.3144
  688THF    H1310384   0.762   2.147   4.842 -0.2318  0.3323  0.1040
  689THF     O110385   4.668   1.739   0.688  0.4311 -0.8751  0.3915
  689THF     C210386   4.604   1.853   0.751  0.5320 -0.3154  0.0813
  689THF     C310387   4.754   1.803   0.591  0.3020 -0.3266 -0.0455
  689THF     H410388   4.648   1.872   0.848  1.0421  0.7080 -0.3354
  689THF     H510389   4.502   1.829   0.780 -0.5331  3.0175 -0.4995
  689THF     H610390   4.828   1.857   0.650 -1.0649 -2.7106  4.3569
  689THF     H710391   4.798   1.731   0.521  0.1988 -1.8386  1.3838
  689THF     C810392   4.666   1.906   0.520 -0.2937 -0.6667 -0.2994
  689THF     C910393   4.597   1.969   0.643  0.0027  0.1290  0.0972
  689THF    H1010394   4.600   1.856   0.448  2.6404 -1.9113 -2.3299
  689THF    H1110395   4.737   1.962   0.459  1.4034 -1.2957  1.0282
  689THF    H1210396   4.650   2.056   0.681  0.3690  0.0413 -0.2170
  689THF    H1310397   4.499   2.004   0.610  0.4416 -0.5213 -2.0017
  690THF     O110398   3.386   3.341   2.745  0.4923  0.2159 -0.4328
  690THF     C210399   3.487   3.268   2.820  0.6124  0.2257  0.7600
  690THF     C310400   3.381   3.472   2.797 -0.3964  0.1442  0.7892
  690THF     H410401   3.542   3.199   2.755 -2.5680 -2.0213  0.2111
  690THF     H510402   3.438   3.221   2.905  0.6245  0.5637  0.9526
  690THF     H610403   3.332   3.542   2.730 -0.0523  0.5872  0.9982
  690THF     H710404   3.347   3.472   2.901  2.0545 -1.0897  1.6727
  690THF     C810405   3.530   3.502   2.797  0.0047  0.3797 -0.1187
  690THF     C910406   3.574   3.378   2.865 -0.0487 -0.3110  0.3303
  690THF    H1010407   3.551   3.591   2.856 -1.4619  1.0519 -0.5582
  690THF    H1110408   3.579   3.526   2.703 -1.3761  1.9133 -0.4844
  690THF    H1210409   3.679   3.355   2.842 -0.1829 -2.1055  1.3662
  690THF    H1310410   3.573   3.400   2.971  4.1305 -1.6893  0.8467
  691THF     O110411   0.184   1.972   3.226  0.1678  0.3010 -0.1754
  691THF     C210412   0.228   1.842   3.193  0.0177  0.6325  0.5023
  691THF     C310413   0.303   2.052   3.258 -0.1840  0.3663 -0.2491
  691THF     H410414   0.153   1.792   3.130  0.2773 -1.1678  1.5613
  691THF     H510415   0.250   1.778   3.278  1.9365  0.2694 -0.2246
  691THF     H610416   0.287   2.157   3.234 -2.4280  0.3861  1.0017
  691THF     H710417   0.326   2.047   3.365  0.4595  1.3604 -0.3315
  691THF     C810418   0.416   1.990   3.178 -0.4728  1.0908  0.4042
  691THF     C910419   0.351   1.872   3.105  0.1114 -0.1649 -0.1605
  691THF    H1010420   0.485   1.954   3.254 -1.9215 -2.3750  0.2541
  691THF    H1110421   0.457   2.072   3.119 -0.2307 -0.0458 -1.0490
  691THF    H1210422   0.324   1.892   3.001 -2.1211 -3.1899 -0.3025
  691THF    H1310423   0.417   1.785   3.095 -1.2608 -1.4517  1.3582
  692THF     O110424   3.945   4.718   3.625 -0.6629 -0.3889 -0.3126
  692THF     C210425   4.069   4.641   3.636 -0.2660  0.2928 -0.0084
  692THF     C310426   3.839   4.627   3.653  0.6787 -0.0267 -0.4438
  692THF     H410427   4.092   4.627   3.741 -0.7155  1.8231  0.3277
  692THF     H510428   4.143   4.698   3.580  0.5145 -0.0881  0.6163
  692THF     H610429   3.837   4.600   3.759 -3.8559  2.5589  0.4053
  692THF     H710430   3.747   4.675   3.618  1.7857  2.1945 -0.4972
  692THF     C810431   3.872   4.510   3.581  0.4710 -0.5038 -0.1054
  692THF     C910432   4.019   4.513   3.581 -0.0903  0.3321  0.2306
  692THF    H1010433   3.834   4.529   3.480 -1.5380 -1.8371  0.3524
  692THF    H1110434   3.830   4.418   3.621  0.7907  0.5621  2.9296
  692THF    H1210435   4.066   4.435   3.641 -0.7997  0.7769  1.3919
  692THF    H1310436   4.059   4.516   3.480 -0.5933  2.0348  0.0493
  693THF     O110437   2.821   2.304   4.931 -0.0709  0.2736  0.0558
  693THF     C210438   2.936   2.282   4.846 -0.1001 -0.4906  0.1919
  693THF     C310439   2.724   2.370   4.854  0.0114  0.0405 -0.7778
  693THF     H410440   2.920   2.200   4.776  0.6998 -0.2038 -0.3468
  693THF     H510441   3.028   2.261   4.900  0.1583  1.3327  0.5275
  693THF     H610442   2.664   2.299   4.796 -1.4005 -0.4726  1.1787
  693THF     H710443   2.657   2.429   4.917 -1.8844 -2.4344 -0.2984
  693THF     C810444   2.800   2.461   4.753 -0.0620 -0.3482 -0.5857
  693THF     C910445   2.937   2.406   4.759 -0.0218  0.1519 -0.2419
  693THF    H1010446   2.791   2.561   4.795 -1.4740 -0.4430 -0.6407
  693THF    H1110447   2.752   2.477   4.657  0.3189  1.8644 -0.4785
  693THF    H1210448   2.973   2.376   4.660 -1.9058 -0.3301 -0.8240
  693THF    H1310449   2.997   2.484   4.804 -0.3249 -0.4672  1.3065
  694THF     O110450   1.422   1.453   3.811 -0.6195  0.2882 -0.7329
  694THF     C210451   1.408   1.465   3.949 -0.2934  0.4636 -0.6232
  694THF     C310452   1.550   1.398   3.790  0.4588  0.4934  0.8201
  694THF     H410453   1.375   1.371   3.992  1.5252  0.7086  1.5213
  694THF     H510454   1.334   1.539   3.980 -0.0979  0.6290 -0.5475
  694THF     H610455   1.560   1.296   3.827  0.5272  1.3041  3.2312
  694THF     H710456   1.571   1.417   3.685 -1.2059 -0.1351  0.3336
  694THF     C810457   1.637   1.479   3.881  0.2902  0.2775  0.2968
  694THF     C910458   1.551   1.490   4.006 -0.4690 -0.1839 -0.5948
  694THF    H1010459   1.637   1.581   3.842 -1.6603  0.3350  0.3235
  694THF    H1110460   1.738   1.439   3.890  0.1004  0.2758  3.8413
  694THF    H1210461   1.573   1.421   4.088  0.2918  2.5423  1.6356
  694THF    H1310462   1.558   1.593   4.040  1.4314  0.0464 -1.5685
  695THF     O110463   0.655   3.853   4.029 -0.0350  0.1145 -0.5673
  695THF     C210464   0.707   3.780   3.919 -0.7658  0.4770 -0.0354
  695THF     C310465   0.739   3.968   4.052  0.3189  0.1062 -0.0209
  695THF     H410466   0.689   3.823   3.820  0.1830  0.2178 -0.3269
  695THF     H510467   0.676   3.676   3.918  0.9107 -0.0535  0.7578
  695THF     H610468   0.712   4.054   3.991  0.4113  0.9304  1.0692
  695THF     H710469   0.731   4.012   4.152 -1.9306  0.0986 -0.1498
  695THF     C810470   0.875   3.922   4.005 -0.3613  0.2507 -0.1849
  695THF     C910471   0.855   3.789   3.945 -0.2024 -0.2722  0.0363
  695THF    H1010472   0.956   3.933   4.078  0.4351  0.0456 -1.0239
  695THF    H1110473   0.916   3.985   3.926  1.9859  0.0043  0.7574
  695THF    H1210474   0.908   3.793   3.850 -2.5688  0.8290 -1.3368
  695THF    H1310475   0.897   3.717   4.015 -1.1547 -3.2739 -2.2814
  696THF     O110476   5.470   2.816   3.180  0.3050 -0.1767 -0.1884
  696THF     C210477   5.501   2.953   3.179 -0.5981  0.1126 -0.8199
  696THF     C310478   5.491   2.765   3.312 -0.1227 -0.0674 -0.1507
  696THF     H410479   5.409   3.002   3.212  0.1592 -0.1412  1.9671
  696THF     H510480   5.533   2.997   3.085  1.2350 -1.2365 -0.8717
  696THF     H610481   5.394   2.751   3.360 -0.6765  0.4814 -1.0620
  696THF     H710482   5.534   2.667   3.290 -0.2029 -0.1182 -0.0827
  696THF     C810483   5.573   2.869   3.387 -0.7784  0.0816  0.0969
  696THF     C910484   5.618   2.960   3.273 -0.8045 -0.2513  0.2665
  696THF    H1010485   5.649   2.834   3.459 -1.9545  0.2067  1.4459
  696THF    H1110486   5.507   2.920   3.457 -0.1466 -1.1745  1.7052
  696THF    H1210487   5.636   3.064   3.301 -1.1736  0.1473 -0.9512
  696THF    H1310488   5.707   2.924   3.221 -1.3035  1.9493 -2.3070
  697THF     O110489   3.101   2.228   2.977  0.3298 -0.1505 -0.2589
  697THF     C210490   3.121   2.145   3.089  0.4415 -0.2441 -0.4648
  697THF     C310491   2.968   2.215   2.931  0.7459 -0.2147  0.1768
  697THF     H410492   3.062   2.182   3.173 -0.0299 -1.4425 -0.2441
  697THF     H510493   3.224   2.137   3.123 -0.0821  2.2679  2.1380
  697THF     H610494   2.899   2.274   2.990 -0.7253  1.1902 -2.7081
  697THF     H710495   2.960   2.259   2.831  0.5998 -3.1266 -1.2118
  697THF     C810496   2.957   2.062   2.935  0.2587  0.2813 -0.1539
  697THF     C910497   3.060   2.017   3.036 -0.4195 -0.0997  0.4991
  697THF    H1010498   2.972   2.023   2.834  0.0962 -0.7533  0.2184
  697THF    H1110499   2.855   2.046   2.967  1.2401 -0.1467  3.0638
  697THF    H1210500   3.007   1.957   3.110 -1.0647 -0.3702 -0.1723
  697THF    H1310501   3.137   1.962   2.982 -1.3153 -1.4001  0.4953
  698THF     O110502   5.448   4.199   5.094  0.0667 -0.3939 -0.2454
  698THF     C210503   5.398   4.073   5.089 -0.3264  0.3518 -0.0172
  698THF     C310504   5.381   4.276   4.990 -1.0932 -0.4251 -0.7811
  698THF     H410505   5.412   4.037   5.191  0.8952 -2.8384 -1.1951
  698THF     H510506   5.445   4.013   5.012 -1.7145  0.6206 -1.1181
  698THF     H610507   5.395   4.381   5.015  2.6961 -0.7970 -0.6421
  698THF     H710508   5.439   4.256   4.900  1.4245  1.0056  0.3980
  698THF     C810509   5.242   4.214   4.975 -0.0604  0.4831  0.5916
  698THF     C910510   5.249   4.088   5.055  0.3131  0.5017 -0.3537
  698THF    H1010511   5.221   4.188   4.872  0.9480  1.6146  0.0771
  698THF    H1110512   5.157   4.276   5.003 -1.1104 -1.3773  1.7230
  698THF    H1210513   5.204   4.111   5.152  2.4261 -0.9278  1.0679
  698THF    H1310514   5.209   4.001   5.004  2.1276 -1.2138  0.9585
  699THF     O110515   0.662   3.534   4.358 -0.2875  0.4036 -0.2864
  699THF     C210516   0.797   3.527   4.328 -0.2437 -0.6848 -0.5372
  699THF     C310517   0.652   3.589   4.491 -0.8870  0.3289  0.2342
  699THF     H410518   0.824   3.518   4.223  1.6404  0.8110 -0.2268
  699THF     H510519   0.829   3.451   4.400 -0.2877  2.1057  2.6570
  699THF     H610520   0.556   3.639   4.493 -0.8743  0.4203 -0.8949
  699THF     H710521   0.646   3.512   4.567  0.8345  0.7450  0.8549
  699THF     C810522   0.773   3.675   4.519  0.0493  0.1489  0.1136
  699THF     C910523   0.837   3.667   4.377 -0.1545 -0.3663  0.3422
  699THF    H1010524   0.836   3.624   4.592  1.5956  0.7023 -0.7797
  699THF    H1110525   0.747   3.776   4.552  2.4153  1.8164 -2.6229
  699THF    H1210526   0.785   3.735   4.310 -2.7201 -1.6355  0.9238
  699THF    H1310527   0.944   3.689   4.365  0.3883 -2.4137  1.0348
  700THF     O110528   0.401   3.806   1.628  0.0013 -0.0735  0.5533
  700THF     C210529   0.351   3.898   1.726  0.3879  0.1227 -0.3453
  700THF     C310530   0.539   3.842   1.609  0.4671 -0.3943 -0.3871
  700THF     H410531   0.258   3.860   1.768  0.4747  0.8823  0.5744
  700THF     H510532   0.330   3.995   1.680 -0.7045  0.3009  0.4746
  700THF     H610533   0.601   3.774   1.550  1.3978 -0.9683  1.2030
  700THF     H710534   0.552   3.942   1.566  1.7417 -1.0073 -1.5383
  700THF     C810535   0.586   3.856   1.757  0.2568  0.0985 -0.4264
  700THF     C910536   0.458   3.891   1.833  0.3762  0.4262 -0.1258
  700THF    H1010537   0.654   3.939   1.780 -1.0649  0.4582  2.6264
  700THF    H1110538   0.626   3.762   1.795  1.9605  1.1068  0.4152
  700THF    H1210539   0.433   3.808   1.898  0.2176 -0.9454 -1.8631
  700THF    H1310540   0.464   3.989   1.881 -3.1849  0.2230  0.9859
  701THF     O110541   0.286   5.159   0.344 -0.4018  0.0015  0.2553
  701THF     C210542   0.268   5.025   0.356  0.2936  0.4212  0.1046
  701THF     C310543   0.219   5.220   0.458  0.1109 -0.1567  0.4919
  701THF     H410544   0.349   4.972   0.306 -0.5931 -2.8618  1.8177
  701THF     H510545   0.171   4.982   0.330  0.7796 -0.8624  0.3119
  701THF     H610546   0.287   5.296   0.497 -1.1228  0.7797  0.8968
  701THF     H710547   0.126   5.269   0.430  0.1919  0.2093  0.8602
  701THF     C810548   0.212   5.102   0.559 -0.8931 -0.4715  0.3900
  701THF     C910549   0.293   4.988   0.505  0.3993 -0.2134  0.4856
  701THF    H1010550   0.109   5.066   0.565 -1.1957 -0.2970 -2.4552
  701THF    H1110551   0.255   5.133   0.654  1.1898  1.2003 -0.9953
  701THF    H1210552   0.397   5.000   0.536  1.3630  1.1061 -2.8191
  701THF    H1310553   0.257   4.890   0.535  0.8761 -0.4533  0.2766
  702THF     O110554   2.221   1.431   3.100 -0.5549  0.4707  0.1873
  702THF     C210555   2.104   1.508   3.136  0.0963  0.2514  0.2245
  702THF     C310556   2.335   1.527   3.114  0.1183  0.9039  0.1331
  702THF     H410557   2.010   1.459   3.161  0.6995 -0.0051  2.1073
  702THF     H510558   2.073   1.566   3.049  1.0207  1.0389  0.4125
  702THF     H610559   2.427   1.470   3.121 -0.2446  0.5287  3.1847
  702THF     H710560   2.332   1.593   3.027  2.4975  1.1138  0.1580
  702THF     C810561   2.305   1.601   3.246 -1.0442 -0.0748 -0.7086
  702THF     C910562   2.151   1.606   3.246  0.4809  0.1298 -0.7923
  702THF    H1010563   2.374   1.685   3.243  0.6490 -1.4016 -0.9198
  702THF    H1110564   2.334   1.537   3.329  2.9341 -0.5320 -2.2293
  702THF    H1210565   2.105   1.579   3.341  1.6548 -1.3396 -0.6039
  702THF    H1310566   2.113   1.705   3.221 -2.3947 -0.9896 -1.2279
  703THF     O110567   4.024   5.014   0.311 -0.6450 -0.2331 -0.3712
  703THF     C210568   4.064   4.950   0.189  0.7120  0.1906 -0.2211
  703THF     C310569   4.149   5.025   0.387  0.2781  0.2888 -0.6174
  703THF     H410570   3.988   4.967   0.113 -0.1901 -0.5277  0.5095
  703THF     H510571   4.076   4.844   0.211 -0.6802 -0.3325 -1.8251
  703THF     H610572   4.141   5.076   0.483 -0.5792 -0.0370 -0.5065
  703THF     H710573   4.184   4.929   0.425  0.0125  1.5638  3.1927
  703THF     C810574   4.241   5.086   0.283 -0.7791 -0.0827  0.1297
  703THF     C910575   4.195   5.025   0.145 -0.3744  0.3668 -0.8384
  703THF    H1010576   4.344   5.061   0.307 -1.1693 -1.3540  0.5278
  703THF    H1110577   4.217   5.192   0.293 -1.2178 -0.2436  0.8060
  703THF    H1210578   4.184   5.096   0.063  0.5096 -0.1042 -1.3850
  703THF    H1310579   4.277   4.959   0.115 -0.3260  1.1336 -2.4912
  704THF     O110580   5.479   4.119   0.556  0.1770  0.4091 -0.0355
  704THF     C210581   5.493   4.261   0.530 -0.6877 -0.0675  0.4343
  704THF     C310582   5.342   4.086   0.531  0.4963 -0.7237  0.0786
  704THF     H410583   5.598   4.288   0.533 -0.5279 -0.7382  2.3923
  704THF     H510584   5.444   4.307   0.616 -0.6829  1.9625 -0.6038
  704THF     H610585   5.334   3.979   0.518 -0.0481 -0.9270  1.7922
  704THF     H710586   5.279   4.117   0.615  0.5075 -0.9878  0.1851
  704THF     C810587   5.304   4.170   0.400  0.2383  0.4983  0.0236
  704THF     C910588   5.411   4.280   0.398  0.0225 -0.2506 -0.1880
  704THF    H1010589   5.206   4.214   0.419  0.1942  0.1242  0.6772
  704THF    H1110590   5.299   4.119   0.304 -1.6355  0.6452  0.0085
  704THF    H1210591   5.465   4.272   0.303  0.0322  0.6899 -0.2799
  704THF    H1310592   5.359   4.375   0.410 -0.1190 -0.2436 -0.7950
  705THF     O110593   3.387   1.277   3.269 -0.3129 -0.5710  0.3448
  705THF     C210594   3.435   1.155   3.327 -0.3390  0.7993 -0.3111
  705THF     C310595   3.494   1.378   3.259  0.9964 -0.4438  0.3246
  705THF     H410596   3.396   1.082   3.256 -0.1816  0.9958 -0.6009
  705THF     H510597   3.402   1.131   3.428  1.1442  2.1794  0.5473
  705THF     H610598   3.469   1.451   3.182  0.4046  0.8822  1.7096
  705THF     H710599   3.500   1.434   3.352 -0.8023  0.6723 -0.1751
  705THF     C810600   3.611   1.294   3.233  0.0010 -0.3127 -0.1616
  705THF     C910601   3.587   1.166   3.316 -0.7516 -0.0142 -0.4617
  705THF    H1010602   3.706   1.341   3.257  1.1362 -1.6038 -1.8950
  705THF    H1110603   3.628   1.266   3.129  0.9915  0.7806 -0.3093
  705THF    H1210604   3.619   1.078   3.261 -2.2893 -1.2748  0.5826
  705THF    H1310605   3.635   1.167   3.414 -0.8267  0.3896 -0.4278
  706THF     O110606   1.507   0.667   4.240 -0.4593  0.1766 -0.4310
  706THF     C210607   1.497   0.541   4.306 -0.0735 -1.1162 -0.1261
  706THF     C310608   1.428   0.762   4.301  0.4255  0.0719 -0.0212
  706THF     H410609   1.569   0.534   4.388 -1.3327  1.0583  1.2619
  706THF     H510610   1.510   0.451   4.246  0.2106 -0.0990 -1.6608
  706THF     H610611   1.487   0.788   4.389  1.0501 -1.0019 -0.1033
  706THF     H710612   1.403   0.843   4.232 -1.4702  0.7606  1.3812
  706THF     C810613   1.304   0.684   4.341  0.3293 -0.1018 -0.3783
  706THF     C910614   1.353   0.548   4.373 -0.6344 -0.8989 -0.2812
  706THF    H1010615   1.236   0.690   4.256 -0.3687  1.5788  0.2595
  706THF    H1110616   1.239   0.730   4.415 -1.0161  0.0220 -1.5951
  706THF    H1210617   1.375   0.543   4.480  0.5134  1.8156 -0.3310
  706THF    H1310618   1.289   0.464   4.344 -0.3832 -0.8589 -0.9604
  707THF     O110619   3.214   4.843   3.177  0.3990 -0.2502  0.0706
  707THF     C210620   3.242   4.924   3.290 -0.1802 -0.3855  0.8325
  707THF     C310621   3.232   4.900   3.049 -0.2939 -0.0884 -0.1939
  707THF     H410622   3.312   4.890   3.366 -0.9580  1.0019  2.2457
  707THF     H510623   3.144   4.951   3.331  0.0877  0.8566  0.6833
  707THF     H610624   3.321   4.868   2.996 -1.3246 -2.1421 -0.8052
  707THF     H710625   3.151   4.880   2.978  1.2565 -0.4902 -1.9354
  707THF     C810626   3.246   5.046   3.078  0.4478  0.2692 -0.0496
  707THF     C910627   3.302   5.046   3.222  0.6323 -0.2208  0.0485
  707THF    H1010628   3.151   5.095   3.063  0.1908 -0.3599 -0.5087
  707THF    H1110629   3.317   5.101   3.017  0.3469  2.0414  1.3339
  707THF    H1210630   3.411   5.042   3.224  0.6144 -0.6311  0.3756
  707THF    H1310631   3.278   5.137   3.278 -2.9410 -1.1642  0.2636
  708THF     O110632   0.556   0.055   2.530  0.1078  0.0072  0.2916
  708THF     C210633   0.461  -0.028   2.463  0.0606 -0.3581 -0.0141
  708THF     C310634   0.480   0.177   2.559 -0.8666  0.1516  0.1542
  708THF     H410635   0.497  -0.130   2.453  0.6237  0.0102 -2.2411
  708THF     H510636   0.439   0.003   2.361 -1.3520  0.5497  0.5421
  708THF     H610637   0.516   0.227   2.649 -1.4052  1.2247 -0.2085
  708THF     H710638   0.488   0.250   2.479  3.3118 -1.1633 -0.8785
  708THF     C810639   0.339   0.133   2.583  0.4162 -0.1829 -0.4718
  708THF     C910640   0.329  -0.010   2.536 -0.5033 -0.8041 -0.0616
  708THF    H1010641   0.283   0.199   2.516  1.4232  1.3908  0.1819
  708THF    H1110642   0.297   0.149   2.682  1.0662  1.9624 -0.4918
  708THF    H1210643   0.334  -0.079   2.621  2.5874 -1.8610 -0.9573
  708THF    H1310644   0.232  -0.023   2.489 -0.1087 -1.1459 -0.7918
  709THF     O110645   2.038   5.471   2.978  0.3772 -0.3833  0.4479
  709THF     C210646   2.020   5.569   2.878  0.2216 -0.9766 -0.7526
  709THF     C310647   1.907   5.422   3.007 -0.4910 -0.2663  0.1805
  709THF     H410648   2.019   5.528   2.777  0.2556  0.0020 -1.1598
  709THF     H510649   2.096   5.646   2.875  0.4952 -1.2164 -0.1237
  709THF     H610650   1.883   5.351   2.928  1.2496 -1.6153  0.7867
  709THF     H710651   1.898   5.371   3.103  2.2674 -1.4855 -0.1036
  709THF     C810652   1.820   5.545   3.008  0.2042  0.1994 -0.3308
  709THF     C910653   1.887   5.630   2.905  0.5470 -0.0906  0.0023
  709THF    H1010654   1.814   5.589   3.107  1.3666 -1.1660  0.3794
  709THF    H1110655   1.719   5.520   2.975  0.5323 -0.1943 -1.0668
  709THF    H1210656   1.820   5.618   2.819 -1.1063  0.9931  1.0787
  709THF    H1310657   1.884   5.738   2.918 -0.0679 -0.2802  1.7070
  710THF     O110658   2.301   4.016   0.314 -0.4791  0.2843 -0.1655
  710THF     C210659   2.320   3.923   0.417 -0.0067 -0.2661  0.1134
  710THF     C310660   2.167   4.003   0.254 -0.4563 -0.4440  0.7291
  710THF     H410661   2.263   3.963   0.500 -0.6251 -1.0114  0.0612
  710THF     H510662   2.426   3.914   0.438  0.0407 -0.5779 -0.2368
  710THF     H610663   2.099   4.065   0.313  0.3258  0.5577  0.6045
  710THF     H710664   2.170   4.035   0.150 -2.0684 -0.7889  0.5489
  710THF     C810665   2.134   3.845   0.268 -0.1365 -1.0429 -0.6603
  710THF     C910666   2.250   3.799   0.357 -0.4687 -0.5008  0.8394
  710THF    H1010667   2.141   3.802   0.168  3.1643 -0.4838 -0.7845
  710THF    H1110668   2.035   3.825   0.308  0.0635 -0.1775  0.3284
  710THF    H1210669   2.199   3.740   0.433 -5.2548 -0.5701 -1.9727
  710THF    H1310670   2.316   3.736   0.298  1.4990 -0.1974  2.6231
  711THF     O110671   2.055   4.562   2.699  0.5842 -0.2950 -0.1555
  711THF     C210672   2.053   4.636   2.824 -0.4330  0.4151 -0.1934
  711THF     C310673   2.098   4.425   2.718 -0.3441  0.4826 -0.1881
  711THF     H410674   1.959   4.622   2.877  1.3552  0.3957  3.2546
  711THF     H510675   2.085   4.739   2.815  0.6782  0.1452  0.5177
  711THF     H610676   2.007   4.366   2.703  1.0282 -1.8132  0.0535
  711THF     H710677   2.169   4.387   2.644 -2.7522 -2.4036 -1.2613
  711THF     C810678   2.149   4.419   2.860  0.0041  0.6586 -0.1154
  711THF     C910679   2.148   4.565   2.914  0.5464 -0.5950 -0.3924
  711THF    H1010680   2.249   4.376   2.854  0.3102  1.3042  0.1940
  711THF    H1110681   2.088   4.342   2.907 -0.9308  1.5753  0.2069
  711THF    H1210682   2.140   4.580   3.022  0.6484  1.4217 -0.6189
  711THF    H1310683   2.249   4.601   2.894  0.6417  0.7204  2.0522
  712THF     O110684   4.333   4.190   0.544 -0.0720 -0.0367 -0.4634
  712THF     C210685   4.254   4.135   0.640  0.0611 -0.9750 -0.0474
  712THF     C310686   4.261   4.218   0.422  0.2123 -0.3110  0.0027
  712THF     H410687   4.294   4.171   0.735  1.5921 -0.2827 -0.9239
  712THF     H510688   4.252   4.026   0.632  0.4921 -0.9557 -0.4170
  712THF     H610689   4.266   4.324   0.397  0.0594 -0.2418  0.2593
  712THF     H710690   4.304   4.149   0.349  2.0760  0.5731  0.1892
  712THF     C810691   4.118   4.179   0.453 -0.0954 -0.4520  0.3045
  712THF     C910692   4.111   4.186   0.605 -0.7311 -0.6000 -0.0679
  712THF    H1010693   4.104   4.078   0.414 -0.6643  0.3444 -1.6851
  712THF    H1110694   4.055   4.249   0.398 -0.4780 -0.0854  1.1937
  712THF    H1210695   4.085   4.288   0.635  3.1734 -0.0663  2.1324
  712THF    H1310696   4.041   4.123   0.659 -0.2350 -1.4474 -0.4034
  713THF     O110697   2.433   5.395   2.753 -0.4275 -0.1097 -0.2109
  713THF     C210698   2.493   5.319   2.646  0.3858  0.0222 -0.5999
  713THF     C310699   2.344   5.487   2.689  0.1927 -0.4158 -1.6621
  713THF     H410700   2.509   5.214   2.670  1.9523  0.6961  1.6085
  713THF     H510701   2.592   5.365   2.638  0.8342 -0.6365  0.8272
  713THF     H610702   2.248   5.474   2.739  0.8057 -1.6174 -0.7298
  713THF     H710703   2.371   5.590   2.710 -1.7602  0.2858 -2.4341
  713THF     C810704   2.334   5.453   2.545 -0.4039  0.1406  0.3116
  713THF     C910705   2.392   5.320   2.533  0.1105 -0.1721  0.5496
  713THF    H1010706   2.393   5.535   2.505  0.1482 -0.5523 -0.3272
  713THF    H1110707   2.236   5.454   2.497 -0.7506 -0.6355  0.9847
  713THF    H1210708   2.314   5.243   2.541 -2.1497  1.4970 -2.7656
  713THF    H1310709   2.446   5.307   2.439 -0.3296  3.7536 -0.3976
  714THF     O110710   3.408   4.360   1.094 -0.3768 -0.2798 -0.0053
  714THF     C210711   3.487   4.476   1.136 -0.4205  0.4006  0.2081
  714THF     C310712   3.477   4.296   0.988 -0.5293 -0.1749  0.3165
  714THF     H410713   3.454   4.506   1.236 -2.7675 -0.3759 -0.2752
  714THF     H510714   3.466   4.569   1.082  0.5627  0.8455  0.5548
  714THF     H610715   3.452   4.193   0.961  0.6811 -0.8428  1.6306
  714THF     H710716   3.467   4.348   0.892 -0.8186 -0.6134  0.1025
  714THF     C810717   3.618   4.297   1.040 -0.6360  0.1428 -0.5758
  714THF     C910718   3.632   4.434   1.112  0.4562  0.6434  0.2878
  714THF    H1010719   3.693   4.280   0.962  1.3036  0.4569  1.1330
  714THF    H1110720   3.634   4.213   1.108 -0.2742  1.1524  0.6246
  714THF    H1210721   3.675   4.428   1.212  1.2453  1.1990 -0.0201
  714THF    H1310722   3.690   4.505   1.054  0.6360 -0.1833 -0.5723
  715THF     O110723   0.558   0.415   2.919 -0.2285 -0.2050  0.6919
  715THF     C210724   0.633   0.526   2.874 -0.2489 -0.1731 -0.3390
  715THF     C310725   0.627   0.349   3.021 -0.6336  0.0231  0.8821
  715THF     H410726   0.610   0.621   2.924 -1.2745 -0.9929  0.7922
  715THF     H510727   0.631   0.531   2.765  1.4824 -2.9689 -0.5844
  715THF     H610728   0.606   0.402   3.113 -0.5143 -0.0511  0.9519
  715THF     H710729   0.590   0.250   3.049  0.0640 -0.4502  0.1868
  715THF     C810730   0.771   0.349   2.973  0.4914  0.3236  0.0249
  715THF     C910731   0.777   0.487   2.924 -0.3083 -0.1441  1.0185
  715THF    H1010732   0.782   0.270   2.898 -0.9502  1.5659 -1.5735
  715THF    H1110733   0.848   0.338   3.049  1.0198 -1.5221 -0.7169
  715THF    H1210734   0.815   0.551   3.004  0.2223  2.0999 -0.8930
  715THF    H1310735   0.848   0.502   2.843 -3.3775  0.7974 -1.7051
  716THF     O110736   1.940   3.626   2.018  0.3082 -0.4116  0.2113
  716THF     C210737   1.962   3.511   2.094  0.0150  0.4184 -0.7480
  716THF     C310738   1.800   3.659   1.998  0.6235 -0.2543  0.4768
  716THF     H410739   2.052   3.523   2.155 -0.5650  1.7034 -0.1082
  716THF     H510740   1.973   3.441   2.012  1.2665  0.4880 -0.6524
  716THF     H610741   1.789   3.768   2.001 -0.5040 -0.2376 -1.9553
  716THF     H710742   1.756   3.624   1.905  1.4473 -1.0065  0.3608
  716THF     C810743   1.729   3.603   2.118 -0.3245  0.1693  0.2655
  716THF     C910744   1.835   3.500   2.179  0.2324  0.0278 -0.2342
  716THF    H1010745   1.635   3.555   2.092  1.3197 -2.3410 -1.5707
  716THF    H1110746   1.720   3.683   2.192 -0.8381  2.7432 -2.4155
  716THF    H1210747   1.867   3.530   2.279  0.5979 -2.2924  0.4036
  716THF    H1310748   1.805   3.396   2.194 -0.1107  0.3280  1.3117
  717THF     O110749   0.389   3.553   3.565  0.7401  0.0807 -0.2049
  717THF     C210750   0.404   3.435   3.496 -0.3187 -0.1603  0.4732
  717THF     C310751   0.507   3.630   3.550 -0.6942  0.0473 -0.3768
  717THF     H410752   0.402   3.461   3.391 -3.4447  0.5215  0.6232
  717THF     H510753   0.329   3.360   3.522 -1.3126  0.8882  0.7192
  717THF     H610754   0.501   3.670   3.449  0.1093 -0.3453 -0.5862
  717THF     H710755   0.528   3.715   3.616 -0.7418 -0.0046 -0.2945
  717THF     C810756   0.613   3.529   3.582 -0.1067  0.0863 -0.1064
  717THF     C910757   0.552   3.397   3.525 -0.5902 -0.2011 -0.6236
  717THF    H1010758   0.621   3.514   3.690  3.1705 -0.4539 -0.3034
  717THF    H1110759   0.712   3.558   3.546 -0.0746  3.1848  2.0204
  717THF    H1210760   0.611   3.381   3.434 -0.9179  0.0454 -0.8849
  717THF    H1310761   0.562   3.315   3.596 -0.4906 -0.5250 -1.0086
  718THF     O110762   4.613   5.094   2.619  0.0650 -0.0666  0.1183
  718THF     C210763   4.684   5.048   2.735  0.0089 -0.7439  0.2126
  718THF     C310764   4.496   5.155   2.672 -0.6679  0.4565  0.1453
  718THF     H410765   4.744   5.131   2.770 -1.9686  1.7131 -1.8554
  718THF     H510766   4.762   4.973   2.714 -0.3627 -1.8763  2.5963
  718THF     H610767   4.501   5.258   2.706 -0.7291  0.7547 -0.7174
  718THF     H710768   4.426   5.158   2.588 -1.2599 -0.4360  0.5922
  718THF     C810769   4.447   5.060   2.778  0.0871  0.7285  0.4130
  718THF     C910770   4.579   4.998   2.829 -0.4577 -0.1753  0.2517
  718THF    H1010771   4.388   4.977   2.740 -1.5181  1.2514  1.6451
  718THF    H1110772   4.376   5.104   2.848 -3.2114  2.0269 -3.3344
  718THF    H1210773   4.615   5.035   2.925 -0.5909  1.5302 -0.3242
  718THF    H1310774   4.579   4.889   2.823 -0.8507 -0.1484 -0.2947
  719THF     O110775   3.600   1.885   1.882  0.3636 -0.0735  0.4435
  719THF     C210776   3.486   1.834   1.952  0.1317  0.3147 -0.1033
  719THF     C310777   3.707   1.799   1.907  0.4515 -0.5295 -0.5516
  719THF     H410778   3.390   1.870   1.916 -1.4725  0.7640  4.0976
  719THF     H510779   3.486   1.861   2.057 -2.6715  0.6086 -0.1169
  719THF     H610780   3.775   1.800   1.822  1.1821 -2.4841 -0.0477
  719THF     H710781   3.770   1.835   1.989  0.4386 -1.3951 -0.1490
  719THF     C810782   3.651   1.664   1.927  0.7137 -0.2183  0.1201
  719THF     C910783   3.497   1.683   1.918  0.2208  0.2167  0.2235
  719THF    H1010784   3.675   1.630   2.027 -0.9008  0.2789  0.7131
  719THF    H1110785   3.698   1.597   1.854  2.5352  0.8938  0.2150
  719THF    H1210786   3.458   1.664   1.818  1.2156 -2.0350  0.1881
  719THF    H1310787   3.455   1.615   1.993 -0.6676  0.5423  0.0263
  720THF     O110788   3.918   3.046   3.089  0.6131  0.0227 -1.3715
  720THF     C210789   3.961   2.978   3.201  0.1308  0.5389  0.6330
  720THF     C310790   3.949   2.962   2.978  0.2084 -0.2374  0.8361
  720THF     H410791   3.884   2.904   3.224  0.6164 -0.6555 -1.3894
  720THF     H510792   3.980   3.051   3.280 -0.0823  1.7436 -0.3911
  720THF     H610793   3.860   2.899   2.970 -0.6245  0.8996  0.9101
  720THF     H710794   3.951   3.016   2.883  0.1787 -2.6404 -0.6354
  720THF     C810795   4.073   2.874   3.002 -0.3807  0.3009  0.2761
  720THF     C910796   4.079   2.891   3.152 -0.1216  0.3527 -0.2843
  720THF    H1010797   4.166   2.919   2.966  0.9559 -1.8755  0.8392
  720THF    H1110798   4.076   2.771   2.966  1.4734  0.7860 -1.1499
  720THF    H1210799   4.106   2.797   3.200  0.9844  0.8108  0.0235
  720THF    H1310800   4.162   2.946   3.195  0.0485  0.2615 -0.4932
  721THF     O110801   2.822   1.362   1.183 -0.1176  0.1650  0.5525
  721THF     C210802   2.855   1.336   1.324 -0.5165 -0.2108 -0.3184
  721THF     C310803   2.917   1.455   1.153  0.4231 -0.8491 -0.4403
  721THF     H410804   2.817   1.243   1.365  1.4458 -0.7788  0.3078
  721THF     H510805   2.817   1.422   1.380 -1.7783 -1.7945  1.3874
  721THF     H610806   2.928   1.485   1.049 -0.7209  1.5666  0.0600
  721THF     H710807   2.890   1.552   1.195 -1.3145 -0.9562 -1.2351
  721THF     C810808   3.048   1.404   1.210  0.2395  0.4371 -0.6274
  721THF     C910809   3.008   1.327   1.337 -0.0341 -1.4643 -0.0763
  721THF    H1010810   3.106   1.495   1.227 -1.2333  1.2295  0.3846
  721THF    H1110811   3.099   1.334   1.144  2.3807  0.0637  1.2605
  721THF    H1210812   3.043   1.224   1.340 -0.2986 -1.5340  0.6319
  721THF    H1310813   3.038   1.365   1.434 -0.0501 -2.0503  0.1587
  722THF     O110814   2.714   1.715   0.170 -0.1238 -0.5138 -0.1228
  722THF     C210815   2.581   1.684   0.199  0.2542 -0.2651 -0.1520
  722THF     C310816   2.752   1.634   0.063 -0.5221 -0.0887  0.1467
  722THF     H410817   2.521   1.729   0.120 -2.6900 -2.0226  0.9206
  722THF     H510818   2.540   1.722   0.292 -0.5323  1.1550 -1.0461
  722THF     H610819   2.741   1.697  -0.025 -0.6626 -1.4722 -0.8637
  722THF     H710820   2.852   1.592   0.072  0.3185  2.0093  1.2808
  722THF     C810821   2.652   1.519   0.054 -0.3189 -0.1424 -0.0525
  722THF     C910822   2.573   1.529   0.180  0.3171  0.3082  0.2129
  722THF    H1010823   2.703   1.423   0.044  0.5943  0.2672  0.5136
  722THF    H1110824   2.581   1.543  -0.025 -1.4034  3.4290  1.7842
  722THF    H1210825   2.473   1.487   0.173  0.6240 -0.2877 -0.7106
  722THF    H1310826   2.630   1.476   0.257  1.0352 -0.2455 -0.6833
  723THF     O110827   3.100   2.755   1.870 -0.9228  0.0343  0.3645
  723THF     C210828   3.055   2.879   1.915  0.0588  0.1147 -0.6571
  723THF     C310829   3.229   2.736   1.938  0.1582 -0.1031 -0.5303
  723THF     H410830   3.025   2.875   2.020  0.2521  2.8832 -0.4223
  723THF     H510831   2.967   2.918   1.864 -0.9948  1.9113  2.2592
  723THF     H610832   3.216   2.689   2.035  0.4748  1.1263  0.1248
  723THF     H710833   3.281   2.665   1.874  0.5356 -1.1802  0.9338
  723THF     C810834   3.294   2.877   1.935  0.3326 -0.7849  0.2491
  723THF     C910835   3.171   2.971   1.908  1.0456  0.3673  0.7813
  723THF    H1010836   3.357   2.888   1.847 -0.1054  0.8434  0.1089
  723THF    H1110837   3.361   2.893   2.020 -0.3797  0.7581  0.5604
  723THF    H1210838   3.169   3.046   1.987 -0.0577  0.1795  0.9386
  723THF    H1310839   3.187   3.014   1.809 -2.5175  1.6681  0.6431
  724THF     O110840   3.239   1.727   3.571 -0.4445  0.2028 -0.1724
  724THF     C210841   3.228   1.648   3.459  0.1348  0.2671  0.7323
  724THF     C310842   3.252   1.861   3.531  0.0683  0.0996  0.4488
  724THF     H410843   3.131   1.654   3.410  0.3873 -1.4781 -0.0393
  724THF     H510844   3.234   1.544   3.489  0.2059 -0.5042 -1.7100
  724THF     H610845   3.153   1.905   3.517  1.6331  3.5207 -0.9006
  724THF     H710846   3.304   1.918   3.607  1.8424 -3.0264  1.7670
  724THF     C810847   3.328   1.844   3.397 -0.4120 -0.2625  0.4821
  724THF     C910848   3.343   1.698   3.371 -0.6562 -0.0923  0.6153
  724THF    H1010849   3.421   1.901   3.390  0.1449 -1.2250 -0.2821
  724THF    H1110850   3.262   1.883   3.319  1.9603 -0.6063 -1.8628
  724THF    H1210851   3.337   1.664   3.268  0.2717 -1.1631  0.8919
  724THF    H1310852   3.437   1.659   3.410  0.1363  1.9468  0.8701
  725THF     O110853   0.194   4.042   3.711 -0.0309 -0.3044  0.1781
  725THF     C210854   0.310   4.046   3.628 -0.0517 -0.0144  0.0876
  725THF     C310855   0.180   4.170   3.772 -0.4911  0.0051  0.2323
  725THF     H410856   0.290   4.040   3.521 -2.0339  1.7809  0.2789
  725THF     H510857   0.376   3.960   3.636 -1.1437 -1.3906 -3.5404
  725THF     H610858   0.126   4.244   3.714  0.8556  2.4357  1.9106
  725THF     H710859   0.127   4.153   3.866  1.1779 -0.2554  1.1670
  725THF     C810860   0.323   4.227   3.791 -0.2904  0.3051 -0.1545
  725THF     C910861   0.389   4.179   3.662 -0.3766  0.2171  0.5998
  725THF    H1010862   0.381   4.175   3.868  1.0036  1.0422 -0.6096
  725THF    H1110863   0.336   4.332   3.814  1.9715 -0.2211  1.3983
  725THF    H1210864   0.365   4.246   3.580  0.0764 -1.0227 -0.5944
  725THF    H1310865   0.497   4.167   3.661 -0.4206 -0.3518  1.4692
  726THF     O110866   5.433   4.413   2.518  0.2076  0.1672 -0.7569
  726THF     C210867   5.489   4.431   2.385 -0.5504  0.2694 -0.6567
  726THF     C310868   5.310   4.341   2.503  0.3608 -1.0048  0.2892
  726THF     H410869   5.588   4.476   2.391 -0.8769  0.8907  0.3459
  726THF     H510870   5.436   4.507   2.329  0.1726  2.3507  1.3377
  726THF     H610871   5.281   4.296   2.598 -0.2941 -0.2670  0.4453
  726THF     H710872   5.222   4.397   2.473 -0.0805 -2.9271 -2.3719
  726THF     C810873   5.352   4.234   2.399  0.5416  0.0588 -0.1573
  726THF     C910874   5.473   4.290   2.331  0.0874 -0.2817  0.2229
  726THF    H1010875   5.280   4.209   2.322  0.2481  0.3966  0.0092
  726THF    H1110876   5.376   4.142   2.453 -0.5392 -0.2247 -0.1402
  726THF    H1210877   5.560   4.225   2.329 -0.1739 -0.6414  0.6394
  726THF    H1310878   5.449   4.309   2.226  1.9334  0.4635 -0.1061
  727THF     O110879   4.710   1.640   1.179 -0.6050 -0.4026  0.7199
  727THF     C210880   4.803   1.544   1.150 -0.1314 -0.0874  0.4234
  727THF     C310881   4.581   1.600   1.135  0.7192 -0.3009 -0.0397
  727THF     H410882   4.793   1.460   1.219  0.8368 -0.6237 -0.0797
  727THF     H510883   4.906   1.580   1.150  0.8026 -2.6083 -0.2047
  727THF     H610884   4.543   1.526   1.205 -0.6641  1.8277  1.5870
  727THF     H710885   4.511   1.684   1.137 -0.0854 -0.9561  1.8839
  727THF     C810886   4.618   1.540   0.997  0.7352  0.0198  0.3963
  727THF     C910887   4.766   1.509   1.005  0.0489 -0.2190 -0.1898
  727THF    H1010888   4.602   1.627   0.933  1.0826 -0.1685  0.0532
  727THF    H1110889   4.556   1.457   0.965  2.6712 -0.3315 -2.8282
  727THF    H1210890   4.786   1.403   0.989 -0.6932 -0.7812  2.1464
  727THF    H1310891   4.821   1.562   0.928  0.0103 -0.5440 -0.4412
  728THF     O110892   4.562   3.511   5.226  0.2310  0.2114 -0.2325
  728THF     C210893   4.506   3.440   5.337  0.4554  0.1918  0.1398
  728THF     C310894   4.477   3.622   5.180 -0.7628 -0.9181  0.1488
  728THF     H410895   4.591   3.409   5.398  0.3106 -0.9640 -0.2201
  728THF     H510896   4.448   3.351   5.310 -2.1731  1.3639  1.5697
  728THF     H610897   4.526   3.718   5.194 -3.1305  0.3521  0.1049
  728THF     H710898   4.454   3.617   5.074 -0.4495  1.2766 -0.0599
  728THF     C810899   4.356   3.614   5.262  0.4917  0.1107 -0.0255
  728THF     C910900   4.400   3.539   5.385  1.0076 -0.5774  0.5431
  728THF    H1010901   4.284   3.551   5.210  0.5702  1.0408 -1.2870
  728THF    H1110902   4.298   3.704   5.280 -1.8055 -1.0638 -1.1647
  728THF    H1210903   4.437   3.617   5.451  1.9932 -0.3320 -0.2814
  728THF    H1310904   4.321   3.475   5.425  0.0804 -0.2792 -0.7597
  729THF     O110905   5.090   4.290   1.635  0.1905 -0.4569  0.1544
  729THF     C210906   5.199   4.206   1.676  0.4244  0.5753  0.5258
  729THF     C310907   4.968   4.232   1.672 -0.1055  0.1127 -0.0978
  729THF     H410908   5.284   4.269   1.702  1.0216  0.9365 -2.0280
  729THF     H510909   5.217   4.138   1.593  2.3591 -3.1598  3.6742
  729THF     H610910   4.878   4.293   1.669 -0.0252  0.2543 -3.0035
  729THF     H710911   4.936   4.157   1.600 -0.9590  0.5061 -0.1330
  729THF     C810912   4.998   4.162   1.805  0.6321 -0.0926  0.6670
  729THF     C910913   5.147   4.119   1.791  0.5670 -0.0715 -0.0866
  729THF    H1010914   4.925   4.083   1.821 -2.1685  2.2018 -0.1060
  729THF    H1110915   4.987   4.230   1.889  1.2058 -0.3904  0.9916
  729THF    H1210916   5.209   4.148   1.876 -0.7795  1.9819  0.2637
  729THF    H1310917   5.161   4.016   1.759  1.3856  0.6739 -2.3633
  730THF     O110918   3.712   1.588   3.126  0.2573  0.4376  0.1559
  730THF     C210919   3.635   1.707   3.094 -0.1452  0.6411 -0.6466
  730THF     C310920   3.825   1.626   3.199  0.1092 -0.5029  1.0218
  730THF     H410921   3.530   1.678   3.083  0.5219 -2.1742 -0.3353
  730THF     H510922   3.661   1.749   2.997 -0.7441  0.2902 -0.9647
  730THF     H610923   3.813   1.569   3.291 -0.7621 -2.7737 -0.3921
  730THF     H710924   3.919   1.598   3.150 -0.0367  1.5432 -0.5395
  730THF     C810925   3.805   1.768   3.238 -0.7434  0.5446  0.4552
  730THF     C910926   3.660   1.796   3.215 -0.2473 -0.3079 -0.2484
  730THF    H1010927   3.848   1.834   3.163 -2.9194  0.1432 -1.2431
  730THF    H1110928   3.841   1.797   3.337  3.1656 -0.6859 -0.4284
  730THF    H1210929   3.608   1.756   3.302  2.4988  0.3583  1.8025
  730THF    H1310930   3.638   1.900   3.192 -0.2197 -0.5457 -1.4530
  731THF     O110931   3.627   4.536   2.881  0.2930  0.2430  0.3860
  731THF     C210932   3.534   4.558   2.775  0.3052 -0.2139  0.6092
  731THF     C310933   3.691   4.662   2.887 -0.7762  0.0595 -0.4605
  731THF     H410934   3.462   4.476   2.765  0.9070 -0.4773 -2.6062
  731THF     H510935   3.600   4.557   2.689  0.1519 -1.1050  0.4833
  731THF     H610936   3.745   4.676   2.981 -2.4328  3.4387  0.1387
  731THF     H710937   3.757   4.680   2.802 -1.2927  0.2362 -0.8289
  731THF     C810938   3.568   4.753   2.876 -0.2018  0.4295 -0.3123
  731THF     C910939   3.468   4.692   2.789  0.6023  0.6525 -0.0517
  731THF    H1010940   3.592   4.854   2.843 -1.7096  0.7653 -0.4722
  731THF    H1110941   3.523   4.770   2.973 -0.3712  3.2215 -0.7885
  731THF    H1210942   3.373   4.694   2.843  0.4061 -2.3672 -0.1007
  731THF    H1310943   3.446   4.738   2.692 -1.2232  0.0166  0.0132
  732THF     O110944   2.393   3.783   0.048 -0.4941  0.2933  0.4482
  732THF     C210945   2.516   3.818   0.106 -0.4165 -0.1108 -0.0238
  732THF     C310946   2.394   3.836  -0.082  0.0950 -0.1418  0.0061
  732THF     H410947   2.594   3.751   0.071 -1.4875 -0.7401 -1.3182
  732THF     H510948   2.504   3.821   0.214  3.0932  0.4178  0.4570
  732THF     H610949   2.442   3.774  -0.158 -3.1468 -0.9269 -1.6020
  732THF     H710950   2.291   3.860  -0.106 -0.0303 -0.9462 -0.2924
  732THF     C810951   2.471   3.967  -0.074 -0.5510  0.0856  0.4201
  732THF     C910952   2.555   3.957   0.056  0.2443 -0.2743  0.5034
  732THF    H1010953   2.411   4.058  -0.078 -1.4428 -0.5420 -1.2019
  732THF    H1110954   2.539   3.974  -0.159  0.4116 -2.5515  0.8774
  732THF    H1210955   2.662   3.975   0.042 -0.2729  1.7585 -1.3342
  732THF    H1310956   2.507   4.038   0.111 -1.6678 -0.0259 -1.4111
  733THF     O110957   5.425   3.219   2.450  0.3059  0.3527  0.4137
  733THF     C210958   5.387   3.088   2.397  0.6107 -0.8713 -0.1545
  733THF     C310959   5.498   3.188   2.567 -0.1348  0.1540  0.0743
  733THF     H410960   5.351   3.087   2.295 -0.9503 -1.6275  0.3690
  733THF     H510961   5.316   3.031   2.458  2.5448 -1.5441  1.6218
  733THF     H610962   5.547   3.281   2.595 -1.4205  1.2676 -1.2672
  733THF     H710963   5.427   3.162   2.645 -0.6494  0.2225 -0.3687
  733THF     C810964   5.588   3.068   2.521  0.2250  0.0945  0.3451
  733THF     C910965   5.523   3.018   2.398 -0.5073  0.4115  0.0505
  733THF    H1010966   5.603   2.990   2.595 -1.0056 -0.9002 -0.4087
  733THF    H1110967   5.684   3.116   2.501 -1.2650  2.4559 -1.8508
  733THF    H1210968   5.593   3.059   2.325 -0.2892  1.5019  0.8554
  733THF    H1310969   5.520   2.909   2.387 -0.3270  0.4496 -0.4114
  734THF     O110970   1.608   2.596   3.873 -0.2059  0.2599 -0.1340
  734THF     C210971   1.610   2.463   3.927 -0.0997 -0.1927 -0.3278
  734THF     C310972   1.739   2.634   3.848  0.1077  0.1480  0.7417
  734THF     H410973   1.527   2.403   3.888 -1.4023  0.8834  0.6824
  734THF     H510974   1.604   2.462   4.036  3.1136  0.1544 -0.0658
  734THF     H610975   1.738   2.656   3.741  0.0667 -0.8795  0.5142
  734THF     H710976   1.736   2.730   3.899 -2.5104  1.1527 -1.1101
  734THF     C810977   1.832   2.523   3.891 -0.3553 -0.5750  0.6251
  734THF     C910978   1.740   2.405   3.871 -0.2124 -0.0732 -0.1137
  734THF    H1010979   1.868   2.543   3.992  0.0519  2.7480 -0.0551
  734THF    H1110980   1.919   2.506   3.828  1.1109  0.7191  2.1918
  734THF    H1210981   1.735   2.378   3.766 -0.6513 -2.0743  0.3909
  734THF    H1310982   1.767   2.318   3.931 -1.4574 -0.6824 -0.4085
  735THF     O110983   0.555   3.170   2.582 -0.0352 -0.1659 -0.2173
  735THF     C210984   0.594   3.189   2.715 -0.0008 -0.1126  0.2581
  735THF     C310985   0.462   3.268   2.546  0.2280  0.4080 -0.2226
  735THF     H410986   0.682   3.131   2.741  0.0868  0.4372  1.2105
  735THF     H510987   0.519   3.172   2.792 -0.9974 -0.0818 -0.6749
  735THF     H610988   0.459   3.284   2.438  1.0525  2.6111  0.0178
  735THF     H710989   0.358   3.250   2.574  0.2011 -0.8435 -1.0739
  735THF     C810990   0.509   3.398   2.621 -0.6589 -0.1239  0.1479
  735THF     C910991   0.617   3.342   2.719  0.2092  0.1494 -0.4787
  735THF    H1010992   0.432   3.460   2.666 -1.3891  0.4025 -1.7039
  735THF    H1110993   0.560   3.464   2.551 -0.9142  0.2026  0.2661
  735THF    H1210994   0.715   3.367   2.678  1.0579 -2.6801 -0.3834
  735THF    H1310995   0.611   3.389   2.817  2.6125  2.2346 -1.2453
  736THF     O110996   2.575   0.437   4.123  0.3909 -0.6304  0.1445
  736THF     C210997   2.560   0.516   4.247 -0.2304  0.7659 -0.0709
  736THF     C310998   2.605   0.533   4.018 -0.7254  0.2636 -0.0212
  736THF     H410999   2.623   0.477   4.327  0.3057 -0.1977 -0.9388
  736THF     H511000   2.461   0.501   4.288 -0.4482  1.7293 -0.2104
  736THF     H611001   2.680   0.487   3.954  1.1067  1.1031  1.4644
  736THF     H711002   2.514   0.558   3.962 -1.8253 -0.0107  1.5909
  736THF     C811003   2.669   0.652   4.083  0.2294  0.5826 -0.0293
  736THF     C911004   2.600   0.657   4.215  0.2086  0.1708 -0.0497
  736THF    H1011005   2.640   0.745   4.032  2.2221  1.2282 -0.0577
  736THF    H1111006   2.776   0.648   4.103  0.0271 -1.7514  0.8725
  736THF    H1211007   2.665   0.691   4.296  0.5084 -1.1218  0.2724
  736THF    H1311008   2.514   0.723   4.228 -0.1585 -0.3826  0.3776
  737THF     O111009   1.091   1.948   4.526  0.0211  0.3412 -0.6168
  737THF     C211010   1.048   2.005   4.401  0.7095  0.4976 -0.3360
  737THF     C311011   1.127   1.814   4.504  0.0154 -0.0396  0.5159
  737THF     H411012   1.032   2.111   4.415 -1.1490 -0.0219  2.1720
  737THF     H511013   0.952   1.953   4.389  1.3079 -1.2781  1.7914
  737THF     H611014   1.187   1.764   4.581  1.1886  0.6174  0.0451
  737THF     H711015   1.035   1.759   4.485 -1.9513  1.5278  4.4081
  737THF     C811016   1.210   1.829   4.379  0.4424 -0.0319 -0.1341
  737THF     C911017   1.162   1.960   4.316 -0.2154 -0.2804  0.8270
  737THF    H1011018   1.162   1.752   4.318 -0.3420  0.9231 -0.7592
  737THF    H1111019   1.317   1.812   4.370  0.4288 -0.7330  0.8433
  737THF    H1211020   1.240   2.034   4.337  0.4766 -0.6093 -0.5096
  737THF    H1311021   1.139   1.957   4.210  0.9942  0.9072  0.4891
  738THF     O111022   0.702   2.067   2.787  0.6128  0.0708 -0.4232
  738THF     C211023   0.589   1.983   2.786  0.1196 -0.0349  0.8811
  738THF     C311024   0.773   2.030   2.911  0.7781 -0.4306 -0.0711
  738THF     H411025   0.556   1.977   2.682  1.2834  0.0619  0.4946
  738THF     H511026   0.516   2.030   2.853 -0.3556  4.8017 -2.4762
  738THF     H611027   0.879   2.055   2.900  1.1027 -1.9043 -0.4522
  738THF     H711028   0.739   2.093   2.993  0.5696 -1.2966  0.5188
  738THF     C811029   0.739   1.882   2.934 -0.4573 -0.4860  0.0132
  738THF     C911030   0.634   1.846   2.833 -0.0748  0.0171  0.1797
  738THF    H1011031   0.706   1.852   3.034 -1.3425  0.8514  0.1544
  738THF    H1111032   0.825   1.821   2.907 -1.9746 -2.5737 -0.3821
  738THF    H1211033   0.654   1.787   2.743 -1.0089 -0.7110  0.4323
  738THF    H1311034   0.560   1.796   2.895  1.4201 -0.1603  1.8983
  739THF     O111035   0.910   4.041   4.351 -0.0574  0.4887 -0.0070
  739THF     C211036   0.965   4.165   4.316  0.0609  0.0766  0.2205
  739THF     C311037   0.990   3.974   4.446 -0.3096  0.4282 -0.3914
  739THF     H411038   0.886   4.240   4.321  2.1664  2.4057  0.3209
  739THF     H511039   1.013   4.171   4.218  2.1387 -1.7914  1.0451
  739THF     H611040   0.927   3.903   4.499 -1.5027 -1.3958 -3.9913
  739THF     H711041   1.066   3.931   4.381 -0.4382 -1.5233  0.6716
  739THF     C811042   1.028   4.090   4.531 -0.2732 -0.0814 -0.4359
  739THF     C911043   1.068   4.193   4.429  0.2983 -0.3642  0.2168
  739THF    H1011044   1.111   4.076   4.601 -0.2307 -1.2218 -0.6896
  739THF    H1111045   0.938   4.121   4.584 -0.1203 -1.2960  0.5916
  739THF    H1211046   1.063   4.298   4.459 -1.9836 -0.7296  1.3227
  739THF    H1311047   1.163   4.172   4.379 -0.4732  0.2025 -1.5646
  740THF     O111048   0.415   0.379   3.701 -0.1216 -0.6378  0.1059
  740THF     C211049   0.508   0.292   3.766  0.7881 -0.0190  0.3359
  740THF     C311050   0.408   0.502   3.775  0.3136  0.0398  0.1305
  740THF     H411051   0.610   0.326   3.753  0.4025  1.1778  0.3525
  740THF     H511052   0.499   0.193   3.720 -1.0155 -0.1495  0.8784
  740THF     H611053   0.494   0.568   3.759  2.4281 -2.2921  1.1836
  740THF     H711054   0.324   0.566   3.748  0.3048 -0.0870 -0.1466
  740THF     C811055   0.412   0.450   3.918 -0.1027 -0.4923 -0.4012
  740THF     C911056   0.467   0.306   3.915  0.0863  0.4935  0.2469
  740THF    H1011057   0.318   0.456   3.971 -0.1146 -2.0416 -0.2026
  740THF    H1111058   0.476   0.514   3.978 -0.8625  0.0388 -0.1460
  740THF    H1211059   0.556   0.291   3.976  0.6116 -0.6871 -0.7685
  740THF    H1311060   0.392   0.231   3.939  1.6905 -0.8165  1.3279
  741THF     O111061   0.903   0.925   5.313 -0.5731 -0.2170  0.0125
  741THF     C211062   0.977   0.883   5.429 -0.0486 -0.6036  0.1589
  741THF     C311063   0.919   1.068   5.294 -0.1930 -0.1607 -0.2073
  741THF     H411064   1.024   0.790   5.396 -2.3495 -1.7510 -0.1185
  741THF     H511065   0.918   0.881   5.521  0.9370  0.8008  0.8477
  741THF     H611066   0.891   1.099   5.194  0.2024  0.9169 -0.0041
  741THF     H711067   0.859   1.124   5.366  2.7589  1.5913  1.0713
  741THF     C811068   1.068   1.075   5.319 -0.4585 -0.7181 -0.1551
  741THF     C911069   1.077   0.997   5.451 -0.3013 -0.3651 -0.1616
  741THF    H1011070   1.109   1.175   5.331  0.1271 -0.9612 -0.1112
  741THF    H1111071   1.113   1.021   5.236 -0.6946 -0.7112 -0.2896
  741THF    H1211072   1.182   0.967   5.455  0.8553  3.2953  0.7875
  741THF    H1311073   1.053   1.056   5.539 -0.4994  3.0029 -2.3052
  742THF     O111074   3.112   1.975   2.234 -0.9571  0.8177 -0.5469
  742THF     C211075   3.126   2.094   2.313 -0.3475 -0.4396  0.0468
  742THF     C311076   3.163   2.012   2.110  0.2670 -0.0623  0.4079
  742THF     H411077   3.121   2.072   2.420  0.5426  0.6831  0.3422
  742THF     H511078   3.053   2.169   2.281  0.1695 -0.0434 -0.2389
  742THF     H611079   3.197   1.931   2.046 -3.7745 -1.6154 -0.1130
  742THF     H711080   3.083   2.069   2.061 -1.9140 -3.2351 -0.0619
  742THF     C811081   3.294   2.093   2.143  0.3881 -0.1312  0.5062
  742THF     C911082   3.270   2.142   2.282  0.2377 -0.2515 -0.1506
  742THF    H1011083   3.293   2.176   2.072 -1.8679  0.1414  0.7562
  742THF    H1111084   3.382   2.030   2.131 -0.7085 -1.3448 -1.8776
  742THF    H1211085   3.346   2.098   2.346  1.7287 -0.1025 -1.7781
  742THF    H1311086   3.276   2.250   2.283  3.8236 -0.3333  2.1005
  743THF     O111087   1.202   0.596   3.821 -0.0812 -0.2626 -0.3167
  743THF     C211088   1.075   0.624   3.765  0.2106  0.4924  0.1400
  743THF     C311089   1.200   0.471   3.899 -0.4979 -0.6828  0.3727
  743THF     H411090   1.086   0.685   3.675  0.6727 -0.7190 -0.6446
  743THF     H511091   1.014   0.671   3.843  1.8375  1.7735  0.7141
  743THF     H611092   1.297   0.426   3.920 -0.3022  0.1451  1.2879
  743THF     H711093   1.164   0.485   4.000  0.8617 -1.5675  1.0152
  743THF     C811094   1.112   0.393   3.798  0.3767 -0.7019  0.2967
  743THF     C911095   1.009   0.491   3.741 -0.0912  0.7164  0.4567
  743THF    H1011096   1.077   0.301   3.845  2.0181 -1.9781 -0.8276
  743THF    H1111097   1.174   0.359   3.715 -1.4335 -3.1287 -0.2081
  743THF    H1211098   0.994   0.471   3.635  0.8718  0.5543  0.3345
  743THF    H1311099   0.914   0.478   3.792 -0.0459  1.7563  0.8284
  744THF     O111100   1.353   1.291   1.307  0.3560 -0.1778  0.0013
  744THF     C211101   1.372   1.273   1.448 -0.7614  0.8479  0.0725
  744THF     C311102   1.213   1.299   1.292  0.0232  0.5622 -0.5289
  744THF     H411103   1.466   1.299   1.495 -0.9674  2.0533 -0.1455
  744THF     H511104   1.348   1.172   1.479 -0.3326  0.0168 -2.1449
  744THF     H611105   1.192   1.366   1.209  0.2043  1.0121 -0.2163
  744THF     H711106   1.184   1.197   1.266 -0.5506  0.7319 -0.5768
  744THF     C811107   1.145   1.341   1.423  0.4301  0.3689 -0.6112
  744THF     C911108   1.266   1.365   1.504  0.0496  0.2933  0.0037
  744THF    H1011109   1.074   1.265   1.455  0.7930 -0.3382 -1.4583
  744THF    H1111110   1.079   1.428   1.416  0.4659  0.5100  0.6293
  744THF    H1211111   1.289   1.471   1.492 -0.0371  0.3328  0.1800
  744THF    H1311112   1.260   1.345   1.611  1.5674 -0.5386 -0.0407
  745THF     O111113   3.372   3.820   2.542 -0.1046 -0.0629  0.0562
  745THF     C211114   3.495   3.781   2.477  0.3591 -0.0463 -0.3149
  745THF     C311115   3.274   3.843   2.440 -0.2241 -0.4261  0.2767
  745THF     H411116   3.572   3.745   2.546  0.6221  0.6645 -0.2277
  745THF     H511117   3.543   3.867   2.430  1.7751 -1.1586 -0.9821
  745THF     H611118   3.171   3.844   2.475 -0.0518 -0.8697  0.8171
  745THF     H711119   3.288   3.936   2.385  2.7046 -0.6651  0.4366
  745THF     C811120   3.303   3.733   2.345 -0.1191 -0.4020  0.1670
  745THF     C911121   3.446   3.684   2.368  0.8095 -0.2874  0.0772
  745THF    H1011122   3.297   3.769   2.242 -1.4435  0.8228  0.6450
  745THF    H1111123   3.238   3.646   2.336  0.2920 -0.4890 -4.1368
  745THF    H1211124   3.459   3.583   2.409  1.5820  0.2790  1.3057
  745THF    H1311125   3.510   3.695   2.281 -1.3931  0.9179 -1.4855
  746THF     O111126   4.814   5.026   5.474  1.0216  0.0286 -0.8312
  746THF     C211127   4.707   4.953   5.411  0.3407  0.5235  0.7085
  746THF     C311128   4.933   5.005   5.391  0.3442 -0.0574  0.2114
  746THF     H411129   4.610   4.971   5.457 -0.4659 -2.4733  0.4133
  746THF     H511130   4.728   4.846   5.421 -1.3226  0.1889  0.8747
  746THF     H611131   4.998   5.089   5.416 -0.9218  0.2645  2.8218
  746THF     H711132   4.983   4.914   5.423 -0.0387 -0.5067 -0.4518
  746THF     C811133   4.882   4.998   5.246 -0.2361  0.8076 -0.0469
  746THF     C911134   4.731   4.986   5.264 -0.2116  0.9021 -0.0552
  746THF    H1011135   4.929   4.915   5.194  0.7048  0.5637  1.1725
  746THF    H1111136   4.915   5.089   5.194  1.7774  0.7140  0.9717
  746THF    H1211137   4.682   5.074   5.223 -2.6247 -1.0104 -1.5987
  746THF    H1311138   4.699   4.903   5.201 -3.1428  1.6388  0.3501
  747THF     O111139   1.084   4.638   0.011 -0.4830  0.6906 -0.3576
  747THF     C211140   1.102   4.681   0.146 -0.3064 -0.5031 -0.8220
  747THF     C311141   1.212   4.605  -0.040  0.2270  0.2444 -0.2325
  747THF     H411142   1.066   4.607   0.218 -0.6421 -0.3270 -0.8071
  747THF     H511143   1.042   4.771   0.161  0.0290 -0.4108  0.0559
  747THF     H611144   1.212   4.520  -0.109  4.4594 -0.1554 -0.0053
  747THF     H711145   1.241   4.692  -0.099  0.9680 -0.5657 -1.0966
  747THF     C811146   1.305   4.593   0.077  0.8149  0.1931  0.1299
  747THF     C911147   1.253   4.699   0.168  0.0805  0.5405  0.3862
  747THF    H1011148   1.409   4.609   0.052  0.6377 -0.1920 -0.9177
  747THF    H1111149   1.299   4.492   0.116 -1.9445 -0.8727 -2.6082
  747THF    H1211150   1.288   4.684   0.270 -1.4857  1.8922  1.1789
  747THF    H1311151   1.278   4.803   0.148 -2.5074  1.4248  1.2434
  748THF     O111152   1.536   2.684   4.288  0.1788  0.0144 -0.0019
  748THF     C211153   1.611   2.769   4.377 -0.4392 -0.0465  0.4174
  748THF     C311154   1.539   2.742   4.159 -0.2473 -0.5865  0.1976
  748THF     H411155   1.719   2.757   4.364 -0.5593 -0.4092 -0.3180
  748THF     H511156   1.596   2.745   4.482  1.4561 -0.8574  0.5468
  748THF     H611157   1.633   2.724   4.106  0.1787  2.0004 -0.0179
  748THF     H711158   1.457   2.708   4.095 -1.3128  1.9236  0.1476
  748THF     C811159   1.517   2.885   4.197  0.4264  0.0613  0.0291
  748THF     C911160   1.560   2.901   4.338 -0.0069 -0.2037 -0.4827
  748THF    H1011161   1.411   2.906   4.186  0.6299  0.4534 -1.4047
  748THF    H1111162   1.555   2.956   4.124  2.4164 -0.5584  0.3858
  748THF    H1211163   1.645   2.970   4.333 -0.1456 -0.0954 -1.4553
  748THF    H1311164   1.483   2.952   4.397 -0.1408 -2.9700  1.9505
  749THF     O111165   4.755   2.188   3.589  0.0449  0.5339  0.6867
  749THF     C211166   4.877   2.184   3.526 -0.9584 -0.4417 -0.0602
  749THF     C311167   4.674   2.255   3.492 -0.6812  0.5950 -1.0281
  749THF     H411168   4.893   2.124   3.436  2.4501  0.1122  0.0196
  749THF     H511169   4.961   2.155   3.590  0.8533  1.5572 -1.4028
  749THF     H611170   4.657   2.191   3.405  1.1916 -1.4864  0.0309
  749THF     H711171   4.573   2.266   3.532  0.4442 -0.0035  2.2807
  749THF     C811172   4.752   2.385   3.469 -0.4020 -0.2550  0.3174
  749THF     C911173   4.891   2.329   3.477  0.2819 -0.2003 -0.3661
  749THF    H1011174   4.717   2.453   3.547  1.1096 -0.0492  0.8650
  749THF    H1111175   4.720   2.425   3.373 -2.0154  1.3904  1.4739
  749THF    H1211176   4.940   2.336   3.379  1.8299 -1.6558  0.2633
  749THF    H1311177   4.947   2.388   3.550 -0.4141  0.9734 -0.7509
  750THF     O111178   2.410   2.600   4.294 -0.7299  0.0615  0.0288
  750THF     C211179   2.461   2.708   4.216  0.4191  0.0929 -0.6205
  750THF     C311180   2.375   2.502   4.200 -0.1336 -0.1795  0.6691
  750THF     H411181   2.521   2.774   4.280 -0.6469  1.0596 -0.5858
  750THF     H511182   2.384   2.764   4.162  0.7715 -1.0266 -2.3591
  750THF     H611183   2.369   2.401   4.239  0.6975 -2.0256 -3.3968
  750THF     H711184   2.279   2.521   4.153  1.5428 -1.2844 -3.7824
  750THF     C811185   2.487   2.516   4.088 -0.4595  0.1800 -0.3076
  750THF     C911186   2.554   2.646   4.122 -0.0649 -0.7193  0.3743
  750THF    H1011187   2.449   2.485   3.991 -0.5624  2.5167 -1.0710
  750THF    H1111188   2.561   2.438   4.109 -1.2806 -0.3414  0.7223
  750THF    H1211189   2.645   2.626   4.179  0.4126 -0.4082 -0.2638
  750THF    H1311190   2.581   2.712   4.039 -0.3972 -1.1418 -0.0797
  751THF     O111191   1.317   2.297   4.055 -0.6755 -0.0866  0.4953
  751THF     C211192   1.226   2.189   4.062 -0.3159 -0.1728 -0.0711
  751THF     C311193   1.243   2.417   4.048 -0.2822  0.4942  0.2037
  751THF     H411194   1.265   2.114   4.131  1.9736  1.9736  1.1191
  751THF     H511195   1.213   2.138   3.967 -0.9415 -1.5279  0.7003
  751THF     H611196   1.293   2.485   4.118  0.3945 -0.8505  1.0630
  751THF     H711197   1.270   2.456   3.950 -1.2492  0.6869 -0.0016
  751THF     C811198   1.087   2.394   4.055 -0.7906 -0.5291  0.3649
  751THF     C911199   1.101   2.258   4.118 -0.1193  0.2217  0.2501
  751THF    H1011200   1.039   2.406   3.958 -1.3654  1.5284  0.8537
  751THF    H1111201   1.038   2.457   4.129 -1.2455 -2.6628  1.9975
  751THF    H1211202   1.116   2.271   4.225 -1.4156 -1.5493  0.6874
  751THF    H1311203   1.014   2.193   4.117  2.0338 -2.8491 -1.0804
  752THF     O111204   3.787   2.504   2.710 -0.8765 -0.3111 -0.6182
  752THF     C211205   3.805   2.428   2.833  0.3290  0.1392  0.0707
  752THF     C311206   3.828   2.416   2.611 -0.3726 -0.0317 -0.6989
  752THF     H411207   3.728   2.351   2.843  0.8730 -0.2627  1.3719
  752THF     H511208   3.786   2.496   2.916 -3.2450 -0.6569  0.0510
  752THF     H611209   3.752   2.338   2.604 -0.8021 -0.1045  2.8376
  752THF     H711210   3.830   2.470   2.517  0.0931 -0.1367 -0.7537
  752THF     C811211   3.962   2.357   2.665 -0.1430  0.4380 -0.3442
  752THF     C911212   3.947   2.369   2.814  0.0475 -0.0212  0.1424
  752THF    H1011213   4.041   2.423   2.629  0.7597  0.8568  2.1796
  752THF    H1111214   3.980   2.253   2.639  2.5244 -0.0166  2.7022
  752THF    H1211215   3.954   2.268   2.854 -0.4247 -1.5812 -3.3673
  752THF    H1311216   4.024   2.422   2.869 -1.9875  0.7623  2.4791
  753THF     O111217   5.272   1.273   2.078 -0.2380 -0.2460 -0.0240
  753THF     C211218   5.335   1.153   2.129 -0.2227 -0.1153 -0.1472
  753THF     C311219   5.287   1.294   1.940 -0.2547 -0.8521 -0.0641
  753THF     H411220   5.252   1.084   2.141 -0.3273  0.3568  2.5085
  753THF     H511221   5.380   1.168   2.227  1.3115 -1.4572 -0.6089
  753THF     H611222   5.198   1.330   1.890 -0.9712 -1.3992  0.7873
  753THF     H711223   5.365   1.370   1.934 -0.7976 -0.3550 -1.1012
  753THF     C811224   5.352   1.169   1.891 -0.9705 -0.5599 -0.1433
  753THF     C911225   5.416   1.110   2.020 -0.2189  0.3021  0.1013
  753THF    H1011226   5.431   1.186   1.818  1.2371 -3.3315  1.4045
  753THF    H1111227   5.289   1.097   1.838  2.6097 -2.6883 -1.9320
  753THF    H1211228   5.437   1.003   2.014  3.1297  0.9038 -0.7002
  753THF    H1311229   5.510   1.155   2.050  0.6735 -0.6791 -1.1173
  754THF     O111230   3.538   4.267   1.517  0.2197  0.5081 -0.2477
  754THF     C211231   3.481   4.238   1.389 -0.7255  0.7403 -0.0575
  754THF     C311232   3.585   4.143   1.582 -0.2061  0.3966  0.4497
  754THF     H411233   3.561   4.234   1.314  0.4474  0.1686  1.1702
  754THF     H511234   3.399   4.309   1.381 -1.9928 -0.8053 -1.6034
  754THF     H611235   3.689   4.132   1.551 -0.6391 -0.7024 -0.6974
  754THF     H711236   3.575   4.150   1.690 -1.7299 -0.0134  0.3588
  754THF     C811237   3.512   4.032   1.517 -0.7982  0.6982 -0.3059
  754THF     C911238   3.427   4.096   1.414  0.1226  0.4421 -0.3797
  754THF    H1011239   3.443   3.974   1.579  0.0678  0.7149  0.7064
  754THF    H1111240   3.574   3.954   1.472 -2.3424 -0.2436 -0.8693
  754THF    H1211241   3.415   4.044   1.319  0.4286 -0.4674  0.0665
  754THF    H1311242   3.327   4.104   1.457  0.3149 -0.9961  0.4217
  755THF     O111243   3.823   0.973   0.620 -0.0620  0.1465  0.5185
  755THF     C211244   3.734   0.886   0.544 -0.1887 -0.5866  0.6078
  755THF     C311245   3.829   0.909   0.752 -0.7556  0.5711  0.0962
  755THF     H411246   3.791   0.799   0.512  0.3083 -0.1039  0.1418
  755THF     H511247   3.698   0.940   0.456  2.9206 -0.1816 -0.5574
  755THF     H611248   3.900   0.828   0.767  0.3350  1.4288 -0.2771
  755THF     H711249   3.874   0.973   0.828  2.0151 -1.6996  0.5475
  755THF     C811250   3.685   0.865   0.779  0.1245 -0.4096 -0.4085
  755THF     C911251   3.622   0.848   0.642 -0.2059 -0.6310  0.1725
  755THF    H1011252   3.637   0.947   0.832  2.6148  2.0956 -1.7792
  755THF    H1111253   3.675   0.781   0.848  0.2676 -2.2998 -2.5516
  755THF    H1211254   3.579   0.752   0.616 -1.2582  0.1302 -1.0264
  755THF    H1311255   3.542   0.922   0.634  0.9053  0.6257  0.3196
  756THF     O111256   3.833   4.176   5.036 -0.3376  0.0708  0.4694
  756THF     C211257   3.942   4.269   5.055 -0.3115  0.0430 -0.2458
  756THF     C311258   3.746   4.163   5.147  0.9406 -0.2583  0.2764
  756THF     H411259   3.907   4.367   5.024 -0.8392 -0.9448 -3.1204
  756THF     H511260   4.036   4.248   5.003 -0.9572  1.8547 -2.2582
  756THF     H611261   3.669   4.240   5.147  0.0710 -1.1087 -1.2617
  756THF     H711262   3.703   4.063   5.146  0.0427  0.0837  1.6259
  756THF     C811263   3.839   4.180   5.267 -0.6994 -0.1871  0.4795
  756THF     C911264   3.966   4.250   5.207  0.4718 -0.1846  0.1053
  756THF    H1011265   3.866   4.081   5.304  1.0627 -0.6614 -1.8855
  756THF    H1111266   3.799   4.240   5.349  0.5040  1.8699 -0.3639
  756THF    H1211267   3.979   4.347   5.256  3.9206 -0.6223  0.2935
  756THF    H1311268   4.047   4.180   5.227 -2.0504 -2.7440  2.3080
  757THF     O111269   2.487   4.852   3.888  0.4095  0.6363 -0.6268
  757THF     C211270   2.539   4.924   3.777 -0.6083 -0.8568 -0.1446
  757THF     C311271   2.486   4.950   3.992 -0.1162  0.9431  0.4189
  757THF     H411272   2.512   4.878   3.682  0.7345 -2.2003  0.0942
  757THF     H511273   2.647   4.937   3.788 -1.1032  3.1375  2.0908
  757THF     H611274   2.420   4.915   4.071  0.6516 -1.1546  0.2025
  757THF     H711275   2.581   4.961   4.045  0.7161  2.5497 -1.2851
  757THF     C811276   2.459   5.081   3.925  0.3732 -0.4764  0.0636
  757THF     C911277   2.471   5.060   3.783  0.1647  0.2006 -0.5327
  757THF    H1011278   2.518   5.164   3.962 -0.2959 -0.6780  1.6617
  757THF    H1111279   2.365   5.120   3.963  2.4333  4.2520  1.0840
  757THF    H1211280   2.376   5.049   3.731 -0.4493 -0.2867  0.6422
  757THF    H1311281   2.525   5.138   3.730 -0.4864  2.1811  1.5381
  758THF     O111282   1.011   4.239   0.338 -0.3985 -0.1559  0.1912
  758THF     C211283   0.877   4.257   0.294  0.2717  0.0771 -0.4443
  758THF     C311284   1.027   4.320   0.456 -0.2319  0.6116  1.0880
  758THF     H411285   0.848   4.184   0.219 -1.9286  1.6421 -1.2250
  758THF     H511286   0.857   4.356   0.253  1.8399  1.0285  0.9596
  758THF     H611287   1.106   4.284   0.522 -1.3186 -0.7014  1.7279
  758THF     H711288   1.046   4.424   0.428  0.1621  0.5795  1.2364
  758THF     C811289   0.894   4.304   0.524  0.7637  0.3569 -0.0707
  758THF     C911290   0.796   4.245   0.426 -0.2943  0.1556  0.5306
  758THF    H1011291   0.866   4.398   0.572 -2.1583 -0.8420  0.7615
  758THF    H1111292   0.900   4.229   0.603 -1.2821 -2.3937 -2.3635
  758THF    H1211293   0.782   4.139   0.446  0.1134 -0.4996 -2.3208
  758THF    H1311294   0.696   4.283   0.409 -0.4044 -0.6435 -0.7381
  759THF     O111295   3.141   4.474   4.679 -0.7482 -0.1170 -0.2341
  759THF     C211296   3.172   4.499   4.811 -0.5744 -0.1159 -0.0550
  759THF     C311297   3.103   4.602   4.611  0.8570 -0.4453  0.3753
  759THF     H411298   3.270   4.453   4.823  0.3022  1.4730 -0.7747
  759THF     H511299   3.094   4.471   4.881 -1.9382  2.3718 -0.4700
  759THF     H611300   3.129   4.604   4.506 -0.8310 -0.9483 -0.0836
  759THF     H711301   2.994   4.599   4.614  0.8712 -0.9144  0.6477
  759THF     C811302   3.157   4.716   4.691 -0.3508 -0.5966 -0.5488
  759THF     C911303   3.186   4.657   4.824  0.1139 -0.1905 -0.8267
  759THF    H1011304   3.091   4.802   4.700 -5.3167 -4.1232  0.8848
  759THF    H1111305   3.234   4.737   4.617  1.7630 -0.2926  1.5999
  759THF    H1211306   3.294   4.668   4.833  0.2572 -0.8964 -1.5593
  759THF    H1311307   3.141   4.700   4.912 -0.8318 -1.2017 -0.7902
  760THF     O111308   2.249   4.222   1.260  0.3142  0.5041 -0.0806
  760THF     C211309   2.208   4.291   1.142  0.4621  0.6241 -0.1930
  760THF     C311310   2.236   4.314   1.373 -0.5027  0.5773 -0.3057
  760THF     H411311   2.103   4.319   1.147  0.1987 -0.1622 -0.9718
  760THF     H511312   2.224   4.248   1.043 -2.6639 -0.1484 -0.4658
  760THF     H611313   2.133   4.327   1.407 -0.0037 -0.2808  1.7036
  760THF     H711314   2.299   4.304   1.462 -1.7063  2.1765  0.8026
  760THF     C811315   2.275   4.447   1.314 -0.1167 -0.1640 -0.3028
  760THF     C911316   2.273   4.428   1.160  0.2122  0.1062 -0.3066
  760THF    H1011317   2.372   4.473   1.358 -0.4237 -1.8277  1.5030
  760THF    H1111318   2.202   4.525   1.333 -0.5920 -0.5511 -0.5303
  760THF    H1211319   2.213   4.513   1.128  0.6206  1.0536  1.3235
  760THF    H1311320   2.375   4.433   1.121  0.3270 -1.2335 -0.2166
  761THF     O111321   0.214   5.235   2.965  0.0670  0.1406  0.7276
  761THF     C211322   0.178   5.355   3.032  0.1406  0.7415 -1.0409
  761THF     C311323   0.148   5.223   2.836 -0.1497  0.2628  0.4112
  761THF     H411324   0.259   5.427   3.020  0.8382 -0.1856 -2.1342
  761THF     H511325   0.168   5.333   3.138 -0.3329  1.6569 -0.8806
  761THF     H611326   0.218   5.237   2.754  0.1983  0.2633  0.7055
  761THF     H711327   0.107   5.122   2.840  3.4847 -1.4076 -0.3191
  761THF     C811328   0.047   5.339   2.831  0.1642  0.3677  0.5110
  761THF     C911329   0.038   5.396   2.972  0.0564 -0.1529  0.5880
  761THF    H1011330  -0.049   5.299   2.798 -0.7224  0.5494  2.6613
  761THF    H1111331   0.093   5.413   2.766 -2.7687  0.6469 -1.4249
  761THF    H1211332   0.029   5.504   2.966  3.5912  0.2442 -0.1506
  761THF    H1311333  -0.039   5.360   3.039  1.4153 -1.0877  1.7164
  762THF     O111334   1.958   1.328   4.835 -0.2784 -0.2234 -0.4050
  762THF     C211335   1.846   1.395   4.788 -0.3433  0.4237  0.3362
  762THF     C311336   1.922   1.286   4.965 -0.0069 -0.8418 -0.1557
  762THF     H411337   1.762   1.328   4.771 -0.1249  0.2460 -0.0773
  762THF     H511338   1.862   1.451   4.695 -0.3017  0.8243  0.5832
  762THF     H611339   1.858   1.198   4.964  2.3756 -2.7236  1.3574
  762THF     H711340   2.011   1.266   5.025  0.7720 -0.2008 -1.0730
  762THF     C811341   1.848   1.403   5.026  0.6027 -0.3761 -0.5917
  762THF     C911342   1.809   1.487   4.905  0.7402 -0.0766 -1.5051
  762THF    H1011343   1.924   1.452   5.087  1.3652 -0.6226 -1.3276
  762THF    H1111344   1.760   1.373   5.082  0.2704  1.4118 -0.0985
  762THF    H1211345   1.703   1.515   4.902  0.2684 -1.3368  0.9932
  762THF    H1311346   1.860   1.583   4.903  2.0338 -0.5757  1.5804
  763THF     O111347   2.178   3.372   5.157 -0.2870 -0.1025 -0.1613
  763THF     C211348   2.181   3.514   5.169 -0.3606  0.2948  0.0858
  763THF     C311349   2.296   3.322   5.216 -0.4552 -0.2985 -0.5854
  763THF     H411350   2.122   3.550   5.253 -0.3207  0.1429  0.1790
  763THF     H511351   2.146   3.549   5.072  0.9791  0.9239 -0.2042
  763THF     H611352   2.276   3.317   5.323 -0.5984  0.1000 -0.5939
  763THF     H711353   2.312   3.221   5.179 -1.3485 -0.3217 -0.9329
  763THF     C811354   2.407   3.419   5.182 -0.2752 -0.0153  0.4710
  763THF     C911355   2.332   3.547   5.194  1.1125 -0.3679  0.3665
  763THF    H1011356   2.415   3.393   5.076 -0.2062 -0.4172  0.5729
  763THF    H1111357   2.496   3.414   5.246 -0.2403  1.3659  0.5561
  763THF    H1211358   2.342   3.597   5.290 -1.5377  2.5875 -0.7264
  763THF    H1311359   2.368   3.619   5.122 -2.6027  0.6869 -0.6652
  764THF     O111360   0.146   5.402   0.926 -0.0725  0.3010 -0.4170
  764THF     C211361   0.082   5.276   0.936  0.4694  0.9190  0.1041
  764THF     C311362   0.076   5.482   1.016  0.0800  0.3877 -0.3905
  764THF     H411363   0.148   5.215   0.997  1.2865  1.3607 -0.3117
  764THF     H511364   0.082   5.219   0.843  2.3617  2.0917 -0.6825
  764THF     H611365   0.152   5.539   1.068  0.2328  0.1184 -0.3168
  764THF     H711366   0.017   5.547   0.951  1.8130 -1.2596 -3.8970
  764THF     C811367  -0.010   5.392   1.107 -0.1341 -0.0421 -0.2815
  764THF     C911368  -0.050   5.293   1.008  0.7739  0.3353 -0.2099
  764THF    H1011369  -0.099   5.449   1.135 -0.9557 -1.4648  0.0742
  764THF    H1111370   0.038   5.362   1.200 -1.6244  2.7217  1.5176
  764THF    H1211371  -0.080   5.198   1.052 -1.2845  0.8053 -0.4990
  764THF    H1311372  -0.128   5.329   0.941  0.3041 -0.3201 -0.0281
  765THF     O111373   2.057   2.175   2.385  0.2909  0.0654  0.6912
  765THF     C211374   2.038   2.077   2.482 -0.4102 -0.2412  0.0143
  765THF     C311375   2.134   2.275   2.450  0.1825 -0.2557  0.5130
  765THF     H411376   2.004   1.983   2.437  0.3434 -0.8829  0.7529
  765THF     H511377   1.957   2.111   2.546  0.1473  0.0488  0.5763
  765THF     H611378   2.193   2.335   2.381  0.4739  0.1213  1.0908
  765THF     H711379   2.065   2.344   2.499  2.4282  0.9684  2.0886
  765THF     C811380   2.214   2.207   2.562  0.4419  0.4372 -0.2916
  765THF     C911381   2.171   2.062   2.552 -0.4634  0.2592  0.0305
  765THF    H1011382   2.195   2.254   2.658 -1.9788  0.5938 -0.7757
  765THF    H1111383   2.321   2.218   2.543  0.5588  0.0044  0.0904
  765THF    H1211384   2.236   2.005   2.486  0.5500  2.1898 -0.7240
  765THF    H1311385   2.173   2.008   2.647 -2.1899  0.0906  0.0127
  766THF     O111386   3.519   1.753   4.453  0.1201 -0.3709  0.0249
  766THF     C211387   3.645   1.713   4.407 -0.8365  0.5093 -0.1959
  766THF     C311388   3.484   1.649   4.552  0.5029 -0.6543  0.1429
  766THF     H411389   3.699   1.789   4.352  2.4655 -1.5136 -0.0175
  766THF     H511390   3.627   1.633   4.335  0.0084 -0.1197  0.2679
  766THF     H611391   3.409   1.690   4.619 -0.2361  0.4684 -1.3270
  766THF     H711392   3.447   1.560   4.501  0.8599  0.2249 -1.7272
  766THF     C811393   3.616   1.612   4.621 -0.2341 -0.3622 -0.3600
  766THF     C911394   3.725   1.664   4.527 -0.1658  0.2276 -0.2398
  766THF    H1011395   3.620   1.504   4.635  0.2808 -0.2586  0.3421
  766THF    H1111396   3.627   1.659   4.719 -1.1020  0.4257 -0.6242
  766THF    H1211397   3.775   1.752   4.568  1.7172 -0.4371 -0.9996
  766THF    H1311398   3.792   1.581   4.506  1.8890  0.3607  4.6117
  767THF     O111399   1.744   1.403   0.316  0.0270 -0.8892 -0.1677
  767THF     C211400   1.885   1.373   0.328  0.5258 -0.3498  0.1551
  767THF     C311401   1.706   1.384   0.186 -0.0940  0.2452  0.7393
  767THF     H411402   1.887   1.264   0.320  0.1865 -0.4417  1.1941
  767THF     H511403   1.920   1.412   0.423  1.3891  0.6524 -0.5595
  767THF     H611404   1.706   1.276   0.175  3.5376  0.1024  0.8558
  767THF     H711405   1.604   1.422   0.183 -0.7068 -1.2294 -2.9802
  767THF     C811406   1.807   1.460   0.108  0.1825 -0.0765 -0.0621
  767THF     C911407   1.933   1.442   0.196  0.3786 -0.4528 -0.8904
  767THF    H1011408   1.770   1.563   0.107  0.0552 -0.1218 -0.8570
  767THF    H1111409   1.810   1.429   0.004  2.2612 -0.3471  0.0422
  767THF    H1211410   2.010   1.389   0.141  3.1394  1.9054  0.4423
  767THF    H1311411   1.988   1.533   0.221 -1.9960  0.4843  1.4395
  768THF     O111412   2.318   4.848   0.399  0.3940  0.0739  0.4942
  768THF     C211413   2.406   4.957   0.389  0.1646  0.0514 -0.2985
  768THF     C311414   2.289   4.804   0.270  0.3355  0.2236 -0.0970
  768THF     H411415   2.509   4.923   0.402  0.6465  1.4828 -0.2484
  768THF     H511416   2.376   5.021   0.471 -2.2640 -0.9984 -0.2902
  768THF     H611417   2.373   4.750   0.227  0.2328 -2.1737  2.4175
  768THF     H711418   2.197   4.747   0.262  0.8415 -0.7363  0.7056
  768THF     C811419   2.271   4.933   0.195  0.3658  0.2398 -0.1098
  768THF     C911420   2.380   5.015   0.252 -0.5339  0.0261  0.0989
  768THF    H1011421   2.181   4.981   0.233 -0.4864 -2.0141  0.8880
  768THF    H1111422   2.243   4.925   0.090  0.3847  2.5358 -0.3484
  768THF    H1211423   2.470   5.006   0.191 -0.0895  2.9577  0.1447
  768THF    H1311424   2.351   5.120   0.248 -0.7617 -0.0731 -1.5215
  769THF     O111425   4.155   2.244   2.354  0.1187  0.3089  0.0724
  769THF     C211426   4.257   2.340   2.381 -0.2617  0.2633  0.2848
  769THF     C311427   4.201   2.143   2.263  0.0582 -0.3683 -0.0859
  769THF     H411428   4.252   2.373   2.485  2.2310  0.6211  0.3524
  769THF     H511429   4.263   2.421   2.308 -0.3617  1.0488  1.1267
  769THF     H611430   4.133   2.059   2.265  0.3566 -0.6024  0.7284
  769THF     H711431   4.207   2.202   2.171 -0.5917  0.7444  0.5666
  769THF     C811432   4.340   2.114   2.313  0.1235  1.0499  0.1274
  769THF     C911433   4.381   2.249   2.366 -0.3620  0.5705 -0.2930
  769THF    H1011434   4.400   2.066   2.235 -1.1316  1.3297 -1.0449
  769THF    H1111435   4.340   2.047   2.398  0.5892  1.5025  0.4924
  769THF    H1211436   4.436   2.245   2.460  0.0648  2.5513 -0.3996
  769THF    H1311437   4.451   2.287   2.291  0.7569 -1.1308 -0.1711
  770THF     O111438   3.314   1.629   5.479 -0.3384 -0.6416  0.2084
  770THF     C211439   3.219   1.547   5.405  0.1228 -0.2051 -0.1116
  770THF     C311440   3.229   1.727   5.545  0.1564 -0.5561 -0.6950
  770THF     H411441   3.208   1.452   5.456  0.4012 -2.3772 -3.7146
  770THF     H511442   3.272   1.518   5.313 -0.1777 -0.9843 -0.0462
  770THF     H611443   3.189   1.689   5.639 -0.4738 -0.7663 -1.0458
  770THF     H711444   3.294   1.804   5.586  1.1209 -1.9542  0.4898
  770THF     C811445   3.126   1.763   5.447  0.3208  0.5814 -0.3391
  770THF     C911446   3.090   1.625   5.389  0.1978  0.1046 -0.1364
  770THF    H1011447   3.178   1.832   5.381 -1.4751  0.9823 -1.4085
  770THF    H1111448   3.039   1.797   5.504  0.0243 -1.8686  0.8141
  770THF    H1211449   3.007   1.575   5.439  0.1831  1.9792  1.8290
  770THF    H1311450   3.071   1.629   5.282  0.1170  1.7550 -0.0782
  771THF     O111451   0.998   1.957   3.958 -0.1851 -0.1089 -0.5597
  771THF     C211452   0.984   1.834   4.024  0.0536 -0.4606  0.5813
  771THF     C311453   1.028   1.936   3.823 -0.0200  0.9591 -0.4766
  771THF     H411454   0.886   1.794   3.996 -1.1078  2.2279  0.5087
  771THF     H511455   0.982   1.849   4.132  0.2485  2.8178  0.2046
  771THF     H611456   0.940   1.893   3.776 -0.4828 -0.1051  1.2735
  771THF     H711457   1.061   2.025   3.769  0.2203  1.1524 -0.0220
  771THF     C811458   1.127   1.828   3.839 -0.9154  0.4267  0.1112
  771THF     C911459   1.104   1.763   3.970 -0.2579  0.2943  0.0857
  771THF    H1011460   1.226   1.871   3.825 -0.0487 -1.2768  0.7741
  771THF    H1111461   1.102   1.764   3.754 -1.1160  0.3785  0.2057
  771THF    H1211462   1.101   1.654   3.959 -1.6397  0.4869 -1.6837
  771THF    H1311463   1.184   1.790   4.040 -0.7681 -0.5574  1.0165
  772THF     O111464   1.940   4.615   3.223 -0.1170  0.0321 -0.3292
  772THF     C211465   1.996   4.503   3.294  0.2703 -0.6074  0.1696
  772THF     C311466   1.920   4.722   3.312 -0.2891 -0.6307 -0.2406
  772THF     H411467   2.104   4.508   3.311  0.4889 -1.5691 -0.7935
  772THF     H511468   1.982   4.408   3.243 -0.1345 -0.4675  0.0113
  772THF     H611469   2.014   4.776   3.315 -0.8262  0.3539 -0.7247
  772THF     H711470   1.838   4.788   3.283  1.9092  2.1653 -0.4907
  772THF     C811471   1.905   4.652   3.445  0.2543 -0.9858 -0.6981
  772THF     C911472   1.938   4.507   3.429 -0.4889  0.0497  0.2056
  772THF    H1011473   1.805   4.681   3.479  0.3481  0.6638 -1.7274
  772THF    H1111474   1.982   4.693   3.511 -0.1463  0.7627 -1.2598
  772THF    H1211475   2.011   4.466   3.499 -1.4881 -0.2034  1.1260
  772THF    H1311476   1.844   4.453   3.442 -0.5721  0.4492  1.4381
  773THF     O111477   3.568   3.463   1.758 -0.1509 -0.0900  0.0951
  773THF     C211478   3.675   3.516   1.683 -0.2906 -0.1756  0.1518
  773THF     C311479   3.614   3.427   1.888  0.2731  0.1855 -0.6049
  773THF     H411480   3.659   3.574   1.592  1.0730 -1.0080 -0.6415
  773THF     H511481   3.733   3.428   1.656 -2.2080 -1.2394 -0.6429
  773THF     H611482   3.536   3.428   1.964  0.4475  2.1851 -0.3973
  773THF     H711483   3.666   3.331   1.883 -0.6174 -0.2898 -0.9978
  773THF     C811484   3.708   3.541   1.926 -0.5179  0.1616 -0.2703
  773THF     C911485   3.744   3.601   1.794 -0.0021 -0.1347  0.0762
  773THF    H1011486   3.794   3.495   1.975  0.1740 -1.7000 -2.9870
  773THF    H1111487   3.650   3.598   1.999 -3.1882 -2.0849 -0.4586
  773THF    H1211488   3.703   3.702   1.786  0.9757  0.1717 -1.5798
  773THF    H1311489   3.852   3.605   1.774 -0.4903  0.7349 -2.8699
  774THF     O111490   3.871   2.098   0.712  0.1248 -0.0173  0.1420
  774THF     C211491   4.010   2.123   0.685 -0.5574  0.1684 -0.2570
  774THF     C311492   3.808   2.061   0.594  0.7792  0.0601 -0.7181
  774THF     H411493   4.077   2.105   0.769 -0.9210 -0.9698 -0.1998
  774THF     H511494   4.020   2.228   0.658  1.0854  0.3352  0.8614
  774THF     H611495   3.742   1.980   0.625  0.1997  0.4266 -0.9996
  774THF     H711496   3.746   2.137   0.549 -0.2662  0.2246  0.9194
  774THF     C811497   3.911   1.997   0.499 -0.8434  0.1679  0.5324
  774THF     C911498   4.045   2.010   0.581  0.5038 -0.5267 -0.2210
  774THF    H1011499   3.920   2.054   0.407  1.2186 -1.9619 -0.7037
  774THF    H1111500   3.890   1.894   0.472  0.0002 -0.2412  1.3550
  774THF    H1211501   4.066   1.925   0.646 -0.2294 -1.7438 -1.5394
  774THF    H1311502   4.134   2.031   0.523  0.4728 -1.0956 -0.4727
  775THF     O111503   3.191   3.565   4.640  0.3485  0.2089 -0.8245
  775THF     C211504   3.310   3.493   4.687  0.6071  0.3939 -0.9355
  775THF     C311505   3.111   3.599   4.752 -0.5600 -0.2517 -0.1823
  775THF     H411506   3.378   3.569   4.726 -1.7184  1.2616  1.7995
  775THF     H511507   3.350   3.434   4.604  0.3549  0.2714 -0.9692
  775THF     H611508   3.134   3.701   4.784  2.9558 -0.6094 -1.1488
  775THF     H711509   3.004   3.604   4.731 -0.7240  0.0567  0.6795
  775THF     C811510   3.139   3.496   4.858  0.0001  0.5513  0.6422
  775THF     C911511   3.253   3.413   4.800  0.2791 -0.0311  0.0909
  775THF    H1011512   3.051   3.433   4.863  0.3377  0.1517  1.8493
  775THF    H1111513   3.165   3.532   4.958 -0.6270 -0.0674  1.0350
  775THF    H1211514   3.332   3.394   4.873 -1.2883 -0.1479  1.8035
  775THF    H1311515   3.217   3.316   4.765 -0.7357  0.2567  0.3194
  776THF     O111516   2.923   3.930   4.620  0.5697 -0.3234 -0.0330
  776THF     C211517   3.058   3.948   4.636  0.1745  0.1520 -0.2907
  776THF     C311518   2.879   3.971   4.488  0.0854  0.0784  0.2760
  776THF     H411519   3.117   3.856   4.631  0.8764  0.0467  4.5950
  776THF     H511520   3.078   3.974   4.741 -0.6185 -2.1241  0.4776
  776THF     H611521   2.870   3.884   4.424  1.9125 -2.1219  2.7757
  776THF     H711522   2.787   4.029   4.503 -0.7848 -1.1738 -0.0798
  776THF     C811523   2.994   4.049   4.432  0.2114 -0.1005 -0.4266
  776THF     C911524   3.095   4.069   4.544 -0.4301 -0.5239 -0.0715
  776THF    H1011525   2.958   4.142   4.388  2.3107 -0.8819 -4.2919
  776THF    H1111526   3.049   4.000   4.351  1.0416 -1.9437  1.1860
  776THF    H1211527   3.198   4.071   4.508 -0.9318 -0.5987 -1.5661
  776THF    H1311528   3.080   4.160   4.602  2.0706 -0.3269  0.3702
  777THF     O111529   3.401   3.913   5.203 -0.0502 -0.3785  0.1944
  777THF     C211530   3.411   3.895   5.064 -0.2162  0.3361  0.3127
  777THF     C311531   3.388   3.780   5.251  1.0711 -0.1612  0.0200
  777THF     H411532   3.505   3.844   5.046 -2.4910 -4.4072  0.2855
  777THF     H511533   3.416   3.981   4.997 -1.4318  0.3812  0.2422
  777THF     H611534   3.488   3.737   5.244  1.2741  0.3868 -0.6354
  777THF     H711535   3.347   3.785   5.351  0.5751 -2.5181 -0.0225
  777THF     C811536   3.285   3.711   5.155 -0.3071  0.2315 -0.3747
  777THF     C911537   3.304   3.793   5.030 -0.0861 -0.0004 -0.3958
  777THF    H1011538   3.186   3.723   5.198  0.3619 -2.9258  2.4808
  777THF    H1111539   3.312   3.606   5.143  0.9424  0.2628  1.6797
  777THF    H1211540   3.336   3.737   4.942 -1.2882  0.2317 -0.9917
  777THF    H1311541   3.209   3.844   5.013  0.9770  2.9305  1.6162
  778THF     O111542   4.744   1.744   2.358 -0.3642 -0.6698 -0.0674
  778THF     C211543   4.887   1.754   2.382  0.2060  0.0316  0.4110
  778THF     C311544   4.684   1.724   2.485  0.7736 -0.3309 -0.0898
  778THF     H411545   4.939   1.792   2.294 -0.2833 -0.1429  0.0430
  778THF     H511546   4.928   1.658   2.416  2.2899  0.7387  0.0502
  778THF     H611547   4.576   1.738   2.482  0.7965 -0.2724 -1.3256
  778THF     H711548   4.696   1.629   2.538 -0.8409 -0.7367 -0.3971
  778THF     C811549   4.749   1.829   2.567  0.1996 -0.0909 -0.7571
  778THF     C911550   4.894   1.837   2.514 -0.4699 -0.1327 -0.3081
  778THF    H1011551   4.742   1.809   2.673  0.6360  2.4315 -0.1900
  778THF    H1111552   4.709   1.927   2.542 -0.8849  0.0985  1.4919
  778THF    H1211553   4.905   1.942   2.491  0.4995  0.2755  1.7720
  778THF    H1311554   4.983   1.813   2.572  0.0563 -2.3021 -1.8790
  779THF     O111555   4.545   1.319   3.271  0.8930  0.1298  0.8500
  779THF     C211556   4.581   1.452   3.261 -0.2300  0.6109 -0.7188
  779THF     C311557   4.495   1.272   3.144  0.0130  0.3203  0.6839
  779THF     H411558   4.677   1.467   3.213 -0.8411 -0.5740 -2.4112
  779THF     H511559   4.577   1.498   3.360  1.1541  1.1705 -0.9107
  779THF     H611560   4.568   1.224   3.079 -0.2684 -0.6091  1.0452
  779THF     H711561   4.405   1.212   3.157  0.5135 -0.9243 -1.2570
  779THF     C811562   4.463   1.394   3.068 -0.1717 -0.8494 -0.0702
  779THF     C911563   4.475   1.504   3.171  0.4569 -0.0461 -0.1910
  779THF    H1011564   4.357   1.388   3.046 -0.2517 -1.0871  0.3605
  779THF    H1111565   4.515   1.408   2.974 -1.8565  0.3746 -0.8813
  779THF    H1211566   4.494   1.603   3.130  0.9871 -0.7424 -1.6870
  779THF    H1311567   4.382   1.509   3.228  0.2277  1.2634 -0.6271
  780THF     O111568   1.762   3.634   3.546 -0.4230  0.0301 -0.1866
  780THF     C211569   1.796   3.587   3.414  0.2621 -0.0031  0.4355
  780THF     C311570   1.638   3.695   3.551 -0.4087 -0.0906  0.0784
  780THF     H411571   1.737   3.498   3.395 -1.6558  1.2864  0.1416
  780THF     H511572   1.903   3.569   3.400  0.7275  1.8070  1.3119
  780THF     H611573   1.558   3.643   3.603  1.2126 -2.0911  0.7364
  780THF     H711574   1.644   3.789   3.606  0.1819 -0.5744  0.8590
  780THF     C811575   1.602   3.726   3.409  0.2143 -0.3284  1.3000
  780THF     C911576   1.733   3.702   3.330  0.8143 -0.2086  0.5319
  780THF    H1011577   1.556   3.825   3.410  1.1320  0.1315  0.0310
  780THF    H1111578   1.526   3.653   3.380  2.4030 -1.6462 -1.5736
  780THF    H1211579   1.725   3.691   3.222  0.9524  1.5834  0.3210
  780THF    H1311580   1.793   3.792   3.346 -1.1171  0.7348  3.1411
  781THF     O111581   1.167   3.646   1.217 -0.0996 -0.5758 -0.0807
  781THF     C211582   1.251   3.579   1.117 -0.2423  0.4649  0.4861
  781THF     C311583   1.033   3.639   1.162 -0.7228  0.0517  0.1374
  781THF     H411584   1.256   3.472   1.136 -1.1332  0.2460 -0.4627
  781THF     H511585   1.351   3.623   1.122  0.0102 -0.0397 -0.0155
  781THF     H611586   0.978   3.568   1.223 -2.4166 -0.1389 -1.5543
  781THF     H711587   0.990   3.739   1.153 -1.1305  0.0212  1.4416
  781THF     C811588   1.047   3.585   1.012 -0.0269 -0.7382 -0.1215
  781THF     C911589   1.192   3.602   0.982  0.2636 -0.2050 -0.5745
  781THF    H1011590   0.987   3.637   0.938  0.1658  0.6121  0.6389
  781THF    H1111591   1.018   3.480   1.006 -4.6725  0.4009 -2.7878
  781THF    H1211592   1.222   3.532   0.905  2.4173  2.1067 -1.9745
  781THF    H1311593   1.219   3.702   0.948 -2.4322  0.4773 -0.9617
  782THF     O111594   1.386   4.079   1.201  0.8823 -0.0736 -0.3330
  782THF     C211595   1.390   3.954   1.263 -0.0059  0.1455  0.1980
  782THF     C311596   1.399   4.056   1.061 -0.0078  0.3173 -0.4215
  782THF     H411597   1.293   3.905   1.254  0.1479 -0.0344 -0.5776
  782THF     H511598   1.402   3.967   1.371  1.3017  0.9482 -0.0208
  782THF     H611599   1.311   4.062   0.997 -1.6029 -1.1237  1.4986
  782THF     H711600   1.457   4.141   1.026  1.7939 -0.8737 -0.4496
  782THF     C811601   1.475   3.926   1.036 -0.6295  0.2435 -0.2596
  782THF     C911602   1.504   3.881   1.179  0.3601  0.5699  0.3578
  782THF    H1011603   1.564   3.942   0.975  0.5818 -2.1115  0.7625
  782THF    H1111604   1.415   3.857   0.976 -0.1698 -0.0773 -0.3556
  782THF    H1211605   1.510   3.773   1.188 -1.1206  0.5263  1.0314
  782THF    H1311606   1.599   3.924   1.213 -0.9857  1.8095  2.7667
  783THF     O111607   1.838   3.568   0.656 -0.4784 -0.4223  0.2284
  783THF     C211608   1.789   3.595   0.525 -0.0885  0.0874  0.1561
  783THF     C311609   1.740   3.592   0.745  1.1261 -0.0618 -0.2686
  783THF     H411610   1.778   3.495   0.482  1.5251 -0.3565  0.7155
  783THF     H511611   1.859   3.652   0.464 -0.8814  0.8248 -0.0855
  783THF     H611612   1.686   3.497   0.754 -1.8304  1.6656  1.7614
  783THF     H711613   1.775   3.623   0.844 -1.1036 -2.8588  1.5563
  783THF     C811614   1.648   3.693   0.677  0.0022 -0.4419 -0.2070
  783THF     C911615   1.657   3.660   0.534 -0.1469  0.0557 -0.1216
  783THF    H1011616   1.686   3.791   0.706  0.4162 -1.0368  1.3714
  783THF    H1111617   1.551   3.691   0.726 -0.8198  1.1365 -1.6914
  783THF    H1211618   1.570   3.603   0.502 -1.3945  1.5026  0.5503
  783THF    H1311619   1.658   3.745   0.465  0.1878 -1.3435 -1.9079
  784THF     O111620   0.559   1.317   1.921 -0.0864 -0.0598 -0.0262
  784THF     C211621   0.656   1.358   2.022 -0.3212  0.1139 -0.1685
  784THF     C311622   0.610   1.212   1.834  0.1912  0.3207 -0.2326
  784THF     H411623   0.608   1.415   2.102  1.3931  1.6323 -0.1515
  784THF     H511624   0.739   1.413   1.976  0.5050  0.2625  1.4333
  784THF     H611625   0.529   1.160   1.783  2.3433 -0.7412 -2.7479
  784THF     H711626   0.672   1.244   1.750  0.4081 -1.2843 -0.7108
  784THF     C811627   0.687   1.125   1.926 -0.0565  0.0793 -1.1381
  784THF     C911628   0.710   1.216   2.053  0.1130 -0.7433  0.3086
  784THF    H1011629   0.784   1.088   1.893  0.4098  1.6494 -1.6477
  784THF    H1111630   0.618   1.045   1.953  0.0616  0.3730  0.0728
  784THF    H1211631   0.666   1.180   2.145  1.2299 -0.2834  1.0471
  784THF    H1311632   0.817   1.219   2.073 -0.1420  0.3534  1.6693
  785THF     O111633   3.091   2.481   1.080 -0.4092  0.1038  0.2021
  785THF     C211634   3.123   2.504   0.940 -0.4135 -0.0649  0.1538
  785THF     C311635   2.983   2.570   1.109 -0.3404  0.3359 -0.2414
  785THF     H411636   3.059   2.464   0.862  0.0255 -0.0854 -0.1976
  785THF     H511637   3.223   2.460   0.936  0.0914  0.9664  0.8144
  785THF     H611638   2.888   2.538   1.066  0.4783 -1.3463 -0.8900
  785THF     H711639   2.974   2.570   1.218 -2.4159 -0.2970 -0.3708
  785THF     C811640   3.024   2.698   1.047 -0.4584  0.4085  0.0924
  785THF     C911641   3.120   2.654   0.931 -0.9352  0.2086  0.2825
  785THF    H1011642   3.073   2.764   1.119 -0.1351 -0.1999  0.4411
  785THF    H1111643   2.934   2.747   1.011 -0.8398 -0.0044  0.4779
  785THF    H1211644   3.092   2.696   0.834  0.4907 -0.4478 -0.4343
  785THF    H1311645   3.221   2.691   0.946 -0.4441 -0.5794 -0.9000
  786THF     O111646   4.539   1.845   5.214  0.2140  0.1210  0.3970
  786THF     C211647   4.423   1.771   5.259 -0.6417 -1.1486  0.2660
  786THF     C311648   4.520   1.855   5.068  0.3335 -0.5024  0.5837
  786THF     H411649   4.406   1.791   5.365 -3.2581  1.4134 -0.4798
  786THF     H511650   4.459   1.669   5.253  0.4148 -0.7655 -0.1332
  786THF     H611651   4.582   1.932   5.022 -0.6023 -0.6714 -1.0301
  786THF     H711652   4.543   1.768   5.006  1.5059  0.3496 -0.2270
  786THF     C811653   4.381   1.895   5.053  0.4740  0.1270  0.2230
  786THF     C911654   4.310   1.818   5.164  0.2419  0.4282 -0.5937
  786THF    H1011655   4.341   1.859   4.958 -2.0316 -0.3200  1.3585
  786THF    H1111656   4.357   2.001   5.044  1.9449  0.4320 -0.3974
  786THF    H1211657   4.243   1.885   5.217 -1.1598  0.1615 -1.9712
  786THF    H1311658   4.259   1.733   5.119 -1.6777  1.0298  0.3516
  787THF     O111659   0.738   2.596   2.287 -0.0884 -0.1938 -0.4955
  787THF     C211660   0.741   2.675   2.415  0.4895  0.0476  0.7999
  787THF     C311661   0.747   2.454   2.316  0.0410  0.0987 -0.2195
  787THF     H411662   0.639   2.710   2.431 -0.1439 -0.6312 -1.4351
  787THF     H511663   0.817   2.753   2.419  2.1810 -1.5364  0.7177
  787THF     H611664   0.682   2.391   2.255  0.3251 -0.7743  0.3665
  787THF     H711665   0.851   2.428   2.297 -0.0456 -0.8394  0.5446
  787THF     C811666   0.711   2.443   2.463  0.4384  1.2225 -0.2336
  787THF     C911667   0.776   2.567   2.523 -0.4714  0.0738  1.1274
  787THF    H1011668   0.749   2.357   2.517 -2.6031 -0.6275 -0.8204
  787THF    H1111669   0.603   2.453   2.477  0.7754  4.9024  0.8536
  787THF    H1211670   0.731   2.590   2.620 -2.1297  0.5464  0.2893
  787THF    H1311671   0.884   2.554   2.533 -0.3310 -0.9458 -1.1482
  788THF     O111672   0.837   5.276   2.169  0.3179  0.4938  0.3416
  788THF     C211673   0.872   5.159   2.242  0.2831  0.3768 -0.9506
  788THF     C311674   0.787   5.378   2.251 -0.3216  0.7910 -0.7845
  788THF     H411675   0.977   5.174   2.267  0.3338 -0.1884 -0.7947
  788THF     H511676   0.865   5.061   2.196 -0.4330  0.8441 -1.8575
  788THF     H611677   0.834   5.475   2.238 -1.6120  1.6488  0.6006
  788THF     H711678   0.679   5.394   2.245 -0.7454 -1.3842  0.1220
  788THF     C811679   0.807   5.318   2.389 -0.3179  0.3391  0.0619
  788THF     C911680   0.778   5.172   2.358 -0.3463  0.0664 -0.3470
  788THF    H1011681   0.743   5.364   2.464  1.0096  1.4310  0.5801
  788THF    H1111682   0.907   5.342   2.427  0.4161 -0.5068 -1.2657
  788THF    H1211683   0.801   5.111   2.445 -2.7349  0.8053  0.8833
  788THF    H1311684   0.675   5.155   2.325 -0.8995  1.6046  0.5036
  789THF     O111685   4.029   3.563   5.392 -0.0459  0.2272 -0.0495
  789THF     C211686   3.997   3.605   5.521 -0.1189  0.6001  0.0603
  789THF     C311687   3.988   3.665   5.302 -0.1481  0.3233 -0.3328
  789THF     H411688   4.051   3.532   5.580  0.2173 -0.8723 -1.9600
  789THF     H511689   3.890   3.616   5.542 -1.3356 -1.1100 -4.1657
  789THF     H611690   4.037   3.654   5.205  1.1770  1.1986  0.2111
  789THF     H711691   3.881   3.677   5.284 -0.3776 -0.6005  0.3423
  789THF     C811692   4.031   3.793   5.371  0.1820 -0.0345  0.5668
  789THF     C911693   4.055   3.745   5.517  0.3308  0.2432  0.0932
  789THF    H1011694   3.953   3.867   5.357 -0.1724  0.3476  3.8269
  789THF    H1111695   4.124   3.818   5.319  1.0291 -0.0408  2.0171
  789THF    H1211696   4.162   3.739   5.541  0.2208 -0.0885  0.5117
  789THF    H1311697   4.024   3.809   5.599  0.8216 -0.4356  0.8266
  790THF     O111698   3.853   2.782   0.779 -0.0154  0.1815 -0.3617
  790THF     C211699   3.996   2.800   0.794  0.9326 -0.5529 -0.9380
  790THF     C311700   3.818   2.732   0.646  0.0328 -0.0179  0.0998
  790THF     H411701   4.030   2.797   0.897  0.9526 -1.9726 -0.9621
  790THF     H511702   4.010   2.896   0.745  1.4650  0.0503  0.3529
  790THF     H611703   3.719   2.686   0.644 -0.4079  0.9228 -0.9577
  790THF     H711704   3.822   2.811   0.571  2.6013  1.6038  1.7847
  790THF     C811705   3.933   2.630   0.637 -0.3843  0.1410 -0.6663
  790THF     C911706   4.057   2.696   0.704 -0.3152  0.3722  0.2552
  790THF    H1011707   3.958   2.607   0.533  0.8335 -2.1579  0.0742
  790THF    H1111708   3.922   2.535   0.689  1.7471 -0.5538 -1.3779
  790THF    H1211709   4.130   2.634   0.756  0.8200  1.0488 -0.4755
  790THF    H1311710   4.115   2.744   0.624  0.0563  1.8364  1.3551
  791THF     O111711   0.623   4.591   1.512 -0.1534 -0.2630  0.4346
  791THF     C211712   0.516   4.567   1.411  0.2147  0.2404 -0.3588
  791THF     C311713   0.734   4.645   1.448  0.2682 -0.0834 -0.1623
  791THF     H411714   0.420   4.607   1.443  0.6899  1.0742  0.0711
  791THF     H511715   0.510   4.458   1.411 -1.6613  0.2907  0.8191
  791THF     H611716   0.734   4.754   1.450 -3.2115  0.0662 -1.7487
  791THF     H711717   0.829   4.623   1.496  0.5697  0.7851 -0.3536
  791THF     C811718   0.719   4.598   1.301  0.0937  0.4672  0.1886
  791THF     C911719   0.574   4.610   1.277  1.1883 -0.5665 -0.8940
  791THF    H1011720   0.750   4.494   1.299 -1.0463  0.1104  0.1049
  791THF    H1111721   0.786   4.653   1.236 -0.4241  1.6164  0.5988
  791THF    H1211722   0.552   4.716   1.264 -0.4251 -0.6181  0.9253
  791THF    H1311723   0.535   4.548   1.197  2.9539 -3.1984  0.1209
  792THF     O111724   0.280   2.383   3.478  0.2978  0.1463  0.6173
  792THF     C211725   0.247   2.497   3.555  0.4098  0.0004 -0.2501
  792THF     C311726   0.367   2.307   3.564 -0.2648 -1.0188  0.4830
  792THF     H411727   0.159   2.549   3.516  0.7645  0.3756 -0.5613
  792THF     H511728   0.334   2.562   3.566 -0.6577  1.4593 -0.1530
  792THF     H611729   0.364   2.201   3.542  0.6287 -0.9836  0.1535
  792THF     H711730   0.465   2.349   3.543 -1.7851  4.2721  2.2011
  792THF     C811731   0.310   2.332   3.709  0.5091 -0.5862 -0.5383
  792THF     C911732   0.213   2.450   3.695 -0.2183  0.1623  0.6291
  792THF    H1011733   0.388   2.352   3.783  1.6858 -1.3376 -1.5288
  792THF    H1111734   0.257   2.248   3.752 -0.1429  0.7868  1.4889
  792THF    H1211735   0.111   2.411   3.688  0.6093 -1.9068 -1.4891
  792THF    H1311736   0.220   2.531   3.768  0.2544 -0.1100  0.8907
  793THF     O111737   0.203   2.807   2.732  0.4811  0.0623 -0.5781
  793THF     C211738   0.289   2.699   2.692  0.0473 -0.0303  0.1275
  793THF     C311739   0.273   2.901   2.816  0.8495  0.0133 -0.0240
  793THF     H411740   0.262   2.673   2.589 -2.2973  1.4948  0.2677
  793THF     H511741   0.285   2.615   2.761 -1.1421  0.8718  1.2026
  793THF     H611742   0.235   3.003   2.822 -0.3376 -0.4287  0.3154
  793THF     H711743   0.264   2.860   2.917  1.7953 -0.5224 -0.1481
  793THF     C811744   0.411   2.892   2.766 -0.6047 -0.4997  0.0018
  793THF     C911745   0.431   2.759   2.712  0.0782  0.7803 -0.2849
  793THF    H1011746   0.479   2.926   2.844 -1.1113  0.7443 -0.0747
  793THF    H1111747   0.420   2.963   2.683 -1.9762  0.9580  1.0220
  793THF    H1211748   0.489   2.759   2.620  2.6389  1.0666  1.2017
  793THF    H1311749   0.493   2.718   2.793  0.2492 -0.7036 -1.1305
  794THF     O111750   5.366   2.199   3.304  0.1344 -0.7178 -0.3513
  794THF     C211751   5.418   2.258   3.424 -0.0059 -0.1386  0.4229
  794THF     C311752   5.243   2.268   3.264  0.3556  0.4940 -0.4267
  794THF     H411753   5.524   2.248   3.447  0.1257  0.2715  0.0231
  794THF     H511754   5.357   2.220   3.507  0.0100 -1.2058 -0.0350
  794THF     H611755   5.244   2.270   3.155  1.1579 -0.9840 -0.4774
  794THF     H711756   5.151   2.213   3.282  1.8004 -2.3545 -1.1331
  794THF     C811757   5.253   2.404   3.327 -0.6851 -0.2296 -0.0716
  794THF     C911758   5.393   2.406   3.395 -0.5444  0.1291  0.2137
  794THF    H1011759   5.173   2.418   3.400  0.6442  0.6733  1.2848
  794THF    H1111760   5.241   2.477   3.247 -1.8643 -0.8966 -0.5324
  794THF    H1211761   5.465   2.450   3.326 -0.3114 -0.5718  0.0082
  794THF    H1311762   5.388   2.466   3.486 -0.2843  2.6337 -1.3449
  795THF     O111763   5.464   1.038   2.975 -0.6898  0.1401  0.8187
  795THF     C211764   5.571   0.967   3.040  0.5531  0.2079 -0.3332
  795THF     C311765   5.388   1.079   3.079 -0.5029 -0.6557  0.6954
  795THF     H411766   5.651   1.028   3.081  0.7178  0.2870 -0.7637
  795THF     H511767   5.622   0.908   2.963  2.4231  1.1824  0.1024
  795THF     H611768   5.441   1.159   3.129  0.1235 -0.1063 -0.7865
  795THF     H711769   5.293   1.126   3.053  0.3573  1.3233  0.9449
  795THF     C811770   5.385   0.951   3.166 -0.2961  0.3105 -0.1894
  795THF     C911771   5.512   0.874   3.141 -0.0364 -0.3278 -0.2537
  795THF    H1011772   5.302   0.885   3.141 -0.6846  0.8133 -0.2662
  795THF    H1111773   5.373   0.983   3.269  1.6803  1.8436 -0.3744
  795THF    H1211774   5.574   0.858   3.230 -0.1390 -1.3815 -0.3636
  795THF    H1311775   5.509   0.771   3.106 -1.9394 -0.8456  1.2720
  796THF     O111776   5.414   3.497   2.934 -0.6237 -0.2953 -0.1754
  796THF     C211777   5.320   3.410   2.998 -0.0450 -0.2389  0.7832
  796THF     C311778   5.346   3.560   2.824  0.4140 -0.6691  0.0838
  796THF     H411779   5.254   3.481   3.048 -0.4147  0.8041 -1.0942
  796THF     H511780   5.352   3.341   3.076  0.7887 -0.7984 -0.0277
  796THF     H611781   5.262   3.623   2.850  1.7016  0.9610  0.4655
  796THF     H711782   5.413   3.625   2.767 -0.7882  1.4292  0.9443
  796THF     C811783   5.296   3.436   2.752  0.1696  0.2993 -0.0943
  796THF     C911784   5.242   3.358   2.876 -0.0815  1.0585  0.1198
  796THF    H1011785   5.388   3.390   2.717  1.5850  1.1043  2.3269
  796THF    H1111786   5.222   3.448   2.673  1.5529  0.3856 -1.4138
  796THF    H1211787   5.136   3.380   2.892 -0.5086 -1.3220  0.9412
  796THF    H1311788   5.243   3.249   2.870 -1.5321  1.0560 -0.5104
  797THF     O111789   4.910   0.146   0.487 -0.1352  0.9742  0.0176
  797THF     C211790   4.870   0.251   0.399 -0.8591  0.4994  0.4196
  797THF     C311791   4.883   0.185   0.623 -0.1230 -0.5605 -0.2374
  797THF     H411792   4.856   0.209   0.300 -0.0928 -0.1584  0.5800
  797THF     H511793   4.938   0.336   0.391 -0.6771  0.5304  1.9648
  797THF     H611794   4.852   0.100   0.683  3.2143 -0.7402  1.4475
  797THF     H711795   4.980   0.207   0.667  0.0663 -0.2201 -0.8067
  797THF     C811796   4.777   0.299   0.613  0.5802  1.3291  0.3762
  797THF     C911797   4.743   0.291   0.462  0.5369 -0.5558 -0.0789
  797THF    H1011798   4.819   0.396   0.639  2.7508  0.9363 -1.3666
  797THF    H1111799   4.686   0.268   0.664  0.7170 -0.5863 -0.4491
  797THF    H1211800   4.669   0.212   0.453  1.2482 -1.5038  1.8501
  797THF    H1311801   4.693   0.373   0.410  2.1784 -0.5978 -1.8232
  798THF     O111802   0.609   2.592   4.255 -0.3856  0.0230  0.5121
  798THF     C211803   0.630   2.501   4.362 -1.5764  0.4769 -0.3763
  798THF     C311804   0.582   2.510   4.149  0.0810 -0.6582 -0.2247
  798THF     H411805   0.536   2.452   4.388 -2.9861  1.6179 -2.9027
  798THF     H511806   0.670   2.554   4.448  1.5326 -1.3421 -0.5500
  798THF     H611807   0.484   2.464   4.166 -0.3570  0.1601 -0.5035
  798THF     H711808   0.581   2.574   4.061  1.1873 -0.1541  0.1195
  798THF     C811809   0.695   2.407   4.153 -0.4891  0.5479 -0.1573
  798THF     C911810   0.724   2.394   4.306 -0.1922 -0.5053 -0.2286
  798THF    H1011811   0.790   2.444   4.115 -0.2521 -0.4716 -0.5756
  798THF    H1111812   0.676   2.316   4.098  3.0021  0.7148 -1.9190
  798THF    H1211813   0.710   2.299   4.358  3.7999 -0.2418  1.6146
  798THF    H1311814   0.826   2.425   4.329 -0.5239  0.5868 -0.1691
  799THF     O111815   3.288   0.655   3.452 -0.2909  0.4471 -0.3622
  799THF     C211816   3.419   0.693   3.396 -1.2615  0.3400  0.0397
  799THF     C311817   3.268   0.746   3.557 -0.4626  0.9764  0.4609
  799THF     H411818   3.410   0.710   3.289  0.1880  0.3777 -0.0995
  799THF     H511819   3.497   0.617   3.402  0.6216  2.2388  1.4616
  799THF     H611820   3.163   0.772   3.570 -0.8953 -0.0683 -0.7762
  799THF     H711821   3.309   0.698   3.647  1.4973  0.6439 -0.5501
  799THF     C811822   3.343   0.872   3.528 -0.0021 -0.2201  0.5914
  799THF     C911823   3.469   0.818   3.467 -0.2649 -0.8399  0.0308
  799THF    H1011824   3.365   0.937   3.612  0.9222 -0.3193  0.4429
  799THF    H1111825   3.287   0.935   3.458 -2.3290  0.1742  2.6692
  799THF    H1211826   3.514   0.887   3.395 -0.2187 -0.6103  0.2815
  799THF    H1311827   3.550   0.799   3.537  0.4436  0.6347 -0.3442
  800THF     O111828   2.862   5.468   1.969 -0.7206 -0.3210  0.1469
  800THF     C211829   2.897   5.359   2.048 -0.4778 -0.3104 -0.0304
  800THF     C311830   2.724   5.469   1.934 -0.6923  0.0743  0.5230
  800THF     H411831   2.860   5.375   2.149  0.0619  0.1823  0.0971
  800THF     H511832   3.005   5.341   2.051 -0.1959  1.2278 -0.0640
  800THF     H611833   2.664   5.516   2.013 -1.0557 -0.9298  0.8583
  800THF     H711834   2.708   5.526   1.842 -0.2695 -2.0826 -0.9502
  800THF     C811835   2.708   5.322   1.922  0.7522  0.2182  0.2936
  800THF     C911836   2.826   5.252   1.981  0.1711 -0.3321  0.6589
  800THF    H1011837   2.680   5.301   1.819 -2.2648 -0.0092  1.0674
  800THF    H1111838   2.615   5.295   1.972  1.8248 -1.9295  1.2704
  800THF    H1211839   2.791   5.178   2.053  1.0359 -2.8219 -1.3352
  800THF    H1311840   2.891   5.206   1.906  0.6888  0.1752  0.7877
  801THF     O111841   1.522   0.397   0.801 -0.3129 -0.2239 -0.5667
  801THF     C211842   1.640   0.475   0.804  1.1343 -0.5181 -0.4641
  801THF     C311843   1.424   0.473   0.733  0.2292  0.0580  0.5091
  801THF     H411844   1.682   0.465   0.704  0.3501 -0.3683 -0.8203
  801THF     H511845   1.709   0.441   0.881  0.4503 -2.2908 -0.5957
  801THF     H611846   1.436   0.449   0.628 -0.1226 -1.3979  0.7800
  801THF     H711847   1.323   0.446   0.765 -0.9188 -1.1215 -3.5076
  801THF     C811848   1.454   0.619   0.753 -0.4192  0.1574 -0.3467
  801THF     C911849   1.588   0.617   0.838  0.8987 -0.6446 -0.5474
  801THF    H1011850   1.370   0.680   0.785 -1.5066  0.4143 -3.4459
  801THF    H1111851   1.471   0.662   0.655  0.7654 -2.5955 -1.4667
  801THF    H1211852   1.658   0.696   0.808 -1.4984  1.7363 -0.2550
  801THF    H1311853   1.577   0.629   0.946  0.0360 -0.3330 -0.6603
  802THF     O111854   2.155   5.333   2.131 -0.2849  0.5444 -0.5206
  802THF     C211855   2.125   5.386   2.260 -0.4708  0.1805  0.2016
  802THF     C311856   2.289   5.367   2.096 -0.0221  0.0940 -0.8664
  802THF     H411857   2.182   5.327   2.331 -1.0782  0.7354  1.1818
  802THF     H511858   2.020   5.375   2.288 -0.4501 -0.1142  0.1640
  802THF     H611859   2.356   5.304   2.155 -1.3375  0.8420  1.5508
  802THF     H711860   2.295   5.360   1.988 -0.9182  1.6622 -1.0440
  802THF     C811861   2.301   5.508   2.155  0.7017  0.2701  0.4289
  802THF     C911862   2.168   5.528   2.222  0.4404  0.6055 -0.0171
  802THF    H1011863   2.294   5.578   2.072 -1.2120  0.3313  0.6191
  802THF    H1111864   2.391   5.525   2.214  0.9888 -1.9289  0.7228
  802THF    H1211865   2.188   5.579   2.316  2.4619 -0.2447  0.0643
  802THF    H1311866   2.090   5.573   2.161 -0.2548 -0.0852  0.3334
  803THF     O111867   0.568   3.963   4.633  0.9631  0.2957  0.1610
  803THF     C211868   0.630   4.069   4.703  0.5294  0.2882 -0.2438
  803THF     C311869   0.457   3.933   4.723  0.3575  0.0101  0.7495
  803THF     H411870   0.572   4.161   4.694 -0.1082 -0.2733 -2.3973
  803THF     H511871   0.731   4.078   4.662  0.4093 -1.4228 -0.9762
  803THF     H611872   0.390   4.020   4.725  0.2886 -0.0005 -0.2708
  803THF     H711873   0.397   3.854   4.678 -0.5917  1.3059 -0.3638
  803THF     C811874   0.525   3.908   4.846  0.0507  0.5048 -0.4775
  803THF     C911875   0.628   4.018   4.852  0.3825 -0.0572 -0.1237
  803THF    H1011876   0.572   3.811   4.859  0.0032  0.4414 -0.7611
  803THF    H1111877   0.447   3.904   4.922 -0.6867 -0.7639 -1.2510
  803THF    H1211878   0.590   4.104   4.907 -1.1179  0.4646 -1.8802
  803THF    H1311879   0.721   3.982   4.898 -1.0236 -2.0010  1.3636
  804THF     O111880   0.335   1.333   2.378  0.1386  0.1040 -0.0710
  804THF     C211881   0.362   1.249   2.266  0.0034  0.0941 -0.1497
  804THF     C311882   0.203   1.332   2.428 -0.5829  0.4732  0.4346
  804THF     H411883   0.457   1.198   2.279 -0.4907 -1.0799 -0.9393
  804THF     H511884   0.374   1.311   2.177  1.0256 -0.2048 -0.2313
  804THF     H611885   0.187   1.292   2.529 -2.3891 -1.2990 -0.4841
  804THF     H711886   0.177   1.437   2.415  0.5718  0.4881 -2.4603
  804THF     C811887   0.129   1.251   2.322  0.3812 -0.0523 -1.1839
  804THF     C911888   0.238   1.156   2.265 -0.5909  0.0834  0.0122
  804THF    H1011889   0.089   1.321   2.249  0.9454 -1.2529 -2.7205
  804THF    H1111890   0.042   1.198   2.361 -0.4945 -0.9065 -4.0115
  804THF    H1211891   0.253   1.063   2.320 -1.7064 -0.1731 -0.1036
  804THF    H1311892   0.213   1.116   2.167 -1.1433 -1.0626  0.5973
  805THF     O111893   3.226   4.418   0.793 -0.8088 -0.0111 -0.4757
  805THF     C211894   3.240   4.522   0.892  0.2077 -0.1753 -0.4090
  805THF     C311895   3.089   4.418   0.763 -0.5048 -0.5048 -0.1089
  805THF     H411896   3.342   4.560   0.890 -0.5553  2.0226  0.2027
  805THF     H511897   3.212   4.479   0.988 -1.2468  0.5614 -0.4907
  805THF     H611898   3.069   4.363   0.671 -0.3393  0.4011 -0.6965
  805THF     H711899   3.043   4.373   0.851 -0.3489  1.0971  0.8230
  805THF     C811900   3.045   4.568   0.752 -0.2465 -0.7737 -0.3061
  805THF     C911901   3.142   4.638   0.850 -0.1041 -0.5278 -0.1163
  805THF    H1011902   2.942   4.571   0.787  0.7195 -2.1019  3.0630
  805THF    H1111903   3.060   4.585   0.646 -2.4490 -1.3149 -0.7486
  805THF    H1211904   3.206   4.706   0.795  0.3339 -0.7271  0.1381
  805THF    H1311905   3.080   4.669   0.934  0.3163 -2.5350  1.0081
  806THF     O111906   3.510   3.918   3.660  0.3184  0.2037  0.1433
  806THF     C211907   3.493   4.042   3.716 -0.0612 -0.2262 -0.3401
  806THF     C311908   3.407   3.825   3.700 -0.0840 -0.2928 -0.1020
  806THF     H411909   3.443   4.109   3.647 -0.7527  0.1197  0.4797
  806THF     H511910   3.584   4.093   3.748  1.1399 -2.3115 -0.1975
  806THF     H611911   3.360   3.768   3.619  0.5706  1.7069 -1.9949
  806THF     H711912   3.462   3.758   3.766 -0.4444  1.1925  1.7883
  806THF     C811913   3.308   3.916   3.782  0.9125  0.0085  0.3668
  806THF     C911914   3.401   4.020   3.845 -0.4290  1.0519  0.1055
  806THF    H1011915   3.254   3.866   3.862 -1.6734 -0.3757 -1.5054
  806THF    H1111916   3.241   3.962   3.710  1.5126  1.9284  0.9731
  806THF    H1211917   3.352   4.108   3.888  0.4442  1.1015  1.0458
  806THF    H1311918   3.465   3.986   3.927  1.0141  1.0649 -0.9689
  807THF     O111919   2.856   4.891   5.194  0.0039  0.2052  0.1705
  807THF     C211920   2.989   4.940   5.188  0.2262  0.2898 -0.4467
  807THF     C311921   2.776   5.014   5.198  0.8859  0.1749 -0.2766
  807THF     H411922   3.045   4.868   5.128 -0.2894 -3.1253  2.8010
  807THF     H511923   3.027   4.939   5.290  0.1610 -0.0781 -0.4235
  807THF     H611924   2.671   4.995   5.173  0.0116  1.8616  1.7050
  807THF     H711925   2.788   5.058   5.298  2.5314 -2.0826  0.5888
  807THF     C811926   2.845   5.113   5.101  0.6652  0.8638 -0.4625
  807THF     C911927   2.990   5.075   5.112  0.2800  0.3248 -0.2564
  807THF    H1011928   2.828   5.218   5.124  1.5515  1.5778 -2.8628
  807THF    H1111929   2.799   5.098   5.003 -1.8304 -1.2831  0.8978
  807THF    H1211930   3.025   5.051   5.012 -2.0851  0.5512 -1.2119
  807THF    H1311931   3.040   5.161   5.156 -0.2475  2.8573 -4.1201
  808THF     O111932   2.403   2.319   4.893 -0.5775  0.6708  0.3938
  808THF     C211933   2.423   2.202   4.973 -1.1947  0.4019 -0.3854
  808THF     C311934   2.267   2.317   4.853 -0.0567  0.2074  0.4420
  808THF     H411935   2.375   2.215   5.070  1.9646 -0.0478  1.3760
  808THF     H511936   2.527   2.184   5.000 -1.2590  0.8792  0.1997
  808THF     H611937   2.215   2.356   4.941 -0.4896  0.8210 -0.0724
  808THF     H711938   2.245   2.379   4.766  0.3664  0.3529  0.4325
  808THF     C811939   2.230   2.170   4.838  0.0040 -0.6175 -0.4144
  808THF     C911940   2.352   2.093   4.894  0.0271  0.2187  0.1643
  808THF    H1011941   2.217   2.156   4.730 -0.9685  0.1819 -0.4204
  808THF    H1111942   2.137   2.151   4.892  0.5450  0.9699  1.1401
  808THF    H1211943   2.338   2.004   4.955  0.1289  0.5504  0.6733
  808THF    H1311944   2.420   2.070   4.812  1.1809  0.7494  0.9452
  809THF     O111945   0.803   3.379   3.226  0.5974 -0.1399  0.1989
  809THF     C211946   0.895   3.365   3.336  0.2098 -0.3301  0.2363
  809THF     C311947   0.760   3.251   3.178  0.2174  0.8339 -0.1987
  809THF     H411948   0.855   3.391   3.434 -0.1468  3.0099 -0.6902
  809THF     H511949   0.975   3.439   3.331 -0.1929 -0.0057 -2.2789
  809THF     H611950   0.674   3.231   3.242  1.2714  0.3259  1.1028
  809THF     H711951   0.730   3.243   3.074  2.4362 -1.7222 -0.7479
  809THF     C811952   0.881   3.167   3.202  0.6173 -0.2977  0.3232
  809THF     C911953   0.926   3.219   3.336  0.0615  0.7755  0.2052
  809THF    H1011954   0.954   3.170   3.120 -0.8312  1.2044 -0.9918
  809THF    H1111955   0.852   3.062   3.205 -2.7713  0.5463  0.6890
  809THF    H1211956   0.883   3.167   3.422 -0.3265 -0.9708 -0.9934
  809THF    H1311957   1.031   3.198   3.358 -0.1665  1.2069  1.8731
  810THF     O111958   4.887   2.528   2.669 -0.0016 -0.2038  0.9129
  810THF     C211959   5.009   2.553   2.602  0.1911  0.0876  0.0428
  810THF     C311960   4.785   2.507   2.574 -0.1282  0.4243  0.1734
  810THF     H411961   5.092   2.535   2.670  0.2337 -0.3728 -0.1255
  810THF     H511962   5.020   2.651   2.557 -0.7209  0.3622  0.3875
  810THF     H611963   4.718   2.434   2.618  1.6415 -1.3146  0.1485
  810THF     H711964   4.736   2.590   2.523 -1.1782 -1.4268 -1.9608
  810THF     C811965   4.857   2.429   2.465 -0.0068  0.2125 -0.5558
  810THF     C911966   5.003   2.445   2.495  0.4832 -0.0323 -0.0131
  810THF    H1011967   4.822   2.471   2.371 -2.4017  0.2597  0.2808
  810THF    H1111968   4.833   2.323   2.464  1.5747 -0.1944  0.5681
  810THF    H1211969   5.047   2.354   2.534 -0.1526 -1.3216 -2.1512
  810THF    H1311970   5.059   2.462   2.402  0.9049  0.1122  0.2658
  811THF     O111971   4.500   3.939   5.104  0.3707  0.2300  0.0447
  811THF     C211972   4.404   3.938   4.992  0.6133 -0.1820  0.4081
  811THF     C311973   4.465   4.060   5.174  0.4195  0.0022 -0.4352
  811THF     H411974   4.409   3.831   4.971 -1.4375 -0.4649  1.0999
  811THF     H511975   4.434   4.003   4.910 -1.4693  1.5276  0.8946
  811THF     H611976   4.513   4.061   5.271 -2.5202  0.9881  1.1269
  811THF     H711977   4.499   4.145   5.114 -1.5053  1.8284  0.8798
  811THF     C811978   4.315   4.053   5.182 -0.7815  0.5951 -0.3943
  811THF     C911979   4.272   3.974   5.062  0.2703 -0.0734  0.2341
  811THF    H1011980   4.273   4.151   5.204 -0.0058  0.7773  0.3425
  811THF    H1111981   4.285   3.984   5.262  0.0479 -0.0647 -0.6374
  811THF    H1211982   4.228   3.876   5.080  0.5043 -0.5059 -1.3889
  811THF    H1311983   4.214   4.033   4.991 -0.7452 -2.5790 -1.1556
  812THF     O111984   4.475   3.195   3.139 -0.2818  0.1430 -0.1479
  812THF     C211985   4.525   3.060   3.159  0.0646 -0.4725 -0.6747
  812THF     C311986   4.510   3.266   3.259 -0.0901 -0.0109  0.1739
  812THF     H411987   4.634   3.054   3.148  0.0731  0.8401 -1.5662
  812THF     H511988   4.481   2.995   3.084 -2.2286  1.6115 -1.2726
  812THF     H611989   4.597   3.330   3.242 -0.7202  0.2946 -2.4297
  812THF     H711990   4.421   3.328   3.269 -0.4148 -0.1663 -1.4257
  812THF     C811991   4.519   3.170   3.376  0.1935  0.4072  0.0093
  812THF     C911992   4.499   3.030   3.308  0.6953 -0.3840  0.7806
  812THF    H1011993   4.449   3.186   3.457  0.1079 -1.0751  0.2543
  812THF    H1111994   4.618   3.180   3.421  0.2613 -2.5330  0.7546
  812THF    H1211995   4.563   2.950   3.345 -0.9438 -1.5393  1.2691
  812THF    H1311996   4.395   2.998   3.313  0.1836  1.1562  0.4164
  813THF     O111997   1.509   2.779   4.755  1.2244  0.1643  0.0014
  813THF     C211998   1.526   2.756   4.890 -0.1415 -0.8548  0.2700
  813THF     C311999   1.387   2.719   4.722 -0.5277 -0.2801  0.1966
  813THF     H412000   1.611   2.816   4.922  0.0429 -1.4103  0.8472
  813THF     H512001   1.564   2.655   4.897 -0.3829 -0.8715  1.6730
  813THF     H612002   1.355   2.742   4.620  1.0043 -1.6868 -0.6401
  813THF     H712003   1.393   2.610   4.717  2.4874 -0.2374  1.0308
  813THF     C812004   1.293   2.763   4.838  0.5669 -0.7271 -0.2883
  813THF     C912005   1.392   2.795   4.953 -0.7348  0.1390  0.0926
  813THF    H1012006   1.224   2.683   4.867 -0.3133  0.4188  0.9631
  813THF    H1112007   1.239   2.857   4.824 -1.1533 -1.6973 -0.4350
  813THF    H1212008   1.393   2.902   4.971 -0.7887  0.3990 -1.3257
  813THF    H1312009   1.375   2.741   5.046 -0.5687 -2.1622 -1.1388
  814THF     O112010   3.925   0.975   2.278  0.1793 -0.2470  0.2522
  814THF     C212011   3.932   0.907   2.153  0.1643  0.3995  0.3323
  814THF     C312012   4.046   1.053   2.297  0.0740  0.5095 -0.6953
  814THF     H412013   3.909   0.955   2.058  1.4083 -0.5404 -0.4832
  814THF     H512014   3.873   0.815   2.155 -0.0379  0.5340  0.4537
  814THF     H612015   4.033   1.155   2.262 -0.5110  0.4040 -0.7985
  814THF     H712016   4.062   1.058   2.405  1.3007  1.0162 -0.8859
  814THF     C812017   4.148   0.975   2.219  0.4452  0.1440  0.0465
  814THF     C912018   4.077   0.859   2.151  0.6391 -0.3268 -0.0249
  814THF    H1012019   4.214   0.927   2.291  0.6599  0.0712 -0.1996
  814THF    H1112020   4.211   1.036   2.156  2.1694  0.9547  2.4033
  814THF    H1212021   4.126   0.834   2.057  1.0053  0.2676  0.0045
  814THF    H1312022   4.083   0.766   2.208  2.0255 -0.9332 -1.1143
  815THF     O112023   3.024   1.251   4.696 -0.4068  0.3733  0.0126
  815THF     C212024   3.056   1.215   4.559  0.7867 -0.4375 -0.4435
  815THF     C312025   2.970   1.379   4.706  0.0603 -0.1431  0.5303
  815THF     H412026   3.074   1.107   4.551 -0.7004 -1.0240  2.4264
  815THF     H512027   3.148   1.264   4.528  0.5758  0.9899  1.0321
  815THF     H612028   2.922   1.383   4.804 -1.3684 -0.7044 -0.1192
  815THF     H712029   3.044   1.456   4.687 -0.5408 -0.0144 -1.4862
  815THF     C812030   2.873   1.370   4.591 -0.0923  0.4439  0.2598
  815THF     C912031   2.927   1.262   4.491  0.4542 -0.2758  0.0352
  815THF    H1012032   2.854   1.462   4.535 -1.1009 -0.4927 -0.9968
  815THF    H1112033   2.776   1.344   4.634 -0.7367  2.2890  0.0321
  815THF    H1212034   2.856   1.181   4.476  1.3795 -0.7668 -2.0248
  815THF    H1312035   2.940   1.292   4.387  0.2322  1.0103  0.3634
  816THF     O112036   1.854   5.279   1.422 -0.3124  0.1974  0.5037
  816THF     C212037   1.899   5.150   1.391  0.0525  0.4237  0.2568
  816THF     C312038   1.805   5.340   1.305 -0.3345 -0.5085 -0.7446
  816THF     H412039   1.856   5.081   1.463  0.2961  0.1061  0.1010
  816THF     H512040   2.008   5.158   1.394  0.0506  0.3650  0.4779
  816THF     H612041   1.726   5.407   1.338 -0.2393 -1.7582  2.4856
  816THF     H712042   1.893   5.391   1.265  0.3205 -1.2798 -0.3434
  816THF     C812043   1.757   5.227   1.221 -0.1634  0.2998 -0.1544
  816THF     C912044   1.857   5.114   1.249  0.6486 -0.1639  0.0680
  816THF    H1012045   1.753   5.262   1.118  1.2765  0.4589 -0.1724
  816THF    H1112046   1.659   5.188   1.248  0.7441 -1.3139  1.0518
  816THF    H1212047   1.808   5.017   1.245 -1.8395  0.9037  1.6354
  816THF    H1312048   1.946   5.113   1.186  3.0069 -1.9186  3.1356
  817THF     O112049   1.524   3.215   4.838  0.2911  0.4272 -0.3450
  817THF     C212050   1.385   3.239   4.829  0.2207 -0.1340 -0.5139
  817THF     C312051   1.554   3.150   4.714 -0.2133 -0.1986 -0.1287
  817THF     H412052   1.359   3.306   4.911  2.4908 -2.5718  2.4704
  817THF     H512053   1.321   3.153   4.849 -1.3554  0.6654 -1.8876
  817THF     H612054   1.659   3.135   4.691 -0.1090 -0.7189  0.6409
  817THF     H712055   1.501   3.055   4.716 -0.1578 -0.2375  2.3569
  817THF     C812056   1.478   3.240   4.607  0.4981 -0.2158 -0.1463
  817THF     C912057   1.351   3.273   4.688 -0.1013 -0.9080  0.9394
  817THF    H1012058   1.459   3.183   4.515  1.6666  0.7123 -0.9962
  817THF    H1112059   1.531   3.331   4.579 -2.1301  1.1433 -1.0563
  817THF    H1212060   1.338   3.381   4.681  1.3971 -0.7600 -0.1400
  817THF    H1312061   1.263   3.219   4.653  1.1220 -2.2716 -0.1800
  818THF     O112062   1.538   0.749   0.040 -0.0083  0.5437 -0.6298
  818THF     C212063   1.513   0.611   0.082 -0.5017  0.7751  0.2141
  818THF     C312064   1.434   0.825   0.098  0.1050  0.1315  0.0264
  818THF     H412065   1.530   0.607   0.189  0.3760 -0.7737  0.0504
  818THF     H512066   1.569   0.533   0.031 -0.1703  1.9565 -1.3165
  818THF     H612067   1.440   0.823   0.207  0.0957 -0.3316  0.0194
  818THF     H712068   1.437   0.926   0.058  1.9001 -0.5216 -1.6882
  818THF     C812069   1.310   0.745   0.054 -0.0913 -0.1800 -0.3416
  818THF     C912070   1.365   0.601   0.046 -0.4731  0.0155  0.4025
  818THF    H1012071   1.280   0.780  -0.044  2.8109 -1.9686 -2.0193
  818THF    H1112072   1.231   0.757   0.128 -0.9249 -0.4243 -1.1676
  818THF    H1212073   1.309   0.527   0.103 -1.6140  0.7609  0.2885
  818THF    H1312074   1.358   0.572  -0.059 -0.6022  1.5424 -0.0315
  819THF     O112075   1.444   0.041   5.087  0.5682  0.5759  0.0460
  819THF     C212076   1.581   0.017   5.047  0.2300  0.2174 -0.0873
  819THF     C312077   1.363  -0.071   5.055 -0.3406  0.5770 -0.0665
  819THF     H412078   1.645   0.018   5.136  0.3495  0.6881 -0.1746
  819THF     H512079   1.608   0.098   4.979 -0.3628  1.0485  0.6470
  819THF     H612080   1.360  -0.133   5.144  1.7761 -0.0037 -0.3537
  819THF     H712081   1.257  -0.050   5.036 -1.1738 -2.9108  0.1091
  819THF     C812082   1.434  -0.142   4.949  0.1828  0.4663 -0.5589
  819THF     C912083   1.573  -0.127   4.998  0.2299  0.1334  0.2405
  819THF    H1012084   1.420  -0.114   4.844 -1.2954  0.7345 -0.3094
  819THF    H1112085   1.414  -0.249   4.954  2.4214 -0.0437 -1.3579
  819THF    H1212086   1.588  -0.196   5.081  1.9104 -1.5434 -1.3530
  819THF    H1312087   1.644  -0.156   4.921 -2.0596 -1.2016 -1.5178
  820THF     O112088   2.494   0.994   4.592 -0.1527  1.1746 -0.0908
  820THF     C212089   2.375   1.050   4.559 -0.3459 -0.1937  0.4336
  820THF     C312090   2.569   1.100   4.650 -0.3217 -0.7724 -1.2859
  820THF     H412091   2.309   0.967   4.538 -1.9170  0.3969  2.6811
  820THF     H512092   2.372   1.114   4.471 -0.3355  0.2560  0.7529
  820THF     H612093   2.638   1.059   4.724  1.6934  2.4398 -1.1888
  820THF     H712094   2.610   1.167   4.575 -0.4872 -0.1079 -0.7939
  820THF     C812095   2.469   1.175   4.736  0.2315 -0.4325  0.1053
  820THF     C912096   2.332   1.128   4.679 -0.1136 -0.4363  0.0098
  820THF    H1012097   2.488   1.283   4.742 -1.0375 -0.1580 -0.5173
  820THF    H1112098   2.473   1.134   4.837  2.3981  1.4166  0.8475
  820THF    H1212099   2.261   1.076   4.744 -2.7343  1.8267 -0.8369
  820THF    H1312100   2.274   1.215   4.649  1.6343  0.5512 -0.6190
  821THF     O112101   3.555   2.091   4.947 -0.2397  0.3050 -0.0278
  821THF     C212102   3.657   2.009   4.991 -0.1141  0.0563 -0.3035
  821THF     C312103   3.476   2.124   5.062 -1.0449 -0.5137  0.5075
  821THF     H412104   3.745   2.070   5.012 -1.3122  1.3388  1.2826
  821THF     H512105   3.679   1.934   4.915  0.6374  0.0630 -0.1026
  821THF     H612106   3.494   2.229   5.082 -0.6394 -0.6410  0.8349
  821THF     H712107   3.372   2.107   5.037 -0.9311  0.7654 -1.0148
  821THF     C812108   3.520   2.029   5.174  0.1097 -0.7352  0.2365
  821THF     C912109   3.605   1.924   5.107 -0.2509  0.0106  0.4143
  821THF    H1012110   3.441   1.995   5.241 -0.5187 -0.8335 -0.5299
  821THF    H1112111   3.584   2.088   5.239 -1.2554  2.6099 -1.1925
  821THF    H1212112   3.681   1.886   5.175 -0.2481  4.2957  3.1409
  821THF    H1312113   3.531   1.847   5.082 -0.9765  0.9272 -0.3568
  822THF     O112114   2.916   2.670   4.398  0.0632 -0.4297 -0.1555
  822THF     C212115   2.786   2.739   4.393  0.0239  0.3326 -0.5363
  822THF     C312116   3.005   2.760   4.470  0.3924  0.1196 -0.0595
  822THF     H412117   2.703   2.668   4.394  1.4764 -1.4385 -0.6436
  822THF     H512118   2.785   2.818   4.318 -2.0326  1.5507  0.6742
  822THF     H612119   3.100   2.716   4.502  0.6425  0.3064 -0.5246
  822THF     H712120   3.032   2.844   4.406  1.1779  0.7493  1.0487
  822THF     C812121   2.922   2.808   4.587 -0.0061 -0.4104  0.0950
  822THF     C912122   2.776   2.805   4.535 -0.2459 -0.2031 -0.6170
  822THF    H1012123   2.959   2.908   4.611 -0.9819 -0.5933  2.6465
  822THF    H1112124   2.944   2.746   4.673  1.9265  2.0702  1.5321
  822THF    H1212125   2.731   2.733   4.603  0.1750  0.8436  0.8080
  822THF    H1312126   2.715   2.895   4.534  1.3602  0.9192 -1.2591
  823THF     O112127   0.881   0.655   3.406 -0.3332 -0.0330  0.3718
  823THF     C212128   0.783   0.728   3.474 -0.0279  0.1307 -0.3249
  823THF     C312129   0.819   0.550   3.334 -0.4698 -0.2698  0.1465
  823THF     H412130   0.732   0.783   3.396 -1.9499 -0.6729  0.3008
  823THF     H512131   0.813   0.786   3.562  2.3344  0.9935 -1.6128
  823THF     H612132   0.799   0.580   3.231 -0.2958  0.9632  0.4509
  823THF     H712133   0.870   0.454   3.338 -2.2245 -1.1871  1.6515
  823THF     C812134   0.680   0.524   3.405 -0.4749  0.1864  0.0451
  823THF     C912135   0.687   0.623   3.526  0.9359 -0.2642  0.4327
  823THF    H1012136   0.685   0.419   3.435  0.2900 -0.3324 -1.7797
  823THF    H1112137   0.596   0.542   3.338 -0.9231  0.0197  0.5613
  823THF    H1212138   0.584   0.658   3.530  0.8498 -0.3199 -0.8066
  823THF    H1312139   0.714   0.566   3.615 -1.5201 -0.6189  1.0204
  824THF     O112140   3.240   2.713   0.618  0.0812  0.4143 -0.1871
  824THF     C212141   3.302   2.820   0.693  0.8429 -0.2280  0.0674
  824THF     C312142   3.246   2.752   0.480  0.6421 -0.2970  0.3839
  824THF     H412143   3.324   2.785   0.793  0.9467 -1.7380 -0.4618
  824THF     H512144   3.215   2.886   0.697  1.3732  0.5539 -0.7131
  824THF     H612145   3.258   2.662   0.419  0.6345 -0.6770  0.9329
  824THF     H712146   3.157   2.794   0.434  2.1623  1.6433 -0.9335
  824THF     C812147   3.365   2.829   0.465 -0.1619 -0.0403  0.5680
  824THF     C912148   3.419   2.860   0.601 -0.4563  0.3014  0.4120
  824THF    H1012149   3.336   2.924   0.420 -0.7901 -0.4990 -0.0117
  824THF    H1112150   3.429   2.767   0.402 -0.2470  0.7957 -0.3868
  824THF    H1212151   3.502   2.792   0.622 -3.0126 -2.6288  1.9590
  824THF    H1312152   3.458   2.962   0.604  1.3352 -0.2030 -2.2128
  825THF     O112153   5.202   4.050   3.699  0.5469  0.0529 -0.1012
  825THF     C212154   5.174   3.909   3.699  0.4237  0.0248 -0.9414
  825THF     C312155   5.272   4.074   3.581 -0.0353 -0.6085  1.9018
  825THF     H412156   5.105   3.873   3.622 -0.7440  0.6832 -0.2239
  825THF     H512157   5.140   3.874   3.796  0.1473  0.7735 -0.7654
  825THF     H612158   5.204   4.080   3.496  0.4914 -1.2563  1.4293
  825THF     H712159   5.325   4.169   3.586 -0.6958 -0.2266  1.6841
  825THF     C812160   5.363   3.948   3.552  0.0269 -0.5228 -0.0988
  825THF     C912161   5.314   3.854   3.659  0.6010  0.5824  0.1629
  825THF    H1012162   5.469   3.976   3.552 -0.2228  0.4488  0.4682
  825THF    H1112163   5.339   3.910   3.452 -1.2645 -0.0071  0.0004
  825THF    H1212164   5.297   3.754   3.621  2.1397  0.8097 -1.2270
  825THF    H1312165   5.387   3.833   3.738 -0.4544  0.2245  1.0706
  826THF     O112166   0.605   0.895   0.159  0.1934 -0.2891  0.0317
  826THF     C212167   0.652   0.940   0.283 -0.0969  0.2097  0.8387
  826THF     C312168   0.546   1.012   0.102  0.9070  0.1296  0.7885
  826THF     H412169   0.742   0.999   0.265  0.4471 -0.9825 -0.6473
  826THF     H512170   0.673   0.849   0.340  1.1041 -1.7442 -2.4457
  826THF     H612171   0.619   1.084   0.066  2.4014 -0.5461  2.3015
  826THF     H712172   0.489   0.970   0.019 -0.4891  1.7820  0.8627
  826THF     C812173   0.471   1.070   0.214  0.4104  0.1405  0.2006
  826THF     C912174   0.530   1.006   0.339  0.5282 -0.6122 -0.1442
  826THF    H1012175   0.373   1.028   0.190  1.1493  0.6936 -4.8332
  826THF    H1112176   0.468   1.179   0.216 -1.2200  0.1260  1.8325
  826THF    H1212177   0.560   1.090   0.402 -2.1254  0.0486  0.3681
  826THF    H1312178   0.460   0.954   0.403 -0.2244  2.4949  1.7749
  827THF     O112179   1.205   1.795   2.686 -0.0022  0.2593  0.1743
  827THF     C212180   1.111   1.865   2.760 -0.1291 -0.8388  0.4400
  827THF     C312181   1.242   1.873   2.572 -0.6404  0.1556 -0.1130
  827THF     H412182   1.135   1.925   2.848  0.5241  2.3051 -1.7345
  827THF     H512183   1.050   1.786   2.804  2.0657 -1.8191  1.9589
  827THF     H612184   1.304   1.955   2.608 -0.7448  0.6831 -1.0892
  827THF     H712185   1.301   1.804   2.511  0.2584 -0.4001  1.3404
  827THF     C812186   1.108   1.912   2.518  0.0757  0.0577 -0.3174
  827THF     C912187   1.039   1.946   2.651  0.5570 -0.0559  0.1442
  827THF    H1012188   1.062   1.826   2.471  0.6339  0.6206 -1.9719
  827THF    H1112189   1.111   1.988   2.440  1.3709 -0.7888 -1.1348
  827THF    H1212190   1.048   2.046   2.693 -1.3090  0.8632 -1.4609
  827THF    H1312191   0.931   1.933   2.639  0.5921  0.5974 -0.9777
  828THF     O112192   4.812   4.084   5.307 -0.0858 -0.3263  0.3699
  828THF     C212193   4.843   3.978   5.206 -0.4398 -0.7217  0.4145
  828THF     C312194   4.871   4.052   5.428 -0.1606  0.0616 -0.0471
  828THF     H412195   4.938   4.007   5.161 -1.2379  0.0037 -0.8875
  828THF     H512196   4.761   3.992   5.136  1.4943  1.9786 -1.5219
  828THF     H612197   4.973   4.088   5.424 -0.0648 -0.0645  1.0793
  828THF     H712198   4.829   4.099   5.517 -1.6370 -1.0124 -0.1281
  828THF     C812199   4.873   3.899   5.436 -0.1849 -0.8823  0.3902
  828THF     C912200   4.846   3.856   5.286  0.8160  0.3127 -0.6746
  828THF    H1012201   4.791   3.862   5.497 -0.1685 -0.0113  0.9444
  828THF    H1112202   4.973   3.871   5.468 -0.2139 -0.1483  1.1600
  828THF    H1212203   4.916   3.782   5.247  2.1457 -0.7197  3.2381
  828THF    H1312204   4.745   3.814   5.280  1.2626 -0.7745 -0.9083
  829THF     O112205   3.710   3.265   1.016 -0.0017  0.2426 -0.1548
  829THF     C212206   3.569   3.272   1.002  0.4327  0.9491 -0.3249
  829THF     C312207   3.763   3.287   0.888  0.4033 -0.0482 -0.5313
  829THF     H412208   3.517   3.289   1.096 -2.1745  0.1468 -1.5078
  829THF     H512209   3.535   3.173   0.972 -2.3519  1.0422  2.1001
  829THF     H612210   3.870   3.306   0.897  1.2745 -4.1770 -0.2057
  829THF     H712211   3.738   3.199   0.828  0.8774 -1.6194  1.4712
  829THF     C812212   3.684   3.411   0.854 -0.5469  0.2660  0.2568
  829THF     C912213   3.543   3.384   0.905  0.0447 -0.1055 -0.4985
  829THF    H1012214   3.689   3.422   0.746 -0.2666 -0.1839  0.2197
  829THF    H1112215   3.726   3.502   0.897 -0.8464  0.1194  0.8708
  829THF    H1212216   3.494   3.469   0.952 -1.4029  0.0934 -2.2599
  829THF    H1312217   3.486   3.339   0.823  0.4592 -2.7196  0.5568
  830THF     O112218   2.205   2.969   2.153 -0.0761  0.0728 -0.2080
  830THF     C212219   2.084   3.013   2.224  0.7712 -0.6423  0.4871
  830THF     C312220   2.297   3.073   2.173  0.3751 -0.3030  0.2272
  830THF     H412221   2.085   3.006   2.333  2.2323  0.9944  0.6167
  830THF     H512222   1.990   2.966   2.192 -0.6709  1.2729  1.6874
  830THF     H612223   2.339   3.064   2.274 -0.6312  0.0530  0.6958
  830THF     H712224   2.378   3.077   2.101 -1.1335 -0.8498 -1.5609
  830THF     C812225   2.222   3.199   2.152 -0.0974  0.1319  0.1214
  830THF     C912226   2.076   3.158   2.164 -0.6538 -0.0790  0.0792
  830THF    H1012227   2.245   3.237   2.052 -1.0712  0.3907 -0.0232
  830THF    H1112228   2.259   3.270   2.225  0.0354  0.7456 -0.5303
  830THF    H1212229   2.027   3.226   2.234  0.6785  0.0946  0.8839
  830THF    H1312230   2.038   3.166   2.062 -0.0735  0.1388 -0.1196
  831THF     O112231   2.022   1.610   3.797  0.2061  0.0552 -0.0545
  831THF     C212232   1.990   1.628   3.664  0.6979  0.1005 -0.1704
  831THF     C312233   2.108   1.716   3.843 -1.1576 -0.3252 -0.0941
  831THF     H412234   1.895   1.581   3.638  0.0824  0.5654  1.2005
  831THF     H512235   2.068   1.577   3.607 -0.8159 -1.6372 -0.8100
  831THF     H612236   2.117   1.721   3.951  1.2499  1.8360 -0.3082
  831THF     H712237   2.208   1.695   3.807 -0.1168 -1.8589  3.2807
  831THF     C812238   2.062   1.839   3.767  0.1070 -0.4115  1.2969
  831THF     C912239   2.003   1.779   3.635  0.6677 -0.0455 -0.2886
  831THF    H1012240   2.140   1.913   3.747  0.0500 -0.1810  1.9221
  831THF    H1112241   1.984   1.896   3.817  0.4910  0.0818  1.3344
  831THF    H1212242   1.905   1.822   3.615 -0.0852 -1.5733 -0.1092
  831THF    H1312243   2.060   1.781   3.542  0.8093 -2.3971 -0.3208
  832THF     O112244   4.751   4.968   2.289 -0.5759  0.2625 -0.2759
  832THF     C212245   4.610   4.996   2.262 -0.6876 -0.3760  0.2316
  832THF     C312246   4.798   5.085   2.353 -0.6720  0.4692 -0.0390
  832THF     H412247   4.551   4.963   2.348 -2.4110  0.2328 -0.6628
  832THF     H512248   4.583   4.952   2.166 -0.3913 -1.0152  0.4370
  832THF     H612249   4.780   5.086   2.461  1.3814  1.5044  0.3382
  832THF     H712250   4.907   5.077   2.354 -0.4452  2.4346  2.5096
  832THF     C812251   4.739   5.203   2.282  0.3805  0.3146  0.5948
  832THF     C912252   4.598   5.153   2.240 -0.5203  0.0098 -0.2386
  832THF    H1012253   4.802   5.233   2.197 -2.1558 -0.5360 -1.7261
  832THF    H1112254   4.731   5.293   2.343  1.4155  0.2663  0.8244
  832THF    H1212255   4.514   5.200   2.291 -0.5140 -1.3363  1.0686
  832THF    H1312256   4.574   5.147   2.134 -0.4774 -6.4479 -0.2285
  833THF     O112257   0.817   3.953   3.650  0.5478  0.4202 -0.0721
  833THF     C212258   0.954   3.968   3.620 -0.2318 -0.0241  0.3395
  833THF     C312259   0.737   4.016   3.556  0.4963  0.1961 -0.0262
  833THF     H412260   1.022   3.897   3.667 -0.4704  0.3261  1.2320
  833THF     H512261   0.973   4.070   3.655 -0.2918 -0.9093  3.1861
  833THF     H612262   0.635   3.979   3.548  0.6315 -0.4747  1.1684
  833THF     H712263   0.726   4.124   3.569 -0.2227 -0.0086  1.2725
  833THF     C812264   0.812   3.981   3.431  0.0301 -0.7833 -0.0301
  833THF     C912265   0.957   3.963   3.467 -0.9577 -0.3736 -0.6651
  833THF    H1012266   0.809   4.056   3.352  0.6090 -0.5785  0.1381
  833THF    H1112267   0.767   3.887   3.398 -1.2434 -0.4558  0.6750
  833THF    H1212268   0.982   3.861   3.440  0.4166  0.2108 -1.7072
  833THF    H1312269   1.021   4.039   3.424 -1.1752  1.1694  1.5481
  834THF     O112270   2.593   3.917   2.920 -0.3101 -0.0511 -0.1349
  834THF     C212271   2.658   3.840   3.015 -0.1198  0.8023 -0.0319
  834THF     C312272   2.568   3.834   2.800 -0.0929 -0.1081 -0.0626
  834THF     H412273   2.667   3.873   3.119 -0.1346 -0.1184  0.2762
  834THF     H512274   2.763   3.832   2.987 -0.6425 -0.9180 -1.7733
  834THF     H612275   2.507   3.885   2.726  1.8443  0.5017 -1.3173
  834THF     H712276   2.653   3.816   2.734 -2.2893  0.0718 -3.1717
  834THF     C812277   2.527   3.699   2.853 -0.2020  0.2810 -0.0609
  834THF     C912278   2.602   3.691   2.989  0.5561  0.1914 -0.7899
  834THF    H1012279   2.546   3.613   2.788  2.1937  1.9415 -1.7326
  834THF    H1112280   2.419   3.703   2.867 -0.2220  0.9753 -0.3840
  834THF    H1212281   2.539   3.666   3.075  0.2860 -0.0831 -1.0641
  834THF    H1312282   2.683   3.618   2.984  1.8666  1.4662  0.8491
  835THF     O112283   5.145   4.561   4.263  0.3121 -0.0221 -0.2570
  835THF     C212284   5.144   4.506   4.402  0.8180 -1.3550  0.3081
  835THF     C312285   5.087   4.471   4.180 -0.1840  0.4380  0.0200
  835THF     H412286   5.060   4.554   4.451 -0.6247 -1.2858 -2.1014
  835THF     H512287   5.235   4.545   4.449  1.5135 -0.8021 -1.4173
  835THF     H612288   4.979   4.471   4.195  0.1122  1.6386  2.8010
  835THF     H712289   5.110   4.499   4.078 -0.8060  2.0705  0.2937
  835THF     C812290   5.146   4.343   4.235  0.4895  0.3943  0.2681
  835THF     C912291   5.127   4.358   4.391  0.3491 -0.3871  0.4606
  835THF    H1012292   5.252   4.341   4.210  0.2589  1.5694 -0.9067
  835THF    H1112293   5.100   4.258   4.185  1.5861 -0.8449  1.2966
  835THF    H1212294   5.027   4.322   4.418 -0.2725  1.0573  0.1790
  835THF    H1312295   5.190   4.299   4.457  1.7373 -0.4257 -0.8635
  836THF     O112296   4.248   0.152   4.994 -0.2173 -0.0851 -0.4469
  836THF     C212297   4.112   0.122   4.978  0.6556  0.2149 -0.2789
  836THF     C312298   4.282   0.103   5.122 -0.7152 -0.4845 -0.1221
  836THF     H412299   4.100   0.025   4.931 -0.4663  0.7135 -1.0802
  836THF     H512300   4.082   0.201   4.908  1.6914 -0.6619 -1.7691
  836THF     H612301   4.325   0.003   5.114 -1.1651 -0.5838 -1.5787
  836THF     H712302   4.357   0.160   5.176 -1.0130 -1.0310  0.8946
  836THF     C812303   4.161   0.103   5.210  0.2889  0.2548 -0.8143
  836THF     C912304   4.049   0.139   5.117  0.5981 -0.3414 -0.1480
  836THF    H1012305   4.164   0.156   5.305 -0.8696 -2.4926  0.8702
  836THF    H1112306   4.134   0.003   5.244 -0.2760  0.3429 -1.0016
  836THF    H1212307   3.962   0.076   5.129 -0.1471  0.5427 -0.7761
  836THF    H1312308   4.008   0.239   5.132  0.0826 -0.7764  1.6032
  837THF     O112309   4.599   1.018   5.379 -0.0336  0.1844  0.4852
  837THF     C212310   4.729   1.070   5.341 -0.4121 -0.4074 -0.1220
  837THF     C312311   4.508   1.121   5.330 -0.5035  0.6572 -0.2536
  837THF     H412312   4.751   1.063   5.234 -0.4724 -0.2361 -0.1450
  837THF     H512313   4.799   1.009   5.397 -2.7642 -2.5897  0.6801
  837THF     H612314   4.477   1.113   5.226  1.2949 -1.5540 -0.6939
  837THF     H712315   4.416   1.123   5.388 -0.3027  0.6067  0.0679
  837THF     C812316   4.583   1.246   5.337  0.0692 -0.3391  0.1187
  837THF     C912317   4.720   1.211   5.393  0.8035 -0.6559 -0.5065
  837THF    H1012318   4.525   1.304   5.410  0.1390 -0.3540  0.1865
  837THF    H1112319   4.590   1.300   5.243  2.9230 -1.0133 -0.1631
  837THF    H1212320   4.802   1.258   5.339  0.6315 -0.4718 -0.6078
  837THF    H1312321   4.726   1.210   5.502 -1.0269  1.5407 -0.3164
  838THF     O112322   0.173   3.813   5.234 -0.2441  0.1672 -0.0262
  838THF     C212323   0.153   3.906   5.340  0.7380 -0.0294 -0.6188
  838THF     C312324   0.272   3.860   5.147  0.5259 -0.0520  0.5681
  838THF     H412325   0.162   3.849   5.433 -1.5368 -0.4948 -0.6059
  838THF     H512326   0.051   3.942   5.349  1.3700  1.9886 -1.0998
  838THF     H612327   0.328   3.775   5.106 -1.4621 -0.3379 -1.7950
  838THF     H712328   0.225   3.905   5.059  0.8053 -2.0728 -0.6846
  838THF     C812329   0.352   3.954   5.237  0.3828  0.3966  0.5512
  838THF     C912330   0.253   4.011   5.332 -0.3362 -0.0521  0.2995
  838THF    H1012331   0.404   4.037   5.188 -0.7682  0.9508  0.2337
  838THF    H1112332   0.417   3.883   5.288 -0.7526 -1.8167 -0.8731
  838THF    H1212333   0.283   4.046   5.431  1.9539 -1.8349  0.3029
  838THF    H1312334   0.211   4.099   5.282  1.4845 -0.6685 -2.5212
  839THF     O112335   5.321   1.490   4.045  0.3448  0.3203 -0.4897
  839THF     C212336   5.327   1.449   3.908  0.0106 -0.0300 -0.2139
  839THF     C312337   5.263   1.619   4.054  0.6218  0.5131 -1.4486
  839THF     H412338   5.267   1.361   3.886 -1.8988  1.2881 -0.5784
  839THF     H512339   5.430   1.431   3.878 -0.3536 -0.7275 -1.0964
  839THF     H612340   5.156   1.608   4.072  0.7192  3.1047  1.5116
  839THF     H712341   5.304   1.684   4.131 -2.2275  0.3149  0.3940
  839THF     C812342   5.295   1.678   3.919 -0.1411  0.1742 -0.7495
  839THF     C912343   5.270   1.569   3.826 -1.0034  0.3816 -0.0420
  839THF    H1012344   5.396   1.717   3.911  0.0119 -0.2895 -1.0726
  839THF    H1112345   5.234   1.764   3.893 -0.7242 -0.7499 -2.6028
  839THF    H1212346   5.173   1.558   3.776 -0.4694 -2.4175 -0.6004
  839THF    H1312347   5.331   1.580   3.736 -2.2237 -0.0289 -0.9558
  840THF     O112348   2.505   3.282   3.303  0.1693  0.5566  0.3807
  840THF     C212349   2.513   3.426   3.295 -0.5847 -0.4547 -0.7042
  840THF     C312350   2.518   3.256   3.447 -0.1592  0.6141  1.0036
  840THF     H412351   2.413   3.466   3.315 -0.2418  2.2130 -3.4699
  840THF     H512352   2.541   3.470   3.199  0.3736 -0.0679 -0.2552
  840THF     H612353   2.425   3.222   3.494 -1.4550  0.8228 -1.2604
  840THF     H712354   2.595   3.180   3.460 -0.5174 -0.1845 -1.1505
  840THF     C812355   2.570   3.378   3.516 -0.0557  0.6474  0.0170
  840THF     C912356   2.621   3.465   3.409 -0.3541 -0.2061 -0.2981
  840THF    H1012357   2.642   3.363   3.595  0.4041  1.2034 -0.2954
  840THF    H1112358   2.485   3.425   3.566  1.9285  2.2919  2.0359
  840THF    H1212359   2.620   3.570   3.439  1.4060  0.0230 -0.9426
  840THF    H1312360   2.718   3.429   3.376 -0.5782  0.2268 -1.4953
  841THF     O112361   1.584   1.942   3.891 -0.0605 -0.0394  0.0291
  841THF     C212362   1.708   1.940   3.962  0.0186  0.7169 -0.5582
  841THF     C312363   1.485   1.990   3.984  0.1046  0.5711 -0.3752
  841THF     H412364   1.739   2.044   3.964  1.2917  0.3351  0.0012
  841THF     H512365   1.776   1.877   3.905 -2.5397  1.5890 -5.0414
  841THF     H612366   1.487   2.099   3.987 -2.6590  0.7025 -0.8435
  841THF     H712367   1.384   1.970   3.948 -0.2908  0.4682  0.7535
  841THF     C812368   1.521   1.930   4.121  0.4885  0.7197 -0.0128
  841THF     C912369   1.668   1.884   4.095  0.4309 -0.2224  0.4896
  841THF    H1012370   1.456   1.852   4.158 -0.4951  1.6938  0.3438
  841THF    H1112371   1.526   2.008   4.197  0.6413  1.7433 -1.0424
  841THF    H1212372   1.742   1.919   4.167  0.6004 -0.9802  0.6947
  841THF    H1312373   1.677   1.775   4.101 -0.7050 -0.3118  0.8318
  842THF     O112374   3.885   4.957   3.403  0.5141  0.1076 -0.1711
  842THF     C212375   3.843   5.047   3.298  0.8334 -0.0349 -0.6235
  842THF     C312376   3.879   4.828   3.343  0.4320 -0.2053 -0.2209
  842THF     H412377   3.923   5.070   3.228  0.9889  0.2835 -0.3436
  842THF     H512378   3.796   5.137   3.338  0.4012 -0.7988  0.6764
  842THF     H612379   3.978   4.794   3.314  0.8665 -0.3454  1.3528
  842THF     H712380   3.826   4.755   3.404 -2.0879 -1.5071 -3.6485
  842THF     C812381   3.799   4.842   3.215  0.1983 -0.3238  0.3586
  842THF     C912382   3.738   4.978   3.227 -0.7064  0.2488 -0.0893
  842THF    H1012383   3.725   4.763   3.202  2.8185 -2.6343 -2.1588
  842THF    H1112384   3.870   4.835   3.133  0.8151  0.7448  0.7917
  842THF    H1212385   3.709   5.025   3.133  0.2388  0.4010 -0.3102
  842THF    H1312386   3.649   4.971   3.290 -0.9248  0.7873 -0.3315
  843THF     O112387   1.715   4.705   4.106  0.0310 -0.1474 -0.0317
  843THF     C212388   1.613   4.803   4.096  0.1963  0.1821 -0.0558
  843THF     C312389   1.755   4.695   4.240  0.0861 -0.0207  0.4998
  843THF     H412390   1.521   4.757   4.133 -0.4806  2.9992  2.1727
  843THF     H512391   1.601   4.837   3.993  0.7935 -0.5042 -0.3591
  843THF     H612392   1.693   4.621   4.292 -0.7157  1.2195  1.3510
  843THF     H712393   1.859   4.662   4.249  0.6204  2.0211  3.1133
  843THF     C812394   1.734   4.838   4.288 -0.1889 -0.1746  0.3962
  843THF     C912395   1.672   4.914   4.178 -0.1133 -0.4749 -0.3709
  843THF    H1012396   1.825   4.894   4.311 -0.5682 -0.0159  1.5488
  843THF    H1112397   1.673   4.843   4.378  1.4982 -1.3191  1.6838
  843THF    H1212398   1.602   4.990   4.214  0.9158  1.2674 -1.8186
  843THF    H1312399   1.742   4.966   4.112  0.4942 -1.4751 -0.5244
  844THF     O112400   0.199   2.337   2.073 -0.2844  0.2454  0.0565
  844THF     C212401   0.281   2.375   1.964 -0.0641 -0.0734  0.6326
  844THF     C312402   0.282   2.354   2.189  0.1935  0.2968  0.1404
  844THF     H412403   0.225   2.403   1.874  1.4547  1.6107  0.1484
  844THF     H512404   0.335   2.291   1.920  0.8210  0.7598  0.0579
  844THF     H612405   0.217   2.361   2.275 -1.2247 -1.4277 -0.7411
  844THF     H712406   0.342   2.263   2.191 -1.6269 -1.0520 -1.9778
  844THF     C812407   0.364   2.472   2.165 -0.2988 -0.6764  0.2816
  844THF     C912408   0.391   2.469   2.013  0.7994 -0.0379 -0.0587
  844THF    H1012409   0.461   2.478   2.216  0.1795 -1.0350 -0.5661
  844THF    H1112410   0.316   2.564   2.199  0.9491  0.3938 -0.7365
  844THF    H1212411   0.379   2.567   1.966  0.0849 -1.4928 -3.1268
  844THF    H1312412   0.490   2.437   1.980 -0.3526 -0.9836 -2.9717
  845THF     O112413   1.520   0.250   5.478 -0.7171  0.2663  0.4342
  845THF     C212414   1.610   0.154   5.418  0.1649 -0.0706 -0.6016
  845THF     C312415   1.408   0.186   5.536 -0.6477 -0.3967 -0.4211
  845THF     H412416   1.710   0.164   5.461 -0.3173  2.6152  0.1252
  845THF     H512417   1.627   0.165   5.311 -1.0574  1.0149 -0.7086
  845THF     H612418   1.407   0.182   5.645  0.9697  0.5674 -0.3461
  845THF     H712419   1.319   0.233   5.494 -1.9087 -0.6765  1.7624
  845THF     C812420   1.405   0.045   5.478 -0.2782  0.4092 -0.2038
  845THF     C912421   1.552   0.016   5.452  0.2375  0.0249  0.2060
  845THF    H1012422   1.354   0.045   5.381 -1.7913  1.2669  0.5635
  845THF    H1112423   1.367  -0.037   5.538 -0.0556  1.4257  1.3862
  845THF    H1212424   1.599  -0.020   5.544  1.3727 -2.5719 -1.2825
  845THF    H1312425   1.565  -0.061   5.376 -0.9239 -0.4962  0.4995
  846THF     O112426   5.249   2.923   0.907  0.0174 -0.7224 -0.0933
  846THF     C212427   5.237   3.046   0.989 -0.0763 -0.0188  0.4053
  846THF     C312428   5.119   2.886   0.863 -0.0737 -0.4357  0.5879
  846THF     H412429   5.277   3.134   0.939 -0.7959 -0.0427 -0.2375
  846THF     H512430   5.301   3.036   1.077  1.8533 -3.0225 -1.1509
  846THF     H612431   5.093   2.934   0.769 -1.6131 -0.7239  0.8372
  846THF     H712432   5.103   2.779   0.856 -2.2065 -0.1239 -0.0374
  846THF     C812433   5.040   2.935   0.983 -0.0266  0.2357 -0.4710
  846THF     C912434   5.094   3.067   1.016  0.3895  0.3467  0.2433
  846THF    H1012435   5.063   2.862   1.061  1.3027 -0.6107 -1.6022
  846THF    H1112436   4.933   2.935   0.965  0.2717  0.8953 -2.4031
  846THF    H1212437   5.055   3.149   0.955 -1.4515  1.4373  2.6961
  846THF    H1312438   5.094   3.084   1.123  3.6753  0.2473  0.3444
  847THF     O112439   1.532   1.201   4.848  0.0337 -0.4527  0.3591
  847THF     C212440   1.401   1.238   4.897 -0.1830  0.5813 -0.0386
  847THF     C312441   1.525   1.063   4.832 -0.9201  0.1881  0.3508
  847THF     H412442   1.326   1.233   4.818 -1.4592  2.0744  1.0061
  847THF     H512443   1.423   1.339   4.932  3.5083  0.3604 -1.2672
  847THF     H612444   1.456   1.042   4.751 -1.3107 -2.7562  1.3470
  847THF     H712445   1.626   1.022   4.820 -0.4108  0.4761  2.9622
  847THF     C812446   1.462   1.019   4.963  0.1107  0.2657 -0.1532
  847THF     C912447   1.378   1.138   5.006  0.6149 -0.1198 -0.2049
  847THF    H1012448   1.539   0.991   5.036  0.7824 -0.1226 -0.9941
  847THF    H1112449   1.396   0.935   4.943  0.5939 -0.6363  1.7719
  847THF    H1212450   1.272   1.121   5.026  0.8236  0.7650  1.8915
  847THF    H1312451   1.419   1.167   5.102  1.8447 -2.6370  0.1051
  848THF     O112452   5.043   2.832   2.122  0.2006 -0.2255 -0.1270
  848THF     C212453   5.025   2.702   2.173 -0.2700  0.0368 -0.3739
  848THF     C312454   5.172   2.845   2.062  0.0275  0.3506 -0.2453
  848THF     H412455   4.917   2.703   2.186 -0.4554  1.8497 -1.6587
  848THF     H512456   5.067   2.681   2.272 -0.1807 -0.7880 -0.5828
  848THF     H612457   5.177   2.935   2.001 -1.5143 -0.6291 -1.9218
  848THF     H712458   5.238   2.866   2.146  0.1246  1.9826 -0.6994
  848THF     C812459   5.187   2.703   1.992 -0.5992 -0.0132 -0.0095
  848THF     C912460   5.093   2.611   2.071  0.3568  0.8465 -0.2373
  848THF    H1012461   5.291   2.670   1.993 -0.7661 -0.5719 -0.2415
  848THF    H1112462   5.158   2.713   1.887 -0.1802  0.0930 -0.1167
  848THF    H1212463   5.017   2.564   2.009  0.3703 -0.3329  0.6178
  848THF    H1312464   5.153   2.528   2.107 -0.0620  0.0635 -1.2892
  849THF     O112465   3.539   3.220   3.370  0.3112 -0.3815  0.0798
  849THF     C212466   3.649   3.138   3.339 -0.6173  0.7643  0.5110
  849THF     C312467   3.425   3.143   3.339  0.3410  0.5693  0.0316
  849THF     H412468   3.662   3.057   3.411  2.1985 -1.2221 -1.9440
  849THF     H512469   3.742   3.191   3.319 -0.6115  0.6296  0.1586
  849THF     H612470   3.422   3.071   3.421 -0.7935  1.2169  0.5918
  849THF     H712471   3.337   3.206   3.320  0.2670 -0.0602 -1.9294
  849THF     C812472   3.454   3.064   3.212 -0.4946 -0.1073 -0.2084
  849THF     C912473   3.605   3.075   3.204  0.1694 -0.6489 -0.4347
  849THF    H1012474   3.406   3.117   3.129  1.3269  2.4346  0.2477
  849THF    H1112475   3.435   2.958   3.222  2.1988 -0.5261  1.2957
  849THF    H1212476   3.657   2.979   3.197  0.5133 -0.6256  1.4917
  849THF    H1312477   3.640   3.144   3.127  0.2668 -0.3888 -0.1578
  850THF     O112478   0.017   3.366   3.516  0.5963  0.6588  0.1200
  850THF     C212479  -0.035   3.334   3.387 -0.3123 -0.0616  0.4685
  850THF     C312480  -0.006   3.505   3.541 -0.0822  0.1722  0.0043
  850THF     H412481  -0.039   3.225   3.384 -2.1696 -0.0268  0.5759
  850THF     H512482   0.026   3.369   3.304  0.5118 -2.8147 -0.1853
  850THF     H612483  -0.032   3.511   3.647  1.5243 -1.9692  0.5879
  850THF     H712484   0.074   3.577   3.527 -0.9861  1.2403  0.1871
  850THF     C812485  -0.133   3.536   3.452 -0.3512 -0.3499  0.4720
  850THF     C912486  -0.169   3.403   3.388 -0.5939 -0.3921  0.1532
  850THF    H1012487  -0.104   3.607   3.375 -4.0399 -1.6081 -2.3716
  850THF    H1112488  -0.221   3.574   3.503 -0.1536  1.4451 -0.4682
  850THF    H1212489  -0.248   3.356   3.447 -0.6306 -0.5657 -0.0316
  850THF    H1312490  -0.198   3.426   3.285 -3.0977  0.8667  1.0519
  851THF     O112491   2.777   3.722   4.200  0.4448 -0.2008 -0.4872
  851THF     C212492   2.663   3.803   4.159 -0.2619  0.0781  0.1061
  851THF     C312493   2.828   3.659   4.088 -0.4059  0.2848 -0.4477
  851THF     H412494   2.680   3.908   4.135 -0.5253  0.3235  0.9549
  851THF     H512495   2.596   3.813   4.245  0.8773  1.1714  0.8913
  851THF     H612496   2.882   3.721   4.017 -0.5833 -0.2555 -1.0570
  851THF     H712497   2.892   3.582   4.131 -1.6577  0.0021  0.9964
  851THF     C812498   2.694   3.621   4.022  0.1567 -0.1291  0.4029
  851THF     C912499   2.604   3.737   4.033  0.5920  0.0972 -0.0339
  851THF    H1012500   2.664   3.527   4.069 -1.8827  0.2972  0.0547
  851THF    H1112501   2.711   3.605   3.915 -3.2263 -1.6389 -0.0564
  851THF    H1212502   2.604   3.802   3.946  0.5731  1.0132  0.6366
  851THF    H1312503   2.500   3.709   4.053 -0.0586  2.6384  0.4919
  852THF     O112504   1.978   3.445   3.824  1.2255 -0.1360  0.3146
  852THF     C212505   2.035   3.430   3.693 -0.0643 -0.1498 -0.3999
  852THF     C312506   2.081   3.447   3.919  0.8431 -0.3805  0.2009
  852THF     H412507   2.046   3.532   3.658  1.3733  0.2591  1.0948
  852THF     H512508   1.962   3.377   3.631 -1.2579  1.3286 -0.3016
  852THF     H612509   2.133   3.540   3.896 -0.8659  0.9461  1.4475
  852THF     H712510   2.045   3.457   4.021 -1.7905  2.4054 -0.8188
  852THF     C812511   2.155   3.320   3.875  0.0391 -0.6620  0.2813
  852THF     C912512   2.165   3.353   3.721 -0.8505 -0.2841  0.4781
  852THF    H1012513   2.093   3.231   3.883 -0.3141 -0.3208  1.7800
  852THF    H1112514   2.249   3.299   3.926 -0.4228 -0.5155  1.2161
  852THF    H1212515   2.241   3.428   3.697 -0.6056 -0.3690  0.9729
  852THF    H1312516   2.174   3.262   3.662 -2.1102  0.6200 -1.1782
  853THF     O112517   0.615   0.667   0.689  0.3508  0.2680  0.6899
  853THF     C212518   0.569   0.768   0.779  0.6215  0.7858 -0.0729
  853THF     C312519   0.501   0.600   0.639 -0.0175 -0.2295  0.4400
  853THF     H412520   0.525   0.849   0.719  1.8160  1.1733 -0.4533
  853THF     H512521   0.639   0.818   0.846  1.3024 -0.9681  0.5761
  853THF     H612522   0.450   0.678   0.583  0.3214 -0.3479 -0.0441
  853THF     H712523   0.513   0.510   0.578 -1.8126  0.4466 -1.0324
  853THF     C812524   0.428   0.570   0.771 -0.2390 -0.2023 -0.1654
  853THF     C912525   0.468   0.685   0.869 -0.0149  0.0535  0.4256
  853THF    H1012526   0.455   0.472   0.812  2.0551  0.0146 -1.0226
  853THF    H1112527   0.320   0.578   0.754 -0.4894  0.3759  1.5635
  853THF    H1212528   0.383   0.749   0.889 -0.5595 -0.5850  0.1886
  853THF    H1312529   0.512   0.637   0.957  0.0093 -0.1277  0.3169
  854THF     O112530   4.216   2.467   3.336  0.2393  0.4226  0.4243
  854THF     C212531   4.118   2.408   3.247  0.2484 -0.0028 -0.5145
  854THF     C312532   4.294   2.365   3.399  0.3379  0.0670 -0.0703
  854THF     H412533   4.104   2.471   3.159  0.2400  0.8257  0.0699
  854THF     H512534   4.023   2.400   3.299 -0.4480  0.0622 -1.7455
  854THF     H612535   4.393   2.409   3.404 -0.4599  1.8630  0.7325
  854THF     H712536   4.256   2.346   3.500  2.7089  1.1882  1.1025
  854THF     C812537   4.279   2.240   3.320 -0.5862 -0.0448 -0.3596
  854THF     C912538   4.179   2.265   3.212  0.5982 -0.1696  0.1093
  854THF    H1012539   4.244   2.157   3.381  0.9334  0.4219  1.2446
  854THF    H1112540   4.381   2.222   3.285 -0.0697 -0.9921  1.5170
  854THF    H1212541   4.226   2.249   3.115  0.2100  1.9353 -0.4726
  854THF    H1312542   4.104   2.187   3.224  0.4737 -0.1091 -0.2708
  855THF     O112543   2.098   2.405   1.275  0.5206 -0.0641  0.0031
  855THF     C212544   2.025   2.327   1.375 -0.5214 -0.0748  0.0892
  855THF     C312545   2.036   2.535   1.255  0.5890  0.4548  0.1543
  855THF     H412546   2.089   2.262   1.434  0.8924 -0.5562 -1.8851
  855THF     H512547   1.951   2.265   1.326  1.5962 -1.8626 -1.0361
  855THF     H612548   2.118   2.607   1.266  1.0853 -0.0269 -0.3725
  855THF     H712549   1.984   2.556   1.162 -2.2137 -1.6919  1.1266
  855THF     C812550   1.946   2.559   1.380 -0.7457  0.3804  0.4393
  855THF     C912551   1.962   2.437   1.469  0.0452  0.0431 -0.4763
  855THF    H1012552   1.840   2.561   1.355 -0.7277 -0.8298  0.2189
  855THF    H1112553   1.980   2.646   1.437 -1.0030  0.7873 -0.0165
  855THF    H1212554   2.030   2.463   1.551  1.3877 -1.7910 -0.9659
  855THF    H1312555   1.864   2.409   1.508 -0.0116  2.5528  1.4604
  856THF     O112556   4.014   2.935   1.973 -0.3618 -0.4707  0.0320
  856THF     C212557   3.891   2.882   1.923  0.0653  0.4758 -0.1839
  856THF     C312558   3.987   3.032   2.069  0.9771  0.4381 -0.2573
  856THF     H412559   3.846   2.803   1.982 -0.7673  0.0862 -1.3127
  856THF     H512560   3.910   2.839   1.825  0.1280 -0.1994  0.1242
  856THF     H612561   4.011   2.992   2.168 -1.0403  0.5972  0.3309
  856THF     H712562   4.037   3.127   2.050 -1.7869  2.1499  0.5137
  856THF     C812563   3.831   3.050   2.043  0.2933 -0.1302 -1.1631
  856THF     C912564   3.795   2.999   1.910  0.3098 -0.0970 -0.5331
  856THF    H1012565   3.812   3.157   2.045  1.0438  0.0108  0.0828
  856THF    H1112566   3.774   2.996   2.118  3.5829 -2.8644 -0.3645
  856THF    H1212567   3.688   2.976   1.902  0.0117  0.4079  1.5108
  856THF    H1312568   3.827   3.072   1.836  0.0077  2.0897  1.3863
  857THF     O112569   4.007   0.075   3.658 -0.4815  0.0984 -0.4958
  857THF     C212570   3.884  -0.004   3.645 -0.6087  0.0519 -0.2845
  857THF     C312571   3.963   0.178   3.747 -0.7475  1.1134  0.3638
  857THF     H412572   3.914  -0.103   3.613  1.3457  1.7669 -4.6364
  857THF     H512573   3.803   0.037   3.584 -1.2353 -0.1131  0.4272
  857THF     H612574   4.051   0.235   3.777  0.7583 -1.3417  0.9621
  857THF     H712575   3.890   0.242   3.697 -1.3222  0.1335 -0.0895
  857THF     C812576   3.906   0.095   3.859 -0.2111  0.3422 -0.0844
  857THF     C912577   3.830  -0.009   3.785  0.0645 -0.1123  0.6613
  857THF    H1012578   3.844   0.145   3.934 -1.6401 -0.1740 -0.8788
  857THF    H1112579   3.995   0.049   3.902  1.3195  2.2455 -1.0219
  857THF    H1212580   3.842  -0.110   3.822  3.3175 -0.5245 -1.1042
  857THF    H1312581   3.724   0.013   3.778  0.0704 -0.5711 -1.9460
  858THF     O112582   2.752   4.990   2.355 -0.4797  0.7818 -0.0629
  858THF     C212583   2.788   5.122   2.318  0.2253  0.5928  0.0917
  858THF     C312584   2.832   4.958   2.471  0.0058  0.2636 -0.0764
  858THF     H412585   2.723   5.190   2.263  0.7496  0.5545 -0.5882
  858THF     H512586   2.877   5.117   2.255  0.1010  0.4686 -0.0734
  858THF     H612587   2.783   4.877   2.525  0.7068 -0.4478 -0.4884
  858THF     H712588   2.931   4.937   2.431  0.3309  2.3238 -0.4693
  858THF     C812589   2.820   5.089   2.557  0.0897 -0.0353  0.5039
  858THF     C912590   2.821   5.194   2.449 -0.2366  0.0817  0.2668
  858THF    H1012591   2.891   5.113   2.637  0.5813 -0.4386  0.1913
  858THF    H1112592   2.716   5.102   2.586 -0.1465  0.1763 -0.4109
  858THF    H1212593   2.761   5.278   2.484  0.7281  0.3347  1.3605
  858THF    H1312594   2.916   5.246   2.451 -0.5825  0.8831  4.0082
  859THF     O112595   0.232   2.875   4.884 -0.3087 -0.2774 -0.1453
  859THF     C212596   0.251   3.014   4.915  0.2508  0.1068  0.2289
  859THF     C312597   0.216   2.859   4.741 -0.0059  0.5031 -0.6869
  859THF     H412598   0.354   3.036   4.890  0.0951 -0.6159 -1.1195
  859THF     H512599   0.233   3.006   5.023  0.3456 -0.2460  0.2216
  859THF     H612600   0.313   2.850   4.692 -0.2982  2.4158 -1.7167
  859THF     H712601   0.147   2.777   4.723  1.0126 -0.4651 -0.3135
  859THF     C812602   0.162   2.994   4.694  0.5010 -0.2548  0.5510
  859THF     C912603   0.156   3.075   4.821  0.1243 -0.1467 -0.5903
  859THF    H1012604   0.061   2.989   4.654  0.4554 -4.1411  0.7857
  859THF    H1112605   0.226   3.037   4.616  0.4664 -0.1024  0.6048
  859THF    H1212606   0.195   3.176   4.804  0.2294  0.0720  0.8171
  859THF    H1312607   0.053   3.081   4.856  1.2038 -1.1391  3.1534
  860THF     O112608   0.930   3.480   1.556  0.1446  0.2843 -0.7087
  860THF     C212609   1.025   3.412   1.470  0.0150 -0.1723 -0.1464
  860THF     C312610   0.962   3.616   1.561  0.0230 -0.6613  0.2732
  860THF     H412611   0.990   3.409   1.367 -1.4102 -0.4510  0.3239
  860THF     H512612   1.030   3.309   1.506  1.2850 -0.3824 -0.8565
  860THF     H612613   0.935   3.675   1.473 -0.1348  0.3002  0.9530
  860THF     H712614   0.921   3.667   1.648  0.4057 -0.6986  0.4783
  860THF     C812615   1.116   3.604   1.574 -0.1836 -0.1856  0.2491
  860THF     C912616   1.161   3.486   1.489  0.2018  0.3716  0.4904
  860THF    H1012617   1.135   3.575   1.677  0.4668  2.6236  0.9839
  860THF    H1112618   1.170   3.694   1.547  1.5589 -2.0809 -3.2991
  860THF    H1212619   1.195   3.515   1.390 -3.5415  0.1969 -0.9754
  860THF    H1312620   1.234   3.424   1.541  1.1629 -0.3507 -1.6404
  861THF     O112621   3.889   4.320   1.833  0.0373 -0.2913 -0.2054
  861THF     C212622   3.789   4.266   1.910 -0.4877 -0.2093 -0.2409
  861THF     C312623   4.010   4.291   1.899 -0.2425  0.6337  0.4498
  861THF     H412624   3.694   4.256   1.857  0.7296  2.8457 -3.4358
  861THF     H512625   3.776   4.323   2.002  1.3259  0.6058 -0.4448
  861THF     H612626   4.090   4.316   1.830 -0.9923 -0.1639 -0.7585
  861THF     H712627   4.020   4.361   1.981 -1.5495 -0.9734  2.0637
  861THF     C812628   3.998   4.148   1.956 -0.6468  0.5703  0.4439
  861THF     C912629   3.847   4.133   1.947  0.2224  0.3092  0.4077
  861THF    H1012630   4.039   4.142   2.056  0.3940 -0.7184 -0.0332
  861THF    H1112631   4.052   4.078   1.892  0.0342  1.6443 -0.1861
  861THF    H1212632   3.833   4.070   1.859 -0.3559  0.7828  0.1546
  861THF    H1312633   3.802   4.082   2.032 -0.6154  0.0375 -0.1968
  862THF     O112634   2.691   5.359   0.327 -0.3054 -0.0171  0.2141
  862THF     C212635   2.714   5.238   0.251 -0.1339 -0.8472  0.3086
  862THF     C312636   2.805   5.386   0.404 -0.2248  0.3011  0.1264
  862THF     H412637   2.645   5.237   0.167  0.1146 -1.1860  0.1079
  862THF     H512638   2.694   5.151   0.313  0.5153 -1.5240 -0.4144
  862THF     H612639   2.825   5.493   0.399 -1.8172  0.6093 -0.2620
  862THF     H712640   2.780   5.362   0.508 -0.4256  0.9365  0.2316
  862THF     C812641   2.926   5.305   0.352 -0.0289  0.2498  0.6470
  862THF     C912642   2.874   5.231   0.231  0.0458  0.0768  0.5697
  862THF    H1012643   2.952   5.221   0.416  0.5467  1.9846  2.8315
  862THF    H1112644   3.015   5.364   0.330 -1.6230  2.3888 -0.4690
  862THF    H1212645   2.900   5.297   0.147  3.5409 -2.1726 -0.3192
  862THF    H1312646   2.921   5.138   0.200 -0.1888  0.2215 -0.2640
  863THF     O112647   4.978   4.745   3.284 -0.7245 -0.3479 -0.4462
  863THF     C212648   5.034   4.821   3.178  0.3039 -0.0420  0.1998
  863THF     C312649   5.006   4.816   3.401  0.6289 -0.0904 -0.1347
  863THF     H412650   4.963   4.883   3.123  0.2611  0.5027  0.8471
  863THF     H512651   5.068   4.758   3.095  3.0223 -0.8122  1.7563
  863THF     H612652   4.932   4.893   3.422  1.3454  0.4473  0.4839
  863THF     H712653   5.011   4.749   3.486  0.4938 -1.1734 -0.9631
  863THF     C812654   5.141   4.895   3.381  0.2988 -0.1575  0.4939
  863THF     C912655   5.158   4.889   3.232  0.0467  0.2001 -0.2079
  863THF    H1012656   5.227   4.841   3.420  1.4179  1.9477  1.1050
  863THF    H1112657   5.157   4.992   3.428  0.1162 -0.5758  1.4494
  863THF    H1212658   5.204   4.976   3.185  0.8267 -0.3619 -0.5169
  863THF    H1312659   5.240   4.818   3.221  2.8102  3.0234  0.6153
  864THF     O112660   2.945   4.655   4.000 -0.0555 -0.0717 -0.0329
  864THF     C212661   2.962   4.612   3.867  0.0083  0.2276  1.1307
  864THF     C312662   2.828   4.590   4.054 -0.1788  0.2176 -1.3103
  864THF     H412663   3.027   4.524   3.869 -0.4034 -0.0971  0.5836
  864THF     H512664   3.005   4.697   3.815 -3.2814  1.5212  0.3141
  864THF     H612665   2.847   4.486   4.080  3.1178  0.9532 -0.4371
  864THF     H712666   2.788   4.641   4.141 -0.9185 -0.9916 -0.9099
  864THF     C812667   2.735   4.590   3.938  0.1496  0.8796  0.0720
  864THF     C912668   2.822   4.589   3.811 -0.2866  0.1927 -0.9059
  864THF    H1012669   2.690   4.689   3.938 -0.9169  0.4099 -0.1744
  864THF    H1112670   2.668   4.505   3.950  0.6682  0.6230  1.2808
  864THF    H1212671   2.818   4.495   3.756  5.0418 -1.1415  0.4452
  864THF    H1312672   2.809   4.676   3.747  3.0984  1.1413 -0.4786
  865THF     O112673   1.906   4.013   3.747  0.1103 -0.6047 -0.1493
  865THF     C212674   1.951   3.933   3.646 -0.4552  0.4162 -0.8065
  865THF     C312675   1.807   4.096   3.693  0.1525  0.0456 -0.0111
  865THF     H412676   1.891   3.844   3.629  0.3432 -0.6192  1.3724
  865THF     H512677   2.040   3.876   3.675 -0.2621  0.4427 -1.3358
  865THF     H612678   1.722   4.028   3.693  0.6338 -0.5700  0.8173
  865THF     H712679   1.778   4.184   3.751 -1.3011  0.7179 -1.6482
  865THF     C812680   1.872   4.136   3.568 -0.5988  0.3134  0.2086
  865THF     C912681   1.962   4.029   3.529 -0.1077 -0.0860  0.8429
  865THF    H1012682   1.938   4.218   3.597 -0.0279 -0.5953  1.5733
  865THF    H1112683   1.803   4.163   3.487  0.7575  0.5735 -0.8874
  865THF    H1212684   1.940   3.975   3.437  2.1340  0.3004  0.0379
  865THF    H1312685   2.062   4.071   3.522  0.1832 -0.9902 -1.4724
  866THF     O112686   3.980   4.847   5.060  0.0049  0.4111 -0.0608
  866THF     C212687   3.908   4.831   5.182 -0.1986  0.2382 -0.0256
  866THF     C312688   3.881   4.858   4.960  0.0192  0.7833  0.0584
  866THF     H412689   3.885   4.927   5.228  0.1393  0.1717  0.2836
  866THF     H512690   3.972   4.776   5.251 -1.1594 -0.0889  0.6336
  866THF     H612691   3.828   4.952   4.974 -1.3400 -0.0315  0.6177
  866THF     H712692   3.905   4.839   4.856 -0.3582  0.4102  0.0374
  866THF     C812693   3.777   4.750   5.002 -0.0904  0.0243  0.2172
  866THF     C912694   3.779   4.754   5.155  0.8667 -0.2369 -0.2605
  866THF    H1012695   3.814   4.654   4.966 -1.4321  0.2461 -1.9030
  866THF    H1112696   3.680   4.764   4.954  1.2055  2.8518 -1.9286
  866THF    H1212697   3.690   4.800   5.199  1.7011  0.6499  0.5213
  866THF    H1312698   3.782   4.654   5.199 -1.2753 -0.3912 -0.3316
  867THF     O112699   4.408   3.982   1.089  0.5273  0.4312 -0.0268
  867THF     C212700   4.527   3.905   1.078  0.5078  0.0334 -0.3811
  867THF     C312701   4.405   4.076   0.991  0.4647 -0.4045  1.0245
  867THF     H412702   4.503   3.811   1.029  1.5312  0.7678 -2.4289
  867THF     H512703   4.579   3.878   1.170  1.3408 -1.4464 -1.2503
  867THF     H612704   4.303   4.076   0.952 -0.1794  2.6920  2.4015
  867THF     H712705   4.424   4.165   1.050  0.3911 -0.4479  1.1143
  867THF     C812706   4.520   4.043   0.892  0.0250  0.9220 -0.4143
  867THF     C912707   4.622   3.979   0.979  0.1508 -0.8059 -0.6611
  867THF    H1012708   4.548   4.124   0.825  0.6510  1.1286  0.0869
  867THF    H1112709   4.475   3.964   0.831 -1.4123  1.4060 -0.0244
  867THF    H1212710   4.687   3.914   0.921  0.7554 -0.5772 -0.2382
  867THF    H1312711   4.670   4.054   1.042 -0.1258  0.2084 -1.6308
  868THF     O112712   3.890   0.787   4.465  0.2078 -0.2530 -0.4979
  868THF     C212713   3.881   0.830   4.335  0.8009 -0.9656 -0.3665
  868THF     C312714   4.027   0.757   4.498 -0.1645 -0.7223  1.0939
  868THF     H412715   3.806   0.909   4.334  0.2688 -1.4420  0.7217
  868THF     H512716   3.856   0.744   4.273  0.5163 -1.5390  0.5246
  868THF     H612717   4.063   0.773   4.599 -1.1484  1.3985  1.1731
  868THF     H712718   4.032   0.651   4.474  1.2494 -0.6309  0.9252
  868THF     C812719   4.113   0.808   4.377 -0.2400  0.2337 -0.1181
  868THF     C912720   4.014   0.891   4.292 -0.0946 -0.3448 -0.2511
  868THF    H1012721   4.143   0.719   4.321  2.8265  0.1077  1.5134
  868THF    H1112722   4.203   0.861   4.408  2.1796 -2.7021 -1.6008
  868THF    H1212723   4.024   0.995   4.324 -2.7001  0.2833 -1.2418
  868THF    H1312724   4.018   0.893   4.183 -0.8109 -0.7282 -0.2830
  869THF     O112725   4.888   1.662   2.842  0.2897 -0.0438 -0.0628
  869THF     C212726   4.795   1.569   2.891  0.3988 -0.5392 -0.4274
  869THF     C312727   4.992   1.577   2.795  0.4387  0.0467 -0.1580
  869THF     H412728   4.693   1.607   2.897 -0.0897 -1.6105 -1.5326
  869THF     H512729   4.820   1.532   2.991  0.9223  2.8521  0.8273
  869THF     H612730   5.059   1.633   2.731  1.2139  0.6273  1.1088
  869THF     H712731   5.045   1.530   2.878  0.9294  0.3252 -0.3117
  869THF     C812732   4.916   1.462   2.722  0.3641 -0.4596  0.1852
  869THF     C912733   4.781   1.460   2.780 -0.0728 -0.6610 -0.3962
  869THF    H1012734   4.974   1.371   2.736  1.1278  0.2432  1.8445
  869THF    H1112735   4.920   1.482   2.615 -0.6077 -0.7453  0.0894
  869THF    H1212736   4.709   1.484   2.702  0.0926 -0.5534 -0.5169
  869THF    H1312737   4.752   1.365   2.825  2.6945 -1.5506 -0.3185
  870THF     O112738   0.199   3.794   0.602  0.4355  0.0846 -0.4321
  870THF     C212739   0.258   3.675   0.648  0.1984  0.0587 -0.2871
  870THF     C312740   0.287   3.903   0.630  0.3330  0.3106 -0.4922
  870THF     H412741   0.337   3.640   0.582 -0.0750 -1.2651  0.0605
  870THF     H512742   0.193   3.592   0.677  0.1630 -0.4293 -1.6556
  870THF     H612743   0.381   3.894   0.575 -1.9602 -1.8381 -4.5917
  870THF     H712744   0.251   4.002   0.605 -0.0159  0.2715 -0.1662
  870THF     C812745   0.313   3.882   0.780 -0.3526  0.2496  0.7098
  870THF     C912746   0.320   3.726   0.777 -0.4779 -0.4699  0.0980
  870THF    H1012747   0.232   3.921   0.843 -0.4281  1.8671 -0.3206
  870THF    H1112748   0.397   3.944   0.812 -1.5558  1.2018  2.2200
  870THF    H1212749   0.426   3.700   0.771 -0.3434  0.3673 -1.8503
  870THF    H1312750   0.271   3.679   0.863 -0.8838 -0.8429 -0.3372
  871THF     O112751   0.990   5.172   3.711  0.1544 -0.3656 -0.2828
  871THF     C212752   1.024   5.059   3.622  0.5490 -0.0033 -0.6029
  871THF     C312753   0.856   5.163   3.771 -0.4106  0.3136  0.7654
  871THF     H412754   1.110   4.997   3.645 -0.2355 -1.3792 -1.2575
  871THF     H512755   1.027   5.099   3.520 -4.9491  1.9802 -0.3313
  871THF     H612756   0.854   5.121   3.871 -0.7636  0.7913  0.9584
  871THF     H712757   0.795   5.251   3.788 -1.4059 -0.4308  1.1048
  871THF     C812758   0.786   5.064   3.679 -0.9599  0.3630  0.0828
  871THF     C912759   0.892   4.976   3.623  0.4457  0.3950  0.5631
  871THF    H1012760   0.739   5.110   3.593  0.4100 -0.5537 -1.2244
  871THF    H1112761   0.708   5.011   3.735 -1.9080  1.0994 -0.5174
  871THF    H1212762   0.909   4.890   3.689  1.4158  0.0910 -0.0572
  871THF    H1312763   0.868   4.925   3.529  3.1804  1.1083 -0.6086
  872THF     O112764   3.317   0.350   4.847  0.1315 -0.2753  0.2473
  872THF     C212765   3.333   0.446   4.952  0.2221  0.3541 -0.3634
  872THF     C312766   3.401   0.389   4.744  0.6839 -0.7360  0.0062
  872THF     H412767   3.414   0.412   5.017  1.2506  0.2173 -1.6851
  872THF     H512768   3.250   0.446   5.022  0.4673  1.1818 -0.0620
  872THF     H612769   3.503   0.359   4.770  0.3993 -0.1672  1.9741
  872THF     H712770   3.375   0.346   4.648 -0.9039  0.8205 -0.3116
  872THF     C812771   3.383   0.541   4.742  0.4910 -0.3261 -0.2843
  872THF     C912772   3.366   0.579   4.887 -0.0583  0.2995 -0.1880
  872THF    H1012773   3.291   0.560   4.687 -1.4342 -3.3171  1.5893
  872THF    H1112774   3.460   0.597   4.689 -0.6030  0.3330 -1.2393
  872THF    H1212775   3.460   0.620   4.924  0.5350 -0.3942 -0.8816
  872THF    H1312776   3.294   0.657   4.910 -0.4933  0.0767 -0.7744
  873THF     O112777   2.228   0.137   4.136 -0.1495  0.3766  0.5538
  873THF     C212778   2.317   0.070   4.058  0.2784  0.2660 -0.1757
  873THF     C312779   2.216   0.270   4.082 -0.0968 -0.1214  0.9861
  873THF     H412780   2.309  -0.037   4.072 -2.1302  0.5310  0.9009
  873THF     H512781   2.423   0.094   4.073  0.8940 -2.5104  0.3607
  873THF     H612782   2.122   0.318   4.109 -0.6621  0.0198 -1.0470
  873THF     H712783   2.299   0.336   4.107  0.6624  0.0204 -1.6464
  873THF     C812784   2.203   0.241   3.927 -0.4589  0.8123 -0.7328
  873THF     C912785   2.282   0.108   3.915 -0.2955 -0.2587  1.0854
  873THF    H1012786   2.241   0.318   3.859  3.6137 -0.9215 -0.7626
  873THF    H1112787   2.100   0.214   3.906 -0.6046  1.2995 -0.6483
  873THF    H1212788   2.224   0.037   3.856  1.0104 -1.0711  0.7356
  873THF    H1312789   2.372   0.112   3.855 -0.7671 -2.7474  0.0603
  874THF     O112790   4.054   1.783   1.532 -0.0035 -0.2192 -0.1054
  874THF     C212791   4.020   1.854   1.411 -0.5232 -0.0292 -0.5679
  874THF     C312792   3.967   1.677   1.554  0.5400 -0.1675  0.2329
  874THF     H412793   4.105   1.907   1.369 -1.0968  1.4170  0.0221
  874THF     H512794   3.946   1.932   1.431  0.6814  1.1324 -0.5137
  874THF     H612795   4.035   1.592   1.562 -0.0163 -0.5500  1.0392
  874THF     H712796   3.909   1.691   1.645  0.8400 -2.1727  0.8015
  874THF     C812797   3.884   1.669   1.421  0.0238  0.4914 -0.3813
  874THF     C912798   3.957   1.747   1.320 -0.7286 -0.1118 -0.0480
  874THF    H1012799   3.789   1.720   1.439  0.8411  1.9327  0.0604
  874THF    H1112800   3.871   1.566   1.390  1.6671  0.5295 -1.2948
  874THF    H1212801   4.041   1.688   1.285  0.8607 -0.1730  3.4055
  874THF    H1312802   3.906   1.785   1.232 -1.9032 -0.9026  0.2610
  875THF     O112803   3.454   1.519   4.979  0.7778  0.1844  0.0520
  875THF     C212804   3.326   1.583   5.004 -0.2201  0.1731 -0.3217
  875THF     C312805   3.424   1.389   4.925 -0.1975 -0.3533  0.3842
  875THF     H412806   3.328   1.691   5.024 -2.7633  0.2717 -0.3176
  875THF     H512807   3.280   1.536   5.091 -2.6195  0.6142 -1.2924
  875THF     H612808   3.501   1.350   4.859 -1.5766  1.0963 -2.2848
  875THF     H712809   3.403   1.320   5.007 -0.9820  0.1315  0.6127
  875THF     C812810   3.305   1.416   4.834  0.3403  0.0610 -0.7381
  875THF     C912811   3.264   1.559   4.872 -0.7225  0.1959  0.7415
  875THF    H1012812   3.223   1.345   4.846 -0.6152  1.4217  1.5399
  875THF    H1112813   3.334   1.407   4.730  3.5421  1.5804 -0.0971
  875THF    H1212814   3.303   1.631   4.800 -0.7860 -0.3722  0.1361
  875THF    H1312815   3.156   1.568   4.860 -0.6687 -0.9310 -0.9255
  876THF     O112816   1.321   1.132   1.907 -0.1659 -0.3268  0.0337
  876THF     C212817   1.420   1.225   1.876  0.4524  0.4426  0.2674
  876THF     C312818   1.383   1.026   1.978  0.6748  0.1201  0.2137
  876THF     H412819   1.460   1.288   1.956 -0.8473 -1.2141  2.3186
  876THF     H512820   1.384   1.277   1.787 -0.3551  0.0250  0.3417
  876THF     H612821   1.412   1.064   2.076 -0.3263  1.1260  0.1379
  876THF     H712822   1.316   0.944   2.002  1.6879 -0.5410  0.8609
  876THF     C812823   1.504   0.999   1.887  0.1156  0.6657  0.0934
  876THF     C912824   1.541   1.140   1.835 -0.4052  0.1869 -0.1151
  876THF    H1012825   1.468   0.929   1.812 -0.2618  0.1796  0.7171
  876THF    H1112826   1.578   0.944   1.947  0.3675  0.7804 -0.1095
  876THF    H1212827   1.625   1.184   1.887 -1.9959  2.3269  0.7896
  876THF    H1312828   1.558   1.134   1.728 -0.1386 -1.4067 -0.0131
  877THF     O112829   4.418   2.119   2.789 -0.4841  0.2620 -0.5382
  877THF     C212830   4.525   2.208   2.827 -0.1521  0.5745 -0.5467
  877THF     C312831   4.296   2.178   2.811 -0.1735 -0.9538 -0.2071
  877THF     H412832   4.616   2.178   2.775  0.1897 -0.9391  0.8314
  877THF     H512833   4.545   2.185   2.932 -0.8138  1.8689 -0.1163
  877THF     H612834   4.232   2.150   2.727  1.4836  1.7433 -2.5713
  877THF     H712835   4.250   2.147   2.904  1.0741  0.0615  0.7929
  877THF     C812836   4.317   2.331   2.815 -0.3746  0.1275  0.3307
  877THF     C912837   4.466   2.341   2.786  0.8726 -0.4247 -0.0156
  877THF    H1012838   4.284   2.374   2.910 -2.1729 -1.4549  0.4855
  877THF    H1112839   4.256   2.384   2.742  0.2915 -1.3888 -1.3954
  877THF    H1212840   4.474   2.363   2.680 -4.2158  2.1019 -0.2258
  877THF    H1312841   4.521   2.411   2.849 -0.5197 -1.3320  2.3472
  878THF     O112842   0.674   4.982   4.959 -0.3618 -0.2441 -0.1132
  878THF     C212843   0.754   4.976   5.074 -0.0356 -0.5815  0.3720
  878THF     C312844   0.620   4.853   4.937  0.1033  0.4410 -0.0332
  878THF     H412845   0.769   5.078   5.109 -0.8278 -1.3387  3.1285
  878THF     H512846   0.849   4.935   5.040 -0.6420 -0.8879 -1.0155
  878THF     H612847   0.531   4.850   4.875  1.1976 -1.6785 -1.6339
  878THF     H712848   0.703   4.804   4.887  0.2305  1.3508 -0.7269
  878THF     C812849   0.596   4.794   5.079 -0.3101 -0.3372 -0.2431
  878THF     C912850   0.677   4.881   5.166  0.1766  0.1292  0.1288
  878THF    H1012851   0.635   4.692   5.074 -0.6893 -0.5318  0.6426
  878THF    H1112852   0.489   4.792   5.102 -0.2554  0.2839  0.0747
  878THF    H1212853   0.612   4.936   5.234  2.0244  2.3485  0.2073
  878THF    H1312854   0.758   4.829   5.217  0.3537 -0.8509 -1.1146
  879THF     O112855   1.092   3.791   4.741  0.2702  0.1198 -0.0521
  879THF     C212856   1.219   3.852   4.756  0.4976  0.3001 -0.3334
  879THF     C312857   0.997   3.849   4.830  0.5491 -0.5715 -0.2163
  879THF     H412858   1.233   3.948   4.707 -0.1625  1.2566  1.2640
  879THF     H512859   1.300   3.788   4.721  1.8476  1.1282  1.1206
  879THF     H612860   0.967   3.942   4.780  1.5946 -0.5855 -0.9129
  879THF     H712861   0.913   3.790   4.866  0.5109 -0.6841 -0.4864
  879THF     C812862   1.080   3.899   4.951  0.1240  0.5628 -0.2750
  879THF     C912863   1.226   3.874   4.911 -0.3419 -0.1490 -0.4254
  879THF    H1012864   1.051   3.837   5.036 -0.9434 -0.1390 -1.1138
  879THF    H1112865   1.057   4.003   4.970  0.5531  0.4827  0.6971
  879THF    H1212866   1.277   3.967   4.937 -2.5748  1.2196 -0.6932
  879THF    H1312867   1.269   3.786   4.960  1.3255  1.1608  0.5789
  880THF     O112868   4.379   0.592   3.609 -0.2985  0.1798 -0.5151
  880THF     C212869   4.368   0.714   3.533 -0.3849  0.1988  0.8992
  880THF     C312870   4.507   0.540   3.570  0.1700  0.1806  0.0711
  880THF     H412871   4.278   0.761   3.571 -0.9090  1.4995 -1.7312
  880THF     H512872   4.356   0.691   3.427  1.1311  1.0061  0.5155
  880THF     H612873   4.554   0.459   3.628  1.2606 -0.5799 -1.7814
  880THF     H712874   4.495   0.486   3.476 -0.3777  0.1934  0.1333
  880THF     C812875   4.597   0.661   3.557 -0.3549 -0.1982 -0.3847
  880THF     C912876   4.500   0.781   3.565 -0.7697 -0.1124  0.6847
  880THF    H1012877   4.642   0.669   3.457  0.3176  2.8262  0.0614
  880THF    H1112878   4.675   0.663   3.634 -0.1509 -0.8728 -0.5647
  880THF    H1212879   4.499   0.823   3.666  1.6236  1.5908  0.0942
  880THF    H1312880   4.536   0.854   3.493  1.8301 -0.8153  1.1601
  881THF     O112881   3.107   4.365   1.389  0.2177 -0.1856  0.0443
  881THF     C212882   3.038   4.472   1.460 -0.5835  0.3632 -0.4798
  881THF     C312883   3.162   4.421   1.275  1.1996 -0.0117  0.5240
  881THF     H412884   3.113   4.529   1.515 -0.8429 -1.3969  1.8462
  881THF     H512885   2.977   4.434   1.542 -1.1850  2.9913  0.4016
  881THF     H612886   3.252   4.482   1.277  1.6257 -0.6581  1.9143
  881THF     H712887   3.172   4.335   1.210 -1.8806 -1.3237  1.5922
  881THF     C812888   3.044   4.498   1.228 -0.2801 -0.4591  0.3726
  881THF     C912889   2.980   4.554   1.347  0.6685  0.0517 -0.5126
  881THF    H1012890   2.980   4.423   1.182 -0.0931 -0.2236 -0.2951
  881THF    H1112891   3.070   4.561   1.142  1.5907 -1.0151  0.4807
  881THF    H1212892   3.002   4.659   1.366 -2.4386  0.8957 -0.9470
  881THF    H1312893   2.873   4.559   1.366  0.8258  1.0934  0.1824
  882THF     O112894   1.823   5.367   5.255  0.4707  0.3219  0.1377
  882THF     C212895   1.902   5.383   5.144 -0.4337  0.3132  0.5037
  882THF     C312896   1.912   5.364   5.363  0.2360 -0.1550 -0.2771
  882THF     H412897   1.855   5.426   5.056 -2.3052 -2.4825 -0.0024
  882THF     H512898   1.950   5.293   5.105  0.1777  0.3004  1.2693
  882THF     H612899   1.863   5.359   5.461  2.7503 -0.3177  1.0395
  882THF     H712900   1.982   5.283   5.347  0.3275 -0.0491 -0.4099
  882THF     C812901   1.979   5.506   5.342  0.0276  0.4344 -0.6123
  882THF     C912902   1.998   5.498   5.196 -0.2477  0.6524 -0.4830
  882THF    H1012903   2.068   5.532   5.399  0.1365 -0.1081 -0.5283
  882THF    H1112904   1.907   5.584   5.365 -0.5975  0.4379 -2.3719
  882THF    H1212905   1.983   5.596   5.149 -0.9010  0.7034 -0.1801
  882THF    H1312906   2.101   5.474   5.168  0.3607  0.8369  1.4558
  883THF     O112907   2.844   4.185   4.983 -0.0938  0.4890 -0.0298
  883THF     C212908   2.700   4.198   4.970 -0.2057  0.2195 -0.0513
  883THF     C312909   2.895   4.192   4.853 -0.9633  0.2319 -0.7267
  883THF     H412910   2.668   4.219   5.072 -1.2179  2.5357 -0.7952
  883THF     H512911   2.645   4.116   4.925  0.1471  0.2530 -0.5516
  883THF     H612912   2.998   4.227   4.849 -0.9552  0.4439  0.8259
  883THF     H712913   2.891   4.099   4.796 -0.2823  0.0286 -0.4487
  883THF     C812914   2.805   4.298   4.791 -0.3058 -0.4961 -0.4649
  883THF     C912915   2.696   4.327   4.888  0.6508  0.2030  0.1104
  883THF    H1012916   2.764   4.272   4.694 -1.2594 -1.9893  0.2913
  883THF    H1112917   2.872   4.383   4.784 -0.1578 -0.1048  3.3506
  883THF    H1212918   2.721   4.409   4.956  0.5692  0.3344 -0.0167
  883THF    H1312919   2.602   4.350   4.837  1.5030 -0.5063 -1.8557
  884THF     O112920   0.049   0.438   1.205 -0.4500  0.2233  0.2057
  884THF     C212921   0.103   0.346   1.110  0.5131  0.3531  0.3141
  884THF     C312922   0.161   0.515   1.247  0.9035  0.9880 -0.4097
  884THF     H412923   0.022   0.306   1.050  0.7533 -0.8187  0.7465
  884THF     H512924   0.161   0.280   1.175 -0.5086  0.9317  1.8658
  884THF     H612925   0.118   0.604   1.293  2.3329  0.5743  1.8772
  884THF     H712926   0.224   0.465   1.320 -0.3949  0.6325  0.5068
  884THF     C812927   0.244   0.536   1.115  1.0112  0.0990  0.2399
  884THF     C912928   0.210   0.416   1.027 -0.5592 -0.9569  0.1105
  884THF    H1012929   0.348   0.555   1.141  0.6164  0.3737  1.7347
  884THF    H1112930   0.212   0.627   1.064 -1.8772  1.3652  3.8248
  884THF    H1212931   0.181   0.463   0.933  1.6572 -0.8763 -0.5851
  884THF    H1312932   0.294   0.356   0.993 -1.2086 -1.2559 -1.0163
  885THF     O112933   1.878   4.138   0.806 -0.8939 -0.0551  0.0533
  885THF     C212934   1.944   4.139   0.930 -0.4600 -0.4199 -0.3767
  885THF     C312935   1.908   4.009   0.757  0.0440 -0.8044  0.4165
  885THF     H412936   1.921   4.215   1.005 -0.8143  0.7770 -1.6734
  885THF     H512937   2.051   4.153   0.923 -0.4016 -0.5732  0.1081
  885THF     H612938   1.853   3.984   0.667  1.6364 -2.2289 -0.2155
  885THF     H712939   2.014   4.006   0.730  0.1086 -2.2257  0.7206
  885THF     C812940   1.882   3.916   0.872  0.2539  0.5165  0.0956
  885THF     C912941   1.932   3.994   0.989  0.3292 -0.7669  0.7952
  885THF    H1012942   1.951   3.832   0.865  0.3699  0.6999 -1.5595
  885THF    H1112943   1.783   3.871   0.880  1.4487 -2.3459  0.0793
  885THF    H1212944   1.855   3.976   1.064 -0.8768  0.4519 -0.1026
  885THF    H1312945   2.030   3.978   1.034  1.1799 -0.3406 -0.8338
  886THF     O112946   1.244   5.181   5.267 -0.7095 -0.3498  0.2650
  886THF     C212947   1.347   5.151   5.365 -0.7682  0.1535 -0.6892
  886THF     C312948   1.126   5.110   5.313 -0.4851  0.8746  0.6911
  886THF     H412949   1.347   5.184   5.469  0.5441 -2.5999  0.2835
  886THF     H512950   1.448   5.165   5.326  1.1695 -2.7067  2.6965
  886THF     H612951   1.076   5.161   5.395  1.4839  0.8015  2.0353
  886THF     H712952   1.057   5.096   5.231 -0.0665 -1.1137  0.6179
  886THF     C812953   1.188   4.980   5.376  0.5704  0.0431  0.6534
  886THF     C912954   1.338   5.002   5.382 -0.7228  0.3083  0.0479
  886THF    H1012955   1.155   4.893   5.318  0.4884  0.0582  0.6784
  886THF    H1112956   1.160   4.958   5.479 -0.2347 -1.0183  0.2338
  886THF    H1212957   1.392   4.970   5.471 -1.1135  0.1807  0.2421
  886THF    H1312958   1.383   4.941   5.303 -0.8364  0.6044 -0.2497
  887THF     O112959   1.868   0.441   4.339 -0.4190 -0.4340  0.2850
  887THF     C212960   1.839   0.439   4.474  0.0072 -0.0186  0.2247
  887THF     C312961   1.918   0.574   4.323 -0.1456 -0.5134  0.5152
  887THF     H412962   1.794   0.346   4.509 -0.9422  0.2582 -0.2236
  887THF     H512963   1.752   0.497   4.505 -1.8269 -2.5625  0.1768
  887THF     H612964   1.999   0.558   4.251  1.6691  1.3382  2.0179
  887THF     H712965   1.831   0.630   4.289  1.6993  2.6695  0.6752
  887THF     C812966   1.992   0.607   4.459 -0.3146  0.4355 -0.0033
  887THF     C912967   1.966   0.484   4.536  0.9289 -0.2710 -0.6881
  887THF    H1012968   1.951   0.691   4.515  1.3740 -0.3378  2.5259
  887THF    H1112969   2.099   0.625   4.443  0.1518 -1.6973  0.3570
  887THF    H1212970   2.036   0.402   4.521  1.0063 -0.1320 -1.1029
  887THF    H1312971   1.955   0.503   4.643 -1.5976 -0.5226 -0.8286
  888THF     O112972   2.313   3.097   0.896  0.1698  0.7527  0.2481
  888THF     C212973   2.295   3.071   0.758  0.5009 -0.3332 -0.6180
  888THF     C312974   2.297   3.228   0.920  1.1260 -0.0950  0.2096
  888THF     H412975   2.272   2.965   0.746  0.2185 -0.5536  1.5405
  888THF     H512976   2.387   3.100   0.707 -0.4641  0.4466 -1.9620
  888THF     H612977   2.272   3.253   1.023  0.6979  1.2740 -0.2024
  888THF     H712978   2.392   3.280   0.906  0.9177 -0.1302 -1.6565
  888THF     C812979   2.180   3.274   0.825 -0.4172  0.1025  0.4864
  888THF     C912980   2.174   3.165   0.723  0.3057  0.4601  0.3238
  888THF    H1012981   2.194   3.377   0.793 -2.1008  0.1934 -0.0672
  888THF    H1112982   2.091   3.280   0.888  0.6603  0.5296  2.0469
  888THF    H1212983   2.092   3.099   0.751  1.1253  0.0465  1.8460
  888THF    H1312984   2.161   3.183   0.616  1.9012 -1.4035 -0.2489
  889THF     O112985   0.131   5.119   4.108  0.1862 -0.1632  0.0995
  889THF     C212986   0.014   5.194   4.130 -0.0950 -0.3125 -0.2393
  889THF     C312987   0.124   5.052   3.987 -0.1538  0.8978  0.8333
  889THF     H412988   0.052   5.282   4.182  2.0859 -0.9018 -0.7242
  889THF     H512989  -0.055   5.136   4.191  0.2714 -0.3194  0.1757
  889THF     H612990   0.222   5.026   3.947  0.1302  1.9610  0.7867
  889THF     H712991   0.070   4.963   4.017  2.8351 -0.1542  3.7609
  889THF     C812992   0.039   5.139   3.899  0.0282 -0.4881 -0.1891
  889THF     C912993  -0.046   5.220   3.993 -0.3730  0.3094  0.3063
  889THF    H1012994  -0.014   5.095   3.815 -0.6697  2.2946 -1.3157
  889THF    H1112995   0.106   5.216   3.861 -0.5213  1.1920  2.0529
  889THF    H1212996  -0.048   5.324   3.960 -0.0166 -0.4526 -2.3411
  889THF    H1312997  -0.151   5.195   4.009 -0.9094  2.4504  0.4285
  890THF     O112998   2.384   3.503   1.415  0.6974 -0.3524 -0.2520
  890THF     C212999   2.457   3.536   1.295  0.2144  0.6627  0.1160
  890THF     C313000   2.378   3.363   1.425 -0.9632 -0.1937 -0.3926
  890THF     H413001   2.553   3.571   1.333  0.1128  2.2552 -0.9779
  890THF     H513002   2.400   3.607   1.235 -0.6051 -1.0286 -1.2144
  890THF     H613003   2.471   3.327   1.469 -0.0251 -1.6461 -3.2923
  890THF     H713004   2.297   3.335   1.493  0.2530  2.4608  2.3571
  890THF     C813005   2.365   3.323   1.278  0.4453  0.6233 -0.4047
  890THF     C913006   2.473   3.407   1.213 -0.3756 -0.2450 -0.3421
  890THF    H1013007   2.270   3.359   1.238 -0.5233 -0.2159  1.0538
  890THF    H1113008   2.383   3.217   1.259  0.3941  0.5537 -0.0602
  890THF    H1213009   2.575   3.372   1.227 -0.0698  1.1396  1.2603
  890THF    H1313010   2.467   3.418   1.105  2.3169 -0.8526 -0.6245
  891THF     O113011   1.351   4.150   1.966 -0.3239 -0.5413  1.3292
  891THF     C213012   1.352   4.261   2.057  0.5377  0.3319  0.6688
  891THF     C313013   1.476   4.087   1.965 -0.0326 -0.1941  0.1801
  891THF     H413014   1.249   4.290   2.079  0.5921  0.7319  0.3942
  891THF     H513015   1.398   4.344   2.004  0.2427 -1.3435 -2.4227
  891THF     H613016   1.476   3.990   1.915 -0.6875 -0.6892  1.1047
  891THF     H713017   1.553   4.140   1.909  0.1746 -1.2620 -0.5711
  891THF     C813018   1.504   4.076   2.117 -0.5393  0.5240 -0.0811
  891THF     C913019   1.437   4.202   2.174  0.1656  0.5542 -0.4216
  891THF    H1013020   1.608   4.055   2.141 -0.2163  1.0663 -0.9663
  891THF    H1113021   1.452   3.995   2.169  0.8077  1.2660  2.6320
  891THF    H1213022   1.377   4.171   2.260  0.2155  0.4795 -0.4122
  891THF    H1313023   1.514   4.272   2.207 -0.8000  1.2499  0.4041
  892THF     O113024   4.265   1.380   4.866  0.3470 -1.4350  1.0980
  892THF     C213025   4.401   1.437   4.855 -0.7199  0.7085  0.2543
  892THF     C313026   4.253   1.322   4.994 -0.0382  0.3108  0.0827
  892THF     H413027   4.389   1.534   4.807 -0.0987  1.0708  0.8211
  892THF     H513028   4.466   1.368   4.801 -0.6346  0.2574  0.9214
  892THF     H613029   4.146   1.302   5.000 -0.0263  0.1590 -0.1821
  892THF     H713030   4.310   1.231   5.009  0.6203  1.1046  2.9387
  892THF     C813031   4.319   1.422   5.090 -0.0962  0.5776  0.0805
  892THF     C913032   4.437   1.458   4.995 -0.5805 -0.0319  0.2230
  892THF    H1013033   4.351   1.387   5.188  0.1034  0.0464 -0.1686
  892THF    H1113034   4.254   1.506   5.114  0.1825  0.5760  0.8847
  892THF    H1213035   4.485   1.554   5.014  0.1643 -0.4312  0.4326
  892THF    H1313036   4.521   1.392   5.019  0.2982  0.9821 -0.0153
  893THF     O113037   1.307   4.955   1.592  0.3703 -0.3443 -0.9132
  893THF     C213038   1.413   4.983   1.501 -0.7508 -0.6445  0.9435
  893THF     C313039   1.324   5.015   1.720 -0.2758  0.1730 -0.7826
  893THF     H413040   1.364   5.031   1.417 -0.7911  0.2849  1.4787
  893THF     H513041   1.480   4.902   1.471 -0.7834  0.1939 -1.6084
  893THF     H613042   1.233   5.071   1.742  0.5136  0.7192  1.3141
  893THF     H713043   1.329   4.937   1.797 -0.2628  0.0370 -0.9201
  893THF     C813044   1.456   5.089   1.710 -0.1083 -0.3446 -0.2984
  893THF     C913045   1.498   5.096   1.565  0.2082  0.7752  0.0697
  893THF    H1013046   1.529   5.036   1.771  1.4044 -0.6875 -2.3051
  893THF    H1113047   1.448   5.194   1.737 -1.5320 -0.6973  0.7751
  893THF    H1213048   1.471   5.193   1.523  2.1369 -0.1813 -3.8199
  893THF    H1313049   1.607   5.089   1.561  0.5646  3.6433  1.7183
  894THF     O113050   4.798   5.307   4.977 -0.0966  0.0150 -0.1331
  894THF     C213051   4.760   5.358   5.107  0.0090  0.4068 -0.8624
  894THF     C313052   4.709   5.375   4.891  0.7948 -0.5305 -0.4700
  894THF     H413053   4.844   5.414   5.149 -0.1534  0.6654 -0.8814
  894THF     H513054   4.751   5.268   5.169  1.9918 -0.8946 -2.3476
  894THF     H613055   4.741   5.471   4.852 -1.1659 -1.5268 -5.2698
  894THF     H713056   4.697   5.315   4.801  1.0112 -0.7767 -0.3381
  894THF     C813057   4.582   5.404   4.968  0.0265 -0.1966  0.6531
  894THF     C913058   4.635   5.445   5.105  0.6726  0.2249  0.4609
  894THF    H1013059   4.532   5.309   4.982 -1.1919  0.0803 -1.3811
  894THF    H1113060   4.517   5.478   4.921  2.7613  1.4295 -0.8573
  894THF    H1213061   4.670   5.549   5.106  0.5064  0.2921 -0.1464
  894THF    H1313062   4.574   5.420   5.192  1.4526 -2.5894  0.3025
  895THF     O113063   2.848   1.629   3.880 -0.0776  0.6817 -0.0058
  895THF     C213064   2.852   1.515   3.967  0.6503  0.0035 -0.4167
  895THF     C313065   2.973   1.637   3.815 -0.0782  0.1024  0.5089
  895THF     H413066   2.751   1.485   3.995  0.1727  1.5710 -0.3727
  895THF     H513067   2.902   1.556   4.054 -2.6369 -2.6998  3.0544
  895THF     H613068   2.959   1.705   3.731 -2.2603 -0.1289  0.6185
  895THF     H713069   3.040   1.687   3.885  0.7038 -0.5525  0.2400
  895THF     C813070   3.006   1.487   3.790  0.0733 -0.7796  0.3174
  895THF     C913071   2.939   1.414   3.900 -0.2907  0.6752  0.2607
  895THF    H1013072   3.114   1.475   3.783 -0.0405 -1.6209 -0.1665
  895THF    H1113073   2.962   1.440   3.702  0.0352 -1.3650  0.6458
  895THF    H1213074   2.874   1.334   3.864  1.8337 -0.8830 -0.3190
  895THF    H1313075   3.010   1.384   3.976  0.1060  1.5187  0.2324
  896THF     O113076   4.255   5.137   5.333  0.2123  0.0586  0.1054
  896THF     C213077   4.224   5.034   5.244  1.4204  0.3842 -0.5455
  896THF     C313078   4.302   5.248   5.254  0.1700  0.5142  0.6545
  896THF     H413079   4.153   4.960   5.280  2.8612 -1.3913 -1.1829
  896THF     H513080   4.312   4.978   5.214  1.0849 -0.0882 -0.6601
  896THF     H613081   4.280   5.334   5.317 -1.0784 -0.7729  2.0550
  896THF     H713082   4.408   5.232   5.233 -0.4988 -3.5789 -0.4064
  896THF     C813083   4.216   5.237   5.126  0.0467 -0.4507  0.0329
  896THF     C913084   4.159   5.095   5.118  0.1028 -0.2368  0.2496
  896THF    H1013085   4.265   5.258   5.030  1.0569 -1.7148  0.2391
  896THF    H1113086   4.135   5.308   5.139  0.2446 -0.3310  0.6101
  896THF    H1213087   4.051   5.111   5.118  0.4097  2.4714 -1.1035
  896THF    H1313088   4.182   5.043   5.025  0.6511 -0.6344  0.6019
  897THF     O113089   1.116   0.813   0.375 -0.7118 -0.0428 -0.0702
  897THF     C213090   1.009   0.727   0.322 -0.6441  0.3216 -0.3482
  897THF     C313091   1.194   0.749   0.482 -0.1167  0.0934 -0.1545
  897THF     H413092   1.024   0.695   0.219  0.3691 -1.0572  0.1918
  897THF     H513093   0.916   0.784   0.328  0.0399  1.3526  1.4572
  897THF     H613094   1.301   0.764   0.467 -0.1570  2.6254  1.5032
  897THF     H713095   1.180   0.787   0.583 -2.4752  2.9926 -1.3926
  897THF     C813096   1.148   0.601   0.476  0.3794  0.0457  0.0019
  897THF     C913097   1.004   0.617   0.419  0.7422 -0.1057 -0.6350
  897THF    H1013098   1.152   0.552   0.574 -1.2349  0.6131  0.3841
  897THF    H1113099   1.207   0.528   0.420 -0.1424 -0.8635  0.5914
  897THF    H1213100   0.960   0.522   0.390  0.5575 -0.5064  0.8797
  897THF    H1313101   0.940   0.663   0.495  0.5902  2.1277 -2.0291
  898THF     O113102   5.105   4.420   3.807 -0.0096  0.0885 -0.4576
  898THF     C213103   5.010   4.521   3.799  0.1779 -0.0244  0.2464
  898THF     C313104   5.052   4.296   3.851  0.7309 -0.6346 -0.2528
  898THF     H413105   5.011   4.584   3.711  3.8625  1.8421  1.4435
  898THF     H513106   5.015   4.584   3.888  0.7949 -0.3002  0.4145
  898THF     H613107   5.057   4.228   3.765 -0.1599 -0.3224 -0.5716
  898THF     H713108   5.114   4.255   3.931  0.1697 -1.1509 -0.0663
  898THF     C813109   4.914   4.333   3.897 -0.3169 -0.3391 -0.7874
  898THF     C913110   4.884   4.442   3.798  0.3106 -1.0544  0.1604
  898THF    H1013111   4.934   4.364   4.000  0.4020 -1.2031 -0.6557
  898THF    H1113112   4.845   4.249   3.895 -1.2893  0.2857  2.0187
  898THF    H1213113   4.865   4.398   3.700  2.6175 -2.7023  0.3684
  898THF    H1313114   4.804   4.509   3.829  1.4848  0.7810 -0.5932
  899THF     O113115   2.843   3.890   3.396 -0.1959  0.0710  0.3376
  899THF     C213116   2.896   3.844   3.520  0.3420 -0.7200 -0.3819
  899THF     C313117   2.899   3.808   3.292  0.0457 -0.1372  0.2475
  899THF     H413118   2.811   3.814   3.581 -0.3163  1.7593  0.0159
  899THF     H513119   2.933   3.930   3.575 -0.0757 -1.2802  0.8170
  899THF     H613120   2.830   3.725   3.280 -1.4280  1.4920 -4.9648
  899THF     H713121   2.907   3.865   3.200  2.5123  0.5668  0.8197
  899THF     C813122   3.033   3.751   3.351  0.4597 -0.4641  0.6098
  899THF     C913123   3.004   3.736   3.502 -0.1819 -0.1970  0.0924
  899THF    H1013124   3.109   3.824   3.322  0.5741 -1.2840 -1.2787
  899THF    H1113125   3.064   3.659   3.301 -0.6783 -0.3590 -0.3129
  899THF    H1213126   2.959   3.639   3.521 -2.6290  0.9129  0.4324
  899THF    H1313127   3.095   3.761   3.556 -0.5350  0.0649  0.5730
  900THF     O113128   0.335   1.750   4.702 -0.2033 -1.0698 -0.1835
  900THF     C213129   0.212   1.692   4.748 -0.1808  0.5412 -0.1105
  900THF     C313130   0.317   1.887   4.684 -0.7411 -1.4462  0.5711
  900THF     H413131   0.181   1.724   4.848  0.8568 -0.3875  0.5198
  900THF     H513132   0.203   1.585   4.736 -1.6767  0.6856 -0.4650
  900THF     H613133   0.311   1.949   4.773 -0.0742 -0.4212 -0.0871
  900THF     H713134   0.389   1.936   4.619 -1.3794 -1.1717  0.0622
  900THF     C813135   0.187   1.881   4.603  0.0242 -0.6959 -0.1232
  900THF     C913136   0.112   1.765   4.663  0.0940  0.3114  0.4464
  900THF    H1013137   0.206   1.851   4.500 -0.2629  1.5543 -0.8880
  900THF    H1113138   0.140   1.979   4.606 -0.8501 -1.1247  0.5924
  900THF    H1213139   0.025   1.801   4.718  0.1106  0.6220  0.2715
  900THF    H1313140   0.071   1.701   4.585 -0.5316  0.0683  0.9593
  901THF     O113141   1.087   3.779   2.036  0.4304  0.4762 -0.2750
  901THF     C213142   1.103   3.758   1.898 -0.1366 -0.5242 -0.4575
  901THF     C313143   0.985   3.872   2.063  0.0872  0.3359 -0.3360
  901THF     H413144   1.042   3.675   1.863 -1.1031 -0.1585  0.3090
  901THF     H513145   1.207   3.729   1.882  0.2171  0.2880  0.3136
  901THF     H613146   0.889   3.823   2.080 -0.3688  1.6574  1.2155
  901THF     H713147   0.998   3.926   2.157 -2.1269  0.2986  0.0290
  901THF     C813148   0.995   3.967   1.944 -0.7083  0.6500 -0.7695
  901THF     C913149   1.064   3.896   1.836 -0.1137 -0.0187 -0.1408
  901THF    H1013150   1.062   4.050   1.968 -2.0987  1.7444 -0.5518
  901THF    H1113151   0.902   4.009   1.906 -0.6742  1.7317  0.2837
  901THF    H1213152   0.996   3.881   1.752  0.2110 -3.3382  0.0680
  901THF    H1313153   1.150   3.940   1.784 -0.2613 -0.1385 -0.4917
  902THF     O113154   1.547   3.885   1.547 -0.0011 -0.2878 -0.5414
  902THF     C213155   1.611   3.762   1.506 -0.4785 -0.7233 -0.5943
  902THF     C313156   1.461   3.843   1.654  0.5790 -0.5905  0.0363
  902THF     H413157   1.693   3.785   1.438  0.5330 -1.3004  0.4051
  902THF     H513158   1.538   3.700   1.453  0.4095 -1.0707 -1.4374
  902THF     H613159   1.418   3.931   1.702 -1.5147 -1.7101  0.3292
  902THF     H713160   1.379   3.782   1.617  0.6827 -0.3239 -0.6374
  902THF     C813161   1.551   3.767   1.739 -0.1091 -0.7662  0.2163
  902THF     C913162   1.654   3.704   1.645 -0.6867 -0.0177 -0.1741
  902THF    H1013163   1.488   3.696   1.792  1.2481 -1.6498  0.6922
  902THF    H1113164   1.603   3.837   1.803 -0.8321  1.0887 -1.1256
  902THF    H1213165   1.754   3.745   1.663 -0.7071  0.7375 -1.6595
  902THF    H1313166   1.660   3.596   1.658 -0.9166  0.2000  2.1029
  903THF     O113167   0.474   0.286   1.160 -0.3306  0.4784  0.1522
  903THF     C213168   0.620   0.293   1.154  0.4121 -0.0554  0.4454
  903THF     C313169   0.433   0.146   1.146 -0.7077 -0.4669  0.5957
  903THF     H413170   0.657   0.378   1.211 -0.7369 -1.0343  2.8009
  903THF     H513171   0.645   0.298   1.048  0.0851 -2.4934  0.1833
  903THF     H613172   0.333   0.133   1.188 -0.5906 -0.2202  0.9523
  903THF     H713173   0.440   0.112   1.043 -1.2720 -0.2173  0.4744
  903THF     C813174   0.534   0.089   1.241 -0.1979  0.4379  0.1629
  903THF     C913175   0.663   0.159   1.210 -0.3168 -0.1813  0.3130
  903THF    H1013176   0.549  -0.018   1.225 -0.0217  0.3872  0.6649
  903THF    H1113177   0.505   0.113   1.343  0.5511 -0.6931  0.6525
  903THF    H1213178   0.740   0.172   1.287  0.0501  0.2066 -0.1088
  903THF    H1313179   0.700   0.094   1.131 -0.0598  1.9359 -1.3718
  904THF     O113180   0.613   2.178   1.739  0.2489  0.0259  0.3953
  904THF     C213181   0.743   2.143   1.775 -0.8419  0.2275 -0.2513
  904THF     C313182   0.599   2.166   1.601  0.4104 -0.1480 -0.0552
  904THF     H413183   0.765   2.133   1.881  0.8598 -0.7909 -0.6659
  904THF     H513184   0.807   2.218   1.729 -0.9403 -0.0163 -0.7992
  904THF     H613185   0.496   2.162   1.565  0.8623 -2.1654 -1.2406
  904THF     H713186   0.661   2.243   1.555 -0.5251  1.6808  1.5843
  904THF     C813187   0.679   2.032   1.571  0.4924  0.0389 -0.0938
  904THF     C913188   0.772   2.016   1.696  0.0377  0.0786 -0.3287
  904THF    H1013189   0.732   2.045   1.477  1.2549  0.0071  0.3186
  904THF    H1113190   0.625   1.938   1.557  0.6121  0.2103 -1.8960
  904THF    H1213191   0.737   1.932   1.756  0.7869  0.3403  0.4983
  904THF    H1313192   0.880   2.001   1.684  0.0819  1.4673 -2.2208
  905THF     O113193   4.536   0.304   3.215 -0.1983 -0.4377  0.3883
  905THF     C213194   4.666   0.279   3.256  0.1028  0.1600 -0.7415
  905THF     C313195   4.544   0.402   3.114  0.0559 -0.3236 -0.2824
  905THF     H413196   4.722   0.220   3.183  0.6271 -2.6286  1.7134
  905THF     H513197   4.672   0.229   3.353 -3.0736 -0.6052 -0.8322
  905THF     H613198   4.552   0.343   3.023 -1.0167  1.7140 -1.7884
  905THF     H713199   4.448   0.454   3.111 -0.8620 -1.9725 -1.2187
  905THF     C813200   4.671   0.480   3.150 -0.4257  0.3885  0.5278
  905THF     C913201   4.726   0.418   3.274  0.1231  0.8412  0.6240
  905THF    H1013202   4.654   0.586   3.170 -1.0392  0.3500  0.2261
  905THF    H1113203   4.741   0.465   3.067 -0.9719 -0.6257  0.2330
  905THF    H1213204   4.834   0.430   3.277  0.2446  0.5552 -1.3931
  905THF    H1313205   4.674   0.476   3.351 -0.2014 -1.3998  2.1961
  906THF     O113206   3.072   5.367   5.417 -0.5488 -0.0189 -0.3818
  906THF     C213207   3.146   5.482   5.452 -0.5516 -0.0616 -0.6216
  906THF     C313208   2.980   5.395   5.314 -0.1044  0.1129  0.5587
  906THF     H413209   3.252   5.459   5.437 -0.9447 -2.4527 -0.1968
  906THF     H513210   3.128   5.508   5.556  0.2626 -3.7712  0.6250
  906THF     H613211   3.017   5.361   5.217 -1.0064  0.1552  0.1859
  906THF     H713212   2.882   5.349   5.328 -0.3758  0.8299  1.0990
  906THF     C813213   2.963   5.546   5.317  0.5470  0.1783  0.2142
  906THF     C913214   3.087   5.598   5.374  0.4308 -0.2194 -0.2857
  906THF    H1013215   2.874   5.568   5.377  1.2676  0.5208  1.1897
  906THF    H1113216   2.953   5.579   5.214  0.5697  1.0701  0.4916
  906THF    H1213217   3.168   5.603   5.301  1.7432 -2.5152  0.8969
  906THF    H1313218   3.072   5.694   5.423  1.3534  0.7300 -1.7970
  907THF     O113219   5.231   2.151   3.812  0.8227  0.7728  0.7786
  907THF     C213220   5.103   2.139   3.878 -1.1901 -0.1843  0.7659
  907THF     C313221   5.335   2.181   3.902 -0.4823 -0.5881 -0.4672
  907THF     H413222   5.039   2.072   3.819  2.6597 -1.8154 -1.9788
  907THF     H513223   5.063   2.240   3.881  2.8929  1.6327  0.7722
  907THF     H613224   5.423   2.136   3.856  0.6823  0.0109  1.0771
  907THF     H713225   5.354   2.288   3.895 -0.2489 -0.4980  1.2033
  907THF     C813226   5.282   2.126   4.037 -0.0313 -0.2544 -0.0825
  907THF     C913227   5.144   2.066   4.007  0.6159 -0.1044 -0.0959
  907THF    H1013228   5.268   2.204   4.111  0.5016 -0.8739  0.6837
  907THF    H1113229   5.339   2.044   4.080 -0.5960  0.7650  2.7872
  907THF    H1213230   5.145   1.961   3.979  0.4916  0.1424 -1.0933
  907THF    H1313231   5.073   2.081   4.088  1.5082  1.6959  0.3997
  908THF     O113232   2.057   1.260   2.492 -0.1287 -0.2258 -0.0561
  908THF     C213233   2.133   1.326   2.387 -0.2891  0.2467 -0.1208
  908THF     C313234   2.092   1.120   2.489 -0.5029 -0.7298  0.4397
  908THF     H413235   2.239   1.333   2.410  0.0478 -2.8540 -0.2953
  908THF     H513236   2.086   1.422   2.366  1.1543  0.6748 -1.6291
  908THF     H613237   2.194   1.115   2.526 -0.3918 -0.1179  0.2264
  908THF     H713238   2.015   1.056   2.533 -0.7091 -0.9131 -0.1781
  908THF     C813239   2.100   1.094   2.341  0.9351  0.5862 -0.2741
  908THF     C913240   2.131   1.233   2.267  0.4247  0.5086 -0.2491
  908THF    H1013241   2.002   1.061   2.307  1.2480  0.2919 -0.9059
  908THF    H1113242   2.174   1.020   2.309  0.3677 -0.0333 -0.1828
  908THF    H1213243   2.230   1.237   2.220  1.0873 -0.1221  1.0707
  908THF    H1313244   2.056   1.267   2.195  0.0270  3.0506  1.2357
  909THF     O113245   3.067   5.059   0.774  0.2756  0.4935 -0.6746
  909THF     C213246   2.979   4.979   0.855  0.6225 -0.7540  0.2945
  909THF     C313247   2.990   5.165   0.725  0.0082 -0.4416 -0.5914
  909THF     H413248   2.980   5.033   0.950 -0.6493 -0.2273  0.0421
  909THF     H513249   3.006   4.874   0.858  0.1438 -0.9577 -1.2865
  909THF     H613250   2.979   5.243   0.800  3.3779  2.8540 -3.1675
  909THF     H713251   3.026   5.218   0.637 -2.3058  0.5033 -1.0550
  909THF     C813252   2.858   5.106   0.689  0.4869  0.5796  0.2173
  909THF     C913253   2.841   4.993   0.786  0.1288 -0.1191 -0.0531
  909THF    H1013254   2.866   5.057   0.593  1.6013  0.9963  0.0773
  909THF    H1113255   2.766   5.163   0.693  0.1217 -0.0514  1.3487
  909THF    H1213256   2.769   5.022   0.863  1.5286  1.3985  0.7562
  909THF    H1313257   2.808   4.899   0.740 -1.3662  0.1489  0.4147
  910THF     O113258   3.839   3.350   1.431  0.2684 -0.3939 -0.3825
  910THF     C213259   3.769   3.440   1.338  0.3866  0.3067 -0.1749
  910THF     C313260   3.979   3.345   1.392 -0.1097  0.3160 -0.0302
  910THF     H413261   3.739   3.525   1.399  0.3399 -0.3560  0.7452
  910THF     H513262   3.696   3.385   1.278  0.2238  0.4430 -0.1015
  910THF     H613263   4.043   3.393   1.467 -1.2371 -2.3030  2.8353
  910THF     H713264   4.012   3.241   1.390  0.1928  0.3665  1.3556
  910THF     C813265   3.982   3.402   1.253  0.9259 -0.5240  0.4460
  910THF     C913266   3.870   3.503   1.250  0.1530 -0.0418 -0.2586
  910THF    H1013267   3.978   3.321   1.181 -0.9421 -1.1390  1.1835
  910THF    H1113268   4.083   3.439   1.238  0.8601 -0.6426 -0.3218
  910THF    H1213269   3.905   3.594   1.300  0.2589  0.1406 -0.6579
  910THF    H1313270   3.836   3.521   1.148  0.2179 -0.8235 -0.4234
  911THF     O113271   2.278   2.795   5.386 -0.2059  0.2287  0.2004
  911THF     C213272   2.229   2.878   5.287 -0.3967 -0.9273 -0.9493
  911THF     C313273   2.239   2.851   5.511 -0.7838 -0.0505 -0.9463
  911THF     H413274   2.184   2.809   5.214 -1.6140 -0.1792 -0.9381
  911THF     H513275   2.311   2.944   5.259 -0.9138  0.6426  1.0433
  911THF     H613276   2.179   2.777   5.564 -2.0837  0.7972 -1.2150
  911THF     H713277   2.329   2.871   5.569 -1.0606  1.9966 -1.1432
  911THF     C813278   2.160   2.979   5.482  0.5554  0.0253  0.3340
  911THF     C913279   2.108   2.952   5.339 -0.3290 -0.8852  0.2671
  911THF    H1013280   2.232   3.060   5.488  0.5902  0.1404 -1.1819
  911THF    H1113281   2.074   2.992   5.547 -0.5579  5.1428 -1.6732
  911THF    H1213282   2.022   2.886   5.330 -0.8137 -0.1254 -1.0758
  911THF    H1313283   2.094   3.037   5.271 -2.2953  0.0154  1.6961
  912THF     O113284   0.459   0.846   2.526 -0.0668  0.0085 -0.2031
  912THF     C213285   0.453   0.947   2.629 -0.4656  0.1738 -0.2182
  912THF     C313286   0.591   0.852   2.470  0.6094  0.2899  0.0611
  912THF     H413287   0.501   0.899   2.714  1.1984 -0.9195 -1.6936
  912THF     H513288   0.352   0.984   2.647 -0.1636  0.4782  0.9225
  912THF     H613289   0.668   0.812   2.537 -0.4649 -1.2749  0.4217
  912THF     H713290   0.611   0.800   2.376 -1.3579 -1.0642  0.3181
  912THF     C813291   0.615   1.002   2.464 -0.6336  0.1254  0.1050
  912THF     C913292   0.533   1.060   2.574  0.0096 -0.2465 -0.2704
  912THF    H1013293   0.564   1.043   2.376 -1.0262  0.3877  0.4519
  912THF    H1113294   0.719   1.035   2.471 -0.2692 -0.6621 -1.1510
  912THF    H1213295   0.599   1.103   2.648  1.3999  1.2668 -2.2836
  912THF    H1313296   0.468   1.141   2.543  1.0220  0.4933 -0.4893
  913THF     O113297   4.832   1.479   5.068 -0.8197  0.0296  0.1477
  913THF     C213298   4.802   1.613   5.071  0.5430 -0.1661  0.0557
  913THF     C313299   4.925   1.475   4.959 -0.2092 -0.8263 -0.5406
  913THF     H413300   4.729   1.638   5.148  1.5017  3.4751 -0.0160
  913THF     H513301   4.748   1.632   4.978  0.6084 -0.1923  0.0120
  913THF     H613302   4.984   1.384   4.956  0.2735 -0.5008 -1.5400
  913THF     H713303   4.872   1.473   4.864  0.6463 -3.7327 -1.0477
  913THF     C813304   5.019   1.605   4.982  0.1732 -0.8744  0.5651
  913THF     C913305   4.937   1.682   5.087  0.4708  0.3617  0.3599
  913THF    H1013306   5.025   1.661   4.889 -0.3554 -1.9766 -0.1473
  913THF    H1113307   5.116   1.582   5.027  0.3325  0.0467  0.7232
  913THF    H1213308   4.971   1.664   5.189 -0.7810 -1.6423  0.4678
  913THF    H1313309   4.927   1.790   5.071 -1.1533  0.0658 -0.9590
  914THF     O113310   1.361   1.859   0.375  0.0464  0.1003  0.8533
  914THF     C213311   1.408   1.994   0.365 -0.1209  0.2489 -0.1988
  914THF     C313312   1.345   1.827   0.239  0.6209  0.5334  0.5421
  914THF     H413313   1.515   2.001   0.342  0.0911  0.2675  0.7443
  914THF     H513314   1.396   2.044   0.461  1.0136 -0.2525  0.2233
  914THF     H613315   1.436   1.805   0.183 -0.2950  0.6308 -1.0710
  914THF     H713316   1.287   1.735   0.234 -0.1426  1.0737 -1.7434
  914THF     C813317   1.273   1.947   0.180  0.5565 -0.5140  0.1136
  914THF     C913318   1.314   2.065   0.269 -0.9644  0.3700  0.1636
  914THF    H1013319   1.167   1.922   0.186  0.6289 -0.4766  1.8510
  914THF    H1113320   1.292   1.962   0.073 -1.0992  1.3384  0.0073
  914THF    H1213321   1.357   2.137   0.200  2.6218 -2.6063 -1.0172
  914THF    H1313322   1.235   2.119   0.322 -0.7215  2.2238 -1.2717
  915THF     O113323   4.093   2.325   1.466 -0.0505 -0.7888  0.6570
  915THF     C213324   4.146   2.198   1.501  0.3906  0.0241 -0.1976
  915THF     C313325   4.111   2.413   1.577  0.4027  0.2184 -0.3367
  915THF     H413326   4.255   2.204   1.498  0.5038 -1.4559  0.1814
  915THF     H513327   4.109   2.127   1.427  1.6278  0.6041 -1.4139
  915THF     H613328   4.216   2.437   1.594 -0.1622  2.0632  0.8741
  915THF     H713329   4.063   2.510   1.561 -0.0095  0.1063  0.2047
  915THF     C813330   4.064   2.323   1.688 -0.0922 -0.3453  0.3610
  915THF     C913331   4.099   2.181   1.649  0.3269  0.3347  0.4015
  915THF    H1013332   3.956   2.341   1.694 -0.4081 -1.6421 -0.7973
  915THF    H1113333   4.116   2.356   1.777  0.8524 -0.3784 -0.1698
  915THF    H1213334   4.183   2.143   1.707  1.0220 -1.6279 -1.7587
  915THF    H1313335   4.020   2.106   1.655  1.1236 -0.5535 -0.0708
  916THF     O113336   1.383   1.745   4.851 -0.3709 -0.2390  0.3560
  916THF     C213337   1.257   1.791   4.892  0.0648 -0.6892  0.7785
  916THF     C313338   1.383   1.606   4.816  0.2264 -0.3040 -0.2627
  916THF     H413339   1.205   1.825   4.803  2.0524  0.4459 -0.0222
  916THF     H513340   1.274   1.875   4.961  1.2571 -0.0746 -0.2169
  916THF     H613341   1.405   1.591   4.710 -1.2338  0.1425 -0.6528
  916THF     H713342   1.459   1.560   4.880 -2.4506  0.3425  3.7641
  916THF     C813343   1.240   1.557   4.853  0.0539 -0.1435  0.3801
  916THF     C913344   1.202   1.665   4.952  0.3559  0.0328 -0.0787
  916THF    H1013345   1.256   1.455   4.886  0.1712  0.5973  2.8001
  916THF    H1113346   1.181   1.567   4.762  1.8382  0.1885 -0.7924
  916THF    H1213347   1.094   1.664   4.968  0.1337  0.5104 -1.4872
  916THF    H1313348   1.239   1.646   5.053 -1.0781  1.1153  0.6785
  917THF     O113349   3.803   1.416   0.587 -0.4017  0.2627  0.8389
  917THF     C213350   3.875   1.314   0.514 -0.0452  0.1431 -0.0273
  917THF     C313351   3.888   1.526   0.607  0.0460 -0.2095  0.0513
  917THF     H413352   3.814   1.228   0.489  0.6545  0.2048 -2.2222
  917THF     H513353   3.957   1.268   0.569 -0.1515  0.5415  0.4769
  917THF     H613354   3.841   1.619   0.639  1.7920  0.3562  1.1261
  917THF     H713355   3.951   1.505   0.694 -0.7347 -1.6481  0.2922
  917THF     C813356   3.951   1.535   0.472  0.6283 -0.4072 -0.0365
  917THF     C913357   3.932   1.400   0.402  0.3901 -0.5578 -0.8218
  917THF    H1013358   4.057   1.558   0.484  0.1035  1.6947  0.9435
  917THF    H1113359   3.914   1.622   0.418  3.7715  2.5342  2.1188
  917THF    H1213360   3.865   1.402   0.316 -2.0393  0.6564  0.9754
  917THF    H1313361   4.025   1.366   0.356  1.5421 -1.3270  1.9130
  918THF     O113362   4.163   2.091   4.845 -0.1814 -0.6698 -0.1251
  918THF     C213363   4.059   2.152   4.928 -0.1063  0.1854 -0.2409
  918THF     C313364   4.126   2.114   4.715 -0.2591 -0.0014  0.3988
  918THF     H413365   4.089   2.185   5.027 -0.8528  1.5754 -0.4531
  918THF     H513366   3.972   2.085   4.936  0.3972 -0.5121 -0.5029
  918THF     H613367   4.211   2.087   4.652  0.0882 -0.9469  1.2405
  918THF     H713368   4.046   2.042   4.699 -0.0297 -0.7911  2.5048
  918THF     C813369   4.091   2.268   4.720  0.4696  0.7628 -0.5947
  918THF     C913370   4.022   2.279   4.854  0.0712 -0.0901 -0.7461
  918THF    H1013371   4.029   2.308   4.639 -2.0874  0.9814  1.3380
  918THF    H1113372   4.178   2.333   4.719  1.5856 -0.6587  0.1503
  918THF    H1213373   4.074   2.359   4.906  0.1905  0.4661 -1.6959
  918THF    H1313374   3.918   2.305   4.877  0.3567 -0.9313  1.8400
  919THF     O113375   1.490   4.197   4.170  0.0649 -0.9328 -0.2862
  919THF     C213376   1.553   4.248   4.052 -0.3364  0.2408 -0.7348
  919THF     C313377   1.449   4.303   4.255  0.3983 -0.5134  0.0812
  919THF     H413378   1.511   4.200   3.964  0.6515 -2.2401  0.0731
  919THF     H513379   1.661   4.233   4.049 -0.3829 -0.2191 -0.1802
  919THF     H613380   1.379   4.258   4.326 -0.1067  0.3033  0.1212
  919THF     H713381   1.534   4.341   4.312 -0.1899  3.6478 -1.4682
  919THF     C813382   1.396   4.408   4.151 -0.2836  0.4697 -0.3353
  919THF     C913383   1.516   4.397   4.058 -0.0573  0.2079 -0.6553
  919THF    H1013384   1.382   4.508   4.193 -1.6587  0.8020 -1.4940
  919THF    H1113385   1.310   4.369   4.097  1.0992 -3.4106 -0.0169
  919THF    H1213386   1.496   4.429   3.956 -1.8072  2.0409  0.2155
  919THF    H1313387   1.601   4.455   4.096 -0.0614  0.1406 -0.5429
  920THF     O113388   1.561   0.759   4.867 -0.0801  0.3017  0.1571
  920THF     C213389   1.503   0.745   4.737  0.3086 -0.1881  0.0511
  920THF     C313390   1.690   0.702   4.861  0.4449 -0.2529 -0.6619
  920THF     H413391   1.427   0.823   4.727  2.4364  2.0010 -0.1329
  920THF     H513392   1.472   0.644   4.713  2.0637 -1.4268  2.5371
  920THF     H613393   1.738   0.739   4.952 -0.5449 -0.2364 -0.1325
  920THF     H713394   1.670   0.596   4.873 -1.5393  0.2599  1.1931
  920THF     C813395   1.744   0.739   4.723 -0.0484 -0.3200 -0.5453
  920THF     C913396   1.618   0.774   4.643 -1.4322 -0.1647 -0.6120
  920THF    H1013397   1.782   0.647   4.678 -2.2676 -1.2259 -0.6691
  920THF    H1113398   1.829   0.807   4.726  0.3873 -0.9028  1.4527
  920THF    H1213399   1.613   0.876   4.604 -1.9487 -0.8886 -2.5292
  920THF    H1313400   1.612   0.709   4.556  1.3526 -0.4273 -0.6911
  921THF     O113401   1.373   1.265   3.501  0.2087 -0.1690 -0.8988
  921THF     C213402   1.364   1.139   3.571  0.5253 -0.4528  0.1253
  921THF     C313403   1.285   1.271   3.394  0.8197 -0.3082 -0.1594
  921THF     H413404   1.361   1.160   3.678 -2.0683  1.2735 -0.1783
  921THF     H513405   1.455   1.086   3.543  1.5385  0.3721  1.7472
  921THF     H613406   1.198   1.326   3.427  0.4218  0.6127 -2.5717
  921THF     H713407   1.319   1.326   3.306  0.6906 -2.0976 -1.3766
  921THF     C813408   1.246   1.125   3.377  0.1550  0.4571 -0.4543
  921THF     C913409   1.245   1.062   3.513 -0.4391  0.6566 -0.2015
  921THF    H1013410   1.322   1.071   3.320  2.8943  1.4558  2.0172
  921THF    H1113411   1.149   1.112   3.327  0.5313  1.7636 -1.5701
  921THF    H1213412   1.158   1.083   3.574  0.5094 -0.2426  1.5630
  921THF    H1313413   1.258   0.953   3.513  0.8967  0.7727 -2.0809
  922THF     O113414   2.174   1.397   1.932  0.9781 -0.4466 -0.5951
  922THF     C213415   2.317   1.382   1.920 -0.0379 -0.3325  1.0619
  922THF     C313416   2.138   1.528   1.921  0.7168  0.1448  0.7026
  922THF     H413417   2.341   1.327   1.829  1.3716 -0.2082  1.3397
  922THF     H513418   2.341   1.307   1.995  1.6778 -1.0437 -0.1349
  922THF     H613419   2.109   1.542   1.817 -2.4653 -0.1825  1.4405
  922THF     H713420   2.054   1.558   1.984 -0.7621 -1.8461 -0.2036
  922THF     C813421   2.260   1.604   1.957  0.4648  0.8468  0.4437
  922THF     C913422   2.374   1.524   1.913 -0.2336  0.0996 -0.4492
  922THF    H1013423   2.258   1.612   2.066 -0.9107  2.6068  0.3261
  922THF    H1113424   2.264   1.707   1.923  1.1092  0.1896 -1.6291
  922THF    H1213425   2.396   1.554   1.811  2.4115 -0.3916 -0.0847
  922THF    H1313426   2.467   1.537   1.968  0.5431  0.2771 -1.7558
  923THF     O113427   2.941   5.116   3.641 -0.2684 -0.0967  0.0446
  923THF     C213428   3.080   5.147   3.639 -0.5158  0.5203 -0.3522
  923THF     C313429   2.908   5.054   3.761 -0.1235  0.2360 -0.4506
  923THF     H413430   3.090   5.254   3.626 -2.4744  0.5623 -2.2051
  923THF     H513431   3.121   5.102   3.548  2.0922  0.1734  0.9089
  923THF     H613432   2.811   5.095   3.791  1.0853  1.4052  2.1636
  923THF     H713433   2.885   4.948   3.751 -0.3250  0.3352 -1.0681
  923THF     C813434   3.016   5.090   3.862 -0.0314 -0.1495 -0.0281
  923THF     C913435   3.139   5.100   3.771 -0.0139 -0.0118 -0.1801
  923THF    H1013436   3.028   5.013   3.939 -1.4779  0.1202  0.4911
  923THF    H1113437   2.995   5.189   3.902  0.8649 -0.0368  0.2047
  923THF    H1213438   3.200   5.180   3.810 -0.4694 -0.3497  1.2999
  923THF    H1313439   3.187   5.002   3.768 -3.8631 -2.1373  0.7353
  924THF     O113440   3.200   2.790   3.141  0.4056  0.1409  0.5571
  924THF     C213441   3.194   2.723   3.020 -0.2401 -0.6272  0.5065
  924THF     C313442   3.065   2.803   3.179  0.5616  0.8775  0.3398
  924THF     H413443   3.287   2.677   2.986 -0.3502  1.3971 -3.1335
  924THF     H513444   3.157   2.782   2.936  2.1133 -0.5372 -0.5495
  924THF     H613445   3.056   2.835   3.283  2.3293  0.9534  0.4876
  924THF     H713446   3.016   2.876   3.113 -0.5729  0.7046  0.9674
  924THF     C813447   3.002   2.664   3.155 -0.1712  0.2115  0.4859
  924THF     C913448   3.091   2.615   3.042 -0.2490 -0.1692  0.2294
  924THF    H1013449   2.895   2.676   3.137 -0.1490 -0.5101 -0.2104
  924THF    H1113450   3.003   2.592   3.236  1.0008 -0.0227  0.2846
  924THF    H1213451   3.136   2.517   3.058  1.5486  0.7011  0.7563
  924THF    H1313452   3.031   2.597   2.953  0.2848 -2.6769  0.3109
  925THF     O113453   4.322   1.738   2.092  0.1988  0.5251  0.2092
  925THF     C213454   4.221   1.826   2.041  0.4149  0.3147 -0.4085
  925THF     C313455   4.353   1.637   1.989  0.2318  0.0106 -0.4548
  925THF     H413456   4.223   1.930   2.075 -0.1642 -0.3883  2.0344
  925THF     H513457   4.125   1.780   2.067  0.1924  1.0634  0.1343
  925THF     H613458   4.457   1.648   1.958 -0.0238  0.5026 -1.1685
  925THF     H713459   4.339   1.534   2.022  2.9381 -0.1508  0.4505
  925THF     C813460   4.264   1.677   1.879 -0.2413  0.5809  0.8413
  925THF     C913461   4.246   1.826   1.891 -0.0255  0.0349 -0.2257
  925THF    H1013462   4.168   1.626   1.882  0.4703 -0.8421  0.1322
  925THF    H1113463   4.308   1.652   1.783  1.9855  0.3601  1.8590
  925THF    H1213464   4.335   1.889   1.881  0.0068 -0.0540 -0.5209
  925THF    H1313465   4.173   1.877   1.828  2.0083  0.5881 -2.2931
  926THF     O113466   1.090   1.029   4.079  0.7065  0.2699  0.1142
  926THF     C213467   1.114   0.905   4.024 -1.0044 -0.1483  0.8121
  926THF     C313468   1.188   1.121   4.044 -0.6180  0.0011 -0.1451
  926THF     H413469   1.023   0.844   4.015 -1.4701  0.7283 -0.7359
  926THF     H513470   1.181   0.851   4.091 -1.5178 -3.0778 -0.8428
  926THF     H613471   1.155   1.222   4.070  2.3162  0.8625  0.6673
  926THF     H713472   1.276   1.105   4.107 -1.4682 -0.8619  0.8686
  926THF     C813473   1.231   1.078   3.907  0.0197  0.1022  0.2505
  926THF     C913474   1.165   0.942   3.885  0.5307 -0.3562 -0.5220
  926THF    H1013475   1.339   1.063   3.908 -0.4789 -6.0621  1.9217
  926THF    H1113476   1.209   1.157   3.835 -1.3375  0.6415  1.2175
  926THF    H1213477   1.083   0.957   3.816 -0.1846 -0.8208  0.2024
  926THF    H1313478   1.227   0.863   3.843  1.5344  0.2826 -0.2839
  927THF     O113479   0.276   1.664   5.179 -0.4781 -0.5324 -0.2112
  927THF     C213480   0.252   1.805   5.143  0.6081  0.6710  0.2888
  927THF     C313481   0.413   1.636   5.163 -0.9044  0.3216 -0.0566
  927THF     H413482   0.218   1.858   5.232  1.1719 -0.1876  1.0274
  927THF     H513483   0.169   1.795   5.073 -0.8257 -0.0414  1.9834
  927THF     H613484   0.452   1.591   5.254  0.7504  0.6771 -0.5528
  927THF     H713485   0.433   1.571   5.077  2.1294 -0.4241  1.0905
  927THF     C813486   0.482   1.768   5.147  0.0015  0.1835 -0.4661
  927THF     C913487   0.378   1.843   5.069  0.2974  0.0361  0.0266
  927THF    H1013488   0.575   1.749   5.093  1.2426 -0.2090  1.7034
  927THF    H1113489   0.518   1.817   5.237  1.1306  0.1875 -0.9095
  927THF    H1213490   0.414   1.946   5.065  0.2272  0.0305 -1.0376
  927THF    H1313491   0.374   1.799   4.969 -1.0137  0.7897 -0.2737
  928THF     O113492   1.834   0.893   1.846  0.4314  0.3204 -0.3339
  928THF     C213493   1.853   0.934   1.712 -0.5178 -0.2136  0.1269
  928THF     C313494   1.916   0.967   1.928 -0.2685  0.1385 -0.4127
  928THF     H413495   1.771   0.927   1.641  0.6312 -1.1251 -1.1594
  928THF     H513496   1.929   0.866   1.674 -0.9549  0.4087 -1.9616
  928THF     H613497   1.892   0.965   2.034  0.7525 -0.2824 -0.1758
  928THF     H713498   2.015   0.921   1.927  0.3822  1.3980  1.1463
  928THF     C813499   1.931   1.100   1.858 -0.6823 -0.5846 -0.1621
  928THF     C913500   1.884   1.077   1.715 -0.3049 -0.3895 -0.2972
  928THF    H1013501   2.030   1.142   1.874 -1.7711  1.9644  0.3501
  928THF    H1113502   1.870   1.180   1.901  1.0612  1.7758 -1.8322
  928THF    H1213503   1.795   1.137   1.694  0.3372  0.1561 -1.5719
  928THF    H1313504   1.964   1.098   1.644 -1.1658  0.8498 -0.9390
  929THF     O113505   1.462   2.747   0.598  0.0824  0.2975  0.7759
  929THF     C213506   1.395   2.696   0.710  0.0878 -0.3196 -0.4767
  929THF     C313507   1.524   2.642   0.523  0.3832 -0.4312  0.5781
  929THF     H413508   1.300   2.649   0.685  1.2889 -2.5617 -1.0753
  929THF     H513509   1.370   2.778   0.778 -1.4905 -0.0193 -1.3709
  929THF     H613510   1.459   2.580   0.463  0.7315  0.6078 -0.9252
  929THF     H713511   1.607   2.664   0.456 -1.9325 -0.3527 -2.4862
  929THF     C813512   1.576   2.550   0.634  0.6242 -0.5755 -0.5466
  929THF     C913513   1.504   2.600   0.762  0.6222 -0.0886 -0.9465
  929THF    H1013514   1.678   2.587   0.644 -0.2870  2.1883 -0.6164
  929THF    H1113515   1.562   2.446   0.605  2.4031 -1.1809  0.5788
  929THF    H1213516   1.467   2.514   0.818  0.4758  0.4705 -0.1809
  929THF    H1313517   1.555   2.668   0.830 -0.2812 -0.7339  0.4119
  930THF     O113518   0.139   1.968   3.731 -0.1363  0.2960  0.0510
  930THF     C213519   0.241   1.991   3.827 -0.1618  0.3414 -0.0172
  930THF     C313520   0.163   1.838   3.686  0.7850 -0.3363  0.4606
  930THF     H413521   0.214   2.068   3.899  2.7390 -1.3227  3.1555
  930THF     H513522   0.337   2.006   3.777 -0.1193 -2.4327 -0.9396
  930THF     H613523   0.082   1.777   3.644 -1.0447  0.8475  2.0766
  930THF     H713524   0.245   1.841   3.614  1.1408  1.5565  0.8967
  930THF     C813525   0.208   1.755   3.803  0.0258  0.1950 -0.4921
  930THF     C913526   0.256   1.857   3.896  0.3721  0.1917  0.9938
  930THF    H1013527   0.281   1.677   3.780  0.1719 -0.3822  1.7109
  930THF    H1113528   0.119   1.707   3.842  0.1816 -0.7067 -1.2181
  930THF    H1213529   0.192   1.853   3.984 -1.0425 -1.6170 -0.0416
  930THF    H1313530   0.364   1.847   3.910  0.7480  0.6524 -1.1679
  931THF     O113531   5.182   1.608   2.317  0.4885  0.1478  0.5211
  931THF     C213532   5.227   1.495   2.236  0.5685 -0.4185  0.0642
  931THF     C313533   5.256   1.616   2.434 -0.7450  0.3793 -0.0030
  931THF     H413534   5.225   1.502   2.128  2.5778 -0.1487  0.0111
  931THF     H513535   5.182   1.401   2.269 -0.4379 -0.0158 -0.1260
  931THF     H613536   5.266   1.705   2.497  0.0562 -0.8820  1.7270
  931THF     H713537   5.241   1.537   2.508  2.8007 -0.9811 -0.5250
  931THF     C813538   5.395   1.607   2.369  0.2427  0.1899 -0.2095
  931THF     C913539   5.371   1.494   2.259 -0.1832  0.0120 -0.1859
  931THF    H1013540   5.473   1.581   2.440  0.4749 -0.0566 -0.5531
  931THF    H1113541   5.410   1.705   2.326  0.1411  1.2964  2.1123
  931THF    H1213542   5.415   1.514   2.161  0.2736  0.0625  0.0241
  931THF    H1313543   5.413   1.399   2.292  0.3232 -0.1156 -1.1504
  932THF     O113544   0.313   4.558   0.083 -0.1420  0.5941 -0.0603
  932THF     C213545   0.353   4.694   0.103  0.4922  0.0050  0.0412
  932THF     C313546   0.346   4.518  -0.046 -0.5585  0.8768  0.0731
  932THF     H413547   0.445   4.712   0.158  0.0938  1.5122  0.2571
  932THF     H513548   0.272   4.752   0.147 -0.2703 -1.7548  1.0555
  932THF     H613549   0.375   4.414  -0.065 -3.3438  0.2027 -1.0215
  932THF     H713550   0.247   4.519  -0.092 -0.5395 -2.6567 -0.3513
  932THF     C813551   0.425   4.632  -0.107  0.2167  0.4881 -0.7034
  932THF     C913552   0.378   4.753  -0.033  0.4025 -1.0091 -0.3835
  932THF    H1013553   0.411   4.636  -0.215 -1.1046  0.6103 -0.5416
  932THF    H1113554   0.531   4.608  -0.097  0.6670  1.5066 -2.6521
  932THF    H1213555   0.448   4.837  -0.031  1.7182 -2.1042  1.0233
  932THF    H1313556   0.295   4.791  -0.094  2.1762  0.5401 -1.9847
  933THF     O113557   4.957   3.263   2.246  0.3714  0.3034 -0.1502
  933THF     C213558   4.989   3.140   2.175  0.0133  0.3815  0.3530
  933THF     C313559   4.999   3.370   2.159 -0.2375  0.1618  0.1017
  933THF     H413560   4.936   3.051   2.212 -1.9706  0.6778 -1.5433
  933THF     H513561   5.097   3.132   2.171 -0.0157  0.5035 -1.0946
  933THF     H613562   4.953   3.464   2.189 -0.4082  0.5284 -1.2094
  933THF     H713563   5.104   3.398   2.169 -0.8045  1.7564  2.1843
  933THF     C813564   4.969   3.327   2.013 -0.1869  0.0153  0.4642
  933THF     C913565   4.943   3.178   2.028 -0.5944  0.3892 -0.1788
  933THF    H1013566   5.042   3.360   1.939 -0.8171 -0.6240 -0.4656
  933THF    H1113567   4.875   3.369   1.975 -0.3698 -0.8230 -0.0336
  933THF    H1213568   4.839   3.157   2.002 -1.2226  0.3619  2.1382
  933THF    H1313569   4.997   3.116   1.957  1.4522  2.5854 -0.6924
  934THF     O113570   0.821   0.271   5.294  1.0823 -0.0359 -0.2234
  934THF     C213571   0.756   0.377   5.361  0.4688  0.3268 -0.5990
  934THF     C313572   0.953   0.261   5.328  0.6924 -0.9634  0.5244
  934THF     H413573   0.686   0.335   5.435  0.6963 -1.2932 -1.2628
  934THF     H513574   0.700   0.439   5.291 -0.9293  0.1063  0.2651
  934THF     H613575   0.993   0.160   5.330  1.4221 -0.8751 -2.8884
  934THF     H713576   1.022   0.295   5.250 -0.1310 -2.7010 -1.0344
  934THF     C813577   0.966   0.351   5.449  0.0053  0.2149  0.2360
  934THF     C913578   0.866   0.456   5.423  0.1204 -0.1206  0.0133
  934THF    H1013579   1.068   0.389   5.461  0.3222 -0.2799 -0.8067
  934THF    H1113580   0.926   0.308   5.541  0.0118  2.6417  1.4610
  934THF    H1213581   0.842   0.519   5.508 -0.6088 -1.2912  0.7110
  934THF    H1313582   0.904   0.513   5.338 -0.0124 -0.8641 -0.5650
  935THF     O113583   0.550   2.085   2.252 -0.3285  0.3028  0.2930
  935THF     C213584   0.550   2.013   2.379 -0.1454 -0.6228  0.1115
  935THF     C313585   0.669   2.034   2.178 -0.2291 -0.2854 -0.1902
  935THF     H413586   0.531   1.908   2.358 -0.6029 -0.2884 -1.2854
  935THF     H513587   0.474   2.049   2.448  1.3247 -1.1737  2.0991
  935THF     H613588   0.650   1.935   2.138 -1.8302 -0.0452 -0.0923
  935THF     H713589   0.690   2.095   2.090 -1.3616 -0.1667 -0.3953
  935THF     C813590   0.780   2.047   2.289 -0.6411  0.4446  0.1400
  935THF     C913591   0.696   2.039   2.417 -0.1194 -0.3978 -0.0158
  935THF    H1013592   0.832   2.143   2.288  0.6199 -0.2105  0.6543
  935THF    H1113593   0.859   1.975   2.272  0.5163  1.8378 -0.6685
  935THF    H1213594   0.729   1.956   2.480 -1.3552 -0.3474  0.7452
  935THF    H1313595   0.707   2.124   2.484  2.3224 -1.2560  0.8048
  936THF     O113596   5.449   0.025   1.417 -0.1924 -0.3066  0.3681
  936THF     C213597   5.333  -0.009   1.482 -0.5108 -0.1368 -0.9371
  936THF     C313598   5.472   0.163   1.418  0.8102 -0.4247  0.0539
  936THF     H413599   5.347  -0.110   1.521  1.0701  0.1425 -0.7272
  936THF     H513600   5.250   0.002   1.412  0.2929  1.9080 -1.6611
  936THF     H613601   5.578   0.183   1.434  0.8295  0.4578 -1.0569
  936THF     H713602   5.432   0.211   1.328 -2.1032 -1.1740  0.8347
  936THF     C813603   5.391   0.213   1.535  0.1157 -0.0963  0.3647
  936THF     C913604   5.332   0.089   1.596 -0.1521 -0.8813  0.0910
  936THF    H1013605   5.323   0.290   1.499  0.3512 -0.1696 -0.2568
  936THF    H1113606   5.459   0.259   1.607  0.3296 -1.0597  0.7922
  936THF    H1213607   5.400   0.055   1.675 -0.1729  0.5155  0.7315
  936THF    H1313608   5.230   0.095   1.634  0.3409 -0.6861  1.4771
  937THF     O113609   1.295   0.010   0.778  0.0512  0.2693  0.3505
  937THF     C213610   1.165   0.030   0.735  0.7066 -0.0201 -0.2201
  937THF     C313611   1.381   0.026   0.663  0.2346 -0.3899  0.2200
  937THF     H413612   1.102   0.051   0.821 -0.4212 -0.1310 -0.9970
  937THF     H513613   1.129  -0.055   0.678 -0.9320  0.4382  0.0801
  937THF     H613614   1.475   0.066   0.700  0.9726  0.1915 -2.1049
  937THF     H713615   1.396  -0.068   0.610 -0.5958 -1.3842  1.6800
  937THF     C813616   1.312   0.110   0.569  0.4906 -0.1002 -0.1024
  937THF     C913617   1.173   0.147   0.644 -0.5809  0.3816  0.6051
  937THF    H1013618   1.308   0.060   0.472 -2.4732 -2.7868  1.1967
  937THF    H1113619   1.369   0.203   0.565  1.3399 -0.5031  1.6680
  937THF    H1213620   1.176   0.234   0.711 -0.7280 -0.3902  1.6319
  937THF    H1313621   1.092   0.160   0.572  1.0656  1.1632 -1.2066
  938THF     O113622   2.781   0.537   5.233  0.3508  0.3418 -0.0393
  938THF     C213623   2.901   0.492   5.168 -0.2765 -0.3392 -0.8599
  938THF     C313624   2.813   0.643   5.325 -0.0533 -0.0766  0.9838
  938THF     H413625   2.902   0.552   5.078 -0.1617  1.0938  0.0693
  938THF     H513626   2.925   0.385   5.160  0.9122 -0.1292 -0.3424
  938THF     H613627   2.804   0.739   5.274  0.7174  0.6064  2.1082
  938THF     H713628   2.743   0.650   5.408 -1.0149  0.4720  0.1470
  938THF     C813629   2.953   0.608   5.375  0.5271 -0.6522 -0.4473
  938THF     C913630   3.012   0.541   5.249  0.3283  0.4678  0.0110
  938THF    H1013631   2.931   0.535   5.453  0.0777  1.6031  1.6992
  938THF    H1113632   3.009   0.691   5.418  2.4147 -1.5973 -1.0140
  938THF    H1213633   3.070   0.616   5.194  2.7757 -1.9829 -0.9702
  938THF    H1313634   3.090   0.468   5.272  0.7238  1.1126  0.8276
  939THF     O113635   2.815   5.206   1.137 -0.3576  0.3734  0.0917
  939THF     C213636   2.714   5.273   1.063  0.4360  0.0575 -0.6056
  939THF     C313637   2.758   5.155   1.257 -0.5509 -0.9308  0.0463
  939THF     H413638   2.751   5.293   0.963  2.1856  1.9627  0.3649
  939THF     H513639   2.694   5.366   1.115 -0.6331  0.4297 -1.6177
  939THF     H613640   2.823   5.076   1.295  1.3171 -0.0694 -1.2103
  939THF     H713641   2.753   5.235   1.331 -1.7721 -1.1951  0.2752
  939THF     C813642   2.618   5.106   1.212 -0.1259 -0.3256  1.0188
  939THF     C913643   2.601   5.170   1.072  0.1359  0.3052 -0.7319
  939THF    H1013644   2.539   5.127   1.284  0.4728  0.2992  1.5096
  939THF    H1113645   2.614   4.998   1.200 -1.4579 -0.1779 -0.1520
  939THF    H1213646   2.626   5.100   0.993  1.6243 -0.2396  0.1675
  939THF    H1313647   2.506   5.217   1.047 -0.3520  0.7850  1.7570
  940THF     O113648   0.357   4.538   5.059 -0.2700  0.0484  0.3707
  940THF     C213649   0.252   4.463   5.013  0.8196  0.1735 -0.1455
  940THF     C313650   0.465   4.446   5.036 -0.4963  0.3131 -0.4772
  940THF     H413651   0.259   4.438   4.907  1.6701 -1.3360  0.2346
  940THF     H513652   0.158   4.514   5.032  0.0069 -1.8831  1.7810
  940THF     H613653   0.490   4.439   4.930  2.9922 -1.3239  0.2807
  940THF     H713654   0.554   4.475   5.092 -1.8755  3.6615  0.1953
  940THF     C813655   0.410   4.314   5.094  0.2330  0.4882 -0.1383
  940THF     C913656   0.260   4.330   5.090  0.0413  0.2223  0.4078
  940THF    H1013657   0.453   4.307   5.194 -0.5392 -0.0989  0.1692
  940THF    H1113658   0.439   4.234   5.026 -1.2953 -0.8904  0.7565
  940THF    H1213659   0.207   4.249   5.040  0.2640 -0.5688  1.4184
  940THF    H1313660   0.225   4.351   5.191 -0.2394 -0.6632  0.5038
  941THF     O113661   0.590   3.166   4.567 -0.2674  0.1515  0.4584
  941THF     C213662   0.561   3.027   4.526  0.0228 -1.0172  0.3893
  941THF     C313663   0.695   3.169   4.658 -0.0162 -0.5016 -0.2105
  941THF     H413664   0.547   3.018   4.418  1.3700 -1.1040  0.1974
  941THF     H513665   0.482   2.967   4.571  1.3146 -4.1690 -1.2535
  941THF     H613666   0.753   3.262   4.659 -1.7992  0.7168  2.3309
  941THF     H713667   0.649   3.149   4.754 -1.0581  0.2805 -0.5351
  941THF     C813668   0.778   3.050   4.603 -0.2629 -0.0197  0.7965
  941THF     C913669   0.682   2.943   4.550  0.0517  0.7761 -1.1133
  941THF    H1013670   0.849   3.013   4.678 -0.8349  3.9482  3.6241
  941THF    H1113671   0.830   3.082   4.513  0.1532 -0.4875  0.8674
  941THF    H1213672   0.723   2.906   4.457 -0.0866 -1.1147 -0.4581
  941THF    H1313673   0.665   2.862   4.621 -0.4710  0.8122 -1.1932
  942THF     O113674   1.153   3.310   4.201 -0.4393 -0.2638  0.0416
  942THF     C213675   1.029   3.249   4.165 -0.0016  0.0462 -0.5134
  942THF     C313676   1.213   3.214   4.287  0.3765 -0.3693 -0.9697
  942THF     H413677   1.049   3.187   4.078 -0.7054  0.3691 -0.9186
  942THF     H513678   0.952   3.324   4.144 -1.2648 -0.4366  2.0293
  942THF     H613679   1.256   3.135   4.225  2.2297  0.3495 -0.6397
  942THF     H713680   1.294   3.254   4.347  1.3546  0.5280 -2.7889
  942THF     C813681   1.101   3.149   4.362 -0.0524 -0.8753 -0.1463
  942THF     C913682   0.975   3.160   4.273  0.1075  0.1005 -0.6218
  942THF    H1013683   1.082   3.204   4.454 -2.4045 -1.3130 -0.3055
  942THF    H1113684   1.117   3.043   4.384 -0.8492 -0.2890  4.0155
  942THF    H1213685   0.937   3.065   4.235 -0.5563  0.3770 -0.6659
  942THF    H1313686   0.891   3.209   4.322  2.1301  0.0755  3.2594
  943THF     O113687   5.182   4.795   1.113 -0.0343  0.2498  0.4989
  943THF     C213688   5.052   4.798   1.050 -0.7746 -0.2997  0.0058
  943THF     C313689   5.267   4.839   1.006  0.3002 -0.0028 -0.4951
  943THF     H413690   4.971   4.806   1.123 -1.1373  2.5283 -0.6116
  943THF     H513691   5.032   4.708   0.991 -2.9322 -0.6211  1.1230
  943THF     H613692   5.368   4.867   1.036  0.8484 -0.1996 -2.0821
  943THF     H713693   5.270   4.752   0.941  0.1258  0.4265 -1.0901
  943THF     C813694   5.193   4.962   0.941  0.4817 -0.0802 -0.3264
  943THF     C913695   5.044   4.920   0.964  0.0040 -0.5780 -0.4074
  943THF    H1013696   5.219   4.979   0.836 -2.0137  0.1336 -0.9552
  943THF    H1113697   5.223   5.046   1.003 -0.9005 -0.3343  0.7076
  943THF    H1213698   4.994   5.003   1.014  0.4561  1.1951 -2.7010
  943THF    H1313699   4.993   4.896   0.870 -0.3214  2.0789 -1.0064
  944THF     O113700   1.516   2.961   1.931  0.0566  0.2523 -0.0364
  944THF     C213701   1.399   2.999   2.006  0.1681  0.5255  0.0258
  944THF     C313702   1.616   2.908   2.017  0.1532 -0.0255  0.4637
  944THF     H413703   1.301   3.007   1.959  1.4039 -0.8454 -3.1281
  944THF     H513704   1.422   3.089   2.063 -0.0133 -2.1142  4.7736
  944THF     H613705   1.701   2.863   1.965 -0.9087  1.7187 -3.0768
  944THF     H713706   1.652   2.981   2.088  1.8881 -1.4874  1.1772
  944THF     C813707   1.537   2.808   2.095  0.1775  0.1196 -0.1968
  944THF     C913708   1.396   2.866   2.083 -0.0516  0.0319  0.6495
  944THF    H1013709   1.580   2.807   2.195 -0.1765  1.9358  0.0095
  944THF    H1113710   1.549   2.710   2.049 -0.7265 -1.0307  1.8820
  944THF    H1213711   1.329   2.791   2.041 -0.3298  0.3478  0.5248
  944THF    H1313712   1.355   2.887   2.182 -1.7357  3.3175 -0.6026
  945THF     O113713   3.609   2.947   0.136 -0.4302  0.2490  0.3155
  945THF     C213714   3.486   2.891   0.114  0.4909  0.2736  0.2430
  945THF     C313715   3.596   3.081   0.190 -0.2389  0.0089 -0.4424
  945THF     H413716   3.440   2.845   0.202  0.8799  1.5528  1.1405
  945THF     H513717   3.482   2.820   0.031 -0.6431 -0.0476  0.5560
  945THF     H613718   3.584   3.070   0.298 -2.6911 -3.2272 -0.8771
  945THF     H713719   3.683   3.144   0.171  1.7048 -1.7031  2.0462
  945THF     C813720   3.476   3.137   0.113  0.0988  0.0601  0.0737
  945THF     C913721   3.392   3.007   0.077  0.0683 -0.5838  0.1454
  945THF    H1013722   3.525   3.183   0.027 -0.9964  1.7115  0.2689
  945THF    H1113723   3.425   3.220   0.163  1.0534  0.7622 -0.0875
  945THF    H1213724   3.300   2.995   0.135 -0.0051 -0.0599  0.1390
  945THF    H1313725   3.362   3.004  -0.028 -0.8892 -0.2580  0.4009
  946THF     O113726   3.935   2.851   2.512 -0.5837 -0.0932  0.6852
  946THF     C213727   3.835   2.879   2.408  0.3864 -0.0332  0.4333
  946THF     C313728   3.873   2.821   2.632 -0.4657 -0.7395 -0.7842
  946THF     H413729   3.800   2.793   2.351  1.9725 -0.0591 -0.5745
  946THF     H513730   3.867   2.963   2.347 -0.2006 -0.6628 -0.7678
  946THF     H613731   3.885   2.716   2.658  0.5145 -0.8115 -1.4881
  946THF     H713732   3.927   2.872   2.712  0.5037 -0.9966 -1.2623
  946THF     C813733   3.729   2.852   2.616 -0.9193 -0.7278 -0.0981
  946THF     C913734   3.714   2.931   2.489 -0.3159  0.1641  0.2582
  946THF    H1013735   3.679   2.904   2.697 -0.0504 -0.5724  0.3507
  946THF    H1113736   3.681   2.754   2.605  0.4473 -1.3989 -0.2837
  946THF    H1213737   3.634   2.909   2.419 -1.1382 -1.7025  1.7232
  946THF    H1313738   3.742   3.036   2.505  0.1480  0.1576 -0.4591
  947THF     O113739   2.323   3.756   3.889  0.1101 -0.4762  0.7022
  947THF     C213740   2.344   3.779   3.749 -0.3609 -0.2414 -0.2625
  947THF     C313741   2.236   3.859   3.938 -0.4080 -0.0900  0.2809
  947THF     H413742   2.247   3.749   3.710 -0.5122 -2.9117  1.9080
  947THF     H513743   2.420   3.724   3.694  0.0358 -1.1823  1.1615
  947THF     H613744   2.130   3.841   3.922 -0.7983  2.2496 -0.1011
  947THF     H713745   2.237   3.876   4.045 -2.9630  3.2937 -0.0887
  947THF     C813746   2.274   3.985   3.862 -0.4381 -0.4711 -0.4305
  947THF     C913747   2.351   3.936   3.741 -0.2060  0.2958 -0.5261
  947THF    H1013748   2.341   4.052   3.916  0.7163 -0.6479 -1.5904
  947THF    H1113749   2.189   4.047   3.832  0.8478  0.6985 -1.8236
  947THF    H1213750   2.318   3.975   3.645  0.1302  0.0685 -0.7353
  947THF    H1313751   2.453   3.972   3.749 -0.3385  0.4379  0.7760
  948THF     O113752   0.350   1.836   1.203 -0.0033  0.5201  0.0028
  948THF     C213753   0.464   1.758   1.214 -1.1557 -0.4823 -0.6609
  948THF     C313754   0.385   1.973   1.207  0.3828 -0.2687 -0.2671
  948THF     H413755   0.452   1.658   1.173 -0.2772 -0.4760 -0.9593
  948THF     H513756   0.482   1.739   1.320  1.9502 -2.4521 -1.4221
  948THF     H613757   0.341   2.024   1.121 -0.9540  1.5824  1.4138
  948THF     H713758   0.352   2.032   1.293 -0.3452 -1.1229  0.0515
  948THF     C813759   0.539   1.971   1.194  0.4289 -0.6226 -1.5452
  948THF     C913760   0.576   1.830   1.150 -0.7461  0.1392  0.4527
  948THF    H1013761   0.588   1.995   1.288  0.3980 -1.0318 -1.4229
  948THF    H1113762   0.566   2.057   1.132 -1.1480 -0.0748 -1.5319
  948THF    H1213763   0.566   1.811   1.043 -0.4175  2.1202  0.0233
  948THF    H1313764   0.669   1.782   1.180 -0.9013 -0.2533  0.3053
  949THF     O113765   5.468   4.418   3.381  0.1899  0.1036 -0.7514
  949THF     C213766   5.480   4.291   3.310 -0.1373 -0.1482  0.4029
  949THF     C313767   5.595   4.473   3.397  0.7349  0.1477  0.0205
  949THF     H413768   5.441   4.291   3.209  0.3408 -0.6170  0.2185
  949THF     H513769   5.424   4.210   3.356 -1.1231  0.4892  0.3689
  949THF     H613770   5.579   4.579   3.376 -2.2668 -0.2657 -0.2101
  949THF     H713771   5.620   4.461   3.502  4.2062  0.1506 -0.6609
  949THF     C813772   5.693   4.400   3.301 -0.2654  0.1766 -0.5967
  949THF     C913773   5.635   4.251   3.311  0.3305 -0.4417 -0.0478
  949THF    H1013774   5.794   4.406   3.341 -0.2528 -1.8827 -0.2038
  949THF    H1113775   5.685   4.430   3.196  1.0386 -2.5905 -1.5818
  949THF    H1213776   5.664   4.184   3.230 -1.0820 -2.4091  0.9871
  949THF    H1313777   5.653   4.209   3.410 -1.2468  0.6787  0.7674
  950THF     O113778   1.561   0.653   3.513  0.6826 -0.0781  0.4932
  950THF     C213779   1.643   0.767   3.484 -0.6211 -0.3031  0.3305
  950THF     C313780   1.451   0.693   3.591 -0.5957  0.6660  0.0439
  950THF     H413781   1.616   0.822   3.394  0.0524 -0.8635 -0.2259
  950THF     H513782   1.744   0.740   3.453 -1.1202  1.3352 -3.1923
  950THF     H613783   1.392   0.749   3.519  0.0217  0.9055 -0.2829
  950THF     H713784   1.404   0.601   3.625  1.1477 -1.4378 -2.8229
  950THF     C813785   1.509   0.790   3.691 -0.9001  0.7883 -0.1601
  950THF     C913786   1.634   0.840   3.616  0.3987  0.5470 -0.1440
  950THF    H1013787   1.530   0.737   3.784 -0.2225 -1.2002 -1.3609
  950THF    H1113788   1.432   0.865   3.710 -1.8167 -0.0250 -0.5409
  950THF    H1213789   1.630   0.947   3.597  0.0863  0.8633  1.4813
  950THF    H1313790   1.729   0.815   3.663  3.2517  1.7695 -4.6993
  951THF     O113791   5.489   1.375   1.358 -0.2820  0.0025  0.2083
  951THF     C213792   5.547   1.310   1.241 -0.0910  0.0582 -0.6435
  951THF     C313793   5.460   1.504   1.324 -0.0153 -0.4363  0.5422
  951THF     H413794   5.475   1.247   1.189  0.2398 -0.9481  0.0914
  951THF     H513795   5.625   1.242   1.275 -2.1058 -0.5393  3.4404
  951THF     H613796   5.368   1.495   1.266 -0.3858 -1.6772  1.2990
  951THF     H713797   5.429   1.570   1.406 -0.8165 -1.5592  1.1676
  951THF     C813798   5.566   1.547   1.228  0.4471 -0.2197 -0.3851
  951THF     C913799   5.592   1.423   1.153  0.2304  0.1311  0.0865
  951THF    H1013800   5.654   1.586   1.279 -0.4764  0.1772  0.9783
  951THF    H1113801   5.528   1.627   1.164 -1.6623 -0.6640  0.2225
  951THF    H1213802   5.521   1.414   1.071  1.9816 -2.2691 -1.3150
  951THF    H1313803   5.694   1.415   1.116  0.1924  1.8948 -0.5045
  952THF     O113804   0.541   0.376   2.053 -0.3440 -0.2907  0.4694
  952THF     C213805   0.512   0.296   2.168 -0.5714  0.0363 -0.2595
  952THF     C313806   0.687   0.372   2.029  0.1914 -0.0610 -0.9803
  952THF     H413807   0.532   0.189   2.158 -0.1355 -0.0114  0.9469
  952THF     H513808   0.414   0.307   2.214 -2.1891  2.0102 -3.7543
  952THF     H613809   0.724   0.274   2.000  0.2751 -0.9333  1.7714
  952THF     H713810   0.715   0.456   1.964 -1.2385  0.7566 -0.5919
  952THF     C813811   0.740   0.374   2.170  0.1806  0.0143 -1.3181
  952THF     C913812   0.619   0.349   2.263  0.2984 -0.1241 -0.0229
  952THF    H1013813   0.787   0.467   2.200  0.4750 -0.5491  0.0314
  952THF    H1113814   0.809   0.291   2.182 -1.7765 -1.2879  2.6586
  952THF    H1213815   0.647   0.285   2.346  0.2496  0.6675  0.6187
  952THF    H1313816   0.599   0.451   2.296  1.2884  1.0652 -2.8273
  953THF     O113817   1.200   3.426   3.675 -0.8382 -0.0724 -0.4974
  953THF     C213818   1.204   3.524   3.781  0.9442  0.3612 -0.0091
  953THF     C313819   1.073   3.377   3.670 -0.1302  0.4961  1.0804
  953THF     H413820   1.130   3.602   3.765 -0.3666 -0.3775  2.0695
  953THF     H513821   1.305   3.557   3.807  0.6985  0.5373  0.7342
  953THF     H613822   0.989   3.440   3.642 -0.4283 -0.5054 -0.3985
  953THF     H713823   1.084   3.288   3.608 -0.0039  0.6401  0.8955
  953THF     C813824   1.052   3.342   3.809 -0.0020  0.3538 -0.4385
  953THF     C913825   1.145   3.428   3.893  0.2644  0.4174  0.0205
  953THF    H1013826   1.079   3.240   3.837  0.9286  0.5017 -0.7612
  953THF    H1113827   0.951   3.367   3.840  0.2929  0.8580  0.1524
  953THF    H1213828   1.092   3.481   3.972  0.5930  0.3637  0.2770
  953THF    H1313829   1.221   3.367   3.941  1.3502  3.2745  2.2213
  954THF     O113830   0.416   0.373   1.762 -0.3236 -0.3061 -0.4316
  954THF     C213831   0.389   0.281   1.663 -0.3180  0.5876  0.3780
  954THF     C313832   0.499   0.472   1.707 -0.0188  0.5135  0.0464
  954THF     H413833   0.282   0.272   1.646 -0.4405  2.6084 -0.2520
  954THF     H513834   0.419   0.181   1.694 -2.6487 -1.3903 -3.1450
  954THF     H613835   0.472   0.564   1.759 -0.9615 -0.0201  0.5292
  954THF     H713836   0.600   0.466   1.748 -0.2651 -1.4528  0.4902
  954THF     C813837   0.493   0.472   1.556 -0.2360  0.1759  0.0366
  954THF     C913838   0.470   0.328   1.543 -0.0502  0.2897  0.1857
  954THF    H1013839   0.582   0.506   1.504 -0.3585  1.7142  0.7463
  954THF    H1113840   0.405   0.526   1.520  0.1149  1.7090  1.3329
  954THF    H1213841   0.432   0.298   1.446 -3.1640 -0.7835  1.6056
  954THF    H1313842   0.560   0.266   1.549 -0.8887 -1.2821 -2.2041
  955THF     O113843   5.258   1.054   5.266 -0.3628 -0.1854  0.2751
  955THF     C213844   5.317   1.162   5.338  0.5164 -0.6487 -0.5448
  955THF     C313845   5.162   1.108   5.178 -0.1640  0.9317  0.2227
  955THF     H413846   5.403   1.200   5.283  0.5419  1.0286  0.5742
  955THF     H513847   5.345   1.134   5.439 -2.9546 -1.6554  0.2779
  955THF     H613848   5.208   1.126   5.081 -3.2053  3.5520 -0.9066
  955THF     H713849   5.087   1.034   5.151  0.5565  0.2484  0.0674
  955THF     C813850   5.106   1.231   5.237  0.0057 -0.3220 -0.1911
  955THF     C913851   5.195   1.264   5.355 -0.0562 -0.2803 -0.5981
  955THF    H1013852   5.011   1.218   5.289  1.0046 -1.7466  1.3877
  955THF    H1113853   5.110   1.311   5.162  0.6618 -1.8918 -1.9179
  955THF    H1213854   5.238   1.363   5.368  1.1901 -1.0428  1.5179
  955THF    H1313855   5.136   1.248   5.445 -0.2571 -1.9399 -0.9821
  956THF     O113856   0.622   4.782   3.725 -0.0517  0.8932 -0.0116
  956THF     C213857   0.481   4.769   3.725 -0.3491 -0.9178  0.4935
  956THF     C313858   0.657   4.717   3.598 -0.4388 -0.3682 -1.0513
  956THF     H413859   0.423   4.836   3.663 -0.7615 -1.8708 -0.1795
  956THF     H513860   0.444   4.797   3.824  2.8399 -0.9158  1.8128
  956THF     H613861   0.647   4.790   3.518 -1.5039  1.6172  0.8066
  956THF     H713862   0.761   4.682   3.601 -0.4751 -0.4148 -0.1896
  956THF     C813863   0.566   4.596   3.589 -0.2965 -0.4288 -0.1604
  956THF     C913864   0.454   4.622   3.687 -0.6403 -0.1761  0.5610
  956THF    H1013865   0.625   4.507   3.612 -0.1989 -0.7749 -1.5975
  956THF    H1113866   0.541   4.588   3.483 -2.0281 -1.6304  0.2965
  956THF    H1213867   0.353   4.618   3.646 -0.4669  0.1079  0.0998
  956THF    H1313868   0.467   4.546   3.764  1.1338 -2.0740 -1.5025
  957THF     O113869   2.513   2.012   5.235  0.4181 -0.8609 -0.1825
  957THF     C213870   2.426   1.948   5.327  0.1452 -1.0361  0.2509
  957THF     C313871   2.582   1.903   5.181 -0.2241  0.1768  0.1402
  957THF     H413872   2.351   2.023   5.351 -0.4834 -1.7072  0.3978
  957THF     H513873   2.468   1.915   5.422 -0.0576 -2.1938 -0.0470
  957THF     H613874   2.627   1.923   5.083  1.0586 -0.8720  0.4845
  957THF     H713875   2.661   1.884   5.253  1.5004  3.0757 -0.8205
  957THF     C813876   2.483   1.789   5.161 -0.4931  0.2146  0.0785
  957THF     C913877   2.368   1.817   5.261 -0.9205  0.0666 -0.4469
  957THF    H1013878   2.523   1.693   5.194  2.2013  1.2380  0.0413
  957THF    H1113879   2.442   1.791   5.060 -0.9271 -0.3161  0.2371
  957THF    H1213880   2.276   1.828   5.205 -1.3162 -1.0853 -0.0668
  957THF    H1313881   2.356   1.741   5.339 -0.7205  1.4100  0.9544
  958THF     O113882   0.179   4.353   0.997  0.2119 -0.6573 -0.0639
  958THF     C213883   0.068   4.430   1.039  0.6042 -0.3253  0.1375
  958THF     C313884   0.126   4.233   0.960  0.9286  0.5281  0.1768
  958THF     H413885   0.094   4.536   1.047 -0.3425 -0.1547  1.3157
  958THF     H513886   0.040   4.397   1.139 -0.5979  0.8717  0.2376
  958THF     H613887   0.187   4.187   0.882 -1.2378 -0.2352 -1.1591
  958THF     H713888   0.130   4.163   1.043 -0.2590  3.4478  2.9066
  958THF     C813889  -0.021   4.243   0.928  0.1751 -1.3111  0.2662
  958THF     C913890  -0.042   4.394   0.938  0.1123 -0.2668 -0.4689
  958THF    H1013891  -0.088   4.194   0.998 -1.4788  0.8472  0.3139
  958THF    H1113892  -0.044   4.211   0.826  1.1327 -1.3638  0.0554
  958THF    H1213893  -0.017   4.429   0.838  2.1918 -1.8011 -0.5602
  958THF    H1313894  -0.144   4.417   0.970 -0.2676 -1.1652 -0.9842
  959THF     O113895   5.294   3.051   3.700  0.1976 -0.0649 -0.2533
  959THF     C213896   5.167   3.078   3.662  0.9013 -0.3251  0.2753
  959THF     C313897   5.303   3.120   3.831  0.7387 -0.0972 -0.4388
  959THF     H413898   5.154   3.015   3.573 -2.4223  0.1247  0.2946
  959THF     H513899   5.163   3.186   3.651  0.2818 -0.3688  0.0151
  959THF     H613900   5.395   3.090   3.880  0.7942  1.3453  0.3715
  959THF     H713901   5.296   3.228   3.817  1.1915  0.0857  0.6682
  959THF     C813902   5.176   3.069   3.905 -0.6989  0.1576 -0.1021
  959THF     C913903   5.084   3.032   3.789 -0.4363 -0.2380  0.8549
  959THF    H1013904   5.128   3.146   3.965 -0.5696  0.4753 -0.3995
  959THF    H1113905   5.196   2.979   3.963  0.0953  0.5466  0.2463
  959THF    H1213906   5.068   2.924   3.784  0.0339 -0.2979  0.6770
  959THF    H1313907   4.990   3.087   3.804 -1.3320 -1.1313 -1.1656
  960THF     O113908   4.963   2.987   4.876 -0.5050 -0.2248  0.0480
  960THF     C213909   5.072   2.899   4.878  0.1569 -0.9516 -0.0108
  960THF     C313910   5.025   3.114   4.889  1.0333 -0.0644  0.0393
  960THF     H413911   5.047   2.799   4.842 -3.0827 -0.2907  0.1573
  960THF     H513912   5.100   2.872   4.980 -0.3541 -0.1682  0.3396
  960THF     H613913   4.947   3.183   4.855  1.8545 -0.4303 -2.8720
  960THF     H713914   5.054   3.133   4.992 -4.0941 -1.8147  2.1487
  960THF     C813915   5.139   3.105   4.792  0.2170 -0.2741 -0.2836
  960THF     C913916   5.190   2.964   4.799 -0.2521  0.6604 -0.1423
  960THF    H1013917   5.219   3.180   4.797 -1.6955  1.8569  0.2687
  960THF    H1113918   5.089   3.112   4.696  2.5882  2.8932 -1.4651
  960THF    H1213919   5.183   2.921   4.699 -0.0067 -3.3379  1.3792
  960THF    H1313920   5.289   2.943   4.841 -1.0535 -3.6715  0.0475
  961THF     O113921   1.844   4.998   2.433 -0.0635 -0.1746 -0.0611
  961THF     C213922   1.926   5.102   2.389 -0.0111 -0.4591  0.3684
  961THF     C313923   1.840   5.002   2.575 -0.2362 -0.2674  0.0192
  961THF     H413924   1.904   5.132   2.286  0.6628 -0.3849  0.2380
  961THF     H513925   2.028   5.068   2.404  0.4074 -0.4136 -1.9674
  961THF     H613926   1.755   4.943   2.608 -1.2306  1.2869  0.3351
  961THF     H713927   1.934   4.973   2.621 -0.6140 -0.9924  0.3503
  961THF     C813928   1.817   5.152   2.598 -0.1731 -0.0787 -0.1449
  961THF     C913929   1.883   5.220   2.479 -0.3920  0.3754 -0.0430
  961THF    H1013930   1.859   5.200   2.686  2.8182  1.0881 -2.0554
  961THF    H1113931   1.710   5.169   2.609 -0.3039 -0.0096 -1.4175
  961THF    H1213932   1.805   5.284   2.437 -0.6742  1.0241  1.4103
  961THF    H1313933   1.957   5.294   2.512 -1.1116 -0.1343  3.0333
  962THF     O113934   2.234   3.766   1.425 -0.0751  0.4527 -0.0688
  962THF     C213935   2.248   3.890   1.353 -0.5895  0.6937 -0.4297
  962THF     C313936   2.126   3.702   1.368  0.2495  0.0557  0.2601
  962THF     H413937   2.281   3.876   1.251  1.1211  0.0413  0.1748
  962THF     H513938   2.310   3.952   1.418 -1.1090  0.9566 -0.1702
  962THF     H613939   2.158   3.655   1.275 -0.1497 -1.6507  0.9493
  962THF     H713940   2.079   3.631   1.436 -1.4616  1.2224  0.3713
  962THF     C813941   2.025   3.816   1.341 -0.0611 -0.7976 -0.5985
  962THF     C913942   2.107   3.945   1.343 -0.4470 -0.7313 -0.4236
  962THF    H1013943   1.953   3.812   1.423  0.5203 -0.2329 -0.0593
  962THF    H1113944   1.971   3.799   1.247 -2.0143  2.3492 -0.1917
  962THF    H1213945   2.092   4.012   1.258  1.9289  0.6869  0.1937
  962THF    H1313946   2.081   3.994   1.437  0.1400 -1.6079  0.2042
  963THF     O113947   1.840   0.183   0.198  0.4489 -0.3532 -0.6832
  963THF     C213948   1.769   0.307   0.223  0.1835  0.2225  0.0127
  963THF     C313949   1.799   0.082   0.289  0.5314 -0.1254  0.1498
  963THF     H413950   1.694   0.339   0.151  0.2334 -2.4867 -1.3369
  963THF     H513951   1.845   0.386   0.225  0.6631 -0.2389  0.1740
  963THF     H613952   1.776  -0.012   0.238 -0.6856  0.5117 -0.5217
  963THF     H713953   1.878   0.050   0.356 -0.0805  0.6234  1.2479
  963THF     C813954   1.682   0.138   0.372 -0.5085  0.8812  0.2638
  963THF     C913955   1.713   0.285   0.361 -0.1302 -0.0598 -1.4594
  963THF    H1013956   1.674   0.096   0.472  1.4541  1.1979  0.5978
  963THF    H1113957   1.592   0.119   0.314 -1.1944  2.4570  0.7561
  963THF    H1213958   1.625   0.335   0.402  1.8708  0.2519  3.0650
  963THF    H1313959   1.782   0.306   0.442 -2.4956  1.9112  0.1954
  964THF     O113960   1.631   3.524   1.249 -0.5499 -0.0099  0.4126
  964THF     C213961   1.606   3.396   1.303 -0.0064  0.2743  0.1942
  964THF     C313962   1.634   3.513   1.110  0.1579 -0.7198 -0.2039
  964THF     H413963   1.501   3.370   1.288  0.5559 -1.3671 -1.1556
  964THF     H513964   1.626   3.367   1.406  0.9092 -1.2344 -0.3789
  964THF     H613965   1.539   3.546   1.067 -1.2338 -0.7120  2.6148
  964THF     H713966   1.721   3.565   1.070  0.4705 -0.3732  0.8886
  964THF     C813967   1.668   3.371   1.075  0.2919 -0.0810  0.5804
  964THF     C913968   1.691   3.311   1.215  0.4281 -0.5913 -0.2120
  964THF    H1013969   1.752   3.349   1.010 -1.0923 -0.9876 -0.9678
  964THF    H1113970   1.582   3.323   1.029  1.3772 -2.5389  0.9766
  964THF    H1213971   1.659   3.207   1.220 -0.9509 -0.1520  0.9576
  964THF    H1313972   1.795   3.323   1.245 -0.3800  1.8893  1.9410
  965THF     O113973   0.379   2.471   4.903 -0.3008  0.4470 -0.1407
  965THF     C213974   0.452   2.588   4.936 -0.2941  0.2306  0.2536
  965THF     C313975   0.331   2.483   4.769  0.7096 -0.1614  0.2300
  965THF     H413976   0.521   2.560   5.016 -3.4806 -1.6795  2.5680
  965THF     H513977   0.385   2.665   4.971 -1.2328 -0.1036 -0.7449
  965THF     H613978   0.310   2.385   4.725 -0.3293 -0.0100  0.3671
  965THF     H713979   0.244   2.548   4.774 -0.0504 -1.2537  2.4489
  965THF     C813980   0.442   2.551   4.695 -0.1260 -0.2022 -0.5937
  965THF     C913981   0.511   2.627   4.803 -0.1386  0.3211  0.3007
  965THF    H1013982   0.398   2.613   4.616  0.5978  1.5249  0.2891
  965THF    H1113983   0.507   2.475   4.654 -0.2620  0.1786 -1.5324
  965THF    H1213984   0.619   2.626   4.791 -0.3022  0.6621 -1.4145
  965THF    H1313985   0.479   2.732   4.797  0.1092  0.6049  2.7910
  966THF     O113986   1.150   2.544   5.442  0.2503  0.5676  0.2251
  966THF     C213987   1.218   2.425   5.485  0.3338 -0.0923 -0.1894
  966THF     C313988   1.239   2.653   5.463 -0.8347 -0.3137  1.3355
  966THF     H413989   1.275   2.383   5.403  0.1935  1.1638 -0.9665
  966THF     H513990   1.157   2.347   5.530 -1.5371  1.2070 -0.3212
  966THF     H613991   1.269   2.701   5.370 -0.1953  0.1783  1.7838
  966THF     H713992   1.194   2.721   5.535 -1.3509 -0.2288  0.9343
  966THF     C813993   1.364   2.607   5.527 -0.3823  0.2810 -0.2443
  966THF     C913994   1.322   2.474   5.595  0.5124  0.3347 -0.3365
  966THF    H1013995   1.427   2.679   5.579 -0.0001 -1.0621  1.2356
  966THF    H1113996   1.440   2.584   5.453  0.7976  0.5517  0.8361
  966THF    H1213997   1.410   2.412   5.611  0.0489  0.0292  1.1628
  966THF    H1313998   1.276   2.487   5.693 -0.0867  0.9874 -0.6973
  967THF     O113999   1.273   4.568   2.155  0.1710 -0.0929  0.1681
  967THF     C214000   1.194   4.687   2.149  0.2963 -0.1213  0.1335
  967THF     C314001   1.378   4.594   2.244 -0.3086 -0.4709  0.6245
  967THF     H414002   1.087   4.665   2.158  0.1140 -0.9845 -2.8405
  967THF     H514003   1.200   4.736   2.052  0.5291  0.8579  0.6275
  967THF     H614004   1.414   4.498   2.281 -0.5764 -0.2429  1.4888
  967THF     H714005   1.458   4.644   2.188  0.3127 -1.0600  0.9706
  967THF     C814006   1.318   4.685   2.351 -0.2261 -0.6175  0.2129
  967THF     C914007   1.236   4.779   2.266 -0.5907 -0.4459  0.4740
  967THF    H1014008   1.402   4.729   2.404  0.2318 -1.0851 -0.1088
  967THF    H1114009   1.254   4.629   2.419 -1.2370  0.4846  0.1830
  967THF    H1214010   1.166   4.837   2.327  0.7141  0.3911  1.2253
  967THF    H1314011   1.292   4.857   2.215  0.6589 -1.9707 -0.5593
  968THF     O114012   3.536   3.810   1.276  0.6257 -0.1715 -0.1121
  968THF     C214013   3.408   3.763   1.225  0.5450  0.1092  1.0279
  968THF     C314014   3.618   3.841   1.165 -0.7451 -0.1636 -0.3460
  968THF     H414015   3.325   3.820   1.267 -0.9615 -1.4034  0.2387
  968THF     H514016   3.402   3.660   1.259  2.0526 -0.8390 -1.3455
  968THF     H614017   3.622   3.948   1.147 -2.6915  0.0903  0.4507
  968THF     H714018   3.713   3.798   1.195 -1.7955 -2.2009  0.2345
  968THF     C814019   3.556   3.765   1.048  0.1386 -0.0497  1.0090
  968THF     C914020   3.405   3.785   1.073 -1.2659  0.2258  0.3877
  968THF    H1014021   3.572   3.657   1.053 -1.5997 -0.3771  0.4737
  968THF    H1114022   3.586   3.795   0.948  0.1443 -0.0388  1.0139
  968THF    H1214023   3.384   3.887   1.041 -1.0036  0.2252  0.2066
  968THF    H1314024   3.343   3.720   1.012  0.2017 -1.8680  0.9947
  969THF     O114025   0.798   1.638   2.344  0.1486 -0.1164  0.1802
  969THF     C214026   0.862   1.511   2.320  0.4364  0.2995 -0.2531
  969THF     C314027   0.681   1.625   2.419 -0.1970  0.3963  0.9498
  969THF     H414028   0.966   1.509   2.350  0.1280  1.6669  1.0781
  969THF     H514029   0.860   1.482   2.216 -1.6191  1.2886 -0.5548
  969THF     H614030   0.672   1.705   2.493  1.4426  0.2849  1.3060
  969THF     H714031   0.586   1.614   2.366  0.3566  1.1540 -0.2305
  969THF     C814032   0.705   1.494   2.500 -0.8170  0.1081 -0.3547
  969THF     C914033   0.784   1.409   2.404 -0.2361 -0.3144 -0.2915
  969THF    H1014034   0.623   1.432   2.535  0.2439 -0.3051  1.5265
  969THF    H1114035   0.756   1.521   2.592 -1.0059  0.5757 -0.3859
  969THF    H1214036   0.844   1.327   2.444 -0.0022  0.4381  0.9375
  969THF    H1314037   0.708   1.356   2.346  0.1229  0.0121 -1.0773
  970THF     O114038   1.521   4.318   4.933 -0.2773  0.5637 -0.1360
  970THF     C214039   1.508   4.179   4.940 -0.1763 -0.0416 -0.2169
  970THF     C314040   1.656   4.343   4.897 -0.7977  0.6828  0.0576
  970THF     H414041   1.503   4.144   4.837 -0.2827  0.6399 -0.4500
  970THF     H514042   1.435   4.132   5.007 -1.8059 -0.3537 -2.1087
  970THF     H614043   1.656   4.346   4.788  0.2500 -3.4783 -0.2341
  970THF     H714044   1.695   4.433   4.945 -0.7493  0.4148  0.5314
  970THF     C814045   1.738   4.214   4.931  0.1633 -0.8429 -0.2617
  970THF     C914046   1.640   4.117   4.986 -0.1326  0.1210 -0.0964
  970THF    H1014047   1.809   4.244   5.008  0.2354 -0.2008 -0.5693
  970THF    H1114048   1.784   4.184   4.837  3.3951 -1.8964  1.5125
  970THF    H1214049   1.655   4.016   4.946  0.7164 -0.7699  2.2513
  970THF    H1314050   1.644   4.113   5.095 -2.5720  0.6308  0.0511
  971THF     O114051   0.281   0.652   5.229 -0.2273  0.2327  0.2777
  971THF     C214052   0.383   0.726   5.296 -0.1850  0.7795 -0.4905
  971THF     C314053   0.292   0.514   5.269  0.4487 -0.7527 -0.0491
  971THF     H414054   0.357   0.828   5.326  0.8935  1.2641 -1.1520
  971THF     H514055   0.468   0.737   5.230 -0.1294  1.0211 -0.3801
  971THF     H614056   0.204   0.450   5.256 -0.2546 -0.3318  2.1715
  971THF     H714057   0.385   0.477   5.225  0.4370 -1.7969  0.7645
  971THF     C814058   0.313   0.536   5.421 -0.4517 -0.6344  0.3116
  971THF     C914059   0.405   0.654   5.430 -0.4267  0.6869  0.4106
  971THF    H1014060   0.351   0.447   5.471  0.5779 -0.6910 -0.5243
  971THF    H1114061   0.229   0.573   5.479  0.1670  0.3386  0.6138
  971THF    H1214062   0.393   0.712   5.522 -1.3060 -1.5514  1.7886
  971THF    H1314063   0.506   0.614   5.439 -0.1579  1.3707  0.5351
  972THF     O114064   0.533   1.858   3.705 -0.5931 -0.4288 -0.0211
  972THF     C214065   0.628   1.781   3.767  0.4013 -0.5011 -0.1784
  972THF     C314066   0.602   1.958   3.639  0.5953  1.0396 -0.4762
  972THF     H414067   0.581   1.696   3.815 -1.1731  0.9570  0.9635
  972THF     H514068   0.679   1.835   3.846 -0.3943  2.4136 -1.5102
  972THF     H614069   0.534   2.006   3.568 -2.0720 -2.7815 -0.7643
  972THF     H714070   0.636   2.034   3.710 -2.6303  1.2037  1.0341
  972THF     C814071   0.721   1.883   3.576 -0.0569  0.0481 -0.4239
  972THF     C914072   0.725   1.757   3.656 -0.0779  0.3881 -0.4526
  972THF    H1014073   0.809   1.948   3.577 -0.5925  0.9395 -3.1906
  972THF    H1114074   0.706   1.861   3.471  0.2474  2.7665 -1.1056
  972THF    H1214075   0.690   1.677   3.592 -1.0930  1.9183 -1.8982
  972THF    H1314076   0.824   1.728   3.690 -0.5353 -1.4685 -0.6058
  973THF     O114077   2.650   4.213   0.847  0.4423  0.1945 -0.5345
  973THF     C214078   2.696   4.111   0.948 -0.3901 -0.4986 -0.0792
  973THF     C314079   2.504   4.217   0.856  0.1144 -0.5904 -0.9258
  973THF     H414080   2.758   4.144   1.032 -1.9135 -0.0371  0.9054
  973THF     H514081   2.745   4.025   0.904  0.6237  0.4263 -0.7978
  973THF     H614082   2.482   4.299   0.925  1.7329 -1.2286  0.4073
  973THF     H714083   2.466   4.245   0.758 -0.1114 -2.6506 -1.4708
  973THF     C814084   2.464   4.080   0.905  0.1912 -0.3760 -0.3212
  973THF     C914085   2.573   4.050   1.009  0.1675  0.3494  0.0875
  973THF    H1014086   2.471   4.020   0.814  1.3287 -1.0616  0.2058
  973THF    H1114087   2.358   4.063   0.922 -0.3807  1.3332 -1.8339
  973THF    H1214088   2.540   4.097   1.102 -0.4966 -0.0926  0.0804
  973THF    H1314089   2.579   3.943   1.030 -0.4888  0.1276 -0.7937
  974THF     O114090   2.663   1.559   3.257 -0.4794 -0.1081  0.5901
  974THF     C214091   2.682   1.635   3.139  0.0620 -0.3005 -0.2202
  974THF     C314092   2.779   1.577   3.337 -0.6457 -0.2918  0.2710
  974THF     H414093   2.584   1.660   3.097 -0.5176 -1.9097  0.0850
  974THF     H514094   2.729   1.569   3.066 -0.8269  0.1198 -1.2029
  974THF     H614095   2.761   1.535   3.436 -0.8021 -1.6846 -0.3245
  974THF     H714096   2.858   1.509   3.304 -0.4599 -0.8393  1.7603
  974THF     C814097   2.815   1.724   3.327 -0.4421 -0.0499 -0.2155
  974THF     C914098   2.768   1.757   3.181  0.2273 -1.1781 -0.0575
  974THF    H1014099   2.922   1.740   3.340 -0.5849  0.0869  0.8643
  974THF    H1114100   2.763   1.792   3.394  0.4633 -1.8673  2.4983
  974THF    H1214101   2.700   1.841   3.185  3.0264  1.1928  2.5655
  974THF    H1314102   2.852   1.786   3.118  2.9041 -0.5409  3.4899
  975THF     O114103   1.576   2.106   5.136 -0.1432  0.2827  0.1558
  975THF     C214104   1.624   2.004   5.044  0.1584 -0.3252  0.8123
  975THF     C314105   1.448   2.071   5.184  0.3612  0.5348 -0.1629
  975THF     H414106   1.728   2.016   5.014 -0.0196 -0.3560  0.1719
  975THF     H514107   1.565   2.024   4.955 -1.4418  0.7106  2.0490
  975THF     H614108   1.409   2.138   5.261 -0.0076 -0.7672  0.8268
  975THF     H714109   1.382   2.086   5.099 -0.1142 -1.4053 -0.1809
  975THF     C814110   1.466   1.920   5.214 -0.3448  0.6058 -0.5044
  975THF     C914111   1.575   1.879   5.114  0.3776 -0.2455 -0.1225
  975THF    H1014112   1.375   1.861   5.200 -0.7500  1.5480 -2.0349
  975THF    H1114113   1.511   1.913   5.313 -0.4250  0.4258 -0.4808
  975THF    H1214114   1.659   1.830   5.164 -0.0191  0.8015  1.6574
  975THF    H1314115   1.528   1.807   5.047 -0.1336 -1.1987  1.2048
  976THF     O114116   5.361   3.890   1.924 -0.1629 -0.0759  0.2648
  976THF     C214117   5.492   3.923   1.882 -0.0415 -0.2148  0.0146
  976THF     C314118   5.372   3.806   2.041  0.5064  0.0851 -0.4302
  976THF     H414119   5.504   4.010   1.817  0.4768  0.0912  0.5091
  976THF     H514120   5.535   3.839   1.827  0.3654  0.5802 -0.9049
  976THF     H614121   5.295   3.840   2.110  0.8698  0.1023 -0.0270
  976THF     H714122   5.349   3.702   2.018 -2.0285  0.6620 -0.8106
  976THF     C814123   5.517   3.827   2.093 -0.2836  0.0941 -0.4559
  976THF     C914124   5.566   3.941   2.013  0.1133 -0.7973  0.4010
  976THF    H1014125   5.585   3.742   2.078  1.1233  1.0242  0.3656
  976THF    H1114126   5.515   3.846   2.200  0.8441 -2.3718  0.0925
  976THF    H1214127   5.544   4.039   2.056 -1.2740  0.9280 -3.7025
  976THF    H1314128   5.672   3.937   1.991  0.3346  1.2482  0.8514
  977THF     O114129   3.345   4.369   4.116 -0.1505  0.5058  0.2545
  977THF     C214130   3.345   4.324   4.248  0.0151  0.7632 -0.3312
  977THF     C314131   3.216   4.336   4.055  0.0111 -0.6678 -0.7951
  977THF     H414132   3.405   4.388   4.314  2.0364 -0.6429 -0.7146
  977THF     H514133   3.380   4.221   4.247 -2.6776 -0.2660  1.2221
  977THF     H614134   3.213   4.400   3.967  2.0451  0.2957 -0.2319
  977THF     H714135   3.191   4.234   4.027 -1.9819 -0.3504 -0.3234
  977THF     C814136   3.124   4.376   4.173  0.4984 -0.4718 -0.2620
  977THF     C914137   3.199   4.315   4.295  0.2647  0.2882  0.0711
  977THF    H1014138   3.017   4.361   4.156  0.1939  0.9869  0.1612
  977THF    H1114139   3.122   4.485   4.182 -3.1234 -0.2635 -1.6696
  977THF    H1214140   3.172   4.343   4.397  0.3167  2.5208 -0.4776
  977THF    H1314141   3.178   4.208   4.297  0.9588  0.1109 -1.1828
  978THF     O114142   2.351   4.993   1.011  0.6858 -0.0039 -0.0766
  978THF     C214143   2.277   4.939   0.896 -0.3119 -0.6594 -0.4117
  978THF     C314144   2.254   5.015   1.114  0.1402 -0.8492  1.3065
  978THF     H414145   2.342   4.898   0.819  1.5037  1.5841 -0.1651
  978THF     H514146   2.222   5.020   0.849 -0.6200 -1.6589 -1.8569
  978THF     H614147   2.304   5.032   1.209  1.4782 -0.9884  0.6396
  978THF     H714148   2.181   5.093   1.092  1.1754 -0.1514  0.2707
  978THF     C814149   2.185   4.875   1.111  0.8506  0.1937 -0.7841
  978THF     C914150   2.182   4.839   0.966  0.0917 -0.1415 -0.3062
  978THF    H1014151   2.085   4.880   1.155  1.3836 -1.2646  0.7078
  978THF    H1114152   2.253   4.807   1.163 -1.1910 -1.1051  0.3456
  978THF    H1214153   2.225   4.741   0.947 -1.1748 -1.2168  2.0259
  978THF    H1314154   2.082   4.832   0.925 -0.6926  0.9668  1.3011
  979THF     O114155   1.125   1.642   1.955  0.2686  0.4840 -0.8783
  979THF     C214156   1.168   1.509   2.003 -0.6924 -0.4488 -0.2172
  979THF     C314157   1.068   1.700   2.074 -0.0869 -0.1172 -0.3631
  979THF     H414158   1.241   1.473   1.931 -1.1757  0.6458 -1.2860
  979THF     H514159   1.080   1.445   1.998 -0.6479 -0.9013  2.8822
  979THF     H614160   1.059   1.808   2.064 -0.6735 -0.2863 -1.9773
  979THF     H714161   0.966   1.670   2.100 -0.3121 -0.0220 -1.0987
  979THF     C814162   1.174   1.671   2.185 -0.2746 -0.5531  0.1733
  979THF     C914163   1.212   1.529   2.151 -0.8843 -0.4052  0.4325
  979THF    H1014164   1.131   1.671   2.286  0.6472  0.8749  0.5904
  979THF    H1114165   1.256   1.741   2.173 -1.8106  1.8375  2.3254
  979THF    H1214166   1.319   1.509   2.162 -0.0844  1.4995 -2.6701
  979THF    H1314167   1.169   1.454   2.218 -0.5030  0.0048  1.1513
  980THF     O114168   2.190   4.295   0.491  0.7214  0.4447  0.0846
  980THF     C214169   2.110   4.407   0.443 -0.1882 -0.1645 -0.6443
  980THF     C314170   2.167   4.269   0.632  0.1205 -0.8154 -0.1299
  980THF     H414171   2.019   4.371   0.395 -1.5629  0.9989  0.9414
  980THF     H514172   2.159   4.464   0.365  0.5902 -1.8088 -1.4137
  980THF     H614173   2.126   4.169   0.644  1.4640 -1.2875  0.7573
  980THF     H714174   2.270   4.263   0.667 -0.0592 -1.6431  0.2965
  980THF     C814175   2.079   4.381   0.682 -0.6646  0.6114  0.9177
  980THF     C914176   2.093   4.493   0.575 -1.0158  0.8266 -0.3640
  980THF    H1014177   2.093   4.420   0.782  2.1927 -3.0156  2.1479
  980THF    H1114178   1.974   4.352   0.679 -0.8105  1.1601  0.3656
  980THF    H1214179   2.014   4.568   0.577 -2.6014 -0.7792 -0.1175
  980THF    H1314180   2.187   4.546   0.590 -0.1004 -0.9279  0.4215
  981THF     O114181   3.335   1.788   1.578  0.7810  0.0544  0.0966
  981THF     C214182   3.280   1.729   1.457 -0.3199 -0.0406 -0.3628
  981THF     C314183   3.464   1.846   1.550 -0.0370  0.6115  0.1395
  981THF     H414184   3.176   1.760   1.448 -0.3618 -0.6338 -2.2102
  981THF     H514185   3.275   1.620   1.465 -1.0895 -0.2373 -2.7983
  981THF     H614186   3.436   1.950   1.544 -2.6299  0.0430  1.1350
  981THF     H714187   3.537   1.831   1.630 -1.6164  1.2413  1.7555
  981THF     C814188   3.507   1.798   1.415 -0.3857 -0.5939 -0.3150
  981THF     C914189   3.369   1.768   1.343 -0.7652  0.0320 -0.0174
  981THF    H1014190   3.568   1.708   1.426  0.1045 -0.3185 -0.7160
  981THF    H1114191   3.579   1.865   1.368 -0.1662  0.8722  1.9944
  981THF    H1214192   3.318   1.859   1.310 -1.9403 -0.8534 -0.7411
  981THF    H1314193   3.370   1.695   1.262 -0.9715 -0.5062  0.4617
  982THF     O114194   3.732   0.225   5.368  0.0789 -0.2671 -0.1730
  982THF     C214195   3.745   0.330   5.455  0.0634  1.2322 -0.1752
  982THF     C314196   3.597   0.219   5.325  0.5612  0.8830 -0.0365
  982THF     H414197   3.752   0.428   5.407 -1.5738  2.0121  1.0809
  982THF     H514198   3.834   0.317   5.515  0.9234 -0.8920 -1.7607
  982THF     H614199   3.595   0.274   5.230  1.6557  2.3802  0.7556
  982THF     H714200   3.570   0.117   5.297 -1.0310  2.0707 -3.4082
  982THF     C814201   3.508   0.282   5.436 -0.1437  0.1282 -0.1502
  982THF     C914202   3.618   0.323   5.539 -0.0161  0.5757  0.2688
  982THF    H1014203   3.430   0.214   5.471 -2.4133  1.7751 -1.7190
  982THF    H1114204   3.453   0.366   5.395 -1.3818 -0.5423  0.0822
  982THF    H1214205   3.602   0.424   5.575 -1.2384  0.3770  0.3169
  982THF    H1314206   3.629   0.244   5.613  1.4360  0.5981  0.1151
  983THF     O114207   0.684   4.655   0.174  0.0081  0.0563 -0.0215
  983THF     C214208   0.708   4.787   0.223 -0.5353 -0.2126  0.3673
  983THF     C314209   0.634   4.580   0.287 -0.2286  0.0290  0.5665
  983THF     H414210   0.653   4.864   0.169  0.6688 -0.1096 -0.7509
  983THF     H514211   0.814   4.811   0.220 -0.7908  1.1898  1.6511
  983THF     H614212   0.526   4.576   0.276 -0.1750  1.1323 -0.5153
  983THF     H714213   0.670   4.477   0.287 -1.7107 -0.5238 -0.0979
  983THF     C814214   0.680   4.657   0.410  0.4595  0.0767 -0.4569
  983THF     C914215   0.678   4.805   0.366  0.1606  0.2040  0.0823
  983THF    H1014216   0.782   4.634   0.440  0.5843 -1.3516 -1.8153
  983THF    H1114217   0.609   4.644   0.492  0.5087  0.0675 -0.4164
  983THF    H1214218   0.574   4.838   0.370  0.1751  0.3126 -0.3440
  983THF    H1314219   0.745   4.877   0.413  0.4013  0.2461 -0.3133
  984THF     O114220   1.271   3.778   0.181  0.6228  0.0284 -0.4349
  984THF     C214221   1.146   3.780   0.239 -0.0598 -0.3870  0.2431
  984THF     C314222   1.371   3.728   0.276 -0.0211  0.1456  0.1091
  984THF     H414223   1.065   3.766   0.167 -0.7264 -0.6757  1.0364
  984THF     H514224   1.142   3.878   0.286 -0.0180 -0.7389  0.9864
  984THF     H614225   1.411   3.635   0.236  0.5570  0.2137  0.5095
  984THF     H714226   1.432   3.815   0.299 -1.0042  1.5189 -2.1473
  984THF     C814227   1.290   3.689   0.394 -0.5210  0.8643  0.4493
  984THF     C914228   1.152   3.666   0.340  1.2217  0.1972 -0.4529
  984THF    H1014229   1.276   3.770   0.465 -0.7575  0.7295  0.5561
  984THF    H1114230   1.333   3.610   0.455 -1.1924 -1.1027 -1.4799
  984THF    H1214231   1.135   3.572   0.287  0.1485  0.5554 -0.7653
  984THF    H1314232   1.082   3.670   0.423  2.2801  1.7000  0.4087
  985THF     O114233   0.133   0.598   2.943  0.6900  0.4292 -0.2884
  985THF     C214234   0.195   0.505   2.858  0.1465 -0.9398  0.3745
  985THF     C314235   0.024   0.637   2.857  0.0396  0.1167 -0.3904
  985THF     H414236   0.270   0.450   2.915 -0.0354 -0.6960  0.8589
  985THF     H514237   0.253   0.558   2.783  1.6622 -1.8790  0.8225
  985THF     H614238  -0.055   0.686   2.913  1.7364  0.7852  1.5552
  985THF     H714239   0.057   0.712   2.785  0.5294 -1.5003 -1.9238
  985THF     C814240  -0.026   0.507   2.786  0.8001 -0.0366 -0.4150
  985THF     C914241   0.089   0.415   2.803 -0.4912  0.5797 -0.2930
  985THF    H1014242  -0.050   0.541   2.685  0.5893  1.4595  0.1185
  985THF    H1114243  -0.119   0.482   2.838  0.3250 -1.8189 -1.9994
  985THF    H1214244   0.076   0.339   2.880 -0.3329  2.2507  1.4450
  985THF    H1314245   0.127   0.364   2.714 -1.4970 -0.9999  0.1329
  986THF     O114246   1.607   4.100   0.590  0.0456  0.1858  0.0746
  986THF     C214247   1.506   4.046   0.507  0.4273 -0.1894 -0.0703
  986THF     C314248   1.591   4.241   0.581 -0.2063  0.2786 -0.0126
  986THF     H414249   1.441   3.979   0.563  0.2204 -0.3871 -0.5418
  986THF     H514250   1.540   3.999   0.415 -0.8362  0.6182 -0.9681
  986THF     H614251   1.632   4.282   0.673  3.3770 -0.1552 -1.2385
  986THF     H714252   1.652   4.284   0.501 -0.8516  2.3408  0.5425
  986THF     C814253   1.442   4.277   0.565  0.7042 -0.2791 -0.3622
  986THF     C914254   1.396   4.156   0.475  0.3446  0.0847  0.6016
  986THF    H1014255   1.420   4.373   0.519 -2.2377 -0.5711  0.2572
  986THF    H1114256   1.406   4.271   0.668  1.3948 -0.1947 -0.1040
  986THF    H1214257   1.290   4.130   0.480  0.0667  1.2487  1.1912
  986THF    H1314258   1.417   4.197   0.376  1.1524  2.6466  1.7667
  987THF     O114259   1.150   1.689   1.415  0.2056 -0.3000  0.2259
  987THF     C214260   1.097   1.693   1.544  0.2486 -0.7118  0.1333
  987THF     C314261   1.087   1.788   1.334  0.0681 -0.1574  0.2982
  987THF     H414262   1.141   1.785   1.583  0.5853 -1.0485  0.5554
  987THF     H514263   1.128   1.610   1.606  2.2906 -0.3881 -0.3971
  987THF     H614264   1.127   1.886   1.359 -1.2535  0.6076 -0.4300
  987THF     H714265   1.090   1.762   1.228 -2.0205 -0.1139  0.1801
  987THF     C814266   0.948   1.781   1.385  0.6890  0.4853 -0.1092
  987THF     C914267   0.953   1.704   1.516 -0.1083 -0.4818 -0.0818
  987THF    H1014268   0.877   1.728   1.321  0.8292 -0.0127  0.1498
  987THF    H1114269   0.899   1.878   1.397 -2.0707 -0.5687 -1.8683
  987THF    H1214270   0.915   1.768   1.596  1.4931 -1.5471  1.6209
  987THF    H1314271   0.900   1.610   1.505 -1.4178  0.4873 -2.8784
  988THF     O114272   2.495   0.230   2.015  0.3137 -0.2419 -0.1324
  988THF     C214273   2.502   0.312   2.129  0.0485  0.0103 -0.1863
  988THF     C314274   2.449   0.291   1.897  0.4721 -0.2989  0.1432
  988THF     H414275   2.597   0.307   2.182  0.0307  1.1314 -0.0164
  988THF     H514276   2.436   0.279   2.209  0.1685  0.1439 -0.0316
  988THF     H614277   2.541   0.326   1.848  0.4749  1.2901  1.2057
  988THF     H714278   2.393   0.225   1.831 -1.9538  2.4679 -0.8200
  988THF     C814279   2.360   0.404   1.955  0.0271  0.0751 -0.1292
  988THF     C914280   2.458   0.449   2.074  0.1153 -0.0380  0.2066
  988THF    H1014281   2.267   0.366   1.996  0.7533 -0.4534  1.0877
  988THF    H1114282   2.332   0.483   1.884  2.5818  0.2962 -1.0148
  988THF    H1214283   2.538   0.505   2.025  3.0621 -3.0473  1.2318
  988THF    H1314284   2.406   0.509   2.148  0.8591  3.6009 -1.9499
  989THF     O114285   0.444   1.222   4.729  0.1974 -0.3470  0.8376
  989THF     C214286   0.491   1.146   4.622 -0.7193  0.2038 -0.3636
  989THF     C314287   0.395   1.346   4.681  0.7364 -0.2536  0.0965
  989THF     H414288   0.458   1.042   4.628 -0.5247  0.0085 -2.0908
  989THF     H514289   0.600   1.151   4.620 -0.5808 -0.6211  1.8998
  989THF     H614290   0.287   1.351   4.695  0.5739 -2.3493 -0.0489
  989THF     H714291   0.442   1.430   4.732  0.9988  0.6297 -1.5333
  989THF     C814292   0.428   1.346   4.531  0.1480 -0.4428  0.1658
  989THF     C914293   0.437   1.207   4.489  0.2834  0.2799 -0.5051
  989THF    H1014294   0.518   1.406   4.521 -0.5226  0.6682  0.5654
  989THF    H1114295   0.363   1.404   4.466 -1.4107  0.2431  2.2142
  989THF    H1214296   0.339   1.160   4.478 -0.3092  1.8238 -2.2254
  989THF    H1314297   0.503   1.190   4.404  0.8940  1.7568 -0.3571
  990THF     O114298   5.423   2.265   1.297 -0.2523  0.3903  0.4858
  990THF     C214299   5.506   2.177   1.367  0.1594 -0.0501 -1.0540
  990THF     C314300   5.320   2.196   1.230  0.2096 -0.2988 -0.1091
  990THF     H414301   5.514   2.197   1.474 -1.3360  1.3576 -1.1597
  990THF     H514302   5.602   2.175   1.315  0.5230 -1.1569 -0.3808
  990THF     H614303   5.227   2.251   1.214 -0.7654 -1.0595  2.4289
  990THF     H714304   5.346   2.186   1.124 -0.3545  2.2711 -0.5522
  990THF     C814305   5.304   2.067   1.313  0.5164 -0.1333  0.5692
  990THF     C914306   5.449   2.041   1.349  0.4983  0.8805  0.2049
  990THF    H1014307   5.251   1.989   1.259 -1.3162  2.3786 -1.4540
  990THF    H1114308   5.243   2.091   1.400 -1.3017  0.2169 -0.7521
  990THF    H1214309   5.462   1.971   1.432  3.0152  0.4181 -0.4939
  990THF    H1314310   5.504   1.993   1.268  1.3397  2.3716 -0.1509
  991THF     O114311   4.718   2.242   2.077 -0.5533  0.2103 -0.1361
  991THF     C214312   4.748   2.121   2.137 -0.3920  1.4913  0.6050
  991THF     C314313   4.842   2.305   2.074 -0.0291 -0.2939  0.9803
  991THF     H414314   4.775   2.063   2.049 -0.8801 -0.2703  1.5617
  991THF     H514315   4.665   2.067   2.183  1.4382 -0.0682  2.2609
  991THF     H614316   4.860   2.332   1.969 -0.8027 -0.6927  0.7361
  991THF     H714317   4.829   2.395   2.134  2.5727 -0.2760  1.6584
  991THF     C814318   4.957   2.214   2.117 -0.2692  0.1943  0.5437
  991THF     C914319   4.880   2.132   2.216  0.3755  0.3641 -0.3124
  991THF    H1014320   5.045   2.268   2.152 -0.7841  0.8644  0.8408
  991THF    H1114321   4.984   2.140   2.043  1.2778 -1.0477  2.2568
  991THF    H1214322   4.934   2.041   2.240  0.8553 -0.3263 -3.6120
  991THF    H1314323   4.878   2.188   2.310  1.1600  0.4419 -0.3347
  992THF     O114324   0.872   2.389   3.808 -0.5065 -0.1683 -0.4536
  992THF     C214325   0.808   2.474   3.721 -0.5839 -0.4179 -0.5813
  992THF     C314326   0.789   2.274   3.818 -0.5789  0.0150 -0.5158
  992THF     H414327   0.818   2.438   3.619  0.5363 -0.0076 -0.6299
  992THF     H514328   0.857   2.571   3.721 -0.7952 -0.3110 -0.6437
  992THF     H614329   0.818   2.223   3.727 -1.3060 -0.4297 -0.5074
  992THF     H714330   0.811   2.216   3.908  0.1772  1.1161  0.0430
  992THF     C814331   0.646   2.319   3.797 -0.3926 -0.6780  0.0126
  992THF     C914332   0.660   2.470   3.764  0.3297  0.7382 -0.1519
  992THF    H1014333   0.592   2.314   3.892 -3.6815 -1.2101 -1.7398
  992THF    H1114334   0.591   2.256   3.727 -3.2439 -0.2157  1.6843
  992THF    H1214335   0.600   2.500   3.679  0.7615  0.0816 -0.7010
  992THF    H1314336   0.637   2.536   3.848 -0.3711 -1.1334  1.2050
  993THF     O114337   5.169   2.912   1.512 -0.5494 -0.4751  0.5994
  993THF     C214338   5.108   2.998   1.611 -0.0557 -0.0525  0.0390
  993THF     C314339   5.182   2.997   1.399  0.1784 -0.2248  0.5634
  993THF     H414340   5.120   2.945   1.706  1.5512 -2.6642 -1.5294
  993THF     H514341   5.000   3.006   1.594  0.2924  1.8059 -1.5398
  993THF     H614342   5.257   2.964   1.327  1.7246 -1.0496  2.4598
  993THF     H714343   5.089   3.024   1.348  1.1645  2.6488  0.1024
  993THF     C814344   5.235   3.128   1.458 -0.3223  0.2031  0.5452
  993THF     C914345   5.198   3.118   1.606  0.1144  0.1933  0.0549
  993THF    H1014346   5.182   3.212   1.414  0.1405 -0.9849 -2.5565
  993THF    H1114347   5.344   3.133   1.461 -0.2713 -0.9049  0.9393
  993THF    H1214348   5.286   3.114   1.670  0.6499  1.1330 -0.6086
  993THF    H1314349   5.153   3.208   1.648 -1.0026  0.1803 -1.0431
  994THF     O114350   3.390   3.792   4.294 -0.3220 -0.1753 -0.5819
  994THF     C214351   3.307   3.880   4.224 -0.1887 -0.0844  0.6295
  994THF     C314352   3.314   3.725   4.391  0.3413  0.1427  0.0891
  994THF     H414353   3.354   3.923   4.135  1.1379  1.0749  1.8512
  994THF     H514354   3.273   3.960   4.290 -0.0214 -0.6944  1.4673
  994THF     H614355   3.359   3.630   4.417 -0.3358 -0.5947 -1.2874
  994THF     H714356   3.297   3.779   4.484 -0.7965 -1.9921  1.1956
  994THF     C814357   3.178   3.703   4.329  0.3122 -0.0674  0.0535
  994THF     C914358   3.187   3.787   4.198 -0.0851  0.6981  0.1671
  994THF    H1014359   3.094   3.739   4.389 -1.1533 -1.5853 -0.9723
  994THF    H1114360   3.154   3.598   4.309 -0.8663  0.1592  0.1592
  994THF    H1214361   3.203   3.713   4.120 -0.7581  1.0073 -0.2693
  994THF    H1314362   3.095   3.842   4.179 -1.8393 -2.4456 -1.2259
  995THF     O114363   1.142   3.556   5.358 -0.1657  0.2902  0.2612
  995THF     C214364   1.232   3.499   5.452  0.1493 -0.1515 -0.3614
  995THF     C314365   1.216   3.649   5.282  0.1545 -0.3326  0.1220
  995THF     H414366   1.201   3.399   5.483 -2.8356  1.1182  1.1336
  995THF     H514367   1.229   3.563   5.540  0.5523  0.1547 -0.5669
  995THF     H614368   1.174   3.670   5.183  1.0023 -3.8454 -1.1188
  995THF     H714369   1.210   3.741   5.341  0.6061  1.4997 -2.5265
  995THF     C814370   1.363   3.599   5.274 -0.0132  0.5241 -0.6840
  995THF     C914371   1.369   3.497   5.388 -0.1438 -0.3984 -0.1776
  995THF    H1014372   1.422   3.691   5.282  0.4282  0.1585  0.5268
  995THF    H1114373   1.377   3.533   5.188 -1.7667 -0.5303 -0.2002
  995THF    H1214374   1.391   3.404   5.337  3.1172  0.3023 -0.2428
  995THF    H1314375   1.452   3.526   5.453 -1.2026  1.0713  0.5807
  996THF     O114376   3.407   3.581   3.204 -0.1635  0.1542  0.0771
  996THF     C214377   3.422   3.584   3.341  0.4886 -0.4209 -0.6082
  996THF     C314378   3.477   3.683   3.134 -0.3860 -0.2393 -0.6709
  996THF     H414379   3.478   3.494   3.366 -1.6400 -1.5450  0.3393
  996THF     H514380   3.337   3.587   3.409  0.1862 -1.0770 -0.9549
  996THF     H614381   3.572   3.642   3.101 -0.4404 -2.3759  1.5786
  996THF     H714382   3.419   3.712   3.046 -0.8966 -2.3355 -1.0825
  996THF     C814383   3.483   3.798   3.228 -0.2522 -0.0008 -0.8856
  996THF     C914384   3.502   3.720   3.359  0.6894  0.4607  0.1847
  996THF    H1014385   3.386   3.847   3.230  1.0986  2.9205 -1.3706
  996THF    H1114386   3.562   3.872   3.211 -0.0152 -0.6545 -2.8004
  996THF    H1214387   3.608   3.698   3.370  1.5845  3.9572 -0.1622
  996THF    H1314388   3.453   3.765   3.445 -2.1321  0.0299 -1.0967
  997THF     O114389   1.028   4.658   2.713 -0.2326  0.0307  0.5103
  997THF     C214390   0.915   4.580   2.736 -0.3664  0.1581 -0.0690
  997THF     C314391   1.000   4.733   2.591  0.2563 -0.2782  0.1634
  997THF     H414392   0.891   4.571   2.842  0.3891  1.9457  0.2967
  997THF     H514393   0.930   4.480   2.697  2.0794  0.3269  0.2713
  997THF     H614394   1.061   4.822   2.607  1.2061 -1.1654  1.6786
  997THF     H714395   1.033   4.678   2.502  0.1303  1.5871 -1.0986
  997THF     C814396   0.851   4.759   2.591  0.1232 -0.8408  0.4100
  997THF     C914397   0.792   4.642   2.661 -0.0175  0.1040  0.3230
  997THF    H1014398   0.806   4.761   2.492 -1.9132  0.4556  1.2839
  997THF    H1114399   0.815   4.850   2.638  0.4306  0.4482 -1.7524
  997THF    H1214400   0.712   4.671   2.729 -2.6562 -3.1255 -1.1111
  997THF    H1314401   0.742   4.570   2.596  1.8411  0.3231 -1.4568
  998THF     O114402   3.290   1.085   4.106  0.2523 -0.1143  0.3400
  998THF     C214403   3.181   1.170   4.116 -0.0176 -0.1981 -0.0212
  998THF     C314404   3.228   0.953   4.113 -0.2911 -0.7366  0.5171
  998THF     H414405   3.202   1.270   4.079  0.8493 -1.3547 -3.0036
  998THF     H514406   3.139   1.184   4.215 -1.0590  0.6152 -0.5632
  998THF     H614407   3.306   0.887   4.075  0.1396 -0.3609  0.7258
  998THF     H714408   3.215   0.927   4.218  0.4785 -2.1621  0.2755
  998THF     C814409   3.104   0.957   4.030 -0.1977 -0.1347 -0.4252
  998THF     C914410   3.072   1.105   4.030  0.9832 -0.1280 -0.4286
  998THF    H1014411   3.013   0.900   4.049 -1.0761  0.9127 -1.3621
  998THF    H1114412   3.131   0.937   3.927  0.9797 -1.6832  0.1516
  998THF    H1214413   3.060   1.147   3.930 -1.2347  0.3787 -0.0055
  998THF    H1314414   2.972   1.116   4.072  0.7016  1.1977 -1.3774
  999THF     O114415   0.657   2.716   0.085 -0.4877 -0.1693  0.5682
  999THF     C214416   0.737   2.617   0.139 -0.1068  0.2909  0.0653
  999THF     C314417   0.736   2.798   0.004 -0.6312 -0.4081 -0.1376
  999THF     H414418   0.690   2.519   0.138  1.2511 -0.3874 -1.8767
  999THF     H514419   0.753   2.634   0.246  0.6180  0.2749 -0.0357
  999THF     H614420   0.677   2.852  -0.069 -0.5498 -1.0513 -0.6914
  999THF     H714421   0.786   2.864   0.075 -0.2515  0.1592 -0.9141
  999THF     C814422   0.833   2.708  -0.064 -0.2544 -0.3837  0.8983
  999THF     C914423   0.866   2.621   0.055  0.7594  0.1058 -0.1312
  999THF    H1014424   0.916   2.766  -0.106 -3.5377  1.8113 -3.3454
  999THF    H1114425   0.796   2.663  -0.156  2.7544 -2.7990  0.6740
  999THF    H1214426   0.886   2.517   0.026 -0.0447 -0.2652  0.5942
  999THF    H1314427   0.951   2.660   0.110  2.0142  0.5354 -2.2759
 1000THF     O114428   3.943   1.757   2.877  0.1427  0.4973  0.1179
 1000THF     C214429   3.958   1.897   2.904 -0.9475  0.2272  0.9193
 1000THF     C314430   3.859   1.748   2.760  0.3151 -0.2408 -0.2956
 1000THF     H414431   4.035   1.904   2.981  0.4929 -0.6254 -0.3927
 1000THF     H514432   3.869   1.945   2.946  0.5879  0.9639  3.5236
 1000THF     H614433   3.859   1.650   2.711  0.8907 -1.5436  2.1710
 1000THF     H714434   3.757   1.767   2.794 -0.1475 -0.4483 -1.5013
 1000THF     C814435   3.907   1.859   2.669 -0.7634  0.0587  0.0678
 1000THF     C914436   3.994   1.951   2.757  0.0559  0.0264 -0.0311
 1000THF    H1014437   3.817   1.909   2.631 -0.0031  0.0549 -1.8423
 1000THF    H1114438   3.960   1.811   2.587  0.3998 -0.5448  1.1326
 1000THF    H1214439   4.099   1.943   2.727 -0.3233  1.0973 -1.8430
 1000THF    H1314440   3.962   2.055   2.762 -1.1829 -0.3996  3.2608
 1001THF     O114441   3.069   0.444   4.007 -0.2532 -0.4119 -0.3694
 1001THF     C214442   3.084   0.594   4.031 -0.5165  0.0328 -0.7243
 1001THF     C314443   2.971   0.420   3.913  0.9944  0.3404  0.1391
 1001THF     H414444   3.172   0.633   4.082 -1.1627  1.9968 -1.0356
 1001THF     H514445   2.998   0.629   4.090  1.2159  3.2860  0.1179
 1001THF     H614446   2.983   0.316   3.881  0.6290  0.8688 -1.8389
 1001THF     H714447   2.874   0.427   3.964  0.5192 -0.1608 -0.6649
 1001THF     C814448   2.988   0.529   3.813  0.1697 -0.4617 -0.4065
 1001THF     C914449   3.065   0.639   3.888 -0.4561 -0.2275 -0.2084
 1001THF    H1014450   2.894   0.556   3.765  0.6719 -0.7950 -1.6180
 1001THF    H1114451   3.061   0.490   3.742  2.2438  2.9463 -0.4013
 1001THF    H1214452   3.158   0.667   3.838 -0.4057 -1.0223 -0.5972
 1001THF    H1314453   2.998   0.724   3.887 -1.6869 -1.1595 -0.1873
 1002THF     O114454   3.831   5.058   0.564 -0.2677  0.6097  0.4541
 1002THF     C214455   3.759   5.157   0.491 -0.4875 -0.2569 -0.3862
 1002THF     C314456   3.924   5.119   0.660 -0.7049  0.1541  0.2723
 1002THF     H414457   3.656   5.175   0.524  0.3711 -0.3058  2.6592
 1002THF     H514458   3.760   5.117   0.390 -0.3127  0.0985 -0.5250
 1002THF     H614459   3.870   5.137   0.753  0.1142 -0.5600  0.9152
 1002THF     H714460   4.010   5.055   0.683 -1.2338 -0.0530  1.7736
 1002THF     C814461   3.953   5.255   0.593  0.3148 -0.0992 -0.4737
 1002THF     C914462   3.833   5.292   0.507  0.1712  0.1768 -0.4007
 1002THF    H1014463   4.047   5.261   0.538 -1.3425  1.2111 -3.3385
 1002THF    H1114464   3.964   5.330   0.672 -4.2752 -0.0761  0.3780
 1002THF    H1214465   3.762   5.353   0.562  0.7264 -1.2363  2.0263
 1002THF    H1314466   3.882   5.326   0.416 -0.9421 -0.3935 -1.2427
 1003THF     O114467   3.596   2.246   1.069  0.1137 -0.1180 -0.3103
 1003THF     C214468   3.480   2.332   1.093 -0.0265  0.2653  0.0013
 1003THF     C314469   3.642   2.198   1.187 -0.0528  0.2146 -0.3153
 1003THF     H414470   3.382   2.285   1.095  0.3523 -0.5094  0.7499
 1003THF     H514471   3.470   2.409   1.016 -0.4955 -1.1888 -1.4569
 1003THF     H614472   3.578   2.116   1.220 -1.1808  0.7079 -1.2261
 1003THF     H714473   3.741   2.154   1.175 -0.6936 -1.0371 -1.1908
 1003THF     C814474   3.636   2.311   1.284  0.2822 -0.0556  0.0609
 1003THF     C914475   3.511   2.384   1.233  0.0565  0.0640 -0.6203
 1003THF    H1014476   3.716   2.382   1.263 -0.0447  0.0560 -0.8607
 1003THF    H1114477   3.636   2.278   1.388 -2.3123  0.6475  0.3710
 1003THF    H1214478   3.427   2.356   1.297 -0.2491  0.8965 -0.6371
 1003THF    H1314479   3.513   2.493   1.224 -2.0702  0.0956 -1.2668
 1004THF     O114480   4.720   3.351   4.383 -0.5269 -0.1071  0.2963
 1004THF     C214481   4.859   3.347   4.354  0.5449 -0.3292 -1.0415
 1004THF     C314482   4.651   3.229   4.344  0.7717 -0.2739 -0.7033
 1004THF     H414483   4.919   3.365   4.443 -1.2185 -2.7495  0.8132
 1004THF     H514484   4.884   3.426   4.283  0.7009 -0.3351 -0.9923
 1004THF     H614485   4.628   3.174   4.435 -0.6817  1.5785  0.1283
 1004THF     H714486   4.560   3.250   4.286  1.3853  1.7654 -1.0011
 1004THF     C814487   4.741   3.168   4.244 -0.5785  0.1907  0.0543
 1004THF     C914488   4.874   3.209   4.302 -0.0754  0.1512 -0.1788
 1004THF    H1014489   4.729   3.207   4.143  0.5588  1.0999  0.2492
 1004THF    H1114490   4.730   3.060   4.241  0.0916  0.0023  2.2861
 1004THF    H1214491   4.909   3.142   4.380  0.2933 -0.1912 -0.6353
 1004THF    H1314492   4.952   3.220   4.226  1.9555  2.6116  2.0495
 1005THF     O114493   1.895   2.233   2.865 -0.1403 -0.0439 -0.0444
 1005THF     C214494   1.827   2.356   2.851 -0.1446  0.1798 -0.0213
 1005THF     C314495   2.025   2.272   2.914  0.1477  0.2635 -0.9601
 1005THF     H414496   1.798   2.386   2.952 -0.9921  0.4350 -0.3239
 1005THF     H514497   1.734   2.328   2.800  0.0263 -2.8320  1.1379
 1005THF     H614498   2.031   2.279   3.023  0.2544 -2.9441 -0.6671
 1005THF     H714499   2.103   2.203   2.879  0.0407  0.1453 -0.9652
 1005THF     C814500   2.048   2.412   2.861 -0.4885  0.5943  0.3213
 1005THF     C914501   1.920   2.459   2.797  0.1935 -0.3609 -0.1793
 1005THF    H1014502   2.129   2.417   2.789 -0.9120  1.4344 -0.1140
 1005THF    H1114503   2.069   2.480   2.943 -0.9655  1.3455 -0.1561
 1005THF    H1214504   1.898   2.562   2.829  0.6269 -0.7569  1.4784
 1005THF    H1314505   1.929   2.454   2.689 -3.3949 -3.7256 -0.5518
 1006THF     O114506   2.710   0.029   5.027 -0.1789 -0.4392 -0.1567
 1006THF     C214507   2.609  -0.021   5.116 -0.2323 -0.2773 -0.2168
 1006THF     C314508   2.645   0.136   4.955  0.5040 -0.4974 -0.1424
 1006THF     H414509   2.592   0.050   5.197 -1.9934  0.4417 -1.1728
 1006THF     H514510   2.637  -0.117   5.160 -1.3300 -1.1985 -1.4622
 1006THF     H614511   2.648   0.226   5.017  0.4581  0.4199 -1.4219
 1006THF     H714512   2.710   0.168   4.874  3.0179 -1.3495  1.4451
 1006THF     C814513   2.502   0.092   4.929 -0.7937  0.2924 -0.6991
 1006THF     C914514   2.481  -0.021   5.032  0.1620 -0.0074 -0.8869
 1006THF    H1014515   2.489   0.051   4.829 -0.8337  2.8692 -1.8411
 1006THF    H1114516   2.442   0.182   4.947  0.2116  1.1319 -1.4246
 1006THF    H1214517   2.397  -0.000   5.099  0.2798  0.5627 -0.9101
 1006THF    H1314518   2.461  -0.116   4.983 -4.3793  0.1492  0.1910
 1007THF     O114519   3.271   5.059   1.235  0.1127 -0.2880 -0.0630
 1007THF     C214520   3.372   5.065   1.333  0.1531 -0.7408  0.2243
 1007THF     C314521   3.164   4.970   1.266 -0.2401  0.0359 -0.7096
 1007THF     H414522   3.353   5.149   1.400  0.7446 -0.8922  0.5884
 1007THF     H514523   3.473   5.081   1.295  0.8998 -1.4774  1.7824
 1007THF     H614524   3.080   5.033   1.296 -0.0442  0.2766 -0.6591
 1007THF     H714525   3.131   4.918   1.176  1.4236  1.9024 -2.5290
 1007THF     C814526   3.221   4.894   1.385 -0.0296  0.3331  0.0759
 1007THF     C914527   3.371   4.928   1.388  0.1283 -0.3962  0.0815
 1007THF    H1014528   3.201   4.787   1.373  1.1254  0.2441 -1.2581
 1007THF    H1114529   3.172   4.927   1.477  1.3595  0.2318  0.8864
 1007THF    H1214530   3.412   4.926   1.488 -0.5285  0.8513  0.3983
 1007THF    H1314531   3.424   4.865   1.317  0.8802  0.5616 -0.2309
 1008THF     O114532   4.495   3.490   2.217  0.1348  0.0435 -0.6369
 1008THF     C214533   4.371   3.422   2.245 -0.2327 -0.6137  0.0751
 1008THF     C314534   4.602   3.410   2.272  0.0433  0.7205  0.4428
 1008THF     H414535   4.297   3.442   2.168 -0.6961 -1.0858  0.3854
 1008THF     H514536   4.344   3.461   2.343  0.4824 -0.7027  0.3181
 1008THF     H614537   4.695   3.447   2.228 -1.0365  1.8209 -1.0036
 1008THF     H714538   4.605   3.424   2.380 -0.1520 -0.0305  0.5473
 1008THF     C814539   4.555   3.273   2.223  0.0774  0.0600  0.2815
 1008THF     C914540   4.404   3.272   2.250 -0.2758  0.4941  0.9081
 1008THF    H1014541   4.611   3.191   2.269  1.2538  1.4153  1.3570
 1008THF    H1114542   4.570   3.270   2.116 -0.1287 -2.9224  0.2493
 1008THF    H1214543   4.361   3.228   2.160  0.5238  2.9558 -0.7917
 1008THF    H1314544   4.392   3.214   2.341 -0.0936  0.2850  0.8021
 1009PF6-    P114545   5.081   3.135   0.464 -0.6589  0.0949  0.0154
 1009PF6-    F214546   5.151   3.178   0.603  0.7983  0.5548 -0.4887
 1009PF6-    F314547   5.014   3.094   0.321 -0.1952 -0.4314 -0.0939
 1009PF6-    F414548   4.939   3.148   0.522  1.0167 -0.6302 -0.0084
 1009PF6-    F514549   5.224   3.118   0.390  0.1780  0.1899 -0.3892
 1009PF6-    F614550   5.090   2.981   0.510 -0.3628  0.2058 -0.0247
 1009PF6-    F714551   5.082   3.290   0.417 -0.0217 -0.0052  0.0684
 1010PF6-    P114552   4.313   0.456   2.095 -0.1496 -0.0209  0.0080
 1010PF6-    F214553   4.268   0.535   2.230 -0.1197  0.1975 -0.5280
 1010PF6-    F314554   4.349   0.378   1.960 -0.2541  0.1982 -0.0781
 1010PF6-    F414555   4.198   0.346   2.127  0.2590 -0.0613  0.5876
 1010PF6-    F514556   4.414   0.571   2.061  0.6753  0.7598  0.5350
 1010PF6-    F614557   4.427   0.376   2.176 -0.1053  0.6029  0.5796
 1010PF6-    F714558   4.202   0.537   2.018  0.0456 -0.3776 -0.0012
 1011PF6-    P114559   4.584   5.157   4.183  0.3440  0.0567  0.1030
 1011PF6-    F214560   4.437   5.205   4.210  0.3747  0.0832  0.2209
 1011PF6-    F314561   4.730   5.103   4.147 -0.0824  0.4706  0.4509
 1011PF6-    F414562   4.641   5.255   4.302 -0.2766 -0.3739  0.3229
 1011PF6-    F514563   4.525   5.058   4.068  0.5938  0.1007  0.3885
 1011PF6-    F614564   4.605   5.269   4.071 -0.5841 -0.0212 -0.1514
 1011PF6-    F714565   4.565   5.037   4.293 -0.5888 -0.2934 -0.0864
 1012PF6-    P114566   1.401   4.169   3.558 -0.1724  0.1549  0.5675
 1012PF6-    F214567   1.262   4.090   3.572 -0.1304  0.0730 -0.6582
 1012PF6-    F314568   1.538   4.250   3.539  0.3867 -0.4967  0.4127
 1012PF6-    F414569   1.480   4.040   3.597  0.1562 -0.0847  0.2983
 1012PF6-    F514570   1.323   4.303   3.509 -0.3795  0.3584  0.0481
 1012PF6-    F614571   1.388   4.221   3.710  0.3446  0.3593  0.2185
 1012PF6-    F714572   1.409   4.116   3.404  0.3078  0.0822  0.1261
 1013PF6-    P114573   5.297   2.155   0.659  0.0464  0.4104 -0.3849
 1013PF6-    F214574   5.403   2.133   0.779 -0.3672 -0.3977 -0.2021
 1013PF6-    F314575   5.189   2.181   0.544  0.1582 -0.0037  0.0676
 1013PF6-    F414576   5.184   2.193   0.768  0.1315  0.0463 -0.3531
 1013PF6-    F514577   5.413   2.120   0.555  0.2307  0.0498 -0.2752
 1013PF6-    F614578   5.254   2.001   0.671  1.0860  0.4451  0.1432
 1013PF6-    F714579   5.348   2.304   0.651 -0.0128  0.1780 -0.2044
 1014PF6-    P114580   3.140   1.591   4.321 -0.1853  0.0834  0.4961
 1014PF6-    F214581   3.297   1.614   4.290 -0.4028 -0.7650 -0.1144
 1014PF6-    F314582   2.979   1.565   4.340  0.3848 -0.2949  0.1449
 1014PF6-    F414583   3.170   1.515   4.458 -0.0981  0.0002 -0.3726
 1014PF6-    F514584   3.102   1.667   4.183 -0.5127  0.0163 -0.0865
 1014PF6-    F614585   3.153   1.446   4.247  0.6528 -0.3335  0.0127
 1014PF6-    F714586   3.132   1.728   4.395 -0.5934  0.3582  0.0483
 1015PF6-    P114587   4.158   3.082   4.494 -0.1300  0.3602  0.1328
 1015PF6-    F214588   3.996   3.108   4.519  0.0274  0.1026 -0.0508
 1015PF6-    F314589   4.317   3.056   4.471  0.6022 -0.0614 -0.0310
 1015PF6-    F414590   4.159   2.980   4.616 -0.4802 -0.0219 -0.2226
 1015PF6-    F514591   4.158   3.186   4.369  0.0856  0.7355  0.4893
 1015PF6-    F614592   4.197   3.198   4.597  0.5493  0.6098 -0.2221
 1015PF6-    F714593   4.115   2.956   4.394  0.3962 -1.1055  0.3060
 1016PF6-    P114594   4.513   1.053   2.714  0.2340  0.3064  0.0071
 1016PF6-    F214595   4.596   1.083   2.575  0.0975 -0.4394 -0.1219
 1016PF6-    F314596   4.432   1.025   2.848 -0.1834  0.0257 -0.3892
 1016PF6-    F414597   4.610   0.926   2.741 -0.2432  0.0978 -0.5672
 1016PF6-    F514598   4.419   1.179   2.683  0.0393  0.8899 -0.0584
 1016PF6-    F614599   4.420   0.951   2.632  0.2188  0.1429  0.1424
 1016PF6-    F714600   4.613   1.147   2.795 -0.0594 -0.1942  0.5251
 1017PF6-    P114601   4.086   1.238   5.406  0.2820  0.0109  0.0609
 1017PF6-    F214602   3.951   1.158   5.384  0.3125 -0.1793 -0.0451
 1017PF6-    F314603   4.225   1.313   5.436 -0.3498 -0.2787 -0.9200
 1017PF6-    F414604   4.128   1.132   5.511 -0.2546  0.5670 -0.3771
 1017PF6-    F514605   4.034   1.342   5.297 -0.0243 -0.1536 -0.7645
 1017PF6-    F614606   4.021   1.322   5.524 -0.1571 -0.2876  0.0039
 1017PF6-    F714607   4.146   1.148   5.293 -0.7476 -0.1540 -0.1217
 1018PF6-    P114608   4.214   1.735   3.361  0.1845  0.2659 -0.4926
 1018PF6-    F214609   4.148   1.860   3.287  0.1297 -0.3400  0.2198
 1018PF6-    F314610   4.284   1.608   3.443 -0.3285 -0.2577  0.2276
 1018PF6-    F414611   4.181   1.652   3.238  0.3062  0.2928  0.1951
 1018PF6-    F514612   4.247   1.838   3.486 -0.5052  0.2671  1.0855
 1018PF6-    F614613   4.072   1.700   3.420 -0.3499 -0.2044 -0.3700
 1018PF6-    F714614   4.354   1.776   3.291 -0.8512 -0.1986  0.4006
 1019PF6-    P114615   3.937   3.914   3.605 -0.4033  0.0860 -0.3066
 1019PF6-    F214616   3.962   3.761   3.660  0.2270  0.3838  0.2094
 1019PF6-    F314617   3.906   4.064   3.557 -0.5490  0.5212  0.0351
 1019PF6-    F414618   3.803   3.864   3.542  0.5011 -0.4376 -0.4541
 1019PF6-    F514619   4.071   3.965   3.674  0.3675  0.1923  0.1531
 1019PF6-    F614620   4.017   3.890   3.464  0.0006 -0.2140 -0.0889
 1019PF6-    F714621   3.857   3.946   3.746  0.0886 -0.3929  0.2888
 1020PF6-    P114622   4.292   0.023   2.486  0.1694 -0.1124 -0.3611
 1020PF6-    F214623   4.384   0.155   2.457  0.0655  0.4117  0.5480
 1020PF6-    F314624   4.207  -0.110   2.515  0.3761  0.2450 -0.0541
 1020PF6-    F414625   4.205   0.058   2.358 -0.3012  0.4038  0.3109
 1020PF6-    F514626   4.385  -0.005   2.616  0.3576  0.2558  0.5545
 1020PF6-    F614627   4.197   0.112   2.581  0.1978  0.1450 -0.2862
 1020PF6-    F714628   4.380  -0.069   2.392 -1.0571 -0.1374  0.1877
 1021PF6-    P114629   1.226   3.136   1.164  0.5461  0.2487 -0.2346
 1021PF6-    F214630   1.165   3.077   1.035  0.0542 -0.0102  0.4415
 1021PF6-    F314631   1.289   3.194   1.301 -0.1129 -0.3167  0.0939
 1021PF6-    F414632   1.132   3.037   1.246 -0.0731  0.0941  0.4135
 1021PF6-    F514633   1.325   3.236   1.081 -0.0352 -0.5909  0.1329
 1021PF6-    F614634   1.117   3.248   1.167 -0.1213  0.2803  0.2941
 1021PF6-    F714635   1.335   3.020   1.157 -0.0817  0.3153 -0.2303
 1022PF6-    P114636   3.841   1.294   4.240  0.1650  0.5621 -0.1109
 1022PF6-    F214637   3.787   1.152   4.305 -0.0262 -0.4509 -0.1374
 1022PF6-    F314638   3.903   1.425   4.164 -0.4244  0.6765 -0.3051
 1022PF6-    F414639   3.968   1.290   4.341  0.5394 -0.3871  0.2535
 1022PF6-    F514640   3.714   1.285   4.139  0.4954 -0.5361  0.0154
 1022PF6-    F614641   3.760   1.386   4.348 -0.4159  0.1961 -0.5961
 1022PF6-    F714642   3.918   1.198   4.133 -0.7696 -0.5045 -0.2840
 1023PF6-    P114643   5.255   3.443   4.562 -0.2178  0.6335  0.1159
 1023PF6-    F214644   5.356   3.559   4.535 -0.2116  0.4330  0.4175
 1023PF6-    F314645   5.146   3.325   4.592  0.2270  0.2782 -0.1129
 1023PF6-    F414646   5.165   3.548   4.645 -0.2274 -0.0375  0.1062
 1023PF6-    F514647   5.354   3.342   4.485  0.1185  0.4408  0.1060
 1023PF6-    F614648   5.331   3.406   4.696 -0.4390 -0.5676 -0.1082
 1023PF6-    F714649   5.165   3.481   4.430 -0.1670 -0.1597 -0.2902
 1024PF6-    P114650   1.455   3.169   2.741 -0.1752 -0.5110  0.2463
 1024PF6-    F214651   1.305   3.185   2.778  0.0242  0.5166  0.3322
 1024PF6-    F314652   1.611   3.154   2.706  0.4505  0.4186  0.2093
 1024PF6-    F414653   1.422   3.243   2.606 -0.0175 -0.0996  0.7053
 1024PF6-    F514654   1.482   3.091   2.876 -0.1892  0.3996 -0.1912
 1024PF6-    F614655   1.428   3.034   2.666 -0.4098  0.5991 -0.1143
 1024PF6-    F714656   1.488   3.318   2.802  0.1781 -0.3113  0.1808
 1025PF6-    P114657   3.139   1.201   2.675 -0.1048  0.3602 -0.3607
 1025PF6-    F214658   3.262   1.099   2.671 -0.2273 -0.0081 -0.2310
 1025PF6-    F314659   3.008   1.293   2.678 -0.2061 -0.1318  0.4280
 1025PF6-    F414660   3.063   1.109   2.568  0.0911  0.5260 -0.3002
 1025PF6-    F514661   3.214   1.291   2.787  0.1067 -0.1243  0.0625
 1025PF6-    F614662   3.204   1.291   2.556  0.0770  0.5706  0.0462
 1025PF6-    F714663   3.076   1.114   2.798  0.4949 -0.5816  0.3323
 1026PF6-    P114664   0.500   4.118   3.157 -0.4415 -0.4178 -0.0744
 1026PF6-    F214665   0.422   4.232   3.071 -0.3086 -0.4439  0.2809
 1026PF6-    F314666   0.575   4.009   3.244 -0.3801 -0.2421  0.5513
 1026PF6-    F414667   0.360   4.050   3.184  0.0787  0.7384  0.1316
 1026PF6-    F514668   0.639   4.191   3.124 -0.3274 -0.2715  0.1152
 1026PF6-    F614669   0.484   4.209   3.283  0.4014 -0.1003 -0.3107
 1026PF6-    F714670   0.518   4.037   3.025  0.1514 -0.0533  0.5804
 1027PF6-    P114671   2.607   2.508   3.039  0.3654 -0.0317  0.0852
 1027PF6-    F214672   2.631   2.348   3.074 -0.2767  0.4195 -0.1479
 1027PF6-    F314673   2.578   2.661   3.013  0.1263  0.0661  0.3294
 1027PF6-    F414674   2.527   2.475   2.898  0.2424 -0.0942 -0.1826
 1027PF6-    F514675   2.685   2.542   3.176  0.1829 -0.1160 -0.2751
 1027PF6-    F614676   2.748   2.517   2.957  0.1013  0.1276  0.0199
 1027PF6-    F714677   2.469   2.500   3.118 -0.3886 -0.1620 -0.3602
 1028PF6-    P114678   4.965   0.375   3.716 -0.0295 -0.0198  0.0564
 1028PF6-    F214679   5.027   0.522   3.737  0.1745  0.1842 -0.5412
 1028PF6-    F314680   4.910   0.230   3.694 -0.4882  0.2006 -0.0740
 1028PF6-    F414681   5.111   0.317   3.678  0.2163 -0.5398 -0.5681
 1028PF6-    F514682   4.817   0.436   3.752 -0.0706  0.4100 -0.3185
 1028PF6-    F614683   4.948   0.411   3.554  0.3801 -0.1295  0.5024
 1028PF6-    F714684   4.988   0.351   3.875 -0.2159  0.3310 -0.5634
 1029PF6-    P114685   5.145   0.234   1.002 -0.4120 -0.1548  0.3624
 1029PF6-    F214686   5.125   0.367   0.919  0.1614 -0.1100 -0.3616
 1029PF6-    F314687   5.170   0.099   1.083 -0.2020 -0.5034  0.3794
 1029PF6-    F414688   5.223   0.315   1.115 -0.2946  0.3387  0.6027
 1029PF6-    F514689   5.067   0.156   0.890 -0.7012  0.1257 -0.0616
 1029PF6-    F614690   5.279   0.209   0.925  0.0427  0.2947  0.1585
 1029PF6-    F714691   5.003   0.250   1.087 -0.3272 -0.1651 -0.2939
 1030PF6-    P114692   5.276   3.794   0.200  0.0906 -0.5226 -0.2829
 1030PF6-    F214693   5.161   3.854   0.294 -0.2174 -0.3794  0.1619
 1030PF6-    F314694   5.393   3.732   0.110  0.2293 -0.1841 -0.2414
 1030PF6-    F414695   5.282   3.925   0.110 -0.2608 -0.0396 -0.4365
 1030PF6-    F514696   5.273   3.662   0.290 -0.0627  0.3270 -0.5808
 1030PF6-    F614697   5.162   3.731   0.108  0.0155  0.3280  0.3006
 1030PF6-    F714698   5.390   3.855   0.305  0.0551 -0.0968  0.0791
 1031PF6-    P114699   1.672   2.157   0.062 -0.0705  0.0357  0.7217
 1031PF6-    F214700   1.732   2.114  -0.080 -0.2284  0.5093  0.2051
 1031PF6-    F314701   1.608   2.213   0.200  0.1865 -0.1101  0.1845
 1031PF6-    F414702   1.645   2.006   0.108 -0.5278  0.0488 -0.6247
 1031PF6-    F514703   1.682   2.306   0.012 -0.0143  0.1672 -0.3913
 1031PF6-    F614704   1.526   2.160  -0.015 -0.1231 -0.6116  0.6098
 1031PF6-    F714705   1.821   2.156   0.128 -0.4514  0.6015  0.0684
 1032PF6-    P114706   2.716   0.700   0.666 -0.1724  0.2208 -0.2826
 1032PF6-    F214707   2.781   0.564   0.608 -0.1894 -0.3651 -0.2808
 1032PF6-    F314708   2.655   0.831   0.722 -0.1677 -0.0171  0.1631
 1032PF6-    F414709   2.591   0.675   0.579 -0.0854  0.1234 -0.1140
 1032PF6-    F514710   2.851   0.727   0.757 -0.0457 -0.4226  0.0432
 1032PF6-    F614711   2.783   0.781   0.550 -0.0093  0.4267  0.0925
 1032PF6-    F714712   2.648   0.619   0.786 -0.0298  0.7128 -0.4210
 1033PF6-    P114713   1.991   5.066   0.573 -0.2026  0.1527  0.1958
 1033PF6-    F214714   2.012   5.048   0.421 -0.2186  0.0196 -0.2244
 1033PF6-    F314715   1.959   5.085   0.730  0.0490  0.0508 -0.3391
 1033PF6-    F414716   2.150   5.089   0.600  0.1534 -0.0673 -0.1573
 1033PF6-    F514717   1.829   5.057   0.552  0.0236 -0.1164  0.2544
 1033PF6-    F614718   2.002   4.909   0.582  0.1444 -0.1398 -0.3663
 1033PF6-    F714719   1.973   5.220   0.551 -0.1683  0.3193 -0.3469
 1034PF6-    P114720   4.355   4.973   0.795  0.1954  0.1755  0.0066
 1034PF6-    F214721   4.432   5.099   0.842  0.6282 -0.6325 -0.4864
 1034PF6-    F314722   4.282   4.842   0.739  0.0512 -0.2431 -0.1984
 1034PF6-    F414723   4.408   5.005   0.651  0.3551 -0.0032  0.7409
 1034PF6-    F514724   4.298   4.946   0.939  0.3214 -0.0114 -0.0618
 1034PF6-    F614725   4.228   5.064   0.766 -0.2707  0.3885 -0.7399
 1034PF6-    F714726   4.491   4.889   0.830 -0.0090  0.0809  0.1516
 1035PF6-    P114727   4.181   5.300   1.988  0.2769 -0.2107 -0.0952
 1035PF6-    F214728   4.322   5.249   1.928  0.0019  0.4684  0.3481
 1035PF6-    F314729   4.051   5.358   2.044 -0.2781 -0.2685 -0.1776
 1035PF6-    F414730   4.244   5.448   1.980  0.0032 -0.3695  0.1022
 1035PF6-    F514731   4.124   5.148   1.998  0.4603  0.2588  0.4539
 1035PF6-    F614732   4.236   5.291   2.140 -0.0167 -0.4879 -0.0734
 1035PF6-    F714733   4.127   5.313   1.839  0.1802  0.4143  0.0744
 1036PF6-    P114734   1.660   1.275   2.818 -0.2974  0.4967 -0.0645
 1036PF6-    F214735   1.576   1.203   2.702 -0.3134 -0.1138  0.5355
 1036PF6-    F314736   1.742   1.357   2.932  0.1696  0.1145  0.2663
 1036PF6-    F414737   1.733   1.135   2.845 -0.1933  0.1995  0.3776
 1036PF6-    F514738   1.588   1.419   2.790 -0.2033  0.2698  0.1166
 1036PF6-    F614739   1.544   1.234   2.924  0.3279 -0.2668  0.2939
 1036PF6-    F714740   1.776   1.317   2.713  0.2559  0.0718  0.3324
 1037PF6-    P114741   5.349   5.025   0.183  0.2905  0.5354  0.4467
 1037PF6-    F214742   5.471   4.932   0.144 -0.8586 -0.5742 -0.6142
 1037PF6-    F314743   5.229   5.125   0.219 -0.2755  0.7422  0.0546
 1037PF6-    F414744   5.309   4.929   0.301 -0.0250  0.0884  0.4006
 1037PF6-    F514745   5.396   5.124   0.062 -0.0993 -0.5428 -0.2626
 1037PF6-    F614746   5.254   4.935   0.089  0.2428 -0.1446 -0.0726
 1037PF6-    F714747   5.439   5.110   0.277  0.5251 -0.2701 -0.3449
 1038PF6-    P114748   1.695   2.695   2.556 -0.3063  0.2326 -0.2858
 1038PF6-    F214749   1.552   2.656   2.614  0.7365  0.4013  0.5766
 1038PF6-    F314750   1.835   2.732   2.501  0.0710 -0.4420 -0.2816
 1038PF6-    F414751   1.638   2.675   2.408  0.0595  0.1038  0.0705
 1038PF6-    F514752   1.741   2.706   2.704  0.4199  0.3807  0.1394
 1038PF6-    F614753   1.737   2.544   2.554  0.6138 -0.3757  0.1317
 1038PF6-    F714754   1.654   2.847   2.558  0.8884 -0.0203 -0.3355
 1039PF6-    P114755   5.267   0.963   4.505 -0.1332 -0.1101 -0.2532
 1039PF6-    F214756   5.250   1.113   4.460 -0.0781  0.0647 -0.4824
 1039PF6-    F314757   5.281   0.809   4.548  0.4757  0.0540 -0.6089
 1039PF6-    F414758   5.360   0.945   4.381 -0.1310 -0.5965 -0.5453
 1039PF6-    F514759   5.178   0.985   4.635 -0.1002 -0.0572 -0.1437
 1039PF6-    F614760   5.140   0.925   4.418 -0.2889 -0.3396 -0.3080
 1039PF6-    F714761   5.400   1.003   4.592  0.0286  0.0307  0.1688
 1040PF6-    P114762   0.981   1.099   4.771  0.2434  0.3607 -0.2023
 1040PF6-    F214763   1.098   0.996   4.791 -0.2374  0.3578 -0.5204
 1040PF6-    F314764   0.858   1.201   4.753  0.0909 -0.2131  0.5891
 1040PF6-    F414765   1.044   1.151   4.633 -0.1083  0.2112 -0.5149
 1040PF6-    F514766   0.917   1.052   4.910  0.6576  0.7218  0.0368
 1040PF6-    F614767   1.063   1.217   4.854 -0.4356 -0.3297 -0.3257
 1040PF6-    F714768   0.896   0.985   4.696 -0.0932 -0.4032  0.4028
 1041PF6-    P114769   5.088   0.109   5.033  0.0093  0.2354 -0.2007
 1041PF6-    F214770   5.081  -0.039   5.094 -0.9922  0.3276  0.5291
 1041PF6-    F314771   5.080   0.256   4.963 -0.4609 -0.2101 -0.0592
 1041PF6-    F414772   4.935   0.139   5.079  0.1809 -0.0015  0.4271
 1041PF6-    F514773   5.237   0.091   4.976  0.3158 -0.0568  0.2300
 1041PF6-    F614774   5.025   0.049   4.902 -0.0640 -0.5849 -0.0215
 1041PF6-    F714775   5.150   0.171   5.167  0.1330  0.0382 -0.4946
 1042PF6-    P114776   0.693   1.364   1.350  0.3780 -0.2772 -0.3493
 1042PF6-    F214777   0.565   1.305   1.429  0.2688 -0.3100  0.4950
 1042PF6-    F314778   0.816   1.411   1.269 -0.0451 -0.6403 -0.1853
 1042PF6-    F414779   0.596   1.409   1.230  0.1074 -0.1259 -0.0357
 1042PF6-    F514780   0.790   1.316   1.468  0.5315 -0.4842  0.2924
 1042PF6-    F614781   0.710   1.225   1.285 -0.4667 -0.5238  0.3244
 1042PF6-    F714782   0.682   1.508   1.422  0.2802 -0.0654 -0.2203
 1043PF6-    P114783   4.024   4.310   1.041  0.6716 -0.6803  0.2184
 1043PF6-    F214784   4.142   4.421   1.023  0.9006  0.2298 -0.4747
 1043PF6-    F314785   3.905   4.209   1.065  0.2339 -0.0448 -0.7263
 1043PF6-    F414786   3.935   4.406   0.951  0.0241 -0.2256 -0.4041
 1043PF6-    F514787   4.122   4.221   1.134 -0.0116  0.3950  0.0287
 1043PF6-    F614788   3.971   4.388   1.178 -0.5075 -0.2472 -0.0608
 1043PF6-    F714789   4.062   4.221   0.906  0.3502 -0.4744  0.1519
 1044PF6-    P114790   4.905   1.238   4.037  0.1015  0.4211 -0.2764
 1044PF6-    F214791   4.845   1.188   4.174  0.0196 -0.4342  0.1331
 1044PF6-    F314792   4.975   1.294   3.902  0.1586 -0.4534  0.2020
 1044PF6-    F414793   4.782   1.347   4.024 -0.3083  0.3633 -0.5126
 1044PF6-    F514794   5.024   1.127   4.047 -0.5833  0.3974 -0.2069
 1044PF6-    F614795   4.813   1.130   3.952  0.5222 -0.2409  0.1432
 1044PF6-    F714796   4.999   1.342   4.121 -0.2604  0.1207  0.0996
 1045PF6-    P114797   5.209   0.775   2.302  0.0806 -0.2530 -0.2871
 1045PF6-    F214798   5.285   0.815   2.165  0.1412 -0.5063 -0.2256
 1045PF6-    F314799   5.126   0.748   2.433  0.7087  0.3905  0.2791
 1045PF6-    F414800   5.110   0.677   2.222 -0.0231 -0.1979  0.3285
 1045PF6-    F514801   5.302   0.875   2.386  0.0348 -0.0165  0.3298
 1045PF6-    F614802   5.107   0.897   2.274 -0.7700  0.1182 -0.1059
 1045PF6-    F714803   5.303   0.658   2.335 -0.2322 -0.4770 -0.0455
 1046PF6-    P114804   0.736   2.226   3.310 -0.4387 -0.2169 -0.1102
 1046PF6-    F214805   0.868   2.291   3.244 -0.0395  0.2579  0.2247
 1046PF6-    F314806   0.610   2.170   3.383 -0.1101  0.1297  0.3210
 1046PF6-    F414807   0.698   2.379   3.362  0.3851 -0.0349  0.0664
 1046PF6-    F514808   0.774   2.081   3.251 -0.2443  0.0644 -0.7542
 1046PF6-    F614809   0.822   2.198   3.439 -0.0393 -0.3959  0.6465
 1046PF6-    F714810   0.654   2.251   3.174 -0.1008 -0.0838  0.9763
 1047PF6-    P114811   2.123   4.770   1.607  0.1539  0.0917 -0.1820
 1047PF6-    F214812   2.065   4.744   1.462  0.0165 -0.0495  0.3711
 1047PF6-    F314813   2.185   4.789   1.752 -0.4786 -0.1423 -0.6576
 1047PF6-    F414814   2.263   4.715   1.554 -0.1321 -0.2715 -0.1155
 1047PF6-    F514815   1.980   4.828   1.653  0.2380 -0.7753  0.1645
 1047PF6-    F614816   2.081   4.620   1.648 -0.0631 -0.3924  0.1271
 1047PF6-    F714817   2.168   4.925   1.576 -0.5164 -0.1569 -0.1312
 1048PF6-    P114818   2.140   2.280   3.942 -0.3225 -0.1313 -0.2487
 1048PF6-    F214819   2.093   2.419   4.002  0.1826  0.1394  0.7778
 1048PF6-    F314820   2.190   2.137   3.893 -0.3804  0.1699  0.1381
 1048PF6-    F414821   2.010   2.203   4.012  0.3909 -0.1119  0.1383
 1048PF6-    F514822   2.270   2.350   3.877  0.0709 -0.0995 -0.2318
 1048PF6-    F614823   2.220   2.255   4.073  0.1345 -0.3055  0.1543
 1048PF6-    F714824   2.059   2.298   3.804  0.0970 -0.0882  0.5145
 1049PF6-    P114825   4.503   4.299   1.802 -0.2384 -0.7713 -0.1437
 1049PF6-    F214826   4.584   4.426   1.870  0.5260  0.4396  0.0938
 1049PF6-    F314827   4.425   4.189   1.723 -0.5858  0.7122  0.1990
 1049PF6-    F414828   4.638   4.220   1.768 -0.5095  0.1679 -0.5558
 1049PF6-    F514829   4.366   4.380   1.825  0.3821 -0.1332 -0.1388
 1049PF6-    F614830   4.514   4.377   1.659 -0.0719  0.0815 -0.2715
 1049PF6-    F714831   4.488   4.217   1.940  0.4596 -0.0450 -0.0649
 1050PF6-    P114832   3.858   3.689   0.535  0.8242 -0.2806 -0.1343
 1050PF6-    F214833   3.779   3.769   0.422  0.2529  0.3120  0.4523
 1050PF6-    F314834   3.938   3.610   0.653  0.1987  0.7306  0.3624
 1050PF6-    F414835   3.947   3.619   0.429 -0.0582  0.5105  0.2970
 1050PF6-    F514836   3.765   3.754   0.650  0.0290  0.4126  0.5023
 1050PF6-    F614837   3.744   3.572   0.526 -0.1998 -0.1664  0.4576
 1050PF6-    F714838   3.962   3.813   0.543 -0.2760 -0.0203  0.5657
 1051PF6-    P114839   2.434   3.955   1.865 -0.0469  0.6056 -0.3535
 1051PF6-    F214840   2.275   3.967   1.865  0.1012  0.2763  0.4597
 1051PF6-    F314841   2.595   3.938   1.860  0.0937  0.1274 -0.3303
 1051PF6-    F414842   2.438   4.024   2.010  0.1692  0.2867 -0.3141
 1051PF6-    F514843   2.423   3.883   1.722 -0.0811  0.5117  0.0711
 1051PF6-    F614844   2.444   4.101   1.799 -0.0259 -0.3664 -0.0505
 1051PF6-    F714845   2.426   3.812   1.934  0.4531  0.0934  0.3264
 1052PF6-    P114846   3.509   2.516   2.290 -0.0710 -0.4850 -0.1760
 1052PF6-    F214847   3.565   2.619   2.183  0.0464 -0.7843  0.3827
 1052PF6-    F314848   3.453   2.408   2.404 -0.1765 -0.3658  0.0769
 1052PF6-    F414849   3.658   2.465   2.320  0.1693  0.3803 -0.4111
 1052PF6-    F514850   3.359   2.574   2.271  0.1442  0.3113 -0.3822
 1052PF6-    F614851   3.486   2.404   2.179 -0.6116 -0.1223 -0.2992
 1052PF6-    F714852   3.524   2.627   2.405 -0.1630 -0.3945 -0.2624
 1053PF6-    P114853   3.016   4.631   2.690 -0.4146 -0.1907  0.1073
 1053PF6-    F214854   3.036   4.598   2.848 -0.0327  0.1498  0.1554
 1053PF6-    F314855   2.996   4.661   2.532 -0.4595 -0.2139  0.2059
 1053PF6-    F414856   3.172   4.604   2.664 -0.7564 -0.1823 -0.7083
 1053PF6-    F514857   2.864   4.662   2.715 -0.2699  0.5418 -0.0593
 1053PF6-    F614858   3.046   4.786   2.711  0.2122  0.1910 -0.0775
 1053PF6-    F714859   2.986   4.478   2.675  0.0260  0.0278  0.0776
 1054PF6-    P114860   2.178   3.998   2.722  0.2082 -0.2396  0.0631
 1054PF6-    F214861   2.082   4.006   2.594  0.0346 -0.6415  0.0792
 1054PF6-    F314862   2.281   3.997   2.844  0.4850  0.2550  0.4091
 1054PF6-    F414863   2.287   3.946   2.633 -0.0085 -0.0971  0.2360
 1054PF6-    F514864   2.061   4.059   2.819  0.4411  0.4386  0.2825
 1054PF6-    F614865   2.131   3.846   2.759  0.1313  0.0734 -0.6250
 1054PF6-    F714866   2.220   4.151   2.695  0.4142  0.3520 -0.0736
 1055PF6-    P114867   4.728   1.828   4.654 -0.0377 -0.4162  0.0204
 1055PF6-    F214868   4.833   1.946   4.644  0.0556 -0.0496 -0.0364
 1055PF6-    F314869   4.622   1.710   4.673  0.3952  0.3827 -0.6436
 1055PF6-    F414870   4.827   1.758   4.751 -0.1812  0.1365  0.5531
 1055PF6-    F514871   4.624   1.897   4.548 -0.1658 -0.1380 -0.0386
 1055PF6-    F614872   4.793   1.757   4.525  0.2056 -0.4263  0.1222
 1055PF6-    F714873   4.652   1.905   4.776 -0.2779  0.2942 -0.0360
 1056PF6-    P114874   5.117   1.194   0.946  0.0027  0.0571  0.1173
 1056PF6-    F214875   4.967   1.136   0.935 -0.7865  0.2248 -0.1481
 1056PF6-    F314876   5.266   1.259   0.952  0.3564  0.1887  0.1253
 1056PF6-    F414877   5.088   1.285   0.821  0.0602 -0.2358  0.0589
 1056PF6-    F514878   5.143   1.096   1.069  0.5556  0.1841  0.4540
 1056PF6-    F614879   5.169   1.077   0.847 -0.3944  0.0143  0.2109
 1056PF6-    F714880   5.063   1.306   1.049 -0.4207 -0.0604 -0.1314
 1057PF6-    P114881   2.196   1.697   1.500  0.0090 -0.3436 -0.0583
 1057PF6-    F214882   2.152   1.752   1.646 -0.4447  0.1235  0.3042
 1057PF6-    F314883   2.231   1.635   1.353  0.4310 -0.1296 -0.0997
 1057PF6-    F414884   2.042   1.727   1.444  0.1696 -0.1130 -0.0082
 1057PF6-    F514885   2.341   1.664   1.554 -0.6706  0.2776 -0.0081
 1057PF6-    F614886   2.157   1.547   1.543 -0.3412 -0.0652 -0.3886
 1057PF6-    F714887   2.243   1.845   1.461  0.0244  0.1644  0.1449
 1058PF6-    P114888   3.491   2.284   3.722 -0.0352  0.3567  0.4564
 1058PF6-    F214889   3.566   2.238   3.856 -0.3231  0.6606 -0.1532
 1058PF6-    F314890   3.414   2.320   3.592 -0.1311 -0.2461 -0.1042
 1058PF6-    F414891   3.617   2.215   3.642 -0.3896 -0.3876 -0.2238
 1058PF6-    F514892   3.375   2.350   3.810  0.0811  0.2843 -0.9939
 1058PF6-    F614893   3.569   2.423   3.709  0.1731  0.5079 -0.3091
 1058PF6-    F714894   3.411   2.147   3.725  0.7818 -0.0547 -0.4362
 1059PF6-    P114895   1.031   4.359   1.095 -0.4292  0.2575 -0.3379
 1059PF6-    F214896   1.026   4.223   1.173 -0.3343  0.2970 -0.0669
 1059PF6-    F314897   1.033   4.492   1.008  0.1027  0.2939 -0.6473
 1059PF6-    F414898   0.876   4.378   1.109  0.0588 -0.5899 -0.3608
 1059PF6-    F514899   1.188   4.340   1.076 -0.6317  0.0637  0.2217
 1059PF6-    F614900   1.004   4.279   0.962 -0.2253  0.6175 -0.1153
 1059PF6-    F714901   1.056   4.438   1.231  0.3869  0.2257  0.0194
 1060PF6-    P114902   1.805   5.149   3.427 -0.4294  0.6241  0.1530
 1060PF6-    F214903   1.790   5.032   3.528  0.4203  0.0219  0.2268
 1060PF6-    F314904   1.828   5.271   3.318 -0.0237  0.3261  0.0191
 1060PF6-    F414905   1.697   5.237   3.507  0.0123 -0.5480 -0.2840
 1060PF6-    F514906   1.905   5.059   3.337  0.2748  0.4120 -0.5139
 1060PF6-    F614907   1.679   5.092   3.344  0.0651  0.6454 -0.2639
 1060PF6-    F714908   1.926   5.203   3.514  0.3594 -0.0517 -0.1548
 1061PF6-    P114909   4.209   0.687   3.113  0.1063 -0.1387  0.0808
 1061PF6-    F214910   4.093   0.591   3.074 -0.0109 -0.3397  0.2102
 1061PF6-    F314911   4.327   0.793   3.151  0.1046  0.1798  0.0053
 1061PF6-    F414912   4.262   0.582   3.218  0.1018  0.1314  0.0331
 1061PF6-    F514913   4.153   0.797   3.006  0.3172 -0.1203 -0.1854
 1061PF6-    F614914   4.115   0.752   3.225  0.1771 -0.0882  0.3391
 1061PF6-    F714915   4.296   0.621   3.000  0.0119  0.3906 -0.6418
 1062PF6-    P114916   5.384   5.243   4.673  0.4925 -0.0776 -0.0537
 1062PF6-    F214917   5.490   5.224   4.782  0.0905 -0.3231 -0.2091
 1062PF6-    F314918   5.270   5.258   4.553 -0.5781  0.1248 -0.1186
 1062PF6-    F414919   5.423   5.408   4.664 -0.2540 -0.1342  0.6939
 1062PF6-    F514920   5.344   5.087   4.693  0.2871 -0.3089 -0.1465
 1062PF6-    F614921   5.268   5.285   4.780  0.5160  0.1675 -0.1047
 1062PF6-    F714922   5.493   5.207   4.561 -0.1972 -0.3708  0.3537
 1063PF6-    P114923   2.084   4.534   5.142  0.1818  0.0763 -0.0413
 1063PF6-    F214924   2.174   4.611   5.248  0.2740  0.2596  0.4379
 1063PF6-    F314925   1.997   4.461   5.032  0.1514 -0.3787 -0.0368
 1063PF6-    F414926   2.030   4.680   5.094 -0.1784 -0.4233  0.0881
 1063PF6-    F514927   2.138   4.392   5.198 -0.2280 -0.0767 -0.0257
 1063PF6-    F614928   1.962   4.528   5.240 -0.3403 -0.3660  0.5068
 1063PF6-    F714929   2.202   4.541   5.034 -0.0768 -0.6366 -0.2104
 1064PF6-    P114930   2.724   2.602   1.634 -0.0133 -0.3133  0.3164
 1064PF6-    F214931   2.593   2.696   1.653 -0.2255 -0.5510  0.4207
 1064PF6-    F314932   2.851   2.502   1.610  0.8131 -0.0816 -0.0982
 1064PF6-    F414933   2.661   2.495   1.739  0.0768  0.2431  0.2253
 1064PF6-    F514934   2.785   2.708   1.531 -0.2222  0.1250  0.0663
 1064PF6-    F614935   2.798   2.679   1.750  0.0065  0.1452  0.2333
 1064PF6-    F714936   2.646   2.534   1.507 -0.2442  0.0096 -0.2564
 1065PF6-    P114937   0.130   0.573   0.289 -0.0175  0.1638 -0.1978
 1065PF6-    F214938   0.182   0.693   0.201  0.0267  0.4247 -0.0815
 1065PF6-    F314939   0.073   0.454   0.379 -0.0877 -0.2442  0.0282
 1065PF6-    F414940   0.222   0.634   0.411  0.1323 -0.3993 -0.8746
 1065PF6-    F514941   0.034   0.520   0.166 -0.0414  0.5940  0.2330
 1065PF6-    F614942   0.253   0.483   0.239  0.1219 -0.0770  0.2440
 1065PF6-    F714943   0.008   0.665   0.340 -0.8861 -0.0559 -0.1137
 1066PF6-    P114944   0.281   2.457   1.451 -0.4190  0.3011 -0.3674
 1066PF6-    F214945   0.244   2.370   1.323 -0.4008 -0.0417  0.4635
 1066PF6-    F314946   0.320   2.540   1.583 -0.4874 -0.0107  0.2057
 1066PF6-    F414947   0.135   2.436   1.509  0.1573 -0.1996 -0.1833
 1066PF6-    F514948   0.432   2.473   1.396  0.5289  0.0274 -0.1271
 1066PF6-    F614949   0.229   2.590   1.378  0.2558  0.1122  0.0470
 1066PF6-    F714950   0.325   2.320   1.522  0.0209  0.4862  0.3171
 1067PF6-    P114951   5.079   1.724   1.452 -0.1321  0.3166  0.0618
 1067PF6-    F214952   5.236   1.748   1.426 -0.6129 -0.2781  0.1369
 1067PF6-    F314953   4.922   1.704   1.483  0.4029 -0.4262 -0.3094
 1067PF6-    F414954   5.042   1.797   1.308  0.2662 -0.3749 -0.1399
 1067PF6-    F514955   5.112   1.642   1.592 -0.3962 -0.0506  0.2393
 1067PF6-    F614956   5.066   1.861   1.532 -0.0771  0.3895  0.1286
 1067PF6-    F714957   5.088   1.580   1.372 -0.4191 -0.4240  0.1854
 1068PF6-    P114958   5.197   2.542   4.661  0.3233 -0.3233  0.0722
 1068PF6-    F214959   5.331   2.610   4.705 -0.0933 -0.2079 -0.2026
 1068PF6-    F314960   5.059   2.481   4.624  0.1708  0.4536 -0.4144
 1068PF6-    F414961   5.140   2.684   4.613 -0.0236  0.5793  0.4558
 1068PF6-    F514962   5.252   2.396   4.705 -0.3029  0.4377 -0.8591
 1068PF6-    F614963   5.143   2.563   4.812 -0.5422 -0.3128 -0.5933
 1068PF6-    F714964   5.245   2.515   4.507 -0.2798 -0.0740 -0.2040
 1069PF6-    P114965   4.581   5.094   1.281 -0.0974  0.0839  0.0524
 1069PF6-    F214966   4.702   5.040   1.198 -0.5891 -0.2806 -0.4441
 1069PF6-    F314967   4.461   5.153   1.360  0.4753  0.0972 -0.3200
 1069PF6-    F414968   4.494   5.121   1.149  0.1922 -0.3246 -0.4440
 1069PF6-    F514969   4.658   5.071   1.425 -0.6528 -0.1873 -0.2825
 1069PF6-    F614970   4.646   5.244   1.273  1.1522  0.1485 -0.9004
 1069PF6-    F714971   4.518   4.951   1.303  0.0148 -0.1500  0.0666
 1070PF6-    P114972   2.989   0.871   1.504 -0.1608  0.4008  0.5403
 1070PF6-    F214973   3.065   0.933   1.628 -0.3460  0.0464  0.4135
 1070PF6-    F314974   2.920   0.800   1.379  0.0979  0.1158 -0.3811
 1070PF6-    F414975   3.025   0.726   1.570 -0.3235 -0.2480  0.4052
 1070PF6-    F514976   2.959   1.013   1.447  0.0184 -1.0226  0.5773
 1070PF6-    F614977   3.120   0.872   1.416 -0.1325 -0.0383  0.0818
 1070PF6-    F714978   2.851   0.876   1.587 -0.3215 -0.0418 -0.4478
 1071PF6-    P114979   2.988   1.932   5.089  0.2502 -0.5964 -0.3263
 1071PF6-    F214980   2.904   1.856   5.205 -0.6618  0.1512 -0.1825
 1071PF6-    F314981   3.067   2.012   4.979 -0.0494 -0.0414 -0.1955
 1071PF6-    F414982   2.860   2.016   5.053  0.6473 -0.1317  0.4086
 1071PF6-    F514983   3.131   1.858   5.125 -0.0163 -0.5246  0.1359
 1071PF6-    F614984   2.948   1.823   4.982  0.3135 -0.1183 -0.2301
 1071PF6-    F714985   3.030   2.050   5.189 -0.1527 -0.1079 -0.2235
 1072PF6-    P114986   2.438   4.405   3.596 -0.4712  0.1333  0.0337
 1072PF6-    F214987   2.584   4.455   3.640  0.0382  0.5038  0.1157
 1072PF6-    F314988   2.298   4.357   3.539 -0.3221 -0.5351 -0.1574
 1072PF6-    F414989   2.425   4.320   3.733  0.0928 -0.1552  0.2699
 1072PF6-    F514990   2.456   4.495   3.463 -0.0254  0.0830  0.0053
 1072PF6-    F614991   2.506   4.273   3.520  0.4726 -0.2865  0.0464
 1072PF6-    F714992   2.367   4.526   3.669  0.4515 -0.6673  0.0978
 1073PF6-    P114993   5.376   1.572   3.136 -0.0358 -0.0833  0.1971
 1073PF6-    F214994   5.531   1.544   3.138  0.1728  0.3826 -0.2614
 1073PF6-    F314995   5.216   1.602   3.133 -0.4542 -0.0781  0.2710
 1073PF6-    F414996   5.349   1.414   3.134  0.6846  0.2359  0.7339
 1073PF6-    F514997   5.405   1.726   3.141 -0.2256 -0.2038 -0.3369
 1073PF6-    F614998   5.384   1.573   2.979  0.3272 -0.0523  0.1297
 1073PF6-    F714999   5.370   1.562   3.293 -0.0303 -0.1659 -0.2514
 1074PF6-    P115000   2.414   5.311   1.541  0.0198  0.6230  0.4486
 1074PF6-    F215001   2.300   5.230   1.451  0.5951  0.0916  0.0236
 1074PF6-    F315002   2.517   5.396   1.627 -0.3906 -0.0752  0.1600
 1074PF6-    F415003   2.331   5.283   1.677  0.0286  0.3898  0.2796
 1074PF6-    F515004   2.502   5.339   1.406  0.7545  0.1818 -0.4860
 1074PF6-    F615005   2.331   5.452   1.519  0.2081 -0.2868  0.7281
 1074PF6-    F715006   2.493   5.174   1.574 -0.7492 -0.0663  0.0765
 1075PF6-    P115007   0.818   5.485   4.013 -0.6926  0.0370 -0.2995
 1075PF6-    F215008   0.745   5.466   3.869 -0.5479  0.2213 -0.2449
 1075PF6-    F315009   0.896   5.501   4.152  0.5382  0.1953  0.1634
 1075PF6-    F415010   0.869   5.628   3.971  0.2766 -0.2970 -0.0793
 1075PF6-    F515011   0.770   5.344   4.058  0.7689  0.5395 -0.4974
 1075PF6-    F615012   0.953   5.423   3.940  0.4008  0.5961 -0.1460
 1075PF6-    F715013   0.683   5.553   4.069 -0.3985  0.3749  0.3877
 1076PF6-    P115014   0.157   0.066   2.077 -0.4769  0.0940 -0.0661
 1076PF6-    F215015   0.233  -0.081   2.052 -0.8925  0.4562 -0.0599
 1076PF6-    F315016   0.090   0.208   2.102  0.4152 -0.2943 -0.0980
 1076PF6-    F415017   0.051   0.002   2.178 -0.3906  0.4434  0.0785
 1076PF6-    F515018   0.258   0.138   1.977  0.4979 -0.2021  0.6389
 1076PF6-    F615019   0.054   0.034   1.953  0.1820  0.1348  0.5888
 1076PF6-    F715020   0.255   0.100   2.200 -0.0780  0.2230  0.1257
 1077PF6-    P115021   3.737   0.316   1.345  0.1362 -0.1189  0.2447
 1077PF6-    F215022   3.656   0.285   1.209  0.4607  0.0746 -0.3150
 1077PF6-    F315023   3.819   0.361   1.469  0.4336  0.1883 -0.0210
 1077PF6-    F415024   3.833   0.403   1.258  0.1028 -0.8440  0.3265
 1077PF6-    F515025   3.633   0.229   1.430  0.0875 -0.2582 -0.1195
 1077PF6-    F615026   3.837   0.192   1.321 -0.1107 -0.4636 -0.0301
 1077PF6-    F715027   3.647   0.438   1.368  0.4251 -0.2257  0.0557
 1078PF6-    P115028   4.279   0.643   1.073  0.1452 -0.1105  0.0229
 1078PF6-    F215029   4.273   0.636   1.235  0.0218  0.1091 -0.0449
 1078PF6-    F315030   4.280   0.645   0.914 -0.1432 -0.1500  0.0591
 1078PF6-    F415031   4.285   0.803   1.088  0.5332  0.3718  0.1447
 1078PF6-    F515032   4.276   0.483   1.071 -0.2087 -0.1020 -0.3785
 1078PF6-    F615033   4.114   0.646   1.078  0.0642 -0.1152  0.2470
 1078PF6-    F715034   4.439   0.640   1.077  0.0570 -0.4471 -0.2936
 1079PF6-    P115035   4.197   1.744   0.977 -0.5015  0.0150  0.0616
 1079PF6-    F215036   4.087   1.636   1.024 -0.4402 -0.1816 -0.2620
 1079PF6-    F315037   4.306   1.851   0.936  0.1923  0.1181 -0.0933
 1079PF6-    F415038   4.243   1.762   1.130  0.3150 -0.2158 -0.3268
 1079PF6-    F515039   4.144   1.730   0.824  0.3005 -0.2707  0.1635
 1079PF6-    F615040   4.089   1.868   1.002 -0.2023  0.0218 -1.2266
 1079PF6-    F715041   4.298   1.621   0.965  0.0497 -0.1760  0.1512
 1080PF6-    P115042   1.701   4.053   4.523 -0.1842  0.0551  0.2350
 1080PF6-    F215043   1.715   3.905   4.458 -0.0262  0.0235  0.2038
 1080PF6-    F315044   1.675   4.195   4.590 -0.6607  0.3561 -0.0069
 1080PF6-    F415045   1.542   4.037   4.525 -0.1919 -0.2571  0.1009
 1080PF6-    F515046   1.862   4.071   4.528  0.2463 -0.0373 -0.3333
 1080PF6-    F615047   1.693   4.119   4.379  0.3527  0.0572  0.0196
 1080PF6-    F715048   1.697   3.986   4.669  0.1913  0.6747 -0.0140
 1081PF6-    P115049   3.094   3.250   1.069  0.0070 -0.1575  0.4277
 1081PF6-    F215050   3.184   3.135   1.136  0.0191  0.4279  0.2039
 1081PF6-    F315051   2.999   3.363   0.994 -0.1290  0.0985 -0.1841
 1081PF6-    F415052   3.011   3.138   0.997  0.5426  0.0097 -0.1169
 1081PF6-    F515053   3.177   3.368   1.142 -0.2498  0.5659  0.5092
 1081PF6-    F615054   3.193   3.259   0.945  0.0209 -0.2717 -0.5584
 1081PF6-    F715055   2.992   3.242   1.193 -0.4860  0.1836 -0.8157
 1082PF6-    P115056   2.836   3.175   2.168  0.3271 -0.6447 -0.0028
 1082PF6-    F215057   2.899   3.047   2.245  0.5326  0.4266  0.2085
 1082PF6-    F315058   2.767   3.299   2.089  0.1576  0.1740 -0.0753
 1082PF6-    F415059   2.689   3.113   2.185 -0.6180  0.0616 -0.6762
 1082PF6-    F515060   2.978   3.239   2.150 -0.0959 -0.5674  0.1862
 1082PF6-    F615061   2.859   3.091   2.032 -0.0288  0.6942  0.6120
 1082PF6-    F715062   2.830   3.256   2.307 -0.2655  0.3451  0.0029
 1083PF6-    P115063   2.306   2.815   0.428  0.2695  0.2945  0.1657
 1083PF6-    F215064   2.427   2.795   0.530  0.1332  0.2680 -0.4893
 1083PF6-    F315065   2.179   2.838   0.331 -0.0409  0.4330 -0.1130
 1083PF6-    F415066   2.407   2.825   0.306 -0.2819  0.2003 -0.2891
 1083PF6-    F515067   2.205   2.809   0.550  0.3246  0.4008 -0.5075
 1083PF6-    F615068   2.315   2.974   0.451 -0.5560  0.8318  0.2073
 1083PF6-    F715069   2.284   2.654   0.413 -0.3081  0.6835 -0.0756
 1084PF6-    P115070   4.391   3.872   4.519  0.2672  0.0342  0.7296
 1084PF6-    F215071   4.331   3.849   4.667 -0.0879  0.2429 -0.1203
 1084PF6-    F315072   4.451   3.894   4.370  0.6205  0.0868  0.4400
 1084PF6-    F415073   4.406   4.029   4.547  0.8474 -0.3645 -0.0610
 1084PF6-    F515074   4.384   3.709   4.497  0.4082  0.0250 -0.0027
 1084PF6-    F615075   4.244   3.892   4.458  0.4942  0.0059  0.6387
 1084PF6-    F715076   4.537   3.847   4.573 -0.4517  0.1890  0.0379
 1085PF6-    P115077   2.533   0.877   3.635  0.3991  0.1661  0.2925
 1085PF6-    F215078   2.465   0.741   3.594 -0.1028  0.3014  0.0697
 1085PF6-    F315079   2.601   1.014   3.678 -0.3154 -0.1876  0.1433
 1085PF6-    F415080   2.406   0.961   3.581 -0.8668  0.8092  0.1342
 1085PF6-    F515081   2.656   0.796   3.690  0.2023  0.2770 -0.4542
 1085PF6-    F615082   2.598   0.880   3.491  0.2209  0.0980  0.0125
 1085PF6-    F715083   2.464   0.865   3.775 -0.2797  0.2103 -0.2352
 1086PF6-    P115084   1.439   3.272   0.261  0.3857  0.1173  0.0114
 1086PF6-    F215085   1.352   3.145   0.220 -0.0206  0.2186 -0.0229
 1086PF6-    F315086   1.535   3.392   0.305  0.4391 -0.0965 -0.2507
 1086PF6-    F415087   1.561   3.168   0.287 -0.4073 -0.0650  0.0707
 1086PF6-    F515088   1.325   3.377   0.229 -0.4035 -0.1738  0.4376
 1086PF6-    F615089   1.384   3.264   0.411  0.1542  0.1259 -0.2378
 1086PF6-    F715090   1.487   3.293   0.110  0.1339 -0.0437  0.0067
 1087PF6-    P115091   1.678   0.087   2.526 -0.7343  0.1120 -0.0769
 1087PF6-    F215092   1.623   0.194   2.422  0.2680 -0.0298 -0.1382
 1087PF6-    F315093   1.730  -0.020   2.635  0.4848 -0.1863  0.4206
 1087PF6-    F415094   1.571   0.139   2.637  0.3945 -0.2066 -0.4327
 1087PF6-    F515095   1.780   0.036   2.418 -0.1729  0.2102 -0.4387
 1087PF6-    F615096   1.787   0.191   2.576  0.1464  0.2146 -0.3974
 1087PF6-    F715097   1.568  -0.017   2.472 -0.0876  0.0393 -0.2155
 1088PF6-    P115098   0.759   3.821   2.529 -0.6244  0.2669 -0.4432
 1088PF6-    F215099   0.909   3.846   2.576  0.1356  0.1408  0.1373
 1088PF6-    F315100   0.602   3.797   2.494  0.2035  0.2605 -0.0939
 1088PF6-    F415101   0.731   3.769   2.678  0.3947 -0.4042 -0.0912
 1088PF6-    F515102   0.798   3.855   2.378 -0.0670 -0.2498 -0.5107
 1088PF6-    F615103   0.795   3.667   2.497 -0.1292 -0.1253 -0.0307
 1088PF6-    F715104   0.724   3.971   2.569 -0.3034 -0.1111  0.1787
 1089PF6-    P115105   4.974   3.782   3.296 -0.0879  0.0794  0.1897
 1089PF6-    F215106   4.907   3.788   3.440  0.1363  0.1424 -0.2851
 1089PF6-    F315107   5.047   3.772   3.155  0.0411 -0.8076  0.3954
 1089PF6-    F415108   5.081   3.893   3.335 -0.2034  0.4276 -0.2558
 1089PF6-    F515109   4.862   3.672   3.248  0.5473  0.0443  0.7468
 1089PF6-    F615110   4.877   3.900   3.237 -0.7656  0.4960  0.2332
 1089PF6-    F715111   5.065   3.669   3.359 -0.3526 -0.1220  0.0214
 1090PF6-    P115112   4.743   4.239   2.649  0.1011 -0.5885 -0.4099
 1090PF6-    F215113   4.680   4.104   2.595  0.4631  0.4178  0.1594
 1090PF6-    F315114   4.808   4.381   2.694 -0.0723 -0.3759 -0.2618
 1090PF6-    F415115   4.849   4.165   2.739 -0.0582 -0.6462  0.0163
 1090PF6-    F515116   4.627   4.320   2.574  0.6545 -0.0878  0.2677
 1090PF6-    F615117   4.644   4.238   2.774 -0.2595  0.2578 -0.0746
 1090PF6-    F715118   4.841   4.237   2.521  0.0069  0.4160  0.0221
 1091PF6-    P115119   1.166   0.607   1.975 -0.4818  0.6686  0.1608
 1091PF6-    F215120   1.283   0.664   2.061 -0.1267  0.0694 -0.3020
 1091PF6-    F315121   1.047   0.548   1.875 -0.4039  0.0025 -0.2051
 1091PF6-    F415122   1.112   0.753   1.951  0.1925 -0.6727 -0.1320
 1091PF6-    F515123   1.234   0.464   1.998  0.3993 -0.0073  0.2301
 1091PF6-    F615124   1.069   0.587   2.103 -0.3796  0.8203  0.3287
 1091PF6-    F715125   1.256   0.620   1.843  0.0485 -0.2446  0.0490
 1092PF6-    P115126   3.866   4.608   0.070  0.3888  0.5096  0.1950
 1092PF6-    F215127   3.940   4.573  -0.068  0.1940  0.3578  0.2602
 1092PF6-    F315128   3.791   4.642   0.213 -0.2233  0.6499 -0.0350
 1092PF6-    F415129   3.857   4.760   0.027  0.4345  0.1568  0.2094
 1092PF6-    F515130   3.875   4.451   0.110 -0.5087  0.0013 -0.3458
 1092PF6-    F615131   4.008   4.633   0.140 -0.4782  0.3908 -0.2045
 1092PF6-    F715132   3.728   4.579  -0.000  0.1962 -0.2454 -0.4976
 1093PF6-    P115133   3.617   5.105   3.728 -0.1492 -0.0008 -0.1100
 1093PF6-    F215134   3.689   5.135   3.868  0.1012 -0.3833  0.1777
 1093PF6-    F315135   3.541   5.065   3.590  0.2178  0.4159 -0.6096
 1093PF6-    F415136   3.564   5.252   3.725  0.7756 -0.4083  0.0441
 1093PF6-    F515137   3.678   4.958   3.730  0.3093 -0.0117 -0.4151
 1093PF6-    F615138   3.489   5.061   3.808  0.0776 -0.7190 -0.0030
 1093PF6-    F715139   3.755   5.153   3.647 -0.0937  0.6319 -0.3279
 1094PF6-    P115140   0.932   0.283   1.608 -0.3126  0.1735  0.3134
 1094PF6-    F215141   0.914   0.432   1.670  0.8857  0.1982  0.2534
 1094PF6-    F315142   0.944   0.134   1.559 -0.7594 -0.1647  0.0276
 1094PF6-    F415143   0.824   0.236   1.710 -0.0824  0.3264  0.3488
 1094PF6-    F515144   1.043   0.342   1.501  0.1890  0.3204  0.6918
 1094PF6-    F615145   1.050   0.255   1.713  0.2266  0.1663 -0.2581
 1094PF6-    F715146   0.817   0.303   1.505 -0.2400  0.0640  0.5438
 1095PF6-    P115147   4.829   3.619   1.136  0.0618 -0.1934  0.3633
 1095PF6-    F215148   4.712   3.632   1.022 -0.1027 -0.5953  0.3459
 1095PF6-    F315149   4.939   3.600   1.246 -0.6495  0.1398 -0.2124
 1095PF6-    F415150   4.712   3.604   1.245  0.0076 -0.0419  0.1543
 1095PF6-    F515151   4.943   3.637   1.027 -0.0214 -0.0034 -0.7350
 1095PF6-    F615152   4.822   3.771   1.162  0.3975 -0.4720 -0.2513
 1095PF6-    F715153   4.823   3.465   1.115 -0.2412 -0.1118  0.6179
 1096PF6-    P115154   3.666   3.459   5.006 -0.4767 -0.4276  0.1578
 1096PF6-    F215155   3.668   3.616   5.038 -0.5078  0.3442 -0.0535
 1096PF6-    F315156   3.665   3.302   4.974  0.0358  0.2066  0.1033
 1096PF6-    F415157   3.533   3.452   5.088  0.2633  0.0704  0.2468
 1096PF6-    F515158   3.799   3.472   4.916 -0.3863 -0.0067 -0.4289
 1096PF6-    F615159   3.748   3.432   5.139  0.0567  0.2590 -0.1333
 1096PF6-    F715160   3.587   3.493   4.873  0.2431  0.3845  0.1373
 1097PF6-    P115161   2.562   3.169   3.900  0.2443  0.0390 -0.0841
 1097PF6-    F215162   2.569   3.022   3.842  0.0500 -0.1241  0.0127
 1097PF6-    F315163   2.552   3.324   3.950  1.0450  0.0119  0.6150
 1097PF6-    F415164   2.647   3.128   4.025  0.2520 -0.3231 -0.1186
 1097PF6-    F515165   2.478   3.205   3.770 -0.2261  0.1548 -0.2500
 1097PF6-    F615166   2.424   3.129   3.977 -0.0910 -0.3084 -0.3407
 1097PF6-    F715167   2.692   3.211   3.824  0.0895 -0.0590 -0.0969
 1098PF6-    P115168   0.222   4.846   1.030 -0.3623 -0.1488 -0.0789
 1098PF6-    F215169   0.357   4.887   1.109  0.0778  0.1504  0.7303
 1098PF6-    F315170   0.097   4.798   0.951  0.4883 -0.5034 -0.6811
 1098PF6-    F415171   0.135   4.952   1.107 -0.6964  0.7229  0.8449
 1098PF6-    F515172   0.313   4.735   0.955  0.3088  0.3709 -0.1481
 1098PF6-    F615173   0.182   4.745   1.148 -0.7068 -0.7547 -0.2339
 1098PF6-    F715174   0.257   4.956   0.916  0.5993  0.4664 -0.0688
 1099PF6-    P115175   4.366   2.933   5.352  0.4044  0.0975 -0.1412
 1099PF6-    F215176   4.342   3.005   5.495  0.3205  0.4575  0.1483
 1099PF6-    F315177   4.385   2.850   5.217  0.2033 -0.1216 -0.0476
 1099PF6-    F415178   4.241   2.844   5.386  0.2093 -0.0144  0.0136
 1099PF6-    F515179   4.493   3.025   5.323  0.0848 -0.0991  0.0021
 1099PF6-    F615180   4.449   2.826   5.430  0.0088  0.3176  0.2151
 1099PF6-    F715181   4.274   3.042   5.279  0.2827 -0.3231  0.0274
 1100PF6-    P115182   4.230   1.236   1.851 -0.0283  0.3227  0.0305
 1100PF6-    F215183   4.165   1.312   1.975  0.0763  0.2941 -0.6209
 1100PF6-    F315184   4.283   1.160   1.722  0.5466 -0.0884  0.5609
 1100PF6-    F415185   4.283   1.113   1.930 -0.3992  0.3020  0.5529
 1100PF6-    F515186   4.182   1.356   1.763  0.4847 -0.4248  0.3313
 1100PF6-    F615187   4.369   1.312   1.869  0.3410 -0.0177 -0.2904
 1100PF6-    F715188   4.090   1.164   1.822 -0.5496 -0.1911 -0.2525
 1101PF6-    P115189   2.988   1.859   1.087  0.3599 -0.2624 -0.3731
 1101PF6-    F215190   2.883   1.981   1.083  0.0600 -0.2231 -0.4510
 1101PF6-    F315191   3.095   1.737   1.094  0.4756 -0.6946 -0.3758
 1101PF6-    F415192   2.878   1.760   1.033  0.6227  0.3107  1.1824
 1101PF6-    F515193   3.101   1.960   1.147  0.0542 -0.2139  0.2597
 1101PF6-    F615194   2.935   1.816   1.236  0.3211 -0.1325 -0.0603
 1101PF6-    F715195   3.036   1.886   0.936 -0.1700  0.5451 -0.3132
 1102PF6-    P115196   4.177   4.799   2.963  0.0971 -0.1061  0.1623
 1102PF6-    F215197   4.318   4.869   2.995  0.3893  0.1393  0.2384
 1102PF6-    F315198   4.037   4.736   2.919  0.8667 -0.0678 -0.4462
 1102PF6-    F415199   4.255   4.670   2.910 -0.1085  0.1319 -0.0776
 1102PF6-    F515200   4.098   4.925   3.027 -0.4039 -0.4339  0.1691
 1102PF6-    F615201   4.178   4.859   2.815  0.1898 -0.4249 -0.3361
 1102PF6-    F715202   4.165   4.727   3.107  0.2042 -0.1368 -0.0991
 1103PF6-    P115203   3.377   2.956   4.624 -0.3277 -0.2979  0.0978
 1103PF6-    F215204   3.495   2.949   4.513 -0.4522 -0.0040 -0.1308
 1103PF6-    F315205   3.259   2.957   4.729  0.3329  0.1052  0.1064
 1103PF6-    F415206   3.299   3.058   4.531  0.1319  0.0425  0.2075
 1103PF6-    F515207   3.457   2.859   4.727 -0.0753  0.0619  0.3196
 1103PF6-    F615208   3.452   3.077   4.695  0.0145  0.1174  0.4075
 1103PF6-    F715209   3.311   2.827   4.556 -0.2454  0.2319  0.1173
 1104PF6-    P115210   3.928   3.845   2.652 -0.1129  0.3686 -0.5563
 1104PF6-    F215211   3.906   3.695   2.709  0.2244 -0.1139  0.3592
 1104PF6-    F315212   3.949   3.992   2.597  0.3935 -0.0629  0.3108
 1104PF6-    F415213   3.776   3.875   2.689  0.1949  0.0454 -0.4392
 1104PF6-    F515214   4.078   3.806   2.609  0.2413 -0.1384 -0.0528
 1104PF6-    F615215   3.870   3.796   2.508  0.0637 -0.4496 -0.2710
 1104PF6-    F715216   3.983   3.889   2.789 -0.0631  0.1417 -0.5660
 1105PF6-    P115217   1.804   1.593   2.223 -0.0101 -0.1895 -0.1216
 1105PF6-    F215218   1.774   1.701   2.336 -0.2492 -0.2346  0.2008
 1105PF6-    F315219   1.833   1.482   2.112 -0.4225 -0.1718  0.0568
 1105PF6-    F415220   1.961   1.607   2.254  0.3456  0.8854 -0.1788
 1105PF6-    F515221   1.650   1.580   2.207  0.4923 -0.0509 -0.1271
 1105PF6-    F615222   1.813   1.714   2.111 -0.0690  0.3219  0.3001
 1105PF6-    F715223   1.796   1.480   2.337 -0.2519  0.2539  0.5173
 1106PF6-    P115224   5.306   4.602   4.782  0.3028  0.0510 -0.1285
 1106PF6-    F215225   5.299   4.459   4.719 -0.2354 -0.1615 -0.1614
 1106PF6-    F315226   5.314   4.746   4.845 -0.4263  0.4957 -0.0055
 1106PF6-    F415227   5.239   4.553   4.922 -0.0712 -0.5809  0.1177
 1106PF6-    F515228   5.372   4.658   4.649  0.4072 -0.5774  0.2447
 1106PF6-    F615229   5.160   4.634   4.726  0.8757  0.1605  0.1906
 1106PF6-    F715230   5.451   4.563   4.841  0.0748  0.2186 -0.1966
 1107PF6-    P115231   1.762   2.334   4.880 -0.5736  0.0786 -0.4028
 1107PF6-    F215232   1.761   2.196   4.800  0.1453 -0.2286 -0.0008
 1107PF6-    F315233   1.751   2.473   4.949  0.2414  0.1894  0.1162
 1107PF6-    F415234   1.731   2.397   4.735 -0.3913 -0.0232 -0.0957
 1107PF6-    F515235   1.793   2.267   5.020 -0.1698 -0.3233  0.1459
 1107PF6-    F615236   1.914   2.356   4.856 -0.1318 -0.0506  0.3239
 1107PF6-    F715237   1.600   2.326   4.904 -0.4993  0.0198 -0.3816
 1108PF6-    P115238   2.118   0.830   1.346 -0.0835  0.0200 -0.0518
 1108PF6-    F215239   2.062   0.803   1.193  0.5541 -0.3814 -0.9383
 1108PF6-    F315240   2.174   0.863   1.495  0.0127 -0.7036  0.6667
 1108PF6-    F415241   2.047   0.700   1.409 -0.1719 -0.1013  0.1804
 1108PF6-    F515242   2.184   0.965   1.284 -0.0469  0.0185  0.0950
 1108PF6-    F615243   1.987   0.920   1.376 -0.5425 -0.0126 -0.1634
 1108PF6-    F715244   2.243   0.735   1.314 -0.1551 -0.0834  0.0925
 1109Na+     N115245   4.668   1.077   2.338 -0.2385 -0.3550 -0.0571
 1110Na+     N115246   3.011   2.797   1.642  0.1119 -0.3326 -0.0311
 1111Na+     N115247   4.456   0.048   3.278 -0.0343 -0.4425 -0.1188
 1112Na+     N115248   2.459   2.838   2.893  0.1174  0.2041  0.3800
 1113Na+     N115249   4.117   0.111   2.120  0.0770 -0.0860  0.1753
 1114Na+     N115250   5.412   1.776   0.668 -0.0493 -0.0655 -0.6697
 1115Na+     N115251   2.632   1.240   1.119 -0.3552  0.1787  0.4473
 1116Na+     N115252   4.781   0.551   4.365 -0.1417 -0.5743 -0.0199
 1117Na+     N115253   0.230   5.428   5.275 -0.2293  0.1896 -0.6744
 1118Na+     N115254   3.766   1.272   0.006  0.2674  0.0219 -0.4479
 1119Na+     N115255   1.713   0.223   1.759 -0.2238  0.3360 -0.0967
 1120Na+     N115256   2.850   0.541   1.445  0.0426 -0.0262  0.1073
 1121Na+     N115257   4.834   4.557   3.243  0.2066  0.3073  0.0072
 1122Na+     N115258   4.124   1.645   2.973 -0.1306 -0.2363  0.3598
 1123Na+     N115259   4.509   1.131   0.557 -0.3457 -0.5601 -0.3931
 1124Na+     N115260   1.742   1.286   2.476 -0.4555 -0.0404  0.0349
 1125Na+     N115261   1.524   2.939   0.477 -0.3858 -0.0641  0.0320
 1126Na+     N115262   2.469   4.094   2.957  0.3165 -0.0220  0.3213
 1127Na+     N115263   5.009   2.617   4.399 -0.1326  0.1076  0.1357
 1128Na+     N115264   5.286   0.824   5.307  0.1132  0.0546  0.0087
 1129Na+     N115265   2.362   1.245   2.999 -0.1056  0.6339  0.0666
 1130Na+     N115266   0.458   5.194   1.664 -0.6264 -0.2168 -0.2704
 1131Na+     N115267   0.365   4.469   0.854  0.2533 -0.0919  0.4163
 1132Na+     N115268   3.914   4.962   3.679 -0.0490  0.3912 -0.3291
 1133Na+     N115269   4.248   3.933   1.268 -0.0483 -0.0817  0.1074
 1134Na+     N115270   0.772   2.825   1.700 -0.1818 -0.1165  0.1148
 1135Na+     N115271   0.040   2.496   1.234  0.4043  0.4468 -0.2068
 1136Na+     N115272   3.516   1.068   4.160  0.1600  0.1291  0.3246
 1137Na+     N115273   5.478   3.740   0.522  0.5083  0.4739  0.1732
 1138Na+     N115274   2.387   3.661   1.613  0.3264 -0.5443  0.0910
 1139Na+     N115275   5.177   2.814   0.288  0.3279  0.0285  0.6015
 1140Na+     N115276   4.601   3.549   4.516 -0.3068  0.6168  0.1140
 1141Na+     N115277   2.198   0.163   0.882  0.1579  0.2047  0.4768
 1142Na+     N115278   1.358   0.314   2.657  0.2329  0.3827  0.1616
 1143Na+     N115279   3.364   1.873   4.329 -0.5615 -0.3540  0.0696
 1144Na+     N115280   3.685   2.182   0.859 -0.0828 -0.0426  0.6253
 1145Na+     N115281   4.505   2.546   5.016 -0.2398 -0.2044  0.1260
 1146Na+     N115282   1.749   2.299   5.260 -0.8292 -0.1820 -0.0585
 1147Na+     N115283   0.248   3.986   2.966  0.5485  0.3984 -0.0741
 1148Na+     N115284   2.860   2.235   5.177  0.2230 -0.3327  0.2098
 1149Na+     N115285   4.719   3.697   2.638  0.2376  0.1117 -0.3534
 1150Na+     N115286   2.843   1.976   1.401 -0.7680 -0.5983 -0.1082
 1151Na+     N115287   2.495   5.021   3.147 -0.2367  0.2071 -0.1136
 1152Na+     N115288   3.752   3.679   4.738  0.1058  0.2387 -0.0884
 1153Na+     N115289   0.322   0.458   1.971 -0.3724  0.0611 -0.7278
 1154Na+     N115290   4.559   3.545   0.427 -0.1145  0.1290 -0.0168
 1155Na+     N115291   4.287   0.786   2.783 -0.1042  0.6793  0.0689
 1156Na+     N115292   1.137   5.339   3.834 -0.1674 -0.7484  0.0529
 1157Na+     N115293   2.243   2.757   2.045  0.1679  0.4891 -0.2149
 1158Na+     N115294   4.808   4.956   1.609  0.3451 -0.3029 -0.2736
 1159Na+     N115295   5.105   5.489   0.343  0.0578  0.0109  0.0404
 1160Na+     N115296   3.631   4.307   3.033  0.5163  0.0002 -0.5334
 1161Na+     N115297   4.523   5.295   0.965  0.3285 -0.6934  0.3417
 1162Na+     N115298   1.006   3.770   2.810 -0.3425 -0.1677 -0.1489
 1163Na+     N115299   5.312   0.549   1.136  0.0204 -0.1070 -0.1461
 1164Na+     N115300   1.040   0.658   1.652  0.0924 -0.3443 -0.2296
 1165Na+     N115301   3.306   2.669   2.525 -0.1291 -0.2295  0.1347
 1166Na+     N115302   4.202   1.322   4.264  0.2071  0.0516 -0.2242
 1167Na+     N115303   1.737   1.355   1.001  0.2642  0.1785  0.0790
 1168Na+     N115304   3.784   2.087   3.842 -0.0339  0.2429 -0.1262
 1169Na+     N115305   1.499   1.903   3.315  0.0009  0.0639 -0.5119
 1170Na+     N115306   4.423   4.388   2.442  0.2293 -0.0473  0.3450
 1171Na+     N115307   1.522   4.307   2.920  0.1106  0.0208 -0.6455
 1172Na+     N115308   3.420   1.321   2.482  0.0380  0.2931 -0.0461
 1173Na+     N115309   4.857   0.137   1.960  0.0427 -0.1108  0.2348
 1174Na+     N115310   0.847   0.719   4.717 -0.1139 -0.3247 -0.0733
 1175Na+     N115311   3.788   3.153   5.127  0.2210 -0.2205 -0.2412
 1176Na+     N115312   5.445   4.891   4.602 -0.1672  0.1785  0.2217
 1177Na+     N115313   4.813   4.641   0.357  0.3667  0.5725 -0.0301
 1178Na+     N115314   3.326   3.364   1.715  0.4627 -0.0617 -0.4106
 1179Na+     N115315   4.762   1.838   1.337 -0.0619  0.1351 -0.1491
 1180Na+     N115316   2.341   3.461   4.529 -0.0421  0.1887 -0.0866
 1181Na+     N115317   2.334   4.262   2.062 -0.3142 -0.4339 -0.4076
 1182Na+     N115318   5.032   5.291   4.861 -0.1970  0.0596 -0.0395
 1183Na+     N115319   1.557   2.862   2.823 -0.0293  0.2821 -0.3229
 1184Na+     N115320   3.608   3.967   0.378  0.0948  0.1570 -0.0203
 1185Na+     N115321   0.053   0.254   4.129 -0.2271 -0.5984 -0.0339
 1186Na+     N115322   2.281   5.027   1.785  0.4136 -0.5521 -0.2275
 1187Na+     N115323   4.208   3.764   3.380 -0.0932 -0.7814 -0.1493
 1188Na+     N115324   2.668   1.804   3.874 -0.3264 -0.2178 -0.2689
 1189Na+     N115325   4.357   1.179   1.494 -0.5083  0.6960  0.5372
 1190Na+     N115326   4.095   4.736   1.391  0.1039  0.0799  0.5157
 1191Na+     N115327   0.511   3.667   4.170  0.0730 -0.1715 -0.0476
 1192Na+     N115328   1.798   4.562   5.439 -0.1890 -0.8900  0.1600
 1193Na+     N115329   5.212   1.272   4.277 -0.1154 -0.5162 -0.6718
 1194Na+     N115330   4.747   1.175   3.347 -0.4348 -0.1988  0.2565
 1195Na+     N115331   5.231   3.376   5.241 -0.0752  0.2946 -0.0840
 1196Na+     N115332   5.439   2.011   3.168  0.3893  0.3467 -0.3808
 1197Na+     N115333   1.646   2.164   4.593 -0.6031  0.5367  0.1634
 1198Na+     N115334   3.941   5.021   2.236  0.1456 -0.0453  0.3763
 1199Na+     N115335   2.730   4.673   5.276 -0.6762 -0.0477 -0.1185
 1200Na+     N115336   2.154   2.446   0.547 -0.0708  0.2072 -0.0760
 1201Na+     N115337   0.225   1.697   1.849 -0.3666  0.0860  0.0427
 1202Na+     N115338   1.352   4.303   1.269  0.1091  0.0660  0.4229
 1203Na+     N115339   1.574   3.972   4.197 -0.2211  0.4777  0.2620
 1204Na+     N115340   3.683   3.278   4.032  0.0890  0.0523  0.3016
 1205Na+     N115341   2.273   4.717   3.852 -0.1811 -0.2699 -0.3150
 1206Na+     N115342   3.941   0.557   1.412 -0.5410 -0.3719  0.6892
 1207Na+     N115343   1.710   1.912   1.803 -0.2984  0.4972  0.1114
 1208Na+     N115344   3.883   4.843   0.440 -0.0044  0.2218 -0.3150
   5.50250   5.50250   5.50250
