DG-PF6-Na           Amber RESP
15750
    1DG      C1    1   1.961   1.605   1.986 -0.5884  0.2851  0.1238
    1DG      C2    2   1.671   1.363   2.521 -0.4221 -0.1800  0.1965
    1DG      H3    3   2.025   1.662   2.053  0.0065  1.4654 -1.3749
    1DG      H4    4   1.950   1.669   1.898  0.7787  2.1601  1.2387
    1DG      H5    5   2.027   1.525   1.951 -1.9273  0.1976 -2.4856
    1DG      H6    6   1.611   1.298   2.585  0.3366  0.7903  1.9420
    1DG      H7    7   1.751   1.407   2.579  1.8011 -2.4851 -0.8909
    1DG      H8    8   1.605   1.442   2.485 -2.4652 -0.9205  2.1194
    1DG      O9    9   1.840   1.572   2.054  0.1821 -0.1225  0.0542
    1DG     O10   10   1.751   1.294   2.434 -0.6947  0.6610 -0.3062
    1DG     C11   11   1.743   1.496   1.978 -0.6374  1.0595  0.5050
    1DG     C12   12   1.685   1.204   2.352  0.3640 -0.2682  0.5992
    1DG     H13   13   1.795   1.417   1.923 -1.7224  1.6679 -1.5123
    1DG     H14   14   1.695   1.550   1.897 -1.2991 -0.3231 -0.0681
    1DG     H15   15   1.617   1.140   2.408 -0.1041  0.0344  0.3757
    1DG     H16   16   1.752   1.133   2.303 -1.4537 -1.2521 -0.5534
    1DG     C17   17   1.641   1.432   2.071  0.8555  0.9151 -0.0449
    1DG     C18   18   1.617   1.281   2.242  0.4634  0.1005  0.3782
    1DG     O19   19   1.711   1.360   2.167  0.4101  0.1581 -0.5747
    1DG     H20   20   1.563   1.376   2.020 -0.5215 -0.3663  3.1742
    1DG     H21   21   1.590   1.518   2.115 -0.5091  0.5677 -0.8872
    1DG     H22   22   1.558   1.210   2.184 -0.3783  2.0906 -1.3424
    1DG     H23   23   1.543   1.339   2.297 -0.6866  1.0716 -2.0372
    2DG      C1   24   2.297   2.570   4.262  0.2102  0.2111 -0.7639
    2DG      C2   25   2.794   3.263   4.101 -0.8510 -0.1407  0.1466
    2DG      H3   26   2.190   2.587   4.268  0.2538  0.0488  0.8635
    2DG      H4   27   2.327   2.516   4.352 -1.3419  0.0221 -0.3251
    2DG      H5   28   2.339   2.527   4.171  0.0261  1.7013 -1.5788
    2DG      H6   29   2.850   3.177   4.065  0.6149  0.5472  0.7125
    2DG      H7   30   2.807   3.343   4.029 -0.3137 -3.1230 -3.3656
    2DG      H8   31   2.844   3.311   4.185 -1.0102  1.4715 -0.6556
    2DG      O9   32   2.352   2.699   4.273  0.5037  0.2431  0.3881
    2DG     O10   33   2.659   3.244   4.133  0.0809 -0.1851  0.2895
    2DG     C11   34   2.491   2.697   4.316 -0.5102 -0.5629 -0.2505
    2DG     C12   35   2.613   3.115   4.108  0.7607 -0.6732 -1.1198
    2DG     H13   36   2.547   2.653   4.234  1.9536  1.3262  0.3132
    2DG     H14   37   2.512   2.634   4.402 -1.5724  0.9586  1.2032
    2DG     H15   38   2.653   3.078   4.013  1.0903 -0.3272 -1.1189
    2DG     H16   39   2.505   3.127   4.104  0.6261 -0.6597  1.1848
    2DG     C17   40   2.555   2.835   4.334 -0.0013  0.8666 -0.2168
    2DG     C18   41   2.640   3.027   4.230 -0.7259 -0.9176 -0.6115
    2DG     O19   42   2.563   2.913   4.215  0.8441  0.3443 -0.1220
    2DG     H20   43   2.660   2.822   4.362 -0.8191 -1.5023  2.1877
    2DG     H21   44   2.511   2.882   4.422  0.3505 -0.0719  0.4814
    2DG     H22   45   2.744   2.996   4.240 -0.7797 -0.5608  1.6971
    2DG     H23   46   2.609   3.077   4.322  0.1148  0.7183 -1.1807
    3DG      C1   47   1.585   0.307   3.484 -0.1631  0.7237 -0.2284
    3DG      C2   48   1.266  -0.218   3.062 -0.1510 -0.2182 -0.4116
    3DG      H3   49   1.478   0.295   3.465 -0.6678  1.1950  2.0717
    3DG      H4   50   1.593   0.405   3.437  0.2513  0.5558 -0.5161
    3DG      H5   51   1.613   0.311   3.589  1.2592  0.8436 -0.5916
    3DG      H6   52   1.248  -0.294   3.138  0.3054 -0.1368 -0.2133
    3DG      H7   53   1.179  -0.214   2.997 -0.3519  1.0413 -0.1083
    3DG      H8   54   1.351  -0.259   3.008  1.0107  1.7439 -0.1956
    3DG      O9   55   1.677   0.221   3.419 -0.0225 -1.3592  0.2921
    3DG     O10   56   1.296  -0.106   3.144 -0.0365  0.2612  0.6873
    3DG     C11   57   1.642   0.189   3.290 -0.7289  0.1299 -0.4789
    3DG     C12   58   1.344   0.004   3.074  0.7188 -0.4763  0.2400
    3DG     H13   59   1.732   0.168   3.233 -1.8735 -2.6143 -1.4752
    3DG     H14   60   1.600   0.271   3.231 -1.9356  1.3107  1.8824
    3DG     H15   61   1.264   0.027   3.003  0.1702 -0.2040  0.9332
    3DG     H16   62   1.433  -0.016   3.014 -0.7077 -0.2830 -2.0644
    3DG     C17   63   1.560   0.061   3.276  0.3376  0.5924 -0.2191
    3DG     C18   64   1.346   0.123   3.180  1.2778 -1.2186  0.4869
    3DG     O19   65   1.419   0.088   3.293 -0.5556 -0.0275  0.0954
    3DG     H20   66   1.602  -0.018   3.338 -2.1271  0.4369  1.4250
    3DG     H21   67   1.582   0.020   3.178  0.4113  1.2526 -0.4848
    3DG     H22   68   1.368   0.219   3.135 -0.4014 -0.8072  0.5018
    3DG     H23   69   1.246   0.140   3.219  2.1498 -0.4615  2.5289
    4DG      C1   70   2.266   2.705   0.057  0.0561  0.2012  0.0099
    4DG      C2   71   2.780   2.675   0.485 -0.5622  0.0081  0.2379
    4DG      H3   72   2.279   2.809   0.086 -1.9106  0.3255  0.5635
    4DG      H4   73   2.166   2.678   0.091  0.1801 -1.1272 -0.6380
    4DG      H5   74   2.281   2.699  -0.051 -0.4836  0.7770 -0.1008
    4DG      H6   75   2.884   2.656   0.510 -0.6689 -2.2716 -0.8379
    4DG      H7   76   2.770   2.784   0.478  2.7157  0.3352 -1.6433
    4DG      H8   77   2.706   2.625   0.548 -1.1169 -0.4047 -0.7163
    4DG      O9   78   2.375   2.629   0.116 -0.0772 -0.1665 -0.0452
    4DG     O10   79   2.756   2.629   0.347 -0.0815  0.6356 -0.1357
    4DG     C11   80   2.364   2.489   0.084  0.4740  0.2978  0.1270
    4DG     C12   81   2.774   2.489   0.332  0.0523 -0.2302 -0.3650
    4DG     H13   82   2.317   2.466  -0.011  0.6233 -2.5114  0.6392
    4DG     H14   83   2.326   2.428   0.167  0.3862  0.1765 -0.0027
    4DG     H15   84   2.715   2.434   0.405 -0.6761  1.0043  0.0098
    4DG     H16   85   2.873   2.449   0.348 -1.0806 -2.7812  0.6759
    4DG     C17   86   2.515   2.454   0.070 -0.2857 -0.3657  0.1375
    4DG     C18   87   2.727   2.452   0.189 -0.3171  0.4968 -0.0840
    4DG     O19   88   2.594   2.485   0.186  0.0299  0.3918 -0.1611
    4DG     H20   89   2.560   2.519  -0.005 -2.6848  2.9055  1.2651
    4DG     H21   90   2.533   2.349   0.050  0.9623 -0.4264  1.4150
    4DG     H22   91   2.792   2.506   0.120  0.0892  1.4403  1.0061
    4DG     H23   92   2.749   2.346   0.175  2.1769  0.7755  1.0457
    5DG      C1   93   2.217   1.289   1.676  0.6941 -0.0648  1.0798
    5DG      C2   94   2.734   1.719   1.547  0.2110 -0.4514 -0.4058
    5DG      H3   95   2.197   1.389   1.638 -2.4336 -1.4744 -1.4079
    5DG      H4   96   2.205   1.295   1.785 -1.9425  0.4242  0.8303
    5DG      H5   97   2.137   1.218   1.656  0.2643  0.4399  0.9750
    5DG      H6   98   2.665   1.752   1.624 -0.4079 -0.7129 -0.8413
    5DG      H7   99   2.832   1.760   1.573 -0.8232  0.6593  2.0241
    5DG      H8  100   2.708   1.757   1.449 -0.0526  3.4449  1.0158
    5DG      O9  101   2.344   1.234   1.643  0.1226  0.0736 -0.7205
    5DG     O10  102   2.738   1.572   1.551  0.5635 -0.4457 -0.0831
    5DG     C11  103   2.447   1.278   1.733  0.1840 -0.1894 -0.1958
    5DG     C12  104   2.815   1.531   1.659  0.0752 -0.5686 -0.8059
    5DG     H13  105   2.461   1.179   1.777 -1.2013 -0.6357 -0.7013
    5DG     H14  106   2.417   1.344   1.815 -0.9882 -1.1777  0.1968
    5DG     H15  107   2.805   1.581   1.756  1.9372  1.0673 -1.3969
    5DG     H16  108   2.920   1.544   1.632  0.6667 -0.4698  1.3499
    5DG     C17  109   2.572   1.326   1.652  0.5717 -0.8650 -0.1996
    5DG     C18  110   2.804   1.379   1.674 -0.1025  0.0363  0.9008
    5DG     O19  111   2.685   1.335   1.735  0.1165 -0.3876 -0.1095
    5DG     H20  112   2.555   1.427   1.616  0.5399 -1.1350 -0.9817
    5DG     H21  113   2.584   1.264   1.563  0.9186 -0.3451 -0.5197
    5DG     H22  114   2.823   1.328   1.579  0.9788 -1.6470  1.9582
    5DG     H23  115   2.889   1.349   1.736  0.5838  0.5636  0.2382
    6DG      C1  116   0.068   2.882   3.103 -0.7598 -0.0763  0.2684
    6DG      C2  117  -0.559   2.543   3.663 -0.2639  0.0000 -0.0637
    6DG      H3  118   0.174   2.894   3.078 -0.0528 -0.9166  2.6109
    6DG      H4  119   0.019   2.971   3.064  1.3150  0.2607 -1.8361
    6DG      H5  120   0.037   2.790   3.055 -0.6921 -0.5882  1.1817
    6DG      H6  121  -0.640   2.595   3.611 -1.0224 -0.8774  0.2215
    6DG      H7  122  -0.606   2.447   3.681 -0.4658  0.1066 -0.0117
    6DG      H8  123  -0.543   2.591   3.759 -0.9320  0.1222 -0.0062
    6DG      O9  124   0.095   2.881   3.241  0.2799 -0.5606 -0.9300
    6DG     O10  125  -0.444   2.524   3.582  0.7137 -0.5260  0.4122
    6DG     C11  126  -0.016   2.879   3.335 -0.3270 -0.5718 -0.3364
    6DG     C12  127  -0.393   2.659   3.551  0.0861  0.1385  0.2856
    6DG     H13  128  -0.080   2.963   3.306 -1.7009 -0.8002  1.8211
    6DG     H14  129   0.014   2.892   3.439 -0.5416  0.0102 -0.3410
    6DG     H15  130  -0.359   2.715   3.637 -1.3411  0.9250  0.3753
    6DG     H16  131  -0.465   2.718   3.493  0.6101  0.0410 -0.4766
    6DG     C17  132  -0.097   2.751   3.342  0.1032  0.3867 -0.0087
    6DG     C18  133  -0.274   2.642   3.460 -0.4579  0.7762  0.9376
    6DG     O19  134  -0.214   2.764   3.427 -0.4790  0.2430  0.0478
    6DG     H20  135  -0.029   2.680   3.389  0.7842  1.0549  0.0485
    6DG     H21  136  -0.131   2.710   3.247  0.2068  0.1539  0.0542
    6DG     H22  137  -0.204   2.578   3.513 -1.4659 -0.2393  1.0827
    6DG     H23  138  -0.316   2.606   3.366 -0.2450  0.2622  1.0396
    7DG      C1  139   2.282   1.679   1.694 -0.2518 -0.8751  0.2979
    7DG      C2  140   2.899   2.063   1.669 -0.9101  0.0686  0.0705
    7DG      H3  141   2.297   1.656   1.589 -1.8063 -0.1014 -0.1219
    7DG      H4  142   2.231   1.775   1.688  3.0576  0.9775 -0.6972
    7DG      H5  143   2.218   1.607   1.746  1.6194 -1.7870  1.4835
    7DG      H6  144   2.835   2.151   1.653 -2.0720 -0.6182  0.8052
    7DG      H7  145   2.994   2.091   1.714 -2.4758  2.5963  2.1365
    7DG      H8  146   2.921   2.021   1.570 -1.0797 -1.2348  0.5748
    7DG      O9  147   2.405   1.696   1.768  0.2017 -0.1606  0.3211
    7DG     O10  148   2.828   1.971   1.748 -0.9162  0.3881 -0.4934
    7DG     C11  149   2.406   1.699   1.907  0.2478 -0.6280  0.2193
    7DG     C12  150   2.792   2.013   1.879 -0.4614  0.7731  0.1174
    7DG     H13  151   2.363   1.605   1.943 -0.9012 -0.5781 -0.9163
    7DG     H14  152   2.332   1.778   1.925  1.7385  1.4530 -2.1756
    7DG     H15  153   2.715   2.090   1.872 -0.6555  0.6223  0.5816
    7DG     H16  154   2.877   2.060   1.928  0.2056 -0.3191  0.0268
    7DG     C17  155   2.542   1.737   1.967  0.2520  0.0634 -0.4812
    7DG     C18  156   2.737   1.889   1.961 -0.0536  0.2857  0.0979
    7DG     O19  157   2.609   1.850   1.901 -0.3209  0.1037  0.1261
    7DG     H20  158   2.615   1.657   1.975  0.3058  0.2867  1.9205
    7DG     H21  159   2.536   1.768   2.071  0.5442 -0.2021 -0.3853
    7DG     H22  160   2.801   1.802   1.952 -0.3950 -0.1326  1.4809
    7DG     H23  161   2.722   1.908   2.067  0.4415  1.2496  0.0073
    8DG      C1  162   3.710   3.808   4.175  0.1158  0.1598 -0.4913
    8DG      C2  163   3.661   3.184   4.071 -0.0290 -0.1681  0.0669
    8DG      H3  164   3.722   3.811   4.067 -2.3897  1.7458 -0.8022
    8DG      H4  165   3.769   3.887   4.219  2.5524 -1.2142 -1.1125
    8DG      H5  166   3.611   3.851   4.191  0.8518  1.9664 -0.5673
    8DG      H6  167   3.696   3.200   3.969 -1.8790 -0.3506 -0.6206
    8DG      H7  168   3.665   3.081   4.105 -3.0170  0.5586  3.1658
    8DG      H8  169   3.555   3.207   4.073  0.7203  4.2902 -0.7217
    8DG      O9  170   3.724   3.679   4.238 -0.6593 -0.0804 -0.7517
    8DG     O10  171   3.726   3.265   4.160 -0.0248 -0.1406 -0.0727
    8DG     C11  172   3.681   3.683   4.374 -0.6191  0.7403  0.0844
    8DG     C12  173   3.684   3.235   4.296  1.0882  0.1821 -0.1203
    8DG     H13  174   3.572   3.684   4.364 -0.7346 -4.8860 -4.2677
    8DG     H14  175   3.714   3.770   4.430  1.4141 -0.2892  0.5836
    8DG     H15  176   3.709   3.132   4.321  0.3773 -0.4217 -1.7612
    8DG     H16  177   3.576   3.241   4.309  1.1370  1.0971 -0.0697
    8DG     C17  178   3.728   3.559   4.452 -1.0288  0.1358  0.7325
    8DG     C18  179   3.759   3.333   4.391 -0.2283 -0.4080  0.4376
    8DG     O19  180   3.692   3.454   4.370 -0.3036 -0.3701  0.2935
    8DG     H20  181   3.678   3.560   4.549 -1.3450 -1.5545  0.6065
    8DG     H21  182   3.837   3.563   4.455 -0.9410 -1.4243  0.1172
    8DG     H22  183   3.758   3.315   4.498  0.9011  3.6208  1.2780
    8DG     H23  184   3.860   3.335   4.350 -1.4052 -0.2581 -2.8001
    9DG      C1  185   1.596   3.441   2.410 -0.0895  0.0054  0.7270
    9DG      C2  186   1.142   2.891   2.732  0.1935  0.1172  0.0382
    9DG      H3  187   1.573   3.487   2.506  0.3793 -1.0742  1.3824
    9DG      H4  188   1.533   3.495   2.340  0.6798  0.0601  0.0612
    9DG      H5  189   1.697   3.467   2.377 -0.3335 -1.6887 -1.5504
    9DG      H6  190   1.126   2.784   2.743  0.8854  0.0897  0.9081
    9DG      H7  191   1.153   2.944   2.827 -0.5898  0.9884 -0.3414
    9DG      H8  192   1.075   2.936   2.659  0.9767  1.5126  0.1395
    9DG      O9  193   1.569   3.300   2.390 -0.0991 -0.3128  0.3469
    9DG     O10  194   1.267   2.924   2.673  0.8689 -0.3412 -0.2790
    9DG     C11  195   1.437   3.275   2.423  0.3565 -0.0801  0.2981
    9DG     C12  196   1.300   2.865   2.552  0.4244  0.3757 -0.3283
    9DG     H13  197   1.386   3.326   2.341  0.9664 -1.5587 -1.0534
    9DG     H14  198   1.421   3.310   2.525  0.7270 -1.2533  0.7795
    9DG     H15  199   1.237   2.907   2.473  1.0166  0.6133 -0.6797
    9DG     H16  200   1.283   2.758   2.549 -1.3292  0.6463 -1.1367
    9DG     C17  201   1.385   3.128   2.411 -0.6416  0.3463  0.8797
    9DG     C18  202   1.443   2.912   2.510 -0.0100  0.0518  0.7344
    9DG     O19  203   1.457   3.054   2.511  0.2894 -0.3174 -0.5531
    9DG     H20  204   1.416   3.074   2.321  0.9184 -1.6559  2.5058
    9DG     H21  205   1.280   3.112   2.434 -0.5947  0.7665  1.3948
    9DG     H22  206   1.519   2.865   2.573  0.7745  2.1833  1.4493
    9DG     H23  207   1.470   2.873   2.412  3.1171 -1.0266  1.8888
   10DG      C1  208   2.654   3.884   3.977 -0.1388  0.3235 -0.5730
   10DG      C2  209   2.376   4.415   4.383 -0.0646 -0.0660 -0.3747
   10DG      H3  210   2.756   3.910   4.006 -0.3897  0.1819  0.5076
   10DG      H4  211   2.615   3.950   3.900 -0.9948  0.6499  0.1154
   10DG      H5  212   2.653   3.781   3.942  2.0502  0.2523 -0.5087
   10DG      H6  213   2.467   4.451   4.432 -0.1607 -0.9199  0.4517
   10DG      H7  214   2.357   4.470   4.290 -0.8898 -0.1729 -0.2706
   10DG      H8  215   2.298   4.438   4.455 -1.4467 -0.9887 -1.5188
   10DG      O9  216   2.580   3.909   4.098  0.2410  0.7093 -0.9460
   10DG     O10  217   2.353   4.281   4.363  0.1877  0.6502 -0.0722
   10DG     C11  218   2.447   3.940   4.074 -0.7411 -1.0332  0.0587
   10DG     C12  219   2.357   4.188   4.469 -0.2141  0.8321 -0.2112
   10DG     H13  220   2.395   3.862   4.018 -1.1603 -0.6922 -0.0353
   10DG     H14  221   2.435   4.032   4.017  1.3794  0.0647  1.2644
   10DG     H15  222   2.278   4.210   4.540 -1.5589  0.1180 -1.4429
   10DG     H16  223   2.460   4.194   4.506  0.7585 -2.2465 -2.0141
   10DG     C17  224   2.375   3.938   4.210  0.1427  0.1326  0.2620
   10DG     C18  225   2.328   4.051   4.411 -0.1704 -0.0328  0.5043
   10DG     O19  226   2.417   4.043   4.301  0.2603 -0.1019  0.2909
   10DG     H20  227   2.382   3.838   4.252  0.9361 -0.1844 -0.5746
   10DG     H21  228   2.273   3.961   4.181 -0.6711 -1.0934  2.0085
   10DG     H22  229   2.340   3.960   4.470  1.5891  0.1317  0.4666
   10DG     H23  230   2.228   4.058   4.368 -0.0351  1.4346  0.3689
   11DG      C1  231   5.357   5.195   3.086  0.2188  0.3820 -0.1517
   11DG      C2  232   4.678   4.909   3.362 -0.4174  0.8073 -0.5709
   11DG      H3  233   5.378   5.259   3.000  0.1026  0.3803 -0.1808
   11DG      H4  234   5.411   5.100   3.090  0.2942  0.4734  1.5512
   11DG      H5  235   5.382   5.236   3.183  0.2680 -1.1648  0.5177
   11DG      H6  236   4.677   4.961   3.458 -2.4213 -0.1772  0.0050
   11DG      H7  237   4.575   4.889   3.331 -0.3863 -0.3351  0.0217
   11DG      H8  238   4.716   4.809   3.383 -0.9262  0.8683  0.7448
   11DG      O9  239   5.222   5.161   3.081 -0.0271 -0.1979 -0.0784
   11DG     O10  240   4.752   4.980   3.266 -0.3422  0.1306  0.2326
   11DG     C11  241   5.138   5.261   3.042  0.4769 -0.0086  0.3099
   11DG     C12  242   4.706   5.114   3.251 -0.3927  0.5620 -0.0087
   11DG     H13  243   5.163   5.317   2.952 -2.0040 -0.1116 -0.5332
   11DG     H14  244   5.115   5.340   3.113 -0.5811  1.0652 -1.1578
   11DG     H15  245   4.720   5.176   3.339 -2.0359  1.0114 -0.0320
   11DG     H16  246   4.600   5.106   3.226 -0.4579  1.9046 -0.2048
   11DG     C17  247   4.995   5.200   3.020 -0.2549 -0.1666  0.6149
   11DG     C18  248   4.781   5.171   3.131 -0.4554 -0.6594  0.2359
   11DG     O19  249   4.927   5.175   3.138 -0.6834 -0.0949 -0.5180
   11DG     H20  250   5.008   5.102   2.973 -1.6849 -1.8142  3.3719
   11DG     H21  251   4.946   5.271   2.954  1.7540 -0.1597 -0.9864
   11DG     H22  252   4.755   5.107   3.047  0.0171  0.2747 -0.6436
   11DG     H23  253   4.750   5.273   3.111  0.1503 -0.7221 -1.1429
   12DG      C1  254   2.141   3.405   0.184 -0.1678 -0.0706  0.5944
   12DG      C2  255   1.675   3.033  -0.304 -0.6211 -0.1234  0.2561
   12DG      H3  256   2.088   3.319   0.227 -1.1911 -0.1687 -0.7715
   12DG      H4  257   2.099   3.493   0.233 -1.9897 -0.6310  0.1471
   12DG      H5  258   2.247   3.411   0.207 -0.4826  1.5467  1.7582
   12DG      H6  259   1.677   2.989  -0.403  0.1694  1.1670 -0.3317
   12DG      H7  260   1.664   2.959  -0.225  0.5375  0.6873  1.2045
   12DG      H8  261   1.589   3.100  -0.303 -0.0509  0.6743 -1.3204
   12DG      O9  262   2.118   3.414   0.042  0.2227  0.4992 -0.0254
   12DG     O10  263   1.790   3.098  -0.270 -0.5778 -0.2168  0.0807
   12DG     C11  264   2.196   3.320  -0.030  0.3654 -0.3692  0.1150
   12DG     C12  265   1.821   3.228  -0.326 -0.2639 -0.2943 -0.4534
   12DG     H13  266   2.175   3.224   0.016  2.6584 -1.3541 -0.7399
   12DG     H14  267   2.303   3.343  -0.035  0.4542 -0.7159  0.3767
   12DG     H15  268   1.765   3.301  -0.268  2.2168  1.1597  0.2539
   12DG     H16  269   1.783   3.241  -0.427  1.7020  2.7721 -0.9404
   12DG     C17  270   2.146   3.313  -0.178 -0.0774  0.2683  0.5110
   12DG     C18  271   1.963   3.265  -0.320 -0.0410  0.1990 -0.3462
   12DG     O19  272   2.011   3.265  -0.192 -0.6693 -0.3249 -0.4337
   12DG     H20  273   2.209   3.248  -0.238  1.4139  1.8968  0.2116
   12DG     H21  274   2.153   3.406  -0.234 -0.2040  0.5952  1.0308
   12DG     H22  275   2.024   3.193  -0.374  0.1987  0.1181  0.0359
   12DG     H23  276   1.986   3.358  -0.371  1.0073 -0.0541 -0.3602
   13DG      C1  277   0.189   3.330   4.107  0.2478  0.2180  0.4786
   13DG      C2  278   0.360   4.121   3.763  0.0338  0.0917  0.4028
   13DG      H3  279   0.082   3.344   4.118  0.0366 -2.3636  3.0263
   13DG      H4  280   0.233   3.328   4.207 -0.1172  2.4103  0.7397
   13DG      H5  281   0.187   3.243   4.041 -3.7130  0.7259 -0.2942
   13DG      H6  282   0.376   4.070   3.668  0.3507 -1.6925  1.3580
   13DG      H7  283   0.258   4.155   3.778 -0.1102  1.2173 -2.5244
   13DG      H8  284   0.432   4.203   3.770  1.0369 -0.7267  0.0467
   13DG      O9  285   0.239   3.435   4.031  0.5460 -0.1147 -0.0215
   13DG     O10  286   0.405   4.028   3.855 -0.2295  0.2013  0.0987
   13DG     C11  287   0.380   3.430   4.012  0.3020 -0.6494 -0.3964
   13DG     C12  288   0.346   3.900   3.837 -0.3095  0.1021 -0.0224
   13DG     H13  289   0.387   3.375   3.918 -1.5895 -1.6040 -0.0217
   13DG     H14  290   0.437   3.383   4.093 -1.0204 -0.0587  0.9131
   13DG     H15  291   0.360   3.865   3.735 -1.3780 -0.6277  0.0685
   13DG     H16  292   0.238   3.908   3.853 -0.2475  0.3706  0.2693
   13DG     C17  293   0.432   3.577   4.015  0.1287  0.1807  0.0899
   13DG     C18  294   0.408   3.801   3.939  0.8232  0.6910  0.4902
   13DG     O19  295   0.357   3.663   3.932 -0.2973 -0.9332 -0.7028
   13DG     H20  296   0.538   3.576   3.988 -0.3803 -0.6997 -2.0911
   13DG     H21  297   0.417   3.615   4.116  1.0091  2.1691 -0.4907
   13DG     H22  298   0.515   3.802   3.914  0.2665  0.1897 -2.2475
   13DG     H23  299   0.390   3.847   4.037 -0.6688 -1.4108  1.2603
   14DG      C1  300   0.353   4.024   4.803 -0.2986 -0.8479 -0.3477
   14DG      C2  301  -0.256   4.064   4.505 -0.0806 -0.2582  0.3317
   14DG      H3  302   0.302   3.931   4.830  0.5489 -1.2177  0.0155
   14DG      H4  303   0.344   4.097   4.883  0.6559 -0.4469 -0.5956
   14DG      H5  304   0.461   4.012   4.799 -0.3860 -2.2058  0.7293
   14DG      H6  305  -0.274   4.031   4.607 -0.7026  0.7496  0.5678
   14DG      H7  306  -0.298   4.165   4.497  0.7915  0.4050  3.1607
   14DG      H8  307  -0.297   3.990   4.437  0.7722 -1.1886  0.8149
   14DG      O9  308   0.281   4.063   4.685 -0.2158 -0.1854 -0.0835
   14DG     O10  309  -0.120   4.092   4.479  0.5292  0.2806 -0.0711
   14DG     C11  310   0.341   4.016   4.560  0.7194  0.1207  0.0170
   14DG     C12  311  -0.079   4.092   4.341  0.3176  0.0093 -0.1474
   14DG     H13  312   0.319   3.909   4.553 -0.4614  0.2799  0.9116
   14DG     H14  313   0.448   4.036   4.562  0.8542 -0.5415 -0.1999
   14DG     H15  314  -0.142   4.146   4.271  1.3322 -1.9776 -2.7702
   14DG     H16  315  -0.104   3.991   4.308 -0.5331  0.4656 -0.9384
   14DG     C17  316   0.284   4.075   4.433 -0.1910  0.1154 -0.7724
   14DG     C18  317   0.071   4.122   4.326 -0.1719 -0.1017  0.1950
   14DG     O19  318   0.146   4.047   4.422  0.2370 -0.1886 -0.1398
   14DG     H20  319   0.335   4.032   4.347 -1.7735  0.8369 -2.1107
   14DG     H21  320   0.298   4.183   4.435  1.4938 -0.0696 -0.5307
   14DG     H22  321   0.097   4.091   4.224  0.2370  2.9336 -0.7170
   14DG     H23  322   0.094   4.227   4.345  1.6621  0.0183 -2.1992
   15DG      C1  323   4.614   2.269   3.527  0.2866 -0.0177  0.9751
   15DG      C2  324   4.667   2.047   4.164 -0.5585 -0.2528 -0.0679
   15DG      H3  325   4.677   2.222   3.452 -1.2967 -0.1909 -0.2891
   15DG      H4  326   4.693   2.306   3.594  0.8348 -3.6286  2.5932
   15DG      H5  327   4.556   2.351   3.486 -1.9381 -2.0162 -0.0706
   15DG      H6  328   4.615   2.074   4.256  1.4905  0.4898  0.9607
   15DG      H7  329   4.679   1.939   4.174 -0.2137 -0.1456  0.8639
   15DG      H8  330   4.766   2.091   4.176  0.0056 -1.5737  0.3299
   15DG      O9  331   4.527   2.189   3.602  0.4619 -0.5041  0.2860
   15DG     O10  332   4.595   2.088   4.047 -0.0130  1.2687 -0.3954
   15DG     C11  333   4.423   2.263   3.662  0.1974 -0.2855 -0.4248
   15DG     C12  334   4.555   2.224   4.044  0.0968 -0.2124 -0.1250
   15DG     H13  335   4.359   2.314   3.591 -1.9900  0.7167  2.1066
   15DG     H14  336   4.464   2.343   3.723 -0.6679  0.9240 -1.3737
   15DG     H15  337   4.626   2.274   3.977 -1.0408  2.3243  0.4655
   15DG     H16  338   4.560   2.276   4.139  0.8819 -1.7574  0.7058
   15DG     C17  339   4.345   2.178   3.755 -0.4523  0.3201 -0.6119
   15DG     C18  340   4.426   2.231   3.972  1.4655 -0.0652 -0.1446
   15DG     O19  341   4.433   2.148   3.861  0.0600  0.5868  0.1764
   15DG     H20  342   4.319   2.084   3.705 -1.4695 -0.6461  1.6052
   15DG     H21  343   4.255   2.228   3.790 -0.8148 -0.3884 -0.5157
   15DG     H22  344   4.341   2.214   4.038  2.0556 -1.2135  0.3522
   15DG     H23  345   4.425   2.336   3.942  2.1469  0.1681  0.5896
   16DG      C1  346   3.200   1.897   1.437  0.7427  0.0444  0.1503
   16DG      C2  347   2.839   2.103   0.780 -0.6846 -0.0079 -0.6170
   16DG      H3  348   3.184   1.984   1.501  0.6965 -0.4920  0.8897
   16DG      H4  349   3.282   1.837   1.475  1.7923  1.0471 -0.4645
   16DG      H5  350   3.106   1.843   1.448 -0.8755  2.4788 -0.7484
   16DG      H6  351   2.792   2.188   0.829  0.0130 -0.4883  0.9755
   16DG      H7  352   2.860   2.129   0.676  2.9384  1.6830  0.3960
   16DG      H8  353   2.765   2.022   0.784  0.7489 -1.3560  2.4146
   16DG      O9  354   3.217   1.939   1.297 -0.1609  0.6123  0.4005
   16DG     O10  355   2.948   2.051   0.852  0.5091  0.6519 -0.0411
   16DG     C11  356   3.197   1.832   1.207  0.5859  0.1536  0.2335
   16DG     C12  357   3.061   2.142   0.869  0.0103  0.2698  0.3745
   16DG     H13  358   3.100   1.783   1.207  0.7133 -0.1059  0.5991
   16DG     H14  359   3.266   1.750   1.229 -0.4959 -0.0807  3.0874
   16DG     H15  360   3.046   2.204   0.957  0.8547  1.7591 -0.4922
   16DG     H16  361   3.079   2.202   0.780 -0.1123 -0.5172 -0.1860
   16DG     C17  362   3.230   1.887   1.070  0.0494  0.4411  0.4714
   16DG     C18  363   3.188   2.048   0.893  0.7964 -0.2806  0.1157
   16DG     O19  364   3.149   1.996   1.024 -0.6232  0.6729 -0.8141
   16DG     H20  365   3.219   1.814   0.990 -0.2652 -0.3719  1.2338
   16DG     H21  366   3.332   1.927   1.075  0.0377  1.0279 -2.4023
   16DG     H22  367   3.191   1.966   0.821  0.7426  0.3544 -0.6168
   16DG     H23  368   3.284   2.100   0.882  0.8716 -0.4351  0.0393
   17DG      C1  369   0.701   4.699   4.668 -0.0968  0.4152  0.0245
   17DG      C2  370   1.110   4.900   4.153 -0.0669 -0.1157 -0.1745
   17DG      H3  371   0.708   4.591   4.680  1.1288  0.2374 -1.9322
   17DG      H4  372   0.681   4.710   4.562 -0.7052  1.2214  0.2115
   17DG      H5  373   0.630   4.737   4.742 -0.7316  0.1489 -0.4345
   17DG      H6  374   1.057   4.806   4.138  0.4548 -0.0932 -2.4586
   17DG      H7  375   1.062   4.979   4.095  0.3572  0.5281  0.3379
   17DG      H8  376   1.206   4.889   4.104  0.3186 -1.5107  0.8264
   17DG      O9  377   0.826   4.760   4.684  0.3047  0.3751  0.0145
   17DG     O10  378   1.118   4.948   4.284 -0.1790 -0.2674  0.2185
   17DG     C11  379   0.817   4.897   4.645  0.1357  0.2729 -0.5062
   17DG     C12  380   1.186   4.866   4.368  0.6919 -0.1703 -0.6160
   17DG     H13  381   0.770   4.959   4.721 -0.7847 -1.9384  0.8234
   17DG     H14  382   0.772   4.913   4.547 -0.5739 -0.6292 -0.3412
   17DG     H15  383   1.292   4.879   4.347  1.1118 -2.6405 -0.3588
   17DG     H16  384   1.165   4.762   4.340  0.2946 -0.6693  1.3538
   17DG     C17  385   0.969   4.941   4.642  0.5253  0.0149 -0.5265
   17DG     C18  386   1.155   4.899   4.512  0.0927 -0.2450 -0.2692
   17DG     O19  387   1.021   4.864   4.537 -0.2300  0.6451  0.0696
   17DG     H20  388   1.008   4.915   4.741  0.4258 -0.2430 -0.5526
   17DG     H21  389   0.983   5.048   4.631 -0.5314  0.2165 -0.0506
   17DG     H22  390   1.219   4.842   4.578  1.9075  1.1002 -0.7862
   17DG     H23  391   1.169   5.006   4.531 -0.1664  0.2624 -2.5640
   18DG      C1  392   0.697   1.467   2.505  0.3574  0.8974 -0.0258
   18DG      C2  393   1.120   1.909   2.621  0.0750 -0.2961  0.6634
   18DG      H3  394   0.666   1.471   2.609  0.4836  0.0620  0.0475
   18DG      H4  395   0.715   1.360   2.491  0.6774  1.0973 -1.3058
   18DG      H5  396   0.613   1.482   2.437 -0.1659 -1.9917 -0.1536
   18DG      H6  397   1.068   1.905   2.717 -1.2618  0.9139  0.0347
   18DG      H7  398   1.200   1.982   2.638  1.9167 -2.1242  0.1846
   18DG      H8  399   1.046   1.955   2.554 -0.3537 -1.3312  0.4168
   18DG      O9  400   0.808   1.550   2.485 -0.4489  0.4884  0.3700
   18DG     O10  401   1.157   1.773   2.600  0.3858  0.0356 -0.1183
   18DG     C11  402   0.853   1.558   2.343  0.4139 -0.8155  0.2209
   18DG     C12  403   1.226   1.761   2.473 -0.4071  0.4443  1.0470
   18DG     H13  404   0.776   1.598   2.278  1.0934 -0.8038 -0.5950
   18DG     H14  405   0.859   1.460   2.296  0.3142 -0.6764 -0.0796
   18DG     H15  406   1.333   1.776   2.486 -0.2400 -0.5624  0.9242
   18DG     H16  407   1.182   1.829   2.400  2.8500  0.8232 -0.7334
   18DG     C17  408   0.988   1.628   2.328 -0.3165 -0.2105  0.0582
   18DG     C18  409   1.211   1.621   2.409  0.6629 -0.1711  0.8750
   18DG     O19  410   1.079   1.577   2.418  0.1173  0.6070  0.4776
   18DG     H20  411   0.973   1.733   2.352 -0.6234 -0.4491  0.9415
   18DG     H21  412   1.031   1.624   2.228  1.7893  3.6095  0.6006
   18DG     H22  413   1.251   1.604   2.310  0.0080 -1.7372  0.8488
   18DG     H23  414   1.268   1.552   2.471  0.4015 -1.2507 -0.0578
   19DG      C1  415   1.254   0.739   4.864 -0.0486  0.8949 -0.0248
   19DG      C2  416   1.560   1.485   4.576 -0.2774  0.4379 -0.3935
   19DG      H3  417   1.168   0.711   4.804  0.5044  0.0727 -0.4574
   19DG      H4  418   1.221   0.718   4.965 -2.0478 -0.5025 -0.9071
   19DG      H5  419   1.332   0.671   4.829 -2.2308 -2.4355  1.0892
   19DG      H6  420   1.595   1.588   4.590 -0.0772  0.3359 -0.1451
   19DG      H7  421   1.640   1.423   4.536 -2.0708 -1.4483 -1.2145
   19DG      H8  422   1.482   1.489   4.499 -0.3770 -0.3260 -0.3364
   19DG      O9  423   1.289   0.875   4.852  0.0643 -0.2324 -0.6870
   19DG     O10  424   1.522   1.439   4.706  0.1313 -0.5343  0.3712
   19DG     C11  425   1.200   0.973   4.896 -0.2855  0.6756 -0.0705
   19DG     C12  426   1.438   1.329   4.705  0.0802 -0.5429 -1.0111
   19DG     H13  427   1.144   0.928   4.978  1.1172  0.8950  1.0384
   19DG     H14  428   1.137   0.994   4.809  0.2137  0.1962 -0.5527
   19DG     H15  429   1.494   1.245   4.663 -0.1479 -0.4518 -1.5051
   19DG     H16  430   1.353   1.339   4.637 -0.5982  1.1095  0.0179
   19DG     C17  431   1.249   1.110   4.937 -0.2354 -0.1076 -0.5743
   19DG     C18  432   1.394   1.286   4.842  0.5821 -0.5418  0.1490
   19DG     O19  433   1.303   1.176   4.819 -0.3089 -0.0302 -0.3939
   19DG     H20  434   1.330   1.097   5.009 -2.4114 -2.2955  1.6587
   19DG     H21  435   1.177   1.167   4.995  0.6754  1.3659 -0.8363
   19DG     H22  436   1.487   1.268   4.896  0.6472  2.7907  1.3770
   19DG     H23  437   1.337   1.369   4.885 -1.4886 -1.4431 -0.6888
   20DG      C1  438   2.247   3.828   4.850 -0.2065 -0.8791  0.5543
   20DG      C2  439   1.774   4.127   4.249 -0.4713 -0.6801  0.2986
   20DG      H3  440   2.199   3.773   4.931 -1.9627  1.3652  1.1263
   20DG      H4  441   2.301   3.916   4.883 -2.6292  1.0458 -0.3201
   20DG      H5  442   2.301   3.752   4.793  0.5182 -0.2410  0.3673
   20DG      H6  443   1.827   4.086   4.163  0.4805  0.8074  0.1332
   20DG      H7  444   1.669   4.155   4.245 -0.1560  0.6544  0.6442
   20DG      H8  445   1.820   4.226   4.255 -2.2678  0.1235  1.9040
   20DG      O9  446   2.140   3.869   4.771 -0.2507 -0.6825  0.7114
   20DG     O10  447   1.816   4.063   4.374 -0.0559 -0.6579  0.1766
   20DG     C11  448   2.085   3.996   4.809 -0.8357  0.3860 -0.0622
   20DG     C12  449   1.949   4.013   4.376  0.2107 -0.3601  0.3563
   20DG     H13  450   2.151   4.082   4.803  1.3342 -1.0291  1.7001
   20DG     H14  451   2.057   3.989   4.914 -1.2176 -0.8976 -0.2243
   20DG     H15  452   2.015   4.095   4.347 -0.7003  1.7671  3.6289
   20DG     H16  453   1.958   3.928   4.309 -2.4778  0.5682 -1.3799
   20DG     C17  454   1.950   4.013   4.745  0.5025  0.4587  0.0248
   20DG     C18  455   1.983   3.963   4.511 -0.2649  0.1340 -0.5231
   20DG     O19  456   1.955   4.061   4.608 -0.3446 -0.1016  0.7518
   20DG     H20  457   1.885   4.085   4.796 -1.2869 -0.0829 -1.3615
   20DG     H21  458   1.903   3.916   4.760  1.9346 -0.4760 -1.2579
   20DG     H22  459   1.912   3.882   4.529 -0.9036  0.7257 -0.3241
   20DG     H23  460   2.082   3.920   4.523 -0.5691 -0.4339  0.0149
   21DG      C1  461   1.522   4.960   5.245 -0.5182  0.8486  0.2955
   21DG      C2  462   1.722   5.297   5.759  0.1555 -0.3234 -0.8192
   21DG      H3  463   1.508   5.066   5.224 -0.1849  0.6780 -0.9077
   21DG      H4  464   1.446   4.933   5.318  0.3228 -1.0122  0.5490
   21DG      H5  465   1.501   4.908   5.152 -1.8577 -0.5212  1.3207
   21DG      H6  466   1.804   5.249   5.812 -2.0812 -0.7852  2.6194
   21DG      H7  467   1.730   5.404   5.776 -0.7019 -0.6676  2.7468
   21DG      H8  468   1.631   5.259   5.808 -0.7646  0.6927 -1.6915
   21DG      O9  469   1.653   4.925   5.293  0.2872  0.5800  0.2047
   21DG     O10  470   1.718   5.262   5.623  0.4006 -0.3557 -0.0579
   21DG     C11  471   1.760   4.995   5.221 -0.2704  0.1959  0.6585
   21DG     C12  472   1.830   5.325   5.548  0.3554  0.5096 -0.0464
   21DG     H13  473   1.764   4.977   5.113  1.0885  0.1105  0.7000
   21DG     H14  474   1.851   4.959   5.268 -1.4466 -1.0885  2.0431
   21DG     H15  475   1.920   5.267   5.564 -0.6959 -1.2589 -0.2080
   21DG     H16  476   1.848   5.429   5.575  0.4369  0.1639  1.2814
   21DG     C17  477   1.772   5.148   5.238  0.0357  0.5568  0.3847
   21DG     C18  478   1.815   5.307   5.399 -0.2780 -0.8147  0.1234
   21DG     O19  479   1.789   5.171   5.372 -0.6811 -1.0586 -0.7611
   21DG     H20  480   1.692   5.194   5.180  0.8632  1.5222 -0.0185
   21DG     H21  481   1.854   5.195   5.184 -2.7400  3.6131 -1.5702
   21DG     H22  482   1.721   5.359   5.380 -0.7830 -1.1471  1.5963
   21DG     H23  483   1.892   5.349   5.335  0.0324 -0.6430  0.6081
   22DG      C1  484   3.072   3.337   3.468 -0.8099 -0.0560  0.0003
   22DG      C2  485   3.191   4.051   3.312  0.6141  0.2182 -0.2516
   22DG      H3  486   3.177   3.313   3.447 -0.4968  0.5118  0.8749
   22DG      H4  487   3.020   3.317   3.374  1.5310 -2.1680 -0.9960
   22DG      H5  488   3.039   3.257   3.535 -0.3860  0.9158  1.4032
   22DG      H6  489   3.272   4.012   3.249  2.2753  2.4969  0.3551
   22DG      H7  490   3.142   4.127   3.251 -3.2530 -1.4535  0.4642
   22DG      H8  491   3.237   4.092   3.402 -1.9282  0.5297  0.9739
   22DG      O9  492   3.055   3.471   3.513 -0.2128 -0.5353 -0.5528
   22DG     O10  493   3.093   3.949   3.334  0.7212  0.0511  0.4575
   22DG     C11  494   2.923   3.506   3.484  0.3397 -0.3663  0.8198
   22DG     C12  495   2.983   3.993   3.407 -0.5129 -0.3298 -0.3783
   22DG     H13  496   2.852   3.437   3.531 -1.4375 -0.2998 -1.6140
   22DG     H14  497   2.895   3.515   3.379 -0.4152 -0.8226  0.9721
   22DG     H15  498   2.908   4.023   3.334 -0.0229  0.5383 -0.5479
   22DG     H16  499   3.008   4.081   3.466  1.1298 -1.5188  0.7700
   22DG     C17  500   2.897   3.639   3.547 -0.1254  0.1617 -0.0683
   22DG     C18  501   2.935   3.873   3.504  0.5018 -0.2184  0.3039
   22DG     O19  502   2.950   3.742   3.463  0.3706 -0.0230 -0.4095
   22DG     H20  503   2.944   3.645   3.645  3.0336 -0.4309 -1.4194
   22DG     H21  504   2.791   3.665   3.549 -0.0309  0.5587  0.1028
   22DG     H22  505   2.986   3.876   3.600 -2.5687 -0.5173  2.0859
   22DG     H23  506   2.828   3.882   3.521  0.5019  2.2398 -0.6523
   23DG      C1  507   3.189   4.355   0.451 -0.5148 -0.1506 -0.8583
   23DG      C2  508   2.420   4.597   0.331 -0.5793  0.0698  0.4601
   23DG      H3  509   3.281   4.408   0.427 -0.7597  1.6579  1.7857
   23DG      H4  510   3.216   4.251   0.466  0.6046  0.1061 -1.0040
   23DG      H5  511   3.165   4.400   0.548  2.0167 -1.9085  0.6918
   23DG      H6  512   2.318   4.569   0.306 -0.5353  0.9294 -0.7611
   23DG      H7  513   2.417   4.670   0.412 -0.4088 -0.2341  0.7432
   23DG      H8  514   2.453   4.647   0.240  1.5242  1.4326  1.8955
   23DG      O9  515   3.082   4.354   0.352 -0.5670  0.5203 -0.2144
   23DG     O10  516   2.491   4.483   0.373 -0.7172 -0.0519  0.2218
   23DG     C11  517   2.982   4.262   0.385 -0.1387  0.3022  0.4678
   23DG     C12  518   2.618   4.519   0.433  0.0559 -0.3033  0.5887
   23DG     H13  519   2.966   4.287   0.490  0.6859 -1.1587  0.9762
   23DG     H14  520   3.037   4.169   0.372  0.8447  0.9870 -0.4879
   23DG     H15  521   2.611   4.572   0.528 -1.1469  0.8866 -0.1197
   23DG     H16  522   2.667   4.587   0.363  0.4153 -1.4392 -0.2865
   23DG     C17  523   2.850   4.271   0.306  0.0851  0.3154  0.3399
   23DG     C18  524   2.704   4.397   0.435  0.1931 -0.4280  0.4672
   23DG     O19  525   2.780   4.396   0.315  0.5412  0.1392 -0.1929
   23DG     H20  526   2.786   4.185   0.325  0.2501 -0.0612 -0.7142
   23DG     H21  527   2.891   4.256   0.206  1.3473 -0.8856  1.0147
   23DG     H22  528   2.757   4.402   0.530 -1.9257  1.8559  1.6325
   23DG     H23  529   2.650   4.303   0.448 -0.5872 -0.2722 -1.2720
   24DG      C1  530   3.024   0.183   3.642 -0.0596  0.7206  0.1254
   24DG      C2  531   2.839  -0.250   4.120  0.1748 -0.1087  0.4774
   24DG      H3  532   3.055   0.169   3.538 -2.6658 -1.0667 -0.5026
   24DG      H4  533   3.089   0.255   3.691 -1.2413  1.3221  0.8527
   24DG      H5  534   2.921   0.217   3.631 -0.1525  0.1079 -1.1028
   24DG      H6  535   2.852  -0.195   4.213  1.7943  1.1640 -0.4646
   24DG      H7  536   2.736  -0.242   4.084  0.8027  0.3134 -1.2728
   24DG      H8  537   2.855  -0.357   4.135  0.9372 -0.3053 -1.4741
   24DG      O9  538   3.038   0.059   3.703 -0.1640  0.1705 -0.2549
   24DG     O10  539   2.919  -0.201   4.020  0.2285 -0.2683 -0.3758
   24DG     C11  540   3.168   0.008   3.709  0.4698 -0.1365 -0.3511
   24DG     C12  541   3.056  -0.213   4.054 -0.4905 -0.3642 -1.0157
   24DG     H13  542   3.219   0.058   3.792 -1.4353 -0.9548  1.4103
   24DG     H14  543   3.223   0.033   3.618  1.5109 -0.4484  0.1736
   24DG     H15  544   3.092  -0.315   4.067  1.9879  0.6165  0.4764
   24DG     H16  545   3.081  -0.165   4.149  2.3845 -2.0977 -0.8074
   24DG     C17  546   3.171  -0.143   3.713 -0.1729 -0.1707 -0.4511
   24DG     C18  547   3.128  -0.135   3.945  0.1100  0.1980 -0.4444
   24DG     O19  548   3.088  -0.189   3.817  0.3629  0.1652  0.4214
   24DG     H20  549   3.270  -0.184   3.732  1.4587  3.3092 -0.6921
   24DG     H21  550   3.148  -0.181   3.613  0.6638 -1.0616 -0.3105
   24DG     H22  551   3.098  -0.031   3.956  2.3663  1.0277 -1.4572
   24DG     H23  552   3.236  -0.135   3.960 -0.1955 -1.4471  2.4671
   25DG      C1  553   0.004   3.850   1.068 -0.3326 -0.0950  0.0223
   25DG      C2  554  -0.525   4.284   1.018 -0.8775  0.1435  0.1570
   25DG      H3  555   0.062   3.919   1.007 -1.0743  1.4644  1.0241
   25DG      H4  556  -0.049   3.785   0.998 -0.8826 -0.4518  0.7517
   25DG      H5  557   0.071   3.797   1.136  0.5599  0.6671 -0.2366
   25DG      H6  558  -0.628   4.276   1.050 -0.3446  0.3893  2.0743
   25DG      H7  559  -0.491   4.387   1.022 -1.7869  0.4168  3.2771
   25DG      H8  560  -0.495   4.251   0.918  0.8112  1.2085  0.2703
   25DG      O9  561  -0.085   3.929   1.151  0.5266  0.0218  0.5203
   25DG     O10  562  -0.444   4.204   1.105 -0.0210  0.4205  0.3917
   25DG     C11  563  -0.010   4.016   1.236  0.2318 -0.3073 -0.3769
   25DG     C12  564  -0.447   4.231   1.242 -0.5927 -0.3285 -0.1847
   25DG     H13  565   0.013   4.097   1.167 -2.2078 -0.0238 -0.9553
   25DG     H14  566   0.079   3.984   1.289 -0.1812 -0.2807  0.3421
   25DG     H15  567  -0.543   4.209   1.288 -0.5866 -1.0503 -0.5080
   25DG     H16  568  -0.419   4.335   1.259  0.8346 -0.2465 -2.5645
   25DG     C17  569  -0.117   4.072   1.329  0.3216 -0.7875  0.1634
   25DG     C18  570  -0.351   4.140   1.321  0.1537  0.6150  0.2838
   25DG     O19  571  -0.219   4.141   1.259 -0.2214 -0.4805  0.0376
   25DG     H20  572  -0.065   4.147   1.387 -0.7379  1.5934 -1.8051
   25DG     H21  573  -0.160   3.996   1.395 -0.9447  0.2175  0.5350
   25DG     H22  574  -0.336   4.185   1.419 -0.6693  1.0638  0.2185
   25DG     H23  575  -0.392   4.039   1.325  0.6844  0.4095  0.5703
   26DG      C1  576   3.770   2.207   1.684 -0.4861 -0.2068 -1.1742
   26DG      C2  577   4.579   2.373   1.643 -0.0963 -0.2313  0.5823
   26DG      H3  578   3.749   2.310   1.712 -1.7355 -0.8878  0.5782
   26DG      H4  579   3.785   2.159   1.781 -2.2371  3.1994  0.9800
   26DG      H5  580   3.686   2.162   1.631 -1.5964  0.1351  0.2259
   26DG      H6  581   4.593   2.479   1.624 -1.8022 -0.3885 -2.0682
   26DG      H7  582   4.561   2.353   1.749 -1.9333 -0.5537  0.2452
   26DG      H8  583   4.671   2.325   1.609  1.0944  2.6253 -0.5555
   26DG      O9  584   3.883   2.197   1.608 -0.3676  0.2806  0.9248
   26DG     O10  585   4.483   2.324   1.556 -0.2809  0.6476 -0.4947
   26DG     C11  586   3.885   2.287   1.494 -0.3008  0.2174 -0.2500
   26DG     C12  587   4.352   2.388   1.572 -0.1959 -0.0490 -0.6015
   26DG     H13  588   3.875   2.393   1.519  1.7662  0.5823 -0.7957
   26DG     H14  589   3.798   2.258   1.435 -1.1789 -1.0001  1.5411
   26DG     H15  590   4.354   2.493   1.542  1.1548 -0.1025 -0.7494
   26DG     H16  591   4.322   2.375   1.676  1.4523 -3.1997 -0.4107
   26DG     C17  592   4.022   2.277   1.426  0.2762  0.0353  0.4152
   26DG     C18  593   4.258   2.317   1.474  0.3041 -0.3734  0.0918
   26DG     O19  594   4.120   2.336   1.511 -0.5317  0.4633  0.3235
   26DG     H20  595   4.017   2.332   1.332  2.3797  1.1590  0.8938
   26DG     H21  596   4.032   2.170   1.409 -2.2994  0.0107 -1.4970
   26DG     H22  597   4.285   2.348   1.373 -1.1894  0.1284 -0.1721
   26DG     H23  598   4.288   2.213   1.488 -2.2712 -1.4072 -1.4041
   27DG      C1  599   0.502   0.714   3.088  0.5897 -0.1984  0.9106
   27DG      C2  600   0.613   0.009   3.136 -0.0221 -0.2207  0.3023
   27DG      H3  601   0.407   0.692   3.138 -1.4072  1.4060 -1.9195
   27DG      H4  602   0.466   0.781   3.010  3.1032  0.9917  0.6740
   27DG      H5  603   0.578   0.764   3.148  1.4954  0.5949 -0.8432
   27DG      H6  604   0.571   0.010   3.036  1.5215  1.3972 -0.3777
   27DG      H7  605   0.682  -0.074   3.127  0.4420  0.0611  1.1583
   27DG      H8  606   0.535  -0.007   3.211 -0.8713 -0.5382 -0.6298
   27DG      O9  607   0.555   0.592   3.036  0.2234 -0.6021 -0.3508
   27DG     O10  608   0.687   0.129   3.166  0.0856 -0.0949  0.2347
   27DG     C11  609   0.666   0.594   2.947 -0.0940  0.7322 -0.6094
   27DG     C12  610   0.805   0.148   3.086 -0.0921  0.1147  0.3805
   27DG     H13  611   0.743   0.637   3.010 -0.7896  0.9300  0.1222
   27DG     H14  612   0.657   0.669   2.868 -0.6308  1.5926  0.2452
   27DG     H15  613   0.852   0.056   3.052 -0.7452 -0.6333  1.4150
   27DG     H16  614   0.871   0.192   3.161 -1.2903  0.4432  1.2758
   27DG     C17  615   0.704   0.452   2.905  0.1514  0.1741  0.1696
   27DG     C18  616   0.779   0.242   2.966 -0.1987 -0.2580 -0.3160
   27DG     O19  617   0.731   0.369   3.017  0.9027 -0.7401  0.5471
   27DG     H20  618   0.790   0.468   2.840 -0.2995 -0.9477 -0.7237
   27DG     H21  619   0.620   0.414   2.847  1.4531 -0.8644 -1.1068
   27DG     H22  620   0.873   0.252   2.912  1.4083 -0.2825  2.2942
   27DG     H23  621   0.710   0.195   2.896 -0.9624  1.4429 -0.7455
   28DG      C1  622   0.445   1.475   4.784 -0.7039 -0.6492  0.2726
   28DG      C2  623   0.819   1.065   4.943  0.3037 -1.1059 -0.3122
   28DG      H3  624   0.428   1.577   4.818 -0.8630 -0.7438  0.4760
   28DG      H4  625   0.539   1.464   4.730 -0.6082  0.8403  0.1022
   28DG      H5  626   0.453   1.420   4.878 -1.0339 -0.7124  0.2633
   28DG      H6  627   0.889   1.073   4.861 -2.0281  1.0793 -2.2775
   28DG      H7  628   0.827   1.154   5.006  1.4026 -0.7536 -0.9220
   28DG      H8  629   0.837   0.972   4.996  1.5172  0.8519  3.0346
   28DG      O9  630   0.335   1.420   4.710 -0.7132 -0.0333 -0.3321
   28DG     O10  631   0.687   1.056   4.884  0.4658  0.0839 -0.2263
   28DG     C11  632   0.350   1.290   4.651 -0.1514  0.3124  0.4400
   28DG     C12  633   0.581   1.055   4.974 -0.2587 -0.3605  0.0108
   28DG     H13  634   0.442   1.276   4.594 -0.1361 -0.3317  0.6106
   28DG     H14  635   0.284   1.285   4.565  0.3308  0.1030  0.0800
   28DG     H15  636   0.583   1.155   5.018  2.7234 -0.2708 -0.1470
   28DG     H16  637   0.591   0.982   5.054 -3.2557 -0.7878  0.1304
   28DG     C17  638   0.329   1.169   4.743  0.6354  0.5585  0.1059
   28DG     C18  639   0.448   1.041   4.904  0.0316  0.4110  0.3008
   28DG     O19  640   0.447   1.147   4.814 -0.1998 -0.0319  0.0567
   28DG     H20  641   0.320   1.082   4.678 -3.2951  1.3085 -0.6222
   28DG     H21  642   0.240   1.163   4.805  1.2939  2.2580  1.3088
   28DG     H22  643   0.444   0.945   4.851  1.1028  0.8049 -0.5282
   28DG     H23  644   0.367   1.064   4.973  1.3513  3.2616  1.0450
   29DG      C1  645   4.451   3.541   2.607  0.4319 -0.1162  1.0673
   29DG      C2  646   4.000   4.056   2.405  0.4186 -0.1759  0.0693
   29DG      H3  647   4.555   3.514   2.624 -0.2546 -1.6549  3.2595
   29DG      H4  648   4.428   3.477   2.521  0.3274 -1.4961  2.0763
   29DG      H5  649   4.385   3.500   2.683 -0.1365  2.2843  1.9327
   29DG      H6  650   4.000   4.142   2.337 -1.1841 -2.0959 -2.5749
   29DG      H7  651   3.973   3.972   2.340 -2.8056  3.0264 -3.2171
   29DG      H8  652   3.924   4.061   2.482 -0.4599 -0.2341 -0.7719
   29DG      O9  653   4.426   3.683   2.582 -0.0871  0.5934 -0.0561
   29DG     O10  654   4.133   4.038   2.457  0.6724 -0.0004 -0.1048
   29DG     C11  655   4.448   3.754   2.704  0.2907 -0.0717 -0.0045
   29DG     C12  656   4.159   4.118   2.572 -0.0076 -0.0648 -0.9453
   29DG     H13  657   4.543   3.725   2.750 -0.9595 -2.6242  1.1976
   29DG     H14  658   4.368   3.729   2.774  0.0354  2.3133  0.6584
   29DG     H15  659   4.085   4.090   2.647 -0.3105  1.4370 -0.6482
   29DG     H16  660   4.150   4.226   2.560 -0.6436 -0.2572 -2.4559
   29DG     C17  661   4.447   3.909   2.685 -0.2920  0.0034  0.1004
   29DG     C18  662   4.294   4.094   2.632 -0.4973  0.0932  0.1555
   29DG     O19  663   4.327   3.953   2.626  0.1749 -0.7094 -0.0888
   29DG     H20  664   4.527   3.951   2.623 -2.3005  2.8435 -0.7447
   29DG     H21  665   4.454   3.954   2.783  1.5397  2.4817 -1.0469
   29DG     H22  666   4.373   4.148   2.579  0.1003 -1.3806 -0.4928
   29DG     H23  667   4.304   4.133   2.733  1.5629 -2.0165  0.8543
   30DG      C1  668   0.904   2.394   3.688  0.1057 -0.3998 -0.3100
   30DG      C2  669   0.496   2.719   3.223  0.3349  0.3073 -0.3010
   30DG      H3  670   0.987   2.455   3.723  0.6929 -0.3531 -1.7373
   30DG      H4  671   0.908   2.413   3.581 -0.3750  1.0183 -0.0960
   30DG      H5  672   0.912   2.288   3.711 -2.4407 -0.1390  2.4907
   30DG      H6  673   0.492   2.699   3.116  1.8950 -1.0233 -0.1391
   30DG      H7  674   0.407   2.768   3.262  0.3246  1.4984 -1.7392
   30DG      H8  675   0.580   2.787   3.236 -0.1491  0.8193  0.1803
   30DG      O9  676   0.777   2.453   3.724  0.8943 -0.1212 -0.1892
   30DG     O10  677   0.531   2.603   3.293  0.3557 -0.0775 -0.4633
   30DG     C11  678   0.670   2.361   3.693  0.5713 -0.0519 -0.0719
   30DG     C12  679   0.654   2.545   3.252 -0.3792 -0.1626  0.9939
   30DG     H13  680   0.586   2.405   3.747  0.2650  1.4696 -1.7019
   30DG     H14  681   0.689   2.272   3.753 -0.2132  0.8744  1.6235
   30DG     H15  682   0.737   2.615   3.263  0.8931 -1.3627 -0.6057
   30DG     H16  683   0.650   2.531   3.144  0.7510 -1.6919  1.1291
   30DG     C17  684   0.645   2.322   3.543  0.1497 -0.9446 -0.1563
   30DG     C18  685   0.665   2.413   3.334 -0.3792  0.3565  0.7149
   30DG     O19  686   0.662   2.443   3.469 -0.2810 -0.1946  0.4726
   30DG     H20  687   0.544   2.287   3.519 -0.9692  2.5078 -1.0667
   30DG     H21  688   0.717   2.243   3.521 -0.1683 -2.0400  2.3868
   30DG     H22  689   0.582   2.346   3.312  0.2901 -0.1132 -0.5011
   30DG     H23  690   0.758   2.359   3.315  0.3006  1.7513 -0.0668
   31DG      C1  691   4.809   4.256   3.260 -0.1830 -0.1621 -0.0875
   31DG      C2  692   4.161   4.478   2.986  0.0125  0.3051 -0.0746
   31DG      H3  693   4.871   4.249   3.170 -0.9153 -2.8019 -0.4868
   31DG      H4  694   4.773   4.153   3.260  0.0050 -0.2375 -0.9306
   31DG      H5  695   4.872   4.277   3.347  0.3263 -1.3092 -0.1468
   31DG      H6  696   4.119   4.569   2.943 -0.1897 -0.6618 -2.0072
   31DG      H7  697   4.217   4.433   2.904  0.7058  2.4623 -0.8391
   31DG      H8  698   4.080   4.410   3.014 -2.0717  2.4732 -0.5210
   31DG      O9  699   4.719   4.360   3.226 -0.0535  1.1547 -0.6759
   31DG     O10  700   4.239   4.524   3.096 -0.5287  0.1777  0.0425
   31DG     C11  701   4.626   4.387   3.341  0.4124  0.1549  0.1024
   31DG     C12  702   4.340   4.615   3.055  0.2355  0.0503  0.1470
   31DG     H13  703   4.676   4.386   3.438  0.3864 -1.3426  0.1147
   31DG     H14  704   4.550   4.309   3.343  0.6678 -0.1940 -1.8305
   31DG     H15  705   4.296   4.714   3.043  0.5089  0.3946  1.7511
   31DG     H16  706   4.380   4.582   2.959 -1.5058 -0.3239 -0.4758
   31DG     C17  707   4.560   4.521   3.316  0.1049 -0.1805 -0.4919
   31DG     C18  708   4.444   4.636   3.158 -0.2698 -0.2567  0.5745
   31DG     O19  709   4.489   4.512   3.194  0.2010 -0.2533 -0.0914
   31DG     H20  710   4.639   4.596   3.315 -2.4390  2.7228  0.0848
   31DG     H21  711   4.487   4.550   3.392 -0.7119 -1.6111 -0.6981
   31DG     H22  712   4.531   4.690   3.121 -0.5525 -0.5110 -0.4764
   31DG     H23  713   4.419   4.702   3.242 -0.3834 -1.6217  1.6412
   32DG      C1  714   3.741   1.926   4.541  0.5232 -0.3043  0.1527
   32DG      C2  715   3.448   2.271   4.694 -0.4817 -0.1996 -0.1167
   32DG      H3  716   3.742   1.838   4.478 -0.8843 -0.4123  0.2575
   32DG      H4  717   3.691   1.905   4.636 -0.5014  2.2386  0.2569
   32DG      H5  718   3.836   1.969   4.574  0.3950  0.2810 -0.2185
   32DG      H6  719   3.414   2.180   4.744  1.8389  0.1241  2.3084
   32DG      H7  720   3.552   2.263   4.726 -1.2668  0.7964  3.1694
   32DG      H8  721   3.389   2.341   4.753 -1.0367 -1.3540  0.7439
   32DG      O9  722   3.673   2.033   4.473  0.1896  0.2005  0.1141
   32DG     O10  723   3.421   2.261   4.559 -0.1228  0.3564  0.3157
   32DG     C11  724   3.734   2.082   4.355 -0.9140 -0.0329  0.1184
   32DG     C12  725   3.440   2.381   4.484 -0.2885  0.2437 -0.1062
   32DG     H13  726   3.723   2.030   4.260  2.8643 -0.2951 -0.3239
   32DG     H14  727   3.843   2.089   4.366 -0.8524 -0.0579 -0.4414
   32DG     H15  728   3.533   2.420   4.526  0.8251 -1.0028 -1.3049
   32DG     H16  729   3.366   2.460   4.494  1.0205  1.6479 -1.0305
   32DG     C17  730   3.669   2.225   4.343 -0.1668  0.1422  0.3775
   32DG     C18  731   3.462   2.341   4.333 -0.0502  0.0585 -0.1009
   32DG     O19  732   3.525   2.216   4.318 -0.4497 -0.1257 -0.2034
   32DG     H20  733   3.710   2.269   4.252 -0.1204 -0.5842  0.0397
   32DG     H21  734   3.703   2.290   4.423  1.3038  0.5459 -0.5339
   32DG     H22  735   3.368   2.335   4.279  0.6810 -0.0952 -1.4083
   32DG     H23  736   3.523   2.419   4.286  1.2637 -0.5953  0.4559
   33DG      C1  737   4.629   0.730   0.634  0.2520  0.0438 -0.8040
   33DG      C2  738   4.909   1.295   1.017  0.4276 -0.0421  0.4371
   33DG      H3  739   4.597   0.626   0.628  1.0417 -0.2345 -0.2992
   33DG      H4  740   4.681   0.756   0.542  0.4616  1.5729 -0.2832
   33DG      H5  741   4.535   0.783   0.618 -0.6284 -0.7864  1.1794
   33DG      H6  742   4.841   1.365   1.066 -0.2727 -1.0236  0.9283
   33DG      H7  743   5.008   1.307   1.061  1.2515 -0.1532 -1.3126
   33DG      H8  744   4.922   1.324   0.913 -0.1684  1.1000  0.6644
   33DG      O9  745   4.703   0.772   0.751  0.1510 -0.9808  0.3136
   33DG     O10  746   4.858   1.164   1.035  0.0086  0.0123  0.5250
   33DG     C11  747   4.638   0.753   0.874 -0.1549  0.4057  0.2917
   33DG     C12  748   4.717   1.153   1.019  1.4124  0.1330 -0.3000
   33DG     H13  749   4.598   0.653   0.887 -1.2050  0.9757  1.7516
   33DG     H14  750   4.549   0.816   0.881 -1.3162 -1.2198  0.5049
   33DG     H15  751   4.694   1.183   0.917  1.4106  2.6162  0.3659
   33DG     H16  752   4.667   1.222   1.088 -4.7646 -2.8064 -1.1679
   33DG     C17  753   4.734   0.786   0.984  0.0825 -0.0119  0.3640
   33DG     C18  754   4.680   1.006   1.054 -0.9842 -0.5797  0.0478
   33DG     O19  755   4.764   0.924   0.975 -0.7760 -0.4212  0.1080
   33DG     H20  756   4.818   0.717   0.971  0.6503  1.0462 -2.1097
   33DG     H21  757   4.706   0.758   1.085 -2.9818  3.3663  0.6430
   33DG     H22  758   4.703   0.992   1.160  0.7428 -0.0504 -0.2233
   33DG     H23  759   4.576   0.984   1.030 -0.6875 -1.5232 -0.4262
   34DG      C1  760   5.147   4.212   5.291  0.3616  0.4137  0.2870
   34DG      C2  761   4.559   4.070   4.970  0.1952 -0.0471  0.7245
   34DG      H3  762   5.134   4.190   5.396  0.5281  2.1605  0.7102
   34DG      H4  763   5.106   4.313   5.283 -1.0821 -0.2011 -0.5022
   34DG      H5  764   5.252   4.202   5.261 -0.2348 -4.7703 -0.9964
   34DG      H6  765   4.490   4.007   4.914  1.8874 -0.9362 -0.4569
   34DG      H7  766   4.511   4.096   5.064 -1.9450  0.6728 -0.5059
   34DG      H8  767   4.577   4.162   4.915  0.4455  1.0356  2.5301
   34DG      O9  768   5.054   4.120   5.231  0.2917 -0.2739 -0.0780
   34DG     O10  769   4.681   3.994   4.998  0.2238 -0.2916 -0.3058
   34DG     C11  770   5.083   3.984   5.260  0.2080 -0.3093 -0.4118
   34DG     C12  771   4.657   3.882   5.072  0.4155 -0.0100 -0.1115
   34DG     H13  772   5.085   3.961   5.366  0.9773  3.4446  0.5239
   34DG     H14  773   5.189   3.967   5.243  0.0728 -3.6575  1.2850
   34DG     H15  774   4.589   3.816   5.017  0.7164  0.6327 -1.2730
   34DG     H16  775   4.602   3.904   5.163 -0.0657  2.9474 -1.0335
   34DG     C17  776   5.007   3.879   5.180 -0.1156 -0.5687 -0.8024
   34DG     C18  777   4.797   3.822   5.094 -0.0972 -0.5252 -0.5073
   34DG     O19  778   4.874   3.918   5.164 -0.3128 -0.1986  0.3112
   34DG     H20  779   5.004   3.789   5.241 -4.0762  0.8466  1.4615
   34DG     H21  780   5.042   3.886   5.077 -2.1163  0.5088 -1.4730
   34DG     H22  781   4.775   3.732   5.151 -2.5825  1.3616  1.7597
   34DG     H23  782   4.849   3.808   4.999 -0.6628  0.4776 -0.9774
   35DG      C1  783   5.497   4.411   4.656 -0.2898 -0.0962 -0.1750
   35DG      C2  784   5.372   3.750   4.697 -0.1519  0.0011 -0.1261
   35DG      H3  785   5.392   4.438   4.643 -0.5529 -0.5936  0.8609
   35DG      H4  786   5.527   4.380   4.556 -0.9808 -1.4416  0.0231
   35DG      H5  787   5.559   4.493   4.693 -0.6870  1.1629 -2.1259
   35DG      H6  788   5.453   3.721   4.630 -0.1869  1.9191 -1.0613
   35DG      H7  789   5.325   3.670   4.754  1.0837 -0.9165 -0.3257
   35DG      H8  790   5.300   3.798   4.632 -0.2612 -0.3313 -0.2530
   35DG      O9  791   5.522   4.296   4.739 -0.3679 -1.0986 -0.1261
   35DG     O10  792   5.431   3.837   4.791  0.1738 -0.2733 -0.2418
   35DG     C11  793   5.455   4.319   4.862 -0.3545  0.2859 -0.2895
   35DG     C12  794   5.342   3.862   4.896 -0.1685 -0.1435 -0.1051
   35DG     H13  795   5.347   4.312   4.852 -0.2212 -2.1480 -0.8699
   35DG     H14  796   5.491   4.411   4.907  0.3712 -0.1500  0.0473
   35DG     H15  797   5.339   3.772   4.956 -0.1136 -1.5411 -2.0993
   35DG     H16  798   5.241   3.891   4.868 -0.4814 -0.5837  0.5741
   35DG     C17  799   5.487   4.196   4.948  0.5004 -0.6769 -0.2790
   35DG     C18  800   5.395   3.977   4.973 -0.8601  0.3936 -0.1579
   35DG     O19  801   5.427   4.082   4.889 -0.0512 -0.3187 -0.5301
   35DG     H20  802   5.437   4.211   5.044 -0.5357 -3.6324 -0.2499
   35DG     H21  803   5.594   4.179   4.959  1.7458  3.3615 -3.4617
   35DG     H22  804   5.317   4.006   5.043 -2.2672  0.8729 -1.8579
   35DG     H23  805   5.487   3.955   5.027 -0.3579  0.7472 -0.8517
   36DG      C1  806   5.318   0.669   2.834  0.9233 -0.0593 -0.0963
   36DG      C2  807   4.869   0.211   2.914 -0.9389  0.6779 -1.0291
   36DG      H3  808   5.369   0.575   2.812  0.9331 -0.3043  0.9212
   36DG      H4  809   5.395   0.745   2.847  0.7686 -0.0295  0.6933
   36DG      H5  810   5.249   0.704   2.757 -1.1206  3.1795  2.8942
   36DG      H6  811   4.798   0.154   2.973 -0.5485  1.6028  0.3743
   36DG      H7  812   4.825   0.222   2.814 -0.2391  0.4720 -1.3679
   36DG      H8  813   4.959   0.151   2.903 -2.2505 -1.8645  1.0468
   36DG      O9  814   5.224   0.650   2.940 -0.5537 -0.2089 -0.0861
   36DG     O10  815   4.896   0.328   2.993  0.3037 -0.0679  0.2421
   36DG     C11  816   5.284   0.628   3.066 -0.4962  0.3840 -0.1102
   36DG     C12  817   4.961   0.298   3.116 -0.7644 -0.2631 -0.2121
   36DG     H13  818   5.345   0.712   3.100  0.4323  0.1678 -1.1656
   36DG     H14  819   5.357   0.547   3.065 -0.5037  0.3190  1.5635
   36DG     H15  820   5.036   0.222   3.096  0.8154  0.6005  2.0928
   36DG     H16  821   4.896   0.249   3.188 -0.5148  0.6567  0.6669
   36DG     C17  822   5.172   0.597   3.169 -0.3007  0.0857  0.5247
   36DG     C18  823   5.007   0.431   3.178  0.8010  0.1471 -0.3770
   36DG     O19  824   5.126   0.475   3.116  0.6330 -0.4705 -0.3490
   36DG     H20  825   5.089   0.668   3.173 -0.5724 -0.2370  0.7361
   36DG     H21  826   5.219   0.581   3.265 -1.7127 -1.8884  0.9621
   36DG     H22  827   4.934   0.511   3.163 -1.1659 -1.0982  1.9553
   36DG     H23  828   5.026   0.424   3.285  0.4005  1.7465 -0.1710
   37DG      C1  829   5.053   0.875   3.397 -0.7134 -0.2472 -0.3131
   37DG      C2  830   5.677   0.629   3.002  0.3078 -0.3455 -0.4049
   37DG      H3  831   5.006   0.881   3.495 -0.6027 -0.3057 -0.2560
   37DG      H4  832   5.020   0.780   3.355 -1.2110 -0.1122 -0.2393
   37DG      H5  833   5.025   0.963   3.338  1.8971  1.4265  0.7689
   37DG      H6  834   5.682   0.726   2.952 -0.8669 -0.0793 -0.0212
   37DG      H7  835   5.780   0.593   3.009  0.5981  0.3339 -1.0017
   37DG      H8  836   5.616   0.555   2.952 -1.6640  2.2162 -2.0446
   37DG      O9  837   5.198   0.874   3.417  0.4470 -0.9483 -0.6234
   37DG     O10  838   5.620   0.646   3.134  0.2244  0.3677 -0.4155
   37DG     C11  839   5.239   0.770   3.503 -0.1552 -0.3508 -0.3085
   37DG     C12  840   5.627   0.776   3.185  0.1152 -0.9317  0.3528
   37DG     H13  841   5.189   0.674   3.491 -1.7626  0.5810 -1.5373
   37DG     H14  842   5.198   0.798   3.600 -2.8764 -0.3937 -1.3319
   37DG     H15  843   5.560   0.846   3.136 -3.6178 -2.8913  2.2217
   37DG     H16  844   5.732   0.804   3.184  0.5666 -2.5399 -0.6652
   37DG     C17  845   5.394   0.767   3.486  0.6460 -0.5440 -0.0673
   37DG     C18  846   5.578   0.781   3.337  0.1256 -0.1764 -0.0337
   37DG     O19  847   5.436   0.770   3.349 -0.8482  0.2125  0.0770
   37DG     H20  848   5.421   0.674   3.536 -0.8454  0.4210  2.7629
   37DG     H21  849   5.440   0.845   3.547 -0.3887 -0.3829  0.5275
   37DG     H22  850   5.640   0.706   3.386  0.7113 -0.5433 -1.3032
   37DG     H23  851   5.616   0.870   3.388  1.2022 -0.5790 -0.1254
   38DG      C1  852   4.213   5.350   0.290  0.4244 -0.6380 -0.0692
   38DG      C2  853   4.301   5.282  -0.346  0.7053 -0.2541  0.3754
   38DG      H3  854   4.107   5.375   0.285 -0.1657 -2.8740  0.4718
   38DG      H4  855   4.265   5.444   0.270  0.5817 -0.7363 -0.1216
   38DG      H5  856   4.231   5.324   0.395  0.0728  1.7584  0.6436
   38DG      H6  857   4.280   5.184  -0.303 -2.1793 -0.0353 -0.3163
   38DG      H7  858   4.200   5.317  -0.366  0.0733 -1.8056  0.7096
   38DG      H8  859   4.345   5.289  -0.446 -2.1646  2.7670 -0.8691
   38DG      O9  860   4.265   5.245   0.208  0.2994  0.6017 -0.0434
   38DG     O10  861   4.371   5.362  -0.250 -0.2597 -0.4088  0.1581
   38DG     C11  862   4.398   5.209   0.225  0.3312  0.4060  0.3462
   38DG     C12  863   4.496   5.306  -0.210 -0.2832 -0.1689  0.7000
   38DG     H13  864   4.407   5.145   0.313  3.0763  1.2987  0.8048
   38DG     H14  865   4.458   5.297   0.245 -1.1389  1.0930  1.9345
   38DG     H15  866   4.550   5.388  -0.163  0.4878  0.0730 -0.5658
   38DG     H16  867   4.547   5.285  -0.304 -0.0667  1.6417  0.3712
   38DG     C17  868   4.450   5.133   0.097 -0.6542 -0.1303 -0.0929
   38DG     C18  869   4.499   5.181  -0.125 -0.1673  0.2427  0.2521
   38DG     O19  870   4.458   5.235  -0.005 -0.5534  0.0852  0.2487
   38DG     H20  871   4.378   5.057   0.067 -0.6349  0.6228 -2.2073
   38DG     H21  872   4.552   5.102   0.120 -0.3845  0.4649 -0.4654
   38DG     H22  873   4.434   5.102  -0.162  0.8673 -0.2709 -0.5002
   38DG     H23  874   4.597   5.135  -0.113 -0.6687 -0.7328  0.7381
   39DG      C1  875   4.768   0.370   0.939 -0.3678  0.0233 -0.3228
   39DG      C2  876   5.127   0.122   1.415 -0.1739 -1.1084 -0.2464
   39DG      H3  877   4.817   0.274   0.924 -2.0126 -1.1367  1.3183
   39DG      H4  878   4.839   0.453   0.933  0.8493 -0.9623  0.0904
   39DG      H5  879   4.690   0.379   0.863 -1.5684  0.0654  0.8731
   39DG      H6  880   5.206   0.197   1.409 -0.8670 -0.0323  2.6234
   39DG      H7  881   5.145   0.076   1.512 -0.4377 -0.5341  0.0779
   39DG      H8  882   5.145   0.031   1.358 -0.2211 -3.0131  2.5757
   39DG      O9  883   4.728   0.397   1.074 -0.1467  0.0962  0.0747
   39DG     O10  884   4.995   0.172   1.391 -0.5660 -0.1606 -0.0527
   39DG     C11  885   4.660   0.291   1.135  0.4076 -0.3435 -0.1176
   39DG     C12  886   4.946   0.259   1.496 -0.4267  0.1209 -0.2410
   39DG     H13  887   4.705   0.193   1.120  0.2923 -0.7634  1.9739
   39DG     H14  888   4.558   0.281   1.097  0.2716 -0.4076  0.2587
   39DG     H15  889   4.985   0.361   1.502 -2.2010  0.7883  0.7850
   39DG     H16  890   4.962   0.225   1.598  0.7731  0.9197 -0.1364
   39DG     C17  891   4.643   0.326   1.283 -0.0638 -0.1097  0.0203
   39DG     C18  892   4.802   0.288   1.474  0.4837 -0.2831  0.5191
   39DG     O19  893   4.776   0.316   1.332 -0.1260 -1.0551  0.2090
   39DG     H20  894   4.587   0.242   1.324  0.1322 -0.3133 -0.1344
   39DG     H21  895   4.585   0.419   1.287  2.0701  1.2822  0.0291
   39DG     H22  896   4.748   0.200   1.508  0.2516 -0.3660 -0.0509
   39DG     H23  897   4.757   0.368   1.533 -4.1913 -0.8861 -1.7115
   40DG      C1  898   3.899   3.887   3.407  0.3337 -0.2770 -0.0439
   40DG      C2  899   4.321   3.983   3.896  0.2291 -0.2582 -0.0188
   40DG      H3  900   3.806   3.913   3.356  0.2124 -1.1695 -0.2958
   40DG      H4  901   3.883   3.781   3.429  1.4900 -0.5483 -0.4511
   40DG      H5  902   3.982   3.904   3.339  1.2424  0.2569  1.1762
   40DG      H6  903   4.310   3.878   3.869  3.5190 -0.2533 -1.8312
   40DG      H7  904   4.387   4.029   3.823  1.8606 -2.5101 -0.0900
   40DG      H8  905   4.368   3.993   3.994  1.0919 -0.6363 -0.3842
   40DG      O9  906   3.902   3.964   3.532 -0.1469 -0.2347 -0.1475
   40DG     O10  907   4.189   4.025   3.884  0.0993 -0.0373  0.1673
   40DG     C11  908   3.794   3.947   3.625 -0.2578 -0.2849 -1.2484
   40DG     C12  909   4.089   3.973   3.975 -0.2142  0.3800 -0.4804
   40DG     H13  910   3.792   3.839   3.645 -0.8671 -0.3915 -1.8736
   40DG     H14  911   3.697   3.969   3.580 -0.2909 -1.8308 -1.9944
   40DG     H15  912   4.114   3.989   4.079 -0.5878 -0.2639 -0.2829
   40DG     H16  913   4.093   3.865   3.960  1.8757  0.3791 -0.2181
   40DG     C17  914   3.801   4.011   3.761  0.0043 -0.4163 -0.1856
   40DG     C18  915   3.950   4.028   3.944  0.5681  0.1970 -0.3347
   40DG     O19  916   3.923   3.973   3.818 -0.2469 -0.3471  0.2442
   40DG     H20  917   3.721   3.963   3.817  0.4407  0.9538  1.6949
   40DG     H21  918   3.792   4.119   3.769 -0.8457 -0.5154  0.2931
   40DG     H22  919   3.876   3.999   4.019  1.3428 -1.8862 -0.3333
   40DG     H23  920   3.957   4.137   3.939 -1.1256  0.3434 -0.2912
   41DG      C1  921   5.204   5.189   0.775 -0.4427  0.7117 -0.1234
   41DG      C2  922   5.514   5.662   0.884  0.7687 -0.0928  0.1870
   41DG      H3  923   5.298   5.211   0.725 -0.8882 -1.4875 -2.1153
   41DG      H4  924   5.193   5.081   0.781 -0.6284  0.5656 -2.2258
   41DG      H5  925   5.196   5.219   0.879 -1.4125 -0.9374  0.3086
   41DG      H6  926   5.498   5.559   0.916  0.7489 -0.3372 -0.5990
   41DG      H7  927   5.621   5.681   0.872  0.6187 -0.0120 -1.2248
   41DG      H8  928   5.469   5.733   0.954  0.4773 -0.4739  0.3894
   41DG      O9  929   5.084   5.217   0.701 -0.3719 -0.1044  0.8906
   41DG     O10  930   5.441   5.675   0.763  0.3489 -0.2017 -0.7027
   41DG     C11  931   5.041   5.354   0.696 -0.1164  0.5694 -0.1823
   41DG     C12  932   5.469   5.569   0.671 -0.0953  0.2872  0.4306
   41DG     H13  933   5.011   5.394   0.793  3.7264  1.0161  0.9694
   41DG     H14  934   4.949   5.345   0.638  0.5358  1.1612 -1.3358
   41DG     H15  935   5.517   5.481   0.714 -1.3415 -0.7532 -0.2360
   41DG     H16  936   5.546   5.604   0.603 -1.5911  1.2025 -0.8395
   41DG     C17  937   5.122   5.452   0.617  0.2507  0.2367 -0.5285
   41DG     C18  938   5.343   5.532   0.592 -0.1351 -1.2474 -0.0620
   41DG     O19  939   5.253   5.457   0.675 -0.8097 -0.1022  0.1730
   41DG     H20  940   5.083   5.553   0.628  1.5601  0.7803 -0.7042
   41DG     H21  941   5.124   5.431   0.510  2.5833 -1.4035 -0.2261
   41DG     H22  942   5.298   5.624   0.554  0.6818 -0.8363 -0.0533
   41DG     H23  943   5.366   5.468   0.507 -0.5810 -1.5328  0.0248
   42DG      C1  944   1.416   4.521   5.494 -0.7057 -0.0712 -0.5382
   42DG      C2  945   1.562   4.018   5.160 -0.9120 -0.5113 -0.1959
   42DG      H3  946   1.399   4.561   5.594  1.1853 -1.1304  0.2727
   42DG      H4  947   1.523   4.513   5.478 -0.7525  0.2618 -1.0248
   42DG      H5  948   1.366   4.424   5.499  0.5250 -0.7688 -1.2127
   42DG      H6  949   1.649   3.986   5.218 -0.8098 -1.1166 -0.6774
   42DG      H7  950   1.466   3.982   5.196 -1.8831  1.0698 -1.0870
   42DG      H8  951   1.579   3.975   5.062  2.1472 -0.1172  0.0602
   42DG      O9  952   1.350   4.610   5.408  0.4754  0.2290 -0.1196
   42DG     O10  953   1.548   4.159   5.152  0.0014  0.1160 -0.0960
   42DG     C11  954   1.330   4.558   5.273  0.0377  0.0212 -0.3653
   42DG     C12  955   1.666   4.237   5.138  0.1192  0.2176  0.3870
   42DG     H13  956   1.255   4.629   5.236 -0.6514 -0.3025  0.3737
   42DG     H14  957   1.283   4.460   5.279 -0.8163  0.4291 -0.2046
   42DG     H15  958   1.720   4.197   5.052 -1.3314 -0.1518 -0.3852
   42DG     H16  959   1.726   4.230   5.230  1.4845 -0.8793 -0.5421
   42DG     C17  960   1.457   4.551   5.182 -0.5079 -0.1949  0.1301
   42DG     C18  961   1.617   4.378   5.111  0.3805  0.3687 -0.5359
   42DG     O19  962   1.534   4.436   5.218  0.3338  0.1161  0.3417
   42DG     H20  963   1.527   4.635   5.190  1.0994 -1.2021 -2.2053
   42DG     H21  964   1.447   4.552   5.073 -0.3060  1.0646  0.1012
   42DG     H22  965   1.703   4.438   5.081 -0.7584  1.4550 -1.7750
   42DG     H23  966   1.562   4.367   5.017 -0.1758  2.9522 -0.6056
   43DG      C1  967   4.358   3.114   0.853  0.3106  0.6852 -0.9165
   43DG      C2  968   4.159   2.390   0.533 -0.1054  0.3809  0.3929
   43DG      H3  969   4.320   3.214   0.873  0.9829  0.8122 -0.1929
   43DG      H4  970   4.455   3.110   0.803  2.0214  0.6126  2.1629
   43DG      H5  971   4.380   3.084   0.956  1.3404  0.6083 -1.1460
   43DG      H6  972   4.177   2.344   0.630 -0.1092  0.2240  0.3178
   43DG      H7  973   4.099   2.330   0.465  0.1806 -1.7759  1.9614
   43DG      H8  974   4.245   2.414   0.471  0.3927 -2.4316 -0.1149
   43DG      O9  975   4.281   3.019   0.784 -0.0206 -0.5465 -0.2569
   43DG     O10  976   4.071   2.496   0.576 -0.3120  0.1650 -0.6368
   43DG     C11  977   4.160   3.005   0.855  0.4695 -0.5518  0.2975
   43DG     C12  978   4.122   2.587   0.677 -0.2877  0.0411  0.2607
   43DG     H13  979   4.115   3.102   0.875 -0.1623 -0.9315  0.7471
   43DG     H14  980   4.169   2.941   0.943 -0.3322 -0.5098  0.4149
   43DG     H15  981   4.230   2.593   0.674 -0.3707  1.7016 -0.1764
   43DG     H16  982   4.101   2.541   0.774  4.7109 -1.1373  1.0432
   43DG     C17  983   4.065   2.935   0.765 -0.2363  0.5420  0.4629
   43DG     C18  984   4.055   2.724   0.671  0.7168  0.4203 -0.3414
   43DG     O19  985   4.119   2.807   0.762 -0.2988  0.6848 -0.4076
   43DG     H20  986   4.072   2.980   0.666  0.4449  0.7496  0.5988
   43DG     H21  987   3.961   2.924   0.795  0.3772 -2.6825  1.8417
   43DG     H22  988   4.056   2.763   0.569  0.5066  1.1489 -0.0744
   43DG     H23  989   3.948   2.717   0.692  1.1197  1.5916  2.5568
   44DG      C1  990   3.211   0.539   3.347  0.3137 -0.8638  0.4046
   44DG      C2  991   2.965   0.191   2.798 -0.4175 -0.3576  0.4389
   44DG      H3  992   3.169   0.454   3.401 -2.7089  0.7648  0.8449
   44DG      H4  993   3.165   0.631   3.383 -2.8446 -1.9542 -0.4239
   44DG      H5  994   3.319   0.538   3.359  0.4769 -1.3237 -0.8985
   44DG      H6  995   2.936   0.117   2.872 -2.3516 -0.9527 -0.8433
   44DG      H7  996   2.876   0.193   2.736 -0.7447  2.2859  0.8878
   44DG      H8  997   3.047   0.148   2.741 -1.3203  0.7287 -1.7990
   44DG      O9  998   3.180   0.524   3.208 -0.0995  0.1209 -0.0914
   44DG     O10  999   2.999   0.313   2.856 -0.0507  0.3110  0.4158
   44DG     C11 1000   3.203   0.639   3.126 -1.0902  0.2195 -0.4467
   44DG     C12 1001   3.018   0.413   2.759  0.1000  0.2169  0.2788
   44DG     H13 1002   3.304   0.675   3.148 -0.6214 -1.7744  0.9498
   44DG     H14 1003   3.142   0.724   3.156  1.2909  1.6137  0.8289
   44DG     H15 1004   2.963   0.394   2.667  0.5576  0.4586 -0.0475
   44DG     H16 1005   3.124   0.417   2.731 -0.4886 -1.0142 -2.4494
   44DG     C17 1006   3.178   0.606   2.979  0.0640  0.1721 -0.7161
   44DG     C18 1007   2.987   0.551   2.835 -0.5126 -0.1240 -0.4496
   44DG     O19 1008   3.041   0.558   2.968 -0.6433 -0.4403 -0.7302
   44DG     H20 1009   3.248   0.544   2.925  0.4154  1.4258 -1.7601
   44DG     H21 1010   3.192   0.703   2.930  0.2280  1.4344  1.6700
   44DG     H22 1011   3.007   0.643   2.779 -2.4002  1.5879  1.4668
   44DG     H23 1012   2.881   0.558   2.862 -0.3545 -3.3512  1.4627
   45DG      C1 1013   2.590   2.507   3.318  0.2800  1.0159 -0.1531
   45DG      C2 1014   2.650   3.152   3.715 -0.1325  0.4552  0.2603
   45DG      H3 1015   2.493   2.507   3.268 -0.3432 -1.8396  0.8792
   45DG      H4 1016   2.592   2.417   3.379  1.2562  1.0499 -0.1323
   45DG      H5 1017   2.659   2.481   3.238 -0.4558  1.8069 -1.0741
   45DG      H6 1018   2.564   3.143   3.781 -1.8373  2.8079 -1.4912
   45DG      H7 1019   2.725   3.204   3.776 -1.2591  1.8019  0.5561
   45DG      H8 1020   2.617   3.221   3.638 -2.6250 -0.9452 -0.0054
   45DG      O9 1021   2.645   2.624   3.381  0.7846  0.1014  0.1953
   45DG     O10 1022   2.688   3.036   3.646 -0.5750  0.1079 -0.1828
   45DG     C11 1023   2.598   2.755   3.335 -0.3583 -0.7114 -0.4169
   45DG     C12 1024   2.826   3.023   3.614 -0.1901 -0.2223 -0.1673
   45DG     H13 1025   2.490   2.755   3.325 -0.4848 -0.4078  0.7997
   45DG     H14 1026   2.630   2.771   3.232 -1.5164  2.3412 -0.3978
   45DG     H15 1027   2.876   3.039   3.710 -0.8342 -0.5619  0.2324
   45DG     H16 1028   2.856   3.109   3.555 -4.0980  1.7391  0.3950
   45DG     C17 1029   2.640   2.874   3.425 -0.4489  0.5288  0.2911
   45DG     C18 1030   2.849   2.887   3.544 -0.3023 -0.2159  0.2072
   45DG     O19 1031   2.781   2.879   3.422  0.2123 -0.0639  0.3658
   45DG     H20 1032   2.595   2.850   3.522 -3.3213 -1.2316 -1.3520
   45DG     H21 1033   2.599   2.970   3.397  0.7868  0.7495 -0.8290
   45DG     H22 1034   2.954   2.877   3.514 -1.0532 -2.6677 -2.0072
   45DG     H23 1035   2.818   2.807   3.611  0.1059 -0.2010  0.4186
   46DG      C1 1036   0.200   2.510   3.498 -0.0876  0.3752 -0.8897
   46DG      C2 1037  -0.173   1.942   3.153  0.0184  0.3127  0.3539
   46DG      H3 1038   0.142   2.480   3.585 -0.4444  1.0471 -0.8889
   46DG      H4 1039   0.201   2.619   3.494  1.0212  0.5223  1.5276
   46DG      H5 1040   0.299   2.467   3.514  0.6956  2.4377  0.2939
   46DG      H6 1041  -0.240   1.917   3.071 -1.0763 -1.9897  1.8094
   46DG      H7 1042  -0.107   1.861   3.185 -1.0156 -0.7051 -0.0003
   46DG      H8 1043  -0.240   1.942   3.239  0.5592 -0.3063  0.7859
   46DG      O9 1044   0.137   2.449   3.378 -0.0798 -0.7929  0.1459
   46DG     O10 1045  -0.121   2.076   3.145 -0.1817  0.3140  0.0694
   46DG     C11 1046   0.204   2.484   3.260 -0.4013  0.0795  0.3443
   46DG     C12 1047   0.000   2.076   3.073  0.1055 -0.4284 -0.1622
   46DG     H13 1048   0.306   2.446   3.266 -1.2919 -2.4708  0.9277
   46DG     H14 1049   0.194   2.591   3.242 -4.7794 -0.0475  0.7813
   46DG     H15 1050  -0.013   2.023   2.979 -0.0268  0.4186 -0.6334
   46DG     H16 1051   0.069   2.021   3.138 -0.6855  0.0407  1.1152
   46DG     C17 1052   0.137   2.415   3.134  0.3356  0.2062 -0.4690
   46DG     C18 1053   0.056   2.214   3.039 -0.6659  0.2525 -0.6128
   46DG     O19 1054   0.114   2.276   3.151  0.5250 -0.1237 -0.0271
   46DG     H20 1055   0.201   2.422   3.046  0.1175 -1.7251 -0.8289
   46DG     H21 1056   0.042   2.465   3.115 -0.0729  0.3388  1.6965
   46DG     H22 1057   0.148   2.199   2.982 -1.3851 -2.3999 -1.1908
   46DG     H23 1058  -0.021   2.270   2.986 -0.2927 -0.9886 -2.5496
   47DG      C1 1059   1.930   2.683   2.471 -0.6184  0.7914  0.2187
   47DG      C2 1060   2.246   2.147   2.996 -0.0175 -0.0757 -0.3071
   47DG      H3 1061   1.976   2.727   2.382 -2.5269 -0.1504 -1.3221
   47DG      H4 1062   1.855   2.751   2.510 -2.1609  0.1108 -1.4036
   47DG      H5 1063   1.875   2.593   2.444 -0.4046  0.7164  0.0237
   47DG      H6 1064   2.343   2.127   2.950 -0.0337 -2.0785  0.4359
   47DG      H7 1065   2.259   2.106   3.096 -1.4499 -1.2239 -0.5559
   47DG      H8 1066   2.169   2.090   2.944 -0.3244  0.3905 -0.3685
   47DG      O9 1067   2.024   2.644   2.577 -0.0053  0.3070 -0.2139
   47DG     O10 1068   2.209   2.286   3.005  0.1720  0.2462 -0.5312
   47DG     C11 1069   2.090   2.749   2.642  0.6219 -0.6084  0.9422
   47DG     C12 1070   2.207   2.355   2.880 -0.1737  0.1487  0.5958
   47DG     H13 1071   2.016   2.828   2.658  0.0836 -0.2934 -2.3540
   47DG     H14 1072   2.167   2.786   2.574 -1.0747  0.8507 -0.3194
   47DG     H15 1073   2.133   2.320   2.807  0.1136  3.1746 -1.2985
   47DG     H16 1074   2.304   2.345   2.831  0.0223  2.6311  0.3842
   47DG     C17 1075   2.136   2.703   2.776 -0.9426  0.6061  0.1600
   47DG     C18 1076   2.194   2.503   2.907 -0.2276 -0.1646  0.5560
   47DG     O19 1077   2.194   2.573   2.780 -0.4692 -0.2257  0.5866
   47DG     H20 1078   2.040   2.686   2.824 -0.2106 -1.3693  1.0527
   47DG     H21 1079   2.187   2.778   2.836  0.1923  0.5628 -0.7037
   47DG     H22 1080   2.103   2.518   2.964  0.2619 -0.4245  1.4326
   47DG     H23 1081   2.275   2.540   2.970 -0.7397 -0.6796  1.5271
   48DG      C1 1082   3.149   0.207   4.225 -0.1771  0.5016 -0.7153
   48DG      C2 1083   3.886   0.027   4.479  0.6514 -0.0052 -0.2328
   48DG      H3 1084   3.169   0.281   4.146  1.2207 -1.1568 -1.9968
   48DG      H4 1085   3.174   0.264   4.314 -3.9874  1.5185 -0.1335
   48DG      H5 1086   3.045   0.177   4.235  0.4238 -0.8992  2.4979
   48DG      H6 1087   3.933   0.112   4.428  3.1517 -1.0151  0.2929
   48DG      H7 1088   3.855   0.061   4.578  0.4869  0.1853 -0.3482
   48DG      H8 1089   3.958  -0.053   4.494  0.1740 -0.4105 -0.0944
   48DG      O9 1090   3.226   0.091   4.196 -0.1098  0.2972 -0.1588
   48DG     O10 1091   3.774  -0.006   4.399  0.1856  0.3009 -0.2653
   48DG     C11 1092   3.366   0.124   4.165 -0.6488 -0.0578  0.0587
   48DG     C12 1093   3.798  -0.061   4.271  0.6221  0.1777  0.3464
   48DG     H13 1094   3.400   0.208   4.226 -0.2375 -0.4591  0.3903
   48DG     H14 1095   3.368   0.174   4.068 -2.1693  0.9725  0.5252
   48DG     H15 1096   3.864  -0.148   4.275 -0.1709 -0.4595  0.0316
   48DG     H16 1097   3.855   0.012   4.214  1.6380  0.2136  1.3848
   48DG     C17 1098   3.453  -0.004   4.173  0.3996 -0.3675 -0.0715
   48DG     C18 1099   3.669  -0.088   4.188 -0.1018 -0.5424  0.0853
   48DG     O19 1100   3.590   0.026   4.171  0.0091  0.1274  0.7851
   48DG     H20 1101   3.423  -0.082   4.103  0.2542  1.0003 -1.5702
   48DG     H21 1102   3.426  -0.046   4.270  2.4621 -2.0056 -0.1167
   48DG     H22 1103   3.693  -0.134   4.092  1.0759 -0.3376  0.2667
   48DG     H23 1104   3.612  -0.155   4.251 -1.9061  0.4696 -0.3886
   49DG      C1 1105   0.261   5.180   2.614  0.3849  0.4402 -0.2584
   49DG      C2 1106   0.720   4.857   3.076 -0.7109  0.2781  0.1577
   49DG      H3 1107   0.223   5.282   2.610 -0.3225  0.2330  0.8616
   49DG      H4 1108   0.178   5.112   2.599  0.4389  0.8316 -2.8002
   49DG      H5 1109   0.325   5.148   2.532 -0.0039 -0.5270 -0.1921
   49DG      H6 1110   0.668   4.777   3.129 -0.5611 -1.0261 -1.6031
   49DG      H7 1111   0.779   4.814   2.995  0.2254 -2.0810  1.9635
   49DG      H8 1112   0.789   4.897   3.151  0.3238 -1.1255 -0.0175
   49DG      O9 1113   0.327   5.142   2.731 -0.1470  0.3981 -0.3918
   49DG     O10 1114   0.634   4.968   3.043 -0.2595  0.7098 -0.0608
   49DG     C11 1115   0.429   5.230   2.762 -0.3386  0.5284 -0.1128
   49DG     C12 1116   0.514   4.977   3.116 -0.8886  0.2163  0.1994
   49DG     H13 1117   0.386   5.329   2.772 -1.1313  0.2153 -0.3947
   49DG     H14 1118   0.496   5.226   2.677  3.7849  0.7408  2.8190
   49DG     H15 1119   0.511   4.938   3.217 -2.7416 -1.2061 -0.3433
   49DG     H16 1120   0.438   4.918   3.064 -0.8957  2.3664 -2.4517
   49DG     C17 1121   0.507   5.180   2.885 -0.1664 -0.9936  0.4567
   49DG     C18 1122   0.459   5.117   3.118 -0.1715  0.6143  0.2837
   49DG     O19 1123   0.413   5.169   2.996  0.4482  0.5312  0.2155
   49DG     H20 1124   0.573   5.261   2.918 -3.4437  1.7957  0.7093
   49DG     H21 1125   0.555   5.087   2.855 -1.9684 -1.5532 -0.8209
   49DG     H22 1126   0.374   5.123   3.186 -1.0900 -0.8868 -0.6815
   49DG     H23 1127   0.530   5.196   3.144 -0.1065  0.4384  0.6361
   50DG      C1 1128   4.526   2.139   2.745  0.2715  0.3357  0.1988
   50DG      C2 1129   3.874   1.878   3.148 -0.0871 -0.1461  0.0597
   50DG      H3 1130   4.571   2.238   2.742 -0.8796  0.8461 -1.4360
   50DG      H4 1131   4.541   2.103   2.643 -0.4305 -0.9633  0.5378
   50DG      H5 1132   4.579   2.077   2.817 -1.7764 -1.4396  0.2519
   50DG      H6 1133   3.819   1.937   3.221  0.8278  1.8558 -0.7962
   50DG      H7 1134   3.801   1.822   3.090 -0.8871  0.6433  0.2745
   50DG      H8 1135   3.928   1.805   3.208  0.2859 -0.2525 -0.4019
   50DG      O9 1136   4.389   2.141   2.776 -0.1136 -0.3353  0.1283
   50DG     O10 1137   3.959   1.946   3.060 -0.0162  0.0123  0.2758
   50DG     C11 1138   4.326   2.012   2.775 -0.8202 -0.4988  0.2524
   50DG     C12 1139   4.041   2.053   3.118 -0.0739  0.1049  0.6350
   50DG     H13 1140   4.377   1.929   2.824  0.1728 -0.7953 -1.2031
   50DG     H14 1141   4.316   1.966   2.676  0.7372 -0.9128  0.2603
   50DG     H15 1142   4.128   2.001   3.158  1.4827 -0.1688 -2.7765
   50DG     H16 1143   3.991   2.116   3.192  0.0888  0.1588  0.7011
   50DG     C17 1144   4.192   2.019   2.847  0.1771  0.0058  0.1193
   50DG     C18 1145   4.085   2.151   3.010 -0.5942 -0.4315 -0.1750
   50DG     O19 1146   4.205   2.107   2.963  0.2743  0.2401 -0.0540
   50DG     H20 1147   4.165   1.918   2.878  0.4612 -0.8116 -2.1619
   50DG     H21 1148   4.117   2.051   2.775  2.3047 -0.5249 -2.4966
   50DG     H22 1149   4.007   2.177   2.938 -1.3054 -2.4839 -0.2281
   50DG     H23 1150   4.117   2.238   3.067  0.5250 -1.1347  0.3143
   51DG      C1 1151   1.623   0.294   2.907 -0.4354 -0.1793 -0.0048
   51DG      C2 1152   1.371   0.996   2.757  0.3987 -0.6444 -0.2848
   51DG      H3 1153   1.572   0.198   2.913 -2.3985  0.6977 -1.7143
   51DG      H4 1154   1.728   0.286   2.936  0.1498  0.1916 -1.9158
   51DG      H5 1155   1.626   0.336   2.807 -1.5727  2.7707  1.0675
   51DG      H6 1156   1.270   1.034   2.745  0.2907 -0.1502  1.8233
   51DG      H7 1157   1.437   1.065   2.809  1.7622 -2.3610  0.3406
   51DG      H8 1158   1.425   0.984   2.663  2.0300 -1.4827  0.7084
   51DG      O9 1159   1.554   0.387   2.994 -0.4559 -0.1863 -0.5772
   51DG     O10 1160   1.370   0.862   2.807  0.3444 -0.3495 -0.4120
   51DG     C11 1161   1.605   0.515   2.978  0.4336 -0.2707  0.3231
   51DG     C12 1162   1.329   0.864   2.939  0.0638  0.3639  0.0783
   51DG     H13 1163   1.603   0.541   2.872 -0.2563 -1.4646  0.0267
   51DG     H14 1164   1.711   0.522   3.002  0.5649  1.3626 -0.5537
   51DG     H15 1165   1.244   0.930   2.955  0.8136  1.4358 -0.2672
   51DG     H16 1166   1.409   0.901   3.003 -1.0757 -0.5576  2.1399
   51DG     C17 1167   1.511   0.623   3.040  0.5978 -0.5127 -0.2752
   51DG     C18 1168   1.297   0.727   2.997  0.0794 -0.4914  0.2382
   51DG     O19 1169   1.399   0.638   2.951  0.1999  0.4364 -0.1604
   51DG     H20 1170   1.563   0.718   3.044  1.7827 -1.0584 -1.8166
   51DG     H21 1171   1.478   0.593   3.139 -0.1781 -1.4659 -0.8067
   51DG     H22 1172   1.285   0.720   3.106  0.7814  0.2500  0.3761
   51DG     H23 1173   1.208   0.686   2.949 -0.5677  2.1380 -0.9503
   52DG      C1 1174   4.096   0.679   2.425  0.3921  0.4640  0.4547
   52DG      C2 1175   3.968   0.037   2.288 -0.3105 -0.3981 -0.3794
   52DG      H3 1176   4.079   0.736   2.334  1.3871 -1.2521 -0.8593
   52DG      H4 1177   4.201   0.649   2.426  0.5272  0.8006  2.7223
   52DG      H5 1178   4.084   0.747   2.509  0.0029 -0.0336  0.8076
   52DG      H6 1179   4.074   0.027   2.310 -0.0543  3.8625  1.4367
   52DG      H7 1180   3.931  -0.058   2.325 -0.1276 -1.2964 -2.4013
   52DG      H8 1181   3.940   0.044   2.183 -2.1974 -0.9495  0.0468
   52DG      O9 1182   4.003   0.572   2.442  0.1991  0.0645  0.3516
   52DG     O10 1183   3.909   0.150   2.358 -0.2412  0.0155  1.0774
   52DG     C11 1184   3.878   0.627   2.454  0.4775  0.6263  0.8229
   52DG     C12 1185   3.772   0.152   2.366  0.7079  0.1340 -0.0409
   52DG     H13 1186   3.846   0.680   2.364  0.7154  0.3841  0.5981
   52DG     H14 1187   3.867   0.686   2.545  0.2456  2.8119 -0.5454
   52DG     H15 1188   3.719   0.066   2.406 -0.6855  1.2410  0.5807
   52DG     H16 1189   3.727   0.158   2.267 -0.0112 -0.2051  0.2585
   52DG     C17 1190   3.779   0.504   2.480 -0.8368  0.3964 -0.3403
   52DG     C18 1191   3.723   0.281   2.439 -0.6028  0.4044  0.6888
   52DG     O19 1192   3.797   0.394   2.389 -0.9372  0.3387 -0.3619
   52DG     H20 1193   3.678   0.546   2.480 -0.1463  2.4218 -3.1295
   52DG     H21 1194   3.796   0.483   2.585 -0.6292 -1.7115 -0.7576
   52DG     H22 1195   3.620   0.299   2.407 -0.2627 -1.3018 -1.6728
   52DG     H23 1196   3.737   0.263   2.545 -1.9567 -2.7562  0.4580
   53DG      C1 1197   2.065   0.523   5.480 -0.2368 -0.4998  0.1829
   53DG      C2 1198   2.144   0.137   6.082 -0.1244 -0.7176 -1.2058
   53DG      H3 1199   2.028   0.548   5.381 -1.8267 -1.6768  0.4392
   53DG      H4 1200   2.114   0.611   5.520  0.0491 -0.4262 -0.3295
   53DG      H5 1201   1.976   0.497   5.537 -0.3178 -1.3407 -0.3063
   53DG      H6 1202   2.071   0.123   6.162 -0.1484  0.4021 -1.0199
   53DG      H7 1203   2.179   0.037   6.057  0.0918 -1.3009  1.1566
   53DG      H8 1204   2.228   0.191   6.125 -0.7849  1.8681 -2.9346
   53DG      O9 1205   2.151   0.408   5.465  0.0846  0.2287  0.0849
   53DG     O10 1206   2.088   0.204   5.976 -0.2581 -0.0976  0.2372
   53DG     C11 1207   2.182   0.356   5.595  0.0283  0.1588 -0.1435
   53DG     C12 1208   1.980   0.144   5.917 -0.3096 -0.2377 -0.2050
   53DG     H13 1209   2.211   0.423   5.676 -0.1228 -0.4090  0.3864
   53DG     H14 1210   2.275   0.302   5.579  1.1810  2.7203 -2.9830
   53DG     H15 1211   1.912   0.102   5.991  1.6029  1.4984  2.6985
   53DG     H16 1212   2.026   0.055   5.872  1.4435  1.1526 -1.2785
   53DG     C17 1213   2.089   0.250   5.649  0.4357  0.2691  0.3224
   53DG     C18 1214   1.914   0.213   5.802 -0.1184  0.1216 -0.0159
   53DG     O19 1215   1.994   0.311   5.738  0.3088 -0.4685 -0.0141
   53DG     H20 1216   2.127   0.158   5.695  1.0776  0.0044 -0.7000
   53DG     H21 1217   2.030   0.217   5.563  0.3332  0.5078  0.3022
   53DG     H22 1218   1.871   0.145   5.729 -3.1515  1.2997  0.5199
   53DG     H23 1219   1.842   0.281   5.848  1.7768  1.8482  0.5485
   54DG      C1 1220   1.628   0.987   5.378  0.2157  0.4285  0.0834
   54DG      C2 1221   1.639   0.611   4.752  0.7317  0.1332 -0.3205
   54DG      H3 1222   1.655   0.891   5.422  0.5642  0.6723  0.4089
   54DG      H4 1223   1.555   1.040   5.440 -2.1030  1.8422 -3.4997
   54DG      H5 1224   1.717   1.049   5.376 -0.6197  1.7069 -2.3889
   54DG      H6 1225   1.556   0.650   4.694  0.1738  1.1752  1.1146
   54DG      H7 1226   1.728   0.672   4.734  1.2667 -0.8265 -1.0199
   54DG      H8 1227   1.664   0.518   4.701  1.7270  0.6043 -0.7282
   54DG      O9 1228   1.567   0.971   5.249  0.0304 -0.1619 -0.3006
   54DG     O10 1229   1.597   0.604   4.886  0.3152  0.3733  0.4376
   54DG     C11 1230   1.463   0.879   5.243  0.4183  0.3375 -0.8053
   54DG     C12 1231   1.694   0.568   4.984  0.5268 -0.1640  0.2282
   54DG     H13 1232   1.405   0.903   5.154 -0.2539 -0.1975 -0.5256
   54DG     H14 1233   1.397   0.892   5.329 -0.1942  0.7062 -1.3192
   54DG     H15 1234   1.786   0.626   4.973  0.4496 -0.2023 -0.7362
   54DG     H16 1235   1.718   0.463   4.971  1.8193  0.4397 -3.3991
   54DG     C17 1236   1.508   0.740   5.239  0.0234  0.6355 -0.0242
   54DG     C18 1237   1.636   0.576   5.119 -0.0171  0.0764 -0.4934
   54DG     O19 1238   1.599   0.714   5.135  0.6441 -0.3409  0.9325
   54DG     H20 1239   1.417   0.685   5.211  0.1214  0.1267  0.6266
   54DG     H21 1240   1.542   0.712   5.338 -2.3530 -0.1172  0.6583
   54DG     H22 1241   1.545   0.518   5.133 -1.8602  2.8385 -0.3436
   54DG     H23 1242   1.714   0.560   5.194  0.0736 -0.4579 -0.6949
   55DG      C1 1243   3.729   1.361   1.444 -0.1287 -0.5222 -1.2384
   55DG      C2 1244   4.163   1.911   1.263 -0.4081 -0.3198  0.0918
   55DG      H3 1245   3.661   1.369   1.360 -4.0128 -1.2008  1.6024
   55DG      H4 1246   3.690   1.412   1.532 -0.3657 -0.0786 -1.5973
   55DG      H5 1247   3.740   1.256   1.473 -1.9031 -0.4560 -0.2228
   55DG      H6 1248   4.080   1.966   1.308  0.6472  1.0278  0.4582
   55DG      H7 1249   4.253   1.953   1.307  0.3747 -2.0320  0.2182
   55DG      H8 1250   4.172   1.942   1.159  0.6979 -1.1942 -0.0853
   55DG      O9 1251   3.864   1.392   1.423 -0.1709  0.1901 -0.0194
   55DG     O10 1252   4.135   1.775   1.284 -0.6628 -0.0346 -0.3591
   55DG     C11 1253   3.914   1.316   1.310  0.8625  0.5146  0.1190
   55DG     C12 1254   4.218   1.684   1.219 -0.0137 -0.6242  0.0140
   55DG     H13 1255   3.869   1.323   1.211  0.7880 -1.1303  0.0158
   55DG     H14 1256   3.904   1.209   1.325 -0.3724  0.3290 -1.7159
   55DG     H15 1257   4.317   1.719   1.250 -0.7491 -0.1546  1.9345
   55DG     H16 1258   4.215   1.698   1.111 -2.8934  3.2535  0.3911
   55DG     C17 1259   4.057   1.359   1.285  0.4073 -0.5970 -0.0368
   55DG     C18 1260   4.210   1.535   1.260  0.5227 -0.0744  0.5519
   55DG     O19 1261   4.070   1.497   1.261 -0.1291  0.1825 -0.5269
   55DG     H20 1262   4.094   1.306   1.198  0.5338  0.6498 -0.7673
   55DG     H21 1263   4.109   1.336   1.378  0.0980  0.0660  0.3095
   55DG     H22 1264   4.277   1.465   1.210 -2.2256 -1.1431 -2.0044
   55DG     H23 1265   4.233   1.534   1.366  1.5267 -2.7372  0.3841
   56DG      C1 1266   4.805   5.044   3.972  0.4384 -0.3991 -0.7806
   56DG      C2 1267   5.203   5.298   3.461 -0.0320  0.0097  0.4524
   56DG      H3 1268   4.802   4.958   4.040  2.0894  1.6587  2.1040
   56DG      H4 1269   4.704   5.083   3.957  0.2018  1.2976  3.6718
   56DG      H5 1270   4.855   5.121   4.030 -2.8476  0.7715  0.7810
   56DG      H6 1271   5.260   5.350   3.537 -1.9934 -1.1664  2.8962
   56DG      H7 1272   5.274   5.261   3.387 -0.4272  1.3438 -0.6219
   56DG      H8 1273   5.124   5.346   3.403 -1.3182 -3.0753 -0.5823
   56DG      O9 1274   4.868   5.017   3.845 -0.3253 -0.6489  0.1125
   56DG     O10 1275   5.146   5.180   3.521 -0.6463 -0.0003 -0.5262
   56DG     C11 1276   4.810   4.918   3.757  0.8591  0.0108 -0.2110
   56DG     C12 1277   5.092   5.092   3.424  0.5841  0.5767 -0.1116
   56DG     H13 1278   4.720   4.951   3.705  1.1794 -1.3601 -1.7181
   56DG     H14 1279   4.783   4.832   3.818  1.4648  0.0534  0.1293
   56DG     H15 1280   5.171   5.056   3.358  0.5168 -2.4113  1.2996
   56DG     H16 1281   5.013   5.139   3.366 -1.3663 -2.6044 -0.2534
   56DG     C17 1282   4.906   4.879   3.650  0.4960 -0.5239  0.2464
   56DG     C18 1283   5.041   4.969   3.486  0.2674 -0.0355  0.4353
   56DG     O19 1284   4.940   4.996   3.575 -0.3008 -0.0407 -0.6952
   56DG     H20 1285   4.860   4.797   3.594  0.4755 -0.1239 -0.3225
   56DG     H21 1286   4.999   4.843   3.694  1.2253  1.7757  0.7256
   56DG     H22 1287   4.996   4.898   3.416  1.8457  0.6246 -1.3328
   56DG     H23 1288   5.122   4.922   3.543 -0.1699 -0.6902  0.5323
   57DG      C1 1289   1.648   0.933   4.871 -0.3288 -0.5663 -0.1266
   57DG      C2 1290   1.922   1.040   4.132 -0.2482 -0.2596 -0.4436
   57DG      H3 1291   1.578   0.876   4.811 -2.3911  2.6085 -1.0279
   57DG      H4 1292   1.592   0.960   4.961 -1.5948  4.5631 -2.0634
   57DG      H5 1293   1.731   0.870   4.903  0.2011 -0.8134 -1.8766
   57DG      H6 1294   2.015   1.027   4.187 -0.1258 -0.2742 -0.6518
   57DG      H7 1295   1.892   0.948   4.080 -1.3029  0.2329 -0.7403
   57DG      H8 1296   1.935   1.112   4.051  0.6180  1.7918  1.4283
   57DG      O9 1297   1.690   1.045   4.801  0.7818  0.0901  0.1770
   57DG     O10 1298   1.815   1.090   4.197 -0.1744  0.1218  0.1052
   57DG     C11 1299   1.746   1.010   4.677 -0.4773  0.3073  0.4301
   57DG     C12 1300   1.828   1.210   4.272 -0.1576  0.0380 -0.3582
   57DG     H13 1301   1.659   0.976   4.621 -0.1093 -0.5608  0.3740
   57DG     H14 1302   1.824   0.935   4.679  1.3166  2.0553 -0.6108
   57DG     H15 1303   1.731   1.236   4.314  0.0885 -0.3902  0.5263
   57DG     H16 1304   1.859   1.293   4.209  1.3987  1.3934  2.0354
   57DG     C17 1305   1.797   1.134   4.610 -0.0290  0.1745 -0.0752
   57DG     C18 1306   1.913   1.194   4.405 -0.0757 -0.1264  0.2815
   57DG     O19 1307   1.851   1.086   4.487 -0.8129  0.5711 -0.3792
   57DG     H20 1308   1.877   1.170   4.675  1.3589  1.1755 -2.2329
   57DG     H21 1309   1.724   1.214   4.608  0.5546  0.7159 -1.3275
   57DG     H22 1310   2.012   1.165   4.370  0.4831  1.4230  0.5032
   57DG     H23 1311   1.913   1.289   4.460  0.7577  0.6243 -0.9728
   58DG      C1 1312   3.407   3.224   1.413 -0.8079  0.3603 -0.0788
   58DG      C2 1313   3.123   3.662   0.774 -0.1397 -0.1311  0.0873
   58DG      H3 1314   3.317   3.164   1.404 -0.2905 -0.6666  1.1803
   58DG      H4 1315   3.454   3.201   1.509  1.2405  0.5269 -0.9785
   58DG      H5 1316   3.480   3.210   1.333 -0.4753 -0.2576  0.3249
   58DG      H6 1317   3.015   3.660   0.790 -0.3674  0.3471 -1.2756
   58DG      H7 1318   3.128   3.742   0.701  0.7747 -0.9799 -0.7999
   58DG      H8 1319   3.145   3.569   0.722  0.5904 -0.0779  0.2970
   58DG      O9 1320   3.348   3.354   1.410  0.7427 -0.4207 -0.5368
   58DG     O10 1321   3.199   3.676   0.894  0.1596 -0.3203 -0.0314
   58DG     C11 1322   3.302   3.389   1.278 -0.5624  0.0169 -0.0892
   58DG     C12 1323   3.138   3.745   0.996  0.1117  0.4886  0.0107
   58DG     H13 1324   3.217   3.323   1.258 -1.2575  1.2160 -1.3083
   58DG     H14 1325   3.386   3.373   1.210 -0.9116  2.7606 -1.3168
   58DG     H15 1326   3.031   3.724   0.997  0.2973 -0.8807 -2.1058
   58DG     H16 1327   3.149   3.850   0.971  0.6623  0.1272 -1.3163
   58DG     C17 1328   3.253   3.526   1.278  0.1126 -0.0277 -0.2689
   58DG     C18 1329   3.206   3.707   1.133 -0.4232 -0.3069 -0.2779
   58DG     O19 1330   3.213   3.572   1.148 -0.0870  0.4854 -0.2084
   58DG     H20 1331   3.331   3.596   1.307 -0.1739 -0.0608  0.6096
   58DG     H21 1332   3.171   3.540   1.348  0.6306 -1.3649  0.6410
   58DG     H22 1333   3.304   3.754   1.129 -0.7572  0.5023  0.6185
   58DG     H23 1334   3.159   3.757   1.217  0.0689 -0.9023  0.3572
   59DG      C1 1335   4.038   1.800   4.689 -0.2316 -0.3944 -0.0533
   59DG      C2 1336   4.479   1.433   4.380 -0.2825 -0.9952  0.5835
   59DG      H3 1337   3.980   1.823   4.778  1.0420  2.0307  0.2504
   59DG      H4 1338   3.973   1.757   4.613  0.7456 -3.3383  0.6348
   59DG      H5 1339   4.082   1.893   4.652 -1.2948  0.7729  1.5291
   59DG      H6 1340   4.396   1.448   4.310  1.9220  3.0953 -1.4891
   59DG      H7 1341   4.536   1.525   4.371 -0.4137 -0.9479  0.2166
   59DG      H8 1342   4.547   1.356   4.343  0.8315  1.0177 -1.8230
   59DG      O9 1343   4.145   1.709   4.717  0.1779  0.4047  0.0667
   59DG     O10 1344   4.430   1.420   4.510 -0.1039 -0.2498  0.3745
   59DG     C11 1345   4.224   1.741   4.834  0.0319  0.2580  0.7914
   59DG     C12 1346   4.528   1.457   4.604  0.0605  0.0877 -0.4400
   59DG     H13 1347   4.156   1.762   4.917  1.0023  0.2918  1.5940
   59DG     H14 1348   4.295   1.823   4.822  1.2573 -0.9667 -0.8334
   59DG     H15 1349   4.580   1.547   4.571 -2.2617  1.7045  0.0867
   59DG     H16 1350   4.600   1.375   4.597 -1.3745 -1.2653  0.0373
   59DG     C17 1351   4.308   1.617   4.859 -0.2745  0.3731  0.1695
   59DG     C18 1352   4.471   1.476   4.748 -0.5101  0.1752 -0.0797
   59DG     O19 1353   4.379   1.588   4.740 -0.3186  0.7179  0.1092
   59DG     H20 1354   4.242   1.532   4.877  0.3455  0.1281  1.4174
   59DG     H21 1355   4.367   1.630   4.950 -2.0025 -0.5176  1.4745
   59DG     H22 1356   4.416   1.388   4.782  0.0185 -0.4177 -0.6985
   59DG     H23 1357   4.554   1.498   4.814 -0.4602  2.7946 -0.9193
   60DG      C1 1358   2.668   4.900   0.375  0.4282  0.5747 -0.3631
   60DG      C2 1359   2.307   4.521   0.633 -0.4080 -0.6236  0.2814
   60DG      H3 1360   2.698   5.005   0.381  1.5756  0.2696 -0.5276
   60DG      H4 1361   2.576   4.887   0.318 -0.0280 -1.0949  0.6829
   60DG      H5 1362   2.745   4.856   0.312  0.8302  2.3694 -1.2027
   60DG      H6 1363   2.213   4.497   0.585 -0.9965  0.3590  0.9168
   60DG      H7 1364   2.311   4.629   0.620  0.4734 -0.6954 -0.1619
   60DG      H8 1365   2.393   4.478   0.581 -1.7453 -2.2937 -0.6694
   60DG      O9 1366   2.658   4.842   0.508 -0.0495  0.0875 -0.2641
   60DG     O10 1367   2.303   4.490   0.769 -0.2985 -0.2645 -0.4754
   60DG     C11 1368   2.578   4.921   0.591 -0.0752 -1.1264 -0.1275
   60DG     C12 1369   2.413   4.539   0.848  0.2371  0.1900  0.4599
   60DG     H13 1370   2.482   4.937   0.544  1.2198  1.7251 -2.1055
   60DG     H14 1371   2.616   5.023   0.604  1.6028 -1.7102 -0.2347
   60DG     H15 1372   2.496   4.471   0.825 -1.2064 -0.8949 -2.0030
   60DG     H16 1373   2.376   4.514   0.948 -0.2110 -0.1255  0.2243
   60DG     C17 1374   2.544   4.864   0.727 -0.0131  0.3047 -0.2902
   60DG     C18 1375   2.438   4.692   0.846  0.1967  0.8290 -1.1272
   60DG     O19 1376   2.503   4.725   0.727  0.2498  0.2204 -0.9300
   60DG     H20 1377   2.464   4.922   0.773 -0.7896  0.5560 -1.8916
   60DG     H21 1378   2.634   4.882   0.784  0.3323 -0.0441 -0.7178
   60DG     H22 1379   2.344   4.747   0.851 -0.5636 -0.4770 -0.5808
   60DG     H23 1380   2.502   4.705   0.933  0.0650 -0.2299 -0.8638
   61DG      C1 1381   1.020   2.933   2.254  0.7892  0.0048  0.4072
   61DG      C2 1382   0.668   2.764   1.755 -0.1790 -0.1082 -0.4125
   61DG      H3 1383   0.916   2.926   2.287  0.5230  1.1650 -0.1417
   61DG      H4 1384   1.067   3.018   2.303  0.8820  1.1243 -1.5529
   61DG      H5 1385   1.066   2.845   2.300 -2.2789 -1.3667  1.1599
   61DG      H6 1386   0.647   2.690   1.832  0.7323 -0.3496 -0.3928
   61DG      H7 1387   0.637   2.863   1.788 -0.1388  0.5776 -2.3105
   61DG      H8 1388   0.619   2.739   1.661 -0.6987  0.0010 -0.1743
   61DG      O9 1389   1.028   2.939   2.108 -0.1909  0.0685  0.1312
   61DG     O10 1390   0.814   2.759   1.751  0.6478  0.5806  0.1959
   61DG     C11 1391   1.156   2.905   2.058  0.2151  0.7164 -0.5115
   61DG     C12 1392   0.871   2.882   1.715 -0.3513  0.5710 -0.3897
   61DG     H13 1393   1.172   2.804   2.094 -1.4618  0.8099  0.6040
   61DG     H14 1394   1.233   2.970   2.100 -1.3278  0.8757  2.3005
   61DG     H15 1395   0.839   2.954   1.791  0.6926  1.2031 -0.5333
   61DG     H16 1396   0.824   2.905   1.620  0.2793 -2.6519 -1.5797
   61DG     C17 1397   1.154   2.923   1.907  1.0728 -0.1921 -0.0535
   61DG     C18 1398   1.013   2.869   1.715 -0.5646 -0.6440  0.3184
   61DG     O19 1399   1.064   2.831   1.843 -0.3097 -0.1828 -0.5247
   61DG     H20 1400   1.253   2.912   1.862 -0.0251 -1.2465 -2.3506
   61DG     H21 1401   1.138   3.025   1.872  3.3169 -0.3415 -1.7007
   61DG     H22 1402   1.047   2.797   1.641 -0.6326  0.6384 -0.9820
   61DG     H23 1403   1.059   2.963   1.685  0.8883 -0.9162  1.5929
   62DG      C1 1404   1.935   4.984   1.427  0.1188 -0.0191  0.5120
   62DG      C2 1405   1.166   4.921   1.602 -0.2266  0.4742 -0.0315
   62DG      H3 1406   1.929   4.944   1.326 -0.6293 -0.9483  0.9162
   62DG      H4 1407   1.914   4.906   1.499 -0.8706 -0.2382 -0.0027
   62DG      H5 1408   2.030   5.035   1.448  0.3841 -0.3909  0.2317
   62DG      H6 1409   1.180   4.831   1.542  0.8705  1.3908 -1.1910
   62DG      H7 1410   1.088   4.895   1.674 -0.2132 -0.7233 -0.4223
   62DG      H8 1411   1.122   4.997   1.538 -0.5551 -1.4063 -2.1721
   62DG      O9 1412   1.836   5.081   1.452  0.2740  0.0223  0.1368
   62DG     O10 1413   1.279   4.958   1.667 -0.2132  0.4465  0.7506
   62DG     C11 1414   1.702   5.040   1.466  1.1365 -0.2813 -0.3237
   62DG     C12 1415   1.352   4.854   1.722  0.1687 -0.4448 -0.2607
   62DG     H13 1416   1.679   4.964   1.391 -1.5504 -0.1259  0.2365
   62DG     H14 1417   1.644   5.132   1.457 -0.2127 -0.9284  1.3469
   62DG     H15 1418   1.341   4.763   1.662 -1.3902  0.1177 -0.8625
   62DG     H16 1419   1.307   4.828   1.818  0.3301  0.1378 -0.0268
   62DG     C17 1420   1.686   4.977   1.607  1.2902  0.5038 -0.2551
   62DG     C18 1421   1.497   4.892   1.736 -0.3816 -0.4426  0.3386
   62DG     O19 1422   1.544   4.940   1.608  0.2355 -0.1002  0.1892
   62DG     H20 1423   1.714   5.051   1.682  1.0588  0.7140 -0.3736
   62DG     H21 1424   1.747   4.895   1.644  0.9599  1.0960  1.7344
   62DG     H22 1425   1.504   4.963   1.818 -1.5873 -1.5407  1.4484
   62DG     H23 1426   1.556   4.803   1.759  0.8403  0.2589 -0.0337
   63DG      C1 1427   0.171   2.367   0.658  0.0726 -0.3100 -0.2007
   63DG      C2 1428   0.121   2.579  -0.203  0.0036  0.4759 -0.4701
   63DG      H3 1429   0.144   2.472   0.655  2.6291  0.3888 -1.8452
   63DG      H4 1430   0.280   2.360   0.651 -0.0862 -1.9698 -2.1764
   63DG      H5 1431   0.134   2.326   0.752 -0.3109  1.1186  0.2903
   63DG      H6 1432   0.032   2.564  -0.263  0.2103  0.2321 -0.7226
   63DG      H7 1433   0.161   2.679  -0.221  0.7147  0.3038  0.0675
   63DG      H8 1434   0.184   2.500  -0.244 -0.9630 -0.7407  0.3172
   63DG      O9 1435   0.119   2.297   0.542  0.2366 -0.8354 -0.2778
   63DG     O10 1436   0.098   2.548  -0.070  0.4750  0.5523  0.2084
   63DG     C11 1437   0.155   2.361   0.416 -0.2433 -1.0069 -0.3933
   63DG     C12 1438   0.021   2.430  -0.050  0.5430  0.4088  0.2502
   63DG     H13 1439   0.243   2.311   0.376  0.7011  0.5724 -0.3461
   63DG     H14 1440   0.193   2.462   0.431  0.8220 -1.7277  2.3954
   63DG     H15 1441   0.087   2.351  -0.085  1.6195  0.4419  2.1104
   63DG     H16 1442  -0.075   2.435  -0.102 -0.5571  0.7426  2.2094
   63DG     C17 1443   0.042   2.356   0.312 -0.0426 -0.6516 -0.1525
   63DG     C18 1444  -0.028   2.412   0.097 -0.5957  0.9178 -0.1859
   63DG     O19 1445   0.081   2.405   0.184 -0.4381 -0.1370  0.3298
   63DG     H20 1446  -0.045   2.407   0.354  1.0462 -0.3649  1.8727
   63DG     H21 1447   0.006   2.254   0.298 -1.3500 -0.0367 -1.5792
   63DG     H22 1448  -0.092   2.499   0.115 -0.1733  0.9865  1.0468
   63DG     H23 1449  -0.098   2.329   0.094  0.7816 -0.3130  0.4731
   64DG      C1 1450   1.500   1.249   1.232 -0.2873 -0.0235  0.4128
   64DG      C2 1451   1.542   0.600   1.133 -0.2732 -0.7540  0.5387
   64DG      H3 1452   1.566   1.335   1.220  1.1695 -0.8219  2.1310
   64DG      H4 1453   1.455   1.260   1.331 -0.6124  0.3149  0.2283
   64DG      H5 1454   1.417   1.264   1.163  0.1151  0.6312  0.0621
   64DG      H6 1455   1.618   0.649   1.072 -0.5186 -1.4610 -0.3514
   64DG      H7 1456   1.563   0.494   1.149  1.6581 -0.3576  0.8764
   64DG      H8 1457   1.459   0.606   1.063  1.2800 -0.0640 -1.3254
   64DG      O9 1458   1.567   1.124   1.214  0.6345 -0.4195  0.7732
   64DG     O10 1459   1.522   0.678   1.247 -0.4175 -0.6866 -0.3182
   64DG     C11 1460   1.683   1.129   1.284 -0.0199  0.1324  0.1365
   64DG     C12 1461   1.630   0.654   1.336 -0.2799 -0.2264 -0.3917
   64DG     H13 1462   1.669   1.158   1.389 -1.2674  0.0652  0.0017
   64DG     H14 1463   1.751   1.202   1.240 -1.6568  1.9096  0.4416
   64DG     H15 1464   1.680   0.557   1.335  2.1355  0.8977 -2.8010
   64DG     H16 1465   1.586   0.665   1.435  0.0049  0.2051 -0.3106
   64DG     C17 1466   1.753   0.996   1.280 -0.3633 -0.9402 -0.8382
   64DG     C18 1467   1.728   0.767   1.319 -0.1861 -0.1123 -0.3956
   64DG     O19 1468   1.667   0.893   1.320 -0.0478 -0.0602  0.4338
   64DG     H20 1469   1.824   0.992   1.363 -2.7385  0.3864  1.3743
   64DG     H21 1470   1.798   0.974   1.182  0.7047 -0.1594 -0.5373
   64DG     H22 1471   1.790   0.775   1.408 -1.8292 -1.6788  0.9574
   64DG     H23 1472   1.791   0.749   1.232  0.9404 -0.0503  0.3828
   65DG      C1 1473   2.374   5.265   4.779  0.3986  0.1003  0.8757
   65DG      C2 1474   2.871   5.702   4.524  0.1362 -0.5328 -0.9295
   65DG      H3 1475   2.311   5.288   4.693 -1.2481 -0.6860  1.8270
   65DG      H4 1476   2.353   5.338   4.857 -2.3664 -1.5323  1.7906
   65DG      H5 1477   2.331   5.171   4.814 -3.5238  1.7400  0.9677
   65DG      H6 1478   2.972   5.718   4.561 -0.3109 -0.3016  0.2285
   65DG      H7 1479   2.866   5.725   4.418  0.0015 -1.9521 -1.2390
   65DG      H8 1480   2.813   5.761   4.596  2.9241  1.5306 -0.1928
   65DG      O9 1481   2.508   5.264   4.731  0.6034  0.1137  0.4318
   65DG     O10 1482   2.831   5.565   4.550 -0.6949 -0.3081 -0.0776
   65DG     C11 1483   2.539   5.183   4.618  0.3472  0.0308 -0.5458
   65DG     C12 1484   2.913   5.475   4.479  0.2839 -0.1697 -0.9391
   65DG     H13 1485   2.469   5.196   4.535 -0.7192  1.0558  0.4710
   65DG     H14 1486   2.515   5.085   4.659  0.6512  0.9563  2.0471
   65DG     H15 1487   3.018   5.486   4.508 -0.4561  0.5386  1.6839
   65DG     H16 1488   2.925   5.502   4.374  2.0512  1.7282 -0.3232
   65DG     C17 1489   2.682   5.194   4.571  0.2273 -0.7011 -0.7320
   65DG     C18 1490   2.857   5.328   4.495  0.4286 -0.1484 -0.3898
   65DG     O19 1491   2.717   5.326   4.536  0.0009  0.4103  0.2511
   65DG     H20 1492   2.690   5.114   4.498 -2.1987 -2.6073  0.9273
   65DG     H21 1493   2.750   5.153   4.646  1.2536 -4.9786 -3.6316
   65DG     H22 1494   2.878   5.266   4.408  1.6769  1.5482 -1.3647
   65DG     H23 1495   2.911   5.281   4.577 -0.3713  0.9189  0.8030
   66DG      C1 1496   3.133   1.356   4.606  0.4882  0.5319  0.7149
   66DG      C2 1497   2.618   0.838   4.241  0.0143  1.0600 -0.3982
   66DG      H3 1498   3.229   1.393   4.642  0.7318 -0.6271  1.3016
   66DG      H4 1499   3.076   1.355   4.699 -1.0856  0.0755 -0.2185
   66DG      H5 1500   3.088   1.422   4.532 -0.1568 -1.8539 -1.1505
   66DG      H6 1501   2.643   0.742   4.195 -1.4066  0.7935 -0.6614
   66DG      H7 1502   2.509   0.838   4.231 -0.2328 -0.8139  1.6072
   66DG      H8 1503   2.661   0.907   4.168  1.3427  1.1473  0.4372
   66DG      O9 1504   3.157   1.227   4.553  0.3818 -0.0780  0.4741
   66DG     O10 1505   2.646   0.859   4.381 -0.7806  0.2889 -0.2046
   66DG     C11 1506   3.046   1.139   4.559 -0.1458  0.0006 -0.1971
   66DG     C12 1507   2.598   0.989   4.424 -0.2253  0.1901 -0.3447
   66DG     H13 1508   3.015   1.118   4.661  0.4907 -2.2177 -0.4116
   66DG     H14 1509   3.088   1.044   4.528  0.8877  1.0266 -2.1384
   66DG     H15 1510   2.565   0.991   4.527 -2.0685  1.7813 -0.9042
   66DG     H16 1511   2.505   1.008   4.369 -0.0889  1.3423 -0.2168
   66DG     C17 1512   2.918   1.168   4.468 -0.4652 -0.0860  0.7599
   66DG     C18 1513   2.706   1.091   4.403  0.4500  0.6022  0.1256
   66DG     O19 1514   2.814   1.070   4.496  0.0333 -1.0938  0.2552
   66DG     H20 1515   2.955   1.171   4.366  1.0202  1.6183  1.2874
   66DG     H21 1516   2.889   1.269   4.497 -1.3165  0.2720 -1.2361
   66DG     H22 1517   2.752   1.097   4.304  0.5370  3.7355  0.2330
   66DG     H23 1518   2.656   1.188   4.417 -1.3673 -0.0313 -1.5322
   67DG      C1 1519   2.166   1.126   0.198 -0.3624 -0.2122 -0.2170
   67DG      C2 1520   2.165   0.577   0.516  0.2364  0.0426  0.2563
   67DG      H3 1521   2.272   1.099   0.197 -0.4119 -0.4671  0.8038
   67DG      H4 1522   2.149   1.203   0.272 -1.1204 -0.4228 -0.1639
   67DG      H5 1523   2.158   1.171   0.098 -0.4710 -1.8833 -0.9918
   67DG      H6 1524   2.254   0.623   0.559 -1.0741  0.4384  2.7123
   67DG      H7 1525   2.109   0.539   0.601  0.6864 -3.4346 -0.8378
   67DG      H8 1526   2.186   0.487   0.458 -2.7265  0.7518 -2.1943
   67DG      O9 1527   2.074   1.018   0.214 -0.2380  0.0969  0.0702
   67DG     O10 1528   2.100   0.657   0.427 -0.4218 -0.2462 -0.1077
   67DG     C11 1529   1.937   1.057   0.227 -0.9957 -0.3507 -0.6423
   67DG     C12 1530   1.962   0.623   0.411 -0.2492  0.2723 -0.6429
   67DG     H13 1531   1.916   1.121   0.142  0.7396 -0.0314 -0.8706
   67DG     H14 1532   1.925   1.111   0.322  2.5728  0.0345 -0.2599
   67DG     H15 1533   1.925   0.658   0.507  1.1895 -0.3039  0.1547
   67DG     H16 1534   1.940   0.516   0.404 -1.5308  0.5734 -1.7278
   67DG     C17 1535   1.869   0.923   0.214  0.4388  0.1190  0.0237
   67DG     C18 1536   1.904   0.696   0.290  0.1492 -0.5002  0.1380
   67DG     O19 1537   1.938   0.836   0.304  0.6960  0.3439 -0.1126
   67DG     H20 1538   1.866   0.890   0.110 -3.0684 -1.5158  0.5012
   67DG     H21 1539   1.765   0.921   0.244 -0.0384  0.9436 -1.4432
   67DG     H22 1540   1.953   0.667   0.197 -2.1183  1.3169 -1.7727
   67DG     H23 1541   1.797   0.673   0.292  0.1129 -0.7201 -1.7321
   68DG      C1 1542   2.478   0.598   0.876 -0.5177 -0.3534  0.2161
   68DG      C2 1543   2.824   1.177   0.558 -0.3250 -0.3806  0.3429
   68DG      H3 1544   2.396   0.563   0.813  0.2890  0.5741 -1.4219
   68DG      H4 1545   2.447   0.633   0.974 -1.5180 -0.6463  0.0095
   68DG      H5 1546   2.516   0.505   0.918  0.4278  0.2089  0.6490
   68DG      H6 1547   2.766   1.258   0.603  1.6277  1.7461 -0.7267
   68DG      H7 1548   2.914   1.233   0.530 -0.5682  0.9523  2.0183
   68DG      H8 1549   2.775   1.146   0.466  0.9723 -1.0083 -0.1553
   68DG      O9 1550   2.584   0.668   0.806  0.0323 -0.5911  0.3939
   68DG     O10 1551   2.843   1.055   0.620  0.1762 -0.3147  0.1897
   68DG     C11 1552   2.612   0.628   0.669  0.2685  0.4520  0.1138
   68DG     C12 1553   2.922   0.969   0.536 -0.2607 -0.1272 -0.4686
   68DG     H13 1554   2.551   0.672   0.590 -1.3878  0.6736  1.4433
   68DG     H14 1555   2.588   0.522   0.661  0.2779  0.5880 -3.6712
   68DG     H15 1556   3.026   0.993   0.517 -0.3172 -0.2322 -0.9306
   68DG     H16 1557   2.889   0.939   0.437  1.7544 -3.7974 -0.1813
   68DG     C17 1558   2.763   0.658   0.647  0.1675  0.3775 -0.0339
   68DG     C18 1559   2.923   0.835   0.604 -0.3870 -0.1268 -0.1964
   68DG     O19 1560   2.789   0.797   0.641  0.0413 -0.6238  0.0956
   68DG     H20 1561   2.799   0.603   0.561 -2.0864 -0.9737 -0.2032
   68DG     H21 1562   2.812   0.633   0.741 -1.8993 -2.6361  0.3908
   68DG     H22 1563   2.976   0.765   0.540  0.1822  1.1714 -1.1718
   68DG     H23 1564   2.981   0.834   0.696 -0.4318 -0.2214 -0.1691
   69DG      C1 1565   0.201   0.941   1.646 -0.1494  0.1371 -0.4936
   69DG      C2 1566  -0.074   0.261   1.258 -0.0189  0.5166  0.5297
   69DG      H3 1567   0.187   1.043   1.682  0.5583 -0.1111  0.5265
   69DG      H4 1568   0.306   0.917   1.660  0.0303  1.3905  0.4639
   69DG      H5 1569   0.141   0.878   1.712 -1.6715  0.3930 -1.5723
   69DG      H6 1570   0.024   0.247   1.213 -0.1072 -0.2731  0.5750
   69DG      H7 1571  -0.095   0.177   1.324 -2.7004  1.7238  1.3715
   69DG      H8 1572  -0.150   0.265   1.180  0.7808  2.3705 -0.2201
   69DG      O9 1573   0.152   0.935   1.512  0.6701 -0.5575 -0.1045
   69DG     O10 1574  -0.082   0.376   1.333  0.0194 -0.1925  0.7097
   69DG     C11 1575   0.159   0.800   1.460 -0.0739 -0.8924 -0.8360
   69DG     C12 1576  -0.010   0.363   1.452  0.3179  0.3443 -0.2622
   69DG     H13 1577   0.252   0.751   1.488  0.5944  0.4680 -0.5403
   69DG     H14 1578   0.141   0.823   1.355  0.2910 -0.1999 -0.7553
   69DG     H15 1579   0.091   0.327   1.432  1.1443  1.9425  0.8228
   69DG     H16 1580  -0.047   0.284   1.517  0.8042  1.3867  1.3312
   69DG     C17 1581   0.038   0.721   1.502  0.0437  0.0167  0.5336
   69DG     C18 1582  -0.016   0.496   1.530 -0.1685 -0.6893  0.4458
   69DG     O19 1583   0.049   0.589   1.449 -0.1347  0.4302 -0.0981
   69DG     H20 1584  -0.042   0.766   1.444  1.3924  1.9690  0.0702
   69DG     H21 1585   0.019   0.732   1.609  0.8460 -0.4586  0.7366
   69DG     H22 1586  -0.121   0.520   1.545  0.1555  1.1799 -0.0694
   69DG     H23 1587   0.041   0.497   1.623  0.3053  1.9768  0.2194
   70DG      C1 1588   4.820   4.642   4.096 -0.0813  1.0212 -0.2739
   70DG      C2 1589   4.864   5.068   4.689  0.1135  0.2562 -0.1351
   70DG      H3 1590   4.737   4.590   4.049 -0.0259 -0.6113  1.3033
   70DG      H4 1591   4.885   4.559   4.124 -0.7231  0.5929 -0.0353
   70DG      H5 1592   4.861   4.702   4.014  2.8110 -1.2085 -0.6593
   70DG      H6 1593   4.930   5.128   4.627  1.3451 -0.4300  0.4802
   70DG      H7 1594   4.764   5.074   4.646  0.4421  1.7934 -0.7268
   70DG      H8 1595   4.852   5.103   4.792  0.2293  0.8014 -0.3072
   70DG      O9 1596   4.787   4.724   4.211 -0.2560 -0.0534  0.4048
   70DG     O10 1597   4.925   4.936   4.690  0.4700  0.4818  0.2796
   70DG     C11 1598   4.908   4.753   4.287 -0.4178 -0.9054 -0.2305
   70DG     C12 1599   4.829   4.830   4.712 -0.3775 -0.2587  0.1277
   70DG     H13 1600   4.974   4.812   4.222 -1.6790  0.3543 -0.4369
   70DG     H14 1601   4.957   4.665   4.326  0.0702 -0.5828 -0.1095
   70DG     H15 1602   4.782   4.837   4.809  0.0483  0.9735  0.2628
   70DG     H16 1603   4.886   4.736   4.708 -1.7318 -1.0980  0.0654
   70DG     C17 1604   4.873   4.838   4.404 -0.8103  0.2855 -0.7092
   70DG     C18 1605   4.729   4.812   4.594 -0.2687 -0.8067 -0.2833
   70DG     O19 1606   4.782   4.759   4.473  0.3725  0.5950  0.2969
   70DG     H20 1607   4.834   4.935   4.376  0.8815  0.7756 -1.4653
   70DG     H21 1608   4.967   4.858   4.456 -1.0645 -2.2023  0.9080
   70DG     H22 1609   4.660   4.739   4.637  0.5688 -0.7634  1.2172
   70DG     H23 1610   4.659   4.893   4.577  0.3166 -0.5239 -1.3919
   71DG      C1 1611   3.644   2.229   3.148  0.6706  0.6419  0.1303
   71DG      C2 1612   3.861   2.014   3.589 -0.1210 -0.4558  0.2035
   71DG      H3 1613   3.614   2.175   3.239  0.7360  0.6066  0.1306
   71DG      H4 1614   3.632   2.161   3.064 -0.2754  2.3175 -1.1359
   71DG      H5 1615   3.575   2.309   3.124  1.4475  1.0309 -0.8382
   71DG      H6 1616   3.829   1.913   3.567  0.6242 -0.6588  0.0209
   71DG      H7 1617   3.856   2.037   3.696 -0.6019  3.1840 -0.4639
   71DG      H8 1618   3.785   2.079   3.547  0.1752 -0.8593 -0.9839
   71DG      O9 1619   3.785   2.266   3.151  0.3659 -0.1976  0.2224
   71DG     O10 1620   3.983   2.037   3.524 -0.0410  0.6709 -0.3608
   71DG     C11 1621   3.817   2.396   3.198 -0.5561 -0.3689 -0.1749
   71DG     C12 1622   4.037   2.163   3.553  0.9216  0.0675 -0.0968
   71DG     H13 1623   3.745   2.476   3.179  0.4668  0.3947 -1.0035
   71DG     H14 1624   3.909   2.440   3.159 -0.8513 -0.7506 -1.3470
   71DG     H15 1625   4.130   2.165   3.498  0.5323  0.2671 -0.7558
   71DG     H16 1626   4.055   2.182   3.659 -0.9577  0.2975  0.2212
   71DG     C17 1627   3.822   2.394   3.352 -0.1134 -0.1929 -0.6237
   71DG     C18 1628   3.955   2.290   3.527  0.3425 -0.1062  0.8948
   71DG     O19 1629   3.917   2.290   3.390 -0.3056 -0.0969 -0.6244
   71DG     H20 1630   3.719   2.363   3.371  0.5304 -1.7872  0.4472
   71DG     H21 1631   3.851   2.494   3.386 -3.4780 -0.4845  4.1118
   71DG     H22 1632   3.872   2.300   3.597  0.7896  2.2088  1.1933
   71DG     H23 1633   4.002   2.387   3.547 -3.2449  1.5702  2.0404
   72DG      C1 1634   0.393   4.768   1.906  0.0341 -0.3079 -0.0306
   72DG      C2 1635   0.094   4.507   1.355 -0.0173  0.3584  0.1042
   72DG      H3 1636   0.442   4.697   1.972 -2.3097 -2.2422 -0.2653
   72DG      H4 1637   0.387   4.864   1.958  3.0900  0.9352 -1.7283
   72DG      H5 1638   0.461   4.782   1.822 -1.4363  0.0753 -1.1982
   72DG      H6 1639   0.037   4.424   1.395  1.5372  0.5201  2.9151
   72DG      H7 1640   0.033   4.597   1.366 -0.8742 -0.1361 -0.5022
   72DG      H8 1641   0.116   4.492   1.249  2.7639  2.4038  0.2464
   72DG      O9 1642   0.264   4.727   1.848 -0.4888  0.3511 -0.6074
   72DG     O10 1643   0.213   4.526   1.431  0.1972  0.0754 -0.1453
   72DG     C11 1644   0.187   4.831   1.799  0.2513 -0.5212  0.6363
   72DG     C12 1645   0.304   4.626   1.393  0.1558  0.8336  0.1435
   72DG     H13 1646   0.190   4.923   1.857 -0.0761 -0.8460  1.1745
   72DG     H14 1647   0.082   4.804   1.811  0.2366  0.3148  2.8014
   72DG     H15 1648   0.307   4.627   1.284 -0.9631  0.7524  0.1033
   72DG     H16 1649   0.404   4.601   1.428  0.4610  0.3452 -1.0179
   72DG     C17 1650   0.217   4.862   1.652  0.5552 -0.3722 -0.7353
   72DG     C18 1651   0.261   4.767   1.441 -0.0687  0.1800 -0.0452
   72DG     O19 1652   0.220   4.747   1.575  0.5084 -0.1671 -0.0051
   72DG     H20 1653   0.318   4.902   1.651  0.9368 -1.2278  0.7752
   72DG     H21 1654   0.160   4.946   1.611 -1.2663 -0.7995  0.7635
   72DG     H22 1655   0.349   4.831   1.436 -0.1144  0.2271 -0.2508
   72DG     H23 1656   0.178   4.818   1.393  0.1202  2.0608  1.4958
   73DG      C1 1657   0.368   0.939   4.046 -0.6541  0.2269 -0.2136
   73DG      C2 1658   0.794   1.313   4.575  0.8706 -0.3402 -0.1307
   73DG      H3 1659   0.414   0.972   3.953  2.9372  0.1973  1.3914
   73DG      H4 1660   0.266   0.904   4.026 -0.6512  0.4408 -0.6267
   73DG      H5 1661   0.425   0.852   4.077 -0.3875  1.3180  2.6075
   73DG      H6 1662   0.846   1.223   4.607 -0.5046 -1.1403 -0.0739
   73DG      H7 1663   0.822   1.401   4.633 -2.8496  1.8901 -1.3312
   73DG      H8 1664   0.689   1.286   4.588  1.3061 -2.3271 -0.4659
   73DG      O9 1665   0.363   1.034   4.150 -0.0362 -0.5792  0.1073
   73DG     O10 1666   0.825   1.320   4.436 -0.1509  0.1511 -0.4412
   73DG     C11 1667   0.481   1.113   4.150  0.5413  0.1677  0.5556
   73DG     C12 1668   0.748   1.422   4.367  0.0269 -0.2689 -0.4606
   73DG     H13 1669   0.503   1.170   4.060  0.5331  0.5873  0.8159
   73DG     H14 1670   0.568   1.051   4.172  0.7443  0.9105  1.9538
   73DG     H15 1671   0.801   1.436   4.273  0.4793  0.8950 -0.0564
   73DG     H16 1672   0.763   1.518   4.418  0.9010  0.9724 -2.8651
   73DG     C17 1673   0.461   1.208   4.263  0.0405 -0.4976  0.7358
   73DG     C18 1674   0.602   1.388   4.345  0.4179 -0.3089  0.8629
   73DG     O19 1675   0.595   1.270   4.272  0.1112 -0.0562  0.0287
   73DG     H20 1676   0.435   1.161   4.358 -0.9074 -0.2237  0.6171
   73DG     H21 1677   0.397   1.293   4.238 -0.5809 -0.4894  2.2464
   73DG     H22 1678   0.539   1.374   4.433  0.3269  0.5207  0.9385
   73DG     H23 1679   0.564   1.478   4.297 -0.7545 -2.0603 -1.6966
   74DG      C1 1680   5.254   5.447   5.253  0.0851  0.2270  0.2170
   74DG      C2 1681   5.160   4.820   5.202  0.0150  0.3654  0.4874
   74DG      H3 1682   5.252   5.540   5.196  2.0491 -1.0470 -2.1472
   74DG      H4 1683   5.349   5.429   5.305  0.2754  2.2063  0.6660
   74DG      H5 1684   5.171   5.444   5.324  0.0342 -1.5348  0.1283
   74DG      H6 1685   5.127   4.716   5.195 -0.0080  0.3492  0.8404
   74DG      H7 1686   5.198   4.833   5.100  1.3981 -1.6794  0.6809
   74DG      H8 1687   5.246   4.833   5.267  0.8692  0.6976 -0.6759
   74DG      O9 1688   5.233   5.340   5.158 -0.7406 -0.1165  0.1285
   74DG     O10 1689   5.058   4.912   5.240 -0.0593 -0.5103 -0.5239
   74DG     C11 1690   5.130   5.360   5.065 -0.2226  0.1119 -0.1989
   74DG     C12 1691   4.955   4.931   5.143  0.0252 -0.0449  0.6406
   74DG     H13 1692   5.165   5.437   4.996  1.7841  0.2699  0.9360
   74DG     H14 1693   5.038   5.395   5.112  0.2294  0.2838  0.5756
   74DG     H15 1694   4.873   4.986   5.189 -0.7141  0.4244 -1.1163
   74DG     H16 1695   4.920   4.837   5.099  1.9206 -0.1674 -0.7341
   74DG     C17 1696   5.107   5.234   4.985  0.4161 -0.2324  0.7924
   74DG     C18 1697   5.000   5.021   5.031  0.0629  0.6074  0.2772
   74DG     O19 1698   5.063   5.139   5.076 -0.4004 -0.4187  0.1506
   74DG     H20 1699   5.206   5.208   4.947  1.6417  1.0400  2.9055
   74DG     H21 1700   5.034   5.245   4.906  1.0230  2.4248  0.5319
   74DG     H22 1701   5.064   4.965   4.963  0.1790  0.3201  0.6228
   74DG     H23 1702   4.907   5.037   4.977 -0.3587  0.9564  1.0906
   75DG      C1 1703   1.794   3.228   2.782  0.5406  1.1735 -0.8387
   75DG      C2 1704   1.215   3.696   2.816 -0.5186  0.2096 -0.1138
   75DG      H3 1705   1.874   3.264   2.848  0.6935 -0.2074 -0.2439
   75DG      H4 1706   1.783   3.289   2.692 -0.5648  1.2562 -0.6665
   75DG      H5 1707   1.809   3.121   2.770 -2.0093  0.9479 -2.7707
   75DG      H6 1708   1.289   3.762   2.862  1.2774  1.2322 -4.0092
   75DG      H7 1709   1.218   3.720   2.709  0.7146  1.3191  0.1453
   75DG      H8 1710   1.117   3.717   2.859 -0.1720  2.1099 -0.1664
   75DG      O9 1711   1.672   3.256   2.850 -0.6317 -0.6821  0.0865
   75DG     O10 1712   1.251   3.560   2.837  1.0190 -0.2862  0.1242
   75DG     C11 1713   1.559   3.203   2.776  0.3472 -0.7779  0.4110
   75DG     C12 1714   1.269   3.530   2.979  0.5001  0.0874  0.3058
   75DG     H13 1715   1.554   3.101   2.738  0.2010 -0.4040 -0.6179
   75DG     H14 1716   1.551   3.265   2.687 -1.7357 -0.8048  0.5355
   75DG     H15 1717   1.181   3.568   3.032  0.1670 -1.0750  0.6066
   75DG     H16 1718   1.348   3.594   3.018 -0.4747  0.7061  1.3492
   75DG     C17 1719   1.431   3.221   2.866 -0.3480 -0.4136  0.0890
   75DG     C18 1720   1.301   3.383   2.989 -0.0912  0.1150  0.3122
   75DG     O19 1721   1.403   3.362   2.885 -0.0485 -0.2178 -0.1138
   75DG     H20 1722   1.441   3.169   2.961 -1.7839  2.0527  1.7130
   75DG     H21 1723   1.352   3.159   2.822 -0.6727 -1.0523  1.5041
   75DG     H22 1724   1.327   3.356   3.092  0.3658 -2.2828 -0.3643
   75DG     H23 1725   1.215   3.319   2.967  0.8762 -0.8191 -0.8787
   76DG      C1 1726   3.533   4.277   3.586 -0.0937  0.0053 -0.2327
   76DG      C2 1727   3.438   4.036   4.345 -0.7015  0.3541  0.3349
   76DG      H3 1728   3.527   4.177   3.544  0.0517 -0.6761  1.2890
   76DG      H4 1729   3.578   4.347   3.516 -0.6298  1.9216  1.2692
   76DG      H5 1730   3.425   4.288   3.592 -0.2591 -1.9593  1.7391
   76DG      H6 1731   3.409   3.936   4.313 -0.3050  0.0690  0.8338
   76DG      H7 1732   3.494   4.032   4.439  1.2794 -0.6642 -0.8087
   76DG      H8 1733   3.346   4.093   4.361 -0.7490 -0.1093  1.9849
   76DG      O9 1734   3.593   4.263   3.719  0.8114 -0.1034 -0.2241
   76DG     O10 1735   3.513   4.100   4.239  0.4568  0.2633 -0.3192
   76DG     C11 1736   3.607   4.379   3.795  0.4629  0.5456 -0.4037
   76DG     C12 1737   3.535   4.237   4.266 -0.5277 -0.3339  0.3715
   76DG     H13 1738   3.508   4.424   3.810  0.4502 -0.2765  2.6474
   76DG     H14 1739   3.667   4.454   3.744  1.7791 -0.5423 -0.5056
   76DG     H15 1740   3.581   4.248   4.364  0.5324 -2.6826  0.1846
   76DG     H16 1741   3.440   4.291   4.274 -0.1491  0.5303 -0.6858
   76DG     C17 1742   3.678   4.356   3.930 -0.6262  0.5332 -0.9133
   76DG     C18 1743   3.637   4.286   4.161 -0.1394 -0.7316  0.0860
   76DG     O19 1744   3.591   4.294   4.026  0.1905  0.0259 -0.3915
   76DG     H20 1745   3.723   4.447   3.969  1.1374  0.5002 -2.6714
   76DG     H21 1746   3.776   4.310   3.915  0.6164  3.0006 -0.9308
   76DG     H22 1747   3.679   4.381   4.192  1.4774 -1.1233 -0.8016
   76DG     H23 1748   3.726   4.223   4.161 -1.0078 -2.0593  2.1038
   77DG      C1 1749   0.339   5.324   5.098 -0.4039 -0.4049 -0.2051
   77DG      C2 1750   0.607   5.672   5.675 -0.7451  0.4991 -0.1347
   77DG      H3 1751   0.351   5.377   5.003 -0.9212 -2.2627 -1.3694
   77DG      H4 1752   0.236   5.352   5.120  0.0633  1.4836 -0.2652
   77DG      H5 1753   0.338   5.219   5.069  1.5118 -0.6874  0.5916
   77DG      H6 1754   0.499   5.688   5.682 -0.8833 -0.8619  1.9714
   77DG      H7 1755   0.657   5.662   5.771  0.2307 -0.5568 -0.7255
   77DG      H8 1756   0.655   5.749   5.614 -1.9600  2.9876  1.8443
   77DG      O9 1757   0.442   5.355   5.196 -0.0656 -0.2547  0.5368
   77DG     O10 1758   0.617   5.543   5.607  0.2443 -0.4496  0.1758
   77DG     C11 1759   0.568   5.306   5.154 -0.2606 -0.1552 -0.2042
   77DG     C12 1760   0.751   5.506   5.573 -0.1606  0.3639 -0.3053
   77DG     H13 1761   0.629   5.376   5.098  2.0974  0.1187  2.5312
   77DG     H14 1762   0.576   5.207   5.109 -0.0023 -1.0098  1.6619
   77DG     H15 1763   0.813   5.497   5.662  1.9202  1.7649 -1.5419
   77DG     H16 1764   0.800   5.588   5.521 -2.4559  1.7435 -0.4222
   77DG     C17 1765   0.643   5.286   5.286  0.3422  0.2410 -0.1197
   77DG     C18 1766   0.756   5.380   5.477  0.5267  0.2562  0.2064
   77DG     O19 1767   0.662   5.402   5.367 -0.0951 -0.2479 -0.5539
   77DG     H20 1768   0.739   5.240   5.261 -0.5739 -1.0664 -1.3737
   77DG     H21 1769   0.586   5.214   5.345 -0.3673  1.2311  0.4303
   77DG     H22 1770   0.856   5.371   5.435  1.5511  2.1143  2.0713
   77DG     H23 1771   0.719   5.295   5.535 -0.4165  1.0685  0.8290
   78DG      C1 1772   3.141   0.891   4.313  0.0202  0.2481  0.1356
   78DG      C2 1773   3.352   0.559   4.003 -0.0005 -0.3045  0.4882
   78DG      H3 1774   3.234   0.901   4.368  0.0332 -1.0395  0.3762
   78DG      H4 1775   3.141   0.796   4.260 -0.7910  0.8838 -1.0576
   78DG      H5 1776   3.061   0.867   4.384 -0.4991 -2.0341 -1.1180
   78DG      H6 1777   3.361   0.460   3.960 -2.0300  0.5815 -2.2813
   78DG      H7 1778   3.428   0.624   3.959 -0.1054  0.8644  1.9504
   78DG      H8 1779   3.360   0.557   4.112  1.6975  0.6588  0.4143
   78DG      O9 1780   3.099   0.990   4.227 -0.0451 -0.0199  0.0845
   78DG     O10 1781   3.225   0.617   3.964 -0.0950  0.2835  0.1566
   78DG     C11 1782   2.976   0.962   4.156 -0.2852  0.4147  0.3677
   78DG     C12 1783   3.111   0.547   3.996  0.8380 -0.6617  0.2501
   78DG     H13 1784   2.934   1.054   4.117 -2.9997 -0.0207  1.9871
   78DG     H14 1785   2.905   0.926   4.230 -1.5750 -0.6479 -1.3089
   78DG     H15 1786   3.114   0.517   4.101  0.2477 -1.3772  0.0664
   78DG     H16 1787   3.096   0.466   3.924 -0.4788 -0.9222  0.7959
   78DG     C17 1788   2.972   0.857   4.050 -0.1238  0.9527  0.4976
   78DG     C18 1789   2.988   0.635   3.984 -0.1689 -0.3120 -0.2035
   78DG     O19 1790   3.014   0.728   4.090 -0.1266  0.4756 -0.2552
   78DG     H20 1791   3.032   0.894   3.967 -0.8505  1.3551  0.1413
   78DG     H21 1792   2.870   0.842   4.015 -0.0173  0.0713  0.5451
   78DG     H22 1793   2.976   0.689   3.890  2.2118 -0.0478 -0.4172
   78DG     H23 1794   2.895   0.585   4.011 -0.5140  0.7157  0.5651
   79DG      C1 1795   1.891   4.486   4.760  0.5658 -0.2441  0.0492
   79DG      C2 1796   1.139   4.199   4.347 -0.3303 -0.4970  0.3065
   79DG      H3 1797   1.890   4.566   4.685 -3.0775  0.4582  0.6217
   79DG      H4 1798   1.892   4.399   4.695 -2.2825 -0.2708 -0.0851
   79DG      H5 1799   1.976   4.476   4.827  0.3770 -0.2622  0.2874
   79DG      H6 1800   1.098   4.300   4.356  0.5621 -0.2264  1.6192
   79DG      H7 1801   1.141   4.175   4.241  0.2793  0.7562  0.0121
   79DG      H8 1802   1.084   4.126   4.407  0.8669  0.2297  2.4095
   79DG      O9 1803   1.767   4.493   4.823  1.0494 -0.3881 -0.7287
   79DG     O10 1804   1.283   4.195   4.383  0.1020  0.9273 -0.1176
   79DG     C11 1805   1.655   4.489   4.728  0.2618  0.2277 -0.1725
   79DG     C12 1806   1.313   4.234   4.514  0.7281 -0.0173 -0.4114
   79DG     H13 1807   1.650   4.558   4.644 -2.8570  0.1397 -0.1576
   79DG     H14 1808   1.565   4.497   4.789  0.7871  1.2636  0.5045
   79DG     H15 1809   1.266   4.183   4.598 -0.2671 -0.4571 -1.2198
   79DG     H16 1810   1.274   4.336   4.518  0.2652 -0.2030 -0.1649
   79DG     C17 1811   1.641   4.360   4.657  0.1127 -0.5918 -0.3192
   79DG     C18 1812   1.468   4.240   4.532  0.2153 -1.0079  0.0955
   79DG     O19 1813   1.506   4.331   4.635 -0.3161  0.2186 -0.5695
   79DG     H20 1814   1.676   4.277   4.718 -0.3768 -1.1166 -0.7370
   79DG     H21 1815   1.692   4.359   4.560  0.4411 -2.5752 -0.1556
   79DG     H22 1816   1.509   4.139   4.543 -0.9686 -1.4418  0.5865
   79DG     H23 1817   1.507   4.271   4.435  1.5801 -0.4428  0.7955
   80DG      C1 1818   0.643   1.201   5.309  0.4355 -0.1145  0.0239
   80DG      C2 1819   0.047   0.744   5.260 -0.0765  0.1848  0.0556
   80DG      H3 1820   0.662   1.188   5.416 -0.4477 -0.7764  0.1091
   80DG      H4 1821   0.627   1.308   5.297 -0.0330 -0.1951 -0.0850
   80DG      H5 1822   0.726   1.160   5.251 -0.3388 -2.2621  0.3313
   80DG      H6 1823   0.110   0.657   5.241 -0.2025 -0.1898  1.2641
   80DG      H7 1824  -0.054   0.708   5.239  0.7310 -1.4808 -1.2617
   80DG      H8 1825   0.077   0.826   5.195  1.0113  0.0959  0.4283
   80DG      O9 1826   0.515   1.142   5.280  0.2197  0.5759 -0.0668
   80DG     O10 1827   0.058   0.783   5.392 -0.5503 -0.1851 -0.7376
   80DG     C11 1828   0.398   1.194   5.347  0.3230 -0.2415 -0.3339
   80DG     C12 1829   0.192   0.801   5.427  0.0840  0.7215 -0.1114
   80DG     H13 1830   0.392   1.300   5.322 -0.5841 -0.7580 -2.5445
   80DG     H14 1831   0.397   1.189   5.456 -0.3279 -0.8297 -0.3629
   80DG     H15 1832   0.258   0.734   5.372 -1.9641  0.0859 -1.9136
   80DG     H16 1833   0.201   0.750   5.523 -2.1612  0.5039  0.0398
   80DG     C17 1834   0.276   1.140   5.278 -0.8019 -0.0379  0.0303
   80DG     C18 1835   0.245   0.947   5.432  0.6237 -0.0265  0.0754
   80DG     O19 1836   0.254   1.001   5.297  0.2602 -0.2125 -0.1756
   80DG     H20 1837   0.290   1.148   5.170 -1.5832 -2.4383 -0.3179
   80DG     H21 1838   0.190   1.198   5.312 -0.5168 -0.0096  0.6954
   80DG     H22 1839   0.184   1.014   5.492  0.7738  0.4351 -0.2898
   80DG     H23 1840   0.345   0.939   5.474  1.5755  0.7299 -1.9243
   81DG      C1 1841   2.589   0.992   5.381  0.4448  0.4085  0.6943
   81DG      C2 1842   2.660   0.523   4.869  0.4334 -0.2687  1.0711
   81DG      H3 1843   2.499   1.052   5.388 -0.4601 -0.5551 -1.6215
   81DG      H4 1844   2.632   1.001   5.281 -1.6746 -0.4504 -0.3472
   81DG      H5 1845   2.662   1.030   5.453  2.7298  0.0373 -1.2692
   81DG      H6 1846   2.606   0.589   4.801 -3.6162 -2.5639  1.7064
   81DG      H7 1847   2.766   0.534   4.845 -0.2408  1.1150 -1.6600
   81DG      H8 1848   2.626   0.421   4.853  1.3969 -0.2662 -1.3782
   81DG      O9 1849   2.569   0.852   5.402  0.1010 -0.2221  0.1293
   81DG     O10 1850   2.629   0.581   4.999 -0.1257  0.3139  0.8534
   81DG     C11 1851   2.434   0.804   5.376  0.5459 -0.3315 -0.0416
   81DG     C12 1852   2.677   0.510   5.113  0.3900 -0.2630 -0.3667
   81DG     H13 1853   2.405   0.848   5.281 -0.9121  0.3595  0.6830
   81DG     H14 1854   2.365   0.843   5.451  0.8507 -0.6977  0.4360
   81DG     H15 1855   2.786   0.508   5.116  0.4876  1.8831  2.9829
   81DG     H16 1856   2.646   0.406   5.106  1.7918 -0.6277 -1.7378
   81DG     C17 1857   2.433   0.647   5.369 -0.5686  0.6457 -0.1062
   81DG     C18 1858   2.627   0.572   5.246 -0.3986  0.6403 -0.4195
   81DG     O19 1859   2.489   0.607   5.239 -0.2414 -0.5121  0.0831
   81DG     H20 1860   2.329   0.614   5.376 -0.2697  0.0463  3.5975
   81DG     H21 1861   2.484   0.600   5.453  0.0210  0.3856 -0.6119
   81DG     H22 1862   2.648   0.490   5.314  1.9786  1.3976 -0.1305
   81DG     H23 1863   2.682   0.662   5.276 -0.8842  0.1882  2.1054
   82DG      C1 1864   3.095   2.274   4.469 -0.4801 -0.0728  0.3271
   82DG      C2 1865   3.530   1.754   4.297  0.0586  0.0527 -0.2948
   82DG      H3 1866   3.172   2.311   4.536 -0.5886  3.8570 -1.4428
   82DG      H4 1867   3.031   2.197   4.512 -0.8289  0.2499  0.3993
   82DG      H5 1868   3.031   2.361   4.449 -3.4010 -1.9903  0.6608
   82DG      H6 1869   3.535   1.652   4.258 -3.1854 -0.5950  0.7354
   82DG      H7 1870   3.621   1.807   4.268  0.8237 -1.3308 -0.5068
   82DG      H8 1871   3.517   1.746   4.405 -1.4515 -0.8494 -0.5250
   82DG      O9 1872   3.158   2.238   4.346  0.2672  0.2318  0.6903
   82DG     O10 1873   3.411   1.826   4.272 -0.3257  0.1702  0.0391
   82DG     C11 1874   3.065   2.191   4.246 -0.1076  0.4356 -0.7099
   82DG     C12 1875   3.414   1.887   4.142 -0.1380 -0.3252 -0.7472
   82DG     H13 1876   2.998   2.271   4.213 -0.0909  0.7208 -0.0716
   82DG     H14 1877   2.995   2.121   4.292  0.3734 -0.3446 -1.1402
   82DG     H15 1878   3.463   1.813   4.079 -0.6373 -1.8475  0.5803
   82DG     H16 1879   3.489   1.966   4.141 -1.3029  0.8577  0.6330
   82DG     C17 1880   3.130   2.120   4.130 -0.2683  0.3211  0.3891
   82DG     C18 1881   3.269   1.929   4.093 -0.6985  0.4485 -0.5426
   82DG     O19 1882   3.219   2.020   4.184  1.0353 -0.4180  0.6790
   82DG     H20 1883   3.192   2.184   4.068  0.6113 -0.1207  0.7938
   82DG     H21 1884   3.052   2.059   4.084 -0.9178  0.6317  1.0469
   82DG     H22 1885   3.281   1.967   3.991 -2.8377  0.3699 -0.8593
   82DG     H23 1886   3.208   1.839   4.087 -0.5387  0.2092  0.9509
   83DG      C1 1887   4.073   1.882   0.510 -0.0646 -0.7325  0.0994
   83DG      C2 1888   4.633   1.395   0.165 -0.6197 -0.0045  0.0757
   83DG      H3 1889   4.146   1.934   0.572 -1.3332  0.2967  0.7882
   83DG      H4 1890   3.995   1.884   0.586 -0.7553 -1.2280 -0.5714
   83DG      H5 1891   4.054   1.942   0.420 -1.2059  0.8650  1.3497
   83DG      H6 1892   4.644   1.502   0.152 -1.7147 -0.1009 -1.9349
   83DG      H7 1893   4.729   1.349   0.193 -0.3377  2.1926  3.2606
   83DG      H8 1894   4.599   1.362   0.068 -0.6530 -3.5084  1.1286
   83DG      O9 1895   4.102   1.747   0.479  0.5216 -0.2229 -0.0434
   83DG     O10 1896   4.548   1.362   0.269 -0.0614  0.0516 -0.1816
   83DG     C11 1897   4.156   1.680   0.595 -0.3186  0.0626 -0.0296
   83DG     C12 1898   4.450   1.456   0.301  0.0211  0.5435  0.5958
   83DG     H13 1899   4.075   1.666   0.667  1.6074 -1.0750  2.0001
   83DG     H14 1900   4.234   1.740   0.641 -0.6536  0.2788  0.2605
   83DG     H15 1901   4.365   1.454   0.232 -1.1440  0.4829  1.9832
   83DG     H16 1902   4.500   1.553   0.300  1.5229 -0.2079  0.2892
   83DG     C17 1903   4.213   1.538   0.569 -0.0768  0.1770  0.6227
   83DG     C18 1904   4.388   1.433   0.440 -0.0608  0.0684  0.7210
   83DG     O19 1905   4.307   1.549   0.461 -0.4737 -0.2026 -0.1777
   83DG     H20 1906   4.142   1.473   0.518 -0.1917  0.9485 -0.2329
   83DG     H21 1907   4.265   1.501   0.657 -0.5528 -0.2611  0.7175
   83DG     H22 1908   4.327   1.343   0.443  1.1105 -0.7260  3.0071
   83DG     H23 1909   4.469   1.428   0.513  1.5273  3.7873 -0.5391
   84DG      C1 1910   1.536   0.066   4.014 -0.1282 -0.1938 -0.5767
   84DG      C2 1911   1.666  -0.242   4.410  0.5565 -0.1798  0.2614
   84DG      H3 1912   1.557   0.034   4.116  1.2480  1.9428 -0.1275
   84DG      H4 1913   1.493   0.166   4.022  0.8797  0.1092  1.5861
   84DG      H5 1914   1.639   0.075   3.979 -0.5833 -0.9777 -2.2239
   84DG      H6 1915   1.618  -0.152   4.448 -0.7869 -1.4735  1.7858
   84DG      H7 1916   1.686  -0.316   4.488 -1.6338 -0.2694  0.7934
   84DG      H8 1917   1.766  -0.221   4.372 -0.4083 -0.4979 -2.6647
   84DG      O9 1918   1.460  -0.020   3.937  0.1052  0.4041  0.2441
   84DG     O10 1919   1.583  -0.287   4.302  0.5020  0.1777 -0.5043
   84DG     C11 1920   1.323  -0.041   3.982 -0.5596  0.4298  0.2355
   84DG     C12 1921   1.450  -0.326   4.335  0.0065 -0.2550 -0.5733
   84DG     H13 1922   1.250  -0.013   3.907  1.6505  1.2016 -1.7405
   84DG     H14 1923   1.289   0.040   4.047 -1.5303  0.1650  0.0682
   84DG     H15 1924   1.415  -0.256   4.412 -0.1488 -2.2637  1.2737
   84DG     H16 1925   1.449  -0.418   4.394 -2.4038 -0.8628 -1.4511
   84DG     C17 1926   1.297  -0.189   4.028  0.0157 -0.1140 -0.4074
   84DG     C18 1927   1.364  -0.322   4.204  0.0206  0.0346 -0.1911
   84DG     O19 1928   1.366  -0.193   4.148  0.0765  0.3308  0.3108
   84DG     H20 1929   1.322  -0.264   3.953  1.9443  2.5213 -2.6139
   84DG     H21 1930   1.189  -0.199   4.038 -0.2888  2.6799  0.0089
   84DG     H22 1931   1.412  -0.381   4.126  1.4919  1.3309 -0.3005
   84DG     H23 1932   1.261  -0.350   4.227 -0.2013  0.9039 -0.0926
   85DG      C1 1933   3.082   2.326   0.043 -0.3450 -0.3864 -0.1863
   85DG      C2 1934   2.863   1.750  -0.176  0.6972  1.1639  0.9490
   85DG      H3 1935   3.068   2.409   0.112 -0.6486 -0.1545 -0.5212
   85DG      H4 1936   3.108   2.386  -0.044  0.5537 -1.1918 -0.4917
   85DG      H5 1937   3.177   2.273   0.055 -0.5128 -0.8121 -0.6679
   85DG      H6 1938   2.817   1.845  -0.149 -0.9507  0.1829  1.7764
   85DG      H7 1939   2.923   1.770  -0.265 -2.1340  0.5504 -1.2769
   85DG      H8 1940   2.782   1.687  -0.212  1.9535  0.5621 -1.0022
   85DG      O9 1941   2.970   2.242   0.034  0.4178 -0.5141 -0.4455
   85DG     O10 1942   2.942   1.698  -0.073  0.2634 -0.1961 -0.1769
   85DG     C11 1943   2.957   2.169   0.151  0.5004 -0.3477 -0.2796
   85DG     C12 1944   3.029   1.790  -0.019  1.4869  0.1902 -0.3345
   85DG     H13 1945   2.953   2.239   0.235 -1.4798  0.6417 -1.1307
   85DG     H14 1946   3.052   2.121   0.174  0.4366  0.4698  1.9240
   85DG     H15 1947   3.056   1.867  -0.091  0.1910  1.3888  0.4113
   85DG     H16 1948   3.123   1.742   0.008  1.2466 -1.9507 -2.8211
   85DG     C17 1949   2.845   2.065   0.149 -0.2523  0.3082  0.2242
   85DG     C18 1950   2.967   1.865   0.105  0.4288  0.6774 -0.8874
   85DG     O19 1951   2.877   1.958   0.058  0.1716  0.4673  0.3690
   85DG     H20 1952   2.761   2.122   0.109  0.3629 -1.5588 -4.4616
   85DG     H21 1953   2.795   2.018   0.234  1.1639  1.1598  1.5724
   85DG     H22 1954   2.922   1.797   0.177 -1.6001  2.3949 -0.4387
   85DG     H23 1955   3.056   1.905   0.152  0.2698 -0.2243  0.2369
   86DG      C1 1956   4.835   4.449   0.337 -0.0466 -0.3273 -0.2057
   86DG      C2 1957   5.083   5.009   0.415  0.0795  0.6696  0.2911
   86DG      H3 1958   4.796   4.549   0.356  0.5837  0.0662 -0.9368
   86DG      H4 1959   4.760   4.380   0.374 -0.1270  0.1006  0.4392
   86DG      H5 1960   4.875   4.439   0.236  4.1152 -1.7054  1.3657
   86DG      H6 1961   5.051   5.111   0.438  0.7825  1.1598 -0.8053
   86DG      H7 1962   5.171   4.991   0.477 -0.6685 -0.6551  1.0104
   86DG      H8 1963   5.120   5.005   0.313  2.7686  1.1413  1.1637
   86DG      O9 1964   4.946   4.430   0.424  0.3976 -0.4795 -0.1215
   86DG     O10 1965   5.000   4.901   0.444 -0.3094  0.7149  0.3071
   86DG     C11 1966   4.924   4.427   0.569  0.0446 -0.1514  0.1537
   86DG     C12 1967   4.984   4.895   0.584 -0.4435 -0.7523 -0.1893
   86DG     H13 1968   5.016   4.418   0.627 -0.5477 -0.5663  1.0440
   86DG     H14 1969   4.873   4.335   0.598 -2.0531  0.5543 -1.0722
   86DG     H15 1970   4.940   4.988   0.621  1.2292 -0.1057  0.2584
   86DG     H16 1971   5.074   4.877   0.643 -0.1621 -0.0712 -0.4042
   86DG     C17 1972   4.848   4.557   0.624  0.4836  0.2750 -0.3447
   86DG     C18 1973   4.880   4.786   0.629  0.1466  0.1333 -0.1270
   86DG     O19 1974   4.941   4.660   0.586  0.7398 -0.0326 -0.7180
   86DG     H20 1975   4.833   4.543   0.731  2.2638 -2.8792 -0.3876
   86DG     H21 1976   4.748   4.579   0.585 -0.2873 -0.3767  1.1818
   86DG     H22 1977   4.862   4.789   0.737 -0.5257  0.4183 -0.2433
   86DG     H23 1978   4.785   4.802   0.579  1.2360  0.6922 -2.1168
   87DG      C1 1979   1.983   1.458   3.543  0.6419  0.0423  0.0786
   87DG      C2 1980   1.182   1.190   3.217  1.2040  1.3999  0.4305
   87DG      H3 1981   2.035   1.541   3.590 -1.4051 -0.2841  3.1876
   87DG      H4 1982   2.051   1.376   3.521 -0.3047 -0.4386 -1.2350
   87DG      H5 1983   1.911   1.416   3.613  2.0128 -3.0102 -0.1686
   87DG      H6 1984   1.153   1.250   3.130 -0.4295 -1.6271 -1.2997
   87DG      H7 1985   1.231   1.101   3.176 -0.6609  0.6490 -0.2724
   87DG      H8 1986   1.088   1.149   3.254  1.7705 -2.4716 -1.8847
   87DG      O9 1987   1.918   1.505   3.427  0.2084 -0.8936  0.4380
   87DG     O10 1988   1.263   1.254   3.305  0.3853 -0.1056 -0.0214
   87DG     C11 1989   1.833   1.410   3.372 -0.2426  0.0019 -0.5623
   87DG     C12 1990   1.395   1.264   3.271 -0.1541  0.3189  0.0457
   87DG     H13 1991   1.871   1.309   3.388 -1.5993 -0.6141 -1.0602
   87DG     H14 1992   1.813   1.426   3.266 -0.0004 -0.1046 -0.6266
   87DG     H15 1993   1.417   1.305   3.172  2.1479 -1.7366 -0.3967
   87DG     H16 1994   1.438   1.164   3.273 -1.2443 -0.1891  2.9557
   87DG     C17 1995   1.691   1.430   3.436 -0.7782 -0.2932 -0.0318
   87DG     C18 1996   1.474   1.341   3.377 -0.0814  0.4770 -0.3223
   87DG     O19 1997   1.617   1.334   3.362 -0.0366  0.0343 -0.2202
   87DG     H20 1998   1.665   1.528   3.396  0.0374 -1.3074 -3.3667
   87DG     H21 1999   1.680   1.421   3.544  0.3198 -1.3834  0.0118
   87DG     H22 2000   1.437   1.444   3.382 -0.6432  0.3369 -1.2250
   87DG     H23 2001   1.470   1.292   3.474  0.3352 -0.4285 -0.7494
   88DG      C1 2002   2.054   2.257   0.318  0.4089  0.4606  0.0096
   88DG      C2 2003   2.011   2.798   0.890  0.3562 -0.6819  0.4849
   88DG      H3 2004   2.155   2.249   0.358  1.1908  0.6799 -1.8280
   88DG      H4 2005   2.049   2.269   0.210 -0.0523  0.7799  0.0634
   88DG      H5 2006   2.016   2.164   0.361 -0.2115 -0.2641 -2.0152
   88DG      H6 2007   2.016   2.905   0.909  1.5742 -0.7280  0.4843
   88DG      H7 2008   1.920   2.763   0.940  0.3664  0.4037  1.2971
   88DG      H8 2009   2.097   2.765   0.948  0.8270  3.0588  2.2426
   88DG      O9 2010   1.991   2.366   0.375  0.1196  0.2624  0.1981
   88DG     O10 2011   2.004   2.766   0.751  0.1338  0.0199  0.2883
   88DG     C11 2012   2.046   2.487   0.325  0.1008 -0.1908  0.2317
   88DG     C12 2013   2.049   2.639   0.734 -0.0428  0.4143  0.4855
   88DG     H13 2014   2.016   2.487   0.221 -1.1920 -1.6374  0.5508
   88DG     H14 2015   2.154   2.488   0.337  0.2281  1.3381 -0.7724
   88DG     H15 2016   2.009   2.574   0.811 -0.1791  0.5134  0.4996
   88DG     H16 2017   2.157   2.637   0.745  0.2085  1.0446 -1.4663
   88DG     C17 2018   1.981   2.612   0.375  0.8100  0.0404 -0.0596
   88DG     C18 2019   2.007   2.577   0.596 -0.9163 -1.1163 -0.3397
   88DG     O19 2020   2.038   2.661   0.494  0.1565 -0.4885 -0.5451
   88DG     H20 2021   1.873   2.595   0.382  0.4366  1.2276 -2.2790
   88DG     H21 2022   1.989   2.690   0.300 -0.6926 -0.3610 -0.6721
   88DG     H22 2023   2.058   2.481   0.586  1.1566  0.0531 -2.0099
   88DG     H23 2024   1.901   2.554   0.600 -0.7889 -1.5030  1.6373
   89DG      C1 2025   4.842   3.416   2.652  0.1566  0.0471  0.3578
   89DG      C2 2026   4.252   3.124   2.833  0.6596 -0.6519  0.4685
   89DG      H3 2027   4.883   3.516   2.668  2.3599 -0.4519 -1.6412
   89DG      H4 2028   4.913   3.348   2.700 -1.8048 -1.6882  0.9321
   89DG      H5 2029   4.750   3.408   2.710 -0.1457 -2.1768 -0.3306
   89DG      H6 2030   4.159   3.071   2.809  0.2637  0.7373 -1.2468
   89DG      H7 2031   4.295   3.068   2.916 -1.7767  0.4768  2.6527
   89DG      H8 2032   4.235   3.229   2.857  0.1149 -0.6678  0.1645
   89DG      O9 2033   4.833   3.401   2.513 -0.3175  0.3676  0.3133
   89DG     O10 2034   4.350   3.125   2.728 -0.6172  0.0257 -0.3365
   89DG     C11 2035   4.796   3.273   2.473  0.5815  0.6335 -0.4803
   89DG     C12 2036   4.482   3.156   2.784 -0.1553 -0.1754  0.4217
   89DG     H13 2037   4.829   3.195   2.541  0.3499  0.9766  0.0275
   89DG     H14 2038   4.848   3.243   2.382  1.3731 -0.6871  0.3729
   89DG     H15 2039   4.504   3.079   2.858  1.1081 -1.1995 -0.9638
   89DG     H16 2040   4.490   3.257   2.823 -0.1832  0.1400 -0.3741
   89DG     C17 2041   4.639   3.258   2.461 -0.2084  0.2332  0.1284
   89DG     C18 2042   4.581   3.143   2.663  0.0848  0.0524  0.7848
   89DG     O19 2043   4.583   3.264   2.591 -0.4527 -0.0640  0.1502
   89DG     H20 2044   4.600   3.179   2.398 -0.1247  0.6430 -0.4478
   89DG     H21 2045   4.603   3.346   2.407 -0.5803  0.4333  0.6977
   89DG     H22 2046   4.682   3.124   2.699  1.0019  2.1332 -0.4807
   89DG     H23 2047   4.553   3.064   2.593  1.7074  2.1293 -2.5029
   90DG      C1 2048   0.718   4.295   5.095 -0.1855  0.7758  0.3117
   90DG      C2 2049   0.949   3.890   4.623  0.3925  0.7094 -0.5558
   90DG      H3 2050   0.807   4.353   5.069  1.2335 -0.0510  3.0282
   90DG      H4 2051   0.692   4.318   5.198  0.5510  1.9973  0.2520
   90DG      H5 2052   0.642   4.343   5.032 -1.9210  0.9380  2.4129
   90DG      H6 2053   0.882   3.933   4.548 -0.4082 -2.4292 -1.8084
   90DG      H7 2054   1.032   3.960   4.626  1.7985 -0.7934 -2.2565
   90DG      H8 2055   0.989   3.803   4.571  0.1703  1.6270 -2.3602
   90DG      O9 2056   0.739   4.155   5.044  0.6000 -0.0480 -0.4889
   90DG     O10 2057   0.905   3.881   4.757  0.2525  0.2569 -0.2210
   90DG     C11 2058   0.616   4.083   5.071 -0.2090  0.1648  0.4792
   90DG     C12 2059   0.799   3.790   4.764  0.1798  0.6071 -0.3895
   90DG     H13 2060   0.535   4.109   5.003  1.0822 -2.0929 -2.1627
   90DG     H14 2061   0.578   4.107   5.170 -2.1571 -2.4333  0.4894
   90DG     H15 2062   0.824   3.687   4.739 -0.4604  0.3001  0.1826
   90DG     H16 2063   0.718   3.829   4.703 -3.3010 -1.8250  2.2780
   90DG     C17 2064   0.639   3.936   5.061 -0.0079  0.2140 -0.0894
   90DG     C18 2065   0.745   3.780   4.907  1.1076  0.1270 -0.3887
   90DG     O19 2066   0.715   3.912   4.939 -0.0084 -0.4503  0.1546
   90DG     H20 2067   0.552   3.872   5.049  0.4931 -0.3535 -0.8079
   90DG     H21 2068   0.705   3.891   5.135  0.1496 -1.9907 -1.4626
   90DG     H22 2069   0.654   3.719   4.902  0.5663  0.8176  0.7986
   90DG     H23 2070   0.815   3.740   4.980  1.1087 -0.4649 -0.7067
   91DG      C1 2071   4.430   3.836   4.527 -0.0700 -0.7130 -0.2347
   91DG      C2 2072   5.081   4.214   4.172  0.0738  0.5001 -0.4942
   91DG      H3 2073   4.441   3.933   4.575 -0.8860 -1.1473  0.8772
   91DG      H4 2074   4.470   3.763   4.597 -0.6558 -1.6494 -0.8463
   91DG      H5 2075   4.326   3.812   4.509  0.1222 -0.3791 -1.9477
   91DG      H6 2076   5.139   4.219   4.264 -0.8257 -0.5674  0.1507
   91DG      H7 2077   5.127   4.211   4.072 -2.2093  1.1344 -1.6258
   91DG      H8 2078   5.052   4.319   4.175  0.4471  0.6041  2.3534
   91DG      O9 2079   4.500   3.807   4.413 -0.0894 -1.0232  1.0196
   91DG     O10 2080   4.969   4.131   4.174  0.4451  0.0953 -0.0112
   91DG     C11 2081   4.614   3.880   4.387 -0.4770 -0.3372  0.2167
   91DG     C12 2082   4.987   3.994   4.124 -0.2740  0.2813  0.1859
   91DG     H13 2083   4.684   3.847   4.464 -1.0007  0.7729  1.1929
   91DG     H14 2084   4.591   3.986   4.391 -1.7368 -0.4121 -2.7468
   91DG     H15 2085   5.028   3.933   4.204 -2.6313 -1.2784  0.3080
   91DG     H16 2086   5.044   3.970   4.034 -1.7741 -2.4297 -0.1288
   91DG     C17 2087   4.658   3.861   4.239  0.5622  0.2829 -0.7059
   91DG     C18 2088   4.840   3.939   4.104  0.3177 -0.3937  0.0140
   91DG     O19 2089   4.774   3.936   4.233 -0.1789  0.6292  0.0270
   91DG     H20 2090   4.585   3.907   4.172  0.1996  0.4497 -0.1969
   91DG     H21 2091   4.677   3.755   4.218  1.1596  0.0434  0.9014
   91DG     H22 2092   4.778   3.995   4.034  0.6627  0.7518  0.6105
   91DG     H23 2093   4.862   3.840   4.064 -2.3242 -0.3023 -1.8957
   92DG      C1 2094   1.299   3.140   3.615  0.3560 -0.1700 -0.7122
   92DG      C2 2095   0.991   2.595   3.368  0.1148 -0.5930 -0.3406
   92DG      H3 2096   1.385   3.093   3.567  0.8750 -1.2211  1.1513
   92DG      H4 2097   1.323   3.148   3.721 -0.6321  0.0683 -0.4921
   92DG      H5 2098   1.285   3.243   3.583 -1.3044  0.1227  0.7780
   92DG      H6 2099   0.914   2.525   3.332 -0.0030 -0.7200  0.1575
   92DG      H7 2100   1.063   2.610   3.287  1.4414 -1.4283  0.6485
   92DG      H8 2101   1.036   2.566   3.463  0.3421  0.2137 -0.2020
   92DG      O9 2102   1.186   3.058   3.603 -0.1943 -0.7674  0.5182
   92DG     O10 2103   0.937   2.721   3.388  0.0551 -0.0555 -0.5831
   92DG     C11 2104   1.073   3.120   3.671  0.0431 -0.6912 -0.3876
   92DG     C12 2105   0.847   2.729   3.498 -0.3923 -0.0958  0.2434
   92DG     H13 2106   1.083   3.229   3.666  0.8412 -0.8188 -1.6943
   92DG     H14 2107   1.083   3.096   3.777 -1.7375  1.6960  0.4153
   92DG     H15 2108   0.894   2.686   3.586  1.3742 -0.8394 -1.0126
   92DG     H16 2109   0.748   2.686   3.481 -1.5857  2.8993 -1.0941
   92DG     C17 2110   0.934   3.076   3.616 -0.4516 -0.0371  0.1662
   92DG     C18 2111   0.821   2.873   3.538 -0.1778  0.2865  0.4115
   92DG     O19 2112   0.941   2.933   3.581  0.0457 -0.1370 -0.2774
   92DG     H20 2113   0.906   3.149   3.540  1.8291 -0.2536 -0.9712
   92DG     H21 2114   0.850   3.088   3.685 -1.1567 -1.3755 -0.4222
   92DG     H22 2115   0.770   2.921   3.455 -2.4985  2.4784  2.8967
   92DG     H23 2116   0.750   2.870   3.621 -2.1744 -2.4563 -1.2424
   93DG      C1 2117   1.027   4.576   2.972 -0.1742  0.3052 -0.4792
   93DG      C2 2118   1.352   4.898   2.395 -0.1887  0.3524  0.3447
   93DG      H3 2119   0.927   4.588   3.015  0.1462 -0.2684  0.4514
   93DG      H4 2120   1.098   4.539   3.045 -0.3527 -1.2617 -1.0533
   93DG      H5 2121   1.020   4.484   2.914 -0.0470  0.0133 -0.0341
   93DG      H6 2122   1.435   4.829   2.383 -2.0176 -1.9923  0.2938
   93DG      H7 2123   1.266   4.846   2.352 -1.2399  0.2278  2.4205
   93DG      H8 2124   1.359   4.994   2.345 -1.6670 -0.3730 -1.3798
   93DG      O9 2125   1.059   4.695   2.892  0.3760  0.1012 -0.2930
   93DG     O10 2126   1.324   4.923   2.530 -0.2751  0.4392 -0.2499
   93DG     C11 2127   1.097   4.803   2.976 -0.2486 -0.1922  0.4167
   93DG     C12 2128   1.197   4.994   2.553  0.2610 -0.1031  0.7663
   93DG     H13 2129   1.190   4.767   3.021 -0.6266 -1.5996  0.1142
   93DG     H14 2130   1.026   4.814   3.058  0.3763 -3.1992  1.4991
   93DG     H15 2131   1.121   4.923   2.519 -0.1047  1.0145 -0.8770
   93DG     H16 2132   1.199   5.075   2.480  1.3476 -2.2065 -1.7290
   93DG     C17 2133   1.110   4.939   2.902 -0.5962  0.8142 -0.6245
   93DG     C18 2134   1.177   5.038   2.701  0.1985  0.3179  0.1399
   93DG     O19 2135   1.203   4.927   2.791  0.0783 -0.2803  0.4729
   93DG     H20 2136   1.136   5.015   2.975 -0.2395  0.3259 -0.2337
   93DG     H21 2137   1.007   4.962   2.874 -1.2327  1.0363  1.7479
   93DG     H22 2138   1.241   5.121   2.734 -1.2478  1.1899  0.8246
   93DG     H23 2139   1.079   5.084   2.707  0.4986  1.2490 -1.4929
   94DG      C1 2140   0.066   4.971   5.218  0.7481 -0.5251  0.1077
   94DG      C2 2141   0.297   4.583   4.462  0.1545  0.3503 -0.3111
   94DG      H3 2142   0.087   4.867   5.246  1.5035 -0.8015 -1.3465
   94DG      H4 2143  -0.041   4.964   5.198  0.4309  0.5939  1.2886
   94DG      H5 2144   0.086   5.039   5.300 -2.2720  1.5876 -0.7217
   94DG      H6 2145   0.206   4.578   4.403  0.5361 -0.4433 -0.8548
   94DG      H7 2146   0.386   4.581   4.400  1.3300 -1.5883  1.2909
   94DG      H8 2147   0.304   4.480   4.497  2.1315  0.5422 -0.0478
   94DG      O9 2148   0.133   5.002   5.097 -0.1284 -0.2868 -0.0732
   94DG     O10 2149   0.305   4.675   4.566  0.0787 -0.0643  0.0420
   94DG     C11 2150   0.143   4.901   5.003  0.1193  0.1296 -0.2345
   94DG     C12 2151   0.253   4.802   4.527 -0.1561 -0.7626 -0.4565
   94DG     H13 2152   0.039   4.873   4.986  0.1086  1.1145 -2.0948
   94DG     H14 2153   0.207   4.824   5.046 -1.5623 -0.6407  0.9880
   94DG     H15 2154   0.148   4.776   4.520 -0.1091 -1.0620 -0.0686
   94DG     H16 2155   0.293   4.834   4.431 -0.7004 -0.6939 -0.6637
   94DG     C17 2156   0.198   4.951   4.869  0.2722 -0.6129  0.2236
   94DG     C18 2157   0.262   4.909   4.639 -0.3704  0.7666  0.2362
   94DG     O19 2158   0.193   4.860   4.758  0.9211  0.6867 -0.2798
   94DG     H20 2159   0.301   4.981   4.889 -0.1596  0.0324  1.5426
   94DG     H21 2160   0.144   5.040   4.838  1.2158 -0.3044 -0.5894
   94DG     H22 2161   0.367   4.921   4.667 -0.3992 -0.2508  0.8016
   94DG     H23 2162   0.227   5.004   4.597 -0.8995 -0.1685 -1.5253
   95DG      C1 2163   3.681   0.732   0.329 -0.2879  0.1819  0.3324
   95DG      C2 2164   2.928   0.394  -0.050 -0.4153  0.3840 -0.3114
   95DG      H3 2165   3.700   0.838   0.347 -0.6232  0.2436  0.3244
   95DG      H4 2166   3.756   0.703   0.255  0.0529 -2.1986  1.5292
   95DG      H5 2167   3.692   0.681   0.425  1.7306  1.0677  0.6484
   95DG      H6 2168   2.937   0.305   0.012  2.5607  0.4054 -0.5509
   95DG      H7 2169   2.824   0.425  -0.059  0.1684  2.4351 -0.7775
   95DG      H8 2170   2.958   0.391  -0.155  1.0788  1.0504  0.0728
   95DG      O9 2171   3.558   0.700   0.265 -0.1771 -0.2238  0.1550
   95DG     O10 2172   2.997   0.500   0.026  0.3905  0.1772 -0.5132
   95DG     C11 2173   3.545   0.572   0.203 -0.0471  0.1325  0.3959
   95DG     C12 2174   3.131   0.493   0.043  0.1900  0.4505  0.6470
   95DG     H13 2175   3.548   0.494   0.279 -0.7336  0.5350  0.8518
   95DG     H14 2176   3.629   0.550   0.138 -0.3534 -3.2323  0.9924
   95DG     H15 2177   3.176   0.456  -0.050 -3.9508 -2.2580 -0.5598
   95DG     H16 2178   3.156   0.417   0.118 -0.1514 -0.0328  0.2783
   95DG     C17 2179   3.429   0.571   0.102  0.2417 -0.1736  0.2672
   95DG     C18 2180   3.194   0.622   0.102 -0.5534  0.2124  0.0691
   95DG     O19 2181   3.314   0.597   0.177 -0.7582  0.0258 -0.5828
   95DG     H20 2182   3.428   0.477   0.047 -2.0917 -1.2065  1.9298
   95DG     H21 2183   3.446   0.655   0.034  0.8022  0.1736  0.8316
   95DG     H22 2184   3.202   0.701   0.028 -0.5476  0.6469  0.5308
   95DG     H23 2185   3.121   0.662   0.172  2.3410  0.6520  3.0790
   96DG      C1 2186   0.713   1.175   0.918  0.4225  0.3332 -0.0837
   96DG      C2 2187   0.758   1.866   0.943  0.2681 -0.3074  0.4785
   96DG      H3 2188   0.766   1.166   1.013 -0.8006 -1.1269  0.5152
   96DG      H4 2189   0.769   1.177   0.825  0.6258  3.6369 -0.0030
   96DG      H5 2190   0.665   1.077   0.929  2.4618 -0.6126  0.9504
   96DG      H6 2191   0.755   1.833   0.839  0.1211 -2.1221  1.0398
   96DG      H7 2192   0.705   1.961   0.952  0.1455 -0.2860 -0.4166
   96DG      H8 2193   0.865   1.863   0.963 -0.0786  0.5301  2.7622
   96DG      O9 2194   0.614   1.278   0.932 -0.1507  0.3933  0.2609
   96DG     O10 2195   0.690   1.773   1.022 -0.6657  0.5802 -0.2605
   96DG     C11 2196   0.558   1.296   1.064 -0.5769  0.6620 -0.3846
   96DG     C12 2197   0.556   1.762   0.985 -0.2833 -0.1808 -0.3001
   96DG     H13 2198   0.643   1.307   1.131  0.4089 -0.3014 -1.4362
   96DG     H14 2199   0.499   1.209   1.094  0.6496 -0.3391 -0.8180
   96DG     H15 2200   0.544   1.762   0.876 -0.8407 -0.8465 -0.2432
   96DG     H16 2201   0.500   1.850   1.016 -0.6834 -0.5667  0.0853
   96DG     C17 2202   0.469   1.419   1.069  0.2519 -0.4546 -0.2602
   96DG     C18 2203   0.471   1.651   1.038 -0.1578  0.3939 -0.4281
   96DG     O19 2204   0.543   1.532   1.024  0.1291 -0.6207 -0.1927
   96DG     H20 2205   0.427   1.435   1.168  0.7044  0.3533 -0.1931
   96DG     H21 2206   0.386   1.405   0.999 -0.8724  0.8182  0.7756
   96DG     H22 2207   0.460   1.684   1.141 -0.7928  0.7659 -0.6087
   96DG     H23 2208   0.374   1.657   0.989 -0.2045 -0.4117 -0.4352
   97DG      C1 2209   1.776   4.774   1.100 -0.1520 -0.4537  0.1142
   97DG      C2 2210   1.779   4.981   0.425  0.1488  0.0913 -0.6073
   97DG      H3 2211   1.748   4.668   1.105  0.7953 -0.7267 -0.1312
   97DG      H4 2212   1.764   4.821   1.198 -1.4553 -1.7758  0.6319
   97DG      H5 2213   1.882   4.768   1.074 -0.0116  1.1425  0.2229
   97DG      H6 2214   1.835   4.890   0.404  0.9605  0.8177 -1.6991
   97DG      H7 2215   1.722   5.012   0.338 -1.9915 -0.3093  0.5869
   97DG      H8 2216   1.837   5.064   0.466 -1.9268  0.1592  2.5625
   97DG      O9 2217   1.708   4.836   0.986 -0.1404 -0.2043  0.3826
   97DG     O10 2218   1.687   4.951   0.532  0.2983 -0.3153  0.5457
   97DG     C11 2219   1.565   4.839   1.005  0.4660  0.0737  0.5843
   97DG     C12 2220   1.595   5.064   0.566  0.4910 -0.0865  0.1711
   97DG     H13 2221   1.540   4.908   1.086 -1.3582  0.4635 -0.2745
   97DG     H14 2222   1.525   4.748   1.049 -0.3260 -0.2107 -0.7007
   97DG     H15 2223   1.552   5.112   0.478 -1.6091 -0.4011  0.9653
   97DG     H16 2224   1.640   5.138   0.631 -0.6117  1.0817 -0.3395
   97DG     C17 2225   1.489   4.866   0.866  0.3032  0.7030 -0.4372
   97DG     C18 2226   1.488   4.998   0.657 -0.5375  0.8511 -0.1883
   97DG     O19 2227   1.555   4.958   0.780 -0.4182  0.3693 -0.2231
   97DG     H20 2228   1.382   4.884   0.871 -0.1022 -1.6840  0.4991
   97DG     H21 2229   1.504   4.773   0.812  0.0346  0.0659  0.5589
   97DG     H22 2230   1.397   5.057   0.664 -1.4214 -0.5670  1.0255
   97DG     H23 2231   1.457   4.909   0.602 -2.8591  1.8144 -0.5597
   98DG      C1 2232   3.350   3.343   0.791 -0.4984  0.3249  0.1445
   98DG      C2 2233   2.831   3.574   0.528  0.0311  0.1376  0.7415
   98DG      H3 2234   3.361   3.322   0.897  2.8752 -0.8771 -0.3264
   98DG      H4 2235   3.331   3.448   0.771 -4.7677 -0.1900  0.6621
   98DG      H5 2236   3.446   3.318   0.745 -2.4214 -3.2760 -2.4382
   98DG      H6 2237   2.757   3.612   0.458  0.0123  1.9852  1.7168
   98DG      H7 2238   2.776   3.517   0.602 -3.4651  2.4443  0.1476
   98DG      H8 2239   2.871   3.652   0.593  0.1349  0.0993  0.7247
   98DG      O9 2240   3.252   3.256   0.738  0.2734 -0.5899 -0.4978
   98DG     O10 2241   2.947   3.523   0.470 -0.0264  0.0638  0.4013
   98DG     C11 2242   3.127   3.262   0.799 -0.7954  0.2869  0.0464
   98DG     C12 2243   2.919   3.395   0.395  0.4091  0.0339  0.6976
   98DG     H13 2244   3.092   3.365   0.806 -0.4566  0.5888 -2.0258
   98DG     H14 2245   3.119   3.210   0.894  0.8334  1.3841  0.8306
   98DG     H15 2246   2.990   3.379   0.314 -0.4269  0.3468 -0.1059
   98DG     H16 2247   2.824   3.400   0.343 -0.7311 -0.4415  2.6293
   98DG     C17 2248   3.032   3.199   0.689  0.6002 -0.0483  1.4102
   98DG     C18 2249   2.915   3.277   0.497 -0.3729  0.2252 -0.0695
   98DG     O19 2250   3.029   3.292   0.581 -0.6399 -0.0803 -0.5399
   98DG     H20 2251   2.933   3.179   0.728 -0.0277  0.2782  0.0673
   98DG     H21 2252   3.085   3.111   0.651  0.5417 -0.0068  1.2285
   98DG     H22 2253   2.826   3.268   0.559 -0.5265 -3.1550 -0.6042
   98DG     H23 2254   2.924   3.189   0.435  2.6371 -0.3205  0.9959
   99DG      C1 2255   0.746   5.366   0.498 -0.2992 -0.2353 -0.6826
   99DG      C2 2256   1.221   5.254   0.899  0.2844  0.7604  0.0720
   99DG      H3 2257   0.667   5.383   0.571 -0.2051 -0.9259 -0.4125
   99DG      H4 2258   0.758   5.257   0.496  1.2299 -0.0806 -2.1611
   99DG      H5 2259   0.705   5.397   0.402 -0.6790  0.3865 -0.3259
   99DG      H6 2260   1.202   5.148   0.880  0.7779  0.2038  2.3197
   99DG      H7 2261   1.327   5.268   0.922  0.1946  1.4238  0.1041
   99DG      H8 2262   1.155   5.274   0.983 -1.9280 -1.5082 -0.9816
   99DG      O9 2263   0.877   5.426   0.529  0.2408 -0.5943 -0.0950
   99DG     O10 2264   1.191   5.336   0.790  0.6170  0.0621 -0.2093
   99DG     C11 2265   0.868   5.568   0.519  0.2652 -0.4181  0.4927
   99DG     C12 2266   1.206   5.476   0.831 -0.3208  0.2333  0.2788
   99DG     H13 2267   0.796   5.607   0.590  0.9658  0.8790  0.5194
   99DG     H14 2268   0.844   5.605   0.420  0.2478 -1.2758  0.1674
   99DG     H15 2269   1.314   5.480   0.848 -0.1347 -2.8355  0.3706
   99DG     H16 2270   1.153   5.503   0.922  1.3098  3.4129  0.4312
   99DG     C17 2271   0.995   5.628   0.566 -0.1347 -0.6146  0.2848
   99DG     C18 2272   1.166   5.565   0.716  0.3902  0.2065  0.1164
   99DG     O19 2273   1.023   5.551   0.686 -0.1084 -0.4698 -0.2517
   99DG     H20 2274   0.980   5.736   0.570 -2.1945 -0.8889  1.3434
   99DG     H21 2275   1.065   5.605   0.485  1.9078  2.3216  1.0605
   99DG     H22 2276   1.175   5.665   0.756 -1.4581  0.0296  1.0755
   99DG     H23 2277   1.240   5.553   0.637  0.7225 -2.7416  0.7418
  100DG      C1 2278   3.723   0.347   2.013  0.2359  0.0729 -0.4125
  100DG      C2 2279   3.026   0.454   1.842  0.3757  0.0153  0.1028
  100DG      H3 2280   3.724   0.242   2.041 -1.7462 -0.2403 -1.3230
  100DG      H4 2281   3.815   0.388   2.054  0.2785 -0.9393  0.5442
  100DG      H5 2282   3.753   0.352   1.908  2.0614 -0.6955  0.0324
  100DG      H6 2283   2.927   0.486   1.873  0.7024  2.0091 -0.7312
  100DG      H7 2284   3.033   0.451   1.733  0.1492  1.9629  0.0020
  100DG      H8 2285   3.044   0.351   1.874 -3.2033 -0.3339  1.3915
  100DG      O9 2286   3.614   0.436   2.027 -0.1008 -0.0470  0.3423
  100DG     O10 2287   3.122   0.539   1.901  0.4203  0.0423  0.4535
  100DG     C11 2288   3.571   0.469   2.155 -0.4539  0.0194 -0.1788
  100DG     C12 2289   3.108   0.551   2.039 -0.4549  0.5286  0.7126
  100DG     H13 2290   3.658   0.494   2.215  0.1536 -1.3660 -0.4484
  100DG     H14 2291   3.525   0.384   2.204 -1.1960  1.0020  0.9044
  100DG     H15 2292   3.087   0.456   2.087 -3.2387  0.9383  0.4960
  100DG     H16 2293   3.014   0.604   2.057 -2.0462 -2.1799  0.9559
  100DG     C17 2294   3.464   0.581   2.160  0.2361 -0.1486  0.3014
  100DG     C18 2295   3.233   0.627   2.096 -0.5124  0.4923  0.4021
  100DG     O19 2296   3.339   0.530   2.110 -0.1789 -0.2589 -0.3531
  100DG     H20 2297   3.479   0.670   2.099  1.5132 -1.9051 -2.0989
  100DG     H21 2298   3.453   0.609   2.265 -2.6103 -3.6441  1.1253
  100DG     H22 2299   3.262   0.714   2.036 -1.1525 -1.3081 -2.7363
  100DG     H23 2300   3.202   0.666   2.194 -1.3733  1.1075 -0.0949
  101DG      C1 2301   1.522   3.851   2.549  0.7584 -0.3314 -0.4736
  101DG      C2 2302   2.156   4.242   2.834 -0.4053 -0.5033 -0.2156
  101DG      H3 2303   1.600   3.785   2.587 -0.3573 -1.9254 -0.8105
  101DG      H4 2304   1.544   3.873   2.445  2.2751  0.5340  0.0048
  101DG      H5 2305   1.425   3.805   2.568  0.8267 -0.0078  0.7367
  101DG      H6 2306   2.190   4.322   2.899 -1.9851  2.1707 -2.4113
  101DG      H7 2307   2.184   4.142   2.866  1.1553 -0.5602 -1.6067
  101DG      H8 2308   2.224   4.260   2.751  1.5085 -2.9559  0.7144
  101DG      O9 2309   1.525   3.984   2.598  0.4682  0.2336 -0.3461
  101DG     O10 2310   2.013   4.247   2.816 -0.8942  0.1101  0.4369
  101DG     C11 2311   1.653   4.056   2.594  0.1161 -0.1326 -0.3248
  101DG     C12 2312   1.971   4.356   2.748  0.3539 -0.1175 -0.3690
  101DG     H13 2313   1.681   4.066   2.489 -0.8694 -0.7190 -0.6636
  101DG     H14 2314   1.722   3.984   2.638 -1.7506 -2.9105 -1.6511
  101DG     H15 2315   1.998   4.366   2.643 -1.3343 -0.5627 -0.8821
  101DG     H16 2316   1.999   4.443   2.807 -0.4596 -0.5314  0.6692
  101DG     C17 2317   1.656   4.190   2.676  0.4567 -0.5373  0.1933
  101DG     C18 2318   1.812   4.350   2.740  0.1697  0.5887 -0.4796
  101DG     O19 2319   1.791   4.229   2.670 -0.1603 -0.1362  0.0886
  101DG     H20 2320   1.622   4.184   2.779 -3.2039 -0.1317 -0.8391
  101DG     H21 2321   1.586   4.262   2.633  0.7745 -1.1112 -1.3669
  101DG     H22 2322   1.774   4.352   2.842 -1.1695  3.6487 -0.9400
  101DG     H23 2323   1.767   4.432   2.684 -3.6488 -1.9125 -1.4667
  102DG      C1 2324   5.448   1.244   2.772 -0.6576 -0.4698 -0.0265
  102DG      C2 2325   5.267   1.184   3.599  0.5676  0.1777  1.0714
  102DG      H3 2326   5.544   1.254   2.722 -0.4011 -3.0746 -0.1839
  102DG      H4 2327   5.381   1.310   2.717  0.2330  2.1308  1.8130
  102DG      H5 2328   5.402   1.149   2.745  0.4944 -1.6547  1.9229
  102DG      H6 2329   5.261   1.082   3.560 -2.7422  0.9901 -0.9439
  102DG      H7 2330   5.295   1.169   3.703  1.3011 -0.5411  0.7825
  102DG      H8 2331   5.168   1.229   3.597  0.3354 -0.3476  0.2568
  102DG      O9 2332   5.479   1.255   2.908  0.1450 -0.1033 -0.5501
  102DG     O10 2333   5.359   1.265   3.526 -0.1818 -0.2987 -0.0073
  102DG     C11 2334   5.456   1.388   2.953  0.2280 -0.5137  0.5121
  102DG     C12 2335   5.309   1.287   3.394 -0.2856  0.2501  0.2989
  102DG     H13 2336   5.353   1.422   2.938 -0.1396 -1.3641  1.0403
  102DG     H14 2337   5.516   1.442   2.880 -0.7214 -1.8711 -1.3714
  102DG     H15 2338   5.217   1.344   3.397 -1.1212 -1.0939  1.4082
  102DG     H16 2339   5.282   1.192   3.346  1.6819  0.3107 -1.0813
  102DG     C17 2340   5.497   1.426   3.094  0.0615  0.4177 -0.3962
  102DG     C18 2341   5.418   1.365   3.310 -0.7276  1.0439 -0.1979
  102DG     O19 2342   5.394   1.360   3.171  0.5094 -0.1943  0.5256
  102DG     H20 2343   5.503   1.533   3.108  3.4253  0.1148  1.5658
  102DG     H21 2344   5.598   1.394   3.118 -0.0184 -1.6198 -2.3873
  102DG     H22 2345   5.441   1.462   3.354  1.1935  0.4157  0.2741
  102DG     H23 2346   5.506   1.302   3.321 -0.6842  1.0066 -0.7443
  103DG      C1 2347   0.344   2.912   4.871  0.0645  0.3358 -0.0852
  103DG      C2 2348   0.480   3.384   5.364  0.0847 -0.4492 -0.3450
  103DG      H3 2349   0.281   2.839   4.921  1.0154  0.2449  1.0192
  103DG      H4 2350   0.379   2.868   4.778  2.0115  2.6975 -0.5653
  103DG      H5 2351   0.282   3.000   4.854  1.4875  1.1891 -1.1467
  103DG      H6 2352   0.454   3.484   5.331  0.6102 -0.0616  0.3829
  103DG      H7 2353   0.384   3.338   5.389 -0.0337  0.4223  0.8750
  103DG      H8 2354   0.534   3.395   5.459  1.7856  0.0803 -1.3332
  103DG      O9 2355   0.457   2.931   4.953  0.0925 -0.0434  0.3610
  103DG     O10 2356   0.552   3.302   5.266  0.1893 -0.3867  0.1326
  103DG     C11 2357   0.555   3.018   4.894 -0.4214  0.0296  0.7936
  103DG     C12 2358   0.623   3.195   5.325 -0.2180 -0.6389  0.5781
  103DG     H13 2359   0.511   3.113   4.866  0.8853  0.6282  0.6733
  103DG     H14 2360   0.585   2.976   4.797 -0.3442  1.8092  0.0004
  103DG     H15 2361   0.561   3.116   5.367  0.8669 -1.2204  1.1276
  103DG     H16 2362   0.682   3.244   5.402 -1.2870  1.0201  0.4006
  103DG     C17 2363   0.670   3.031   4.984 -0.1375 -0.0948 -0.4948
  103DG     C18 2364   0.702   3.125   5.216 -0.1372 -0.7062  0.2812
  103DG     O19 2365   0.613   3.103   5.104 -0.1206  0.6495  0.0289
  103DG     H20 2366   0.758   3.082   4.945 -0.8006  0.1665 -1.6942
  103DG     H21 2367   0.689   2.928   5.013 -0.8345  0.4653  2.3325
  103DG     H22 2368   0.796   3.172   5.188 -0.3923  2.2663  3.6651
  103DG     H23 2369   0.724   3.021   5.240  0.1510 -0.7469 -0.1459
  104DG      C1 2370   3.497   1.508   1.770 -0.3883  0.1650 -0.3515
  104DG      C2 2371   4.114   1.793   2.114  0.3821 -0.3337  0.4722
  104DG      H3 2372   3.544   1.574   1.697 -0.8026 -0.0526 -0.8173
  104DG      H4 2373   3.410   1.565   1.804  0.2310 -0.5363  2.7155
  104DG      H5 2374   3.461   1.418   1.721  2.8009 -0.1231 -2.4286
  104DG      H6 2375   4.079   1.829   2.211  1.3239 -1.7501  1.3618
  104DG      H7 2376   4.197   1.727   2.139 -0.4306 -1.3128  0.6007
  104DG      H8 2377   4.155   1.877   2.057 -1.6976  0.3768 -0.0651
  104DG      O9 2378   3.592   1.472   1.872  0.1885 -0.0664  0.4624
  104DG     O10 2379   4.012   1.722   2.044 -0.0701 -0.0626  0.3238
  104DG     C11 2380   3.709   1.394   1.821  0.1947  0.1226  0.3818
  104DG     C12 2381   3.950   1.625   2.126  0.4445  0.6637 -0.4004
  104DG     H13 2382   3.769   1.456   1.754  0.9466  0.5940  1.4599
  104DG     H14 2383   3.672   1.313   1.758  0.1346  1.5268 -1.4716
  104DG     H15 2384   3.920   1.674   2.219 -1.0878 -1.5165  0.3486
  104DG     H16 2385   4.023   1.553   2.163  1.2410  1.9433  0.5750
  104DG     C17 2386   3.789   1.349   1.948  0.5855  0.1141 -0.1880
  104DG     C18 2387   3.828   1.555   2.064 -0.2620  0.0399  0.2722
  104DG     O19 2388   3.880   1.444   1.996  0.5483  0.6409  0.9608
  104DG     H20 2389   3.841   1.258   1.917 -1.1305 -0.5969 -1.0651
  104DG     H21 2390   3.724   1.300   2.020  0.5655  0.0448 -0.2529
  104DG     H22 2391   3.753   1.523   2.137 -0.1234 -0.8434  0.0451
  104DG     H23 2392   3.769   1.610   1.991  3.8202  2.5561 -1.4270
  105DG      C1 2393   0.871   0.657   5.048 -0.3227  0.0098 -0.3866
  105DG      C2 2394   0.887   1.293   5.633  0.2093 -0.6943 -0.1632
  105DG      H3 2395   0.905   0.603   4.960 -0.5468  0.0562 -0.5013
  105DG      H4 2396   0.766   0.680   5.028  0.4293  2.8083 -1.6139
  105DG      H5 2397   0.874   0.581   5.126 -0.2820 -2.5624 -2.7612
  105DG      H6 2398   0.957   1.375   5.647  1.8273 -2.1535  0.8414
  105DG      H7 2399   0.786   1.333   5.632 -1.0586 -3.6455 -0.1659
  105DG      H8 2400   0.888   1.224   5.717  0.4354  0.0952  0.4920
  105DG      O9 2401   0.958   0.770   5.079  0.2358  0.2024  0.1067
  105DG     O10 2402   0.910   1.212   5.518 -0.1676 -0.0586 -0.2881
  105DG     C11 2403   0.921   0.833   5.200  0.5212 -0.1194 -0.1519
  105DG     C12 2404   1.036   1.142   5.542 -0.5254  0.1151 -0.1746
  105DG     H13 2405   0.919   0.773   5.291  3.5883 -0.2257 -0.0330
  105DG     H14 2406   0.827   0.887   5.191 -0.3013 -1.7307 -1.6593
  105DG     H15 2407   1.023   1.061   5.614 -0.8606  1.1283  0.9470
  105DG     H16 2408   1.118   1.206   5.575 -1.0388  0.1815  1.0504
  105DG     C17 2409   1.031   0.938   5.235  0.4106 -0.0323  0.1522
  105DG     C18 2410   1.089   1.089   5.412 -0.5572  0.3026  0.1423
  105DG     O19 2411   1.004   0.987   5.365  0.5106  0.0680 -0.2266
  105DG     H20 2412   1.030   1.027   5.172 -2.4883 -0.1224 -0.0718
  105DG     H21 2413   1.125   0.888   5.210  0.2973  1.0452 -2.8201
  105DG     H22 2414   1.110   1.171   5.343 -1.2391  0.9949  0.7287
  105DG     H23 2415   1.179   1.029   5.422 -1.0580 -0.3196  1.0771
  106DG      C1 2416   0.788   0.300   2.476 -0.1552 -0.2430 -0.8200
  106DG      C2 2417   1.073   0.820   1.867  0.0553 -0.3297  0.4399
  106DG      H3 2418   0.758   0.196   2.470  1.7016 -0.7725 -1.7186
  106DG      H4 2419   0.741   0.359   2.554  0.1580  0.0464 -0.8461
  106DG      H5 2420   0.894   0.296   2.503 -0.2668  1.8450  0.1273
  106DG      H6 2421   1.027   0.850   1.772 -0.5602  0.7323  1.0593
  106DG      H7 2422   1.072   0.904   1.937  0.4822  1.2599 -1.3724
  106DG      H8 2423   1.175   0.789   1.845  0.9799  2.8363 -0.3376
  106DG      O9 2424   0.746   0.348   2.346 -0.1618 -0.2187  0.0452
  106DG     O10 2425   0.992   0.712   1.914 -0.0145  0.1422  0.3440
  106DG     C11 2426   0.824   0.460   2.305  0.3330 -0.4457  0.0985
  106DG     C12 2427   0.855   0.741   1.917 -0.1759  0.5077  0.6689
  106DG     H13 2428   0.932   0.446   2.300  0.1309 -1.7581 -3.3049
  106DG     H14 2429   0.797   0.545   2.368  0.9568  0.3952 -0.7341
  106DG     H15 2430   0.812   0.769   1.820 -1.8074 -2.9404  0.2481
  106DG     H16 2431   0.831   0.823   1.985 -0.6281  0.4014  0.6428
  106DG     C17 2432   0.764   0.494   2.166 -0.2534 -0.1545  0.0843
  106DG     C18 2433   0.788   0.624   1.971 -0.2488  0.1622  0.4712
  106DG     O19 2434   0.838   0.597   2.101  0.0430  0.1331 -0.1980
  106DG     H20 2435   0.662   0.527   2.186 -0.8111 -0.0335 -2.5561
  106DG     H21 2436   0.748   0.411   2.097 -1.3911 -0.9433  1.2330
  106DG     H22 2437   0.682   0.650   1.970  0.4981  3.8304  0.6000
  106DG     H23 2438   0.789   0.534   1.909 -2.6201  0.1872  0.3242
  107DG      C1 2439   1.279   2.084   2.321  0.4503 -0.2650  0.1448
  107DG      C2 2440   1.920   2.289   2.480 -0.4561 -0.1669  0.1805
  107DG      H3 2441   1.294   2.168   2.253 -1.8401  1.3480  1.4922
  107DG      H4 2442   1.178   2.081   2.362  0.5636 -2.2129  0.3416
  107DG      H5 2443   1.295   1.992   2.265  2.1054  0.0145  0.0902
  107DG      H6 2444   1.957   2.212   2.412 -0.2804  0.2817 -0.2454
  107DG      H7 2445   1.893   2.374   2.416  0.5099 -0.1418 -0.2138
  107DG      H8 2446   1.996   2.309   2.555  1.1918 -2.3133 -0.7988
  107DG      O9 2447   1.373   2.107   2.432  0.0079 -0.4028 -0.0909
  107DG     O10 2448   1.805   2.240   2.542  0.2594  0.2989 -0.2931
  107DG     C11 2449   1.328   2.208   2.518 -1.0193  0.0636 -0.3381
  107DG     C12 2450   1.765   2.340   2.644  0.2374 -0.3685  0.2182
  107DG     H13 2451   1.226   2.185   2.548 -0.6706 -0.1506  0.7287
  107DG     H14 2452   1.335   2.306   2.471  0.7183 -0.1998 -0.7282
  107DG     H15 2453   1.754   2.432   2.586 -0.6550 -1.0235 -0.6800
  107DG     H16 2454   1.840   2.351   2.722 -0.1198  2.5728  0.2434
  107DG     C17 2455   1.421   2.206   2.637 -0.3253  0.0693 -0.2191
  107DG     C18 2456   1.634   2.296   2.706 -1.3745 -0.3536  0.4589
  107DG     O19 2457   1.545   2.264   2.601  0.4118  0.2446 -0.4138
  107DG     H20 2458   1.438   2.103   2.669  1.2784 -0.2495 -1.9298
  107DG     H21 2459   1.374   2.252   2.724 -4.1873  0.2314 -2.1959
  107DG     H22 2460   1.648   2.209   2.769 -2.1413 -0.9505 -0.1661
  107DG     H23 2461   1.587   2.375   2.765 -1.6673 -1.6398  2.0306
  108DG      C1 2462   2.368   3.960   0.597  0.0769  0.3217  0.2367
  108DG      C2 2463   2.380   3.770  -0.056  0.1783 -0.2860 -0.2640
  108DG      H3 2464   2.270   3.954   0.550  0.2286 -0.6202  0.0198
  108DG      H4 2465   2.381   4.065   0.622 -0.1387  0.5316 -0.4918
  108DG      H5 2466   2.374   3.891   0.681  2.5486 -0.8349 -0.7775
  108DG      H6 2467   2.375   3.856  -0.124  0.5512 -0.8559 -1.0289
  108DG      H7 2468   2.403   3.684  -0.118  3.7438  0.6141 -0.4181
  108DG      H8 2469   2.280   3.746  -0.023  0.4800  0.6447  1.4145
  108DG      O9 2470   2.455   3.919   0.488  0.0625  1.3803 -0.1462
  108DG     O10 2471   2.466   3.783   0.054  0.3487  0.3290 -0.2039
  108DG     C11 2472   2.587   3.979   0.500  0.3294 -0.0912 -0.4106
  108DG     C12 2473   2.590   3.849   0.026 -0.0676 -0.0100 -0.4134
  108DG     H13 2474   2.636   3.959   0.595  2.1259 -1.4658 -1.5393
  108DG     H14 2475   2.577   4.087   0.489  2.4628  0.4574  2.0238
  108DG     H15 2476   2.571   3.952  -0.006 -2.9684 -1.2073 -2.9861
  108DG     H16 2477   2.648   3.811  -0.058 -0.6190 -2.2219  0.1644
  108DG     C17 2478   2.680   3.924   0.386  0.2410  0.6123  0.3780
  108DG     C18 2479   2.680   3.852   0.157  0.3001 -0.1501  0.2376
  108DG     O19 2480   2.606   3.918   0.260 -0.1286 -0.1679 -0.2708
  108DG     H20 2481   2.714   3.824   0.413 -0.6698  0.2907  0.3575
  108DG     H21 2482   2.773   3.981   0.382  1.9295 -1.9926 -0.1919
  108DG     H22 2483   2.697   3.748   0.185  1.2886  0.0143  0.2933
  108DG     H23 2484   2.776   3.902   0.144 -0.6457  1.8580  0.5967
  109DG      C1 2485   5.262   2.996   3.867 -0.0200  0.2942  0.2398
  109DG      C2 2486   4.742   3.281   3.619 -0.4217 -0.2614  0.2707
  109DG      H3 2487   5.183   2.997   3.942 -0.8491  2.3905 -0.6002
  109DG      H4 2488   5.338   3.056   3.917 -0.5843  0.5897  0.7518
  109DG      H5 2489   5.300   2.897   3.841 -2.2281 -0.6339  0.2810
  109DG      H6 2490   4.708   3.228   3.708  0.1150 -1.0071  0.0399
  109DG      H7 2491   4.757   3.389   3.630  1.0794  0.2506 -4.5978
  109DG      H8 2492   4.667   3.268   3.541  2.2908 -1.3504 -2.3596
  109DG      O9 2493   5.204   3.057   3.750  0.2204 -0.4455 -0.4182
  109DG     O10 2494   4.861   3.216   3.570 -0.2575 -0.3370 -0.3484
  109DG     C11 2495   5.294   3.066   3.645 -0.3865 -0.4137  0.0671
  109DG     C12 2496   4.912   3.272   3.452 -0.1201 -0.2459 -0.0098
  109DG     H13 2497   5.347   2.971   3.632  1.1611  0.1801  1.6375
  109DG     H14 2498   5.374   3.138   3.661  1.7622 -2.9192  1.5312
  109DG     H15 2499   4.933   3.377   3.468 -0.4401 -0.3544  1.2563
  109DG     H16 2500   4.833   3.266   3.377 -0.8017  1.1782  0.5740
  109DG     C17 2501   5.223   3.103   3.517 -0.0167 -0.2494 -0.6055
  109DG     C18 2502   5.036   3.189   3.421  0.4266  0.2520  0.4531
  109DG     O19 2503   5.120   3.197   3.537  0.6673  0.0963  0.4002
  109DG     H20 2504   5.181   3.012   3.474 -0.5319 -1.0038  1.3449
  109DG     H21 2505   5.292   3.130   3.437  2.7698 -0.3521  1.6104
  109DG     H22 2506   5.005   3.086   3.407 -1.0724  0.7210  0.1553
  109DG     H23 2507   5.077   3.228   3.329 -1.5237  1.0377 -0.1429
  110DG      C1 2508   0.919   3.902   4.027  0.2767 -0.4453 -0.6294
  110DG      C2 2509   0.989   4.253   3.307 -0.0647  0.4090 -0.6823
  110DG      H3 2510   0.969   3.808   4.049  4.4853  1.2253 -1.9692
  110DG      H4 2511   0.815   3.904   4.060  0.8770 -0.4534  1.3959
  110DG      H5 2512   0.980   3.972   4.084  0.7164 -0.5555 -0.9574
  110DG      H6 2513   0.962   4.209   3.211  0.6320 -0.5186 -0.4679
  110DG      H7 2514   0.909   4.312   3.351 -0.0870 -0.6594  0.7654
  110DG      H8 2515   1.085   4.305   3.301  0.5940 -0.3417  2.1763
  110DG      O9 2516   0.950   3.928   3.894  0.4635  0.1253  0.0730
  110DG     O10 2517   1.013   4.140   3.393 -0.0787  0.2793  0.0316
  110DG     C11 2518   0.854   3.851   3.823  0.0863 -0.1459  0.0062
  110DG     C12 2519   1.018   4.180   3.529 -0.4310 -0.5666  0.5394
  110DG     H13 2520   0.755   3.895   3.835 -0.6444 -1.2313 -1.7749
  110DG     H14 2521   0.837   3.747   3.852 -0.6481 -0.5017 -1.6302
  110DG     H15 2522   0.928   4.237   3.552 -0.4230  0.1775 -1.1921
  110DG     H16 2523   1.111   4.236   3.540  0.9535 -2.8213  1.2700
  110DG     C17 2524   0.889   3.865   3.672 -0.0948  0.1274 -0.3335
  110DG     C18 2525   1.033   4.059   3.622  0.3100  0.5390 -0.3009
  110DG     O19 2526   0.898   4.000   3.637  0.1675  0.3816  0.3093
  110DG     H20 2527   0.810   3.837   3.603  0.9585 -3.4728 -0.2852
  110DG     H21 2528   0.971   3.800   3.642 -0.4152  1.0048 -3.4349
  110DG     H22 2529   1.102   3.980   3.591  2.4542  2.2972 -0.2464
  110DG     H23 2530   1.077   4.099   3.714  0.6571 -1.2810  0.3772
  111DG      C1 2531   4.078   4.444   5.290  0.4942  0.8527 -0.6975
  111DG      C2 2532   4.669   4.518   4.935 -0.7729 -0.4513  0.1245
  111DG      H3 2533   4.089   4.505   5.200  1.8941  1.4082 -0.1790
  111DG      H4 2534   4.105   4.515   5.369 -3.0165 -0.4945  2.0039
  111DG      H5 2535   3.973   4.422   5.308  0.6394  1.4273  1.0235
  111DG      H6 2536   4.679   4.582   5.023 -1.1823  0.2713 -0.3489
  111DG      H7 2537   4.736   4.432   4.939  1.2328  0.9703 -0.9343
  111DG      H8 2538   4.711   4.582   4.857 -0.0033 -3.2743 -1.9324
  111DG      O9 2539   4.153   4.322   5.292 -0.6169 -0.1737  0.1430
  111DG     O10 2540   4.537   4.478   4.905  0.6242  0.6600  0.3433
  111DG     C11 2541   4.299   4.339   5.282 -0.2443  0.6560  0.7779
  111DG     C12 2542   4.433   4.579   4.924  0.4890 -0.0518  0.3588
  111DG     H13 2543   4.339   4.238   5.267  1.0908  1.2072  0.5422
  111DG     H14 2544   4.351   4.376   5.370 -0.0073 -0.0896  0.9615
  111DG     H15 2545   4.420   4.656   4.849 -3.3671 -0.9231 -0.0562
  111DG     H16 2546   4.441   4.633   5.018  1.1177 -0.2972  0.4513
  111DG     C17 2547   4.348   4.422   5.157  0.2869  0.3531 -0.7322
  111DG     C18 2548   4.299   4.500   4.937 -0.4831 -0.5383  0.5202
  111DG     O19 2549   4.299   4.385   5.029  0.5964 -0.1129 -0.1999
  111DG     H20 2550   4.457   4.419   5.161  0.3597  1.8003 -1.2178
  111DG     H21 2551   4.314   4.521   5.186  1.9681  0.0296  3.0209
  111DG     H22 2552   4.234   4.569   4.991  0.5591 -0.6894  2.0395
  111DG     H23 2553   4.254   4.475   4.841 -0.4576  4.3856 -1.0529
  112DG      C1 2554   4.637   3.068   1.968  0.7204 -0.1891  0.6480
  112DG      C2 2555   4.372   3.761   1.806 -0.0117  0.5944  0.0012
  112DG      H3 2556   4.621   3.098   2.072 -0.5858  1.2874  0.0664
  112DG      H4 2557   4.744   3.082   1.953  0.5413  0.1483 -0.3582
  112DG      H5 2558   4.626   2.960   1.967 -0.7269 -0.0586  0.3936
  112DG      H6 2559   4.274   3.808   1.793 -1.6513 -1.7773  2.6065
  112DG      H7 2560   4.385   3.750   1.914 -2.0837  1.5014  0.4034
  112DG      H8 2561   4.457   3.820   1.772  0.4824  1.4155  2.4400
  112DG      O9 2562   4.556   3.151   1.876  0.0050  0.1656  0.1178
  112DG     O10 2563   4.359   3.631   1.747 -0.3660 -0.8677  0.0912
  112DG     C11 2564   4.423   3.121   1.890  0.9424  0.1751 -0.2997
  112DG     C12 2565   4.476   3.557   1.758  0.8032  0.5464 -1.1978
  112DG     H13 2566   4.390   3.147   1.990  0.8333  0.6220 -0.4489
  112DG     H14 2567   4.395   3.017   1.873  2.7375 -0.4110  0.1281
  112DG     H15 2568   4.510   3.553   1.862  1.5990  1.0821 -1.4346
  112DG     H16 2569   4.548   3.614   1.700  1.0049  1.5636  0.0131
  112DG     C17 2570   4.348   3.198   1.774  0.1850  0.0041 -1.0608
  112DG     C18 2571   4.444   3.415   1.718 -0.7003 -0.5730 -0.7480
  112DG     O19 2572   4.352   3.340   1.801 -0.2666 -0.6874  0.7537
  112DG     H20 2573   4.242   3.175   1.768  0.0070  0.3995  0.2312
  112DG     H21 2574   4.391   3.181   1.676  2.1181 -0.2736 -0.2164
  112DG     H22 2575   4.399   3.408   1.619 -0.5751 -0.4291 -0.8160
  112DG     H23 2576   4.541   3.366   1.711 -0.7390 -1.1861  1.8208
  113DG      C1 2577   3.564   0.497   3.170 -0.2485 -0.3876 -0.8073
  113DG      C2 2578   3.990   0.971   2.773  0.6690 -0.3276 -0.1628
  113DG      H3 2579   3.484   0.510   3.244  1.6243 -0.2182  1.2931
  113DG      H4 2580   3.663   0.482   3.212 -0.3304 -0.3184 -0.5846
  113DG      H5 2581   3.538   0.407   3.113 -0.2281 -0.8806 -0.0559
  113DG      H6 2582   4.039   1.030   2.850 -1.5403  0.1210  0.9851
  113DG      H7 2583   4.015   0.867   2.795 -0.1506 -0.3738  0.6094
  113DG      H8 2584   4.012   1.006   2.673 -0.1363  0.8221  0.0364
  113DG      O9 2585   3.553   0.604   3.075  0.4000  0.1784  0.1933
  113DG     O10 2586   3.856   1.020   2.787 -0.5687  0.0884 -0.4956
  113DG     C11 2587   3.581   0.729   3.125 -0.2798  0.0142  0.0118
  113DG     C12 2588   3.757   0.950   2.709  1.0767 -0.2958 -0.2177
  113DG     H13 2589   3.676   0.726   3.179 -0.9110  0.6011  1.2115
  113DG     H14 2590   3.506   0.752   3.201  0.3354 -3.3584  1.8585
  113DG     H15 2591   3.791   0.850   2.682 -1.7641 -1.2682 -0.5503
  113DG     H16 2592   3.740   1.014   2.622  1.0564 -2.2760 -1.7381
  113DG     C17 2593   3.567   0.835   3.011  0.0864  0.2275 -0.3208
  113DG     C18 2594   3.640   0.930   2.805  0.5704  0.0723 -0.4821
  113DG     O19 2595   3.667   0.830   2.904  0.0019 -0.4014  0.3528
  113DG     H20 2596   3.563   0.939   3.045  0.5404 -0.1430  0.8838
  113DG     H21 2597   3.468   0.818   2.968  1.3570 -0.7046 -3.1602
  113DG     H22 2598   3.610   1.032   2.828  1.6630  0.2464  0.2892
  113DG     H23 2599   3.563   0.895   2.737  1.9203  0.0675 -2.0665
  114DG      C1 2600   5.062   2.688   1.743 -0.2179  0.6803  0.3417
  114DG      C2 2601   4.348   2.417   2.047  0.8497 -0.1932 -0.7701
  114DG      H3 2602   5.070   2.597   1.803 -1.0042  0.0433 -0.4988
  114DG      H4 2603   5.102   2.773   1.799 -1.4136  0.6009  1.3778
  114DG      H5 2604   5.121   2.679   1.652  0.2700  1.4535  0.5676
  114DG      H6 2605   4.250   2.460   2.067  0.7561  0.5951 -2.6529
  114DG      H7 2606   4.322   2.311   2.045  0.8696 -0.2714  1.1629
  114DG      H8 2607   4.415   2.422   2.132 -1.1613 -1.2918  0.9856
  114DG      O9 2608   4.929   2.719   1.701  0.1104  0.1919  0.0595
  114DG     O10 2609   4.397   2.482   1.934  0.3382  0.2999 -0.2181
  114DG     C11 2610   4.845   2.722   1.810  0.4906  0.1684  0.6182
  114DG     C12 2611   4.385   2.625   1.932 -0.1263 -0.9613 -0.2785
  114DG     H13 2612   4.891   2.795   1.878  0.3268 -1.4593  2.5693
  114DG     H14 2613   4.852   2.626   1.860  1.2718 -0.2384 -0.2455
  114DG     H15 2614   4.433   2.649   2.026  1.6363 -1.3030 -1.0512
  114DG     H16 2615   4.280   2.652   1.943  0.4621  1.7557 -0.6477
  114DG     C17 2616   4.697   2.743   1.766  0.0145 -0.5676  0.6511
  114DG     C18 2617   4.474   2.690   1.825  0.4605  0.0592 -0.1692
  114DG     O19 2618   4.609   2.691   1.867 -0.6120  1.0713 -0.6543
  114DG     H20 2619   4.681   2.679   1.679 -0.4502  0.6893 -0.2261
  114DG     H21 2620   4.678   2.846   1.734  0.8918 -1.1105 -1.7992
  114DG     H22 2621   4.468   2.638   1.729  2.2960  0.0444 -0.3277
  114DG     H23 2622   4.448   2.794   1.804 -0.0041 -0.0104  0.0598
  115DG      C1 2623   4.349   1.958   1.667 -0.1604  0.1594  0.3011
  115DG      C2 2624   4.652   1.209   1.522  0.1257 -0.0625 -1.2812
  115DG      H3 2625   4.244   1.986   1.661  0.2094  1.3237 -1.5505
  115DG      H4 2626   4.408   2.044   1.634 -1.1339  0.1612 -1.5340
  115DG      H5 2627   4.373   1.916   1.765  1.2986 -1.8889 -0.8572
  115DG      H6 2628   4.570   1.171   1.462  1.1978 -2.3929 -1.3536
  115DG      H7 2629   4.745   1.171   1.481  0.1704  0.4202 -1.6291
  115DG      H8 2630   4.644   1.177   1.626 -2.4622 -0.7425 -1.6289
  115DG      O9 2631   4.370   1.855   1.568  0.0350  0.0459 -0.2824
  115DG     O10 2632   4.664   1.351   1.525 -0.2108 -0.5511  0.4893
  115DG     C11 2633   4.484   1.778   1.597 -0.5372 -0.5830 -0.0669
  115DG     C12 2634   4.657   1.416   1.395  0.5116  0.6294  0.1418
  115DG     H13 2635   4.484   1.733   1.696 -2.9105  2.0931  1.3142
  115DG     H14 2636   4.574   1.841   1.595  0.4020 -1.8721 -1.7805
  115DG     H15 2637   4.556   1.398   1.360  1.2872 -0.2038 -1.7814
  115DG     H16 2638   4.729   1.358   1.338 -0.2660 -0.7749  0.5457
  115DG     C17 2639   4.506   1.672   1.488 -0.1684 -0.0569  0.1564
  115DG     C18 2640   4.687   1.567   1.385  0.0840 -0.3143 -0.6523
  115DG     O19 2641   4.640   1.639   1.499 -0.3263  0.0884  0.2896
  115DG     H20 2642   4.499   1.722   1.392 -1.0402 -0.0571  0.2194
  115DG     H21 2643   4.435   1.590   1.488 -1.3302  0.9160  0.8930
  115DG     H22 2644   4.795   1.581   1.387  0.0280  0.0865 -0.2198
  115DG     H23 2645   4.660   1.613   1.291 -1.1514 -0.7211 -0.5114
  116DG      C1 2646   4.570   4.229   2.335 -0.5094  0.2074 -0.2078
  116DG      C2 2647   5.042   3.667   2.300 -0.2643 -0.8035  0.2523
  116DG      H3 2648   4.522   4.179   2.419  2.6307 -0.7192  1.1617
  116DG      H4 2649   4.498   4.273   2.266 -0.7438  0.4366  0.1729
  116DG      H5 2650   4.628   4.303   2.390  2.2354 -2.8675  1.3488
  116DG      H6 2651   5.039   3.592   2.222  1.8327 -0.4667 -0.2054
  116DG      H7 2652   5.145   3.688   2.328  0.0177 -0.5758 -0.9039
  116DG      H8 2653   4.994   3.630   2.391  0.3345 -0.3002  0.7838
  116DG      O9 2654   4.666   4.153   2.262 -0.0374 -0.2517  0.0091
  116DG     O10 2655   4.976   3.787   2.249  0.2365 -0.1036 -0.2185
  116DG     C11 2656   4.740   4.226   2.167 -0.2070 -0.0994 -0.0437
  116DG     C12 2657   5.056   3.865   2.171 -0.4430 -0.4263  0.6838
  116DG     H13 2658   4.817   4.288   2.211 -0.5654  0.2385  0.1124
  116DG     H14 2659   4.678   4.291   2.105 -0.9296 -0.6509  0.0816
  116DG     H15 2660   5.135   3.807   2.122 -0.9095  0.0110 -0.6243
  116DG     H16 2661   5.111   3.940   2.227 -0.4239  1.9798 -2.2979
  116DG     C17 2662   4.805   4.121   2.072  0.2585 -0.3067  0.3053
  116DG     C18 2663   4.963   3.942   2.076 -0.1925 -0.1037 -0.4307
  116DG     O19 2664   4.883   4.036   2.149 -0.2534 -0.2543  0.0671
  116DG     H20 2665   4.849   4.175   1.988 -1.8196  0.8355 -0.1324
  116DG     H21 2666   4.723   4.070   2.021  0.0719 -0.0332  0.3244
  116DG     H22 2667   5.028   3.989   2.002  0.5085 -1.3642 -0.6415
  116DG     H23 2668   4.902   3.872   2.020 -2.0355  0.5346  0.6737
  117DG      C1 2669   2.349   1.216   3.106 -0.8529  0.5329  0.5958
  117DG      C2 2670   2.196   1.469   3.886  0.3012  0.6214  0.3599
  117DG      H3 2671   2.442   1.165   3.132 -0.6278 -0.3716 -1.7279
  117DG      H4 2672   2.344   1.208   2.997 -2.3936 -0.9390  0.7282
  117DG      H5 2673   2.265   1.150   3.128 -1.5421  1.5069  0.9557
  117DG      H6 2674   2.239   1.424   3.976  2.9194  0.8312 -0.6842
  117DG      H7 2675   2.184   1.577   3.899  0.8973  0.9112 -1.2409
  117DG      H8 2676   2.101   1.429   3.852 -0.2380 -0.9534  3.4097
  117DG      O9 2677   2.333   1.344   3.152  0.3412 -0.4653 -1.0581
  117DG     O10 2678   2.279   1.443   3.771 -0.1967  0.3096 -0.2605
  117DG     C11 2679   2.285   1.360   3.283 -0.2443  0.3325 -0.8315
  117DG     C12 2680   2.336   1.310   3.766 -0.3482  0.1738  0.0882
  117DG     H13 2681   2.183   1.322   3.292 -1.6272  4.0977  2.0448
  117DG     H14 2682   2.279   1.468   3.296 -2.1486 -0.0488  2.6595
  117DG     H15 2683   2.262   1.231   3.777 -0.8353  0.4146 -1.3226
  117DG     H16 2684   2.417   1.284   3.834 -0.1937  0.0097 -0.1541
  117DG     C17 2685   2.372   1.290   3.391  0.4188  0.1771 -1.0281
  117DG     C18 2686   2.407   1.305   3.633  0.3687 -0.1229 -0.6661
  117DG     O19 2687   2.314   1.307   3.521 -0.4480  0.0072  0.0560
  117DG     H20 2688   2.466   1.345   3.389  0.9984 -0.5470  1.9721
  117DG     H21 2689   2.395   1.186   3.368  1.9725  0.4388 -0.7796
  117DG     H22 2690   2.474   1.391   3.635  0.7959 -0.4708  0.3976
  117DG     H23 2691   2.459   1.210   3.620  2.1127  0.7397 -0.2628
  118DG      C1 2692   4.829   2.735   3.283  0.0622 -0.5669  0.1001
  118DG      C2 2693   4.984   2.293   2.831 -0.1161 -0.1457  0.2325
  118DG      H3 2694   4.807   2.774   3.183  1.3373 -0.1311 -0.0434
  118DG      H4 2695   4.868   2.822   3.336 -0.3130 -0.0784 -0.4066
  118DG      H5 2696   4.738   2.707   3.335  1.6773 -1.5463  2.5647
  118DG      H6 2697   5.024   2.198   2.796 -1.7127 -0.8520  0.2238
  118DG      H7 2698   4.875   2.287   2.827 -0.1762  0.2867  1.1128
  118DG      H8 2699   5.027   2.374   2.773  3.8623 -1.3374  1.2563
  118DG      O9 2700   4.933   2.642   3.289 -0.0845 -0.5740  0.1477
  118DG     O10 2701   5.008   2.312   2.969  0.0668 -0.4091  0.0472
  118DG     C11 2702   4.887   2.511   3.270  0.2642 -0.1542  0.0297
  118DG     C12 2703   5.151   2.324   2.990  0.2487 -0.5799 -0.1399
  118DG     H13 2704   4.830   2.499   3.178  1.0344  0.0544 -0.4745
  118DG     H14 2705   4.816   2.485   3.349  1.0261  0.8026  1.0618
  118DG     H15 2706   5.197   2.411   2.942  1.8007 -0.4094  1.5086
  118DG     H16 2707   5.202   2.235   2.953  1.2931 -0.1814  0.2829
  118DG     C17 2708   4.995   2.412   3.260 -0.2368 -0.0161 -0.7595
  118DG     C18 2709   5.184   2.357   3.141  0.1308  0.1696  0.5355
  118DG     O19 2710   5.097   2.460   3.182  0.4267 -0.3317 -0.0385
  118DG     H20 2711   4.954   2.313   3.240 -0.4038  0.0574 -0.7894
  118DG     H21 2712   5.039   2.389   3.357 -0.1117 -1.5952 -1.1770
  118DG     H22 2713   5.177   2.257   3.184  0.6878 -1.1725 -2.2605
  118DG     H23 2714   5.286   2.393   3.150 -0.4559  1.6079  1.9475
  119DG      C1 2715   3.208   0.022   2.404  0.3572 -0.0627  0.0773
  119DG      C2 2716   3.680   0.346   2.839 -0.2225 -0.4344 -0.5162
  119DG      H3 2717   3.119   0.033   2.343 -0.4665  2.2045  1.5759
  119DG      H4 2718   3.197  -0.051   2.484  0.0187 -0.2150 -0.1082
  119DG      H5 2719   3.285  -0.024   2.341  0.9071  1.5514 -0.4664
  119DG      H6 2720   3.758   0.271   2.828 -0.0802 -0.3273 -0.2576
  119DG      H7 2721   3.732   0.441   2.856 -1.3352  0.4712 -1.8976
  119DG      H8 2722   3.628   0.315   2.929 -0.1002  0.6047 -0.0630
  119DG      O9 2723   3.243   0.147   2.455 -0.0134  0.6573 -0.1412
  119DG     O10 2724   3.599   0.359   2.722 -0.8840 -0.2062 -0.3011
  119DG     C11 2725   3.265   0.242   2.354  0.7975 -1.0088  0.5614
  119DG     C12 2726   3.490   0.432   2.751 -1.2158  0.4480 -0.2290
  119DG     H13 2727   3.180   0.264   2.291  0.4776 -0.5031  1.1613
  119DG     H14 2728   3.348   0.211   2.290  0.1180  1.9276 -1.9545
  119DG     H15 2729   3.518   0.530   2.790  0.7850 -0.8270  1.7261
  119DG     H16 2730   3.435   0.401   2.840 -2.3481  1.8348 -0.3946
  119DG     C17 2731   3.302   0.369   2.436 -0.3842 -0.1019  0.4097
  119DG     C18 2732   3.402   0.450   2.627 -0.5899 -0.2419  0.7768
  119DG     O19 2733   3.377   0.337   2.552  0.0170  0.9561 -0.3388
  119DG     H20 2734   3.205   0.404   2.471 -0.2690  3.2175 -2.1452
  119DG     H21 2735   3.341   0.449   2.374 -0.6393  0.3221  0.7924
  119DG     H22 2736   3.315   0.509   2.657 -0.6997  1.6467 -2.7186
  119DG     H23 2737   3.458   0.526   2.573 -0.0970 -1.0188  0.1699
  120DG      C1 2738   4.432   2.023   0.873 -0.0042  0.2866 -0.5699
  120DG      C2 2739   4.589   2.350   0.153  0.9862  0.6625  0.1131
  120DG      H3 2740   4.352   2.000   0.803 -0.8304  0.5200  0.2837
  120DG      H4 2741   4.407   2.004   0.977  1.1566 -0.6179 -0.4326
  120DG      H5 2742   4.505   1.945   0.852 -0.4360 -1.3015  3.1635
  120DG      H6 2743   4.604   2.428   0.079 -0.7634 -1.9872 -3.3224
  120DG      H7 2744   4.678   2.287   0.156 -0.2601 -1.1253  2.1962
  120DG      H8 2745   4.511   2.285   0.112  2.8597  0.4839 -3.5752
  120DG      O9 2746   4.463   2.162   0.855  0.3891  0.3362 -0.0421
  120DG     O10 2747   4.544   2.391   0.278  0.3424 -0.0578 -0.1354
  120DG     C11 2748   4.489   2.190   0.717 -0.6256 -0.4422  0.0561
  120DG     C12 2749   4.633   2.468   0.353 -0.4764 -0.6063 -0.2898
  120DG     H13 2750   4.395   2.180   0.662  0.7227 -1.1851 -2.2454
  120DG     H14 2751   4.559   2.116   0.679  0.4930 -0.3816  1.9028
  120DG     H15 2752   4.645   2.570   0.315 -1.7773 -0.8004 -1.2959
  120DG     H16 2753   4.730   2.419   0.346 -0.5115 -1.0193  1.6636
  120DG     C17 2754   4.530   2.335   0.694  0.7189  0.1175  0.3539
  120DG     C18 2755   4.588   2.485   0.498  0.2885  0.3863 -0.4442
  120DG     O19 2756   4.553   2.353   0.550 -0.3639  0.2315  0.1199
  120DG     H20 2757   4.614   2.379   0.746  0.1724  2.1129 -0.3546
  120DG     H21 2758   4.451   2.408   0.712  2.1982  1.7060  0.7370
  120DG     H22 2759   4.660   2.553   0.543  1.3212  0.0271 -1.5241
  120DG     H23 2760   4.493   2.539   0.499 -1.4418 -2.3788  0.7307
  121DG      C1 2761   4.758   0.154   2.352  0.0323  0.5120  0.3155
  121DG      C2 2762   5.539   0.021   2.613 -0.2882  0.1466 -0.1766
  121DG      H3 2763   4.764   0.259   2.325 -0.6089  0.9224  1.6314
  121DG      H4 2764   4.656   0.123   2.376  0.5573 -1.1922  0.4480
  121DG      H5 2765   4.794   0.104   2.263  0.5741  1.5603 -0.0633
  121DG      H6 2766   5.510   0.126   2.615 -0.5574  0.0700 -0.1071
  121DG      H7 2767   5.600   0.007   2.703  0.9569  0.0193 -1.0074
  121DG      H8 2768   5.599  -0.014   2.529 -0.0515 -1.6649  0.7124
  121DG      O9 2769   4.857   0.134   2.451  0.1531  0.6974 -0.6391
  121DG     O10 2770   5.428  -0.056   2.633  0.0760  0.1646  0.7362
  121DG     C11 2771   4.856  -0.010   2.479 -0.5184 -0.1636  0.6117
  121DG     C12 2772   5.325  -0.029   2.536 -0.4401 -0.2235  0.0553
  121DG     H13 2773   4.889  -0.062   2.389  0.0419 -1.6042  1.6148
  121DG     H14 2774   4.755  -0.035   2.512 -0.5296 -1.3111 -0.2519
  121DG     H15 2775   5.320  -0.103   2.455 -0.1963  1.0587 -1.1692
  121DG     H16 2776   5.328   0.071   2.492 -2.4478  0.2232  0.8120
  121DG     C17 2777   4.960  -0.034   2.583 -0.5745  0.0792 -1.1015
  121DG     C18 2778   5.196  -0.059   2.608 -0.7091 -0.1117 -0.4034
  121DG     O19 2779   5.089  -0.009   2.524 -0.7030  0.0034 -0.2176
  121DG     H20 2780   4.954  -0.137   2.617  2.5464  0.6161  1.6717
  121DG     H21 2781   4.948   0.030   2.671 -1.1421  0.2952 -1.3373
  121DG     H22 2782   5.189  -0.167   2.622  1.9848 -0.3023  0.1817
  121DG     H23 2783   5.201  -0.019   2.710  0.2670  1.5672 -1.0608
  122DG      C1 2784   2.939   1.829   4.300 -0.4812  0.3619  0.2649
  122DG      C2 2785   2.936   1.394   3.688  0.1092  0.1120  0.4723
  122DG      H3 2786   2.858   1.878   4.247 -0.2295  1.4990  0.9037
  122DG      H4 2787   3.024   1.898   4.307  0.2047 -0.3909 -0.3799
  122DG      H5 2788   2.898   1.812   4.399 -4.6562 -1.0926 -1.4979
  122DG      H6 2789   2.981   1.295   3.697 -3.8461 -2.3714 -2.9262
  122DG      H7 2790   2.840   1.356   3.651  0.5942  0.7986 -1.6567
  122DG      H8 2791   2.975   1.451   3.604 -0.6895 -0.6703 -0.4695
  122DG      O9 2792   2.977   1.714   4.216 -0.1624  0.0807 -0.6142
  122DG     O10 2793   2.932   1.477   3.802 -0.0517 -0.5792  0.3812
  122DG     C11 2794   3.079   1.637   4.281  0.3132  0.0482  0.3185
  122DG     C12 2795   3.066   1.480   3.855  0.5463  0.3824 -0.0023
  122DG     H13 2796   3.048   1.594   4.376  2.1543 -0.0092  0.9300
  122DG     H14 2797   3.162   1.705   4.305  1.7638 -1.9316  1.2129
  122DG     H15 2798   3.141   1.510   3.782  0.3756  2.1471  0.5086
  122DG     H16 2799   3.088   1.383   3.900  0.4061 -0.7080 -2.1125
  122DG     C17 2800   3.129   1.511   4.192 -0.6841 -0.4599 -0.3275
  122DG     C18 2801   3.069   1.581   3.969 -0.4397  0.5375 -0.3258
  122DG     O19 2802   3.173   1.542   4.062  0.2961 -0.7212  0.6388
  122DG     H20 2803   3.057   1.430   4.197 -1.6803  0.4471  1.1610
  122DG     H21 2804   3.219   1.474   4.241 -0.0564 -0.3060 -1.3467
  122DG     H22 2805   3.073   1.686   3.939  0.3104  0.6830  0.2522
  122DG     H23 2806   2.971   1.587   4.015 -0.8551  3.3020 -1.3525
  123DG      C1 2807   2.341   0.816   2.496  0.1898  0.5924 -0.5763
  123DG      C2 2808   1.680   1.108   2.976  0.1156 -0.1162  0.1867
  123DG      H3 2809   2.292   0.722   2.471  0.9160  0.4925 -1.7126
  123DG      H4 2810   2.395   0.804   2.590 -1.6266 -1.1915  0.3158
  123DG      H5 2811   2.413   0.829   2.415  0.9796 -0.4916 -0.0752
  123DG      H6 2812   1.637   1.009   2.990 -1.1667  0.1906 -1.2813
  123DG      H7 2813   1.711   1.152   3.070  0.5263  1.0619 -0.4851
  123DG      H8 2814   1.608   1.179   2.935  0.4929  0.1630 -0.0035
  123DG      O9 2815   2.255   0.933   2.509  0.1902 -0.1563  0.5017
  123DG     O10 2816   1.785   1.087   2.878 -0.5034  0.3044 -0.1121
  123DG     C11 2817   2.153   0.921   2.606 -0.5810 -0.4474 -0.0013
  123DG     C12 2818   1.735   1.050   2.756 -0.1159 -0.0852  0.8254
  123DG     H13 2819   2.185   0.930   2.710 -3.2652 -0.4418  0.8933
  123DG     H14 2820   2.096   0.830   2.586 -0.6608 -0.6436  1.0585
  123DG     H15 2821   1.642   1.096   2.723  0.6991  0.6325 -0.5522
  123DG     H16 2822   1.711   0.944   2.770  1.1814 -0.2632  1.8326
  123DG     C17 2823   2.067   1.038   2.593 -0.0517  0.0410 -0.0638
  123DG     C18 2824   1.839   1.079   2.649  0.4097 -0.1965  0.6005
  123DG     O19 2825   1.969   1.025   2.690  0.2463 -0.3097 -0.3643
  123DG     H20 2826   2.026   1.052   2.493 -0.5039 -0.1588  0.0928
  123DG     H21 2827   2.112   1.137   2.604 -0.3722  0.2231 -0.3966
  123DG     H22 2828   1.815   1.040   2.550  0.8776 -0.2287  0.4986
  123DG     H23 2829   1.846   1.187   2.637 -0.6257 -0.3311 -1.6704
  124DG      C1 2830   5.217   5.465   0.180  0.2378  0.3183 -0.0361
  124DG      C2 2831   5.901   5.986   0.160  0.0701 -1.2200  0.0439
  124DG      H3 2832   5.286   5.386   0.150 -0.7526 -0.0254 -1.5006
  124DG      H4 2833   5.178   5.512   0.090  0.4435 -1.5815 -1.1824
  124DG      H5 2834   5.137   5.405   0.221  1.2154 -1.8500 -1.1120
  124DG      H6 2835   5.940   6.065   0.224 -0.2704  0.0876 -1.2988
  124DG      H7 2836   5.958   5.894   0.172  0.0864 -1.1204  0.7229
  124DG      H8 2837   5.911   6.024   0.058  1.5774 -0.1252  0.5551
  124DG      O9 2838   5.265   5.563   0.269  0.7730 -0.2047 -0.2538
  124DG     O10 2839   5.770   5.965   0.195  0.1370 -0.4800  0.4038
  124DG     C11 2840   5.388   5.621   0.239 -0.2101  0.6906 -0.3709
  124DG     C12 2841   5.756   5.906   0.325  1.0890 -0.6754 -0.2926
  124DG     H13 2842   5.392   5.633   0.131 -0.3387  0.2654 -0.4261
  124DG     H14 2843   5.464   5.551   0.274 -0.5434  0.2604 -0.4952
  124DG     H15 2844   5.811   5.963   0.399 -1.3912 -0.1702  1.2782
  124DG     H16 2845   5.802   5.807   0.323 -0.9762 -1.6956  0.2198
  124DG     C17 2846   5.419   5.749   0.318  0.4016 -0.0642 -0.8179
  124DG     C18 2847   5.608   5.896   0.364  0.4566  1.0950 -0.1929
  124DG     O19 2848   5.553   5.779   0.292 -0.1831  0.2795 -0.2396
  124DG     H20 2849   5.401   5.739   0.425  1.1291  2.2991 -0.4289
  124DG     H21 2850   5.349   5.825   0.283 -0.4746 -0.3171  0.3141
  124DG     H22 2851   5.607   5.865   0.469 -0.7627  1.1086 -0.1799
  124DG     H23 2852   5.558   5.993   0.364  0.8721  1.3203 -1.3160
  125DG      C1 2853   3.291   2.137   3.298  0.2171 -0.1035  0.5100
  125DG      C2 2854   2.993   1.590   2.850 -0.3496  0.7935  0.1493
  125DG      H3 2855   3.203   2.110   3.356  1.1507 -1.7417  1.2296
  125DG      H4 2856   3.308   2.244   3.314 -1.2379  0.3563 -0.7505
  125DG      H5 2857   3.381   2.088   3.334  1.7989  1.5535 -0.9240
  125DG      H6 2858   3.006   1.547   2.751 -1.1322  0.9980 -0.0429
  125DG      H7 2859   2.983   1.509   2.922  0.6905  2.5374  2.3919
  125DG      H8 2860   2.906   1.654   2.862 -0.4161  0.9637 -1.1199
  125DG      O9 2861   3.269   2.104   3.161  0.0934  0.6005 -0.0819
  125DG     O10 2862   3.107   1.664   2.890  0.3780  0.4050  0.2511
  125DG     C11 2863   3.139   2.140   3.107 -0.3339  0.3248  0.8370
  125DG     C12 2864   3.112   1.708   3.027 -0.0583  0.2572  0.2447
  125DG     H13 2865   3.140   2.249   3.095 -0.4589  0.4777  2.0706
  125DG     H14 2866   3.058   2.111   3.174 -1.0232  1.8005  0.6881
  125DG     H15 2867   3.214   1.692   3.062 -1.3864 -1.7470  3.7267
  125DG     H16 2868   3.057   1.639   3.091 -0.8445  0.3191 -0.3537
  125DG     C17 2869   3.106   2.077   2.970 -0.2279 -0.2916  0.2518
  125DG     C18 2870   3.067   1.855   3.043 -0.1337  0.0455  0.3456
  125DG     O19 2871   3.147   1.941   2.978  0.2417 -0.1746 -0.1238
  125DG     H20 2872   3.156   2.124   2.886 -0.9582  0.1960  0.0777
  125DG     H21 2873   3.002   2.092   2.940  0.3196 -1.6614 -2.7381
  125DG     H22 2874   2.971   1.864   2.993  0.4325  1.0665 -0.5951
  125DG     H23 2875   3.048   1.879   3.148 -0.7322  1.4514 -0.0631
  126DG      C1 2876   3.723   5.316   1.673 -0.4536 -0.2160  0.4824
  126DG      C2 2877   2.992   5.516   1.626 -0.4888 -0.7614  0.4150
  126DG      H3 2878   3.818   5.347   1.716  0.3463  0.2874 -1.5572
  126DG      H4 2879   3.724   5.314   1.564 -1.4362 -0.4472  0.4699
  126DG      H5 2880   3.707   5.216   1.715  1.2493  0.1387  2.0924
  126DG      H6 2881   2.978   5.433   1.695  0.9979 -0.7901  0.7196
  126DG      H7 2882   2.924   5.601   1.635  0.1935  0.1567 -2.1285
  126DG      H8 2883   3.006   5.472   1.527  1.9668 -0.3865  0.5281
  126DG      O9 2884   3.623   5.410   1.713  0.0704  0.3535 -0.2221
  126DG     O10 2885   3.122   5.559   1.665 -0.2669  0.0057  0.2867
  126DG     C11 2886   3.647   5.539   1.665 -0.0356 -0.4577  0.0598
  126DG     C12 2887   3.173   5.668   1.607 -0.0800  0.0285  0.0402
  126DG     H13 2888   3.659   5.539   1.557  2.2774 -1.9841  0.2645
  126DG     H14 2889   3.746   5.569   1.699  0.7693 -0.4647 -2.1327
  126DG     H15 2890   3.105   5.751   1.624 -0.7850 -0.2027 -1.4367
  126DG     H16 2891   3.178   5.656   1.499  3.8462  3.4144 -0.3879
  126DG     C17 2892   3.533   5.636   1.708  0.2104  0.4877  0.1864
  126DG     C18 2893   3.306   5.704   1.677 -0.2991 -0.7127 -0.1785
  126DG     O19 2894   3.404   5.600   1.659 -0.3632 -0.0283  0.3610
  126DG     H20 2895   3.555   5.726   1.652 -0.1392 -0.1541 -1.0193
  126DG     H21 2896   3.529   5.655   1.816  1.4354 -0.3658  0.4140
  126DG     H22 2897   3.335   5.802   1.641 -1.4840  0.1391  1.0709
  126DG     H23 2898   3.296   5.717   1.785  1.6851  1.2987 -0.1549
  127DG      C1 2899   2.227   1.963   4.690 -0.0155 -0.1012  0.4273
  127DG      C2 2900   2.959   1.650   4.983 -0.8299  0.6200 -0.5998
  127DG      H3 2901   2.287   1.954   4.599 -0.7719 -0.7973 -0.0138
  127DG      H4 2902   2.152   2.039   4.669  1.9628  1.3246 -1.9967
  127DG      H5 2903   2.183   1.864   4.701 -0.3182 -0.2379 -1.5838
  127DG      H6 2904   2.972   1.594   4.891  1.4523 -1.5635  0.9056
  127DG      H7 2905   3.056   1.699   4.990 -0.1277 -0.7606 -0.3346
  127DG      H8 2906   2.968   1.558   5.041 -1.6389 -0.8723 -2.7020
  127DG      O9 2907   2.303   2.002   4.799 -0.2043 -0.0279 -0.4164
  127DG     O10 2908   2.844   1.723   5.007  0.1998 -0.4835 -0.0684
  127DG     C11 2909   2.412   1.919   4.828  0.1614  0.2661  0.5865
  127DG     C12 2910   2.851   1.838   4.931  0.1435  0.2955  0.4346
  127DG     H13 2911   2.455   1.884   4.734  0.2366  2.4435 -0.2611
  127DG     H14 2912   2.374   1.828   4.874 -0.2371 -1.3953 -2.7803
  127DG     H15 2913   2.842   1.820   4.824  0.0170 -3.0042  0.8903
  127DG     H16 2914   2.944   1.895   4.935  0.0784  0.4500 -0.1120
  127DG     C17 2915   2.523   1.975   4.916  0.2030 -0.2550 -0.0505
  127DG     C18 2916   2.742   1.937   4.962 -0.0509 -0.1017  1.1574
  127DG     O19 2917   2.623   1.876   4.918  0.3537 -0.3987  0.1131
  127DG     H20 2918   2.489   1.994   5.018  0.5533 -0.7931  0.1732
  127DG     H21 2919   2.561   2.071   4.881 -0.7739 -0.3671 -1.5265
  127DG     H22 2920   2.735   1.954   5.070 -0.8645  2.3563  0.7805
  127DG     H23 2921   2.766   2.026   4.903  1.2699 -1.4799 -0.4923
  128DG      C1 2922   3.536   4.277   4.633 -0.6209  0.1609  0.8305
  128DG      C2 2923   3.432   4.668   3.909 -0.3071  0.0502 -0.3635
  128DG      H3 2924   3.574   4.294   4.734 -0.3287 -1.2087  0.9700
  128DG      H4 2925   3.632   4.247   4.591 -0.5481 -0.9759  1.7600
  128DG      H5 2926   3.463   4.199   4.613  0.1795  0.2959 -3.5916
  128DG      H6 2927   3.369   4.729   3.844 -0.0719  1.9073  1.0929
  128DG      H7 2928   3.530   4.640   3.870  1.7333  1.7361  3.0514
  128DG      H8 2929   3.377   4.575   3.925 -1.3245  0.7181  0.1485
  128DG      O9 2930   3.501   4.400   4.564 -0.2530 -0.0933 -0.0764
  128DG     O10 2931   3.454   4.721   4.041 -0.4728 -0.2109 -0.0312
  128DG     C11 2932   3.597   4.506   4.576  0.3395 -0.0430 -0.3288
  128DG     C12 2933   3.524   4.639   4.128  0.3426 -0.0685  0.2121
  128DG     H13 2934   3.702   4.483   4.556  0.6778  1.2960 -0.2402
  128DG     H14 2935   3.587   4.529   4.682  3.1348 -3.4851  0.8705
  128DG     H15 2936   3.622   4.618   4.085  0.5172 -1.7319  1.3495
  128DG     H16 2937   3.475   4.542   4.128 -1.5648  0.6965 -3.3802
  128DG     C17 2938   3.562   4.623   4.484 -1.0739 -0.0500  0.0955
  128DG     C18 2939   3.538   4.700   4.265  0.2755  0.1078  0.1792
  128DG     O19 2940   3.574   4.591   4.346 -0.9981 -0.2749 -0.0853
  128DG     H20 2941   3.640   4.690   4.521 -1.7039  1.1736 -0.7283
  128DG     H21 2942   3.469   4.672   4.514 -2.2866 -1.6026 -1.0022
  128DG     H22 2943   3.618   4.774   4.271  1.0409 -0.5146 -1.5475
  128DG     H23 2944   3.446   4.744   4.303  0.6471  0.4646  0.6871
  129DG      C1 2945   3.432   3.824   0.051  0.3923  0.4237 -0.0472
  129DG      C2 2946   4.035   4.024   0.134 -0.3136  0.5829 -0.3336
  129DG      H3 2947   3.453   3.738  -0.013  1.2135 -0.8489  1.8320
  129DG      H4 2948   3.324   3.829   0.036  0.3437 -0.8965 -0.2661
  129DG      H5 2949   3.459   3.805   0.155  1.4813  0.4569 -0.3122
  129DG      H6 2950   3.988   4.000   0.229 -0.0918 -1.6890 -0.7524
  129DG      H7 2951   4.082   3.931   0.101 -1.7108 -0.0034 -0.7450
  129DG      H8 2952   4.107   4.106   0.133 -0.5424  0.7820 -0.8573
  129DG      O9 2953   3.497   3.939   0.006  0.0678  0.1999  0.1714
  129DG     O10 2954   3.933   4.069   0.059  0.1627  0.4808 -0.0394
  129DG     C11 2955   3.494   3.957  -0.139  0.1289 -0.4808 -0.5365
  129DG     C12 2956   3.965   4.076  -0.088 -0.6461 -0.4128 -0.6836
  129DG     H13 2957   3.394   3.980  -0.179 -0.3364 -0.6564  0.4936
  129DG     H14 2958   3.518   3.861  -0.184  0.2086 -0.0625 -1.4178
  129DG     H15 2959   4.002   3.978  -0.117 -0.1704  0.0263 -1.5855
  129DG     H16 2960   4.049   4.143  -0.103 -1.2744  0.7056  0.5833
  129DG     C17 2961   3.609   4.052  -0.185 -0.4810  0.5590 -0.3432
  129DG     C18 2962   3.847   4.118  -0.172 -0.0712  0.7349  0.0443
  129DG     O19 2963   3.742   4.026  -0.131  0.1769 -0.3411 -0.2882
  129DG     H20 2964   3.581   4.156  -0.170  0.6703  1.0023 -1.0827
  129DG     H21 2965   3.623   4.056  -0.293 -1.4015 -0.1395 -0.4943
  129DG     H22 2966   3.816   4.217  -0.137 -2.4087  0.2905 -0.6221
  129DG     H23 2967   3.855   4.119  -0.280 -1.3748  0.6280 -0.0641
  130DG      C1 2968   2.855   2.833   3.990 -1.2111  0.4962  0.6120
  130DG      C2 2969   3.364   3.091   3.330 -0.1088 -0.5618 -0.2129
  130DG      H3 2970   2.864   2.824   4.098 -2.4898  1.5465  0.8402
  130DG      H4 2971   2.841   2.739   3.937 -0.5265  1.1656 -0.8299
  130DG      H5 2972   2.760   2.885   3.977 -0.7889  0.9063 -1.0298
  130DG      H6 2973   3.450   3.137   3.281 -0.2173  0.8679  0.8839
  130DG      H7 2974   3.368   2.991   3.286  1.9252 -1.4477  1.7762
  130DG      H8 2975   3.281   3.154   3.299  0.5962  0.9536  0.8783
  130DG      O9 2976   2.966   2.910   3.944 -0.2523 -0.1547 -0.5856
  130DG     O10 2977   3.368   3.077   3.470  0.1265 -0.2934  0.7763
  130DG     C11 2978   3.083   2.832   3.927  0.4556  0.2755  0.0960
  130DG     C12 2979   3.247   3.017   3.521 -0.1334  0.1142  0.7373
  130DG     H13 2980   3.058   2.743   3.869 -1.2777  1.1999 -0.6531
  130DG     H14 2981   3.115   2.799   4.025 -0.6465 -0.5847  0.1966
  130DG     H15 2982   3.238   2.916   3.480  0.6638  0.3014  0.0638
  130DG     H16 2983   3.161   3.081   3.500  0.2004  0.4045  0.2177
  130DG     C17 2984   3.189   2.916   3.868 -0.0057  0.3351 -0.1741
  130DG     C18 2985   3.266   3.018   3.670  0.3288 -0.0313 -0.6616
  130DG     O19 2986   3.160   2.949   3.730 -0.2983  0.3202 -0.7015
  130DG     H20 2987   3.284   2.863   3.859  0.5128  0.7758  1.9913
  130DG     H21 2988   3.213   3.004   3.928  0.7814 -1.5206  2.4619
  130DG     H22 2989   3.362   2.977   3.699  0.4338  1.2648  0.9346
  130DG     H23 2990   3.271   3.120   3.708 -1.1129 -0.8605  2.0396
  131DG      C1 2991   2.607   4.616   5.108  0.0229 -0.3930  0.2287
  131DG      C2 2992   2.928   5.255   5.298 -0.0618  0.1179 -0.2304
  131DG      H3 2993   2.510   4.568   5.095 -0.7330  1.5410 -1.9880
  131DG      H4 2994   2.658   4.569   5.192  2.1004  1.8738  0.3425
  131DG      H5 2995   2.662   4.592   5.017 -0.7071  2.4656 -1.0779
  131DG      H6 2996   3.015   5.295   5.245 -0.4320  0.3802 -0.6475
  131DG      H7 2997   2.905   5.337   5.366  0.2340  0.0999 -0.1070
  131DG      H8 2998   2.962   5.183   5.373 -0.1801  0.5633  0.2594
  131DG      O9 2999   2.608   4.756   5.136 -0.5241  0.7662 -0.5778
  131DG     O10 3000   2.819   5.212   5.217 -0.8239  0.9967 -0.1204
  131DG     C11 3001   2.563   4.830   5.021 -0.6886  0.3505 -0.6048
  131DG     C12 3002   2.705   5.187   5.295 -0.7261 -0.1891 -0.8905
  131DG     H13 3003   2.476   4.781   4.977 -0.8658 -2.5821  2.6455
  131DG     H14 3004   2.640   4.816   4.945  0.0236 -1.3199  0.3682
  131DG     H15 3005   2.683   5.276   5.354  2.4227  0.9493 -1.2429
  131DG     H16 3006   2.732   5.108   5.366 -0.8660  0.6847  0.1631
  131DG     C17 3007   2.529   4.973   5.054  0.0206 -0.2803 -0.2731
  131DG     C18 3008   2.588   5.134   5.208  0.2117  0.5864 -0.5087
  131DG     O19 3009   2.634   5.022   5.138 -0.5800 -0.4727  0.0501
  131DG     H20 3010   2.440   4.956   5.115  0.4341 -0.3708  0.3138
  131DG     H21 3011   2.504   5.037   4.970 -0.4608  0.2112  0.2336
  131DG     H22 3012   2.504   5.099   5.268 -0.2321  2.0369 -0.2413
  131DG     H23 3013   2.552   5.209   5.138 -1.2857 -1.2143 -1.7501
  132DG      C1 3014   3.104   3.624   1.628 -0.6169  0.8046 -1.1248
  132DG      C2 3015   2.991   4.099   2.200 -0.7122 -0.2909  0.5169
  132DG      H3 3016   3.164   3.666   1.547  0.0084  2.0551 -0.0533
  132DG      H4 3017   3.037   3.550   1.585  1.9743 -1.6536 -1.2301
  132DG      H5 3018   3.170   3.572   1.697 -2.0401 -0.7920 -0.8975
  132DG      H6 3019   3.012   4.008   2.257  1.0743 -1.0417 -1.2269
  132DG      H7 3020   3.076   4.167   2.200 -1.2542  0.4261 -1.0825
  132DG      H8 3021   2.914   4.153   2.255 -0.0660  1.0802  0.1143
  132DG      O9 3022   3.031   3.720   1.696  0.2363  0.1600 -0.0023
  132DG     O10 3023   2.959   4.047   2.079  0.2001 -0.1284 -0.4050
  132DG     C11 3024   3.001   3.838   1.614  0.7329  0.3569 -0.5764
  132DG     C12 3025   2.938   4.150   1.985 -0.6729 -0.0783 -0.4010
  132DG     H13 3026   2.961   3.805   1.517 -1.3747  0.1591  0.3045
  132DG     H14 3027   3.090   3.899   1.603 -0.8837  2.6045 -2.2080
  132DG     H15 3028   3.029   4.203   1.959 -1.0969 -0.7205 -3.6265
  132DG     H16 3029   2.859   4.211   2.031  0.4441  0.4728  0.8613
  132DG     C17 3030   2.904   3.940   1.680  0.1740 -0.1246 -0.6738
  132DG     C18 3031   2.882   4.090   1.858 -0.2524  0.3175  0.2670
  132DG     O19 3032   2.969   3.997   1.796  0.7219  0.1215  0.8349
  132DG     H20 3033   2.819   3.882   1.717  1.9017 -2.3819 -0.0916
  132DG     H21 3034   2.863   4.021   1.620  1.2949  0.9813  0.0045
  132DG     H22 3035   2.784   4.046   1.876 -0.8041  1.5595  0.4321
  132DG     H23 3036   2.852   4.169   1.789  1.4627 -0.0310 -0.9350
  133DG      C1 3037   2.303   4.616   2.107  0.0708 -0.4596  0.0696
  133DG      C2 3038   1.856   3.985   2.270 -0.3698 -0.1995 -0.1283
  133DG      H3 3039   2.345   4.661   2.196  0.4430  0.8736 -0.7443
  133DG      H4 3040   2.214   4.669   2.074  0.9483  1.0278 -0.0307
  133DG      H5 3041   2.375   4.639   2.028 -1.2122  0.5024 -0.8453
  133DG      H6 3042   1.861   3.879   2.297 -0.3617 -0.0320  0.5584
  133DG      H7 3043   1.857   4.043   2.363 -0.5289  0.9682 -0.8390
  133DG      H8 3044   1.760   3.986   2.219 -0.5904  2.4624  0.1848
  133DG      O9 3045   2.276   4.475   2.121 -0.0546 -0.1952  0.1248
  133DG     O10 3046   1.962   4.018   2.177  0.1600 -0.1543  0.4904
  133DG     C11 3047   2.228   4.412   2.001  0.3361 -0.6514 -0.1239
  133DG     C12 3048   2.078   4.054   2.252  0.1421  0.3674  0.1938
  133DG     H13 3049   2.278   4.459   1.916  0.7391  1.3178  1.1355
  133DG     H14 3050   2.121   4.429   1.991  0.4866  0.4722  0.1050
  133DG     H15 3051   2.096   3.969   2.317  0.8222 -0.8148 -1.4655
  133DG     H16 3052   2.061   4.143   2.312 -0.4626  0.4090 -0.0265
  133DG     C17 3053   2.260   4.263   2.019 -0.2695 -0.4777  0.1701
  133DG     C18 3054   2.194   4.084   2.158  0.0763  0.3910  1.1458
  133DG     O19 3055   2.164   4.213   2.106 -0.0047  0.8904 -0.4050
  133DG     H20 3056   2.361   4.253   2.058  0.1270  1.0038 -0.4155
  133DG     H21 3057   2.259   4.214   1.921 -3.7100 -0.0954 -0.1077
  133DG     H22 3058   2.288   4.093   2.211 -1.4215  2.1361  3.6943
  133DG     H23 3059   2.199   4.018   2.070 -1.4089  2.0749 -0.2739
  134DG      C1 3060   2.492   3.069   4.742 -0.0270 -0.4178  0.2691
  134DG      C2 3061   3.084   2.592   4.268 -0.0057 -0.1547  0.2379
  134DG      H3 3062   2.552   3.128   4.811  1.2555  0.2388 -1.3412
  134DG      H4 3063   2.397   3.035   4.784 -1.4742  0.7739 -1.8672
  134DG      H5 3064   2.458   3.134   4.662 -0.4181 -2.5379 -1.3840
  134DG      H6 3065   3.131   2.687   4.244 -2.9396  1.0760 -1.0782
  134DG      H7 3066   3.150   2.506   4.257 -0.4005 -0.3935 -0.3153
  134DG      H8 3067   3.004   2.578   4.195 -0.0361 -1.1507  0.4483
  134DG      O9 3068   2.571   2.959   4.698 -0.1898  0.5114  0.3618
  134DG     O10 3069   3.044   2.610   4.397  0.2381  0.6011  0.0509
  134DG     C11 3070   2.687   2.929   4.772 -0.0418  0.4945  0.2795
  134DG     C12 3071   2.946   2.715   4.405 -0.6350  0.1110  0.4115
  134DG     H13 3072   2.677   2.917   4.879 -0.7666 -0.2136  0.1380
  134DG     H14 3073   2.750   3.016   4.753  0.2112  0.3423  0.4137
  134DG     H15 3074   2.873   2.713   4.324 -0.6584  1.0803  0.3882
  134DG     H16 3075   3.001   2.810   4.397  0.3300 -0.5546 -1.8419
  134DG     C17 3076   2.761   2.797   4.715  0.0463 -0.6932  0.2699
  134DG     C18 3077   2.873   2.697   4.538  0.0520  0.8730 -0.7936
  134DG     O19 3078   2.809   2.812   4.587  0.4634 -0.5087  0.6840
  134DG     H20 3079   2.684   2.720   4.717 -1.5561  0.6182 -3.2333
  134DG     H21 3080   2.845   2.762   4.774  1.2688  0.3786 -0.7732
  134DG     H22 3081   2.807   2.611   4.535  2.6573 -1.3158  0.4648
  134DG     H23 3082   2.949   2.661   4.608 -1.7466 -1.0642  0.2582
  135DG      C1 3083   2.216   3.277   1.564  0.0388  0.3116  0.6690
  135DG      C2 3084   2.871   3.481   1.282  0.0937  0.0738 -0.7128
  135DG      H3 3085   2.221   3.239   1.462 -2.3338  1.2703  0.1312
  135DG      H4 3086   2.132   3.343   1.541  0.9256  1.1941 -0.1246
  135DG      H5 3087   2.186   3.191   1.625 -0.7790 -0.3716 -0.6497
  135DG      H6 3088   2.923   3.395   1.240  1.6753 -0.8502  2.8248
  135DG      H7 3089   2.804   3.530   1.211 -0.2335 -0.4940 -0.7998
  135DG      H8 3090   2.950   3.552   1.308  2.7727 -2.7686 -0.5668
  135DG      O9 3091   2.330   3.338   1.618 -0.3417  0.1973 -0.3609
  135DG     O10 3092   2.810   3.449   1.410 -0.2091  0.4052  0.7003
  135DG     C11 3093   2.449   3.257   1.659  0.2748 -0.0459 -0.5063
  135DG     C12 3094   2.725   3.559   1.447  0.1111  0.4170  0.4002
  135DG     H13 3095   2.476   3.187   1.579 -2.3153  0.1962 -1.7069
  135DG     H14 3096   2.422   3.210   1.754  0.4121 -1.0124 -0.9306
  135DG     H15 3097   2.647   3.577   1.373  1.5440  2.2733 -0.7362
  135DG     H16 3098   2.781   3.652   1.440  2.1893 -0.7000  1.0601
  135DG     C17 3099   2.553   3.367   1.686  0.1528  0.5154  0.2054
  135DG     C18 3100   2.661   3.527   1.581  0.0829  0.3843 -0.3257
  135DG     O19 3101   2.589   3.411   1.559 -0.4834  0.1301 -0.1612
  135DG     H20 3102   2.640   3.317   1.729  0.3050  1.4832  1.0623
  135DG     H21 3103   2.518   3.445   1.752  1.3029 -0.7578  2.4298
  135DG     H22 3104   2.742   3.519   1.654 -1.5136 -0.7162  1.4178
  135DG     H23 3105   2.601   3.615   1.603  0.3356  1.1326 -2.4373
  136DG      C1 3106   1.292   1.982   1.557  0.4631 -0.0189  0.6813
  136DG      C2 3107   1.520   1.985   1.117  0.0346 -0.5868 -0.1257
  136DG      H3 3108   1.297   2.080   1.509  1.7706 -0.4278 -0.0815
  136DG      H4 3109   1.326   1.987   1.660 -1.6341 -1.7755  1.5289
  136DG      H5 3110   1.185   1.962   1.564  0.1228  0.7166 -1.6153
  136DG      H6 3111   1.535   1.975   1.224  0.2130  3.2376  0.3480
  136DG      H7 3112   1.567   2.074   1.073 -1.0746  0.7403  1.2743
  136DG      H8 3113   1.414   1.999   1.098 -0.6286 -0.8505  2.8545
  136DG      O9 3114   1.362   1.893   1.476 -0.3058  0.1611 -0.0299
  136DG     O10 3115   1.574   1.874   1.046  0.4225 -0.2574  0.1891
  136DG     C11 3116   1.342   1.760   1.508 -0.1501 -0.0437 -0.3700
  136DG     C12 3117   1.522   1.743   1.058 -0.2455  0.5353 -0.0342
  136DG     H13 3118   1.239   1.734   1.482  0.5395 -2.0521 -1.2566
  136DG     H14 3119   1.355   1.736   1.614 -1.7995  1.2716  0.1777
  136DG     H15 3120   1.592   1.678   1.006  2.1559  1.1205  2.2702
  136DG     H16 3121   1.426   1.721   1.010 -0.6576 -1.5192  1.6264
  136DG     C17 3122   1.435   1.674   1.420  0.5002 -0.5796  0.0783
  136DG     C18 3123   1.535   1.680   1.200  0.0034 -0.0456 -0.1030
  136DG     O19 3124   1.437   1.733   1.288  0.2891 -0.3925  0.4203
  136DG     H20 3125   1.403   1.570   1.422  0.9070 -0.7550  2.9696
  136DG     H21 3126   1.533   1.670   1.469  0.2534  0.9388  0.7718
  136DG     H22 3127   1.516   1.572   1.207  0.0485  0.0072  0.9426
  136DG     H23 3128   1.638   1.693   1.233 -0.1987  0.4127  0.3382
  137DG      C1 3129   2.396   4.829   1.556  0.2897  0.1337 -0.8324
  137DG      C2 3130   2.110   4.388   1.048  0.1688  0.4154 -0.6161
  137DG      H3 3131   2.398   4.901   1.474  1.5502 -0.2138 -1.1306
  137DG      H4 3132   2.488   4.825   1.614 -1.3301 -1.4231  1.8675
  137DG      H5 3133   2.321   4.843   1.634 -0.1048  1.4884 -1.4267
  137DG      H6 3134   2.161   4.468   0.996 -0.2285  0.4946 -0.8884
  137DG      H7 3135   2.138   4.295   0.997  1.0963 -0.1190  0.7996
  137DG      H8 3136   2.004   4.410   1.037  0.2367 -0.0621 -2.5807
  137DG      O9 3137   2.378   4.699   1.493 -0.0857  0.2377  0.2086
  137DG     O10 3138   2.147   4.384   1.192 -0.7491  0.1026  0.2666
  137DG     C11 3139   2.329   4.602   1.588 -0.2695 -0.1378  0.5544
  137DG     C12 3140   2.262   4.308   1.204 -0.2108 -0.7047  0.1001
  137DG     H13 3141   2.222   4.612   1.608 -0.1999 -1.9407  2.1416
  137DG     H14 3142   2.374   4.592   1.686 -1.0430  0.7142  1.0134
  137DG     H15 3143   2.342   4.340   1.137 -0.0096  2.4280  1.6185
  137DG     H16 3144   2.241   4.203   1.185  0.3951 -1.0952  1.4644
  137DG     C17 3145   2.342   4.458   1.538 -0.5520 -0.0871  0.0485
  137DG     C18 3146   2.327   4.321   1.346  0.0493 -0.4479  0.0727
  137DG     O19 3147   2.306   4.449   1.401  0.2479 -0.4893 -0.7944
  137DG     H20 3148   2.277   4.401   1.603 -0.4901  0.9305  1.0301
  137DG     H21 3149   2.449   4.441   1.554 -0.5085  1.0786  1.1834
  137DG     H22 3150   2.271   4.249   1.405  0.3788  1.5047  2.9262
  137DG     H23 3151   2.432   4.294   1.353  0.1435  0.1665  1.1752
  138DG      C1 3152   3.854   5.072   4.532  0.6089 -0.1565 -0.8370
  138DG      C2 3153   3.978   4.429   4.527 -0.1815 -0.2053 -0.4764
  138DG      H3 3154   3.759   5.035   4.570 -1.0663  2.5316 -2.0612
  138DG      H4 3155   3.839   5.178   4.513  0.7247 -0.1541 -0.9131
  138DG      H5 3156   3.917   5.071   4.620 -1.5840 -1.6175  0.8344
  138DG      H6 3157   3.880   4.382   4.525  0.9524 -2.9247  1.6615
  138DG      H7 3158   4.063   4.362   4.511  0.1679 -0.1888  1.2024
  138DG      H8 3159   3.989   4.467   4.628  2.2042 -1.5035 -0.1717
  138DG      O9 3160   3.913   4.997   4.422 -0.4516 -0.1453  0.1522
  138DG     O10 3161   3.978   4.546   4.447  0.1357  0.3750 -0.2407
  138DG     C11 3162   3.841   4.986   4.300  0.3547 -0.8198 -0.4766
  138DG     C12 3163   3.970   4.519   4.311  0.2457 -0.1364 -0.4246
  138DG     H13 3164   3.830   5.081   4.248  2.0103  0.5450  1.4766
  138DG     H14 3165   3.739   4.954   4.321  0.1737 -0.1868 -0.3441
  138DG     H15 3166   3.869   4.483   4.292  0.1460  0.6109 -1.4001
  138DG     H16 3167   4.044   4.449   4.272  1.5759  1.6141 -1.1836
  138DG     C17 3168   3.917   4.874   4.223 -0.2919  0.3610 -0.2088
  138DG     C18 3169   3.992   4.651   4.239 -0.1130  0.5648 -0.3699
  138DG     O19 3170   3.925   4.757   4.302  0.8496  0.3585  0.4934
  138DG     H20 3171   4.015   4.912   4.195 -0.4509  1.7082  0.9529
  138DG     H21 3172   3.867   4.852   4.129 -0.4462 -4.0932  0.7046
  138DG     H22 3173   4.101   4.662   4.240 -0.0308  0.1196  2.0371
  138DG     H23 3174   3.962   4.627   4.137  1.0748 -3.6049  0.0759
  139DG      C1 3175   5.208   2.835   5.231  0.3349 -0.1034  0.3309
  139DG      C2 3176   4.733   2.655   5.298 -0.4611  0.6255  0.6006
  139DG      H3 3177   5.151   2.928   5.229  1.9469  0.9084 -0.8238
  139DG      H4 3178   5.263   2.830   5.137  2.8873 -0.7171  1.7660
  139DG      H5 3179   5.271   2.818   5.318  0.3581 -0.5440  0.2339
  139DG      H6 3180   4.718   2.673   5.192  1.9085  1.4053  0.3434
  139DG      H7 3181   4.684   2.750   5.323 -1.8108  0.3124 -0.6849
  139DG      H8 3182   4.840   2.667   5.309 -0.4654 -0.1347  1.6295
  139DG      O9 3183   5.115   2.730   5.238  0.4764 -0.0287 -0.1025
  139DG     O10 3184   4.690   2.532   5.343 -0.4905 -0.0513 -0.0459
  139DG     C11 3185   5.166   2.601   5.224 -0.7458  0.4731  0.4430
  139DG     C12 3186   4.758   2.417   5.288 -0.6402 -0.3065 -0.1995
  139DG     H13 3187   5.224   2.578   5.314  0.1446 -1.6499 -0.5838
  139DG     H14 3188   5.233   2.591   5.138 -0.2403 -0.0033  0.8841
  139DG     H15 3189   4.756   2.428   5.179 -3.2621  2.9703  0.0110
  139DG     H16 3190   4.690   2.334   5.301 -1.9095  0.7757  0.2523
  139DG     C17 3191   5.055   2.500   5.220  0.2910 -0.4164 -0.3575
  139DG     C18 3192   4.891   2.384   5.356  0.0029 -0.3150 -0.6853
  139DG     O19 3193   5.000   2.474   5.350  0.7283 -0.3647  0.2176
  139DG     H20 3194   5.103   2.410   5.184 -0.7532 -1.1290 -0.0138
  139DG     H21 3195   4.973   2.531   5.154 -0.5125 -2.2430 -0.2619
  139DG     H22 3196   4.878   2.394   5.464  1.2625  2.1544 -0.6945
  139DG     H23 3197   4.922   2.283   5.329 -0.1342  0.0456 -2.2515
  140DG      C1 3198   1.746   4.301   1.055 -0.0325  0.4364  0.2680
  140DG      C2 3199   1.448   4.741   1.360 -0.2246  0.1407  0.1892
  140DG      H3 3200   1.667   4.280   1.128 -0.1044 -0.4339 -0.0487
  140DG      H4 3201   1.831   4.342   1.110  3.5673  0.0561 -4.4429
  140DG      H5 3202   1.767   4.209   1.001 -1.9120  0.6618 -0.9347
  140DG      H6 3203   1.375   4.756   1.440  0.6024  0.3230  0.9262
  140DG      H7 3204   1.550   4.744   1.397  0.2097 -0.2221 -0.9458
  140DG      H8 3205   1.449   4.830   1.298  3.5499  0.4374  0.4364
  140DG      O9 3206   1.709   4.400   0.963 -0.2719  0.1871  0.3797
  140DG     O10 3207   1.430   4.616   1.287 -0.3706  0.0325 -0.1351
  140DG     C11 3208   1.596   4.368   0.877  0.0584  0.3627 -0.4502
  140DG     C12 3209   1.317   4.622   1.196  0.2036 -0.1353 -0.5069
  140DG     H13 3210   1.598   4.263   0.848  2.3905 -0.3101  1.7741
  140DG     H14 3211   1.605   4.427   0.786  3.7559 -1.9285 -1.7971
  140DG     H15 3212   1.327   4.708   1.130  1.8397  0.9023  1.0159
  140DG     H16 3213   1.227   4.644   1.253  0.6296  0.0904  0.0855
  140DG     C17 3214   1.452   4.381   0.952 -0.2982  0.3335 -0.1758
  140DG     C18 3215   1.314   4.497   1.108  0.0385 -0.3151 -0.0069
  140DG     O19 3216   1.434   4.502   1.027  0.0419 -0.5153  0.3759
  140DG     H20 3217   1.445   4.295   1.019 -0.3676  0.0118 -0.5928
  140DG     H21 3218   1.377   4.373   0.873 -0.1164  0.1374 -0.3310
  140DG     H22 3219   1.306   4.408   1.172 -3.5896 -0.0553  0.1200
  140DG     H23 3220   1.223   4.509   1.050 -1.0559  0.5378  1.7869
  141DG      C1 3221   0.391   3.679   2.413 -0.5550  0.6272  0.1037
  141DG      C2 3222   0.783   3.069   2.550  0.4801 -0.9040  0.2772
  141DG      H3 3223   0.480   3.742   2.406 -1.2050  1.5492 -0.1020
  141DG      H4 3224   0.374   3.701   2.519  1.4549 -0.2528  0.6569
  141DG      H5 3225   0.312   3.730   2.358 -0.7447  0.0471 -0.1646
  141DG      H6 3226   0.747   2.966   2.553 -1.6373 -0.2795 -1.4776
  141DG      H7 3227   0.892   3.064   2.540  0.4566  0.7265 -1.4301
  141DG      H8 3228   0.751   3.112   2.645  2.0322  0.0889  0.3885
  141DG      O9 3229   0.426   3.544   2.387 -0.1162 -0.0695 -0.4835
  141DG     O10 3230   0.736   3.130   2.427 -0.0402  0.0921 -0.3945
  141DG     C11 3231   0.459   3.518   2.254 -0.1169  0.6792  0.8186
  141DG     C12 3232   0.791   3.256   2.396  0.6238  0.6850 -0.1338
  141DG     H13 3233   0.544   3.576   2.219  0.6407 -0.5759  0.4932
  141DG     H14 3234   0.381   3.555   2.187  1.3137  1.6793 -0.3667
  141DG     H15 3235   0.899   3.258   2.379  1.6522  0.1134  4.7940
  141DG     H16 3236   0.787   3.326   2.480  1.1973  1.1231 -0.4567
  141DG     C17 3237   0.470   3.364   2.241 -0.1209 -0.5258  0.0089
  141DG     C18 3238   0.702   3.309   2.287  0.9888 -0.0534 -0.7770
  141DG     O19 3239   0.569   3.307   2.329 -0.5939  0.2132  0.0275
  141DG     H20 3240   0.499   3.332   2.141 -0.2881 -1.0191  0.1178
  141DG     H21 3241   0.382   3.300   2.248 -0.8047  0.3805 -0.1150
  141DG     H22 3242   0.738   3.408   2.260 -1.8566  1.0787 -0.7090
  141DG     H23 3243   0.714   3.253   2.195  2.0223 -2.0156  0.4655
  142DG      C1 3244   3.918   5.150   0.059  0.2312 -0.2064  0.0206
  142DG      C2 3245   3.660   5.586  -0.483 -0.1782 -0.7480  0.2448
  142DG      H3 3246   3.832   5.128   0.122  0.6254  0.5700  0.8446
  142DG      H4 3247   4.003   5.155   0.127  0.6217  2.1118 -0.5634
  142DG      H5 3248   3.914   5.066  -0.011  1.0904  0.6779 -1.1267
  142DG      H6 3249   3.768   5.604  -0.484 -0.0509 -1.3471 -1.5807
  142DG      H7 3250   3.644   5.523  -0.570  1.3406 -0.4073 -0.3272
  142DG      H8 3251   3.617   5.685  -0.497  1.5340 -0.1948 -1.6162
  142DG      O9 3252   3.885   5.279   0.009  0.7279  0.3804 -0.0319
  142DG     O10 3253   3.621   5.521  -0.367 -0.2156 -0.0662 -0.4371
  142DG     C11 3254   3.995   5.333  -0.069  0.4042  0.1816  0.6547
  142DG     C12 3255   3.650   5.601  -0.246  0.6654  0.4416  0.7372
  142DG     H13 3256   4.014   5.269  -0.155  1.8667 -0.2562  1.2744
  142DG     H14 3257   4.087   5.338  -0.011 -0.2132  1.7031  1.5570
  142DG     H15 3258   3.610   5.556  -0.156  0.2128 -2.4320 -0.7574
  142DG     H16 3259   3.608   5.701  -0.243  3.8376  1.9149  0.7255
  142DG     C17 3260   3.967   5.468  -0.130  0.5034 -0.3785 -0.0229
  142DG     C18 3261   3.801   5.601  -0.219  0.1812  0.0755  0.0539
  142DG     O19 3262   3.834   5.466  -0.177  0.4784  0.3005 -0.3057
  142DG     H20 3263   4.032   5.506  -0.208 -0.0797  0.8048  0.0500
  142DG     H21 3264   3.962   5.546  -0.054 -0.2098 -1.0969  0.6985
  142DG     H22 3265   3.863   5.641  -0.299 -0.7255 -3.1581 -2.4639
  142DG     H23 3266   3.816   5.674  -0.138 -0.7230 -0.6311  0.8833
  143DG      C1 3267   4.466   0.916   3.579  0.0281 -0.0430 -0.5741
  143DG      C2 3268   3.708   0.898   3.592  0.9221 -0.0509 -0.0996
  143DG      H3 3269   4.538   0.904   3.660 -0.0198 -0.8807 -0.6484
  143DG      H4 3270   4.505   0.993   3.512  0.9372 -0.6141 -0.7210
  143DG      H5 3271   4.474   0.827   3.517  2.7895  0.2970 -0.8249
  143DG      H6 3272   3.621   0.918   3.653  0.6731  0.1014 -0.4993
  143DG      H7 3273   3.719   0.975   3.515 -0.8163  0.1957 -0.1337
  143DG      H8 3274   3.714   0.802   3.540  1.2347 -0.1127  0.0454
  143DG      O9 3275   4.343   0.927   3.641 -0.8682  0.2265 -0.4284
  143DG     O10 3276   3.827   0.904   3.671  0.3211 -0.7325  0.4015
  143DG     C11 3277   4.334   1.046   3.724  0.0713 -1.1772  0.8357
  143DG     C12 3278   3.856   1.030   3.727  0.5467  0.3598  0.0381
  143DG     H13 3279   4.314   1.128   3.655  1.0221 -1.0556  0.6889
  143DG     H14 3280   4.427   1.069   3.776  0.5294 -0.7787 -0.1298
  143DG     H15 3281   3.773   1.076   3.782  0.9665  1.2193 -0.0255
  143DG     H16 3282   3.879   1.087   3.637  0.6303 -1.5781 -1.2179
  143DG     C17 3283   4.216   1.026   3.820 -0.1440  0.1613  0.0892
  143DG     C18 3284   3.979   1.024   3.824 -0.5351 -0.2023 -0.5875
  143DG     O19 3285   4.098   1.005   3.742  0.8039 -0.1654  0.1221
  143DG     H20 3286   4.209   1.117   3.881 -1.3661  0.2574 -0.1707
  143DG     H21 3287   4.232   0.944   3.890 -1.8422 -0.2659 -0.0067
  143DG     H22 3288   3.978   1.121   3.874 -0.9028 -1.8242  2.8509
  143DG     H23 3289   3.953   0.953   3.903 -1.0574  0.9698  0.3211
  144DG      C1 3290   1.076   4.623   0.823 -0.1929  0.4577  0.2804
  144DG      C2 3291   0.502   5.093   0.630 -0.5330  0.0428 -0.6558
  144DG      H3 3292   1.134   4.534   0.798 -0.7311  0.0286  0.5245
  144DG      H4 3293   1.071   4.631   0.932  1.3606 -0.2504  0.4341
  144DG      H5 3294   1.126   4.718   0.806 -0.2615  0.6246  0.9564
  144DG      H6 3295   0.403   5.104   0.676 -0.6939  1.1326 -1.2209
  144DG      H7 3296   0.574   5.145   0.694 -0.5303 -0.3021 -0.3792
  144DG      H8 3297   0.505   5.151   0.538 -3.6603  2.2838  0.4468
  144DG      O9 3298   0.941   4.618   0.777 -0.2297 -0.4044 -0.3631
  144DG     O10 3299   0.538   4.958   0.601  0.0615 -0.2841 -0.2248
  144DG     C11 3300   0.927   4.632   0.637 -0.4193  0.1860  0.1792
  144DG     C12 3301   0.539   4.853   0.706 -0.2330  0.4570 -0.1671
  144DG     H13 3302   0.985   4.544   0.611 -0.2505 -0.5080  2.7105
  144DG     H14 3303   0.970   4.728   0.608  2.5669 -0.2529  2.6392
  144DG     H15 3304   0.444   4.853   0.759  0.9068 -0.2334  1.9629
  144DG     H16 3305   0.610   4.882   0.783 -0.1160  0.0434 -0.1208
  144DG     C17 3306   0.778   4.610   0.600 -0.0738 -0.4813  0.4900
  144DG     C18 3307   0.577   4.724   0.646 -0.2976  0.1744  0.6074
  144DG     O19 3308   0.715   4.715   0.660  0.5727 -0.0217  0.7381
  144DG     H20 3309   0.738   4.516   0.637 -1.3958  0.4011  1.3492
  144DG     H21 3310   0.762   4.622   0.493 -0.2232 -0.6587  0.4928
  144DG     H22 3311   0.534   4.643   0.705 -3.2827  0.2147 -1.2934
  144DG     H23 3312   0.542   4.704   0.545  0.1711 -1.1949  0.7121
  145DG      C1 3313   1.385   4.950   3.849 -0.6432 -0.1015  0.3160
  145DG      C2 3314   0.586   5.130   3.964 -1.1876  0.1818  0.3911
  145DG      H3 3315   1.412   5.024   3.774 -2.2158 -1.8309 -2.0800
  145DG      H4 3316   1.433   4.859   3.813  2.5941  2.2173 -1.8159
  145DG      H5 3317   1.420   4.982   3.947  0.7770 -0.2058 -0.1246
  145DG      H6 3318   0.532   5.068   4.036 -2.0425 -0.4477 -0.7682
  145DG      H7 3319   0.593   5.227   4.015 -1.0458 -0.2944  1.2995
  145DG      H8 3320   0.522   5.147   3.878 -1.2633  0.1255  0.4370
  145DG      O9 3321   1.242   4.927   3.861 -0.2759 -0.5465  0.2122
  145DG     O10 3322   0.706   5.071   3.916  0.0711  0.7897 -0.5526
  145DG     C11 3323   1.175   4.923   3.734 -0.0192  0.1420 -0.2718
  145DG     C12 3324   0.797   5.162   3.859  0.1834 -0.1936 -0.0396
  145DG     H13 3325   1.224   4.859   3.661 -1.4595  0.3786 -1.4976
  145DG     H14 3326   1.190   5.018   3.682  0.8433  0.1694  0.0090
  145DG     H15 3327   0.858   5.222   3.926  1.8872 -2.3312  0.4826
  145DG     H16 3328   0.736   5.230   3.800 -0.0568  2.0267  2.5729
  145DG     C17 3329   1.039   4.880   3.759  0.0011  0.0750  0.1749
  145DG     C18 3330   0.886   5.073   3.768 -0.1251  0.0876  0.0821
  145DG     O19 3331   0.959   4.972   3.838  0.3114  0.2759 -0.2828
  145DG     H20 3332   1.033   4.785   3.812 -2.8212 -0.8269 -1.4981
  145DG     H21 3333   0.977   4.857   3.672 -1.7479  0.7549  1.1785
  145DG     H22 3334   0.831   5.021   3.689  0.0993  2.6700 -1.8950
  145DG     H23 3335   0.959   5.139   3.721  0.5050 -0.1007  0.7833
  146DG      C1 3336   4.344   4.548   1.848 -0.4100  0.0828 -0.4534
  146DG      C2 3337   3.834   4.406   2.247  0.4816 -0.5531  0.0644
  146DG      H3 3338   4.296   4.483   1.775  2.0786 -2.9219  0.3875
  146DG      H4 3339   4.438   4.495   1.864 -1.1345 -0.8510  1.0012
  146DG      H5 3340   4.342   4.649   1.806 -0.0104 -0.3519 -1.5421
  146DG      H6 3341   3.760   4.406   2.326  3.7779  0.2267  3.4376
  146DG      H7 3342   3.790   4.362   2.157  0.8357 -0.0531 -0.3615
  146DG      H8 3343   3.916   4.335   2.263  0.1831 -1.0126 -0.4153
  146DG      O9 3344   4.284   4.546   1.976  0.2877 -0.0624 -0.1645
  146DG     O10 3345   3.886   4.537   2.213  0.0627  0.2812 -0.1154
  146DG     C11 3346   4.335   4.636   2.078  0.7167 -0.3396  0.3970
  146DG     C12 3347   3.927   4.620   2.324 -0.9540 -0.6915 -0.5963
  146DG     H13 3348   4.314   4.742   2.062  0.1846 -0.1937  1.8904
  146DG     H14 3349   4.444   4.632   2.078  0.7155 -2.1443 -1.0688
  146DG     H15 3350   3.878   4.596   2.418  0.5385 -0.8493  0.1713
  146DG     H16 3351   3.915   4.724   2.293  2.4240  0.1458  0.4074
  146DG     C17 3352   4.280   4.607   2.219  0.1709  0.6227  0.1222
  146DG     C18 3353   4.076   4.601   2.334 -0.4913 -0.0274 -0.1058
  146DG     O19 3354   4.143   4.615   2.209  0.0590  0.3507 -1.1161
  146DG     H20 3355   4.327   4.665   2.298  2.7947  0.6270 -1.2992
  146DG     H21 3356   4.297   4.500   2.225  0.8243  0.5986 -1.5492
  146DG     H22 3357   4.117   4.673   2.404  2.2198 -0.6813 -0.8860
  146DG     H23 3358   4.100   4.505   2.380 -0.8756 -0.3492 -0.5674
  147DG      C1 3359   3.438   4.729   1.798 -0.2593 -0.0050  0.5396
  147DG      C2 3360   3.578   5.332   2.219  0.1492 -0.3725  0.2851
  147DG      H3 3361   3.505   4.720   1.713 -0.7067  1.7572 -0.0399
  147DG      H4 3362   3.333   4.738   1.769 -0.4257  1.7087  1.5351
  147DG      H5 3363   3.457   4.640   1.859  0.7578  1.3324  2.2865
  147DG      H6 3364   3.609   5.333   2.323 -1.1706  2.3142  0.7348
  147DG      H7 3365   3.654   5.377   2.154 -0.8358 -1.7728 -1.9567
  147DG      H8 3366   3.494   5.400   2.210  0.1738 -0.3437  0.2649
  147DG      O9 3367   3.458   4.844   1.875 -0.4878 -0.6315 -0.0661
  147DG     O10 3368   3.554   5.197   2.185 -0.2657  0.2656 -0.2201
  147DG     C11 3369   3.469   4.960   1.798  0.1225 -0.5663 -0.3587
  147DG     C12 3370   3.678   5.137   2.136 -0.6995  0.3662  0.1391
  147DG     H13 3371   3.365   4.976   1.768 -0.1473  1.6740  1.4151
  147DG     H14 3372   3.535   4.945   1.713 -0.3465  1.0796 -1.0573
  147DG     H15 3373   3.679   5.031   2.162 -0.3965  0.0269 -1.1525
  147DG     H16 3374   3.765   5.183   2.183  2.3733 -2.3020 -2.4534
  147DG     C17 3375   3.515   5.083   1.876  0.4330 -0.8172 -0.8496
  147DG     C18 3376   3.706   5.153   1.992 -0.4659  1.1255  0.5760
  147DG     O19 3377   3.646   5.057   1.905 -0.1622 -0.1770  0.6005
  147DG     H20 3378   3.464   5.092   1.972  2.9602  2.7936  0.3739
  147DG     H21 3379   3.498   5.177   1.823  0.6932 -0.3776 -0.1592
  147DG     H22 3380   3.688   5.252   1.951  0.4665  0.4487 -1.6374
  147DG     H23 3381   3.811   5.124   1.980 -0.2614  2.0301  0.0242
  148DG      C1 3382   1.616   0.915   0.903  0.1236  0.0308 -0.1512
  148DG      C2 3383   1.240   0.777   1.503  0.1808 -0.3657 -0.8598
  148DG      H3 3384   1.638   0.824   0.846  3.5427 -0.2229  1.3044
  148DG      H4 3385   1.703   0.922   0.968 -0.1233 -3.6615  0.8403
  148DG      H5 3386   1.617   0.998   0.832 -0.2897 -1.4696 -1.9936
  148DG      H6 3387   1.152   0.818   1.553 -0.2088 -2.9205  0.7161
  148DG      H7 3388   1.231   0.670   1.524  0.4454  0.0223  1.4272
  148DG      H8 3389   1.332   0.814   1.547 -0.7362  1.3685 -0.2906
  148DG      O9 3390   1.491   0.917   0.970 -0.5825 -0.1412 -0.3866
  148DG     O10 3391   1.249   0.821   1.365 -0.0063  0.1049  0.3132
  148DG     C11 3392   1.384   0.868   0.891  0.4617  0.8718 -0.4048
  148DG     C12 3393   1.139   0.763   1.295  0.1428  0.0923  0.2767
  148DG     H13 3394   1.415   0.766   0.867  2.2475  1.0886  0.8348
  148DG     H14 3395   1.385   0.919   0.795  2.0462 -0.3860 -1.0961
  148DG     H15 3396   1.039   0.762   1.338 -0.7526  1.5421 -1.5995
  148DG     H16 3397   1.171   0.660   1.280 -0.6844 -0.2494  0.8355
  148DG     C17 3398   1.246   0.870   0.959  0.2824  0.3491  0.4817
  148DG     C18 3399   1.134   0.842   1.163 -0.0899 -0.9633  0.6833
  148DG     O19 3400   1.260   0.837   1.095 -0.0460 -0.1589 -0.6259
  148DG     H20 3401   1.165   0.823   0.903  0.4356 -0.3821  0.8485
  148DG     H21 3402   1.213   0.973   0.957 -0.7604  0.0407  1.1881
  148DG     H22 3403   1.045   0.810   1.109 -1.3795  1.5784  1.1668
  148DG     H23 3404   1.113   0.947   1.184 -0.9631 -1.2217  1.1788
  149DG      C1 3405   0.455   3.556   4.949  0.1979  0.3966  0.1506
  149DG      C2 3406   1.144   2.991   4.590  0.3047 -0.5858 -1.3166
  149DG      H3 3407   0.385   3.480   4.984  0.0027 -0.7742 -2.4738
  149DG      H4 3408   0.392   3.641   4.925  1.3028  1.0116 -0.6835
  149DG      H5 3409   0.528   3.574   5.028  0.2853 -1.9869  0.7041
  149DG      H6 3410   1.209   3.012   4.675  0.7030 -0.6546 -1.6004
  149DG      H7 3411   1.098   2.896   4.615 -0.4509  0.2926  0.8538
  149DG      H8 3412   1.218   2.975   4.512  1.6269  0.7599 -0.4146
  149DG      O9 3413   0.521   3.508   4.826  0.0382  0.1209 -0.6940
  149DG     O10 3414   1.052   3.101   4.574 -0.0688 -0.2044  0.0082
  149DG     C11 3415   0.622   3.410   4.852  0.3153 -0.6421 -0.0838
  149DG     C12 3416   0.970   3.140   4.686  0.0531  0.0077 -0.1557
  149DG     H13 3417   0.580   3.315   4.887  1.8368 -1.5107 -0.5204
  149DG     H14 3418   0.691   3.444   4.929 -0.9822 -0.4822  1.0522
  149DG     H15 3419   1.026   3.212   4.745  1.7774 -0.1202 -1.5326
  149DG     H16 3420   0.947   3.063   4.759 -0.4639  0.2728 -0.0351
  149DG     C17 3421   0.701   3.373   4.724 -0.0194 -0.5370  0.1093
  149DG     C18 3422   0.849   3.219   4.636 -0.0056  0.7645  0.1751
  149DG     O19 3423   0.778   3.261   4.749 -0.2429 -0.5575  0.1710
  149DG     H20 3424   0.762   3.455   4.686  0.8538 -0.3204  1.8715
  149DG     H21 3425   0.618   3.360   4.655 -1.4095  1.3868  1.3202
  149DG     H22 3426   0.875   3.307   4.577 -1.0174  1.6887  1.0556
  149DG     H23 3427   0.785   3.164   4.566  2.1719 -0.0257 -1.3296
  150DG      C1 3428   5.009   0.932   2.740 -0.0929  0.4550 -0.5991
  150DG      C2 3429   5.391   0.343   2.329 -0.0759 -0.2135 -0.6023
  150DG      H3 3430   5.081   0.949   2.820 -1.7768 -0.5184  1.2080
  150DG      H4 3431   4.933   0.880   2.798  1.0986 -0.0758  0.5355
  150DG      H5 3432   4.975   1.028   2.700  1.1119  0.4306 -1.7883
  150DG      H6 3433   5.453   0.276   2.269  0.8321 -0.1851  0.2723
  150DG      H7 3434   5.334   0.294   2.407 -1.1912  0.3009 -1.0623
  150DG      H8 3435   5.327   0.398   2.259 -0.0256  2.1105  1.0519
  150DG      O9 3436   5.063   0.859   2.629 -0.0234  0.1071 -0.1074
  150DG     O10 3437   5.479   0.431   2.392  0.6140  0.0656 -0.5594
  150DG     C11 3438   5.174   0.928   2.574 -0.0429 -0.6447 -0.2027
  150DG     C12 3439   5.413   0.523   2.482  0.7091 -0.6276  0.2099
  150DG     H13 3440   5.253   0.951   2.647  1.9493  1.1512 -2.7378
  150DG     H14 3441   5.148   1.029   2.542  1.5921 -0.3251 -0.5981
  150DG     H15 3442   5.497   0.566   2.536 -1.0115  0.3711  2.2714
  150DG     H16 3443   5.360   0.476   2.565  0.3247 -1.0066 -0.2401
  150DG     C17 3444   5.223   0.843   2.460  0.6395  0.7365 -0.0668
  150DG     C18 3445   5.322   0.625   2.415 -0.0088 -0.3692 -0.4578
  150DG     O19 3446   5.268   0.713   2.508 -0.5180  0.0060 -0.2753
  150DG     H20 3447   5.305   0.883   2.401  1.0399 -1.7086 -1.2931
  150DG     H21 3448   5.140   0.831   2.391  1.3848 -0.5560 -0.7717
  150DG     H22 3449   5.368   0.673   2.329  1.6606 -0.1713  0.4926
  150DG     H23 3450   5.228   0.577   2.387 -1.4853  2.2470 -0.2336
  151DG      C1 3451   0.651   5.265   3.485  0.4041  0.1144  0.2759
  151DG      C2 3452   0.322   4.780   4.078 -0.1522 -0.3450 -0.2342
  151DG      H3 3453   0.630   5.318   3.578 -0.0234 -0.2819  0.4085
  151DG      H4 3454   0.671   5.331   3.401  1.3868  0.8246  1.0348
  151DG      H5 3455   0.741   5.204   3.496  2.3511  3.0554  2.1435
  151DG      H6 3456   0.417   4.824   4.110 -1.0664  1.6055 -0.0802
  151DG      H7 3457   0.248   4.806   4.154  1.0682  1.6088  0.3629
  151DG      H8 3458   0.332   4.672   4.069 -0.3310 -0.3209 -0.7397
  151DG      O9 3459   0.527   5.198   3.471 -0.1311  0.3878  0.3507
  151DG     O10 3460   0.277   4.845   3.957  0.3399  0.1322  0.6232
  151DG     C11 3461   0.488   5.125   3.592  0.1584 -0.2085  0.1010
  151DG     C12 3462   0.354   4.825   3.844 -0.1278 -0.0358  0.2609
  151DG     H13 3463   0.425   5.184   3.659 -0.2816 -0.6206  0.0612
  151DG     H14 3464   0.574   5.096   3.652  0.6241 -0.2095 -0.5597
  151DG     H15 3465   0.338   4.720   3.816 -1.1559  0.6488 -1.9828
  151DG     H16 3466   0.462   4.838   3.858  0.0105  1.0766 -1.4528
  151DG     C17 3467   0.410   5.007   3.532  0.9159  0.8414 -1.2948
  151DG     C18 3468   0.320   4.920   3.739  0.0200 -0.3974  0.1795
  151DG     O19 3469   0.413   4.896   3.626  0.6241  0.0400  0.9169
  151DG     H20 3470   0.471   4.972   3.449  2.4058  1.5472 -0.5298
  151DG     H21 3471   0.314   5.048   3.499  1.9424  1.0107 -4.3374
  151DG     H22 3472   0.217   4.900   3.708  0.3691 -2.4545  0.1449
  151DG     H23 3473   0.320   5.020   3.782  3.1177  0.0533 -0.6831
  152DG      C1 3474   0.671   4.148   0.437 -0.2343 -0.4187 -0.6049
  152DG      C2 3475   1.019   3.632   0.200 -0.1401  0.1486  0.3304
  152DG      H3 3476   0.763   4.133   0.493  0.0586 -0.2658 -1.0426
  152DG      H4 3477   0.587   4.143   0.507 -0.0884 -0.1139 -0.4077
  152DG      H5 3478   0.690   4.241   0.384  3.1842 -0.8537 -0.3464
  152DG      H6 3479   1.064   3.712   0.141  0.5527 -1.5449 -1.5424
  152DG      H7 3480   1.081   3.621   0.288 -0.8282 -1.5273  0.6360
  152DG      H8 3481   1.031   3.540   0.142  3.3401  0.5335  0.2093
  152DG      O9 3482   0.670   4.038   0.350 -0.1641  0.0116  0.4123
  152DG     O10 3483   0.880   3.678   0.216 -0.7222  0.2647 -0.5577
  152DG     C11 3484   0.602   4.061   0.230  0.5151 -0.2773 -0.5532
  152DG     C12 3485   0.818   3.678   0.092 -0.4136 -0.1519 -0.0657
  152DG     H13 3486   0.646   4.124   0.152  0.3155 -0.5091 -0.8569
  152DG     H14 3487   0.513   4.122   0.241  2.4598  2.5325  0.6743
  152DG     H15 3488   0.823   3.579   0.045  0.6264  0.6903 -1.8405
  152DG     H16 3489   0.861   3.746   0.018  0.4656 -0.6806 -0.0523
  152DG     C17 3490   0.572   3.931   0.170  0.0668  0.4641  0.2061
  152DG     C18 3491   0.680   3.726   0.097  1.1461  0.4286 -0.4709
  152DG     O19 3492   0.690   3.854   0.166  0.9017 -0.8163 -0.3598
  152DG     H20 3493   0.533   3.952   0.070  0.5809  2.8649  0.4451
  152DG     H21 3494   0.496   3.864   0.210  1.2266 -0.4703  0.9180
  152DG     H22 3495   0.635   3.739  -0.001  0.1606  0.3458 -0.0421
  152DG     H23 3496   0.613   3.664   0.157  0.2702 -0.2873 -2.1327
  153DG      C1 3497   4.174   1.224   4.199  0.0425 -0.2958  0.0155
  153DG      C2 3498   4.523   0.594   3.917  0.9432 -0.1400 -0.1100
  153DG      H3 3499   4.134   1.295   4.127 -2.1275 -0.5259  0.9066
  153DG      H4 3500   4.173   1.274   4.296  3.7160  0.1381 -0.0219
  153DG      H5 3501   4.103   1.141   4.200 -0.4055  0.0642 -1.1707
  153DG      H6 3502   4.622   0.549   3.916 -0.6277 -4.2144  2.4245
  153DG      H7 3503   4.461   0.516   3.961  0.6016 -0.6467 -1.4497
  153DG      H8 3504   4.489   0.614   3.815  0.6113  1.8825  0.3480
  153DG      O9 3505   4.298   1.173   4.168  0.0843  0.1944 -0.0282
  153DG     O10 3506   4.529   0.712   3.998 -0.5126 -0.6912 -0.3807
  153DG     C11 3507   4.351   1.083   4.269 -0.9403 -0.4276  0.0352
  153DG     C12 3508   4.604   0.828   3.952 -0.4234  0.5901  0.4224
  153DG     H13 3509   4.288   0.995   4.279 -1.9914  0.2935 -0.1112
  153DG     H14 3510   4.354   1.130   4.368 -1.5464 -0.5304  0.1039
  153DG     H15 3511   4.555   0.874   3.865  0.8407 -1.5425 -1.5323
  153DG     H16 3512   4.703   0.810   3.912 -0.2670  2.9207 -0.3989
  153DG     C17 3513   4.496   1.036   4.243 -0.4106 -0.2692  0.2407
  153DG     C18 3514   4.622   0.918   4.073  0.2759 -0.0581 -0.0067
  153DG     O19 3515   4.498   0.980   4.112  0.1444  0.2740  0.4634
  153DG     H20 3516   4.530   0.965   4.318  0.8898  0.5820  0.4812
  153DG     H21 3517   4.563   1.122   4.242  0.3942 -0.8711 -1.1942
  153DG     H22 3518   4.657   0.857   4.156  0.8288  1.3667  0.8386
  153DG     H23 3519   4.687   1.005   4.071 -2.5310  2.1771  0.3776
  154DG      C1 3520   2.141   4.300   3.233 -0.3684 -0.6224  0.4169
  154DG      C2 3521   2.852   4.165   3.039  0.5503  0.2777  0.5617
  154DG      H3 3522   2.075   4.253   3.160 -1.1021  0.5099  0.3124
  154DG      H4 3523   2.080   4.390   3.247  1.2240  0.6830 -0.7253
  154DG      H5 3524   2.132   4.228   3.314 -0.5040 -0.8376  0.2130
  154DG      H6 3525   2.775   4.088   3.042  0.4085  0.4317  1.5055
  154DG      H7 3526   2.901   4.179   2.943  1.8824 -1.4501  0.9394
  154DG      H8 3527   2.932   4.139   3.108  0.7337 -1.5792 -0.3114
  154DG      O9 3528   2.273   4.323   3.186  0.1637  0.0792 -0.4966
  154DG     O10 3529   2.800   4.291   3.077 -0.6510  0.2589 -0.6340
  154DG     C11 3530   2.299   4.451   3.142  0.4483  0.0075  0.1522
  154DG     C12 3531   2.781   4.309   3.223  0.6291  0.8485  0.7523
  154DG     H13 3532   2.219   4.519   3.173  0.1171 -1.0448  1.7268
  154DG     H14 3533   2.308   4.460   3.034  0.2958 -0.1391  0.1265
  154DG     H15 3534   2.869   4.325   3.285  1.3343  0.3392 -0.1012
  154DG     H16 3535   2.732   4.217   3.257  0.1106  0.4549 -0.9912
  154DG     C17 3536   2.437   4.488   3.201  0.3601 -1.1151 -0.1289
  154DG     C18 3537   2.663   4.411   3.253 -0.4584  0.0771  0.1501
  154DG     O19 3538   2.540   4.388   3.178  0.2822  0.5263  0.6988
  154DG     H20 3539   2.440   4.521   3.305 -2.4727  0.8625 -0.5624
  154DG     H21 3540   2.476   4.575   3.148 -0.9105 -0.0659  0.5869
  154DG     H22 3541   2.638   4.403   3.359 -0.5834 -0.5210  0.0836
  154DG     H23 3542   2.704   4.511   3.239  2.0585 -0.7796  0.8638
  155DG      C1 3543   5.178   5.148   3.905  0.3409 -0.8322 -0.3686
  155DG      C2 3544   4.897   5.560   3.407  0.6105 -0.4763  0.0127
  155DG      H3 3545   5.170   5.106   4.006  1.9064 -2.6281 -0.9212
  155DG      H4 3546   5.279   5.188   3.904 -0.1165  0.3518 -0.2143
  155DG      H5 3547   5.174   5.076   3.823 -0.1524  1.6112 -2.5965
  155DG      H6 3548   4.951   5.638   3.353  0.9731 -0.4423  0.4148
  155DG      H7 3549   4.885   5.483   3.331 -0.1598 -0.1711 -0.1909
  155DG      H8 3550   4.799   5.604   3.425  0.2708 -2.1352  2.8887
  155DG      O9 3551   5.083   5.249   3.870 -0.1038 -0.4580 -0.5375
  155DG     O10 3552   4.952   5.518   3.532  0.5784  0.2971 -0.2517
  155DG     C11 3553   5.056   5.343   3.975 -1.1404 -0.7122 -0.6104
  155DG     C12 3554   4.976   5.615   3.626  0.4481 -0.6583 -0.0172
  155DG     H13 3555   5.145   5.404   3.984 -0.8762 -1.1466 -0.2073
  155DG     H14 3556   5.046   5.302   4.076 -0.6583 -0.1305 -0.3214
  155DG     H15 3557   4.879   5.663   3.635  0.7069 -0.0430 -0.4081
  155DG     H16 3558   5.036   5.699   3.589 -1.2611 -0.2701 -2.1524
  155DG     C17 3559   4.930   5.415   3.934  0.2851 -0.4640  0.1102
  155DG     C18 3560   5.009   5.560   3.761 -0.0115  0.1136 -0.6347
  155DG     O19 3561   4.932   5.444   3.792  0.3728  0.1165  0.4354
  155DG     H20 3562   4.915   5.501   3.999 -1.5411 -0.1148 -0.7069
  155DG     H21 3563   4.847   5.348   3.956  0.9233 -1.7863 -1.2900
  155DG     H22 3564   5.113   5.530   3.773 -0.2759 -0.0357  2.0598
  155DG     H23 3565   4.992   5.644   3.829 -0.2404 -1.0251  0.7592
  156DG      C1 3566   4.388   2.676   1.051 -0.1376  0.8728  0.4854
  156DG      C2 3567   5.109   2.664   1.124  0.9038  0.0446  0.1195
  156DG      H3 3568   4.375   2.784   1.037 -0.2720  0.5519 -2.7038
  156DG      H4 3569   4.289   2.643   1.082  0.7252 -2.1473  0.2676
  156DG      H5 3570   4.412   2.624   0.958  2.4085  0.6312  1.2104
  156DG      H6 3571   5.179   2.681   1.207 -0.2580  1.7377  0.8237
  156DG      H7 3572   5.154   2.593   1.055 -2.2690 -3.1912  1.0864
  156DG      H8 3573   5.094   2.760   1.074  1.9081  0.8805  1.3310
  156DG      O9 3574   4.488   2.654   1.150  0.8120 -0.1763 -0.1828
  156DG     O10 3575   4.981   2.622   1.171 -0.2753 -0.6747 -0.0685
  156DG     C11 3576   4.499   2.515   1.170  0.1625  0.8413  0.0283
  156DG     C12 3577   4.961   2.488   1.200 -0.3452  0.1044 -0.0508
  156DG     H13 3578   4.512   2.473   1.070 -0.8212  0.4616  0.0557
  156DG     H14 3579   4.403   2.485   1.210  0.6822  0.8997  1.3617
  156DG     H15 3580   5.043   2.441   1.255 -0.1167  0.9216  0.3166
  156DG     H16 3581   4.958   2.428   1.109 -2.9338 -1.8667  1.2071
  156DG     C17 3582   4.607   2.496   1.276  0.0652  0.2336  0.5686
  156DG     C18 3583   4.833   2.467   1.292 -0.3460 -0.0755 -0.3853
  156DG     O19 3584   4.731   2.521   1.215  0.1730  0.2040 -0.3744
  156DG     H20 3585   4.599   2.392   1.304  0.5019  0.3509  1.1567
  156DG     H21 3586   4.588   2.554   1.366  2.5256 -0.7646  1.8270
  156DG     H22 3587   4.815   2.361   1.308 -0.5565  0.2149  1.4441
  156DG     H23 3588   4.856   2.511   1.389  1.6377 -2.1252  0.1600
  157DG      C1 3589   1.032   4.231   5.235  0.3822 -0.8449  0.5828
  157DG      C2 3590   0.686   4.245   4.744  0.2771  0.0733  0.3845
  157DG      H3 3591   0.929   4.200   5.253 -0.2780 -0.1332 -1.6591
  157DG      H4 3592   1.040   4.340   5.239  3.3923 -1.0118  1.8251
  157DG      H5 3593   1.101   4.196   5.312 -0.1505 -0.4871  1.2327
  157DG      H6 3594   0.663   4.187   4.655  0.8177  1.0399 -0.4113
  157DG      H7 3595   0.632   4.208   4.832  2.8152 -0.0454  2.0012
  157DG      H8 3596   0.669   4.350   4.717  1.0742  0.5855  1.7600
  157DG      O9 3597   1.066   4.184   5.104  0.2161 -0.7347  0.4523
  157DG     O10 3598   0.816   4.237   4.782 -0.2162  0.1629 -0.7703
  157DG     C11 3599   1.169   4.262   5.046  0.2643  0.5179  0.1036
  157DG     C12 3600   0.917   4.268   4.692  0.1136  0.2775  0.3019
  157DG     H13 3601   1.260   4.233   5.099  1.1043  1.7434 -0.5878
  157DG     H14 3602   1.160   4.371   5.036  0.3604  0.3848 -1.8181
  157DG     H15 3603   0.890   4.360   4.640  1.3087  1.0738  1.0331
  157DG     H16 3604   0.936   4.180   4.631 -1.5243 -1.4553  2.1158
  157DG     C17 3605   1.211   4.206   4.910 -0.1051  0.4590  0.5734
  157DG     C18 3606   1.049   4.309   4.765 -0.0219  0.6622 -0.2746
  157DG     O19 3607   1.099   4.195   4.828 -0.0074 -0.3440 -0.4715
  157DG     H20 3608   1.251   4.106   4.925  2.0862  1.2608  0.4584
  157DG     H21 3609   1.296   4.263   4.871  1.1952 -1.0504  1.1264
  157DG     H22 3610   1.115   4.338   4.682  1.4833  0.9575  0.9827
  157DG     H23 3611   1.021   4.393   4.827 -1.7806  1.0642 -1.5507
  158DG      C1 3612   2.605   5.427   2.763 -0.0166 -0.3487  0.1641
  158DG      C2 3613   2.653   6.161   2.697 -0.9372 -1.1229  0.3901
  158DG      H3 3614   2.687   5.409   2.693  2.0442 -1.2550  2.6706
  158DG      H4 3615   2.539   5.340   2.758 -1.5326  0.7686  0.1248
  158DG      H5 3616   2.661   5.438   2.856  1.1759  0.0245 -0.5765
  158DG      H6 3617   2.749   6.123   2.663 -0.1617  0.7774  0.3566
  158DG      H7 3618   2.612   6.233   2.627  1.4291  0.2055  0.2847
  158DG      H8 3619   2.675   6.216   2.788  2.0904 -0.4284 -0.6641
  158DG      O9 3620   2.535   5.533   2.709  0.9698 -0.8424  0.0429
  158DG     O10 3621   2.567   6.054   2.710 -0.2373 -0.1334 -0.6664
  158DG     C11 3622   2.417   5.567   2.785  0.0653  0.0280  0.1041
  158DG     C12 3623   2.555   5.978   2.588 -0.0338 -0.4481 -0.1395
  158DG     H13 3624   2.431   5.597   2.888 -1.8089  0.1718  0.3569
  158DG     H14 3625   2.349   5.481   2.786  0.1374 -0.0413  2.0726
  158DG     H15 3626   2.634   5.903   2.580  0.3763 -0.0002 -0.3494
  158DG     H16 3627   2.568   6.041   2.500  1.1438 -1.8937 -1.0478
  158DG     C17 3628   2.346   5.683   2.704  0.1166  0.5753 -0.3895
  158DG     C18 3629   2.435   5.890   2.585  0.2558 -0.6247  0.4839
  158DG     O19 3630   2.438   5.793   2.694 -0.2655 -0.1175 -0.9660
  158DG     H20 3631   2.248   5.723   2.732  0.2984  1.1964 -0.6200
  158DG     H21 3632   2.324   5.640   2.606 -0.5522  1.3497 -0.5892
  158DG     H22 3633   2.341   5.943   2.568 -1.1954 -3.0799  0.3932
  158DG     H23 3634   2.437   5.840   2.489  0.7475  1.1516 -0.4775
  159DG      C1 3635   3.842   3.160   2.738  0.3196 -0.3103 -0.8005
  159DG      C2 3636   3.096   2.819   2.678 -0.3802  0.1023 -0.1174
  159DG      H3 3637   3.920   3.131   2.668  3.4981  2.3216  1.3580
  159DG      H4 3638   3.873   3.126   2.837  1.3394 -3.1045 -1.9846
  159DG      H5 3639   3.829   3.268   2.739  0.4218 -0.2985 -0.0200
  159DG      H6 3640   2.995   2.790   2.709 -0.7821  1.2981 -0.2644
  159DG      H7 3641   3.132   2.755   2.597  0.6489 -1.0692  1.2292
  159DG      H8 3642   3.151   2.799   2.769  0.2438 -2.3439 -0.9580
  159DG      O9 3643   3.730   3.087   2.704  0.4859  0.2738 -0.2742
  159DG     O10 3644   3.087   2.954   2.642  0.0625 -0.0486 -0.4024
  159DG     C11 3645   3.668   3.130   2.579 -0.3213  0.2911  0.5617
  159DG     C12 3646   3.204   3.020   2.673 -0.2891 -0.1092 -0.3121
  159DG     H13 3647   3.736   3.128   2.494 -0.7724 -0.9491  0.2049
  159DG     H14 3648   3.636   3.234   2.586 -1.6088 -0.1346  1.3785
  159DG     H15 3649   3.239   3.001   2.775  0.9677  3.3275  0.0313
  159DG     H16 3650   3.169   3.123   2.675  0.0518  0.0988 -2.5568
  159DG     C17 3651   3.546   3.053   2.535 -0.5154 -0.4174 -0.3589
  159DG     C18 3652   3.316   3.008   2.569 -0.1513  0.2355  0.7780
  159DG     O19 3653   3.430   3.078   2.617 -0.3843  0.1803 -0.0364
  159DG     H20 3654   3.568   2.946   2.534 -0.6861 -0.4557 -1.0353
  159DG     H21 3655   3.521   3.092   2.436 -3.4485 -0.1011  0.4149
  159DG     H22 3656   3.330   2.903   2.545  0.8008  0.6985 -0.7951
  159DG     H23 3657   3.288   3.054   2.475  0.4954  0.5291  0.7192
  160DG      C1 3658   1.017   0.464   1.676  0.2814 -0.8114 -0.1155
  160DG      C2 3659   0.341   0.312   1.138  0.4301  0.0666  0.4190
  160DG      H3 3660   1.110   0.518   1.661  0.4767  0.0458  3.3790
  160DG      H4 3661   1.059   0.369   1.709  0.5843  0.1465  2.4397
  160DG      H5 3662   0.983   0.528   1.757  0.1276 -0.8875 -0.1177
  160DG      H6 3663   0.310   0.376   1.220  1.0756 -0.9042  1.4441
  160DG      H7 3664   0.281   0.338   1.050 -0.4981 -2.1142  0.3365
  160DG      H8 3665   0.322   0.205   1.152 -1.4497  0.0163 -1.8822
  160DG      O9 3666   0.918   0.474   1.573  0.1812  0.3854 -0.0458
  160DG     O10 3667   0.477   0.332   1.103  0.5266 -0.0423 -0.4111
  160DG     C11 3668   0.944   0.383   1.470 -0.4953  0.9978 -0.8957
  160DG     C12 3669   0.555   0.333   1.222  0.1871 -0.1962  1.0182
  160DG     H13 3670   0.903   0.286   1.497  0.8977 -0.0947 -2.5034
  160DG     H14 3671   1.049   0.359   1.454 -0.4734  1.6632 -1.8784
  160DG     H15 3672   0.563   0.229   1.254 -2.1593 -0.3883  1.1153
  160DG     H16 3673   0.511   0.385   1.307 -1.8032  0.1879 -0.2015
  160DG     C17 3674   0.884   0.420   1.332  0.2882  0.3814 -0.3773
  160DG     C18 3675   0.696   0.385   1.204 -0.0205  0.0511 -0.0308
  160DG     O19 3676   0.752   0.377   1.328  0.1409 -0.2686  0.3661
  160DG     H20 3677   0.925   0.364   1.247 -0.5043  1.1666 -1.3077
  160DG     H21 3678   0.888   0.527   1.312 -3.2529  1.0114  1.5316
  160DG     H22 3679   0.755   0.326   1.133 -0.0179  0.6157 -0.5001
  160DG     H23 3680   0.691   0.492   1.184 -0.0667  0.1676  0.5923
  161DG      C1 3681   4.080   3.216   0.185  0.2282 -0.4614  0.3574
  161DG      C2 3682   4.469   2.832   0.606 -0.4499  0.1845 -0.2329
  161DG      H3 3683   3.997   3.273   0.226  0.2036  2.8160 -3.5355
  161DG      H4 3684   4.065   3.224   0.077 -2.1331 -1.9898  0.5020
  161DG      H5 3685   4.180   3.254   0.207  0.4474 -0.4248 -0.6464
  161DG      H6 3686   4.461   2.940   0.618 -0.6340  0.1485 -0.0362
  161DG      H7 3687   4.399   2.777   0.669 -2.3901  1.0185 -1.5699
  161DG      H8 3688   4.567   2.790   0.629 -0.5218 -0.6253 -1.3289
  161DG      O9 3689   4.066   3.076   0.207  0.1377  0.2570  0.8563
  161DG     O10 3690   4.441   2.791   0.469 -0.0618  0.3007 -0.4189
  161DG     C11 3691   4.098   3.035   0.338 -0.8349  0.0950  1.1795
  161DG     C12 3692   4.515   2.862   0.371  0.0628 -0.4474  0.4072
  161DG     H13 3693   4.010   2.978   0.368 -1.8946  0.5292 -0.9098
  161DG     H14 3694   4.110   3.110   0.416  1.2251  1.7418 -0.5844
  161DG     H15 3695   4.499   2.812   0.276 -1.0652 -1.6566  1.1866
  161DG     H16 3696   4.623   2.856   0.385  0.1985 -0.2484 -0.5092
  161DG     C17 3697   4.227   2.952   0.349  0.3734 -0.4537  0.1160
  161DG     C18 3698   4.459   3.007   0.340  0.5852 -0.1248 -0.2711
  161DG     O19 3699   4.332   2.990   0.265 -0.3082 -0.0669  0.4312
  161DG     H20 3700   4.214   2.845   0.334  0.7442 -0.3094 -1.4445
  161DG     H21 3701   4.253   2.961   0.455 -0.9864 -1.2385  0.5428
  161DG     H22 3702   4.453   3.074   0.425 -0.5012 -0.4995 -0.0472
  161DG     H23 3703   4.523   3.064   0.271  0.3744  0.9530  0.3984
  162DG      C1 3704   3.048   1.121   0.221 -0.5990  0.7369 -0.3949
  162DG      C2 3705   3.306   0.866   0.757 -0.0559 -0.4589 -0.1398
  162DG      H3 3706   2.961   1.067   0.258 -1.0793  0.7746 -1.4255
  162DG      H4 3707   3.069   1.110   0.115  0.4703 -2.5586  0.0416
  162DG      H5 3708   3.033   1.228   0.233  0.2286  0.8260 -0.1340
  162DG      H6 3709   3.258   0.964   0.760 -1.5198 -1.0817 -1.6705
  162DG      H7 3710   3.256   0.813   0.676  1.4397  2.9486 -3.5980
  162DG      H8 3711   3.277   0.821   0.852  2.5851  1.2309  1.5816
  162DG      O9 3712   3.163   1.071   0.281  0.7432 -0.3157 -0.0397
  162DG     O10 3713   3.450   0.872   0.765 -0.2835 -0.4267  0.2824
  162DG     C11 3714   3.186   0.931   0.280 -0.0936  0.5017  0.2743
  162DG     C12 3715   3.510   0.967   0.674 -0.3360 -0.0839 -0.8570
  162DG     H13 3716   3.174   0.893   0.178 -1.2063 -1.4048  1.0506
  162DG     H14 3717   3.107   0.876   0.331  0.4114  1.0210  1.6641
  162DG     H15 3718   3.615   0.959   0.703 -1.1334 -1.3459  2.1429
  162DG     H16 3719   3.477   1.066   0.706 -0.2046 -0.6215  1.1016
  162DG     C17 3720   3.317   0.904   0.349 -0.6759  0.6931  0.2222
  162DG     C18 3721   3.480   0.937   0.521 -0.5072 -0.2427  0.6294
  162DG     O19 3722   3.341   0.950   0.486 -0.7691 -0.4152 -0.1135
  162DG     H20 3723   3.392   0.947   0.283 -1.5179  1.8474 -0.0249
  162DG     H21 3724   3.330   0.796   0.350 -1.0280  0.6482  0.6423
  162DG     H22 3725   3.530   1.018   0.468 -1.3415  0.4003  0.7948
  162DG     H23 3726   3.518   0.838   0.498 -0.4865 -0.0271 -0.2981
  163DG      C1 3727   1.985   5.480   1.117  0.1541  0.4200  0.2207
  163DG      C2 3728   1.772   5.607   1.767 -0.2728  0.2907 -0.0427
  163DG      H3 3729   2.019   5.400   1.052  0.0737 -0.1679  0.8831
  163DG      H4 3730   2.032   5.574   1.088 -0.7719  0.8198 -0.0110
  163DG      H5 3731   1.881   5.505   1.097  0.3264  0.4963 -0.6184
  163DG      H6 3732   1.714   5.674   1.703  1.8710  1.7538 -0.5530
  163DG      H7 3733   1.708   5.557   1.841 -0.9434  1.1430 -0.0357
  163DG      H8 3734   1.844   5.676   1.810 -0.7577  1.3689 -0.9164
  163DG      O9 3735   1.991   5.456   1.255 -0.2316  0.1740  0.0033
  163DG     O10 3736   1.845   5.532   1.681 -0.3764  0.4003  0.5403
  163DG     C11 3737   2.121   5.439   1.304  0.0412  0.1374 -0.6588
  163DG     C12 3738   1.951   5.462   1.751  0.1264 -0.6215  0.4005
  163DG     H13 3739   2.161   5.536   1.334 -3.4603  1.3681  0.5620
  163DG     H14 3740   2.179   5.381   1.233  1.9693 -0.1794  1.0600
  163DG     H15 3741   1.905   5.403   1.831  1.1862 -1.2465  0.5644
  163DG     H16 3742   2.021   5.537   1.788 -1.8851  1.2182  0.6654
  163DG     C17 3743   2.115   5.352   1.432 -0.5035  0.9540  0.4848
  163DG     C18 3744   2.021   5.359   1.650 -0.0590  0.3027 -0.3602
  163DG     O19 3745   2.052   5.427   1.531  0.0474 -0.3136 -0.2507
  163DG     H20 3746   2.213   5.319   1.466 -0.7720  0.5300  0.8587
  163DG     H21 3747   2.057   5.261   1.410  0.1052  0.4117  1.0874
  163DG     H22 3748   2.113   5.317   1.690  0.4148  2.4300  0.9186
  163DG     H23 3749   1.952   5.278   1.624  0.6550 -0.3107 -0.3594
  164DG      C1 3750   3.317   0.456   1.215 -0.0502 -0.1258  0.1231
  164DG      C2 3751   3.416   1.034   1.527  0.1252 -0.3854  0.0886
  164DG      H3 3752   3.387   0.480   1.136  2.5516 -2.2251  1.6180
  164DG      H4 3753   3.243   0.386   1.177 -0.6980  1.7498 -2.3344
  164DG      H5 3754   3.383   0.399   1.281 -1.4357 -0.9140  0.8855
  164DG      H6 3755   3.387   1.078   1.432  0.8933  0.0935  0.0639
  164DG      H7 3756   3.410   1.115   1.600 -2.0820  0.6431 -1.1539
  164DG      H8 3757   3.523   1.013   1.515  0.2274  0.8380 -1.3805
  164DG      O9 3758   3.263   0.563   1.289  0.1958 -0.1732 -0.2238
  164DG     O10 3759   3.349   0.918   1.580 -0.1006 -0.4452  0.1842
  164DG     C11 3760   3.188   0.648   1.209  0.7921  0.1759 -0.1755
  164DG     C12 3761   3.205   0.931   1.589 -0.0944  0.1176  0.7284
  164DG     H13 3762   3.125   0.584   1.147 -1.3720  0.7457  1.3136
  164DG     H14 3763   3.246   0.719   1.150 -1.5163  1.6814 -0.7835
  164DG     H15 3764   3.178   1.034   1.609  0.8927  0.4494  0.3962
  164DG     H16 3765   3.161   0.865   1.664  0.5456 -0.6359  0.4577
  164DG     C17 3766   3.100   0.736   1.301  0.4406  0.1635 -0.3451
  164DG     C18 3767   3.141   0.902   1.457 -0.2082  0.2216  0.0915
  164DG     O19 3768   3.184   0.784   1.405 -0.7443 -0.1620  0.0297
  164DG     H20 3769   3.018   0.688   1.354  1.0812  0.9593  1.4370
  164DG     H21 3770   3.054   0.812   1.239  1.0357  0.4836 -0.4049
  164DG     H22 3771   3.033   0.909   1.468  0.0752  2.7837  2.2216
  164DG     H23 3772   3.157   0.984   1.386  3.6922  0.2291  0.7661
  165DG      C1 3773   4.839   4.460   4.563 -0.2352 -0.2018  0.5995
  165DG      C2 3774   4.288   4.131   4.280  0.4073  0.2134  0.2723
  165DG      H3 3775   4.896   4.547   4.532 -2.0692  0.9302  0.2402
  165DG      H4 3776   4.909   4.382   4.592  3.0114  2.0883 -0.4077
  165DG      H5 3777   4.783   4.493   4.651 -0.6195 -1.2448  0.7573
  165DG      H6 3778   4.224   4.112   4.194  0.2852  2.5793 -0.2061
  165DG      H7 3779   4.358   4.047   4.284  0.1497  0.0384  1.6505
  165DG      H8 3780   4.223   4.121   4.367  1.0553 -0.8138  0.6627
  165DG      O9 3781   4.742   4.409   4.476  0.2912 -0.3947  0.2749
  165DG     O10 3782   4.344   4.256   4.260  0.8574 -0.5007  0.2666
  165DG     C11 3783   4.786   4.323   4.378 -0.1475 -0.2237 -0.8452
  165DG     C12 3784   4.423   4.265   4.146 -0.0006  0.4479 -0.3803
  165DG     H13 3785   4.827   4.231   4.421 -0.3777  0.5163  1.0794
  165DG     H14 3786   4.858   4.377   4.317  1.0696  0.6586  1.2757
  165DG     H15 3787   4.351   4.268   4.063 -0.9870  2.4233  0.4786
  165DG     H16 3788   4.490   4.180   4.133  0.5139  0.7157  0.4370
  165DG     C17 3789   4.669   4.291   4.289  0.7178  0.0774 -0.4692
  165DG     C18 3790   4.504   4.396   4.150  0.3431  0.2714 -0.0111
  165DG     O19 3791   4.587   4.410   4.259 -0.3469  0.0842 -0.2027
  165DG     H20 3792   4.610   4.226   4.355 -0.3177  0.4397 -1.0234
  165DG     H21 3793   4.703   4.238   4.200  0.6232 -1.0628  0.1443
  165DG     H22 3794   4.558   4.390   4.056 -0.6432  1.8134 -0.7169
  165DG     H23 3795   4.432   4.478   4.153  2.2025  1.9829  0.0946
  166DG      C1 3796   2.512   0.683   3.871  0.3475  0.0881  0.1619
  166DG      C2 3797   2.591   1.400   4.058  0.4394 -0.6304 -0.4652
  166DG      H3 3798   2.603   0.645   3.916 -0.1742  1.3217  2.3949
  166DG      H4 3799   2.497   0.636   3.774  1.5536  2.0340 -1.0442
  166DG      H5 3800   2.430   0.660   3.939 -0.1969  0.6284 -0.2924
  166DG      H6 3801   2.672   1.470   4.079 -0.7281  0.9505 -1.0450
  166DG      H7 3802   2.558   1.424   3.957  3.0295  1.2325 -0.9824
  166DG      H8 3803   2.507   1.417   4.126  1.5051  0.8977  0.5281
  166DG      O9 3804   2.522   0.822   3.844  0.9584  0.1353 -0.0495
  166DG     O10 3805   2.626   1.268   4.039 -0.3015  0.6273 -0.3030
  166DG     C11 3806   2.631   0.852   3.756 -0.1874 -0.5490 -0.0090
  166DG     C12 3807   2.739   1.247   3.954 -0.0031  0.0329  0.5605
  166DG     H13 3808   2.633   0.773   3.680 -1.2747 -1.6643  1.0676
  166DG     H14 3809   2.719   0.844   3.819  0.3964 -0.1937 -0.7731
  166DG     H15 3810   2.838   1.260   3.997  0.8013  2.2755 -1.7134
  166DG     H16 3811   2.742   1.323   3.876 -1.3728 -0.6443 -0.1910
  166DG     C17 3812   2.620   0.999   3.698  0.1673  0.0087 -0.2721
  166DG     C18 3813   2.729   1.107   3.885 -0.3970  0.2890  0.7890
  166DG     O19 3814   2.618   1.103   3.797 -0.1209  0.1316  0.7735
  166DG     H20 3815   2.525   0.997   3.645 -0.9476 -1.9875  1.6135
  166DG     H21 3816   2.700   1.013   3.625  1.0396 -2.0186  0.2129
  166DG     H22 3817   2.821   1.085   3.832 -1.1106 -0.5750 -0.1331
  166DG     H23 3818   2.717   1.033   3.964 -0.7027 -0.8787 -0.3246
  167DG      C1 3819   5.494   1.661   4.706  0.2370  0.2835  0.6523
  167DG      C2 3820   4.866   1.449   4.747  0.0248  0.5412 -0.6830
  167DG      H3 3821   5.465   1.766   4.697 -0.7792 -0.1117 -1.2117
  167DG      H4 3822   5.602   1.658   4.693  0.0373  1.9725 -1.9581
  167DG      H5 3823   5.472   1.631   4.809  0.9247 -0.7388  0.5107
  167DG      H6 3824   4.789   1.376   4.723 -0.4888  0.3944  1.2343
  167DG      H7 3825   4.896   1.431   4.850  2.2466  0.9446 -1.2064
  167DG      H8 3826   4.832   1.553   4.745 -0.2007  0.4884  0.0377
  167DG      O9 3827   5.402   1.578   4.626  0.4975  0.3817 -0.8511
  167DG     O10 3828   4.979   1.438   4.661  0.3654 -0.3736  0.3550
  167DG     C11 3829   5.458   1.447   4.611  0.4513 -1.3867 -0.1406
  167DG     C12 3830   5.003   1.301   4.616 -0.1709  0.1193 -0.3539
  167DG     H13 3831   5.452   1.401   4.710 -2.5856  1.0381  0.9755
  167DG     H14 3832   5.560   1.455   4.574 -0.1144  1.4904 -1.2969
  167DG     H15 3833   4.927   1.273   4.544  0.2391 -2.2398  0.0593
  167DG     H16 3834   5.002   1.227   4.696 -0.4040  1.1368  0.6229
  167DG     C17 3835   5.360   1.362   4.516 -0.4019 -1.0603 -0.0318
  167DG     C18 3836   5.135   1.273   4.546 -0.3703  0.0445  0.5138
  167DG     O19 3837   5.241   1.361   4.592 -0.3123  0.9822 -0.5979
  167DG     H20 3838   5.412   1.267   4.503  1.9804 -0.1321  1.9083
  167DG     H21 3839   5.355   1.416   4.422  1.4465 -1.2393 -0.2736
  167DG     H22 3840   5.160   1.169   4.565 -0.8492 -0.3946 -1.0798
  167DG     H23 3841   5.122   1.284   4.438  0.8487 -0.1399  0.3244
  168DG      C1 3842   2.526   3.133   1.311  0.3700 -0.1676 -0.2955
  168DG      C2 3843   2.589   3.087   0.667  0.0068  0.1759 -0.3060
  168DG      H3 3844   2.590   3.046   1.295  0.7944  0.2025 -0.6262
  168DG      H4 3845   2.456   3.098   1.387 -0.4261  1.6101 -0.1514
  168DG      H5 3846   2.592   3.210   1.352  0.5101 -0.0260 -0.7786
  168DG      H6 3847   2.556   3.102   0.565 -1.0583  0.2442  0.0309
  168DG      H7 3848   2.694   3.114   0.674  0.0507 -0.0495 -0.0779
  168DG      H8 3849   2.599   2.982   0.693  1.7886  0.4448  0.1767
  168DG      O9 3850   2.458   3.165   1.196  0.5062 -0.1328  0.3909
  168DG     O10 3851   2.500   3.144   0.764 -0.0079  0.2701  0.1623
  168DG     C11 3852   2.410   3.300   1.195  0.2021  1.0508  0.8300
  168DG     C12 3853   2.438   3.264   0.727  0.2394  0.3238 -0.1621
  168DG     H13 3854   2.494   3.370   1.193  0.7880  0.3367  0.2605
  168DG     H14 3855   2.356   3.330   1.285  0.4319 -1.5260  1.9148
  168DG     H15 3856   2.391   3.257   0.629 -1.3860 -0.3774  0.6290
  168DG     H16 3857   2.515   3.340   0.722 -0.9137  1.4503 -1.5578
  168DG     C17 3858   2.316   3.317   1.073  0.4424  1.3815  0.4807
  168DG     C18 3859   2.333   3.298   0.835 -0.1062 -0.1252 -0.7521
  168DG     O19 3860   2.395   3.279   0.960  0.1468  0.0425  0.2428
  168DG     H20 3861   2.268   3.415   1.076  0.0339  1.1583  1.4417
  168DG     H21 3862   2.234   3.246   1.080 -0.0592  1.6627 -1.7416
  168DG     H22 3863   2.295   3.400   0.829 -0.6097 -0.3376 -1.3424
  168DG     H23 3864   2.253   3.224   0.832  0.7794 -1.0873 -1.1404
  169DG      C1 3865   0.009   1.807   2.238  0.2880 -1.1553  0.8835
  169DG      C2 3866  -0.127   1.996   1.664  0.0901 -0.6003  0.2581
  169DG      H3 3867   0.093   1.856   2.186 -1.6803  2.2774  0.6148
  169DG      H4 3868   0.046   1.729   2.303  0.1286 -1.2195  0.8974
  169DG      H5 3869  -0.032   1.886   2.301  1.9774  0.7002 -0.2120
  169DG      H6 3870  -0.037   1.979   1.723  1.8645  2.6787 -1.2484
  169DG      H7 3871  -0.098   2.025   1.563  0.7316  0.2954  0.6809
  169DG      H8 3872  -0.160   2.088   1.711  1.4736 -1.3207  2.8368
  169DG      O9 3873  -0.098   1.768   2.146  0.0042 -0.0289 -0.1166
  169DG     O10 3874  -0.237   1.906   1.686 -0.0044  0.0058  0.4667
  169DG     C11 3875  -0.045   1.682   2.054  0.4544  0.3721 -0.0489
  169DG     C12 3876  -0.206   1.780   1.638 -0.7731 -0.0505  0.4653
  169DG     H13 3877  -0.003   1.596   2.108 -2.2476 -1.6444 -0.9329
  169DG     H14 3878   0.034   1.727   1.995  1.4122  1.6689  2.0875
  169DG     H15 3879  -0.162   1.785   1.539 -2.2943  2.9373 -0.1641
  169DG     H16 3880  -0.296   1.722   1.617 -1.8660  1.3773  0.9931
  169DG     C17 3881  -0.160   1.621   1.973 -0.3417  0.8402  0.0080
  169DG     C18 3882  -0.135   1.701   1.747 -0.5005  1.2478  0.7938
  169DG     O19 3883  -0.208   1.702   1.868 -0.5191  0.5999  0.3613
  169DG     H20 3884  -0.240   1.597   2.044  0.1026  0.5676  0.4299
  169DG     H21 3885  -0.134   1.521   1.938 -1.1475  1.0256 -1.1371
  169DG     H22 3886  -0.119   1.601   1.707 -0.4100  1.0354  1.3527
  169DG     H23 3887  -0.033   1.736   1.758  0.1187 -0.0670 -0.3712
  170DG      C1 3888   3.793   5.167   3.000 -0.5053 -0.5587  0.3437
  170DG      C2 3889   4.231   4.902   3.424  0.2435 -0.2247 -0.8184
  170DG      H3 3890   3.716   5.113   3.055 -2.1956  0.8943 -0.5137
  170DG      H4 3891   3.760   5.155   2.897  2.8127 -0.7704 -0.8199
  170DG      H5 3892   3.778   5.272   3.024  2.0426 -0.0871  0.2456
  170DG      H6 3893   4.330   4.859   3.442  0.0246 -0.8075 -0.9846
  170DG      H7 3894   4.220   4.983   3.497 -0.9514 -0.5312 -0.6453
  170DG      H8 3895   4.154   4.827   3.434 -0.2862  0.3301 -0.6891
  170DG      O9 3896   3.925   5.126   3.032 -0.2319 -0.4103  0.0627
  170DG     O10 3897   4.230   4.966   3.297 -0.6483  0.1133 -0.0523
  170DG     C11 3898   4.011   5.200   2.942 -0.3367 -0.0607 -0.4603
  170DG     C12 3899   4.314   5.083   3.291  0.0652 -0.7812  0.1971
  170DG     H13 3900   3.982   5.304   2.947 -2.6976 -0.7062  0.6747
  170DG     H14 3901   3.982   5.162   2.844 -0.1559 -1.8523  0.1319
  170DG     H15 3902   4.419   5.079   3.320  1.8343  1.5777 -4.7660
  170DG     H16 3903   4.266   5.166   3.341 -2.0319 -1.6355 -0.3044
  170DG     C17 3904   4.158   5.165   2.963 -0.4901  0.5940 -0.2583
  170DG     C18 3905   4.319   5.125   3.140 -0.1616  0.1737 -0.1971
  170DG     O19 3906   4.185   5.156   3.104  0.0764  0.1939 -0.1124
  170DG     H20 3907   4.211   5.247   2.916  1.3130 -1.0948 -1.3485
  170DG     H21 3908   4.173   5.066   2.921 -0.8847  0.7319 -0.7283
  170DG     H22 3909   4.373   5.220   3.134  0.0674  0.0397 -0.2873
  170DG     H23 3910   4.356   5.042   3.079 -3.3132 -1.8415  0.4283
  171DG      C1 3911   2.579   2.190   3.589  0.1285  0.0381 -0.4868
  171DG      C2 3912   1.944   2.137   4.023  0.1054  0.3232 -0.3257
  171DG      H3 3913   2.603   2.282   3.642 -2.0448 -0.2122  1.0890
  171DG      H4 3914   2.615   2.189   3.486  1.0698  0.7794 -0.1732
  171DG      H5 3915   2.609   2.097   3.639 -0.8821  0.7364  1.5419
  171DG      H6 3916   1.902   2.036   4.026 -0.4294  0.5637  0.2841
  171DG      H7 3917   2.018   2.138   4.103  1.0748  1.1888 -1.1921
  171DG      H8 3918   1.854   2.195   4.042 -0.5354 -0.7620  0.0069
  171DG      O9 3919   2.436   2.207   3.577 -0.5530 -0.2809 -0.1472
  171DG     O10 3920   1.982   2.172   3.889  0.2862  0.3692  0.3630
  171DG     C11 3921   2.384   2.102   3.493 -0.1215 -0.3824 -0.2790
  171DG     C12 3922   2.094   2.111   3.845 -0.0534 -0.0069  0.1402
  171DG     H13 3923   2.423   2.007   3.530  1.1141  0.2171  0.0034
  171DG     H14 3924   2.428   2.113   3.394  0.4087  1.4053  0.1282
  171DG     H15 3925   2.121   2.012   3.882 -0.6111 -0.0804  0.3633
  171DG     H16 3926   2.185   2.163   3.875 -0.1349 -0.7502  1.7678
  171DG     C17 3927   2.235   2.105   3.509 -0.0217  0.4162 -0.7259
  171DG     C18 3928   2.093   2.112   3.696  0.4617 -0.1302 -0.7939
  171DG     O19 3929   2.216   2.070   3.644  0.7595  0.5200  0.4701
  171DG     H20 3930   2.187   2.025   3.452  1.2008  0.3850 -1.7709
  171DG     H21 3931   2.204   2.204   3.477  1.5170  1.8831  1.9429
  171DG     H22 3932   2.005   2.056   3.666 -0.8387  0.9151  0.8936
  171DG     H23 3933   2.067   2.215   3.671  0.6614  0.1180 -0.0055
  172DG      C1 3934   1.545   3.410   1.413 -0.8916  0.2748  0.4217
  172DG      C2 3935   1.026   2.977   1.048  0.3000  0.4848  0.3362
  172DG      H3 3936   1.648   3.444   1.401  0.5511 -2.7967  2.7602
  172DG      H4 3937   1.532   3.389   1.519  1.3661  2.3851  1.2205
  172DG      H5 3938   1.479   3.492   1.385 -0.6318  0.5337  0.5586
  172DG      H6 3939   0.979   3.027   0.963  0.2568  0.7778  0.5306
  172DG      H7 3940   1.012   2.870   1.037  1.8263  0.3822 -0.9866
  172DG      H8 3941   0.978   3.014   1.139  0.5861  2.6948 -0.3611
  172DG      O9 3942   1.521   3.300   1.327 -0.2233 -0.0049 -0.4054
  172DG     O10 3943   1.160   3.007   1.048  0.0255 -0.1982  0.2867
  172DG     C11 3944   1.544   3.324   1.190  0.8959  0.0771 -0.0644
  172DG     C12 3945   1.175   3.146   1.036  0.4720  0.1907 -0.9400
  172DG     H13 3946   1.640   3.373   1.173 -0.1348  2.8993  1.6273
  172DG     H14 3947   1.460   3.387   1.161 -0.0321 -1.5575 -1.0513
  172DG     H15 3948   1.124   3.188   1.123  0.6336  0.3113 -0.9039
  172DG     H16 3949   1.121   3.185   0.950  0.0602 -0.7242 -1.1120
  172DG     C17 3950   1.540   3.189   1.120 -0.2417 -0.8709 -0.1451
  172DG     C18 3951   1.322   3.181   1.022  0.3662 -0.4624 -0.0041
  172DG     O19 3952   1.408   3.138   1.121  0.0817  0.4034 -0.0801
  172DG     H20 3953   1.618   3.123   1.159 -0.3574 -0.6046  0.5552
  172DG     H21 3954   1.571   3.215   1.019  0.8796  2.1795  0.8765
  172DG     H22 3955   1.359   3.143   0.926  0.3211  1.2874 -0.7688
  172DG     H23 3956   1.323   3.289   1.004  0.5087  0.2358  3.4977
  173DG      C1 3957   4.037   5.341   3.411  0.3401 -0.2059  0.0660
  173DG      C2 3958   3.989   4.692   3.161 -0.3386 -0.4132 -0.9007
  173DG      H3 3959   4.090   5.375   3.322  0.2840  1.7021  0.7352
  173DG      H4 3960   4.107   5.319   3.492  0.0069  1.0312  0.7066
  173DG      H5 3961   3.994   5.435   3.443 -0.0280  0.1169 -1.3304
  173DG      H6 3962   3.918   4.615   3.131  0.0481 -1.1806  0.0697
  173DG      H7 3963   4.038   4.744   3.079 -1.1723  3.0000  0.5898
  173DG      H8 3964   4.068   4.648   3.223 -1.7342 -3.3607 -1.0233
  173DG      O9 3965   3.945   5.233   3.390 -0.7060 -0.1302  0.4350
  173DG     O10 3966   3.933   4.800   3.237 -0.3414  0.2136 -0.1239
  173DG     C11 3967   3.883   5.200   3.513  0.7459  0.4337  0.0168
  173DG     C12 3968   3.855   4.765   3.350 -0.3312 -0.0384  0.1703
  173DG     H13 3969   3.837   5.284   3.565 -1.7858 -0.6493 -0.3367
  173DG     H14 3970   3.954   5.150   3.579  2.1922 -0.7389 -2.2801
  173DG     H15 3971   3.919   4.761   3.439  1.4065  2.1469 -0.8916
  173DG     H16 3972   3.803   4.669   3.341 -3.1546  1.1293  2.4457
  173DG     C17 3973   3.769   5.094   3.484  0.1240 -0.0446  0.8144
  173DG     C18 3974   3.760   4.881   3.375 -0.7232  1.4422 -0.3418
  173DG     O19 3975   3.842   4.995   3.408 -0.2184  0.2329  0.1918
  173DG     H20 3976   3.684   5.129   3.425 -0.1020 -3.7337 -1.3165
  173DG     H21 3977   3.745   5.041   3.576  0.4251 -0.1519  0.8324
  173DG     H22 3978   3.686   4.909   3.300 -2.6481  2.3777  1.7868
  173DG     H23 3979   3.704   4.848   3.463  0.1624 -0.9379 -0.5979
  174DG      C1 3980   2.387   3.795   3.657 -0.1041 -0.0548 -0.2061
  174DG      C2 3981   2.888   4.105   3.762  0.6132 -0.0944  0.5720
  174DG      H3 3982   2.460   3.807   3.737 -1.0338 -0.8672  0.8069
  174DG      H4 3983   2.433   3.835   3.567  0.9034  0.5381  0.5532
  174DG      H5 3984   2.357   3.691   3.646 -1.9903  0.3912  0.3009
  174DG      H6 3985   2.950   4.118   3.673 -0.8301 -0.1599 -0.4693
  174DG      H7 3986   2.882   4.192   3.827 -0.5485  1.0506 -1.0156
  174DG      H8 3987   2.913   4.021   3.828 -0.6815 -2.3045 -1.5990
  174DG      O9 3988   2.268   3.865   3.684  0.1378  0.3088  0.8068
  174DG     O10 3989   2.756   4.078   3.722 -0.0959 -0.1264 -0.0121
  174DG     C11 3990   2.275   3.999   3.723 -0.7892 -0.1300 -0.5101
  174DG     C12 3991   2.718   4.183   3.630 -0.1853 -0.0283 -0.0303
  174DG     H13 3992   2.299   3.995   3.829 -3.1325 -0.9680  0.0606
  174DG     H14 3993   2.173   4.039   3.724 -0.3856  0.9099  0.0619
  174DG     H15 3994   2.784   4.194   3.544 -0.8295  0.8048 -0.4370
  174DG     H16 3995   2.719   4.282   3.677  1.6476  0.9098 -1.8797
  174DG     C17 3996   2.351   4.092   3.631  0.5251 -0.0857  0.0158
  174DG     C18 3997   2.573   4.166   3.580 -0.0394  0.2416  0.0537
  174DG     O19 3998   2.485   4.118   3.680 -0.8621  0.2830  0.0198
  174DG     H20 3999   2.306   4.191   3.634  0.9868  0.1200  2.8098
  174DG     H21 4000   2.344   4.042   3.534  2.0566 -1.1815  0.4171
  174DG     H22 4001   2.539   4.257   3.532  2.0941  0.9710 -0.1515
  174DG     H23 4002   2.581   4.090   3.502 -1.0282 -1.6193  1.6683
  175DG      C1 4003   3.107   4.238   4.523 -0.2290  0.0525  0.1440
  175DG      C2 4004   2.798   4.545   3.988  0.7005  0.0898 -0.2398
  175DG      H3 4005   3.211   4.222   4.552 -1.0890 -2.4248  2.3567
  175DG      H4 4006   3.077   4.144   4.478  1.4225 -0.3405 -0.2283
  175DG      H5 4007   3.057   4.251   4.619 -1.9841 -0.0544 -0.7344
  175DG      H6 4008   2.808   4.618   3.908  2.9955 -1.0206 -1.0637
  175DG      H7 4009   2.822   4.444   3.957  0.1431 -1.1112  2.8333
  175DG      H8 4010   2.694   4.535   4.019  1.5172 -1.0153  2.4341
  175DG      O9 4011   3.104   4.350   4.432 -0.6750 -0.5009  0.0229
  175DG     O10 4012   2.888   4.566   4.100  0.5079 -0.4839  0.1805
  175DG     C11 4013   3.169   4.467   4.482  1.0649  0.2012  0.8274
  175DG     C12 4014   3.010   4.626   4.053 -0.1232 -0.4939  0.4957
  175DG     H13 4015   3.263   4.440   4.530  2.1711 -0.3535 -1.4920
  175DG     H14 4016   3.095   4.507   4.551 -1.6885 -1.1267 -1.1996
  175DG     H15 4017   2.987   4.716   3.995  1.5816  1.5190  2.7326
  175DG     H16 4018   3.064   4.551   3.995  0.2927 -0.4594  0.8355
  175DG     C17 4019   3.189   4.572   4.365  0.5349 -0.1279  0.2642
  175DG     C18 4020   3.092   4.678   4.170  0.3823 -1.1618  0.0645
  175DG     O19 4021   3.081   4.574   4.272 -0.1099  0.4343  0.6406
  175DG     H20 4022   3.272   4.547   4.299  1.7079 -1.7772  2.2379
  175DG     H21 4023   3.212   4.670   4.407 -1.8668  0.6819 -0.1823
  175DG     H22 4024   3.194   4.699   4.139  0.0676  0.4171  0.0523
  175DG     H23 4025   3.044   4.765   4.215 -2.3085 -2.6810  0.3509
  176DG      C1 4026   1.954   3.721   2.064 -0.1131 -0.4787 -0.1300
  176DG      C2 4027   2.365   3.057   2.214  0.3401 -0.3016  0.1972
  176DG      H3 4028   1.875   3.677   2.126  0.8018 -2.9527 -0.6133
  176DG      H4 4029   1.910   3.790   1.993  1.2434  0.5011 -0.0412
  176DG      H5 4030   2.015   3.780   2.132 -1.9412  0.2155  1.0060
  176DG      H6 4031   2.278   3.008   2.259  1.4301 -2.7925 -0.2116
  176DG      H7 4032   2.433   2.972   2.208  0.3095 -0.4005  1.0899
  176DG      H8 4033   2.393   3.124   2.296  1.6286  0.7513 -1.0593
  176DG      O9 4034   2.037   3.642   1.997 -0.1087  0.0310 -0.5576
  176DG     O10 4035   2.338   3.132   2.091  0.3547  0.2205 -0.7158
  176DG     C11 4036   1.971   3.562   1.902  0.6871 -0.1152  0.4419
  176DG     C12 4037   2.215   3.218   2.093 -0.4266  0.3496  0.0553
  176DG     H13 4038   1.956   3.619   1.811  0.9559  0.1535  0.5680
  176DG     H14 4039   1.874   3.515   1.923 -0.4625  0.6104 -2.7160
  176DG     H15 4040   2.230   3.305   2.156  1.2410  0.1274  0.0085
  176DG     H16 4041   2.127   3.165   2.132 -1.2153  1.3576 -0.3194
  176DG     C17 4042   2.063   3.448   1.855  0.2517  0.2149 -0.4943
  176DG     C18 4043   2.190   3.278   1.955 -0.0874  0.4766 -0.6455
  176DG     O19 4044   2.077   3.367   1.970  0.0240 -0.3349  0.1023
  176DG     H20 4045   2.157   3.496   1.829  0.8071  0.2585  1.4211
  176DG     H21 4046   2.021   3.396   1.769 -2.3433  0.7031  0.3694
  176DG     H22 4047   2.279   3.326   1.914 -1.2293  1.2718 -2.3412
  176DG     H23 4048   2.165   3.208   1.875 -0.4366 -0.4211  0.2259
  177DG      C1 4049   3.552   5.121   0.554 -0.0923  0.7161 -0.5756
  177DG      C2 4050   3.717   5.265   1.238  0.1226 -0.2465 -0.5181
  177DG      H3 4051   3.509   5.022   0.536 -0.0685  0.2607  1.6781
  177DG      H4 4052   3.556   5.184   0.465  2.8580 -0.6345 -1.5467
  177DG      H5 4053   3.495   5.169   0.633  0.7635 -0.6376  0.9059
  177DG      H6 4054   3.609   5.282   1.246  0.2957  0.6298  0.0296
  177DG      H7 4055   3.727   5.158   1.258  0.5903 -0.5713 -2.3021
  177DG      H8 4056   3.764   5.327   1.314 -0.3453  0.1106 -0.5163
  177DG      O9 4057   3.685   5.119   0.601  0.1508 -0.4637 -0.0493
  177DG     O10 4058   3.735   5.300   1.101 -0.3927 -0.7653  0.5528
  177DG     C11 4059   3.690   5.048   0.723  0.1226  0.0397 -0.1496
  177DG     C12 4060   3.867   5.274   1.064 -0.0104 -0.7923 -0.2316
  177DG     H13 4061   3.716   4.944   0.700 -0.8251 -0.5276  1.2040
  177DG     H14 4062   3.594   5.043   0.773  1.0554 -0.6279  1.6718
  177DG     H15 4063   3.908   5.175   1.084 -0.0397 -0.7662 -0.0446
  177DG     H16 4064   3.939   5.345   1.106 -0.4170  0.9675 -2.3068
  177DG     C17 4065   3.800   5.100   0.810 -0.5870  0.3188 -0.2262
  177DG     C18 4066   3.871   5.306   0.913  0.1004  0.8665 -0.1454
  177DG     O19 4067   3.769   5.231   0.853 -0.0700 -0.0120  0.0050
  177DG     H20 4068   3.895   5.077   0.761 -1.1704  1.3792 -1.9316
  177DG     H21 4069   3.789   5.038   0.900 -0.6940 -0.7003 -0.9240
  177DG     H22 4070   3.836   5.408   0.898 -0.4956  0.5565 -0.9295
  177DG     H23 4071   3.967   5.288   0.865 -0.3665 -2.4503 -0.0681
  178DG      C1 4072   5.156   4.276   2.223 -0.0589 -0.3783 -0.5820
  178DG      C2 4073   5.022   4.483   1.519  0.1165 -0.1593 -0.6401
  178DG      H3 4074   5.182   4.170   2.225 -0.3986 -0.4911 -1.8540
  178DG      H4 4075   5.047   4.279   2.226 -0.0226  0.8379  1.8166
  178DG      H5 4076   5.194   4.320   2.316  0.4617 -0.5484 -0.7075
  178DG      H6 4077   5.014   4.374   1.510  2.1081 -0.2559 -1.8171
  178DG      H7 4078   4.927   4.517   1.477 -0.9196 -1.4240  0.5978
  178DG      H8 4079   5.102   4.517   1.454  0.5395 -0.7897 -0.4599
  178DG      O9 4080   5.232   4.331   2.111 -0.6031 -0.1394 -0.1705
  178DG     O10 4081   5.048   4.514   1.654  0.3386  0.7786  0.1161
  178DG     C11 4082   5.225   4.475   2.126  0.2881 -0.3230 -0.2235
  178DG     C12 4083   4.940   4.478   1.739  0.5238 -0.1517  0.4297
  178DG     H13 4084   5.307   4.508   2.062  2.2063  1.0221  2.7622
  178DG     H14 4085   5.250   4.509   2.226  0.7700  1.3883 -0.8996
  178DG     H15 4086   4.939   4.369   1.740  3.1715 -0.2847 -0.9922
  178DG     H16 4087   4.850   4.518   1.694  1.9761  1.2901 -1.3549
  178DG     C17 4088   5.091   4.536   2.076  0.8990 -0.2586  0.7311
  178DG     C18 4089   4.956   4.536   1.874 -0.2780 -0.3597  0.1754
  178DG     O19 4090   5.063   4.476   1.945  0.1006  0.3349  0.1766
  178DG     H20 4091   5.103   4.644   2.066  0.6184 -0.4323 -3.1269
  178DG     H21 4092   5.010   4.523   2.148 -0.3875  2.1893 -0.1501
  178DG     H22 4093   4.964   4.645   1.867  2.2354 -0.5135 -0.2705
  178DG     H23 4094   4.863   4.518   1.927 -0.8428  1.6101 -0.0630
  179DG      C1 4095   1.088   4.602   3.406 -0.3413  0.1992  0.1066
  179DG      C2 4096   0.914   5.214   3.078  0.3217  0.2346 -0.2309
  179DG      H3 4097   1.183   4.613   3.459 -1.6036  1.8646  2.1474
  179DG      H4 4098   1.114   4.616   3.301  0.0956 -0.2693  0.1432
  179DG      H5 4099   1.052   4.501   3.429 -1.1497  0.2001 -1.0617
  179DG      H6 4100   0.989   5.291   3.095  1.8557 -1.2470 -0.0370
  179DG      H7 4101   0.918   5.199   2.970  0.2793  0.4797 -0.2662
  179DG      H8 4102   0.812   5.244   3.101  0.2218 -1.3077  1.5974
  179DG      O9 4103   0.998   4.708   3.444 -0.2238  0.7618 -0.1979
  179DG     O10 4104   0.957   5.097   3.151  0.4883 -0.7144  0.0029
  179DG     C11 4105   0.875   4.703   3.381  1.5390 -0.5826  0.2824
  179DG     C12 4106   0.979   5.122   3.292 -0.6358  0.5166  0.5505
  179DG     H13 4107   0.821   4.610   3.399 -0.1232  0.7730  3.0682
  179DG     H14 4108   0.883   4.713   3.273 -0.3929  0.0386  0.1588
  179DG     H15 4109   0.900   5.191   3.320 -1.1529 -0.5146  1.7597
  179DG     H16 4110   1.076   5.169   3.308  0.2713 -1.4255  1.1162
  179DG     C17 4111   0.792   4.826   3.437  0.0019  0.1395  0.2367
  179DG     C18 4112   0.970   4.998   3.377  0.2580 -0.4939  0.0659
  179DG     O19 4113   0.830   4.958   3.390  0.0926  0.1711  0.2723
  179DG     H20 4114   0.809   4.841   3.543  2.0772  0.3896 -0.0981
  179DG     H21 4115   0.688   4.811   3.408  0.2991  0.9319 -1.3389
  179DG     H22 4116   1.035   4.927   3.326  1.1538 -0.7374  1.4793
  179DG     H23 4117   1.000   5.019   3.480 -1.8103  0.5009  0.5221
  180DG      C1 4118   0.548   2.176   0.774 -0.2838  0.7544  0.2405
  180DG      C2 4119   0.101   1.583   1.111 -0.0753  0.0592 -0.0304
  180DG      H3 4120   0.521   2.275   0.739  1.8327  1.7208  1.1771
  180DG      H4 4121   0.567   2.126   0.679 -0.6749 -1.7247  1.3745
  180DG      H5 4122   0.640   2.175   0.833 -1.1592 -1.4356  1.7404
  180DG      H6 4123   0.126   1.486   1.069  1.1720 -0.4648  1.7854
  180DG      H7 4124   0.167   1.601   1.196 -2.4721 -0.3606  2.0249
  180DG      H8 4125  -0.000   1.583   1.150 -0.6611  1.4443 -1.4173
  180DG      O9 4126   0.445   2.131   0.854 -0.1189  0.0707  0.1097
  180DG     O10 4127   0.119   1.684   1.016 -0.3713 -0.0375  0.3406
  180DG     C11 4128   0.342   2.060   0.786  0.2187  0.0130  0.4391
  180DG     C12 4129   0.070   1.818   1.057  0.0557  0.0999 -0.8683
  180DG     H13 4130   0.378   1.965   0.744 -0.2187  0.3297 -0.6867
  180DG     H14 4131   0.309   2.118   0.700 -1.3136  0.9097  1.5875
  180DG     H15 4132   0.014   1.807   1.150  0.3506 -0.5493 -0.7599
  180DG     H16 4133  -0.005   1.858   0.989  0.3618 -1.1407 -1.9824
  180DG     C17 4134   0.217   2.021   0.867  0.6693 -0.3830  0.1428
  180DG     C18 4135   0.187   1.914   1.075 -0.5712  0.4925 -0.3723
  180DG     O19 4136   0.267   1.932   0.961 -0.5036  0.1321 -0.3292
  180DG     H20 4137   0.133   1.985   0.808 -0.4623  2.1458  0.0828
  180DG     H21 4138   0.188   2.112   0.920 -1.5194 -1.3921  0.8027
  180DG     H22 4139   0.143   2.010   1.105 -2.0175 -0.2969  0.1206
  180DG     H23 4140   0.251   1.872   1.153 -2.8118 -1.1659  0.6851
  181DG      C1 4141   0.108   2.587   2.849  0.6857 -0.0158 -0.1868
  181DG      C2 4142   0.953   2.682   2.994  1.0526  0.0975  0.1059
  181DG      H3 4143   0.069   2.601   2.950  0.2622  1.5595 -0.5490
  181DG      H4 4144   0.167   2.495   2.853  0.7282 -0.0705 -1.6805
  181DG      H5 4145   0.026   2.575   2.779  0.7644  0.3755 -0.3475
  181DG      H6 4146   0.927   2.622   3.081  1.3439 -1.0923 -0.6068
  181DG      H7 4147   1.035   2.640   2.936  0.6031  1.1253 -1.3104
  181DG      H8 4148   0.995   2.777   3.027 -0.3800  0.6911  0.3004
  181DG      O9 4149   0.181   2.702   2.812 -0.3691  0.0978 -0.3885
  181DG     O10 4150   0.842   2.697   2.903 -0.7025 -0.2409 -0.3798
  181DG     C11 4151   0.312   2.716   2.867 -0.1570  0.0439  0.9487
  181DG     C12 4152   0.784   2.569   2.866  0.0423  0.0264  0.0403
  181DG     H13 4153   0.305   2.684   2.971 -1.6500 -2.5240  0.1413
  181DG     H14 4154   0.345   2.820   2.858  0.9510 -0.3813 -0.3251
  181DG     H15 4155   0.763   2.502   2.949  0.5738 -0.6970 -0.3942
  181DG     H16 4156   0.866   2.519   2.814 -0.8087 -0.1315 -1.1903
  181DG     C17 4157   0.419   2.625   2.793 -0.2063  0.5938  0.8628
  181DG     C18 4158   0.658   2.578   2.782 -0.0519  0.5207  0.1745
  181DG     O19 4159   0.553   2.638   2.847 -0.2710  0.4293  0.1828
  181DG     H20 4160   0.420   2.636   2.685 -3.8541  2.0231  0.8445
  181DG     H21 4161   0.400   2.520   2.819  3.9960 -0.6456 -0.2716
  181DG     H22 4162   0.665   2.616   2.680  2.4807  0.3203  0.2096
  181DG     H23 4163   0.631   2.474   2.760  0.4166  0.4610 -0.1394
  182DG      C1 4164   4.493   5.034   0.596  0.0402 -0.7484 -0.5580
  182DG      C2 4165   5.036   5.167  -0.042 -0.5638 -0.1859  0.3638
  182DG      H3 4166   4.478   5.087   0.690 -2.6709  0.3531 -1.5154
  182DG      H4 4167   4.550   4.946   0.624 -0.8381 -0.8915  0.8420
  182DG      H5 4168   4.397   4.999   0.559 -0.9124 -1.6760  2.5134
  182DG      H6 4169   5.088   5.119   0.040  1.5265  1.0756 -0.1559
  182DG      H7 4170   5.002   5.105  -0.125 -1.7841 -0.1801  0.8322
  182DG      H8 4171   5.108   5.234  -0.090  0.6047 -0.7686  1.2790
  182DG      O9 4172   4.569   5.116   0.511  0.1917 -0.1290 -0.0437
  182DG     O10 4173   4.921   5.235   0.009 -0.0639  0.3271  0.2654
  182DG     C11 4174   4.698   5.150   0.543 -0.0565 -0.4272  0.2485
  182DG     C12 4175   4.857   5.155   0.106 -0.1485  0.1164  0.5217
  182DG     H13 4176   4.757   5.059   0.554  0.7435  0.3243  2.8726
  182DG     H14 4177   4.704   5.215   0.630 -1.6850  1.3134 -0.8605
  182DG     H15 4178   4.926   5.088   0.157 -0.9492  0.2861  1.8791
  182DG     H16 4179   4.786   5.089   0.055  0.9095 -1.4130  0.9637
  182DG     C17 4180   4.750   5.239   0.431  0.0640  0.7786 -0.0679
  182DG     C18 4181   4.781   5.243   0.204 -0.2618 -0.3404 -0.2170
  182DG     O19 4182   4.758   5.162   0.316 -0.4141 -0.2070 -0.0776
  182DG     H20 4183   4.847   5.278   0.460 -0.7355  1.5041  1.8033
  182DG     H21 4184   4.675   5.316   0.411  0.0809  0.0637 -3.4698
  182DG     H22 4185   4.836   5.331   0.237 -2.7023  1.0638  0.3474
  182DG     H23 4186   4.689   5.280   0.160 -0.3432 -0.0780  0.1687
  183DG      C1 4187   5.312   1.485   0.825 -0.2812 -0.5051  0.1219
  183DG      C2 4188   4.825   2.136   0.503  0.1120 -0.0390  0.4418
  183DG      H3 4189   5.381   1.563   0.854 -1.0488 -0.1715  1.1014
  183DG      H4 4190   5.342   1.446   0.728 -0.9205  0.7449 -0.6058
  183DG      H5 4191   5.297   1.404   0.896  1.5835 -2.7794 -1.9076
  183DG      H6 4192   4.888   2.128   0.414 -0.3782 -2.1651  0.2234
  183DG      H7 4193   4.723   2.164   0.478 -1.2998 -1.4440  3.9901
  183DG      H8 4194   4.877   2.212   0.560 -0.0789  2.1429 -2.0754
  183DG      O9 4195   5.199   1.577   0.825  0.0033  0.1653 -0.3798
  183DG     O10 4196   4.808   2.011   0.557 -0.3435 -0.5213  0.3917
  183DG     C11 4197   5.089   1.526   0.746 -0.8074 -0.3704  0.0491
  183DG     C12 4198   4.911   1.944   0.625  0.6623 -0.5428  0.5468
  183DG     H13 4199   5.076   1.423   0.780 -0.4411 -1.4903 -2.9192
  183DG     H14 4200   5.128   1.515   0.645 -0.3765 -2.0165  0.3656
  183DG     H15 4201   4.938   2.006   0.710 -0.2673 -1.9738  1.9439
  183DG     H16 4202   4.989   1.934   0.549  0.3111  3.3129 -0.5263
  183DG     C17 4203   4.960   1.606   0.763 -0.1498  0.6348 -0.4451
  183DG     C18 4204   4.864   1.804   0.670  0.1209 -0.3658 -0.1949
  183DG     O19 4205   4.978   1.724   0.694  0.4497 -0.0340 -0.3894
  183DG     H20 4206   4.927   1.621   0.866 -1.4623  0.9066 -0.8936
  183DG     H21 4207   4.888   1.537   0.720  0.0016  0.2724 -0.1155
  183DG     H22 4208   4.803   1.818   0.759  3.1346  3.3257  1.6062
  183DG     H23 4209   4.804   1.754   0.595  1.1368 -0.0645 -1.2427
  184DG      C1 4210   1.489   5.012   2.917 -0.8481  0.1506 -0.2163
  184DG      C2 4211   1.209   4.568   2.442  0.4161  0.5063 -0.2446
  184DG      H3 4212   1.456   5.089   2.848 -0.3506  0.3846 -0.1991
  184DG      H4 4213   1.581   5.054   2.958  0.3920 -2.6670  0.1491
  184DG      H5 4214   1.422   4.992   3.000  0.7295  0.3767  1.1618
  184DG      H6 4215   1.116   4.605   2.486 -0.4093 -0.0290 -1.4932
  184DG      H7 4216   1.209   4.616   2.344 -0.3240 -0.3871 -0.6942
  184DG      H8 4217   1.193   4.461   2.432  0.3717  0.7050 -3.1283
  184DG      O9 4218   1.518   4.892   2.841 -0.3657 -0.3600  0.0642
  184DG     O10 4219   1.319   4.612   2.515  0.3877  0.5760  0.1565
  184DG     C11 4220   1.620   4.907   2.745  0.0614 -0.0415 -0.0249
  184DG     C12 4221   1.436   4.545   2.469 -0.2732 -0.2966  0.4640
  184DG     H13 4222   1.708   4.953   2.791 -0.8867  2.0840 -0.1988
  184DG     H14 4223   1.584   4.978   2.671 -1.6653  0.5081  1.2807
  184DG     H15 4224   1.452   4.553   2.361 -1.3731 -2.1915  0.1075
  184DG     H16 4225   1.424   4.437   2.482 -0.3824 -0.1054  2.1096
  184DG     C17 4226   1.654   4.766   2.682 -0.3553 -0.9906  0.2702
  184DG     C18 4227   1.564   4.591   2.550  0.2327 -0.0698  0.3692
  184DG     O19 4228   1.550   4.720   2.599  0.0731  0.4135  0.3249
  184DG     H20 4229   1.673   4.691   2.759 -0.7136 -2.4842 -1.0372
  184DG     H21 4230   1.739   4.779   2.616 -1.1749 -2.7026 -1.2118
  184DG     H22 4231   1.585   4.527   2.635  2.7539  0.9220  0.6071
  184DG     H23 4232   1.651   4.584   2.484  2.8972  1.2702  3.4755
  185DG      C1 4233   2.415   5.264   0.572  0.2848  0.5847 -0.4333
  185DG      C2 4234   2.173   4.750   1.157 -0.5939 -0.5575 -0.4707
  185DG      H3 4235   2.364   5.219   0.487 -0.6334 -1.2526  1.0271
  185DG      H4 4236   2.522   5.267   0.551  0.8297  1.5192  2.0940
  185DG      H5 4237   2.395   5.369   0.595  2.2806  1.1200 -0.9919
  185DG      H6 4238   2.260   4.691   1.186 -0.0773  0.0120 -0.8448
  185DG      H7 4239   2.118   4.766   1.250  1.0342 -2.8991  1.0095
  185DG      H8 4240   2.103   4.698   1.091 -0.5358 -0.0761 -0.9143
  185DG      O9 4241   2.419   5.182   0.695 -0.3009  0.9682  0.3582
  185DG     O10 4242   2.191   4.881   1.106  0.4308 -0.0689 -0.0622
  185DG     C11 4243   2.494   5.230   0.805 -0.4931  0.7253  0.7285
  185DG     C12 4244   2.298   4.960   1.166  0.0239  0.2192  0.0119
  185DG     H13 4245   2.543   5.326   0.793  1.1716  0.1021  2.1664
  185DG     H14 4246   2.568   5.151   0.821  1.2748  2.0648 -0.4340
  185DG     H15 4247   2.396   4.912   1.164 -0.4591 -0.8836  1.4755
  185DG     H16 4248   2.277   4.987   1.269  0.0536 -3.4807  1.1041
  185DG     C17 4249   2.405   5.221   0.924 -0.5044  0.5413  0.0650
  185DG     C18 4250   2.320   5.095   1.107  1.1214 -0.5758  0.0192
  185DG     O19 4251   2.387   5.094   0.976 -0.4480  0.3169  0.0270
  185DG     H20 4252   2.317   5.282   0.902  0.1750  1.3167 -0.6120
  185DG     H21 4253   2.463   5.275   1.000 -0.8396 -0.9468  1.4141
  185DG     H22 4254   2.232   5.158   1.100 -0.6185 -3.0664 -4.2588
  185DG     H23 4255   2.385   5.147   1.178  0.3011  1.1307 -0.4411
  186DG      C1 4256   1.877   5.456   2.339 -0.3168  0.2383  0.5982
  186DG      C2 4257   2.313   5.634   1.725  0.7984 -0.1794 -0.0329
  186DG      H3 4258   1.786   5.474   2.397 -2.7296 -0.1882 -2.7741
  186DG      H4 4259   1.958   5.516   2.378 -1.0628  0.0893  2.4853
  186DG      H5 4260   1.898   5.351   2.360  0.8105 -0.0797 -1.8593
  186DG      H6 4261   2.412   5.679   1.725  0.4308  0.6676  0.4137
  186DG      H7 4262   2.314   5.526   1.711  0.9740 -0.1641 -0.1290
  186DG      H8 4263   2.257   5.685   1.646  2.7125  0.2912 -1.1571
  186DG      O9 4264   1.856   5.479   2.198 -0.4251 -0.0201 -0.1049
  186DG     O10 4265   2.246   5.645   1.845 -0.4512  0.5512 -0.1955
  186DG     C11 4266   1.827   5.617   2.179  0.3436  0.1146  0.0614
  186DG     C12 4267   2.205   5.775   1.889 -0.0989  0.4983 -0.3782
  186DG     H13 4268   1.768   5.653   2.263  0.7961  0.5202  0.2074
  186DG     H14 4269   1.753   5.635   2.100  1.4691 -0.5287 -1.1656
  186DG     H15 4270   2.133   5.811   1.815 -0.4670  3.4582  1.2614
  186DG     H16 4271   2.279   5.855   1.888  0.5811 -0.0330  1.7417
  186DG     C17 4272   1.951   5.699   2.155  0.0798 -0.8349 -0.3729
  186DG     C18 4273   2.134   5.767   2.030  0.3630 -0.3423  0.7800
  186DG     O19 4274   2.031   5.668   2.044  0.5023 -0.3745  0.5502
  186DG     H20 4275   2.017   5.685   2.241  0.2721  0.9290 -0.1917
  186DG     H21 4276   1.923   5.805   2.152 -1.1074 -1.1730 -2.5952
  186DG     H22 4277   2.208   5.740   2.106  3.4063  0.5375 -1.6521
  186DG     H23 4278   2.093   5.866   2.048 -0.8196 -0.9013  1.2878
  187DG      C1 4279   5.484   4.345   2.383 -0.2945  0.1411  0.9398
  187DG      C2 4280   6.117   3.909   2.176  0.1036  0.2157 -0.5410
  187DG      H3 4281   5.408   4.306   2.451  0.5160  0.6346  2.1658
  187DG      H4 4282   5.436   4.425   2.327 -2.4409 -1.4245  0.4319
  187DG      H5 4283   5.571   4.378   2.441  0.5302 -0.8679  0.3109
  187DG      H6 4284   6.140   4.011   2.208  0.9381  0.1106 -0.7659
  187DG      H7 4285   6.168   3.862   2.260 -0.7614  0.1741 -0.0266
  187DG      H8 4286   6.178   3.885   2.089 -1.2905 -0.6456 -1.3032
  187DG      O9 4287   5.524   4.248   2.288 -0.5408 -0.1626  0.2092
  187DG     O10 4288   5.982   3.878   2.171 -0.3416 -0.1770 -0.5572
  187DG     C11 4289   5.555   4.124   2.350  0.2969  0.1823  0.0149
  187DG     C12 4290   5.911   3.960   2.084 -0.8397  0.2421  0.6995
  187DG     H13 4291   5.467   4.089   2.404  0.4916 -0.0665  0.1772
  187DG     H14 4292   5.636   4.140   2.422  0.4205 -0.0217 -0.0797
  187DG     H15 4293   5.939   3.948   1.979 -0.4841  3.1852  0.3775
  187DG     H16 4294   5.938   4.065   2.096  2.2845 -0.3028 -0.5624
  187DG     C17 4295   5.594   4.020   2.240 -0.1549 -0.0932  0.6347
  187DG     C18 4296   5.762   3.954   2.089 -0.3192 -0.4991 -0.4107
  187DG     O19 4297   5.724   4.045   2.188  0.0852 -0.2424  0.0561
  187DG     H20 4298   5.523   4.018   2.158  0.8852 -3.0610 -0.3247
  187DG     H21 4299   5.596   3.917   2.278 -2.4332 -0.0885  0.9002
  187DG     H22 4300   5.714   3.982   1.995 -1.5640  2.1238  0.8990
  187DG     H23 4301   5.729   3.852   2.112  2.2882 -1.3361 -0.0538
  188DG      C1 4302   0.412   5.074   4.302  0.0141  0.2075  0.0036
  188DG      C2 4303  -0.266   5.072   4.633  0.5064 -0.3540 -0.1798
  188DG      H3 4304   0.493   5.134   4.261  1.5316 -1.7317 -0.0112
  188DG      H4 4305   0.357   5.022   4.224 -0.0528 -0.1643  0.2921
  188DG      H5 4306   0.458   5.002   4.370 -0.8316 -0.8237 -0.4982
  188DG      H6 4307  -0.282   5.168   4.682  1.8902 -1.3489  2.4199
  188DG      H7 4308  -0.355   5.023   4.594  1.0966 -1.1158 -0.6038
  188DG      H8 4309  -0.227   4.997   4.702 -0.6520 -1.8210 -1.0675
  188DG      O9 4310   0.326   5.156   4.374  0.3203  0.1114 -1.0265
  188DG     O10 4311  -0.166   5.087   4.533  0.4579 -0.1565 -0.2255
  188DG     C11 4312   0.232   5.233   4.306 -0.5243 -0.2725 -0.8420
  188DG     C12 4313  -0.108   4.964   4.497  0.2375  0.3350  0.0716
  188DG     H13 4314   0.267   5.280   4.213  0.9574 -2.6792 -1.5788
  188DG     H14 4315   0.199   5.316   4.368  0.6022 -1.0169  0.8196
  188DG     H15 4316  -0.185   4.891   4.470  0.3866  0.7155 -1.4243
  188DG     H16 4317  -0.056   4.921   4.583 -1.6516 -1.0871  0.5936
  188DG     C17 4318   0.104   5.144   4.269 -0.7293 -1.0602 -0.1003
  188DG     C18 4319  -0.030   4.978   4.365  0.3171  0.1587 -0.2778
  188DG     O19 4320   0.064   5.075   4.389 -0.5578 -0.0665  0.1738
  188DG     H20 4321   0.144   5.086   4.186  2.6325  0.8490 -0.0116
  188DG     H21 4322   0.027   5.214   4.238  0.4686  0.0730 -0.6531
  188DG     H22 4323   0.018   4.880   4.359 -0.8570 -0.4388 -0.2478
  188DG     H23 4324  -0.106   5.001   4.291 -0.6798 -0.8078  0.4028
  189DG      C1 4325   1.605   2.747   3.848 -0.2686  0.1358 -0.0885
  189DG      C2 4326   2.251   3.073   3.577 -0.6905  0.0173  0.0009
  189DG      H3 4327   1.653   2.758   3.945  1.1372 -1.3717 -0.5820
  189DG      H4 4328   1.641   2.651   3.812  1.9543  0.2906  1.5501
  189DG      H5 4329   1.496   2.735   3.851 -0.4502  1.2569 -1.3711
  189DG      H6 4330   2.293   3.165   3.537 -0.5718  0.6151  1.4380
  189DG      H7 4331   2.325   3.037   3.649 -0.3848 -0.0779 -0.3557
  189DG      H8 4332   2.250   3.000   3.496 -0.1175  1.2277 -1.1288
  189DG      O9 4333   1.631   2.839   3.750  0.0663 -0.5490 -0.0202
  189DG     O10 4334   2.123   3.090   3.638 -0.4603 -0.1737 -0.4357
  189DG     C11 4335   1.638   2.968   3.806 -0.2520 -0.4669 -0.0324
  189DG     C12 4336   2.022   3.107   3.544 -0.0474  1.0399  0.2969
  189DG     H13 4337   1.700   2.976   3.896 -0.8626  0.2122  0.3355
  189DG     H14 4338   1.544   3.011   3.839  0.7675  0.5291  1.7912
  189DG     H15 4339   2.012   3.010   3.495  0.3989  0.8998  0.4757
  189DG     H16 4340   2.059   3.183   3.476  1.7865 -0.0308  0.0297
  189DG     C17 4341   1.698   3.069   3.701  0.8420  0.4754 -0.4731
  189DG     C18 4342   1.894   3.154   3.613  0.5844  0.1775  1.4171
  189DG     O19 4343   1.838   3.051   3.689  0.4885  0.0834  0.3265
  189DG     H20 4344   1.674   3.170   3.734  2.9996  1.4322 -1.6439
  189DG     H21 4345   1.644   3.049   3.608 -1.2180  1.2800  0.4834
  189DG     H22 4346   1.916   3.236   3.682  1.9189 -0.3665  1.6559
  189DG     H23 4347   1.823   3.193   3.540  1.1849 -2.2497 -0.5879
  190DG      C1 4348   4.555   4.965   5.079  0.1037 -0.1011 -0.1610
  190DG      C2 4349   4.527   4.746   5.860 -0.7395 -0.2044  0.2518
  190DG      H3 4350   4.480   5.015   5.140  2.7392  2.4840  1.2545
  190DG      H4 4351   4.514   4.952   4.979 -0.8018 -0.9360  0.2975
  190DG      H5 4352   4.647   5.022   5.066  1.5858 -2.3053  0.1564
  190DG      H6 4353   4.572   4.825   5.920 -0.2121  0.1191 -0.5680
  190DG      H7 4354   4.468   4.689   5.932  0.1120  0.2383  1.3384
  190DG      H8 4355   4.608   4.683   5.823 -1.0132 -0.2877 -0.2080
  190DG      O9 4356   4.589   4.840   5.125 -0.0114  0.4982  0.4373
  190DG     O10 4357   4.464   4.806   5.751 -0.3807 -0.4889  0.3052
  190DG     C11 4358   4.608   4.833   5.271 -0.1456 -0.2415  0.2765
  190DG     C12 4359   4.387   4.707   5.680  1.1614 -0.4200  0.6670
  190DG     H13 4360   4.659   4.914   5.322  3.6280 -0.6792 -2.4208
  190DG     H14 4361   4.669   4.744   5.289  1.0502  0.4528 -0.2496
  190DG     H15 4362   4.295   4.688   5.734  1.2689  1.2755  1.5095
  190DG     H16 4363   4.441   4.612   5.673  3.9799  1.0782  0.6616
  190DG     C17 4364   4.466   4.806   5.327  0.1546 -0.3900 -0.0551
  190DG     C18 4365   4.359   4.748   5.538  0.3516  0.2566 -0.9062
  190DG     O19 4366   4.482   4.774   5.467  0.2171 -0.0468 -0.3864
  190DG     H20 4367   4.435   4.712   5.280 -0.9994 -0.2556  0.4066
  190DG     H21 4368   4.398   4.890   5.314  0.4249 -0.4345 -2.1876
  190DG     H22 4369   4.298   4.680   5.479 -0.1504  1.2682 -1.6027
  190DG     H23 4370   4.299   4.840   5.535  2.4935  1.6947 -2.1867
  191DG      C1 4371   1.886   0.165   4.194  0.0168  0.0171 -0.3649
  191DG      C2 4372   2.704   0.334   3.886  0.4075 -0.2948  0.4801
  191DG      H3 4373   1.821   0.219   4.126 -0.6362 -0.3892 -0.0682
  191DG      H4 4374   1.898   0.216   4.289 -2.3365 -1.1235  0.6314
  191DG      H5 4375   1.842   0.068   4.218  0.1356 -0.4145 -1.8211
  191DG      H6 4376   2.725   0.425   3.942  0.0031  1.3493 -1.8876
  191DG      H7 4377   2.797   0.297   3.844 -0.2771  0.8858 -2.2554
  191DG      H8 4378   2.648   0.376   3.803  1.6754  0.6384  0.0721
  191DG      O9 4379   2.008   0.149   4.143  0.1318 -0.1421 -0.1246
  191DG     O10 4380   2.633   0.243   3.960  0.3699  0.1729 -0.3062
  191DG     C11 4381   2.067   0.273   4.089  0.2360 -0.1988 -0.0164
  191DG     C12 4382   2.520   0.309   4.026  0.8573  0.1108 -0.4180
  191DG     H13 4383   2.076   0.350   4.166 -3.6809 -0.0612  0.5186
  191DG     H14 4384   1.999   0.319   4.016 -0.6759 -0.2881  0.7513
  191DG     H15 4385   2.452   0.349   3.952 -0.9605 -1.9810 -0.0100
  191DG     H16 4386   2.539   0.392   4.094 -1.3893  0.4815 -0.1504
  191DG     C17 4387   2.203   0.243   4.036 -0.2668  0.0069 -0.6365
  191DG     C18 4388   2.432   0.199   4.094  0.2592 -0.2574 -0.0850
  191DG     O19 4389   2.301   0.241   4.141 -0.5683  0.0302  0.0828
  191DG     H20 4390   2.244   0.315   3.965  1.3373  0.9547  1.1457
  191DG     H21 4391   2.197   0.143   3.992 -0.1702 -0.6738  0.8274
  191DG     H22 4392   2.417   0.109   4.035  1.8872  0.4059 -1.6164
  191DG     H23 4393   2.483   0.157   4.180 -1.8316  0.5269  1.6131
  192DG      C1 4394   0.305   5.499   4.004  0.0150 -0.0290 -0.2572
  192DG      C2 4395   0.919   5.271   4.234  0.1605 -0.0989  0.4659
  192DG      H3 4396   0.318   5.601   3.965 -0.9619  0.5641  0.8982
  192DG      H4 4397   0.207   5.479   4.047  0.1450 -0.3416 -0.1090
  192DG      H5 4398   0.311   5.416   3.934  2.1568 -1.2139  1.2299
  192DG      H6 4399   0.997   5.234   4.301  1.5826 -0.9644 -1.5836
  192DG      H7 4400   0.820   5.236   4.264  1.0751 -1.4123  2.1923
  192DG      H8 4401   0.940   5.253   4.129  1.2392 -0.1836  0.6829
  192DG      O9 4402   0.410   5.472   4.098  0.1364  0.1696  0.3760
  192DG     O10 4403   0.911   5.414   4.253  0.0132 -0.4521  0.0659
  192DG     C11 4404   0.426   5.572   4.202  0.6812 -0.4828  0.1419
  192DG     C12 4405   0.843   5.481   4.151 -0.1295 -0.5047 -0.4303
  192DG     H13 4406   0.332   5.598   4.252  1.3600  3.5069 -0.2843
  192DG     H14 4407   0.469   5.662   4.159 -0.6225 -0.0288 -0.2669
  192DG     H15 4408   0.873   5.456   4.049  2.2722  0.4167 -0.0111
  192DG     H16 4409   0.862   5.588   4.161 -1.8294 -0.3240  1.6413
  192DG     C17 4410   0.517   5.522   4.315  0.0712 -0.3329 -0.3593
  192DG     C18 4411   0.689   5.464   4.166 -0.4399  0.1084 -0.0468
  192DG     O19 4412   0.655   5.538   4.282  0.4158  0.1492 -0.5512
  192DG     H20 4413   0.506   5.416   4.336 -0.5407  0.1299  1.9149
  192DG     H21 4414   0.507   5.576   4.409  0.4440  1.8981 -1.5095
  192DG     H22 4415   0.654   5.517   4.077  0.3175 -0.6471 -0.8166
  192DG     H23 4416   0.656   5.361   4.162  0.6323 -0.3364  1.4267
  193DG      C1 4417   1.098   1.599   3.219 -0.0064 -0.9147 -0.0881
  193DG      C2 4418   0.983   1.984   3.800  0.4413 -0.8789 -0.9025
  193DG      H3 4419   1.093   1.501   3.171  0.5607 -0.5975 -0.8017
  193DG      H4 4420   1.192   1.588   3.273  1.4134 -0.7042 -2.4042
  193DG      H5 4421   1.102   1.684   3.152  1.6623 -1.2766 -0.4987
  193DG      H6 4422   1.089   2.008   3.807 -0.0090  1.2227 -0.5534
  193DG      H7 4423   0.941   2.051   3.725  0.3638 -0.8431 -0.8273
  193DG      H8 4424   0.949   2.030   3.893 -3.3712 -0.4353 -2.3400
  193DG      O9 4425   1.007   1.613   3.332 -0.0512 -0.5425 -0.3994
  193DG     O10 4426   0.961   1.848   3.773  0.5830  0.2312 -0.6120
  193DG     C11 4427   1.030   1.513   3.435 -0.4276  0.7614  0.6769
  193DG     C12 4428   0.822   1.820   3.732 -0.5516  0.0080  0.0241
  193DG     H13 4429   1.120   1.532   3.493 -0.5632  0.8909  0.8462
  193DG     H14 4430   1.041   1.413   3.392 -3.2659 -0.6480  2.8591
  193DG     H15 4431   0.779   1.883   3.655 -3.2393  1.3016  2.3945
  193DG     H16 4432   0.756   1.853   3.812 -0.6299 -0.3884  0.1272
  193DG     C17 4433   0.915   1.520   3.538  0.2791  0.0901 -0.0628
  193DG     C18 4434   0.815   1.670   3.705 -0.0511 -0.0912  0.3540
  193DG     O19 4435   0.920   1.645   3.611  0.1534  0.2002  0.8550
  193DG     H20 4436   0.936   1.433   3.600 -2.0923 -0.9437 -0.5957
  193DG     H21 4437   0.822   1.489   3.491  1.2370  0.8893 -2.6856
  193DG     H22 4438   0.840   1.616   3.797  1.8150 -2.5636 -1.4698
  193DG     H23 4439   0.710   1.654   3.682 -0.8857  3.4046  1.1335
  194DG      C1 4440   0.552   1.710   0.512  0.3088  0.6170  0.0851
  194DG      C2 4441   0.736   2.412   0.522  0.7021 -0.1246 -0.6782
  194DG      H3 4442   0.454   1.672   0.539  0.3160  0.9848  0.6453
  194DG      H4 4443   0.590   1.770   0.595 -2.2593  1.5565  0.6769
  194DG      H5 4444   0.626   1.632   0.497  1.3281  1.4293  0.7625
  194DG      H6 4445   0.638   2.447   0.556 -0.0641  0.0350 -2.9215
  194DG      H7 4446   0.808   2.424   0.603  0.7123  0.9291 -0.8277
  194DG      H8 4447   0.769   2.473   0.438  0.6980 -0.5303 -0.9799
  194DG      O9 4448   0.556   1.809   0.404  0.0655 -0.3602 -0.5789
  194DG     O10 4449   0.736   2.273   0.483  0.4143  0.0134  0.2922
  194DG     C11 4450   0.450   1.905   0.416 -0.4113 -0.2253  0.6972
  194DG     C12 4451   0.621   2.219   0.414 -0.7873 -0.7475  0.0139
  194DG     H13 4452   0.448   1.952   0.514  0.7895  0.5427  0.3810
  194DG     H14 4453   0.356   1.851   0.404  0.1057 -0.7494 -1.5657
  194DG     H15 4454   0.585   2.299   0.349  0.3191  0.6724  1.0749
  194DG     H16 4455   0.535   2.199   0.477  0.0775  1.0939  1.9095
  194DG     C17 4456   0.446   2.001   0.299 -0.1271 -0.0290  0.3582
  194DG     C18 4457   0.665   2.091   0.342  0.6468  0.0603  0.3078
  194DG     O19 4458   0.568   2.045   0.252 -0.0215  0.1243  0.2770
  194DG     H20 4459   0.385   2.090   0.310 -0.1191  0.1529 -0.9634
  194DG     H21 4460   0.406   1.944   0.215  1.2353 -0.0172 -0.3265
  194DG     H22 4461   0.758   2.107   0.286 -0.2064 -0.8196 -1.4081
  194DG     H23 4462   0.692   2.021   0.421  0.7680  0.4496  0.6148
  195DG      C1 4463   0.412   1.429   2.995 -0.5147 -0.4518  0.9893
  195DG      C2 4464   0.823   1.883   3.343  0.1709 -0.1894  0.4369
  195DG      H3 4465   0.335   1.431   2.917  1.3134  2.7208 -0.9525
  195DG      H4 4466   0.404   1.344   3.062 -1.8329  0.5416  2.1565
  195DG      H5 4467   0.504   1.439   2.937 -1.7703 -0.4155 -1.1222
  195DG      H6 4468   0.832   1.870   3.451 -1.3279 -0.5184  0.5376
  195DG      H7 4469   0.834   1.787   3.292  3.2179  0.0362  0.4865
  195DG      H8 4470   0.906   1.948   3.315  0.0061  0.3895  1.2755
  195DG      O9 4471   0.402   1.551   3.070 -0.3339 -0.5355 -0.1304
  195DG     O10 4472   0.688   1.921   3.324  0.6510  0.0279 -0.0808
  195DG     C11 4473   0.506   1.550   3.173 -0.0887 -0.4270 -0.0256
  195DG     C12 4474   0.666   1.980   3.195  0.0911  0.5946 -0.9310
  195DG     H13 4475   0.601   1.522   3.128  2.0581  3.7710  1.3267
  195DG     H14 4476   0.492   1.488   3.262 -0.2520 -0.3089  0.0312
  195DG     H15 4477   0.749   1.979   3.124  1.7147  1.9087  0.8583
  195DG     H16 4478   0.641   2.085   3.209 -1.1627  0.5303 -2.3439
  195DG     C17 4479   0.522   1.696   3.218 -0.5132 -0.5179 -0.1102
  195DG     C18 4480   0.532   1.932   3.149  0.0921 -0.2562  0.0098
  195DG     O19 4481   0.534   1.788   3.112 -0.0224  0.1361  0.4356
  195DG     H20 4482   0.596   1.695   3.298 -0.1682 -1.5317 -0.4299
  195DG     H21 4483   0.435   1.724   3.277 -2.8939  1.1838 -4.0247
  195DG     H22 4484   0.450   1.945   3.219 -1.3884 -0.0654 -1.7083
  195DG     H23 4485   0.502   1.992   3.063  1.1099  0.9423  0.4460
  196DG      C1 4486   4.917   0.662   2.190  0.2405 -1.0267 -0.3475
  196DG      C2 4487   4.098   0.846   1.961 -0.1125  0.0081  0.1902
  196DG      H3 4488   4.955   0.683   2.290  1.1310 -1.4513 -0.5862
  196DG      H4 4489   4.983   0.707   2.117 -0.5455 -0.9183 -1.0072
  196DG      H5 4490   4.924   0.554   2.182  0.4293 -0.9543 -1.2383
  196DG      H6 4491   4.115   0.921   2.038  0.1854  1.8834 -1.5877
  196DG      H7 4492   4.110   0.907   1.871  1.9605  2.7378  2.1321
  196DG      H8 4493   3.993   0.821   1.964 -0.1677 -0.0953 -1.4934
  196DG      O9 4494   4.781   0.697   2.172 -0.0024 -0.1285 -0.0764
  196DG     O10 4495   4.181   0.731   1.974 -0.5306  0.1435  0.5797
  196DG     C11 4496   4.700   0.648   2.277 -0.5922 -0.9772 -0.0711
  196DG     C12 4497   4.320   0.756   1.988 -0.2090  0.7184 -1.1791
  196DG     H13 4498   4.741   0.670   2.376  0.7539 -0.4144 -0.7349
  196DG     H14 4499   4.701   0.539   2.273 -0.6872 -0.9836  0.0709
  196DG     H15 4500   4.361   0.843   1.937 -2.3037  2.6606  0.2681
  196DG     H16 4501   4.372   0.666   1.954  0.6489 -0.4258  2.6464
  196DG     C17 4502   4.559   0.702   2.269 -1.0760  0.1414  0.2605
  196DG     C18 4503   4.371   0.759   2.140 -0.8401 -0.1062 -0.7013
  196DG     O19 4504   4.511   0.724   2.137 -0.5577  0.6604 -0.4634
  196DG     H20 4505   4.555   0.798   2.321 -0.4565 -0.5318  1.6177
  196DG     H21 4506   4.498   0.633   2.328 -0.1310 -0.4893  0.5247
  196DG     H22 4507   4.360   0.857   2.188  1.8618  0.1239 -0.3914
  196DG     H23 4508   4.305   0.692   2.194 -1.4506 -1.3877 -2.9276
  197DG      C1 4509   4.692   2.506   2.915  0.2074  0.1359  0.0468
  197DG      C2 4510   5.076   2.641   2.567 -0.2128  0.4127  0.7643
  197DG      H3 4511   4.774   2.468   2.976 -0.9831 -2.0715  0.3913
  197DG      H4 4512   4.679   2.423   2.845 -2.8777  2.5578 -2.5765
  197DG      H5 4513   4.598   2.513   2.969 -0.6095 -2.8888 -0.7559
  197DG      H6 4514   5.176   2.632   2.611  0.4469  1.7749 -0.3731
  197DG      H7 4515   4.996   2.585   2.615 -0.5007 -0.1669 -0.3725
  197DG      H8 4516   5.086   2.595   2.469 -2.7074  0.3917  0.4580
  197DG      O9 4517   4.709   2.617   2.822 -0.1016 -0.4294  0.4310
  197DG     O10 4518   5.052   2.778   2.567  0.1133  0.0277  0.0815
  197DG     C11 4519   4.739   2.740   2.893 -0.3977 -0.4168  0.0115
  197DG     C12 4520   4.938   2.807   2.492 -0.5463 -0.2611 -0.4572
  197DG     H13 4521   4.836   2.722   2.938 -0.9506 -0.5416  1.2065
  197DG     H14 4522   4.662   2.759   2.968  0.0825 -0.3488  0.4861
  197DG     H15 4523   4.935   2.755   2.396 -0.1648  1.1154 -1.2501
  197DG     H16 4524   4.948   2.912   2.463 -0.7345  0.2714  1.2932
  197DG     C17 4525   4.729   2.865   2.799  0.2609 -0.0324 -0.8493
  197DG     C18 4526   4.814   2.811   2.582  0.1314  0.1127 -0.3797
  197DG     O19 4527   4.843   2.878   2.710  0.2584  0.2973  0.3810
  197DG     H20 4528   4.730   2.948   2.870 -1.5698 -1.3940  0.8887
  197DG     H21 4529   4.637   2.881   2.744  0.7301  0.6821 -1.4264
  197DG     H22 4530   4.731   2.852   2.525  1.0285 -0.4619 -2.1686
  197DG     H23 4531   4.790   2.705   2.590  0.4535  0.0586 -0.1107
  198DG      C1 4532   2.305   0.591   4.795  0.7523  0.0359 -0.1319
  198DG      C2 4533   2.096  -0.002   4.834  0.4635  0.1326  0.0420
  198DG      H3 4534   2.203   0.628   4.781  1.1115  0.3551 -2.2677
  198DG      H4 4535   2.330   0.549   4.698  1.9802 -0.7264  0.4912
  198DG      H5 4536   2.385   0.664   4.808 -0.0967  0.9762 -0.1023
  198DG      H6 4537   2.091   0.013   4.726 -1.4153 -0.9004 -0.0504
  198DG      H7 4538   2.115  -0.106   4.860  4.1871  0.7889  0.4468
  198DG      H8 4539   1.996   0.018   4.871  0.6227  0.5646  0.2451
  198DG      O9 4540   2.328   0.495   4.889 -0.0836  0.6397  0.3688
  198DG     O10 4541   2.191   0.075   4.894 -0.5525  0.0341  0.0296
  198DG     C11 4542   2.278   0.526   5.024 -0.3376  0.0288 -0.4126
  198DG     C12 4543   2.212   0.051   5.034  0.0102 -0.3543 -0.9949
  198DG     H13 4544   2.173   0.554   5.032 -1.1717 -3.0548  0.6584
  198DG     H14 4545   2.319   0.616   5.071 -1.9855  0.6437 -0.0808
  198DG     H15 4546   2.255  -0.047   5.051 -0.1410 -0.1194  0.9465
  198DG     H16 4547   2.121   0.051   5.093  0.9749 -1.4074  0.5695
  198DG     C17 4548   2.299   0.405   5.112  0.3070  0.2633 -0.1284
  198DG     C18 4549   2.297   0.164   5.097  0.1837 -0.2034 -0.4035
  198DG     O19 4550   2.238   0.288   5.059 -0.0793 -0.2563  0.1503
  198DG     H20 4551   2.277   0.413   5.218  0.5219  0.0160 -0.0670
  198DG     H21 4552   2.405   0.383   5.104  0.0461 -1.1999  0.3256
  198DG     H22 4553   2.296   0.158   5.206 -1.7562 -1.3476 -0.4396
  198DG     H23 4554   2.400   0.149   5.065  0.3819  1.0509 -0.4006
  199DG      C1 4555   4.722   3.519   1.438 -0.0988 -0.4370  0.5457
  199DG      C2 4556   5.301   3.228   1.671  0.2905 -0.2518  0.4403
  199DG      H3 4557   4.614   3.519   1.424 -0.0762  0.2855  0.2751
  199DG      H4 4558   4.773   3.518   1.342 -0.2011  1.0048  0.4470
  199DG      H5 4559   4.759   3.609   1.487 -0.5228  1.1099 -1.7850
  199DG      H6 4560   5.327   3.322   1.721  0.2139  0.0439 -0.0711
  199DG      H7 4561   5.364   3.145   1.702  1.7454 -0.6320 -3.0355
  199DG      H8 4562   5.333   3.244   1.568  2.0672 -0.9001  0.8606
  199DG      O9 4563   4.762   3.424   1.532 -0.2271  0.1002 -0.0669
  199DG     O10 4564   5.163   3.207   1.702 -0.2071  0.3540  0.6559
  199DG     C11 4565   4.731   3.288   1.499 -0.1464 -0.6163 -0.3173
  199DG     C12 4566   5.118   3.079   1.667 -0.4522  1.0158 -0.0564
  199DG     H13 4567   4.777   3.278   1.400 -0.4875  2.3712 -0.8716
  199DG     H14 4568   4.623   3.278   1.487 -0.5963  2.7345 -0.1280
  199DG     H15 4569   5.183   3.024   1.735 -0.7902  1.2973  0.5104
  199DG     H16 4570   5.145   3.060   1.564  1.0979 -0.0654  0.5236
  199DG     C17 4571   4.770   3.187   1.611 -0.0392  0.3296 -0.4447
  199DG     C18 4572   4.967   3.080   1.700 -0.4755  0.5560 -0.1494
  199DG     O19 4573   4.913   3.170   1.608  0.6558 -0.4357  0.3475
  199DG     H20 4574   4.705   3.100   1.597 -3.1616  2.1879  1.3033
  199DG     H21 4575   4.741   3.226   1.709  2.2939 -0.4057  0.5996
  199DG     H22 4576   4.921   2.981   1.688  3.0436 -1.1108 -1.4116
  199DG     H23 4577   4.948   3.116   1.801 -0.0413  1.6077 -0.4323
  200DG      C1 4578   1.908   3.855   3.974  0.0055 -0.3654  0.4413
  200DG      C2 4579   2.551   3.491   3.874 -0.3074 -0.1922  0.0016
  200DG      H3 4580   1.852   3.773   4.019  0.0030 -1.2525 -1.1231
  200DG      H4 4581   1.839   3.935   3.949  1.2502  0.7887  0.5944
  200DG      H5 4582   1.981   3.889   4.049 -1.4180  1.5494  1.0157
  200DG      H6 4583   2.639   3.542   3.835  0.0320  0.2266  1.2651
  200DG      H7 4584   2.485   3.570   3.910 -0.0965 -0.4761  1.0582
  200DG      H8 4585   2.578   3.435   3.964 -0.4983 -1.0179 -0.4398
  200DG      O9 4586   1.979   3.805   3.862  0.1484  0.0896 -0.6551
  200DG     O10 4587   2.485   3.429   3.763  0.3373 -0.0004  0.1428
  200DG     C11 4588   2.073   3.704   3.893  0.6040 -0.1029  0.2729
  200DG     C12 4589   2.376   3.341   3.795  0.1475 -0.8029  0.0015
  200DG     H13 4590   2.037   3.654   3.983 -1.6503  0.2723 -0.3444
  200DG     H14 4591   2.168   3.750   3.920 -0.2107  0.9719  1.4929
  200DG     H15 4592   2.375   3.298   3.896 -0.6060 -0.6882  0.0448
  200DG     H16 4593   2.387   3.253   3.731 -1.3282 -0.0996 -1.2607
  200DG     C17 4594   2.103   3.598   3.783  0.3372  0.5042 -0.1607
  200DG     C18 4595   2.245   3.407   3.740  0.2017  0.6036  0.3189
  200DG     O19 4596   2.215   3.522   3.822  0.4797  0.2886  0.1480
  200DG     H20 4597   2.116   3.656   3.692  0.0206  0.4954 -0.2118
  200DG     H21 4598   2.014   3.535   3.788  1.9049 -1.8290 -0.0389
  200DG     H22 4599   2.259   3.429   3.634  1.8145 -1.1523  0.1209
  200DG     H23 4600   2.156   3.344   3.749  1.0499 -1.4056 -3.2612
  201DG      C1 4601   5.068   3.327   1.276  0.2405  0.0766  0.2831
  201DG      C2 4602   4.818   3.616   1.813  0.2224  0.3505 -0.3028
  201DG      H3 4603   5.149   3.257   1.299  0.3532 -0.3960 -1.3982
  201DG      H4 4604   5.084   3.366   1.175  2.0688  0.1932  0.5834
  201DG      H5 4605   4.972   3.275   1.284  1.0580 -1.4808  0.4711
  201DG      H6 4606   4.743   3.539   1.793  0.2760 -0.0954  1.1190
  201DG      H7 4607   4.798   3.650   1.915  2.8396 -0.2997  0.4863
  201DG      H8 4608   4.795   3.692   1.738 -1.7937 -2.1693 -2.4167
  201DG      O9 4609   5.058   3.433   1.372  0.1718 -0.5432 -0.9934
  201DG     O10 4610   4.943   3.566   1.794 -0.0646  0.2834  0.0690
  201DG     C11 4611   5.156   3.530   1.350  0.3962  0.6515  0.0436
  201DG     C12 4612   5.055   3.654   1.812 -0.2958  0.6397  0.0820
  201DG     H13 4613   5.155   3.575   1.251 -3.7701  0.0222 -0.3627
  201DG     H14 4614   5.250   3.476   1.360 -0.3579 -0.4337  1.8858
  201DG     H15 4615   5.138   3.614   1.869  1.6483  3.6724 -0.3984
  201DG     H16 4616   5.022   3.734   1.879 -0.5040  0.2201  0.4889
  201DG     C17 4617   5.145   3.648   1.444 -0.3396  0.6521 -0.4340
  201DG     C18 4618   5.097   3.703   1.671 -0.1007 -0.5460 -0.1331
  201DG     O19 4619   5.107   3.599   1.573 -0.3061 -0.8229  0.5476
  201DG     H20 4620   5.077   3.725   1.407 -1.5112 -0.0149  0.2375
  201DG     H21 4621   5.242   3.695   1.456 -0.2695  0.0912  1.4051
  201DG     H22 4622   5.024   3.778   1.640 -0.2041 -0.7286 -0.3351
  201DG     H23 4623   5.193   3.753   1.674 -0.2193 -0.2050 -1.4928
  202DG      C1 4624   1.676   2.323   3.483 -0.7404 -0.3257 -0.0704
  202DG      C2 4625   1.216   1.761   3.604  0.0363  0.0539 -0.4024
  202DG      H3 4626   1.779   2.356   3.492 -0.5482 -1.0671  0.5401
  202DG      H4 4627   1.608   2.406   3.461 -2.1569 -1.4303 -0.0635
  202DG      H5 4628   1.673   2.247   3.405  0.3904 -0.8994  0.4235
  202DG      H6 4629   1.173   1.693   3.677  2.0569 -2.3013 -1.2435
  202DG      H7 4630   1.141   1.808   3.540 -0.0245  0.0268 -0.3507
  202DG      H8 4631   1.271   1.690   3.542 -2.8188 -0.6280 -2.3356
  202DG      O9 4632   1.635   2.272   3.610 -0.8652 -0.1544 -0.0714
  202DG     O10 4633   1.291   1.870   3.658 -0.0452  0.1901  0.1758
  202DG     C11 4634   1.726   2.179   3.667 -0.5186  0.3099  0.2475
  202DG     C12 4635   1.393   1.836   3.744  0.3854 -0.0609  0.3925
  202DG     H13 4636   1.817   2.228   3.700 -0.9051  0.5624  0.9682
  202DG     H14 4637   1.752   2.104   3.592  1.4380  0.9242  0.2757
  202DG     H15 4638   1.463   1.769   3.694  0.1903 -1.5447  2.0005
  202DG     H16 4639   1.352   1.782   3.830 -0.3308  0.2625  0.2600
  202DG     C17 4640   1.648   2.105   3.779 -0.1534 -0.3945  0.4519
  202DG     C18 4641   1.464   1.956   3.808 -0.1579 -0.7386  0.3534
  202DG     O19 4642   1.541   2.033   3.715 -0.1500 -0.5569 -0.2304
  202DG     H20 4643   1.621   2.159   3.869  0.2928 -0.6984  0.7757
  202DG     H21 4644   1.716   2.030   3.820 -0.5511 -0.9257  0.1539
  202DG     H22 4645   1.391   2.022   3.854  0.4740  0.1090  0.1568
  202DG     H23 4646   1.539   1.925   3.881  1.0500 -0.7179 -0.8420
  203DG      C1 4647   0.139   1.742   2.955  0.0683 -0.4626  0.1030
  203DG      C2 4648  -0.323   1.616   3.134 -0.4362 -0.6906  0.3515
  203DG      H3 4649   0.181   1.836   2.918 -0.9623 -0.0628 -0.0645
  203DG      H4 4650   0.172   1.657   2.895  0.5979  1.4562 -2.4991
  203DG      H5 4651   0.174   1.738   3.058  0.6555 -2.0759 -0.1252
  203DG      H6 4652  -0.339   1.511   3.161 -0.5461 -0.3928  1.4879
  203DG      H7 4653  -0.226   1.620   3.085 -0.2795  0.2027  0.7160
  203DG      H8 4654  -0.311   1.680   3.221  1.4925 -0.0659 -0.3310
  203DG      O9 4655  -0.006   1.744   2.937 -1.0211 -0.1020 -0.0950
  203DG     O10 4656  -0.437   1.668   3.054 -0.2595  0.3474 -0.1400
  203DG     C11 4657  -0.038   1.750   2.793  0.6304 -0.0635  0.2511
  203DG     C12 4658  -0.456   1.604   2.922  0.0869 -0.1546 -0.3918
  203DG     H13 4659  -0.010   1.659   2.740  2.6694  1.4998 -1.5214
  203DG     H14 4660   0.018   1.819   2.731  0.2887 -1.2641 -1.4604
  203DG     H15 4661  -0.562   1.606   2.898 -0.1759 -0.2992  0.6986
  203DG     H16 4662  -0.424   1.500   2.915  2.0081  0.4712 -1.5930
  203DG     C17 4663  -0.179   1.774   2.770 -0.1767 -0.1270 -0.7769
  203DG     C18 4664  -0.391   1.686   2.811 -0.9193  0.3606  0.2012
  203DG     O19 4665  -0.254   1.672   2.829 -0.3060 -0.3827 -0.3087
  203DG     H20 4666  -0.191   1.778   2.661 -0.8816  0.0952 -0.6969
  203DG     H21 4667  -0.211   1.872   2.807  0.3461  0.3111 -1.4463
  203DG     H22 4668  -0.425   1.655   2.712  1.4224  1.9614 -1.1990
  203DG     H23 4669  -0.428   1.787   2.830 -1.7077 -0.1964  1.7296
  204DG      C1 4670   4.012   3.068   1.932 -0.1102 -0.2618  0.3709
  204DG      C2 4671   4.058   2.168   1.983  0.3253 -0.6062  0.4863
  204DG      H3 4672   4.079   3.124   1.997  0.1002 -0.2151  0.1132
  204DG      H4 4673   3.914   3.065   1.981 -0.3136 -1.8984 -0.0806
  204DG      H5 4674   3.997   3.120   1.838 -0.2597  0.9577  1.0549
  204DG      H6 4675   3.961   2.127   2.010  1.4824 -2.8440  1.4776
  204DG      H7 4676   4.116   2.088   1.937  0.2208 -1.0620  1.1429
  204DG      H8 4677   4.102   2.181   2.082 -1.3318  0.6354  1.1030
  204DG      O9 4678   4.066   2.936   1.904 -0.2629  0.4131  0.5111
  204DG     O10 4679   4.063   2.278   1.886 -0.3384  0.4498  0.4153
  204DG     C11 4680   4.005   2.866   1.797  0.1846  0.1254  0.0948
  204DG     C12 4681   4.004   2.404   1.914 -0.6431 -0.2321 -0.4514
  204DG     H13 4682   3.987   2.915   1.701  0.1914  2.6547  1.2942
  204DG     H14 4683   3.901   2.842   1.823 -0.0916  1.7537  0.6264
  204DG     H15 4684   4.041   2.420   2.016 -2.1653 -0.9930  0.2418
  204DG     H16 4685   3.896   2.399   1.913 -0.5953 -2.6220 -0.7583
  204DG     C17 4686   4.073   2.736   1.762 -0.3601 -0.6201  0.4178
  204DG     C18 4687   4.065   2.502   1.815 -0.4004 -0.4217 -0.1590
  204DG     O19 4688   4.042   2.638   1.857 -0.3584 -0.1308  0.2905
  204DG     H20 4689   4.180   2.759   1.761 -0.3294 -0.6242  1.9031
  204DG     H21 4690   4.025   2.722   1.665 -1.2263  2.6376  0.2485
  204DG     H22 4691   4.173   2.487   1.813 -0.5551 -3.0295  3.1742
  204DG     H23 4692   4.019   2.482   1.718 -0.2235 -1.1088 -0.1065
  205DG      C1 4693   2.696   1.375   2.540  0.4247  0.4834 -0.1920
  205DG      C2 4694   2.686   0.917   3.283  0.6107 -0.1548  0.1924
  205DG      H3 4695   2.791   1.332   2.509  0.6228  1.2476 -0.6796
  205DG      H4 4696   2.700   1.484   2.541  0.2187  0.5091  1.7826
  205DG      H5 4697   2.612   1.354   2.473  0.4988 -0.7798  0.0761
  205DG      H6 4698   2.617   0.832   3.284  0.0505  0.2886  0.8342
  205DG      H7 4699   2.786   0.880   3.303  1.3702  2.5459  1.9073
  205DG      H8 4700   2.651   0.997   3.349  0.2813 -0.5785  0.5445
  205DG      O9 4701   2.660   1.334   2.674  0.2704  0.0823  0.1306
  205DG     O10 4702   2.663   0.990   3.159  0.2322 -0.1418  0.3282
  205DG     C11 4703   2.649   1.197   2.702  0.2609  1.0041 -0.1208
  205DG     C12 4704   2.715   0.913   3.055  0.6775 -0.0492 -0.0524
  205DG     H13 4705   2.748   1.153   2.703  0.4271  1.2422  2.9118
  205DG     H14 4706   2.597   1.145   2.621 -0.7957  2.0939 -0.1653
  205DG     H15 4707   2.645   0.829   3.048  1.1500 -0.5240  0.7339
  205DG     H16 4708   2.816   0.879   3.078  0.0959 -1.0330  1.1340
  205DG     C17 4709   2.599   1.179   2.842 -0.3602  0.2439  0.7615
  205DG     C18 4710   2.722   0.983   2.917 -0.4067 -0.2562  0.0315
  205DG     O19 4711   2.604   1.042   2.872 -0.5482 -0.5436  0.3271
  205DG     H20 4712   2.500   1.225   2.837 -0.9778 -1.1025  0.2922
  205DG     H21 4713   2.653   1.247   2.909  1.3481 -0.3000  0.0070
  205DG     H22 4714   2.798   1.060   2.910 -1.4739  0.8551  0.3935
  205DG     H23 4715   2.742   0.909   2.840  0.5124  0.0197 -0.0063
  206DG      C1 4716   1.754   4.179   0.118 -0.2661  1.1264 -0.1160
  206DG      C2 4717   2.079   4.214   0.667 -0.2310  0.6237  0.3610
  206DG      H3 4718   1.857   4.202   0.093 -0.9858  2.6519 -1.9179
  206DG      H4 4719   1.713   4.277   0.145 -0.9669  0.8924 -0.3093
  206DG      H5 4720   1.699   4.149   0.029 -0.1001  1.4736 -0.3378
  206DG      H6 4721   2.177   4.202   0.621 -0.7457  3.2368 -1.6168
  206DG      H7 4722   2.065   4.322   0.668  1.1736  0.8601  2.7215
  206DG      H8 4723   2.084   4.166   0.765  0.8759 -1.4665 -0.6343
  206DG      O9 4724   1.747   4.084   0.221 -0.5308  0.3992  0.1401
  206DG     O10 4725   1.974   4.155   0.593  0.0720 -0.0294 -0.0838
  206DG     C11 4726   1.617   4.082   0.282 -0.6591 -0.3758  0.1949
  206DG     C12 4727   1.846   4.142   0.669 -0.9691 -0.2325 -0.0366
  206DG     H13 4728   1.539   4.039   0.218  0.1642 -0.0974 -1.0412
  206DG     H14 4729   1.590   4.182   0.314 -1.1239  0.2625 -1.9944
  206DG     H15 4730   1.827   4.225   0.738  0.1795  1.1288 -1.2730
  206DG     H16 4731   1.848   4.056   0.735 -2.4572 -0.4679 -0.2745
  206DG     C17 4732   1.630   3.988   0.405 -0.2071 -0.1785  0.3356
  206DG     C18 4733   1.727   4.133   0.576 -0.3150  0.1059 -0.6841
  206DG     O19 4734   1.742   4.022   0.481  0.2440 -0.3646  0.4598
  206DG     H20 4735   1.638   3.887   0.366 -0.4195  0.3405 -1.1123
  206DG     H21 4736   1.540   3.984   0.465 -0.2944  0.0424  0.2198
  206DG     H22 4737   1.637   4.135   0.637  0.3552 -1.4778  0.4055
  206DG     H23 4738   1.730   4.221   0.511  0.1157  1.0214  0.5369
  207DG      C1 4739   1.606   2.319   4.164 -0.6773 -0.4733 -0.2663
  207DG      C2 4740   1.860   2.127   4.860  0.9863  0.3961  0.3420
  207DG      H3 4741   1.506   2.341   4.202  0.3054  2.0158  1.1077
  207DG      H4 4742   1.594   2.294   4.058  3.1712 -0.2223 -0.9083
  207DG      H5 4743   1.654   2.417   4.158 -0.0479 -0.8354 -1.4025
  207DG      H6 4744   1.922   2.055   4.914 -0.5308 -0.7506  0.6420
  207DG      H7 4745   1.895   2.224   4.892 -1.0360  1.4068 -0.2956
  207DG      H8 4746   1.765   2.113   4.913  0.2451  0.8921 -0.8158
  207DG      O9 4747   1.683   2.234   4.245 -0.3059 -0.4892  0.2509
  207DG     O10 4748   1.845   2.114   4.718  0.1709 -0.1776 -0.2247
  207DG     C11 4749   1.640   2.099   4.245  0.1640 -0.6071  0.2906
  207DG     C12 4750   1.774   1.997   4.690 -0.2594  0.2692  0.7899
  207DG     H13 4751   1.633   2.058   4.145  0.2235 -1.0914  0.4811
  207DG     H14 4752   1.545   2.090   4.298  0.0906  1.8443  0.6747
  207DG     H15 4753   1.671   2.006   4.724  0.3663  3.5573  2.3001
  207DG     H16 4754   1.820   1.918   4.749  0.2485 -0.0724 -0.0475
  207DG     C17 4755   1.738   2.009   4.320  0.2705  0.4929 -0.0837
  207DG     C18 4756   1.791   1.956   4.547 -0.5043 -0.0225 -0.3063
  207DG     O19 4757   1.720   2.041   4.456  0.7553 -0.1353  0.2513
  207DG     H20 4758   1.843   2.017   4.290  0.3532 -0.7821 -0.1944
  207DG     H21 4759   1.710   1.905   4.310 -0.1138  0.5281  0.6004
  207DG     H22 4760   1.898   1.956   4.527  0.1135  2.6975  2.2348
  207DG     H23 4761   1.748   1.857   4.528  0.7671 -0.1624 -2.9116
  208DG      C1 4762   3.294   1.470   3.307  0.0491  0.1051 -0.5328
  208DG      C2 4763   3.931   1.520   3.018  0.4347 -0.2795 -0.0178
  208DG      H3 4764   3.306   1.535   3.394  0.7016  2.2671 -2.1250
  208DG      H4 4765   3.311   1.365   3.327 -0.2600  0.1016 -0.2820
  208DG      H5 4766   3.187   1.479   3.289 -0.4792  0.5870  2.4320
  208DG      H6 4767   3.952   1.612   2.963  1.6032 -1.0312 -0.8942
  208DG      H7 4768   3.950   1.545   3.122  0.4885 -1.0450  0.1609
  208DG      H8 4769   3.994   1.434   2.995  1.6907  0.3905  0.7836
  208DG      O9 4770   3.369   1.502   3.199  0.3671 -0.5589  0.2362
  208DG     O10 4771   3.789   1.506   3.007 -0.0400 -0.6420  0.5592
  208DG     C11 4772   3.318   1.439   3.080 -0.1906  0.3704  0.1226
  208DG     C12 4773   3.747   1.439   2.889  0.3949  0.5225  0.3751
  208DG     H13 4774   3.210   1.450   3.071 -0.0650  0.1537 -2.5484
  208DG     H14 4775   3.342   1.333   3.089  1.1039  0.6889  0.6057
  208DG     H15 4776   3.752   1.333   2.915 -0.5267  0.4941  0.4629
  208DG     H16 4777   3.818   1.452   2.807  0.5134 -1.9875  0.0032
  208DG     C17 4778   3.393   1.494   2.961 -0.1447  0.1556 -0.1366
  208DG     C18 4779   3.603   1.473   2.851  0.0106  0.3252 -0.1384
  208DG     O19 4780   3.527   1.452   2.971  0.2842  0.2115  0.2444
  208DG     H20 4781   3.383   1.602   2.968 -1.2800  0.0673 -0.2548
  208DG     H21 4782   3.347   1.468   2.866 -0.7949 -1.3477  0.5559
  208DG     H22 4783   3.583   1.574   2.817  1.7290  0.5546 -0.5486
  208DG     H23 4784   3.573   1.408   2.768 -0.7944  0.3405  0.1302
  209DG      C1 4785   2.998   2.451   2.801  0.6247 -0.3790 -0.1381
  209DG      C2 4786   2.744   2.109   2.276  0.5925 -0.7901  0.4082
  209DG      H3 4787   3.055   2.534   2.759 -1.0702 -0.2226 -2.3134
  209DG      H4 4788   3.071   2.370   2.803  0.1123 -0.8376  0.2213
  209DG      H5 4789   2.970   2.485   2.900 -0.2283  0.1338 -0.5439
  209DG      H6 4790   2.844   2.102   2.232  1.3572  1.0606  1.7468
  209DG      H7 4791   2.735   2.037   2.357 -2.0166 -0.3315  0.6055
  209DG      H8 4792   2.673   2.084   2.197  1.0723 -0.2669 -0.1987
  209DG      O9 4793   2.881   2.421   2.714  0.2510  0.1821  0.3158
  209DG     O10 4794   2.718   2.244   2.320  0.2213  0.1507 -0.6023
  209DG     C11 4795   2.798   2.528   2.695 -0.0690 -0.3166  0.4268
  209DG     C12 4796   2.584   2.264   2.368 -0.3023  0.5171  0.5469
  209DG     H13 4797   2.846   2.591   2.621 -0.1349 -1.6928 -0.8336
  209DG     H14 4798   2.802   2.574   2.794  2.0276  2.1685 -0.7228
  209DG     H15 4799   2.548   2.175   2.419 -1.4269  1.7309  1.9387
  209DG     H16 4800   2.523   2.272   2.277  1.1334  1.3062 -0.3942
  209DG     C17 4801   2.655   2.490   2.638 -0.6315 -0.5597 -0.3826
  209DG     C18 4802   2.571   2.380   2.452  0.8929 -1.0421 -0.1909
  209DG     O19 4803   2.674   2.387   2.544 -0.7544  0.3925  0.0943
  209DG     H20 4804   2.624   2.580   2.584 -0.2749  0.3462  0.8905
  209DG     H21 4805   2.588   2.463   2.719  2.4775 -1.7589  1.9906
  209DG     H22 4806   2.568   2.471   2.392  1.8583 -0.9340 -0.0878
  209DG     H23 4807   2.476   2.367   2.504  2.2139 -1.9590  2.1632
  210DG      C1 4808   4.885   2.148   3.854  0.3809  0.1736  0.0519
  210DG      C2 4809   4.324   1.835   3.968  0.1365 -0.0898  0.3064
  210DG      H3 4810   4.974   2.153   3.792  0.1408  0.2035 -0.2970
  210DG      H4 4811   4.924   2.159   3.955  0.2420 -0.8124  0.2253
  210DG      H5 4812   4.818   2.231   3.829 -3.5800 -2.6021  0.4319
  210DG      H6 4813   4.348   1.922   4.030 -0.4442  2.5500 -2.9261
  210DG      H7 4814   4.265   1.886   3.892  2.6935  3.3277  0.4101
  210DG      H8 4815   4.267   1.757   4.020 -0.7651 -0.2015 -0.8137
  210DG      O9 4816   4.830   2.019   3.836  0.5268 -1.0550 -0.2274
  210DG     O10 4817   4.439   1.787   3.906  0.1299 -0.1150  0.0366
  210DG     C11 4818   4.923   1.916   3.860  0.6737  0.0397 -0.5680
  210DG     C12 4819   4.521   1.698   3.988  0.1548  0.1844 -0.0460
  210DG     H13 4820   4.951   1.910   3.965  1.0139 -2.4369 -0.7480
  210DG     H14 4821   5.013   1.926   3.800  2.3143 -0.2982  1.7510
  210DG     H15 4822   4.470   1.604   4.005  0.4685 -0.1652 -0.9491
  210DG     H16 4823   4.549   1.746   4.081  1.7900 -1.4125  0.3481
  210DG     C17 4824   4.841   1.783   3.847 -1.0396 -0.8638 -0.4326
  210DG     C18 4825   4.643   1.667   3.910  0.0591  1.0257 -0.3714
  210DG     O19 4826   4.707   1.796   3.895  0.2723  0.6528 -0.1661
  210DG     H20 4827   4.912   1.726   3.907  2.6804  2.3612 -1.3687
  210DG     H21 4828   4.842   1.748   3.744  1.3838 -1.7557 -0.1627
  210DG     H22 4829   4.701   1.593   3.965  0.1322  1.7484  0.5626
  210DG     H23 4830   4.624   1.626   3.811  1.7849 -1.1265  0.1070
  211DG      C1 4831   4.399   2.419   5.081  0.0266  0.0214  0.0441
  211DG      C2 4832   3.812   2.546   5.505  0.0368 -0.0164 -0.6418
  211DG      H3 4833   4.446   2.408   5.179 -0.5108 -0.8121  0.2222
  211DG      H4 4834   4.422   2.522   5.054 -0.2038 -0.5720 -2.6223
  211DG      H5 4835   4.447   2.361   5.003 -0.9363  1.0449 -1.3487
  211DG      H6 4836   3.879   2.612   5.559 -2.1959  2.1546 -0.3382
  211DG      H7 4837   3.719   2.595   5.476 -0.9010 -0.7565  0.9540
  211DG      H8 4838   3.801   2.473   5.586 -0.6068  2.2730  1.4659
  211DG      O9 4839   4.254   2.404   5.091 -0.4463 -0.6280 -0.6137
  211DG     O10 4840   3.882   2.479   5.397 -0.1229 -0.4387 -0.1331
  211DG     C11 4841   4.206   2.277   5.089  0.7913  0.1091 -0.2999
  211DG     C12 4842   3.810   2.357   5.352  0.9693 -0.7309 -0.4003
  211DG     H13 4843   4.240   2.225   5.178 -1.2979 -1.3905 -0.2988
  211DG     H14 4844   4.251   2.221   5.007  1.1341 -0.2149  0.1056
  211DG     H15 4845   3.703   2.375   5.355  1.2846  1.3818  1.7740
  211DG     H16 4846   3.825   2.274   5.421 -1.8361 -1.6013 -0.7285
  211DG     C17 4847   4.050   2.262   5.086 -0.0736 -0.4583  0.0405
  211DG     C18 4848   3.851   2.307   5.211  0.7549 -0.5131 -0.1045
  211DG     O19 4849   3.989   2.311   5.209 -0.1954 -0.6012 -0.0894
  211DG     H20 4850   4.029   2.155   5.074  2.2811 -0.8575 -1.1464
  211DG     H21 4851   4.014   2.313   4.997 -1.9230  0.0206  1.0262
  211DG     H22 4852   3.820   2.207   5.181  2.2729 -1.0492 -0.0096
  211DG     H23 4853   3.806   2.369   5.134  0.7411  1.5851  1.5072
  212DG      C1 4854   3.420   0.624   1.789 -0.6037 -0.9787 -0.2835
  212DG      C2 4855   3.491   0.908   1.205  0.1644 -0.2401  0.0406
  212DG      H3 4856   3.430   0.554   1.872 -0.4541 -0.3568  0.2272
  212DG      H4 4857   3.323   0.673   1.781 -0.2300 -0.2509 -0.4588
  212DG      H5 4858   3.477   0.708   1.827  0.3881 -1.2980 -1.0211
  212DG      H6 4859   3.508   0.929   1.099  0.8683  0.2377  0.2384
  212DG      H7 4860   3.387   0.928   1.229  0.6233 -0.5710  2.6082
  212DG      H8 4861   3.547   0.978   1.268 -0.1660  0.2217 -0.1701
  212DG      O9 4862   3.477   0.574   1.666  0.2562  0.2566  0.1417
  212DG     O10 4863   3.531   0.781   1.243  0.2900  0.8203  0.0962
  212DG     C11 4864   3.611   0.531   1.677 -0.6247  0.5665  0.0843
  212DG     C12 4865   3.672   0.762   1.259 -0.4803  0.1670 -0.8874
  212DG     H13 4866   3.608   0.442   1.740 -2.3177  0.2147 -0.4308
  212DG     H14 4867   3.671   0.606   1.729  0.4059  0.0958 -0.4039
  212DG     H15 4868   3.721   0.849   1.303 -0.1963 -0.9796  1.1755
  212DG     H16 4869   3.709   0.754   1.157 -0.3777 -2.4773 -0.7109
  212DG     C17 4870   3.664   0.499   1.531  0.4584  0.8980 -0.3740
  212DG     C18 4871   3.697   0.618   1.324 -0.5715  0.6596  0.5660
  212DG     O19 4872   3.630   0.614   1.452 -0.5468  0.6391  0.0052
  212DG     H20 4873   3.612   0.408   1.499 -0.0167  0.8328  0.5219
  212DG     H21 4874   3.772   0.488   1.531  0.2613 -2.2733  1.3890
  212DG     H22 4875   3.656   0.541   1.258  0.0025 -0.5502  1.5888
  212DG     H23 4876   3.802   0.610   1.351 -0.5317  1.5496  0.7204
  213DG      C1 4877   4.867   1.962   2.673 -0.3102  0.0308 -0.0737
  213DG      C2 4878   5.287   1.288   2.342 -0.5480 -0.0742 -0.0444
  213DG      H3 4879   4.841   1.925   2.772 -0.1967  1.3617  0.4779
  213DG      H4 4880   4.788   1.933   2.604  0.5285 -0.3378 -0.9137
  213DG      H5 4881   4.879   2.071   2.673 -1.6765  0.1991  1.0918
  213DG      H6 4882   5.300   1.298   2.449  0.2174  2.7169 -0.3162
  213DG      H7 4883   5.207   1.215   2.325  0.8187 -1.1129 -2.5761
  213DG      H8 4884   5.379   1.249   2.298 -1.7862 -1.2657 -1.7225
  213DG      O9 4885   4.991   1.911   2.630 -0.4092 -0.2353  0.4960
  213DG     O10 4886   5.262   1.418   2.293 -0.4451  0.1376 -0.2302
  213DG     C11 4887   5.012   1.947   2.489 -0.2907  0.3453  0.3609
  213DG     C12 4888   5.163   1.490   2.361  0.1232  0.2897 -0.1159
  213DG     H13 4889   5.040   2.052   2.495 -0.9358  0.5522 -0.1858
  213DG     H14 4890   4.924   1.943   2.425  0.3205  3.3395 -0.8100
  213DG     H15 4891   5.180   1.464   2.466 -0.5707 -0.7072 -0.2361
  213DG     H16 4892   5.064   1.468   2.321 -0.1370  1.1913  0.0146
  213DG     C17 4893   5.124   1.859   2.415 -0.3690 -0.7008 -0.0740
  213DG     C18 4894   5.173   1.644   2.338 -0.0116  0.3318 -0.8371
  213DG     O19 4895   5.093   1.725   2.422  0.0689  0.1902  0.0864
  213DG     H20 4896   5.227   1.880   2.443 -0.2928  0.6081 -1.2029
  213DG     H21 4897   5.119   1.886   2.309 -1.0182 -1.2318 -0.1852
  213DG     H22 4898   5.274   1.686   2.346 -0.0951  0.2204  1.3992
  213DG     H23 4899   5.136   1.667   2.238 -0.6821  0.7952 -0.4895
  214DG      C1 4900   1.563   1.478   3.804 -0.4650  1.0367  0.5635
  214DG      C2 4901   1.210   0.890   3.869 -0.2470 -0.6376  0.1216
  214DG      H3 4902   1.499   1.516   3.724  0.4849  0.7376 -0.3765
  214DG      H4 4903   1.661   1.507   3.767 -0.5032 -0.7501 -1.1117
  214DG      H5 4904   1.537   1.549   3.882 -0.0717  1.2543  0.4957
  214DG      H6 4905   1.185   0.791   3.904  1.2006 -1.2849 -0.5605
  214DG      H7 4906   1.167   0.967   3.932  1.4449 -1.0018  1.7920
  214DG      H8 4907   1.160   0.901   3.772  0.2950 -0.2954 -0.1260
  214DG      O9 4908   1.534   1.341   3.831 -0.4654  0.1167  0.2469
  214DG     O10 4909   1.352   0.905   3.866  0.0166 -0.1823  0.2207
  214DG     C11 4910   1.606   1.310   3.945  0.1634  0.0531  0.6808
  214DG     C12 4911   1.420   0.898   3.990  0.2249  0.6461 -0.3687
  214DG     H13 4912   1.580   1.375   4.029  0.9762  0.3401  0.7097
  214DG     H14 4913   1.714   1.316   3.937  0.1564  0.8192  1.0741
  214DG     H15 4914   1.412   0.802   4.041  1.4736  2.0728  2.8213
  214DG     H16 4915   1.371   0.975   4.050 -0.1844  0.9096 -1.0284
  214DG     C17 4916   1.554   1.177   3.999  0.4307 -0.5565 -1.0251
  214DG     C18 4917   1.565   0.941   3.965 -0.7037 -0.0905  0.5217
  214DG     O19 4918   1.576   1.070   3.903 -0.3470 -0.4281 -0.2326
  214DG     H20 4919   1.450   1.197   4.026  1.2012  0.9107  1.1759
  214DG     H21 4920   1.599   1.160   4.097 -0.7133  1.5162 -0.0656
  214DG     H22 4921   1.624   0.951   4.056  0.5565  1.4210 -0.3996
  214DG     H23 4922   1.610   0.862   3.906 -1.0073  1.0138 -1.2664
  215DG      C1 4923   1.923   0.563   3.433  0.1009  0.4014 -0.4045
  215DG      C2 4924   2.304   0.711   2.947  0.4421 -0.0654  0.0291
  215DG      H3 4925   1.965   0.662   3.454  0.9205  0.0708 -0.4534
  215DG      H4 4926   1.914   0.519   3.532 -0.4499  0.8357 -0.2545
  215DG      H5 4927   1.828   0.595   3.389 -0.3062  0.4184  0.4554
  215DG      H6 4928   2.408   0.701   2.916  1.0904  2.1203  1.2174
  215DG      H7 4929   2.231   0.719   2.867 -1.7410 -0.7660  1.8451
  215DG      H8 4930   2.308   0.806   3.001  2.6785  0.3491 -0.7458
  215DG      O9 4931   2.004   0.497   3.342 -0.1933  0.4703 -0.4031
  215DG     O10 4932   2.268   0.604   3.030  0.1981 -0.0938 -0.1026
  215DG     C11 4933   1.957   0.368   3.315  0.3053 -0.5439 -0.4038
  215DG     C12 4934   2.246   0.486   2.948 -0.6173  0.0195  0.2187
  215DG     H13 4935   1.858   0.374   3.269  0.0519 -1.3464  0.0333
  215DG     H14 4936   1.937   0.300   3.397 -0.0798 -0.8835 -0.7766
  215DG     H15 4937   2.331   0.454   2.888 -1.0299  0.0496 -0.3904
  215DG     H16 4938   2.167   0.511   2.878 -0.9760 -2.2708 -0.2945
  215DG     C17 4939   2.046   0.309   3.203  0.7703 -0.5830  0.1897
  215DG     C18 4940   2.199   0.374   3.030 -0.0521  0.5164  0.5869
  215DG     O19 4941   2.097   0.416   3.122 -0.4879 -0.1010 -0.2957
  215DG     H20 4942   2.001   0.227   3.147  2.8462 -1.7086  0.0796
  215DG     H21 4943   2.131   0.255   3.243  0.5190  0.2981  2.0000
  215DG     H22 4944   2.161   0.299   2.960  1.0492  0.5647 -0.0851
  215DG     H23 4945   2.275   0.324   3.090  0.2637 -0.6301 -0.7073
  216DG      C1 4946   1.972   2.710   4.079 -0.0640 -0.2587  0.5411
  216DG      C2 4947   2.031   2.732   3.374  0.4775  0.3654 -0.2009
  216DG      H3 4948   1.870   2.691   4.044  1.1395 -0.7556 -3.1117
  216DG      H4 4949   1.987   2.816   4.096  0.0036  0.0331 -1.1966
  216DG      H5 4950   1.966   2.670   4.181 -1.9439 -1.6233 -0.0411
  216DG      H6 4951   2.101   2.653   3.347 -0.0072 -0.5182  1.0586
  216DG      H7 4952   1.944   2.735   3.309 -1.2813 -0.6078  1.9820
  216DG      H8 4953   2.086   2.826   3.369  1.5909 -0.2727 -0.2352
  216DG      O9 4954   2.073   2.664   4.001 -0.7724 -0.1711  0.2723
  216DG     O10 4955   1.987   2.724   3.511 -0.0687  0.1611  0.0925
  216DG     C11 4956   2.072   2.526   3.963  0.0334  0.1355  0.7823
  216DG     C12 4957   1.927   2.595   3.539 -0.0918 -0.1158  0.0070
  216DG     H13 4958   2.056   2.469   4.054  1.2816  0.6115  1.3256
  216DG     H14 4959   2.176   2.511   3.934 -0.2080 -0.9053  0.4036
  216DG     H15 4960   1.997   2.512   3.528 -1.1110 -1.0697  0.4068
  216DG     H16 4961   1.849   2.584   3.463  0.8731  1.6938 -1.3149
  216DG     C17 4962   1.974   2.498   3.853 -0.2472 -0.1490 -0.1904
  216DG     C18 4963   1.860   2.602   3.677  0.6644 -0.5635  0.6013
  216DG     O19 4964   1.950   2.618   3.780 -0.1519 -0.4104 -0.0691
  216DG     H20 4965   1.883   2.454   3.895  0.4101 -1.5287 -0.1628
  216DG     H21 4966   2.016   2.410   3.805  1.8526 -0.6282  2.3314
  216DG     H22 4967   1.790   2.686   3.669  3.2973  1.5826 -2.5880
  216DG     H23 4968   1.786   2.522   3.677 -1.4534  1.2845  0.9728
  217DG      C1 4969   0.431   1.833   4.960 -0.0767  0.8288  0.1152
  217DG      C2 4970   0.825   1.695   5.668  0.0366 -0.9198 -0.6738
  217DG      H3 4971   0.350   1.886   5.009 -0.8050 -0.5467  0.4493
  217DG      H4 4972   0.399   1.810   4.859 -0.0632  1.7305 -0.1084
  217DG      H5 4973   0.529   1.880   4.945 -0.1806  1.8212  2.1353
  217DG      H6 4974   0.918   1.640   5.653 -0.1495 -0.9487 -1.8374
  217DG      H7 4975   0.850   1.802   5.671 -0.7629 -0.7252 -0.7643
  217DG      H8 4976   0.802   1.664   5.770 -0.5384 -2.9240 -1.3811
  217DG      O9 4977   0.443   1.711   5.049  0.0781  0.7499  0.0561
  217DG     O10 4978   0.732   1.641   5.583  0.5235 -0.4175 -0.2967
  217DG     C11 4979   0.494   1.744   5.176  0.7076 -0.1538  0.2784
  217DG     C12 4980   0.605   1.670   5.622  0.4087 -0.2081  0.4850
  217DG     H13 4981   0.423   1.810   5.225  0.3926  2.6238 -3.4784
  217DG     H14 4982   0.588   1.800   5.175 -0.3965  1.7936  0.8570
  217DG     H15 4983   0.588   1.778   5.625 -0.7600 -0.1818 -3.1332
  217DG     H16 4984   0.574   1.632   5.720  0.9223  1.6289  1.4046
  217DG     C17 4985   0.497   1.619   5.259  0.2322  0.0801  0.2209
  217DG     C18 4986   0.522   1.609   5.504 -0.4505 -0.6418 -0.1906
  217DG     O19 4987   0.577   1.640   5.375 -0.3859  0.2203 -0.1588
  217DG     H20 4988   0.539   1.544   5.192 -2.8924 -1.0964 -0.5803
  217DG     H21 4989   0.394   1.596   5.286 -0.4908  0.1822 -2.2243
  217DG     H22 4990   0.500   1.504   5.525  0.7719 -0.9862 -0.5556
  217DG     H23 4991   0.421   1.651   5.495 -1.3533 -2.6085  0.1960
  218DG      C1 4992   2.843   4.517   2.849 -0.2627  0.6281 -0.5074
  218DG      C2 4993   2.698   4.346   2.222 -0.0361  0.7465 -0.2643
  218DG      H3 4994   2.839   4.573   2.943 -1.8666  0.6148 -0.5337
  218DG      H4 4995   2.945   4.519   2.811 -0.7930  0.9194 -1.9895
  218DG      H5 4996   2.808   4.415   2.862  1.0222  0.0243 -1.5582
  218DG      H6 4997   2.693   4.239   2.199  0.1279  0.6861 -0.0338
  218DG      H7 4998   2.619   4.397   2.168 -1.0119 -1.2736 -0.8525
  218DG      H8 4999   2.799   4.375   2.192  1.5208 -2.1248  1.7022
  218DG      O9 5000   2.764   4.590   2.755 -0.2985  0.0367  0.0570
  218DG     O10 5001   2.676   4.362   2.361  0.5382  0.4761  0.3744
  218DG     C11 5002   2.629   4.583   2.788  0.1586 -0.2646 -0.4087
  218DG     C12 5003   2.550   4.306   2.402  0.3617 -0.0231  0.3302
  218DG     H13 5004   2.583   4.673   2.746  2.0106  0.9494  0.0536
  218DG     H14 5005   2.608   4.586   2.895  0.0304 -2.7886 -0.3035
  218DG     H15 5006   2.528   4.205   2.366 -1.3467 -0.0127  1.2510
  218DG     H16 5007   2.473   4.371   2.361  1.3675  1.1454  0.2186
  218DG     C17 5008   2.559   4.458   2.742  0.4671  0.1014 -0.4852
  218DG     C18 5009   2.538   4.321   2.555  0.4012  0.0932 -0.0530
  218DG     O19 5010   2.599   4.435   2.606 -0.3527  0.2710 -0.9861
  218DG     H20 5011   2.456   4.496   2.745  0.8729  1.1923  1.1907
  218DG     H21 5012   2.580   4.379   2.815 -0.1797  1.4237  1.2194
  218DG     H22 5013   2.432   4.309   2.576  1.0383 -0.3443  3.5840
  218DG     H23 5014   2.582   4.238   2.609 -0.9007 -0.5624  0.0330
  219DG      C1 5015   1.261   3.152   4.003 -0.2092 -0.9006  0.7021
  219DG      C2 5016   1.321   4.012   4.035 -0.3173  0.4143 -0.3096
  219DG      H3 5017   1.331   3.121   3.925  1.1723  1.0479  1.1038
  219DG      H4 5018   1.191   3.069   4.012  1.0851 -2.6721 -3.2001
  219DG      H5 5019   1.312   3.165   4.098 -2.0550  2.3485  1.3683
  219DG      H6 5020   1.371   4.088   3.974 -1.3962  0.6674 -0.9184
  219DG      H7 5021   1.216   4.039   4.046  0.4417  3.2668  0.8631
  219DG      H8 5022   1.355   4.020   4.138  0.3177  0.1506 -0.4975
  219DG      O9 5023   1.198   3.271   3.960 -0.7393 -0.4051  0.1190
  219DG     O10 5024   1.329   3.881   3.976 -0.0701  0.4719 -0.1107
  219DG     C11 5025   1.282   3.385   3.946 -0.3999  0.4717  0.8093
  219DG     C12 5026   1.271   3.866   3.846  0.0553  0.0192 -0.2176
  219DG     H13 5027   1.359   3.367   3.870 -1.7936  0.5141 -0.6555
  219DG     H14 5028   1.327   3.418   4.040 -0.1770  2.1164  0.1573
  219DG     H15 5029   1.344   3.891   3.770  0.6480 -0.8830  0.0292
  219DG     H16 5030   1.203   3.948   3.825 -0.0646 -0.0809 -0.2237
  219DG     C17 5031   1.204   3.497   3.886  1.2398 -0.6491 -0.3639
  219DG     C18 5032   1.197   3.734   3.826  0.1630 -0.7362  0.5245
  219DG     O19 5033   1.274   3.617   3.878 -0.2656 -0.4429 -0.5308
  219DG     H20 5034   1.113   3.513   3.945  1.6153 -0.1645  0.0931
  219DG     H21 5035   1.155   3.473   3.792 -0.7786 -2.4844  1.0739
  219DG     H22 5036   1.104   3.734   3.881 -0.3850  0.5119 -0.3564
  219DG     H23 5037   1.173   3.723   3.720  1.3340  2.4120 -0.1749
  220DG      C1 5038   4.921   0.154   0.148 -0.8430  0.4192  0.2399
  220DG      C2 5039   4.416   0.197  -0.531 -0.3332 -0.6137 -0.2121
  220DG      H3 5040   4.848   0.225   0.188 -0.9313 -0.2850  1.3803
  220DG      H4 5041   5.017   0.178   0.195 -0.7791 -1.7982  1.3518
  220DG      H5 5042   4.907   0.054   0.189  2.2110 -1.3158 -2.5608
  220DG      H6 5043   4.348   0.124  -0.486 -0.5466 -1.2992 -1.5974
  220DG      H7 5044   4.362   0.290  -0.515 -0.9468 -1.1369  0.9158
  220DG      H8 5045   4.434   0.172  -0.635  0.5783 -0.9960  0.0240
  220DG      O9 5046   4.924   0.159   0.008  0.4126  0.2721  0.2081
  220DG     O10 5047   4.543   0.183  -0.462  0.0132 -0.1175  0.1053
  220DG     C11 5048   4.802   0.131  -0.059  0.2433 -0.3641 -0.6077
  220DG     C12 5049   4.600   0.055  -0.484  0.8960 -0.2651 -0.2533
  220DG     H13 5050   4.724   0.206  -0.040  0.0396 -1.0637  1.6005
  220DG     H14 5051   4.747   0.044  -0.025 -0.5487  0.1445 -0.5463
  220DG     H15 5052   4.621   0.040  -0.590 -1.0675 -2.3568 -0.4405
  220DG     H16 5053   4.519  -0.012  -0.453 -0.2103  0.9504 -0.4170
  220DG     C17 5054   4.834   0.117  -0.208  0.1914  0.3409 -0.2075
  220DG     C18 5055   4.734   0.056  -0.416  0.3969  0.5144  0.0968
  220DG     O19 5056   4.712   0.083  -0.277 -0.1675 -0.0362  0.7106
  220DG     H20 5057   4.895   0.027  -0.209 -1.4320 -0.9266  2.4314
  220DG     H21 5058   4.873   0.208  -0.253  1.5058 -1.1397 -2.2225
  220DG     H22 5059   4.780  -0.042  -0.428  0.2308  0.7312 -3.0119
  220DG     H23 5060   4.806   0.116  -0.471 -0.3258  0.2046 -1.2239
  221DG      C1 5061   3.834   3.526   3.303  0.2045 -0.2080 -0.3792
  221DG      C2 5062   4.053   2.727   3.444  0.5170 -0.3781  0.1900
  221DG      H3 5063   3.752   3.524   3.374 -1.4850  1.1149 -2.1871
  221DG      H4 5064   3.814   3.623   3.257  1.4601 -0.2834 -1.1404
  221DG      H5 5065   3.924   3.530   3.364 -0.3644 -0.8382  0.5261
  221DG      H6 5066   4.120   2.646   3.415 -1.2058 -1.3709 -1.1675
  221DG      H7 5067   4.102   2.793   3.516  0.8378 -1.0165  0.5656
  221DG      H8 5068   3.975   2.672   3.496  1.3358 -1.5748  0.2035
  221DG      O9 5069   3.850   3.426   3.204  0.2840 -0.1142  0.0411
  221DG     O10 5070   4.002   2.788   3.330  0.7203 -0.0852 -0.4256
  221DG     C11 5071   3.869   3.298   3.270 -0.1865  0.6035 -0.1503
  221DG     C12 5072   4.099   2.876   3.271  0.5761  0.2021  0.0065
  221DG     H13 5073   3.775   3.259   3.310 -0.5530  2.3061  0.7334
  221DG     H14 5074   3.943   3.306   3.350  1.5220  0.6395 -1.6719
  221DG     H15 5075   4.159   2.810   3.208 -0.1658 -0.6291  0.1588
  221DG     H16 5076   4.173   2.910   3.344  0.4603 -0.6221  0.5187
  221DG     C17 5077   3.923   3.193   3.171  0.3907  0.2726  0.2361
  221DG     C18 5078   4.038   2.985   3.180  0.5526  0.0485 -0.0949
  221DG     O19 5079   3.960   3.084   3.254  0.2607 -0.2037 -0.6083
  221DG     H20 5080   4.000   3.224   3.100 -0.8086  0.1590 -1.1584
  221DG     H21 5081   3.848   3.156   3.102  0.9226 -0.3197 -0.0350
  221DG     H22 5082   4.126   3.040   3.144  0.2357  0.7189  0.1329
  221DG     H23 5083   3.983   2.956   3.090  1.1831  0.8230 -0.7502
  222DG      C1 5084   4.971   2.320   2.315 -0.3990  0.3118 -0.2028
  222DG      C2 5085   4.585   2.789   2.249 -0.1020  0.6039  0.6305
  222DG      H3 5086   4.980   2.227   2.372 -2.0167 -1.5693 -2.7763
  222DG      H4 5087   5.052   2.391   2.330 -2.1072  2.1889  0.6002
  222DG      H5 5088   4.970   2.287   2.211 -1.0345  0.2368 -0.1788
  222DG      H6 5089   4.655   2.865   2.214 -0.0388  0.3728  0.2434
  222DG      H7 5090   4.630   2.693   2.225 -0.5519  0.5538 -0.0510
  222DG      H8 5091   4.499   2.789   2.182  1.7367 -1.7985 -1.9463
  222DG      O9 5092   4.853   2.391   2.358  0.4895 -0.1038 -0.6725
  222DG     O10 5093   4.534   2.816   2.377  0.3587 -0.1950 -0.0176
  222DG     C11 5094   4.735   2.318   2.380  0.3993 -0.5162  0.0179
  222DG     C12 5095   4.440   2.713   2.429 -0.1692  0.3774 -0.1494
  222DG     H13 5096   4.778   2.228   2.423  2.3886  0.0913 -0.6115
  222DG     H14 5097   4.696   2.293   2.281 -0.4687 -0.0804  0.2374
  222DG     H15 5098   4.380   2.684   2.342  0.1878  0.5643 -0.4604
  222DG     H16 5099   4.370   2.760   2.498  1.2392 -1.2721  2.5694
  222DG     C17 5100   4.625   2.395   2.462  0.0726 -0.7634  0.1950
  222DG     C18 5101   4.503   2.597   2.497 -0.4629  0.5227 -0.5875
  222DG     O19 5102   4.600   2.528   2.415 -0.0939 -0.0911  0.2502
  222DG     H20 5103   4.651   2.414   2.566  3.7825 -0.0970 -0.7038
  222DG     H21 5104   4.534   2.335   2.464  0.3289 -1.1362  0.8817
  222DG     H22 5105   4.546   2.639   2.589  1.1903 -1.2121 -0.5178
  222DG     H23 5106   4.437   2.543   2.564 -0.1116  1.8249  0.8923
  223DG      C1 5107   3.879   3.349   0.544  0.1688 -0.6869 -0.1822
  223DG      C2 5108   4.573   3.715   0.582  0.6652  0.1249 -0.0398
  223DG      H3 5109   3.814   3.295   0.475 -1.6786  0.4845  0.5550
  223DG      H4 5110   3.845   3.453   0.546 -1.4917 -1.1550 -1.6865
  223DG      H5 5111   3.851   3.305   0.640  0.3514 -1.4997 -0.4939
  223DG      H6 5112   4.535   3.748   0.485  0.4599 -2.2490 -0.8454
  223DG      H7 5113   4.541   3.780   0.663 -0.8256  1.5917 -1.7334
  223DG      H8 5114   4.682   3.711   0.589  0.5914 -0.2413  0.9522
  223DG      O9 5115   4.014   3.362   0.507  0.4055  0.6349  0.9213
  223DG     O10 5116   4.523   3.590   0.625  0.2338  0.1152  0.4270
  223DG     C11 5117   4.100   3.345   0.614 -0.0716 -0.0565 -0.3894
  223DG     C12 5118   4.531   3.493   0.519  1.0221  0.0341  0.5801
  223DG     H13 5119   4.076   3.257   0.673  0.7745  0.3663  0.6175
  223DG     H14 5120   4.105   3.439   0.670  2.6647  0.2543 -1.0026
  223DG     H15 5121   4.630   3.463   0.483  0.9454  0.1314  0.2857
  223DG     H16 5122   4.465   3.519   0.436 -0.5452 -1.8918  1.1354
  223DG     C17 5123   4.231   3.328   0.550 -0.2412 -0.7500  0.2162
  223DG     C18 5124   4.475   3.361   0.571 -0.0566 -0.4676 -0.6026
  223DG     O19 5125   4.338   3.382   0.620 -0.1424 -0.6358  0.3969
  223DG     H20 5126   4.224   3.351   0.444 -1.9870  0.4757  0.5526
  223DG     H21 5127   4.241   3.219   0.556  0.5577 -0.9065 -2.6112
  223DG     H22 5128   4.471   3.281   0.497  1.5979 -1.7603  0.6485
  223DG     H23 5129   4.544   3.347   0.654 -0.8968  0.3862  0.2710
  224DG      C1 5130   4.074   3.401   1.650  0.4398  0.3407 -0.2679
  224DG      C2 5131   3.377   3.915   1.484  0.4449  0.0982 -0.2017
  224DG      H3 5132   4.122   3.499   1.648 -0.8788  1.0468  1.0134
  224DG      H4 5133   4.124   3.337   1.578  1.3594  1.0249 -0.2537
  224DG      H5 5134   4.097   3.382   1.754  0.1325 -0.1247 -0.2825
  224DG      H6 5135   3.269   3.922   1.468  0.2686  0.8242  1.1929
  224DG      H7 5136   3.415   3.960   1.575 -0.1539  2.7588 -1.1769
  224DG      H8 5137   3.427   3.980   1.412  1.1872 -0.0671  0.1658
  224DG      O9 5138   3.933   3.410   1.624  0.6171  0.2139  0.5664
  224DG     O10 5139   3.415   3.775   1.469  0.1848  0.0435  0.3158
  224DG     C11 5140   3.912   3.442   1.490 -1.1929 -0.5942  0.1066
  224DG     C12 5141   3.548   3.742   1.505 -0.4934 -0.1584  0.8464
  224DG     H13 5142   3.957   3.364   1.429  3.7147  1.4225  0.6828
  224DG     H14 5143   3.951   3.538   1.457  0.5485 -1.0311  0.7758
  224DG     H15 5144   3.556   3.771   1.609  0.2269  2.1518  0.2032
  224DG     H16 5145   3.615   3.807   1.450 -0.8185  0.3399  1.0376
  224DG     C17 5146   3.767   3.444   1.461  0.2366 -0.2579  0.0598
  224DG     C18 5147   3.580   3.602   1.467 -0.2062  0.5976 -0.2911
  224DG     O19 5148   3.693   3.551   1.528  0.2672  0.7171 -0.3597
  224DG     H20 5149   3.722   3.348   1.485  1.7160 -0.5052  2.0686
  224DG     H21 5150   3.753   3.447   1.353 -0.8304 -0.6375  0.1756
  224DG     H22 5151   3.501   3.534   1.497 -2.0310  2.2201 -1.2023
  224DG     H23 5152   3.585   3.591   1.358 -1.5337 -0.3993 -0.2791
  225DG      C1 5153   0.844   3.418   1.934  0.0483 -0.2870 -0.5163
  225DG      C2 5154   0.408   3.833   1.409  0.3599 -0.1395  0.3230
  225DG      H3 5155   0.916   3.432   1.854  0.9771 -0.7386  0.2178
  225DG      H4 5156   0.831   3.313   1.961 -1.1372  0.4971  2.2988
  225DG      H5 5157   0.896   3.451   2.024  1.2609  0.5713 -1.5035
  225DG      H6 5158   0.300   3.842   1.416  0.4960  0.4571  2.2289
  225DG      H7 5159   0.449   3.925   1.450  2.4732 -0.9957  0.2496
  225DG      H8 5160   0.447   3.810   1.310 -0.2358 -1.0272  0.2781
  225DG      O9 5161   0.715   3.482   1.913 -0.3263 -0.1549 -0.0671
  225DG     O10 5162   0.428   3.718   1.497  0.2678 -0.6370 -0.4173
  225DG     C11 5163   0.723   3.607   1.847  0.7949  0.4359 -0.4763
  225DG     C12 5164   0.374   3.730   1.632  0.4857 -0.7167  0.2378
  225DG     H13 5165   0.758   3.593   1.744 -0.5391 -0.6998 -0.8024
  225DG     H14 5166   0.782   3.679   1.903  2.0568  0.3574 -1.6486
  225DG     H15 5167   0.268   3.748   1.617  0.2607 -2.9235 -1.3315
  225DG     H16 5168   0.424   3.819   1.670  0.6223 -0.8061  0.2709
  225DG     C17 5169   0.581   3.646   1.855  0.1954  0.4255  0.0423
  225DG     C18 5170   0.382   3.606   1.721 -0.3222 -0.3218  0.9234
  225DG     O19 5171   0.519   3.573   1.746  0.0214 -0.4071  0.0789
  225DG     H20 5172   0.570   3.754   1.845 -3.8395  0.0511 -1.0629
  225DG     H21 5173   0.538   3.628   1.953  0.5100  0.6391  0.2219
  225DG     H22 5174   0.333   3.619   1.818  0.7451  2.6182  1.1826
  225DG     H23 5175   0.341   3.525   1.660  2.6115 -0.7559 -0.6351
  226DG      C1 5176   1.172   3.598   4.778  0.3848 -0.0644 -0.2768
  226DG      C2 5177   1.492   3.687   4.209  0.4843  0.2131  0.2021
  226DG      H3 5178   1.110   3.682   4.749  1.2331  0.8720  0.5329
  226DG      H4 5179   1.165   3.586   4.886 -0.3830  1.3533 -0.1477
  226DG      H5 5180   1.127   3.509   4.733  2.9361 -1.5875 -0.0259
  226DG      H6 5181   1.578   3.692   4.142  0.8364 -2.8368  0.3123
  226DG      H7 5182   1.447   3.590   4.186  0.7608  0.4193 -1.3349
  226DG      H8 5183   1.430   3.773   4.181 -0.1467  0.3320  1.8674
  226DG      O9 5184   1.304   3.620   4.736 -0.3797 -0.1562 -0.2192
  226DG     O10 5185   1.530   3.694   4.347  0.5271 -0.2833  0.1137
  226DG     C11 5186   1.351   3.748   4.785 -0.2326  0.5453  0.2368
  226DG     C12 5187   1.603   3.812   4.375  0.0587  0.0288 -0.9853
  226DG     H13 5188   1.363   3.743   4.893  2.1639 -1.7830 -0.0354
  226DG     H14 5189   1.286   3.825   4.741  0.1594 -0.4009 -2.1239
  226DG     H15 5190   1.543   3.898   4.345  0.3491  0.1497 -1.2241
  226DG     H16 5191   1.702   3.803   4.329  1.5557  2.1204  1.6132
  226DG     C17 5192   1.495   3.783   4.728  0.7492  0.0289 -0.8523
  226DG     C18 5193   1.614   3.823   4.530 -0.1997  0.0024  0.5213
  226DG     O19 5194   1.484   3.805   4.588 -0.1415  0.4208  0.1252
  226DG     H20 5195   1.575   3.713   4.753  0.1325 -0.6143 -0.6486
  226DG     H21 5196   1.527   3.872   4.782  0.7279 -0.7212  0.4643
  226DG     H22 5197   1.681   3.748   4.571  1.3367  0.2217 -1.4323
  226DG     H23 5198   1.654   3.919   4.563 -0.0570 -0.2764  1.1703
  227DG      C1 5199   2.354   1.847   4.018 -0.1915 -0.3011  0.1478
  227DG      C2 5200   2.723   2.328   4.347  0.5253 -0.1722 -0.1893
  227DG      H3 5201   2.368   1.905   3.927 -3.0985  0.5207  0.1118
  227DG      H4 5202   2.250   1.869   4.040 -0.6632 -0.3550 -1.8303
  227DG      H5 5203   2.357   1.740   3.997  1.5422 -0.6614  1.9711
  227DG      H6 5204   2.792   2.367   4.422  0.3993 -0.0823 -0.1185
  227DG      H7 5205   2.790   2.302   4.265  1.2620  1.2464 -0.0774
  227DG      H8 5206   2.653   2.405   4.314 -0.5740 -0.7585  0.7085
  227DG      O9 5207   2.442   1.883   4.123 -0.0537 -0.0287 -0.0567
  227DG     O10 5208   2.655   2.220   4.407  0.4471  0.6980  0.5425
  227DG     C11 5209   2.407   1.818   4.245 -0.3075 -0.5902 -0.2117
  227DG     C12 5210   2.741   2.107   4.430  0.2995  1.0586 -0.0422
  227DG     H13 5211   2.400   1.710   4.233 -0.9639 -0.9113  2.4261
  227DG     H14 5212   2.316   1.862   4.285 -0.0022 -0.6158  0.5212
  227DG     H15 5213   2.827   2.117   4.496  0.4816  0.6217 -0.2046
  227DG     H16 5214   2.791   2.061   4.344  1.2495 -0.7865  1.4259
  227DG     C17 5215   2.507   1.839   4.364  0.3880  0.9931  0.9751
  227DG     C18 5216   2.650   1.985   4.480  0.0010  0.2636 -0.7830
  227DG     O19 5217   2.538   1.975   4.395 -0.5406 -0.1395 -0.1625
  227DG     H20 5218   2.594   1.781   4.335 -0.6170  0.5646 -1.4164
  227DG     H21 5219   2.466   1.795   4.455  2.5999 -0.6737  1.2242
  227DG     H22 5220   2.711   1.895   4.491  1.1410  1.1188  0.1634
  227DG     H23 5221   2.620   2.019   4.579  2.0463  2.3869 -0.8021
  228DG      C1 5222   1.421   2.534   0.365  0.7583 -0.3505 -0.1696
  228DG      C2 5223   1.327   1.941   0.773  0.6117 -0.0743  0.2410
  228DG      H3 5224   1.374   2.622   0.321 -0.6241  0.2313  2.2866
  228DG      H4 5225   1.469   2.467   0.294  1.9818 -1.2866  1.4665
  228DG      H5 5226   1.509   2.566   0.421  2.0374 -0.0937 -2.2408
  228DG      H6 5227   1.426   1.961   0.814  1.9281 -0.0059 -2.6866
  228DG      H7 5228   1.263   1.908   0.854  0.3970  0.0275  0.1131
  228DG      H8 5229   1.335   1.854   0.708 -3.8433 -1.0831  0.7665
  228DG      O9 5230   1.332   2.465   0.450 -0.0023 -0.3793  0.0523
  228DG     O10 5231   1.275   2.057   0.710  0.4437 -0.0512  0.0424
  228DG     C11 5232   1.201   2.442   0.395  0.0206  0.2471  0.5871
  228DG     C12 5233   1.144   2.039   0.655  0.3320 -0.4507  0.7108
  228DG     H13 5234   1.194   2.381   0.304  0.0457  0.9822  0.0828
  228DG     H14 5235   1.164   2.541   0.370  1.3425  0.3076 -1.3427
  228DG     H15 5236   1.082   1.989   0.729 -0.0912  0.3442  0.9036
  228DG     H16 5237   1.156   1.979   0.565 -2.0892  0.6382 -0.4365
  228DG     C17 5238   1.106   2.376   0.488  0.0989  0.4365  0.3553
  228DG     C18 5239   1.080   2.178   0.619  0.5389  0.6257  0.5806
  228DG     O19 5240   1.161   2.241   0.521 -0.8298 -0.1910 -0.6596
  228DG     H20 5241   1.009   2.359   0.442  0.7065 -2.7477  0.0129
  228DG     H21 5242   1.081   2.441   0.572 -0.6207  0.2083  0.3265
  228DG     H22 5243   0.976   2.173   0.585 -0.0970  1.9581  2.1354
  228DG     H23 5244   1.076   2.242   0.707 -1.0826  1.5700 -0.1284
  229DG      C1 5245   5.243   0.287   2.806  0.0460  0.4148 -0.2278
  229DG      C2 5246   4.786   0.718   3.013  0.5886 -0.4257 -0.4137
  229DG      H3 5247   5.278   0.339   2.895  2.5699 -2.3374  0.5360
  229DG      H4 5248   5.333   0.244   2.761  0.3102  2.4722 -1.8442
  229DG      H5 5249   5.185   0.206   2.849  0.7761 -0.1568 -0.3056
  229DG      H6 5250   4.844   0.755   3.097 -0.6055 -0.2521  0.3706
  229DG      H7 5251   4.755   0.812   2.968 -1.1748 -1.0557 -0.5925
  229DG      H8 5252   4.698   0.668   3.055  1.0955 -0.3178  0.8321
  229DG      O9 5253   5.165   0.374   2.724  0.2616  0.6222  0.0476
  229DG     O10 5254   4.839   0.630   2.918  0.0269  0.3540  0.0569
  229DG     C11 5255   5.098   0.316   2.615  0.1272  0.2001  0.2632
  229DG     C12 5256   4.754   0.595   2.813  0.2366  0.0734  0.5410
  229DG     H13 5257   5.050   0.219   2.632 -0.1146 -0.3316 -2.8057
  229DG     H14 5258   5.165   0.300   2.531  2.1822  1.3729  1.5880
  229DG     H15 5259   4.702   0.686   2.786  0.1632  0.0262  0.5234
  229DG     H16 5260   4.687   0.514   2.844 -2.4034  1.4194 -1.3167
  229DG     C17 5261   4.981   0.412   2.578  0.2388  0.9148 -0.1388
  229DG     C18 5262   4.823   0.551   2.689  0.4734 -0.8633  0.6865
  229DG     O19 5263   4.913   0.443   2.704 -0.3313  0.3489 -0.2833
  229DG     H20 5264   4.920   0.359   2.505  0.1175 -0.4114  0.8852
  229DG     H21 5265   5.024   0.503   2.538 -1.2127  1.8495  0.3763
  229DG     H22 5266   4.750   0.530   2.610  1.3530  1.2193 -0.7766
  229DG     H23 5267   4.879   0.640   2.660 -0.9811 -0.4769 -1.1951
  230DG      C1 5268   4.938   4.969   1.793 -0.2038 -0.3141 -0.0658
  230DG      C2 5269   4.368   4.727   1.481  0.0797 -0.1847  0.0171
  230DG      H3 5270   4.889   5.050   1.848  1.6421 -0.4927  1.9847
  230DG      H4 5271   5.043   4.995   1.800 -0.3241 -0.0224  0.8541
  230DG      H5 5272   4.914   4.889   1.863 -0.2174  1.7837  2.4819
  230DG      H6 5273   4.304   4.724   1.392  1.6568 -0.9369 -1.1502
  230DG      H7 5274   4.361   4.627   1.525 -1.9526 -0.6870 -1.2891
  230DG      H8 5275   4.324   4.793   1.555 -0.3838 -1.5987  1.0501
  230DG      O9 5276   4.878   4.939   1.663  0.4629  0.1899  0.3223
  230DG     O10 5277   4.503   4.763   1.443  0.0804  0.0475  0.6616
  230DG     C11 5278   4.956   4.857   1.578  0.1756  0.0272  0.4418
  230DG     C12 5279   4.575   4.662   1.375 -0.1179 -0.2204 -0.3280
  230DG     H13 5280   4.959   4.757   1.622 -2.0932  0.2091  1.1635
  230DG     H14 5281   5.052   4.899   1.547 -0.5937  1.8968  0.4465
  230DG     H15 5282   4.519   4.644   1.283 -2.2580  2.0469  0.3916
  230DG     H16 5283   4.573   4.571   1.434  0.3355 -0.1346 -0.1761
  230DG     C17 5284   4.893   4.824   1.442  0.5514  0.2592 -0.0461
  230DG     C18 5285   4.714   4.706   1.347  0.3319 -0.2840  0.0276
  230DG     O19 5286   4.776   4.750   1.471  0.3148  0.0867 -0.0301
  230DG     H20 5287   4.959   4.778   1.369  1.2870 -0.6177  1.1532
  230DG     H21 5288   4.868   4.918   1.392 -2.1613  0.1777  0.9980
  230DG     H22 5289   4.767   4.617   1.312  0.6161  1.2657 -3.9878
  230DG     H23 5290   4.729   4.784   1.272  2.6218  0.7126  1.3948
  231DG      C1 5291   3.767   0.323   4.044  0.1205 -0.0096 -0.0594
  231DG      C2 5292   4.243   0.768   4.089 -0.0957 -0.6220  0.5991
  231DG      H3 5293   3.684   0.394   4.043  0.1358  0.1163  2.2923
  231DG      H4 5294   3.717   0.227   4.059  0.4850 -0.4928 -1.7306
  231DG      H5 5295   3.814   0.315   3.946  1.3282  2.3493  0.2588
  231DG      H6 5296   4.250   0.730   3.988  0.4245  0.2852  0.2874
  231DG      H7 5297   4.206   0.871   4.088 -1.9308 -1.1912  2.3387
  231DG      H8 5298   4.344   0.766   4.130 -0.9566 -0.1733  2.9295
  231DG      O9 5299   3.865   0.369   4.135 -0.3429  0.3245  0.1233
  231DG     O10 5300   4.170   0.668   4.162 -0.3204  0.6618  0.0677
  231DG     C11 5301   3.821   0.370   4.274  0.0842  0.0202  0.0979
  231DG     C12 5302   4.147   0.721   4.295 -0.7255 -0.4280 -0.2693
  231DG     H13 5303   3.784   0.270   4.300  1.8542 -0.8400 -0.5392
  231DG     H14 5304   3.738   0.441   4.278 -0.6300 -0.6501 -1.5851
  231DG     H15 5305   4.087   0.812   4.297  0.5745  0.5057  3.7860
  231DG     H16 5306   4.238   0.753   4.344 -0.0175 -0.2135 -1.6559
  231DG     C17 5307   3.942   0.422   4.364 -0.5020  0.3998  0.1799
  231DG     C18 5308   4.090   0.608   4.379  0.3605 -0.3384  0.2855
  231DG     O19 5309   3.990   0.539   4.299  0.3927  0.1964  0.4368
  231DG     H20 5310   4.029   0.357   4.370 -0.3811  0.5724  0.3327
  231DG     H21 5311   3.904   0.443   4.464 -0.5386  0.1172  0.2236
  231DG     H22 5312   4.172   0.536   4.374 -0.9801 -1.8412 -1.8389
  231DG     H23 5313   4.077   0.618   4.487  1.6340 -1.9069  0.6296
  232DG      C1 5314   1.970   3.946   0.979  0.1745 -0.1190 -0.0517
  232DG      C2 5315   1.728   3.540   0.412  0.5609 -0.4034 -0.4611
  232DG      H3 5316   1.872   3.899   0.993  1.0125 -1.6709  0.8914
  232DG      H4 5317   1.933   4.045   0.954 -0.4462  0.1641  1.8383
  232DG      H5 5318   2.017   3.957   1.076 -1.6612 -0.0353  0.8689
  232DG      H6 5319   1.778   3.489   0.330  0.4579 -0.5594 -0.4277
  232DG      H7 5320   1.632   3.491   0.429  1.3748 -1.2175  2.1750
  232DG      H8 5321   1.727   3.646   0.383  1.2031 -0.5103 -0.8876
  232DG      O9 5322   2.044   3.905   0.866  0.2078 -0.1506  0.5560
  232DG     O10 5323   1.797   3.532   0.538  0.0136  0.1806 -0.5603
  232DG     C11 5324   2.100   3.776   0.869  0.5468 -0.0969  0.0162
  232DG     C12 5325   1.718   3.583   0.648 -0.7798  0.3986 -0.5283
  232DG     H13 5326   2.173   3.763   0.949  1.2231  0.9953 -0.3927
  232DG     H14 5327   2.150   3.760   0.773 -1.7004  2.0013 -1.6644
  232DG     H15 5328   1.641   3.506   0.651  0.8936 -1.3942 -0.9012
  232DG     H16 5329   1.674   3.681   0.630 -0.4669  0.6982  0.3083
  232DG     C17 5330   2.000   3.665   0.881 -0.0678  0.2787  0.6611
  232DG     C18 5331   1.800   3.576   0.776  0.2297 -0.3793  0.2070
  232DG     O19 5332   1.909   3.673   0.777 -0.0041  0.1430 -0.8831
  232DG     H20 5333   1.939   3.673   0.971  0.0666 -0.6628  0.8478
  232DG     H21 5334   2.053   3.570   0.882 -0.0153  0.3152  1.4518
  232DG     H22 5335   1.747   3.600   0.868  0.4725 -0.4208  0.3596
  232DG     H23 5336   1.836   3.474   0.787 -0.8942 -0.5709  3.1344
  233DG      C1 5337   1.075   2.501   2.443  0.2509  0.1719 -0.2652
  233DG      C2 5338   0.582   2.226   2.035  0.3208  0.4519  0.4688
  233DG      H3 5339   1.117   2.541   2.350  1.3257 -0.4305 -0.0492
  233DG      H4 5340   1.162   2.460   2.495  0.2071  3.0802  2.4000
  233DG      H5 5341   1.028   2.588   2.489 -1.7477 -1.1465  0.3139
  233DG      H6 5342   0.630   2.195   1.942  0.0562  1.3478  0.0206
  233DG      H7 5343   0.495   2.160   2.032  1.5269 -1.1960 -2.3789
  233DG      H8 5344   0.556   2.331   2.021 -0.4550  0.7233  3.3174
  233DG      O9 5345   0.986   2.394   2.428  0.0326  0.5276 -0.0702
  233DG     O10 5346   0.670   2.205   2.147 -0.5466 -0.1722 -0.4492
  233DG     C11 5347   0.938   2.338   2.551 -0.9142  0.6320 -0.0539
  233DG     C12 5348   0.604   2.143   2.260  0.1014  0.0044  0.1379
  233DG     H13 5349   0.880   2.410   2.609 -0.1197 -0.4503  2.1586
  233DG     H14 5350   1.019   2.310   2.618 -0.1608  0.0696 -1.1659
  233DG     H15 5351   0.552   2.052   2.230  1.1479 -1.3138  2.1676
  233DG     H16 5352   0.525   2.210   2.295  0.4933  1.7048 -2.0031
  233DG     C17 5353   0.849   2.223   2.522  0.0947 -0.6004 -0.0507
  233DG     C18 5354   0.715   2.108   2.362 -0.2936 -0.1605 -0.0838
  233DG     O19 5355   0.780   2.231   2.400  0.7099 -0.6804  0.1288
  233DG     H20 5356   0.777   2.199   2.600 -0.5481  0.3766 -0.3318
  233DG     H21 5357   0.923   2.144   2.510  2.6257  1.4795  1.1018
  233DG     H22 5358   0.662   2.078   2.452  0.0949 -1.3159 -0.2187
  233DG     H23 5359   0.784   2.028   2.333  0.6882 -0.2953  2.3140
  234DG      C1 5360   1.891   1.816   3.246 -0.0029 -0.6015 -0.0891
  234DG      C2 5361   1.394   2.248   3.195  0.6638  0.6800 -0.2880
  234DG      H3 5362   1.882   1.733   3.176  1.0161  0.6133 -1.7113
  234DG      H4 5363   1.821   1.786   3.325 -1.5849  0.7999 -0.9014
  234DG      H5 5364   1.992   1.817   3.287 -0.4016  5.7199  1.8688
  234DG      H6 5365   1.349   2.163   3.246  1.1127  0.0826 -0.8656
  234DG      H7 5366   1.347   2.336   3.239  0.4159  0.5626 -0.3156
  234DG      H8 5367   1.355   2.242   3.093  0.4012 -1.0093 -0.1195
  234DG      O9 5368   1.852   1.949   3.201  0.6437  0.0684  0.1947
  234DG     O10 5369   1.531   2.235   3.187  0.3756 -0.5532 -0.4208
  234DG     C11 5370   1.910   1.987   3.077  0.0216  0.3058  0.2324
  234DG     C12 5371   1.582   2.335   3.101  0.4015  0.1616  0.3182
  234DG     H13 5372   1.871   1.935   2.989  1.4048 -0.8331  0.2582
  234DG     H14 5373   2.016   1.962   3.077  0.4586  1.9156  2.0238
  234DG     H15 5374   1.568   2.433   3.148 -0.3588 -0.3288  1.1493
  234DG     H16 5375   1.538   2.342   3.002 -0.5330  3.7828  0.8290
  234DG     C17 5376   1.899   2.145   3.054  0.4248 -0.0684  0.7504
  234DG     C18 5377   1.737   2.319   3.095  0.1597  0.6636  0.5559
  234DG     O19 5378   1.758   2.183   3.050  0.0322  0.6190  0.2632
  234DG     H20 5379   1.936   2.158   2.953  1.9422 -2.0158  0.9740
  234DG     H21 5380   1.965   2.199   3.123  0.4948  0.2915  0.4042
  234DG     H22 5381   1.783   2.389   3.025  0.6099 -0.4521 -0.2953
  234DG     H23 5382   1.788   2.331   3.191  0.7406 -1.9085  0.6576
  235DG      C1 5383   3.962   0.406   1.685  0.2050  0.1772  0.2766
  235DG      C2 5384   3.509   1.040   1.870  0.4806 -0.1524 -0.5368
  235DG      H3 5385   4.005   0.394   1.586 -2.1712 -0.3351 -0.7688
  235DG      H4 5386   3.864   0.359   1.699  0.6002 -0.1049  2.4520
  235DG      H5 5387   4.026   0.354   1.756  0.0883 -1.9486 -1.1009
  235DG      H6 5388   3.498   1.004   1.972  2.8994  1.5993  0.4548
  235DG      H7 5389   3.468   1.141   1.856  0.6736 -0.1346 -1.0051
  235DG      H8 5390   3.437   0.986   1.808 -1.0745  1.7625 -0.5180
  235DG      O9 5391   3.929   0.544   1.705  0.4604  0.9292  0.2809
  235DG     O10 5392   3.640   1.036   1.816 -0.3890 -0.2899 -0.0972
  235DG     C11 5393   4.036   0.631   1.669  0.0530 -0.1551 -0.2326
  235DG     C12 5394   3.713   0.923   1.844 -0.3922 -0.1607 -0.6819
  235DG     H13 5395   4.089   0.605   1.577 -2.2989 -1.4231 -1.3203
  235DG     H14 5396   4.100   0.629   1.758 -0.1253 -1.3938 -0.1188
  235DG     H15 5397   3.649   0.838   1.866 -1.7355  0.5823 -1.5826
  235DG     H16 5398   3.774   0.936   1.933 -0.6782 -0.6214 -0.4182
  235DG     C17 5399   3.980   0.766   1.642  1.0401 -0.6086 -0.2564
  235DG     C18 5400   3.802   0.909   1.717  0.6893 -0.2954 -0.5030
  235DG     O19 5401   3.881   0.795   1.735  0.1531  0.1312 -0.3770
  235DG     H20 5402   3.927   0.769   1.546 -0.1881 -3.3833  0.2527
  235DG     H21 5403   4.057   0.843   1.634 -0.8776  1.3801 -0.6347
  235DG     H22 5404   3.748   0.889   1.624  1.1208 -2.2409 -0.3665
  235DG     H23 5405   3.865   0.997   1.705  0.1431  0.6119  2.4747
  236DG      C1 5406   0.805   3.071   3.987 -0.3812  0.1914  0.6253
  236DG      C2 5407   0.479   2.714   4.446  0.0219  0.3259 -0.0016
  236DG      H3 5408   0.795   3.152   3.916 -0.8898 -1.2645 -1.0378
  236DG      H4 5409   0.798   2.982   3.924 -1.9812  0.5409  0.2669
  236DG      H5 5410   0.898   3.080   4.043 -1.5674  1.8243  2.4622
  236DG      H6 5411   0.571   2.677   4.493 -1.9422 -1.5974  2.6507
  236DG      H7 5412   0.391   2.717   4.509  1.0280 -1.3748  1.6102
  236DG      H8 5413   0.466   2.658   4.354  1.1589 -0.6115  0.3711
  236DG      O9 5414   0.706   3.085   4.084 -0.5468  0.3396 -0.5870
  236DG     O10 5415   0.509   2.843   4.412  0.2004  0.6000  0.3311
  236DG     C11 5416   0.730   3.196   4.172 -0.0212  0.3085  0.3899
  236DG     C12 5417   0.536   2.933   4.519  0.1109  0.8797 -0.5738
  236DG     H13 5418   0.725   3.284   4.108  0.2231 -0.4777 -0.7444
  236DG     H14 5419   0.828   3.188   4.219  0.5016  0.9745 -0.5451
  236DG     H15 5420   0.621   2.902   4.580 -0.6297  0.3350  0.2042
  236DG     H16 5421   0.447   2.944   4.581 -0.3724 -0.3405 -1.0279
  236DG     C17 5422   0.626   3.197   4.281 -0.1074  0.2888  0.2677
  236DG     C18 5423   0.542   3.077   4.465 -0.4330  0.7120 -0.1336
  236DG     O19 5424   0.630   3.070   4.353  0.4279 -0.2036  0.1499
  236DG     H20 5425   0.531   3.212   4.229  0.5435  1.6032 -0.5692
  236DG     H21 5426   0.652   3.273   4.354  0.9530  1.4552 -1.2547
  236DG     H22 5427   0.440   3.109   4.445 -0.5764  1.0213  1.0212
  236DG     H23 5428   0.576   3.150   4.539 -3.7750  1.4853  0.8064
  237DG      C1 5429   1.401   2.054   0.360  0.1226  0.4669 -0.1138
  237DG      C2 5430   1.418   2.338   0.882 -0.9606  0.1905 -0.0741
  237DG      H3 5431   1.307   2.089   0.318 -0.4592  0.9761  1.5571
  237DG      H4 5432   1.400   1.996   0.452 -2.7572 -2.2207 -1.6570
  237DG      H5 5433   1.430   1.970   0.296  0.7974  1.7972 -1.6355
  237DG      H6 5434   1.420   2.233   0.909 -1.1040  0.3193  0.4338
  237DG      H7 5435   1.454   2.399   0.965  0.7924 -0.3427 -0.3952
  237DG      H8 5436   1.316   2.369   0.860 -2.0686 -2.1326  1.3525
  237DG      O9 5437   1.491   2.168   0.349 -0.0466  0.1851  0.2828
  237DG     O10 5438   1.497   2.354   0.765  0.3605  0.1924 -0.7118
  237DG     C11 5439   1.623   2.123   0.361  0.4602 -0.3038 -0.2072
  237DG     C12 5440   1.632   2.320   0.783 -0.0714 -0.4191 -0.3474
  237DG     H13 5441   1.666   2.104   0.263  0.5934  0.6069 -0.3320
  237DG     H14 5442   1.632   2.032   0.422 -1.3946  0.5811  1.5042
  237DG     H15 5443   1.652   2.216   0.811  2.2254 -0.3194 -1.4382
  237DG     H16 5444   1.668   2.383   0.864  0.8436  1.1893 -1.9408
  237DG     C17 5445   1.704   2.236   0.431 -0.6547 -0.4578  0.2702
  237DG     C18 5446   1.708   2.351   0.647  0.4601 -0.5556 -0.5560
  237DG     O19 5447   1.652   2.249   0.565  0.2047 -0.0313  0.1186
  237DG     H20 5448   1.687   2.334   0.387 -0.9686 -1.6839 -2.5306
  237DG     H21 5449   1.810   2.214   0.420 -1.1181 -2.0465 -1.4877
  237DG     H22 5450   1.688   2.451   0.607 -0.6843  0.0868  1.4984
  237DG     H23 5451   1.815   2.333   0.654  0.4779  0.0327  0.9706
  238DG      C1 5452   4.063   2.108   4.118  0.2717 -0.2252  0.9368
  238DG      C2 5453   4.325   2.619   3.625 -0.5049  0.0751  0.1200
  238DG      H3 5454   4.117   2.111   4.212 -1.1361 -0.7597  1.7838
  238DG      H4 5455   4.124   2.050   4.048  1.5128 -0.4571  2.1659
  238DG      H5 5456   3.977   2.045   4.138  1.4984 -2.8171 -1.1819
  238DG      H6 5457   4.350   2.562   3.536 -2.4792  0.9501 -1.0691
  238DG      H7 5458   4.328   2.720   3.586  0.5955 -0.1824 -0.5039
  238DG      H8 5459   4.408   2.607   3.695 -0.6097  1.9634  0.6158
  238DG      O9 5460   4.027   2.242   4.080  0.1958  0.0177  0.2499
  238DG     O10 5461   4.206   2.569   3.674 -0.5487 -0.5806 -0.0510
  238DG     C11 5462   3.960   2.242   3.952  0.4275  0.5376  0.5379
  238DG     C12 5463   4.175   2.637   3.793  0.3875  0.4821  0.0172
  238DG     H13 5464   3.866   2.194   3.979  0.5109 -0.1440 -0.3381
  238DG     H14 5465   4.004   2.173   3.880 -1.7474  0.0845 -0.4292
  238DG     H15 5466   4.167   2.743   3.771 -0.0012  0.4101 -0.2080
  238DG     H16 5467   4.253   2.621   3.868 -0.3583  2.3914  1.2619
  238DG     C17 5468   3.930   2.381   3.898 -0.1376  0.1181  0.8641
  238DG     C18 5469   4.034   2.581   3.831 -0.5358 -0.5816 -0.8668
  238DG     O19 5470   4.050   2.449   3.875  0.4625 -0.3316  0.3019
  238DG     H20 5471   3.871   2.425   3.978  1.0897  1.2683  1.1712
  238DG     H21 5472   3.866   2.369   3.810 -0.0787 -1.5791  1.0176
  238DG     H22 5473   4.007   2.632   3.924  0.9771 -1.0862 -0.1048
  238DG     H23 5474   3.974   2.594   3.741  1.3802  0.3631 -2.0630
  239DG      C1 5475   3.057   4.966   3.721 -0.1628  0.0063  0.1982
  239DG      C2 5476   2.638   5.478   3.778 -0.5113 -1.4224  0.0032
  239DG      H3 5477   3.153   4.937   3.678  1.0607  1.7008  1.6082
  239DG      H4 5478   2.992   4.880   3.710  0.5763 -0.4041 -1.0750
  239DG      H5 5479   3.079   4.994   3.824  2.8073  0.0027 -0.3362
  239DG      H6 5480   2.584   5.563   3.737  0.2827 -1.3220 -0.8709
  239DG      H7 5481   2.566   5.408   3.820 -1.9962  0.7193  1.2794
  239DG      H8 5482   2.706   5.502   3.860 -3.6210 -0.9399  2.6341
  239DG      O9 5483   3.018   5.086   3.661 -0.2327 -0.6263 -0.3408
  239DG     O10 5484   2.703   5.425   3.666 -0.1892  0.2944  0.1792
  239DG     C11 5485   3.002   5.074   3.523 -0.4885 -0.2366 -0.1812
  239DG     C12 5486   2.633   5.394   3.544  0.6273 -0.0302  0.0043
  239DG     H13 5487   2.938   4.990   3.498 -0.7041  0.4722 -2.2203
  239DG     H14 5488   3.094   5.055   3.467  0.7739  1.6293  1.0902
  239DG     H15 5489   2.585   5.481   3.500  2.9522  0.4141 -1.9004
  239DG     H16 5490   2.550   5.328   3.566 -0.8305  1.2999 -1.2757
  239DG     C17 5491   2.935   5.197   3.458  0.4480  0.0098 -0.4818
  239DG     C18 5492   2.734   5.331   3.448 -0.0851  0.2838 -0.0445
  239DG     O19 5493   2.813   5.242   3.522  0.8075  0.4523  0.2622
  239DG     H20 5494   2.909   5.176   3.355  1.7436 -0.4064 -0.7405
  239DG     H21 5495   3.001   5.283   3.443 -0.5103  0.9710  0.5495
  239DG     H22 5496   2.674   5.280   3.373  1.2652 -2.1009  0.3887
  239DG     H23 5497   2.804   5.406   3.411 -1.5327  2.2502  1.0009
  240DG      C1 5498   4.830   3.407   2.111  0.3629  0.4937 -0.1563
  240DG      C2 5499   5.051   2.703   2.111  0.7938  0.5497  0.5608
  240DG      H3 5500   4.795   3.372   2.014  1.2992  0.7625 -0.6122
  240DG      H4 5501   4.845   3.515   2.100 -1.2948  0.9155  1.3349
  240DG      H5 5502   4.755   3.398   2.189 -1.7545 -1.9260 -2.2679
  240DG      H6 5503   5.073   2.658   2.208  0.2239 -0.4239  0.2549
  240DG      H7 5504   4.948   2.697   2.076  0.8033  2.4400  0.0720
  240DG      H8 5505   5.100   2.637   2.040  1.6364  2.2836 -0.5255
  240DG      O9 5506   4.948   3.336   2.128 -0.2439 -0.1152  0.4003
  240DG     O10 5507   5.102   2.832   2.075  0.6162  0.1370 -0.2763
  240DG     C11 5508   5.045   3.343   2.020 -0.5920 -0.0135 -0.2689
  240DG     C12 5509   5.045   2.931   2.160 -0.0882 -0.0482 -0.0287
  240DG     H13 5510   5.098   3.437   2.007 -1.7019  0.5652 -0.8562
  240DG     H14 5511   4.985   3.330   1.930 -1.9579  2.9901  0.0609
  240DG     H15 5512   5.056   2.891   2.261 -0.9600 -1.2351 -0.3777
  240DG     H16 5513   4.940   2.950   2.136  0.0615 -1.7585 -2.4324
  240DG     C17 5514   5.167   3.250   2.035 -0.0138 -0.7940 -0.9079
  240DG     C18 5515   5.132   3.057   2.158 -0.3053 -0.3491 -0.0117
  240DG     O19 5516   5.117   3.120   2.033  0.2856  0.4884  0.2355
  240DG     H20 5517   5.232   3.271   2.120 -1.1079 -0.4626 -0.1269
  240DG     H21 5518   5.240   3.256   1.954  0.3897 -0.5518 -0.5341
  240DG     H22 5519   5.089   3.123   2.234  1.6306 -0.1095  0.9425
  240DG     H23 5520   5.239   3.049   2.180 -0.4145 -0.2113  0.5987
  241DG      C1 5521   2.335   4.722   4.115  0.1568 -0.1361 -0.4503
  241DG      C2 5522   2.439   4.480   4.771  0.5155  0.3470  0.7800
  241DG      H3 5523   2.240   4.770   4.136 -0.2067 -0.7758 -0.5957
  241DG      H4 5524   2.319   4.614   4.112 -1.7206  0.0818  0.7747
  241DG      H5 5525   2.382   4.768   4.028 -0.4070  1.0759 -0.1329
  241DG      H6 5526   2.472   4.503   4.873  2.1566 -2.9229  1.0996
  241DG      H7 5527   2.332   4.491   4.786  0.1200 -2.6660  0.7109
  241DG      H8 5528   2.442   4.377   4.737  1.8422  0.3237  0.9214
  241DG      O9 5529   2.411   4.749   4.232  0.2998 -0.3567  0.5467
  241DG     O10 5530   2.476   4.568   4.671 -0.3019 -0.5413  0.2964
  241DG     C11 5531   2.552   4.743   4.214 -0.1422 -0.1389  0.2083
  241DG     C12 5532   2.617   4.591   4.670  0.1253 -0.2711 -0.2532
  241DG     H13 5533   2.575   4.821   4.141 -0.5454  1.8003  2.0389
  241DG     H14 5534   2.587   4.646   4.180  1.6302 -0.3959  2.4937
  241DG     H15 5535   2.666   4.498   4.640  0.7067 -0.8741  2.2898
  241DG     H16 5536   2.658   4.612   4.769  2.1346 -0.6561 -0.9609
  241DG     C17 5537   2.623   4.775   4.346  0.7031  0.5051 -0.5070
  241DG     C18 5538   2.650   4.703   4.565 -0.3053 -0.0253 -0.1076
  241DG     O19 5539   2.579   4.685   4.445  0.6019  0.2217 -0.1499
  241DG     H20 5540   2.602   4.875   4.383 -2.1235 -0.5478  1.0406
  241DG     H21 5541   2.729   4.758   4.325  0.8221 -0.0964  0.4816
  241DG     H22 5542   2.637   4.807   4.593  0.0168 -0.0941  0.3225
  241DG     H23 5543   2.755   4.689   4.539 -0.1256 -1.6947  1.2949
  242DG      C1 5544   3.022   5.490   0.073  0.7925  0.0582  0.4505
  242DG      C2 5545   3.603   4.909  -0.250  0.7815 -0.1044 -0.1674
  242DG      H3 5546   3.063   5.531   0.165  1.6538  0.1129  0.0534
  242DG      H4 5547   2.962   5.399   0.083  0.8188  0.0667  0.6882
  242DG      H5 5548   2.959   5.557   0.014  1.9951  0.3343 -0.5662
  242DG      H6 5549   3.533   4.856  -0.315 -2.1386  1.4559  1.5101
  242DG      H7 5550   3.704   4.898  -0.288  0.6274 -3.8350  0.1094
  242DG      H8 5551   3.601   4.860  -0.153 -1.3659 -0.2422 -0.2305
  242DG      O9 5552   3.128   5.468  -0.021  0.3086 -0.2343  0.4896
  242DG     O10 5553   3.547   5.041  -0.249 -0.5091  0.1325  0.0143
  242DG     C11 5554   3.212   5.353   0.003 -0.1992 -1.1171  0.7434
  242DG     C12 5555   3.614   5.136  -0.174 -0.3347  0.2946  0.0827
  242DG     H13 5556   3.169   5.253   0.010 -0.2246 -1.4458 -2.7446
  242DG     H14 5557   3.270   5.367   0.094 -0.3976  3.0171  0.4400
  242DG     H15 5558   3.711   5.165  -0.214 -0.8057  1.6062 -0.1758
  242DG     H16 5559   3.641   5.108  -0.073  0.2206 -2.0151 -0.6322
  242DG     C17 5560   3.320   5.360  -0.109  0.5177  0.1946 -0.2781
  242DG     C18 5561   3.527   5.261  -0.174  0.0193 -0.0871 -0.2786
  242DG     O19 5562   3.407   5.245  -0.098 -0.0813  0.4261 -0.2301
  242DG     H20 5563   3.379   5.452  -0.107 -0.6452  0.9426  0.4440
  242DG     H21 5564   3.283   5.361  -0.211 -0.0888 -0.2681 -0.0671
  242DG     H22 5565   3.568   5.343  -0.115 -1.6801  1.2493 -0.8918
  242DG     H23 5566   3.521   5.294  -0.277  2.7110  0.1764 -0.4213
  243DG      C1 5567   3.415   0.766   4.554 -0.0694  0.4982 -0.0099
  243DG      C2 5568   3.826   1.321   4.056 -0.3950 -0.4641  0.0338
  243DG      H3 5569   3.455   0.674   4.598 -1.1223  0.3202  0.5908
  243DG      H4 5570   3.326   0.738   4.499  0.2967 -0.8861  0.0511
  243DG      H5 5571   3.384   0.836   4.630  1.3692  1.6293 -0.4107
  243DG      H6 5572   3.913   1.360   4.004 -0.0611 -0.6434  0.4449
  243DG      H7 5573   3.737   1.338   3.996 -0.2147  1.1532  0.1697
  243DG      H8 5574   3.810   1.368   4.154 -1.0478 -0.8978  0.1382
  243DG      O9 5575   3.514   0.817   4.464  0.1007 -0.1085 -0.6687
  243DG     O10 5576   3.843   1.179   4.074  0.1201 -0.1563 -1.2388
  243DG     C11 5577   3.518   0.743   4.341  0.2755 -0.0490  0.7903
  243DG     C12 5578   3.743   1.124   4.155  0.9194 -0.0964 -0.3100
  243DG     H13 5579   3.424   0.757   4.288 -0.4398 -0.2024  1.9774
  243DG     H14 5580   3.519   0.635   4.360 -0.0422 -0.3712 -0.8581
  243DG     H15 5581   3.648   1.135   4.103  1.1154 -0.9217 -0.8610
  243DG     H16 5582   3.728   1.171   4.252 -2.3702 -0.5578 -0.4787
  243DG     C17 5583   3.639   0.790   4.254 -0.2562  0.2668 -0.5538
  243DG     C18 5584   3.760   0.976   4.176  0.1060 -0.1255 -0.4462
  243DG     O19 5585   3.641   0.928   4.240 -0.9704 -0.3546  0.4196
  243DG     H20 5586   3.640   0.739   4.158 -0.7762 -0.8546  0.0267
  243DG     H21 5587   3.728   0.763   4.312 -0.2652 -0.6311 -0.9416
  243DG     H22 5588   3.762   0.918   4.084 -3.1587  0.0338 -0.7196
  243DG     H23 5589   3.850   0.956   4.235  0.8809 -0.1259 -1.5964
  244DG      C1 5590   4.929   1.901   2.048  0.7127 -0.0332  0.6176
  244DG      C2 5591   5.048   2.259   1.529  0.2796 -0.4268 -0.3024
  244DG      H3 5592   4.936   1.818   2.118 -2.0910  0.7070  1.9418
  244DG      H4 5593   4.830   1.941   2.073 -0.2756 -3.0689  2.1109
  244DG      H5 5594   5.013   1.969   2.062  1.6853 -1.2585  0.9372
  244DG      H6 5595   5.016   2.310   1.620 -0.9127  1.4396 -1.6814
  244DG      H7 5596   5.148   2.298   1.509  0.5715 -2.0591 -2.3630
  244DG      H8 5597   4.975   2.291   1.453  0.8176 -0.3506 -0.7940
  244DG      O9 5598   4.962   1.857   1.917  0.2037 -0.3466  0.5921
  244DG     O10 5599   5.048   2.120   1.558 -0.6007  0.2873  0.2331
  244DG     C11 5600   4.859   1.784   1.856  0.8048 -0.0496 -0.3545
  244DG     C12 5601   4.957   2.043   1.477 -1.0253  0.6297  0.4302
  244DG     H13 5602   4.762   1.831   1.870 -1.0099 -3.5655  0.1468
  244DG     H14 5603   4.844   1.692   1.913 -1.1931 -0.4597 -1.4722
  244DG     H15 5604   4.994   2.047   1.375  1.6003  0.7403  1.2934
  244DG     H16 5605   4.858   2.087   1.486 -1.4030  0.1340 -1.0855
  244DG     C17 5606   4.889   1.766   1.706  0.0690  0.6600  0.0405
  244DG     C18 5607   4.937   1.901   1.516 -0.0824  0.6717 -0.5867
  244DG     O19 5608   4.897   1.895   1.658 -0.0112 -0.0899  0.8426
  244DG     H20 5609   4.821   1.694   1.662  0.6547 -0.2489  0.5859
  244DG     H21 5610   4.985   1.715   1.699  0.6639  1.7206  0.2069
  244DG     H22 5611   4.856   1.866   1.453 -0.7849 -1.2817  1.2654
  244DG     H23 5612   5.028   1.844   1.499  1.5228  2.8544  0.0936
  245DG      C1 5613   4.939   4.511   2.554  0.0323 -0.9835  0.0075
  245DG      C2 5614   5.231   4.777   3.160  0.2370  0.0843  0.6853
  245DG      H3 5615   4.855   4.463   2.503 -0.2027  1.2039 -1.8455
  245DG      H4 5616   5.023   4.447   2.527  0.4249  0.0678 -1.3920
  245DG      H5 5617   4.961   4.603   2.500  0.5218  0.5486  2.6267
  245DG      H6 5618   5.248   4.858   3.090  1.9431 -0.5386  0.3322
  245DG      H7 5619   5.211   4.824   3.257 -2.6606 -0.9441  0.6983
  245DG      H8 5620   5.324   4.720   3.162 -0.3694 -0.9538  0.1419
  245DG      O9 5621   4.931   4.530   2.693  0.1832  0.1560 -0.1394
  245DG     O10 5622   5.125   4.697   3.109  0.3477  0.7382  0.5614
  245DG     C11 5623   4.804   4.582   2.734 -0.9469 -0.0091  0.6635
  245DG     C12 5624   5.001   4.744   3.153 -0.2828 -1.4664  0.5490
  245DG     H13 5625   4.713   4.530   2.702 -0.5951 -0.7026  0.7707
  245DG     H14 5626   4.786   4.680   2.690 -1.5337  0.0107  0.9415
  245DG     H15 5627   4.987   4.851   3.138  0.2323 -1.6096 -1.0716
  245DG     H16 5628   4.994   4.724   3.260  0.3832 -2.8810  0.3494
  245DG     C17 5629   4.787   4.590   2.882  0.1155 -1.0106  0.4208
  245DG     C18 5630   4.884   4.665   3.085  0.3196  0.0798 -0.1241
  245DG     O19 5631   4.900   4.645   2.946 -0.2935 -0.3361 -0.6427
  245DG     H20 5632   4.772   4.488   2.916 -0.7470 -0.6637  1.1320
  245DG     H21 5633   4.703   4.651   2.915 -0.0160 -2.8417  3.9078
  245DG     H22 5634   4.859   4.575   3.142  0.4697 -0.0658 -0.2887
  245DG     H23 5635   4.795   4.725   3.098  0.8391  0.7907  0.1962
  246DG      C1 5636   0.760   0.124   2.043  0.0432 -0.1519  0.3277
  246DG      C2 5637   1.177  -0.485   2.077  0.2560  0.4715 -0.7139
  246DG      H3 5638   0.754   0.196   1.962 -0.1637  0.7082  1.0816
  246DG      H4 5639   0.774   0.185   2.132  0.0251  1.8188 -0.9658
  246DG      H5 5640   0.675   0.056   2.050  0.9335 -1.2582  0.8403
  246DG      H6 5641   1.252  -0.564   2.073 -0.3165 -0.3685  2.4694
  246DG      H7 5642   1.096  -0.533   2.133  1.6307  0.5602  1.4531
  246DG      H8 5643   1.141  -0.474   1.975  1.2747  3.2007 -0.8483
  246DG      O9 5644   0.875   0.044   2.023  0.0608  0.0740  0.6176
  246DG     O10 5645   1.228  -0.373   2.152 -0.1445  1.0902  0.3377
  246DG     C11 5646   0.858  -0.045   1.912 -0.6008  0.0582 -0.4510
  246DG     C12 5647   1.119  -0.295   2.207 -0.1761  0.7308  0.5722
  246DG     H13 5648   0.846   0.006   1.816  0.1302 -0.6623 -0.9367
  246DG     H14 5649   0.762  -0.096   1.905 -0.4935 -0.1865 -0.1353
  246DG     H15 5650   1.173  -0.238   2.282  1.8036  1.1761 -1.0998
  246DG     H16 5651   1.049  -0.362   2.257  0.8845  0.2561  1.4560
  246DG     C17 5652   0.976  -0.141   1.896  0.0480  0.3258  0.2034
  246DG     C18 5653   1.065  -0.195   2.109 -0.4219 -0.2633 -0.9325
  246DG     O19 5654   0.990  -0.238   1.999  0.6924  0.0950 -0.1834
  246DG     H20 5655   1.071  -0.091   1.880 -0.5362  0.5358 -3.2566
  246DG     H21 5656   0.955  -0.203   1.809 -0.7686 -1.1967  1.4167
  246DG     H22 5657   1.011  -0.123   2.171  1.9563  1.1101 -0.3357
  246DG     H23 5658   1.155  -0.146   2.072 -0.0877 -0.7941 -0.8276
  247DG      C1 5659   1.419   1.825   4.187  1.1941  0.0090 -0.1094
  247DG      C2 5660   1.818   1.731   3.662  0.1984  0.0496 -0.1651
  247DG      H3 5661   1.356   1.752   4.137 -0.3832  0.1653  1.5401
  247DG      H4 5662   1.389   1.925   4.155 -1.0564  0.7379  3.6330
  247DG      H5 5663   1.402   1.826   4.295  1.2835 -0.5679 -0.0862
  247DG      H6 5664   1.861   1.824   3.624 -2.0955  2.6278  3.0329
  247DG      H7 5665   1.800   1.663   3.579  0.0599  1.2895 -1.1858
  247DG      H8 5666   1.721   1.753   3.706  1.4352  1.5923  1.9841
  247DG      O9 5667   1.553   1.813   4.158 -0.0060 -0.0678 -0.4875
  247DG     O10 5668   1.903   1.664   3.760  0.0126 -0.0572 -0.2957
  247DG     C11 5669   1.601   1.679   4.180  0.0322 -0.3571  0.5041
  247DG     C12 5670   1.951   1.751   3.866 -0.2843 -0.6902  0.5846
  247DG     H13 5671   1.539   1.607   4.126  2.7438 -3.7921  1.6112
  247DG     H14 5672   1.572   1.641   4.278 -4.3542 -0.7210 -0.7223
  247DG     H15 5673   1.917   1.853   3.852  1.0989 -0.2169  0.5186
  247DG     H16 5674   2.059   1.761   3.853 -0.7269  1.8004 -2.1697
  247DG     C17 5675   1.750   1.667   4.157 -0.8126 -0.1878  0.6442
  247DG     C18 5676   1.920   1.682   3.998 -0.2986  0.4366 -0.1672
  247DG     O19 5677   1.783   1.702   4.020  0.7535 -0.1047 -0.3026
  247DG     H20 5678   1.790   1.568   4.179  1.1074  0.5580  0.7633
  247DG     H21 5679   1.802   1.726   4.233 -0.9440  1.3858 -0.4494
  247DG     H22 5680   1.948   1.577   3.997 -0.6108  0.2875  1.9097
  247DG     H23 5681   1.974   1.735   4.076 -1.0971  1.4553 -0.2758
  248DG      C1 5682   0.571   3.854   3.437 -0.3297 -0.2650  0.4891
  248DG      C2 5683   0.649   3.483   2.946  0.3372 -0.3620  0.0067
  248DG      H3 5684   0.500   3.857   3.354 -1.1592 -0.9496  1.1612
  248DG      H4 5685   0.563   3.954   3.480  0.7719 -0.4353  1.1291
  248DG      H5 5686   0.550   3.783   3.517 -0.6087 -0.3905  0.3042
  248DG      H6 5687   0.568   3.555   2.942  0.2616 -0.5025 -1.0674
  248DG      H7 5688   0.666   3.460   2.841 -2.0655 -2.4503 -0.0271
  248DG      H8 5689   0.614   3.393   2.996  3.2815 -2.0664 -0.7735
  248DG      O9 5690   0.708   3.820   3.390  0.6342 -1.0021  0.4538
  248DG     O10 5691   0.762   3.542   3.008 -0.1075  0.5590 -0.1191
  248DG     C11 5692   0.766   3.927   3.315  0.4023 -0.5019 -0.1032
  248DG     C12 5693   0.818   3.648   2.945  0.1606  0.5403  0.2831
  248DG     H13 5694   0.818   3.992   3.386  0.1881 -0.2714 -0.1581
  248DG     H14 5695   0.693   3.984   3.259 -0.1072 -0.2538  0.7933
  248DG     H15 5696   0.735   3.708   2.906 -0.4226 -0.4276  0.0019
  248DG     H16 5697   0.880   3.622   2.859 -0.4038 -0.4276  0.1547
  248DG     C17 5698   0.876   3.873   3.228 -0.8540  0.0784  0.0833
  248DG     C18 5699   0.903   3.737   3.037  0.2102 -0.5033 -0.6427
  248DG     O19 5700   0.813   3.786   3.138  0.0820 -0.6272 -0.4071
  248DG     H20 5701   0.944   3.817   3.292  0.6715  0.9438 -0.7249
  248DG     H21 5702   0.931   3.954   3.181 -1.6953  1.2862  1.1229
  248DG     H22 5703   0.983   3.678   3.081 -0.3402 -2.6949 -2.3682
  248DG     H23 5704   0.942   3.820   2.978  0.7045 -0.1974  0.1055
  249DG      C1 5705   4.178   2.938   4.005 -0.1227 -0.0001  0.4949
  249DG      C2 5706   4.199   2.706   4.673 -0.5078  0.4032 -0.2093
  249DG      H3 5707   4.136   3.039   3.999  1.3654  0.7152  1.5901
  249DG      H4 5708   4.094   2.870   3.986 -1.9807  1.6733  2.1643
  249DG      H5 5709   4.245   2.921   3.922 -0.1506 -3.1941  1.0060
  249DG      H6 5710   4.249   2.674   4.764 -0.1447  0.0915 -0.5186
  249DG      H7 5711   4.114   2.764   4.711  0.7311  1.1534  1.5181
  249DG      H8 5712   4.162   2.625   4.611  1.2354 -1.4030  1.0090
  249DG      O9 5713   4.246   2.913   4.132  0.3915  0.6000 -0.3340
  249DG     O10 5714   4.279   2.790   4.599 -0.2157 -0.0267 -0.0115
  249DG     C11 5715   4.348   3.011   4.164 -0.2369 -0.7367 -0.6425
  249DG     C12 5716   4.388   2.720   4.545  0.5067 -0.1103  0.0638
  249DG     H13 5717   4.299   3.099   4.204  0.6178 -0.9047  0.8232
  249DG     H14 5718   4.393   3.050   4.072 -0.4385 -1.7956 -1.2136
  249DG     H15 5719   4.353   2.636   4.485 -1.0090 -0.1737  1.0047
  249DG     H16 5720   4.449   2.684   4.628  1.1903  1.4372  0.2763
  249DG     C17 5721   4.447   2.940   4.254 -0.0665  0.3674 -0.1644
  249DG     C18 5722   4.470   2.812   4.454 -0.2351 -0.1618 -0.1922
  249DG     O19 5723   4.384   2.862   4.353 -0.4226 -0.0418  0.8675
  249DG     H20 5724   4.516   3.016   4.293  2.2943 -0.4780 -2.3645
  249DG     H21 5725   4.507   2.878   4.186 -1.5926 -0.3879 -0.8671
  249DG     H22 5726   4.506   2.895   4.515  1.0683 -0.5223 -0.4551
  249DG     H23 5727   4.553   2.752   4.417  0.0179 -0.7810  1.3332
  250DG      C1 5728   4.665   1.830   4.695  0.1560 -0.0181  0.7243
  250DG      C2 5729   4.851   2.623   4.420  0.6863 -0.1383  0.3598
  250DG      H3 5730   4.568   1.863   4.733  0.4393 -1.3751  2.7961
  250DG      H4 5731   4.698   1.753   4.764  1.7068 -2.0837 -2.1172
  250DG      H5 5732   4.649   1.777   4.601 -1.1595  0.3015  0.7546
  250DG      H6 5733   4.932   2.679   4.466 -0.5614  1.7623  0.3746
  250DG      H7 5734   4.884   2.617   4.316  1.4677 -0.3711  0.6121
  250DG      H8 5735   4.759   2.680   4.411  0.4149 -0.7053 -0.6898
  250DG      O9 5736   4.759   1.934   4.684 -0.0914 -0.0591 -0.3332
  250DG     O10 5737   4.817   2.496   4.471 -0.0572  0.7799 -0.6707
  250DG     C11 5738   4.716   2.030   4.594 -0.1859  0.1237  0.1795
  250DG     C12 5739   4.711   2.435   4.396 -0.6623  0.2746 -0.1547
  250DG     H13 5740   4.614   2.065   4.610 -0.5471 -0.3280 -1.0077
  250DG     H14 5741   4.713   1.985   4.495  2.2434  1.4669 -0.5964
  250DG     H15 5742   4.727   2.416   4.290  0.1575 -1.7418  0.2806
  250DG     H16 5743   4.629   2.507   4.405  0.1181  1.0803  0.7505
  250DG     C17 5744   4.811   2.155   4.587  0.6467  0.0945  0.7256
  250DG     C18 5745   4.677   2.301   4.460  0.3166 -0.5992  0.0106
  250DG     O19 5746   4.799   2.232   4.475  0.1304  0.1129 -0.0953
  250DG     H20 5747   4.916   2.123   4.583  1.1320  1.7620 -2.2919
  250DG     H21 5748   4.794   2.211   4.679 -0.2563  0.2797  0.4535
  250DG     H22 5749   4.630   2.325   4.555 -0.5483  0.3494 -0.6345
  250DG     H23 5750   4.618   2.239   4.392  0.9909  1.6592 -2.8485
  251DG      C1 5751   2.203   3.925   3.110 -0.2402 -0.3904 -0.5504
  251DG      C2 5752   1.861   3.344   3.123  0.2799  0.0179 -0.1507
  251DG      H3 5753   2.186   4.031   3.129  1.1226 -0.4218  1.0392
  251DG      H4 5754   2.204   3.912   3.001  1.5583 -1.7101 -0.4322
  251DG      H5 5755   2.303   3.898   3.144 -0.4362 -0.4567 -0.0247
  251DG      H6 5756   1.965   3.310   3.122  0.1776 -0.5213  2.0725
  251DG      H7 5757   1.803   3.259   3.158 -0.4549  1.2905  1.8460
  251DG      H8 5758   1.839   3.359   3.017  0.7169 -1.5538 -0.4960
  251DG      O9 5759   2.112   3.850   3.185 -0.2590  0.1733  0.3658
  251DG     O10 5760   1.849   3.468   3.190 -0.3868 -0.3187  0.0324
  251DG     C11 5761   2.136   3.854   3.322  0.9254 -0.2889 -0.5750
  251DG     C12 5762   1.888   3.461   3.325  0.2465 -0.2523  0.1290
  251DG     H13 5763   2.140   3.958   3.353 -0.6610 -0.1273 -0.8359
  251DG     H14 5764   2.227   3.807   3.359  1.9802  2.8062  1.0899
  251DG     H15 5765   1.992   3.428   3.333  0.2049 -0.3595  0.2265
  251DG     H16 5766   1.827   3.385   3.373  1.9377 -2.0205 -0.3829
  251DG     C17 5767   2.002   3.805   3.389 -0.2653  0.7714  0.3710
  251DG     C18 5768   1.862   3.597   3.381  0.2455 -1.0536  0.5891
  251DG     O19 5769   1.986   3.669   3.349  0.3065 -0.0522 -0.7611
  251DG     H20 5770   1.911   3.862   3.369  0.1646  1.9702  1.6720
  251DG     H21 5771   2.016   3.819   3.497  1.7170  1.7910  0.0142
  251DG     H22 5772   1.777   3.656   3.348  2.3570  1.0550 -1.4856
  251DG     H23 5773   1.866   3.596   3.490  2.7262  0.6537  0.6030
  252DG      C1 5774   3.632   3.641   2.549 -0.4358  0.0999 -0.2223
  252DG      C2 5775   3.161   3.410   3.106  0.1556  0.6474  0.3729
  252DG      H3 5776   3.705   3.721   2.537 -1.4636  1.2592  0.9829
  252DG      H4 5777   3.541   3.692   2.580  0.5795  0.9362  1.5815
  252DG      H5 5778   3.609   3.584   2.459  0.4421 -1.2757  0.3930
  252DG      H6 5779   3.156   3.435   3.212  0.2680 -4.0707  1.7175
  252DG      H7 5780   3.111   3.485   3.044  0.0515 -0.6148 -1.1320
  252DG      H8 5781   3.101   3.320   3.094 -0.8226  1.5103 -1.8434
  252DG      O9 5782   3.680   3.541   2.641 -0.2149 -0.4662  0.4368
  252DG     O10 5783   3.296   3.397   3.058 -0.1002  0.3474  0.5681
  252DG     C11 5784   3.702   3.595   2.764 -0.6920  0.4737  0.5785
  252DG     C12 5785   3.313   3.336   2.928 -0.1550 -0.5773 -1.0088
  252DG     H13 5786   3.676   3.700   2.778  1.4780  1.1450 -0.0499
  252DG     H14 5787   3.810   3.595   2.776 -0.2024 -1.5996 -2.6106
  252DG     H15 5788   3.270   3.390   2.843 -0.7091 -2.1080 -1.7363
  252DG     H16 5789   3.258   3.243   2.934  0.0991 -0.7814 -1.6809
  252DG     C17 5790   3.644   3.491   2.873  0.2070  0.5735  0.2474
  252DG     C18 5791   3.464   3.340   2.903  0.8197  0.4390  0.0049
  252DG     O19 5792   3.502   3.467   2.861  0.0862 -0.1645  0.1013
  252DG     H20 5793   3.674   3.522   2.973  0.6673  0.4703  0.1450
  252DG     H21 5794   3.697   3.395   2.877 -3.0531 -1.3663  0.4076
  252DG     H22 5795   3.523   3.302   2.987 -0.5519 -3.2142 -0.4948
  252DG     H23 5796   3.485   3.274   2.819 -0.8666 -1.5558  1.0536
  253DG      C1 5797   3.350   4.321   2.863 -0.4083  0.1720  0.6074
  253DG      C2 5798   3.587   3.789   3.162  0.4532 -0.5811 -0.1467
  253DG      H3 5799   3.324   4.422   2.894 -2.0507 -0.7894  2.7051
  253DG      H4 5800   3.384   4.313   2.760 -0.2027 -0.1705  0.6999
  253DG      H5 5801   3.426   4.295   2.937 -0.4755  2.9991  1.7991
  253DG      H6 5802   3.610   3.836   3.258  1.1629 -0.4008 -0.4002
  253DG      H7 5803   3.615   3.684   3.168  0.4751 -0.5116  1.1464
  253DG      H8 5804   3.648   3.844   3.091 -0.7519  3.3889  1.6252
  253DG      O9 5805   3.241   4.235   2.884  0.0554 -0.5763 -0.2035
  253DG     O10 5806   3.450   3.826   3.137 -0.1690  0.6117  0.8230
  253DG     C11 5807   3.245   4.106   2.825 -0.1223  0.4497 -0.0493
  253DG     C12 5808   3.379   3.737   3.047  0.8050 -0.2528 -0.0904
  253DG     H13 5809   3.279   4.116   2.722  1.9573 -0.8249  0.4636
  253DG     H14 5810   3.141   4.077   2.815 -0.1014  0.5207 -0.5075
  253DG     H15 5811   3.278   3.760   3.081  0.4583  0.0993 -1.3076
  253DG     H16 5812   3.386   3.629   3.062  2.6181 -0.4827 -2.1435
  253DG     C17 5813   3.334   4.012   2.911 -0.6138  0.5329 -0.0687
  253DG     C18 5814   3.402   3.776   2.899  0.2300 -0.4042  0.6128
  253DG     O19 5815   3.309   3.877   2.860 -0.3493 -0.2831 -0.2360
  253DG     H20 5816   3.311   4.000   3.017 -1.5079 -2.8411 -0.4966
  253DG     H21 5817   3.440   4.030   2.894 -0.2697 -0.5115  0.8546
  253DG     H22 5818   3.505   3.808   2.885 -0.7035  1.4849 -2.9683
  253DG     H23 5819   3.373   3.694   2.834 -1.4830  1.6621 -1.3809
  254DG      C1 5820   0.940   0.796   4.466 -0.0970  0.5440  0.2002
  254DG      C2 5821   0.409   0.487   4.313  0.1297 -0.3033 -0.5457
  254DG      H3 5822   0.989   0.698   4.467 -2.0454 -0.4799  0.0091
  254DG      H4 5823   1.016   0.865   4.501 -0.7054  0.5505  1.5574
  254DG      H5 5824   0.915   0.815   4.361 -0.6380  3.3356  0.7670
  254DG      H6 5825   0.301   0.490   4.300  0.1470 -0.3358 -0.7000
  254DG      H7 5826   0.450   0.531   4.221 -2.3388 -0.0845 -1.6194
  254DG      H8 5827   0.440   0.383   4.324  1.3087 -0.0163 -0.9000
  254DG      O9 5828   0.825   0.793   4.546 -0.0163  0.5349  0.5010
  254DG     O10 5829   0.451   0.564   4.431 -0.6743  0.1299  0.3496
  254DG     C11 5830   0.766   0.914   4.581 -0.7071 -0.6704  0.1815
  254DG     C12 5831   0.366   0.667   4.486 -0.3794 -0.4540 -0.0347
  254DG     H13 5832   0.773   0.985   4.499 -0.6486 -0.6443  0.2099
  254DG     H14 5833   0.828   0.962   4.657 -1.6050  1.8124 -0.5601
  254DG     H15 5834   0.281   0.623   4.538 -0.7785  1.7103  1.2677
  254DG     H16 5835   0.324   0.737   4.413 -1.3471 -1.0077 -0.0239
  254DG     C17 5836   0.621   0.891   4.622 -0.4414 -0.4482  0.1567
  254DG     C18 5837   0.441   0.743   4.585 -0.1395 -0.0907  0.4220
  254DG     O19 5838   0.567   0.790   4.541 -0.3520 -0.2888  0.6328
  254DG     H20 5839   0.572   0.987   4.605  0.1178 -0.4071 -1.3785
  254DG     H21 5840   0.604   0.863   4.726 -4.0450  0.4540 -0.0660
  254DG     H22 5841   0.381   0.826   4.620  1.3544  1.2333 -0.0423
  254DG     H23 5842   0.441   0.671   4.667  0.4865 -1.3538 -0.6540
  255DG      C1 5843   3.278   2.400   1.073 -0.3551 -0.0349 -0.4081
  255DG      C2 5844   2.884   2.845   0.778  0.6313  0.5905  1.0195
  255DG      H3 5845   3.231   2.304   1.051 -0.9703 -0.0685  0.9453
  255DG      H4 5846   3.201   2.476   1.064 -0.4039 -0.2034 -1.5013
  255DG      H5 5847   3.305   2.389   1.178 -3.0311  0.2219  0.3620
  255DG      H6 5848   2.805   2.787   0.731  1.5150  0.3453 -0.2170
  255DG      H7 5849   2.869   2.801   0.876  0.7587  0.6105  1.0487
  255DG      H8 5850   2.871   2.953   0.776  0.8766  0.6355  1.4757
  255DG      O9 5851   3.380   2.434   0.991  0.1342  0.2309  0.1793
  255DG     O10 5852   3.018   2.804   0.741  0.2607 -0.7852  0.6431
  255DG     C11 5853   3.339   2.440   0.851  0.6029 -0.4002 -0.9947
  255DG     C12 5854   3.115   2.862   0.827 -0.0284 -0.1104  0.4292
  255DG     H13 5855   3.235   2.407   0.844  0.2315  0.0384  1.5296
  255DG     H14 5856   3.393   2.361   0.798  0.1786 -1.2731 -0.1551
  255DG     H15 5857   3.092   2.843   0.932  1.4584 -2.5300  0.3892
  255DG     H16 5858   3.130   2.970   0.816  2.2324 -0.3243  1.0495
  255DG     C17 5859   3.349   2.581   0.789 -0.4760 -0.2734  0.1216
  255DG     C18 5860   3.249   2.785   0.801 -0.0073 -0.2396  0.2496
  255DG     O19 5861   3.240   2.654   0.838  0.4822  0.4138 -0.5711
  255DG     H20 5862   3.331   2.576   0.682  0.2800  1.5264 -0.1157
  255DG     H21 5863   3.449   2.625   0.797 -1.0889  1.9777 -2.9597
  255DG     H22 5864   3.293   2.796   0.702 -0.8265 -0.2237 -0.1193
  255DG     H23 5865   3.324   2.828   0.867 -0.2042  4.4325 -2.1332
  256DG      C1 5866   4.551   4.279   1.147 -0.1976 -0.3304  0.2568
  256DG      C2 5867   3.852   4.199   0.958  0.5878  0.0633 -0.3818
  256DG      H3 5868   4.508   4.179   1.149 -0.0778 -0.3733  1.3812
  256DG      H4 5869   4.621   4.284   1.231 -0.2507  0.1071  0.2757
  256DG      H5 5870   4.606   4.283   1.053 -1.2303  3.5675 -0.3439
  256DG      H6 5871   3.941   4.139   0.940 -0.5395 -2.3499  1.4244
  256DG      H7 5872   3.780   4.142   1.016  0.9230  0.3912  0.3694
  256DG      H8 5873   3.789   4.228   0.874 -3.0913  0.8573  2.3661
  256DG      O9 5874   4.457   4.382   1.163 -0.3120  0.3713  0.3302
  256DG     O10 5875   3.897   4.315   1.023 -0.4182  0.1662 -0.1418
  256DG     C11 5876   4.371   4.364   1.276  0.1896 -0.4390  0.2062
  256DG     C12 5877   3.903   4.314   1.166 -0.2838 -0.1834  0.3997
  256DG     H13 5878   4.433   4.392   1.362 -1.4708 -0.5251  1.4936
  256DG     H14 5879   4.346   4.259   1.283 -0.3637 -0.2515  1.4103
  256DG     H15 5880   3.924   4.213   1.203 -1.4883 -0.8183 -0.5792
  256DG     H16 5881   3.810   4.349   1.210 -1.0462  0.1921 -1.4392
  256DG     C17 5882   4.234   4.446   1.269 -0.4755 -0.5536 -0.1721
  256DG     C18 5883   4.008   4.410   1.225  0.2338  0.0296  0.5042
  256DG     O19 5884   4.136   4.360   1.206  0.1070  0.2088 -0.3022
  256DG     H20 5885   4.241   4.538   1.210  0.5333 -0.3837  0.1954
  256DG     H21 5886   4.199   4.475   1.368 -0.3265 -0.1427 -0.2338
  256DG     H22 5887   3.995   4.499   1.163  1.3484  0.4960  0.9196
  256DG     H23 5888   3.986   4.432   1.329 -0.6055  3.5546 -0.2931
  257DG      C1 5889   3.299   0.544   4.939  0.5103  0.8392  0.2992
  257DG      C2 5890   2.797   0.405   4.240  0.0138  0.1362  0.4411
  257DG      H3 5891   3.362   0.483   4.873  0.2190 -0.6369  1.3340
  257DG      H4 5892   3.268   0.471   5.013  1.2050 -0.0734 -0.2725
  257DG      H5 5893   3.366   0.614   4.989 -0.6880  0.5645  2.3908
  257DG      H6 5894   2.865   0.363   4.165 -0.0763 -0.9529  0.9475
  257DG      H7 5895   2.732   0.317   4.248 -0.6635  0.2830 -2.4038
  257DG      H8 5896   2.736   0.469   4.176  0.9513  0.7974  0.1922
  257DG      O9 5897   3.190   0.604   4.876 -0.2163 -0.2210 -0.1602
  257DG     O10 5898   2.863   0.466   4.346 -0.5546  0.6863 -0.3217
  257DG     C11 5899   3.112   0.506   4.806  0.5405  0.2970 -0.1651
  257DG     C12 5900   2.780   0.527   4.443 -0.2703 -0.0115 -0.4565
  257DG     H13 5901   3.066   0.439   4.878  0.5642  0.5080  0.0488
  257DG     H14 5902   3.179   0.438   4.752  1.2187  0.5103  0.4024
  257DG     H15 5903   2.724   0.469   4.516  2.9670  0.8854  3.0917
  257DG     H16 5904   2.711   0.595   4.393 -1.3338 -1.8918 -1.6492
  257DG     C17 5905   3.027   0.597   4.717  0.1782 -0.7281  0.8011
  257DG     C18 5906   2.873   0.612   4.533 -0.2874 -0.7336 -0.2938
  257DG     O19 5907   2.958   0.530   4.614 -0.2254  0.2205  0.2879
  257DG     H20 5908   3.076   0.687   4.680  0.8966 -1.5116 -0.2019
  257DG     H21 5909   2.940   0.628   4.775 -1.1835 -4.2296  0.9054
  257DG     H22 5910   2.924   0.690   4.477 -0.0282 -0.7554 -0.0888
  257DG     H23 5911   2.805   0.663   4.602  1.4515 -0.7717  1.5267
  258DG      C1 5912   3.779   2.913   3.764  0.2287  0.3582  0.2358
  258DG      C2 5913   4.468   3.026   3.775 -0.2631  0.0100  0.0964
  258DG      H3 5914   3.749   2.851   3.680 -1.8722  2.5481 -0.7573
  258DG      H4 5915   3.689   2.924   3.824 -0.6505 -2.3843 -0.4526
  258DG      H5 5916   3.849   2.854   3.822 -0.1661 -2.1203 -1.6102
  258DG      H6 5917   4.476   2.974   3.679 -3.7169 -0.5301 -0.0269
  258DG      H7 5918   4.562   3.080   3.788 -0.6147  0.3139  1.5969
  258DG      H8 5919   4.463   2.945   3.848 -2.6692 -0.8870 -0.9537
  258DG      O9 5920   3.847   3.030   3.726 -0.5976  0.5736  0.5554
  258DG     O10 5921   4.356   3.113   3.788  0.1621 -0.3924 -0.0402
  258DG     C11 5922   3.952   3.012   3.630 -0.4736  0.4155  0.2468
  258DG     C12 5923   4.329   3.199   3.672  0.0741 -0.0890  0.8341
  258DG     H13 5924   3.919   2.969   3.536  0.3407  0.9232 -0.2883
  258DG     H14 5925   4.017   2.933   3.668 -1.6121  0.0003  1.3719
  258DG     H15 5926   4.312   3.134   3.587 -3.0166  1.1696  0.3517
  258DG     H16 5927   4.403   3.270   3.635 -1.4598  1.0094 -0.2224
  258DG     C17 5928   4.027   3.144   3.604 -0.7706  0.4153 -0.3676
  258DG     C18 5929   4.202   3.282   3.710  0.1113  0.1038 -0.1845
  258DG     O19 5930   4.096   3.188   3.733  0.5058  0.0898 -0.0583
  258DG     H20 5931   3.961   3.218   3.560 -1.5765 -0.5452 -0.8125
  258DG     H21 5932   4.099   3.117   3.528 -1.2871  1.3832 -1.2202
  258DG     H22 5933   4.228   3.329   3.805  0.2259 -0.4289  0.0474
  258DG     H23 5934   4.170   3.358   3.638  0.1886  0.2253 -0.0928
  259DG      C1 5935   2.958   0.967   0.988  0.0892 -0.3619  0.5130
  259DG      C2 5936   2.998   0.264   1.283 -0.5002  0.5042 -0.2024
  259DG      H3 5937   2.937   1.060   1.042  0.4247  0.3983 -0.6153
  259DG      H4 5938   2.921   0.970   0.886 -0.2654 -0.7696  0.6291
  259DG      H5 5939   3.066   0.955   0.978  0.0678 -0.8863  0.9121
  259DG      H6 5940   3.075   0.300   1.351 -1.4265  1.8294  0.1821
  259DG      H7 5941   2.948   0.179   1.331 -2.7649  1.1302 -1.3041
  259DG      H8 5942   3.049   0.225   1.195 -1.9253  0.2957 -0.9705
  259DG      O9 5943   2.890   0.868   1.065  0.6285 -0.4390 -0.4445
  259DG     O10 5944   2.900   0.357   1.225 -0.3894 -0.4570 -0.3036
  259DG     C11 5945   2.851   0.758   0.991  0.6854 -0.1235  0.2477
  259DG     C12 5946   2.802   0.408   1.321 -0.2413  0.4054  0.1652
  259DG     H13 5947   2.944   0.718   0.952  0.6679  0.3712 -0.3218
  259DG     H14 5948   2.790   0.777   0.903  0.4626 -1.1860  0.1575
  259DG     H15 5949   2.858   0.429   1.412  1.4919 -0.7754 -0.5812
  259DG     H16 5950   2.731   0.327   1.339 -0.2088  0.7632  2.0533
  259DG     C17 5951   2.754   0.662   1.063 -0.0168  0.3363  0.0685
  259DG     C18 5952   2.723   0.530   1.257  0.2198 -0.4440  0.2182
  259DG     O19 5953   2.807   0.627   1.195 -0.8921 -0.0465  0.1366
  259DG     H20 5954   2.738   0.577   0.996  1.8903 -0.2542  0.3209
  259DG     H21 5955   2.652   0.694   1.085  0.1400  0.4494  0.6251
  259DG     H22 5956   2.665   0.471   1.186  0.2883 -0.3347  0.0725
  259DG     H23 5957   2.668   0.582   1.335  2.4886  0.8126  1.0705
  260DG      C1 5958   1.919   5.175   4.649 -0.4955 -0.1211  0.6523
  260DG      C2 5959   1.811   5.711   5.283  0.0546 -0.0434  0.2770
  260DG      H3 5960   1.880   5.073   4.653  0.5126 -0.7602 -2.6767
  260DG      H4 5961   2.019   5.171   4.692  0.0645 -0.1344 -0.6084
  260DG      H5 5962   1.937   5.203   4.545 -3.7743  0.4956  0.1214
  260DG      H6 5963   1.917   5.688   5.273 -0.1671 -0.5314 -1.1768
  260DG      H7 5964   1.802   5.814   5.250 -0.0117  0.4643  1.7863
  260DG      H8 5965   1.771   5.696   5.384 -0.1861 -0.6034  0.1044
  260DG      O9 5966   1.835   5.268   4.713 -0.1708 -0.1865  1.4787
  260DG     O10 5967   1.744   5.616   5.196  0.6109 -0.2536 -0.2123
  260DG     C11 5968   1.773   5.216   4.832 -0.1773  0.1859  0.2200
  260DG     C12 5969   1.715   5.658   5.066 -0.6917  0.5001 -0.6069
  260DG     H13 5970   1.846   5.217   4.912 -1.7380  2.8046  1.7488
  260DG     H14 5971   1.732   5.115   4.821 -0.4075  0.4397 -1.5012
  260DG     H15 5972   1.813   5.692   5.031 -1.1061  1.7629 -0.5950
  260DG     H16 5973   1.658   5.751   5.077  0.6773  1.3158 -0.1350
  260DG     C17 5974   1.670   5.326   4.885  0.0259  0.4246  0.2980
  260DG     C18 5975   1.658   5.552   4.970  0.2213 -0.2959  0.2007
  260DG     O19 5976   1.741   5.438   4.945 -0.4179  0.4185 -0.4097
  260DG     H20 5977   1.600   5.280   4.955 -1.5635 -3.2930 -3.2910
  260DG     H21 5978   1.605   5.360   4.805 -0.7563 -0.3908  0.5690
  260DG     H22 5979   1.560   5.530   5.013 -0.8646  1.5704 -1.1465
  260DG     H23 5980   1.648   5.596   4.871  1.5888  0.9804  0.5894
  261DG      C1 5981   4.101   5.315   1.396 -0.6579 -1.1707 -0.6340
  261DG      C2 5982   4.066   5.733   0.837  0.0735 -0.2939  0.0451
  261DG      H3 5983   4.080   5.363   1.492  2.7681  0.0156 -0.3420
  261DG      H4 5984   4.120   5.208   1.399  0.5027 -1.1001 -2.9215
  261DG      H5 5985   4.011   5.344   1.343  0.0069  1.9298 -0.2599
  261DG      H6 5986   4.085   5.766   0.735 -0.1884 -2.5939 -0.7988
  261DG      H7 5987   3.963   5.698   0.845 -0.2974  0.6310 -0.5968
  261DG      H8 5988   4.081   5.819   0.903  0.5046  1.1097 -1.8172
  261DG      O9 5989   4.205   5.377   1.320 -0.0341 -0.1707 -0.7179
  261DG     O10 5990   4.154   5.625   0.882  0.5096 -0.3292 -0.1642
  261DG     C11 5991   4.251   5.306   1.205 -0.0912  0.2416  0.0705
  261DG     C12 5992   4.286   5.677   0.896  0.2662  0.5609  1.0257
  261DG     H13 5993   4.171   5.286   1.133 -0.2282 -1.1955  0.5927
  261DG     H14 5994   4.299   5.214   1.240 -0.6049  0.3163  0.9969
  261DG     H15 5995   4.272   5.759   0.966 -1.4141 -0.1042  1.5065
  261DG     H16 5996   4.331   5.700   0.799 -1.1084 -0.8570  0.0032
  261DG     C17 5997   4.355   5.394   1.126 -0.1334  0.5070 -0.6564
  261DG     C18 5998   4.368   5.570   0.960 -0.5310  1.0815 -0.6465
  261DG     O19 5999   4.290   5.508   1.068  0.3236 -0.3722  0.6026
  261DG     H20 6000   4.395   5.332   1.045 -1.2871 -1.9283  0.5400
  261DG     H21 6001   4.437   5.411   1.196 -0.5373 -2.6146  0.7355
  261DG     H22 6002   4.414   5.502   0.888  1.5124  1.5666  0.1087
  261DG     H23 6003   4.449   5.623   1.011  1.1868 -2.3440  0.4837
  262DG      C1 6004   1.528   3.322   3.348 -0.3680  0.4483 -0.3114
  262DG      C2 6005   1.652   3.164   4.102 -0.2312 -0.6117 -0.0503
  262DG      H3 6006   1.588   3.251   3.292  0.2436  0.7721 -0.0788
  262DG      H4 6007   1.521   3.410   3.284  1.1359  1.7297  1.1799
  262DG      H5 6008   1.435   3.269   3.362 -0.9674  0.4484 -3.5237
  262DG      H6 6009   1.739   3.106   4.072  1.6094  1.7561  0.4245
  262DG      H7 6010   1.673   3.203   4.201 -0.5436 -1.2267  0.2673
  262DG      H8 6011   1.565   3.099   4.113 -1.4804  0.9736 -0.1758
  262DG      O9 6012   1.598   3.355   3.473  0.9942 -0.6408 -0.1154
  262DG     O10 6013   1.615   3.260   4.005 -0.1305  0.3085 -0.1798
  262DG     C11 6014   1.521   3.448   3.545  0.2759  0.4249  0.1344
  262DG     C12 6015   1.723   3.349   3.977 -0.0357  0.1186  0.4527
  262DG     H13 6016   1.421   3.418   3.579  0.8260  0.1809  1.6056
  262DG     H14 6017   1.491   3.527   3.477 -0.5309  2.5008  2.6944
  262DG     H15 6018   1.802   3.298   3.922 -0.8183 -0.6365  0.0062
  262DG     H16 6019   1.766   3.396   4.065 -0.3943 -0.0530  0.7230
  262DG     C17 6020   1.590   3.507   3.667  0.0021 -0.2252 -0.6311
  262DG     C18 6021   1.664   3.466   3.888  0.2352  0.6532  0.3969
  262DG     O19 6022   1.608   3.411   3.767 -0.2960 -0.7938 -0.0471
  262DG     H20 6023   1.524   3.581   3.712  2.2575  0.9316  0.9885
  262DG     H21 6024   1.679   3.556   3.627  0.9075  0.9360  2.5006
  262DG     H22 6025   1.599   3.532   3.945  1.4059  0.7604  1.6646
  262DG     H23 6026   1.750   3.530   3.866 -0.2664  1.2651  0.2073
  263DG      C1 6027   2.688   4.798   0.020 -0.2755 -0.8247 -0.3219
  263DG      C2 6028   2.558   4.353   0.015 -0.2637  0.6160  0.4019
  263DG      H3 6029   2.660   4.752  -0.074  0.6177  0.1515 -1.0903
  263DG      H4 6030   2.657   4.736   0.104  0.2639  0.2276  0.6907
  263DG      H5 6031   2.796   4.814   0.031 -0.4588  0.5327 -0.2835
  263DG      H6 6032   2.487   4.315   0.088 -0.2692 -0.2393 -0.0343
  263DG      H7 6033   2.569   4.294  -0.076  0.2292  1.5499 -0.1514
  263DG      H8 6034   2.660   4.337   0.050  0.5560 -0.3357 -2.1813
  263DG      O9 6035   2.642   4.931   0.008  0.5026  0.4030  0.0640
  263DG     O10 6036   2.523   4.482  -0.018  0.8864  0.2581 -0.4808
  263DG     C11 6037   2.501   4.953   0.042 -0.5593  0.8755 -0.4111
  263DG     C12 6038   2.392   4.500  -0.071 -0.3795 -0.6491 -0.5619
  263DG     H13 6039   2.474   5.054   0.011 -2.5744  0.3223 -0.5579
  263DG     H14 6040   2.478   4.953   0.148 -0.7251  0.0583 -0.4445
  263DG     H15 6041   2.321   4.482   0.009  0.5200 -0.3989  0.3177
  263DG     H16 6042   2.360   4.440  -0.156  2.4177 -2.5027 -0.4593
  263DG     C17 6043   2.406   4.867  -0.042  0.1681  0.4427  0.7559
  263DG     C18 6044   2.375   4.647  -0.110 -0.1462 -0.0179 -0.1663
  263DG     O19 6045   2.396   4.736   0.002  0.1241  0.2309 -0.0028
  263DG     H20 6046   2.447   4.877  -0.143 -0.7942  1.9056  0.4734
  263DG     H21 6047   2.309   4.918  -0.047 -0.3573 -0.6577 -1.6972
  263DG     H22 6048   2.448   4.670  -0.188 -0.1911 -0.9554 -0.4914
  263DG     H23 6049   2.276   4.661  -0.154  0.2227  1.9572 -0.4660
  264DG      C1 6050   0.431   3.104   0.460 -0.6791  0.0855 -0.3776
  264DG      C2 6051  -0.127   2.775   0.391  0.9828  0.5088  0.4218
  264DG      H3 6052   0.466   3.003   0.481  0.6374  0.2514 -1.5719
  264DG      H4 6053   0.403   3.158   0.550 -0.6448  0.7607 -0.7687
  264DG      H5 6054   0.508   3.168   0.417 -2.1043  0.7938 -2.0019
  264DG      H6 6055  -0.054   2.706   0.435  0.1020 -0.5581  0.2483
  264DG      H7 6056  -0.173   2.840   0.465 -1.2789 -2.1709  1.5401
  264DG      H8 6057  -0.199   2.711   0.341  1.3790  0.4883 -0.1303
  264DG      O9 6058   0.329   3.112   0.363  0.0853  0.8057 -1.0720
  264DG     O10 6059  -0.052   2.853   0.297 -0.2099 -0.1161 -0.1308
  264DG     C11 6060   0.371   3.088   0.236 -0.2554 -0.0407 -0.4264
  264DG     C12 6061   0.008   2.788   0.187  0.0991  0.5881  0.2066
  264DG     H13 6062   0.448   3.011   0.230  0.2715  0.4836 -0.4469
  264DG     H14 6063   0.405   3.184   0.196 -1.1242  0.5351  0.1764
  264DG     H15 6064  -0.071   2.754   0.120  1.4514  0.0487 -1.1631
  264DG     H16 6065   0.058   2.697   0.220 -0.0275  0.6483  0.5708
  264DG     C17 6066   0.261   3.060   0.136  0.0622  0.0838  0.1692
  264DG     C18 6067   0.119   2.864   0.107  0.4267  0.3633  0.5010
  264DG     O19 6068   0.185   2.953   0.196 -0.3271  0.2901 -0.1769
  264DG     H20 6069   0.297   3.029   0.038  0.8349 -2.6963  1.2198
  264DG     H21 6070   0.200   3.150   0.129  0.7092  0.4374 -1.5759
  264DG     H22 6071   0.185   2.807   0.041  1.2193  1.5466  0.2411
  264DG     H23 6072   0.068   2.927   0.035  0.7577  2.3793  1.9342
  265DG      C1 6073   5.287   1.908   1.291 -0.0691 -0.0838  0.1497
  265DG      C2 6074   5.288   1.944   0.789 -0.7830 -0.4853 -0.7048
  265DG      H3 6075   5.215   1.923   1.210 -1.0011 -1.0283  0.7798
  265DG      H4 6076   5.246   1.945   1.386 -1.5730  1.6733 -1.1024
  265DG      H5 6077   5.314   1.803   1.296 -0.8048 -0.4388 -2.2527
  265DG      H6 6078   5.248   1.969   0.690 -0.3590 -0.3884 -0.8537
  265DG      H7 6079   5.389   1.909   0.769 -1.0008 -0.4240 -2.0157
  265DG      H8 6080   5.226   1.861   0.823 -1.2337 -0.3420 -1.1565
  265DG      O9 6081   5.391   2.004   1.253 -0.1404 -0.4171 -0.0344
  265DG     O10 6082   5.293   2.052   0.881 -0.1690  0.2971 -0.5848
  265DG     C11 6083   5.353   2.141   1.243  0.5536 -0.4819 -0.2871
  265DG     C12 6084   5.351   2.170   0.826 -0.6847 -0.4431 -0.0160
  265DG     H13 6085   5.351   2.185   1.343 -0.2013  0.8563 -0.8630
  265DG     H14 6086   5.248   2.144   1.215  0.3663  0.6355  0.4540
  265DG     H15 6087   5.297   2.216   0.743  1.9488  2.8945 -0.0497
  265DG     H16 6088   5.443   2.146   0.773 -0.4965 -0.1813  0.1951
  265DG     C17 6089   5.452   2.224   1.166 -0.6795  0.5275  1.0866
  265DG     C18 6090   5.370   2.264   0.938 -0.1554  0.1739 -0.1556
  265DG     O19 6091   5.463   2.199   1.024  0.4057  0.4185 -0.0839
  265DG     H20 6092   5.550   2.214   1.213 -0.1544  2.3682  0.4653
  265DG     H21 6093   5.428   2.330   1.177 -0.8183  0.4082  2.0834
  265DG     H22 6094   5.423   2.353   0.906  0.7234  0.2545  1.4098
  265DG     H23 6095   5.276   2.289   0.986 -0.1524 -2.2191  1.2835
  266DG      C1 6096   4.861   3.582   4.722  0.6397  0.3906  0.0497
  266DG      C2 6097   4.903   3.123   5.236 -0.0185  1.1295  0.4883
  266DG      H3 6098   4.832   3.683   4.750  0.4719  1.0825 -2.3921
  266DG      H4 6099   4.763   3.537   4.712  1.4574 -1.1105 -1.9241
  266DG      H5 6100   4.909   3.590   4.624 -0.9058 -0.4854 -0.8147
  266DG      H6 6101   4.958   3.031   5.256  0.0983  0.0719 -3.8134
  266DG      H7 6102   4.820   3.143   5.302 -1.6899 -0.9644 -0.8427
  266DG      H8 6103   4.863   3.109   5.136  0.1024 -0.6857  0.6494
  266DG      O9 6104   4.936   3.519   4.818  0.3004  0.2641 -0.0951
  266DG     O10 6105   4.995   3.232   5.217 -0.4662 -0.7000 -0.2278
  266DG     C11 6106   5.044   3.592   4.863  0.4753  0.2625 -0.5145
  266DG     C12 6107   5.113   3.206   5.143  0.5433  0.8866 -0.1892
  266DG     H13 6108   5.014   3.663   4.940  0.4188 -1.0729  0.7274
  266DG     H14 6109   5.086   3.654   4.784  0.6178  0.8262 -0.0043
  266DG     H15 6110   5.099   3.153   5.049  0.9055 -0.2900  0.4072
  266DG     H16 6111   5.185   3.161   5.212 -0.5350 -0.4276  0.1165
  266DG     C17 6112   5.146   3.502   4.933 -0.2033  0.3855  0.3026
  266DG     C18 6113   5.171   3.340   5.107 -0.0258 -0.0281 -0.2489
  266DG     O19 6114   5.078   3.414   5.024 -0.1113  0.3415  0.3977
  266DG     H20 6115   5.217   3.559   4.993  2.6841 -2.2039 -0.3844
  266DG     H21 6116   5.204   3.437   4.867 -0.6157 -1.6824  1.8884
  266DG     H22 6117   5.198   3.393   5.198 -2.2085 -0.2254  0.5511
  266DG     H23 6118   5.267   3.319   5.058  0.2438 -1.8232  0.9693
  267DG      C1 6119   3.504   1.079   5.486 -0.0331  0.2676  0.5716
  267DG      C2 6120   3.720   1.222   4.939 -0.0847  0.2592 -0.4696
  267DG      H3 6121   3.585   1.008   5.468 -0.5338  0.1070 -1.2057
  267DG      H4 6122   3.440   1.056   5.572  1.1116 -0.0877  1.3517
  267DG      H5 6123   3.546   1.172   5.524 -0.0281 -0.3601  2.2069
  267DG      H6 6124   3.643   1.272   4.880 -0.8974 -2.5093 -1.9169
  267DG      H7 6125   3.784   1.296   4.987  0.3940 -2.1727  2.9594
  267DG      H8 6126   3.784   1.192   4.855  0.1988 -0.4822  0.0097
  267DG      O9 6127   3.428   1.117   5.372  0.0955 -0.1128 -0.2931
  267DG     O10 6128   3.660   1.118   5.016 -1.0484 -0.4736 -0.4761
  267DG     C11 6129   3.338   1.020   5.331  0.3986  0.0530  0.4666
  267DG     C12 6130   3.588   1.020   4.941  0.0443 -0.2789 -0.1068
  267DG     H13 6131   3.261   1.071   5.273  1.3715  0.0715 -0.8643
  267DG     H14 6132   3.288   0.976   5.416  0.3180 -1.6448 -0.4265
  267DG     H15 6133   3.645   0.972   4.862 -0.7445 -0.2067 -0.7312
  267DG     H16 6134   3.506   1.079   4.900  0.4297  0.6071  0.3718
  267DG     C17 6135   3.416   0.922   5.244 -0.4364 -0.2083 -0.6271
  267DG     C18 6136   3.531   0.916   5.034  0.1447  0.0410  0.5855
  267DG     O19 6137   3.460   0.990   5.134  0.0444 -0.4718  0.2494
  267DG     H20 6138   3.348   0.842   5.215  0.2978 -0.8262 -0.6745
  267DG     H21 6139   3.495   0.864   5.292  0.6930 -0.0660 -2.1942
  267DG     H22 6140   3.463   0.841   4.995  0.4644  0.9270 -1.8323
  267DG     H23 6141   3.621   0.874   5.079  0.9534  0.1165 -0.9079
  268DG      C1 6142   4.724   5.228   0.925  0.2088  0.2262  0.6083
  268DG      C2 6143   4.946   5.324   1.718  0.0037  0.9177 -0.0480
  268DG      H3 6144   4.727   5.136   0.868  0.9153  1.1631 -0.9315
  268DG      H4 6145   4.769   5.310   0.868 -1.8155  2.1258  1.5713
  268DG      H5 6146   4.620   5.252   0.951  0.1777  0.9577 -0.1412
  268DG      H6 6147   4.841   5.303   1.739  0.1441  0.9003  0.6522
  268DG      H7 6148   5.001   5.308   1.811  0.2756 -1.1242 -0.5072
  268DG      H8 6149   4.962   5.426   1.684  1.4821 -0.1841 -3.0269
  268DG      O9 6150   4.793   5.216   1.048 -0.4035 -0.2304  0.3358
  268DG     O10 6151   5.016   5.245   1.619 -0.6146  0.0884 -0.0385
  268DG     C11 6152   4.930   5.181   1.025  0.1047 -0.7951  0.4384
  268DG     C12 6153   4.945   5.241   1.497  0.1260  0.6571  0.1141
  268DG     H13 6154   4.976   5.273   0.988  0.6519 -0.8310  1.0109
  268DG     H14 6155   4.940   5.100   0.953 -0.7609  0.5820 -1.2848
  268DG     H15 6156   4.891   5.331   1.471  0.3851  0.8895  0.3710
  268DG     H16 6157   4.870   5.162   1.508 -0.9936  1.3573 -2.0607
  268DG     C17 6158   5.006   5.151   1.155 -0.4600 -0.0055  0.1040
  268DG     C18 6159   5.035   5.223   1.381 -0.0447  0.2621  0.2346
  268DG     O19 6160   4.946   5.212   1.271 -0.5185  0.0458 -0.2194
  268DG     H20 6161   5.110   5.183   1.147 -0.4364 -0.4862 -2.1789
  268DG     H21 6162   5.001   5.043   1.170 -1.5973 -0.1647 -1.2354
  268DG     H22 6163   5.110   5.303   1.373  0.8370 -0.6514 -1.3033
  268DG     H23 6164   5.083   5.126   1.378 -0.7382 -0.0715 -0.3233
  269DG      C1 6165   3.005   2.705   5.119  0.5749 -0.0207 -0.4409
  269DG      C2 6166   2.361   2.961   5.083 -0.4447 -0.1949  0.0226
  269DG      H3 6167   3.006   2.810   5.148 -2.1376 -0.3422  1.1502
  269DG      H4 6168   3.063   2.692   5.028 -1.1256 -0.7792 -1.4772
  269DG      H5 6169   3.048   2.655   5.206 -2.8379  0.4068  1.6908
  269DG      H6 6170   2.259   2.991   5.058 -0.1572  1.5947  0.8014
  269DG      H7 6171   2.417   3.042   5.131  0.1031 -0.7911  0.3960
  269DG      H8 6172   2.417   2.956   4.990 -1.6701  3.7481 -1.1582
  269DG      O9 6173   2.872   2.666   5.091  0.2021 -0.5618 -0.2786
  269DG     O10 6174   2.367   2.839   5.151  0.4827 -0.0246 -0.6366
  269DG     C11 6175   2.777   2.684   5.198  0.9498  0.4817  0.5142
  269DG     C12 6176   2.356   2.730   5.066 -0.1982  0.4861 -0.3013
  269DG     H13 6177   2.786   2.790   5.224  3.4224  0.9142 -1.7661
  269DG     H14 6178   2.794   2.616   5.281 -0.2917  1.7764  1.9057
  269DG     H15 6179   2.260   2.731   5.014 -0.1629  0.2178 -0.3763
  269DG     H16 6180   2.353   2.638   5.124 -0.4368 -0.7911 -2.2458
  269DG     C17 6181   2.644   2.640   5.151 -0.5884 -0.0713  0.2586
  269DG     C18 6182   2.486   2.695   4.989 -0.7659 -0.5760 -0.0379
  269DG     O19 6183   2.597   2.741   5.061  0.0826  0.5435 -0.4994
  269DG     H20 6184   2.584   2.651   5.241 -2.2004  0.1938 -0.8255
  269DG     H21 6185   2.646   2.536   5.117 -2.1027  0.5431 -1.8881
  269DG     H22 6186   2.495   2.588   4.969  0.2441 -0.4409 -0.3676
  269DG     H23 6187   2.478   2.745   4.892 -0.5240 -2.0767 -0.8732
  270DG      C1 6188   1.052   2.287   2.080 -0.2304 -0.2819 -0.0143
  270DG      C2 6189   0.501   2.490   2.397  0.0805  0.1372 -0.0020
  270DG      H3 6190   1.116   2.303   2.167 -2.3379  1.8397  1.2488
  270DG      H4 6191   1.129   2.267   2.005  1.0996  1.0319  0.9328
  270DG      H5 6192   0.997   2.196   2.103  1.1567 -1.1978 -0.1796
  270DG      H6 6193   0.523   2.401   2.454 -1.9075 -1.7227 -1.9269
  270DG      H7 6194   0.481   2.569   2.470  0.4664 -1.3600  1.7686
  270DG      H8 6195   0.404   2.469   2.351  0.1867 -0.8683  0.2273
  270DG      O9 6196   0.957   2.398   2.062 -0.6524  0.1674  0.3736
  270DG     O10 6197   0.609   2.510   2.315 -0.0617  0.4979  0.7886
  270DG     C11 6198   1.025   2.523   2.058 -0.0473 -0.0103  0.4766
  270DG     C12 6199   0.630   2.645   2.285 -0.6527 -0.8956 -0.5808
  270DG     H13 6200   1.084   2.531   1.967 -1.0393 -1.0613 -0.2921
  270DG     H14 6201   1.097   2.550   2.136  0.0979  0.7618  0.0886
  270DG     H15 6202   0.701   2.687   2.356 -2.6373 -0.4186  1.2318
  270DG     H16 6203   0.538   2.701   2.297 -1.0085 -1.3289 -1.2310
  270DG     C17 6204   0.907   2.623   2.051 -0.2249  0.5686 -0.1378
  270DG     C18 6205   0.693   2.658   2.152 -0.4078 -0.5327  0.2451
  270DG     O19 6206   0.821   2.594   2.160 -0.0088  0.1945  0.0571
  270DG     H20 6207   0.854   2.623   1.956 -0.0302 -0.0018 -0.2501
  270DG     H21 6208   0.949   2.723   2.062  3.4401 -0.6105 -1.7317
  270DG     H22 6209   0.639   2.613   2.069  1.2916 -0.3271 -1.0292
  270DG     H23 6210   0.702   2.762   2.121 -0.2527 -0.7715 -0.5308
  271DG      C1 6211   0.403   0.044   3.572  0.2377  0.4535 -0.1028
  271DG      C2 6212   0.077   0.287   3.056  0.0045 -0.1996 -0.3720
  271DG      H3 6213   0.428  -0.030   3.648  0.8904 -0.4533 -1.1793
  271DG      H4 6214   0.381   0.131   3.634 -1.3090  0.7179 -0.9854
  271DG      H5 6215   0.499   0.054   3.521  0.5161 -2.0066 -0.1580
  271DG      H6 6216   0.014   0.302   2.969 -1.1368  0.9718  0.6218
  271DG      H7 6217   0.065   0.362   3.133 -1.6207 -1.7181  0.9144
  271DG      H8 6218   0.181   0.312   3.031  0.3025 -0.5853  0.4615
  271DG      O9 6219   0.299   0.020   3.479 -0.2846  0.4592  0.4969
  271DG     O10 6220   0.067   0.151   3.099 -0.1973 -0.3581  0.5267
  271DG     C11 6221   0.284  -0.115   3.428 -0.5773 -0.0613  0.7189
  271DG     C12 6222   0.095   0.047   3.008  0.4354 -0.2053  0.3302
  271DG     H13 6223   0.280  -0.192   3.506 -0.1474 -0.9681 -0.1393
  271DG     H14 6224   0.377  -0.135   3.374 -0.0491  2.8468  0.3610
  271DG     H15 6225   0.190   0.072   2.960  0.9244  0.1385  1.4498
  271DG     H16 6226   0.009   0.033   2.942  0.2306  0.2018  0.5055
  271DG     C17 6227   0.174  -0.132   3.314 -0.0334  0.2159 -0.4910
  271DG     C18 6228   0.114  -0.072   3.097  0.4125 -0.0575 -0.1171
  271DG     O19 6229   0.193  -0.042   3.208 -0.2370 -0.1366 -0.1869
  271DG     H20 6230   0.074  -0.122   3.356 -0.2168 -0.5613 -0.7316
  271DG     H21 6231   0.183  -0.233   3.274 -0.1755 -0.5755  1.3331
  271DG     H22 6232   0.013  -0.101   3.129 -0.1623  0.2472 -1.5560
  271DG     H23 6233   0.159  -0.158   3.047  0.8908  0.4246 -0.5135
  272DG      C1 6234   0.984   0.770   2.755  0.0264  0.5093  0.0997
  272DG      C2 6235   0.744   1.296   3.288 -0.4785  0.1794 -0.2380
  272DG      H3 6236   0.928   0.689   2.709  0.9214  0.3678 -0.7604
  272DG      H4 6237   1.074   0.718   2.786 -0.8999 -3.2261 -2.8316
  272DG      H5 6238   1.009   0.842   2.677  0.5601 -1.1818 -1.3579
  272DG      H6 6239   0.769   1.221   3.363  1.3248  0.3161 -0.6372
  272DG      H7 6240   0.825   1.370   3.287  0.8055 -1.1771 -1.0888
  272DG      H8 6241   0.659   1.354   3.325  0.7325  0.0468  3.0595
  272DG      O9 6242   0.891   0.821   2.845  0.1456  0.2854 -0.2215
  272DG     O10 6243   0.720   1.241   3.165  0.0855  0.6891  0.5834
  272DG     C11 6244   0.948   0.914   2.938 -0.0587  0.4463 -0.4150
  272DG     C12 6245   0.643   1.124   3.170 -0.4464  0.2309  0.1948
  272DG     H13 6246   1.007   0.996   2.895  0.9681 -0.1988 -0.2661
  272DG     H14 6247   1.023   0.856   2.991 -0.8258 -0.5123 -0.3560
  272DG     H15 6248   0.548   1.139   3.221 -1.8145 -1.7875 -1.5636
  272DG     H16 6249   0.688   1.046   3.232  0.1957 -0.8433 -1.5193
  272DG     C17 6250   0.838   0.953   3.034 -0.1959 -0.3753  0.3309
  272DG     C18 6251   0.630   1.074   3.026 -1.0074 -0.6404 -0.6566
  272DG     O19 6252   0.763   1.053   2.966  0.6103  1.0831  0.0894
  272DG     H20 6253   0.872   0.996   3.128 -3.6875 -1.5500  2.3659
  272DG     H21 6254   0.769   0.869   3.044  0.2477 -1.3224 -3.3324
  272DG     H22 6255   0.572   0.982   3.027 -2.7588  0.3736 -2.4494
  272DG     H23 6256   0.572   1.139   2.961  0.2699 -1.5917 -2.8545
  273DG      C1 6257   1.735   3.999   3.649  0.2558 -0.4038  0.0811
  273DG      C2 6258   1.997   4.635   3.974  0.4780  0.4855 -0.7469
  273DG      H3 6259   1.717   3.899   3.689 -0.9497 -0.2056  0.0492
  273DG      H4 6260   1.837   4.007   3.612  0.9232 -1.7892  1.4868
  273DG      H5 6261   1.681   4.013   3.556 -0.3287  0.7911  0.5841
  273DG      H6 6262   1.985   4.551   4.043  0.7984  0.7038 -0.4210
  273DG      H7 6263   2.077   4.608   3.904  0.9266  0.6548 -0.3059
  273DG      H8 6264   2.038   4.723   4.022  1.2138 -0.2870  0.0776
  273DG      O9 6265   1.730   4.110   3.748  0.1596 -0.1393  0.6109
  273DG     O10 6266   1.872   4.669   3.922 -0.5020  0.5373  0.1793
  273DG     C11 6267   1.600   4.144   3.802 -0.2247  0.2787 -0.8390
  273DG     C12 6268   1.817   4.570   3.838 -0.1461  0.2234 -1.2018
  273DG     H13 6269   1.567   4.056   3.856  0.1990  0.5049 -0.2019
  273DG     H14 6270   1.537   4.152   3.713 -0.1238  0.0626 -0.9310
  273DG     H15 6271   1.898   4.506   3.805  0.0895 -1.1709  1.7482
  273DG     H16 6272   1.773   4.618   3.751 -0.1370  0.7168 -0.9335
  273DG     C17 6273   1.604   4.272   3.887 -0.6777  0.3657  0.4509
  273DG     C18 6274   1.709   4.480   3.914  0.4531 -0.1821 -0.0740
  273DG     O19 6275   1.671   4.384   3.825 -0.5028 -0.1295 -0.4266
  273DG     H20 6276   1.656   4.241   3.978  1.3564 -1.0271 -1.0819
  273DG     H21 6277   1.503   4.306   3.909  0.1493  2.0164  2.0630
  273DG     H22 6278   1.754   4.441   4.005 -1.9632 -1.0979  0.8364
  273DG     H23 6279   1.626   4.546   3.942  0.5125 -0.6953  1.4026
  274DG      C1 6280   3.999   1.348   4.654  0.2303  0.0384 -0.4373
  274DG      C2 6281   4.450   1.835   4.400 -0.3273 -0.1710  0.2235
  274DG      H3 6282   3.934   1.409   4.716  1.8138  1.6035 -0.2542
  274DG      H4 6283   4.092   1.320   4.702 -1.1131  0.1598  2.4208
  274DG      H5 6284   3.946   1.255   4.635 -1.2649  0.9192 -0.7466
  274DG      H6 6285   4.537   1.770   4.415  1.6049  2.0095 -0.8875
  274DG      H7 6286   4.483   1.904   4.322  0.9972  1.0119  1.7733
  274DG      H8 6287   4.463   1.880   4.498 -2.1011 -0.4315  0.6055
  274DG      O9 6288   4.025   1.415   4.529 -0.2692 -0.0622 -0.3134
  274DG     O10 6289   4.336   1.758   4.369  0.3215 -0.5699 -0.5534
  274DG     C11 6290   3.920   1.496   4.470 -0.0507  0.3390 -0.6498
  274DG     C12 6291   4.228   1.840   4.347  0.3097 -0.2340  0.8580
  274DG     H13 6292   3.879   1.555   4.551  0.0969 -1.1632  0.5543
  274DG     H14 6293   3.843   1.430   4.429 -0.2239  0.3147 -0.2889
  274DG     H15 6294   4.249   1.911   4.267  1.0479 -1.7209 -0.3288
  274DG     H16 6295   4.211   1.903   4.434  1.7563  1.1461  0.1965
  274DG     C17 6296   3.963   1.592   4.361  0.2716  0.7742 -0.1422
  274DG     C18 6297   4.107   1.766   4.293 -0.3219  0.6341 -1.0795
  274DG     O19 6298   4.075   1.664   4.396  0.1433 -0.6866 -0.0995
  274DG     H20 6299   3.890   1.667   4.332  0.2828  0.9864  0.3627
  274DG     H21 6300   3.993   1.540   4.270  0.2616 -0.2340  0.4178
  274DG     H22 6301   4.028   1.839   4.274 -1.9810 -0.8157  0.0367
  274DG     H23 6302   4.125   1.716   4.198 -0.4483  0.0623 -0.8022
  275DG      C1 6303   4.779   2.609   0.893 -0.5380 -0.0785  0.0397
  275DG      C2 6304   4.946   2.828   1.410 -0.5681 -0.0595  0.2126
  275DG      H3 6305   4.866   2.579   0.950 -0.0477 -1.8874 -1.5813
  275DG      H4 6306   4.792   2.598   0.785  0.2329  0.0501  0.1190
  275DG      H5 6307   4.699   2.538   0.917 -2.3826  1.8807  0.0315
  275DG      H6 6308   5.044   2.874   1.412 -0.6893  0.2273 -0.4516
  275DG      H7 6309   4.881   2.870   1.488  0.0940 -1.2085  1.4224
  275DG      H8 6310   4.958   2.720   1.421 -0.9341 -0.5773 -3.4663
  275DG      O9 6311   4.733   2.741   0.926  0.2412  0.2734 -0.2365
  275DG     O10 6312   4.902   2.856   1.278 -0.1111  0.2288 -0.1811
  275DG     C11 6313   4.811   2.845   0.866 -0.1048  0.4991  0.4557
  275DG     C12 6314   4.867   2.997   1.270  0.9607 -0.8041 -0.0874
  275DG     H13 6315   4.818   2.846   0.757 -0.7934 -2.1154  0.3228
  275DG     H14 6316   4.916   2.822   0.882 -0.0541 -0.1396 -0.6784
  275DG     H15 6317   4.945   3.059   1.315 -0.9030  1.8783 -0.3152
  275DG     H16 6318   4.778   3.028   1.326  1.2568  1.0274 -0.5513
  275DG     C17 6319   4.763   2.982   0.920  0.2024 -0.5126 -0.0307
  275DG     C18 6320   4.857   3.042   1.125  0.1316 -0.3120  0.2525
  275DG     O19 6321   4.752   2.974   1.060  0.5850 -0.2565  0.7590
  275DG     H20 6322   4.666   3.022   0.890 -0.0286  0.7848  2.2122
  275DG     H21 6323   4.829   3.065   0.893  0.0715 -0.2015  0.5935
  275DG     H22 6324   4.841   3.150   1.114  0.5233 -0.3605 -0.9572
  275DG     H23 6325   4.955   3.015   1.085  0.1719 -0.0450  0.1640
  276DG      C1 6326   3.048   1.392   2.418 -0.2456 -0.2837 -0.8423
  276DG      C2 6327   2.343   1.544   2.269  0.1926 -0.3369  0.2239
  276DG      H3 6328   3.066   1.479   2.481  0.4343 -0.8730 -0.2019
  276DG      H4 6329   3.149   1.368   2.385 -0.1298  0.1669 -0.8290
  276DG      H5 6330   3.030   1.303   2.477 -1.3307 -0.1942 -1.0158
  276DG      H6 6331   2.318   1.649   2.284 -1.1885 -0.3050 -1.8502
  276DG      H7 6332   2.268   1.511   2.198  2.5988 -1.4681 -1.9519
  276DG      H8 6333   2.325   1.491   2.363  2.6670 -0.4826  0.6884
  276DG      O9 6334   2.953   1.425   2.317 -0.0949  1.0567 -0.6682
  276DG     O10 6335   2.470   1.518   2.220  0.1020 -0.3299  0.1869
  276DG     C11 6336   2.943   1.310   2.232  0.3329  0.2054 -0.5753
  276DG     C12 6337   2.471   1.390   2.164  0.6694  0.3599  0.1588
  276DG     H13 6338   2.931   1.214   2.282  1.6914  0.4086  0.2079
  276DG     H14 6339   3.035   1.304   2.174 -0.6116 -0.4079 -2.0487
  276DG     H15 6340   2.393   1.376   2.089  1.3118  0.8458 -0.6218
  276DG     H16 6341   2.449   1.320   2.244  0.2911  1.2853  0.8959
  276DG     C17 6342   2.832   1.330   2.127 -0.1159  0.3172  0.1194
  276DG     C18 6343   2.598   1.340   2.096  0.0888  0.1678 -0.6313
  276DG     O19 6344   2.711   1.370   2.187 -0.1668 -0.3796 -0.1431
  276DG     H20 6345   2.823   1.238   2.069 -0.7278  1.5510 -1.8395
  276DG     H21 6346   2.859   1.413   2.062  2.7325 -1.4073 -1.0702
  276DG     H22 6347   2.593   1.233   2.078  1.2686 -0.1505  0.6565
  276DG     H23 6348   2.604   1.399   2.005 -0.1321  1.1224 -0.0514
  277DG      C1 6349   5.489   3.564   1.561 -0.1081  0.5803  0.0388
  277DG      C2 6350   5.960   3.348   1.045 -0.1931  0.5963 -0.4369
  277DG      H3 6351   5.536   3.658   1.589 -0.4867  1.4817 -2.1561
  277DG      H4 6352   5.511   3.488   1.637 -1.2420  1.1848  0.9942
  277DG      H5 6353   5.385   3.593   1.568 -0.3255  0.6765 -2.4854
  277DG      H6 6354   6.040   3.421   1.056 -2.3013  2.9399  0.3510
  277DG      H7 6355   5.984   3.265   0.979  2.1982  2.5398 -2.1986
  277DG      H8 6356   5.877   3.405   1.003 -0.2960  0.1134 -0.8967
  277DG      O9 6357   5.510   3.521   1.431 -0.2453 -0.1657 -0.8647
  277DG     O10 6358   5.923   3.293   1.172  0.0588  0.1580  0.0646
  277DG     C11 6359   5.642   3.534   1.400  0.3824  0.2963 -0.8467
  277DG     C12 6360   5.817   3.199   1.163 -0.0669  0.5246  0.1516
  277DG     H13 6361   5.705   3.492   1.478  0.5232 -2.6142 -2.3841
  277DG     H14 6362   5.657   3.640   1.378 -3.3467  1.4753  1.3643
  277DG     H15 6363   5.828   3.133   1.249 -0.9104 -2.0129 -1.5871
  277DG     H16 6364   5.836   3.126   1.084 -1.6481 -0.4070  0.5915
  277DG     C17 6365   5.659   3.459   1.262 -0.2036  0.1998 -0.0510
  277DG     C18 6366   5.672   3.253   1.159 -0.3108 -0.0851  0.0786
  277DG     O19 6367   5.627   3.329   1.269 -0.1670  0.1906 -0.2217
  277DG     H20 6368   5.766   3.478   1.257 -0.0718 -0.3943  0.4858
  277DG     H21 6369   5.607   3.511   1.180  2.2625  0.6482 -1.4401
  277DG     H22 6370   5.661   3.311   1.066  1.7404 -0.0678 -0.1924
  277DG     H23 6371   5.610   3.165   1.148  0.6685 -0.6440 -1.3190
  278DG      C1 6372   4.929   3.595   4.316 -0.3691  0.0727 -0.8232
  278DG      C2 6373   5.218   3.025   4.273 -0.8045 -0.0769  0.0137
  278DG      H3 6374   4.865   3.552   4.239 -2.3495 -0.6768  1.1144
  278DG      H4 6375   4.915   3.703   4.313 -0.3044  0.3455  2.9384
  278DG      H5 6376   4.900   3.559   4.415 -0.1075 -0.7367 -1.0333
  278DG      H6 6377   5.298   2.970   4.223 -0.3116  0.4834  0.1718
  278DG      H7 6378   5.196   2.987   4.373 -0.0339 -0.1371  0.1671
  278DG      H8 6379   5.135   3.013   4.203 -0.2440 -2.2912 -0.3515
  278DG      O9 6380   5.062   3.558   4.294  0.2754 -0.2850  0.0268
  278DG     O10 6381   5.250   3.163   4.283 -0.0969 -0.8309  0.1583
  278DG     C11 6382   5.153   3.616   4.379  0.2191 -0.6901 -0.8388
  278DG     C12 6383   5.356   3.196   4.373  0.4632 -0.2332 -1.0770
  278DG     H13 6384   5.135   3.612   4.487  0.4525 -0.1210 -0.7744
  278DG     H14 6385   5.151   3.725   4.372  4.6585 -0.4001 -0.6995
  278DG     H15 6386   5.440   3.128   4.362 -1.2830 -2.4825 -1.3563
  278DG     H16 6387   5.315   3.182   4.473 -0.9300 -0.9959 -1.7312
  278DG     C17 6388   5.287   3.555   4.349  0.7780 -0.4372 -0.3357
  278DG     C18 6389   5.386   3.348   4.368  0.3352  0.0549  0.2404
  278DG     O19 6390   5.264   3.415   4.371  0.8445 -0.1880 -0.2564
  278DG     H20 6391   5.358   3.578   4.428 -0.9111  0.2224  1.0298
  278DG     H21 6392   5.323   3.591   4.252  1.7735  0.3630  0.3148
  278DG     H22 6393   5.460   3.374   4.443 -0.6647  1.9899  0.6393
  278DG     H23 6394   5.437   3.367   4.274 -0.2501 -1.7503 -0.4902
  279DG      C1 6395   1.569   1.695   5.474 -0.7811 -0.4469  0.1078
  279DG      C2 6396   0.974   1.463   5.041  0.1230  0.0628  0.2653
  279DG      H3 6397   1.643   1.702   5.395 -0.9866  0.6519 -0.0076
  279DG      H4 6398   1.570   1.595   5.518 -0.5292 -0.3610  0.2945
  279DG      H5 6399   1.601   1.769   5.547  1.0016 -0.8634 -0.2180
  279DG      H6 6400   0.937   1.532   4.965 -1.5810 -0.5793  0.4597
  279DG      H7 6401   1.070   1.431   5.003  0.7023  1.3379  0.5967
  279DG      H8 6402   0.901   1.383   5.051  0.1192  0.1142  0.6798
  279DG      O9 6403   1.448   1.727   5.414  0.2119 -0.6502 -0.0811
  279DG     O10 6404   0.987   1.532   5.169 -0.0995 -0.8231  0.3794
  279DG     C11 6405   1.344   1.718   5.503  0.2070 -0.5078  0.1238
  279DG     C12 6406   1.043   1.458   5.270  0.5440 -0.2312 -0.3060
  279DG     H13 6407   1.353   1.796   5.578 -1.5249 -0.2002  0.0624
  279DG     H14 6408   1.334   1.622   5.555  0.0191  0.2344  1.5197
  279DG     H15 6409   1.136   1.427   5.224  0.3961  0.4283 -1.0864
  279DG     H16 6410   0.991   1.367   5.298  2.1587 -0.7189  1.2709
  279DG     C17 6411   1.217   1.751   5.424  0.1356 -0.3724  0.4425
  279DG     C18 6412   1.086   1.556   5.378 -0.3057  0.3855 -0.1888
  279DG     O19 6413   1.179   1.646   5.327 -0.5686 -0.6022 -0.0516
  279DG     H20 6414   1.230   1.848   5.377 -0.4993 -1.0459 -1.1916
  279DG     H21 6415   1.131   1.774   5.487 -1.2449 -1.0672 -1.1026
  279DG     H22 6416   0.991   1.602   5.408 -1.2018 -0.5717 -1.4364
  279DG     H23 6417   1.139   1.508   5.460 -0.6501 -0.3512 -0.3936
  280DG      C1 6418   4.973   1.967   3.077 -0.6074  0.1926 -0.7826
  280DG      C2 6419   4.403   2.561   3.224  0.1910 -0.5211 -0.0779
  280DG      H3 6420   5.003   1.968   2.972  3.0736  0.1500  0.1338
  280DG      H4 6421   5.019   1.877   3.119 -1.7027  0.5178  1.2143
  280DG      H5 6422   5.030   2.053   3.113  3.0112 -1.6801 -1.4941
  280DG      H6 6423   4.298   2.567   3.254  0.5652 -0.1534  1.2275
  280DG      H7 6424   4.454   2.641   3.277 -1.2829 -0.0679  0.7036
  280DG      H8 6425   4.409   2.582   3.117 -2.5131  1.0854 -0.0016
  280DG      O9 6426   4.836   1.961   3.114 -0.2505 -0.4809 -0.1511
  280DG     O10 6427   4.455   2.434   3.243  0.5100  0.2251 -0.2895
  280DG     C11 6428   4.766   2.085   3.118 -0.8479  0.2704 -0.0680
  280DG     C12 6429   4.371   2.329   3.188 -0.1249  0.2717 -0.3552
  280DG     H13 6430   4.785   2.145   3.029 -0.2889  0.1332 -0.0469
  280DG     H14 6431   4.797   2.148   3.201 -1.1049  0.4880 -0.1388
  280DG     H15 6432   4.347   2.349   3.083 -0.8002 -2.8788 -0.9281
  280DG     H16 6433   4.272   2.330   3.233 -0.8087 -0.6688 -1.7508
  280DG     C17 6434   4.621   2.054   3.140 -0.0085  0.0891 -0.4175
  280DG     C18 6435   4.429   2.186   3.203  0.5610  0.3094  0.7343
  280DG     O19 6436   4.569   2.178   3.175  0.5342 -0.5763 -0.4810
  280DG     H20 6437   4.615   1.980   3.219  0.6726  0.9951  0.5172
  280DG     H21 6438   4.569   2.019   3.051 -1.0646 -0.1169  0.2702
  280DG     H22 6439   4.411   2.146   3.303 -0.9462 -0.6029  0.1345
  280DG     H23 6440   4.367   2.126   3.135 -0.0993  1.3668  0.3698
  281DG      C1 6441   4.584   0.500   5.496 -0.1517 -0.7832 -0.7922
  281DG      C2 6442   4.044   0.160   5.699 -0.6168 -0.1854  0.0822
  281DG      H3 6443   4.666   0.433   5.520  2.7550  2.2412 -1.4311
  281DG      H4 6444   4.620   0.602   5.483  0.3845 -1.0301 -1.3352
  281DG      H5 6445   4.545   0.465   5.400  2.6797  0.0633 -2.3699
  281DG      H6 6446   3.995   0.181   5.605  1.3116 -1.9750 -1.4275
  281DG      H7 6447   4.100   0.067   5.685 -1.1190 -0.2258 -1.9534
  281DG      H8 6448   3.969   0.143   5.776  1.0667  1.9327  2.3612
  281DG      O9 6449   4.480   0.497   5.593 -0.0998 -0.1625 -0.2819
  281DG     O10 6450   4.124   0.271   5.742  0.2400  0.0882 -0.1652
  281DG     C11 6451   4.533   0.488   5.724 -0.1597  0.4516  0.3227
  281DG     C12 6452   4.166   0.254   5.877 -0.0921  0.3123 -1.0190
  281DG     H13 6453   4.603   0.569   5.745  0.7601 -0.4897  0.9512
  281DG     H14 6454   4.591   0.397   5.739 -0.8873 -0.2842 -1.1012
  281DG     H15 6455   4.234   0.170   5.889  0.9415  1.1050 -1.1458
  281DG     H16 6456   4.082   0.249   5.945  0.5443  0.5524 -0.2001
  281DG     C17 6457   4.434   0.500   5.832  0.5689  0.4002  0.7068
  281DG     C18 6458   4.247   0.375   5.913 -0.7286  0.3610  0.4155
  281DG     O19 6459   4.347   0.391   5.813  0.0752 -0.3040  0.8317
  281DG     H20 6460   4.381   0.595   5.822  1.1352  0.7469  0.9327
  281DG     H21 6461   4.476   0.497   5.932 -0.1948  0.6769  1.0442
  281DG     H22 6462   4.177   0.457   5.928  0.4679  0.8792  4.2693
  281DG     H23 6463   4.290   0.349   6.010  0.3066  0.4853  0.0094
  282DG      C1 6464   4.575   5.108   1.362 -0.1034 -0.7597 -0.3982
  282DG      C2 6465   4.645   4.716   1.796  0.3886 -0.0660  0.9378
  282DG      H3 6466   4.670   5.115   1.309  0.4355  1.1750  0.7284
  282DG      H4 6467   4.512   5.183   1.316  0.7098  0.2428  0.0943
  282DG      H5 6468   4.546   5.006   1.337 -0.5170 -0.0909 -2.8804
  282DG      H6 6469   4.745   4.757   1.810 -0.2385  2.4724 -1.2417
  282DG      H7 6470   4.613   4.645   1.873 -2.7427 -0.4355 -0.5626
  282DG      H8 6471   4.639   4.661   1.702  0.6447  0.1676  0.7837
  282DG      O9 6472   4.576   5.133   1.500  0.0761  0.2429  0.0366
  282DG     O10 6473   4.552   4.821   1.808 -0.0511 -0.1391 -0.4424
  282DG     C11 6474   4.447   5.169   1.546  0.2650  0.5257 -0.5098
  282DG     C12 6475   4.567   4.911   1.919  0.6411 -0.0888 -0.0380
  282DG     H13 6476   4.363   5.099   1.535  0.1771  0.2623  1.5368
  282DG     H14 6477   4.419   5.265   1.504 -3.3854  0.0523  0.4818
  282DG     H15 6478   4.674   4.923   1.935  1.3287 -2.6726 -1.9936
  282DG     H16 6479   4.508   4.868   2.000 -2.6797  0.7455 -1.7959
  282DG     C17 6480   4.474   5.194   1.701  0.4200  0.2130  0.5955
  282DG     C18 6481   4.501   5.043   1.880 -0.6445  0.3406 -0.1033
  282DG     O19 6482   4.543   5.078   1.745  0.0715  0.3665 -0.3457
  282DG     H20 6483   4.380   5.204   1.755  0.3384 -1.6268  0.8613
  282DG     H21 6484   4.532   5.286   1.713 -0.7703  1.1021 -0.2952
  282DG     H22 6485   4.393   5.038   1.889 -0.8281  2.5522 -0.6201
  282DG     H23 6486   4.533   5.115   1.956  0.9842  0.6552 -1.0425
  283DG      C1 6487   4.102   0.410   2.072  0.2259  0.0028 -0.4876
  283DG      C2 6488   4.058   0.272   2.737  0.2369  0.1343 -0.2471
  283DG      H3 6489   4.031   0.493   2.080 -0.8494 -0.6799 -2.3613
  283DG      H4 6490   4.052   0.315   2.057  0.0797  0.0119 -0.0633
  283DG      H5 6491   4.161   0.428   1.982 -2.3511 -0.6040 -2.4519
  283DG      H6 6492   4.124   0.276   2.824  0.7088  1.4947 -0.6290
  283DG      H7 6493   4.004   0.366   2.751 -0.0646  0.0487 -0.8329
  283DG      H8 6494   3.996   0.185   2.755 -0.5418  0.7987  0.4207
  283DG      O9 6495   4.184   0.398   2.188  0.3992 -0.0145  0.2792
  283DG     O10 6496   4.127   0.273   2.608 -0.2410  0.4422  0.3539
  283DG     C11 6497   4.283   0.293   2.167  0.1371  0.1756  0.2804
  283DG     C12 6498   4.219   0.160   2.602  0.6209  0.4872 -0.4960
  283DG     H13 6499   4.352   0.324   2.088 -0.8278  2.0268  0.1103
  283DG     H14 6500   4.251   0.193   2.140  0.3458  0.3774 -0.7608
  283DG     H15 6501   4.167   0.069   2.572  0.2492  1.5642 -3.4532
  283DG     H16 6502   4.263   0.138   2.699  0.5431 -0.8084 -0.7381
  283DG     C17 6503   4.364   0.282   2.296  0.1273  0.4697  0.0959
  283DG     C18 6504   4.330   0.185   2.502 -0.2923  0.2170 -0.2241
  283DG     O19 6505   4.272   0.250   2.393  0.5696  0.4729  0.3559
  283DG     H20 6506   4.412   0.376   2.320  0.7457 -0.1490  1.3684
  283DG     H21 6507   4.444   0.210   2.277 -0.8625  0.0423 -3.2163
  283DG     H22 6508   4.407   0.252   2.540 -0.8887  0.5508  0.4345
  283DG     H23 6509   4.382   0.095   2.469 -1.0765 -0.3538  0.0494
  284DG      C1 6510   4.923   0.962   3.833  1.2610 -0.4742 -0.8806
  284DG      C2 6511   4.564   1.254   3.963 -0.2318 -0.3889 -0.1400
  284DG      H3 6512   5.032   0.959   3.830  1.3042  0.2489 -0.3874
  284DG      H4 6513   4.882   0.876   3.779  0.6868 -0.6745 -0.1357
  284DG      H5 6514   4.912   0.941   3.939 -0.6134  1.4580 -0.6367
  284DG      H6 6515   4.616   1.194   4.038  0.5269  2.2891  1.5908
  284DG      H7 6516   4.582   1.359   3.983 -1.9870  0.1566 -1.2305
  284DG      H8 6517   4.463   1.215   3.969  0.7824 -3.1271  0.5259
  284DG      O9 6518   4.857   1.081   3.788  0.0334 -0.3696  0.2238
  284DG     O10 6519   4.607   1.236   3.826 -0.2665  0.2188 -0.8031
  284DG     C11 6520   4.905   1.126   3.662 -0.9378 -0.0135 -0.1414
  284DG     C12 6521   4.534   1.324   3.736 -0.3452 -0.3946 -1.1545
  284DG     H13 6522   4.919   1.044   3.592 -2.2985 -1.7447  1.4789
  284DG     H14 6523   5.007   1.162   3.674 -0.4690 -0.9289 -1.1932
  284DG     H15 6524   4.552   1.430   3.755  0.7705 -0.7729  0.0750
  284DG     H16 6525   4.429   1.302   3.754 -0.3712  0.9537  0.5593
  284DG     C17 6526   4.805   1.238   3.618  0.3383 -0.0564  0.1617
  284DG     C18 6527   4.575   1.293   3.594  0.1810  0.0555 -0.4703
  284DG     O19 6528   4.679   1.195   3.590 -0.2683  0.4343  0.0086
  284DG     H20 6529   4.840   1.287   3.528 -2.8481  3.2128  0.4758
  284DG     H21 6530   4.804   1.309   3.701  2.9155 -0.1660  0.3468
  284DG     H22 6531   4.490   1.259   3.535 -0.4985  0.3980  0.2965
  284DG     H23 6532   4.609   1.382   3.540  0.0572 -0.7597 -1.9375
  285DG      C1 6533   3.898   1.677   0.275 -0.7253 -0.0685  0.1755
  285DG      C2 6534   4.629   1.785   0.180  0.7149  0.2125 -0.0686
  285DG      H3 6535   3.888   1.762   0.343  0.3501 -0.7234  1.1887
  285DG      H4 6536   3.917   1.593   0.342  2.3571 -0.1713 -0.7056
  285DG      H5 6537   3.805   1.665   0.219 -0.6047  1.0636 -0.2914
  285DG      H6 6538   4.687   1.732   0.256  2.5642  3.2244  0.8259
  285DG      H7 6539   4.684   1.769   0.088 -0.6835  0.4850 -0.9749
  285DG      H8 6540   4.633   1.892   0.201 -1.2037  0.5867 -1.3605
  285DG      O9 6541   4.008   1.682   0.180  0.0936 -0.2133 -0.1488
  285DG     O10 6542   4.487   1.739   0.152 -0.1263  0.0687 -0.1986
  285DG     C11 6543   4.021   1.559   0.109 -0.3515  0.0093 -0.4262
  285DG     C12 6544   4.447   1.775   0.024  0.4836 -0.5113  0.6924
  285DG     H13 6545   3.931   1.512   0.069 -1.4823 -1.0325  3.0022
  285DG     H14 6546   4.048   1.502   0.198  1.5343  2.2341  0.5291
  285DG     H15 6547   4.525   1.786  -0.051 -0.3218  0.0596 -0.0789
  285DG     H16 6548   4.397   1.872   0.026  1.0437 -0.1310 -1.3535
  285DG     C17 6549   4.142   1.558   0.006  0.7573  0.3439 -0.7848
  285DG     C18 6550   4.351   1.656  -0.017 -0.8139 -0.4813 -0.5625
  285DG     O19 6551   4.232   1.650   0.059  0.1505  0.0900 -0.1223
  285DG     H20 6552   4.112   1.584  -0.096  0.6366  1.4553 -0.4786
  285DG     H21 6553   4.179   1.455  -0.003  1.5017  0.3701  1.3924
  285DG     H22 6554   4.332   1.679  -0.122  0.5479  0.8614 -0.5366
  285DG     H23 6555   4.417   1.569  -0.010  1.3790  1.1207 -0.2209
  286DG      C1 6556   2.339   0.495   1.330  0.6166  0.2533 -0.3047
  286DG      C2 6557   2.739   0.900   1.651  1.0219 -0.2052  0.1930
  286DG      H3 6558   2.416   0.476   1.255  0.8327 -1.3128  0.2641
  286DG      H4 6559   2.263   0.568   1.304 -0.4564 -1.3428 -1.9168
  286DG      H5 6560   2.266   0.414   1.326 -0.3504  1.0563  0.5417
  286DG      H6 6561   2.685   0.967   1.585 -0.8215  0.7115  2.4932
  286DG      H7 6562   2.731   0.957   1.743  2.0139 -1.6200  1.2139
  286DG      H8 6563   2.845   0.887   1.629  1.0764 -0.6539  0.6990
  286DG      O9 6564   2.397   0.504   1.456  0.2167 -0.1467  0.0438
  286DG     O10 6565   2.679   0.772   1.656  0.0300 -0.4698 -0.4673
  286DG     C11 6566   2.457   0.378   1.488 -0.4370  0.0592 -0.0743
  286DG     C12 6567   2.753   0.671   1.724  0.1452 -0.3670 -0.0867
  286DG     H13 6568   2.516   0.329   1.411 -1.2984 -0.4163 -0.4477
  286DG     H14 6569   2.385   0.301   1.516  1.8911 -1.5731  1.9004
  286DG     H15 6570   2.786   0.701   1.824  0.6340 -1.7498  0.1920
  286DG     H16 6571   2.840   0.638   1.667  0.8721 -0.3107  0.9469
  286DG     C17 6572   2.536   0.397   1.614  0.5010 -0.3291 -0.3680
  286DG     C18 6573   2.666   0.549   1.739 -0.2081 -0.5449 -0.4251
  286DG     O19 6574   2.616   0.507   1.613 -0.3540  0.4321  0.2078
  286DG     H20 6575   2.586   0.302   1.632 -1.0277 -0.9928  0.5294
  286DG     H21 6576   2.463   0.402   1.694 -0.9002 -2.9741 -1.3445
  286DG     H22 6577   2.701   0.459   1.789  0.4284 -0.1855 -0.2082
  286DG     H23 6578   2.594   0.593   1.808 -0.8776  1.3087 -2.1859
  287DG      C1 6579   1.359   0.600   3.435  0.4854 -0.1645  0.5887
  287DG      C2 6580   1.970   1.116   3.733  0.1656  1.3293  0.4015
  287DG      H3 6581   1.302   0.531   3.372 -0.9419  1.1305  0.4138
  287DG      H4 6582   1.284   0.662   3.484  0.5453 -0.8580  1.5776
  287DG      H5 6583   1.404   0.527   3.502  1.6239  0.6362  0.7314
  287DG      H6 6584   2.074   1.101   3.704 -0.5996 -1.7215 -1.1917
  287DG      H7 6585   1.953   1.222   3.753 -1.8225  1.0475  0.4422
  287DG      H8 6586   1.943   1.044   3.810 -3.1381  0.5679 -1.2896
  287DG      O9 6587   1.466   0.662   3.365 -0.6871 -0.4441  0.1403
  287DG     O10 6588   1.880   1.079   3.628  0.1273  0.0610  0.9211
  287DG     C11 6589   1.538   0.747   3.456 -0.2733  0.3815 -0.4952
  287DG     C12 6590   1.750   1.048   3.671 -0.4665  0.0209  1.1732
  287DG     H13 6591   1.602   0.685   3.518  0.3159  0.5548 -0.9244
  287DG     H14 6592   1.468   0.806   3.516 -0.9207 -0.3475 -0.5105
  287DG     H15 6593   1.716   1.130   3.734  0.9777  1.3530  0.2956
  287DG     H16 6594   1.755   0.959   3.733  1.7828 -0.8002 -0.0942
  287DG     C17 6595   1.639   0.836   3.392  0.2365  0.2332  1.0466
  287DG     C18 6596   1.656   1.011   3.551  0.2529  0.0429  0.2913
  287DG     O19 6597   1.714   0.902   3.491 -0.1363 -0.0607  0.2613
  287DG     H20 6598   1.583   0.897   3.321 -1.4246 -1.0342  1.2310
  287DG     H21 6599   1.699   0.769   3.330 -0.4339  1.8451 -1.5068
  287DG     H22 6600   1.559   0.990   3.596  0.3249 -2.0252 -0.4315
  287DG     H23 6601   1.655   1.099   3.486 -0.4460 -0.1316  0.0622
  288DG      C1 6602   1.347   3.898   1.298 -0.2167 -0.3657 -0.0649
  288DG      C2 6603   0.731   3.642   1.380 -0.7883 -0.0686  0.5401
  288DG      H3 6604   1.418   3.959   1.241 -0.0258  0.0418  0.5869
  288DG      H4 6605   1.387   3.797   1.289  2.6947  0.7609 -0.9156
  288DG      H5 6606   1.362   3.932   1.401 -0.4382 -2.9144  0.8616
  288DG      H6 6607   0.677   3.694   1.460 -0.8452 -1.7139  1.6248
  288DG      H7 6608   0.664   3.594   1.309 -2.5451  0.6345  1.6395
  288DG      H8 6609   0.780   3.557   1.427  0.2641 -0.9757 -2.0694
  288DG      O9 6610   1.211   3.895   1.256  0.5901 -0.2832 -0.2244
  288DG     O10 6611   0.815   3.729   1.307 -0.4113  1.0896  0.1026
  288DG     C11 6612   1.183   4.016   1.184  1.2975 -0.9081  0.7619
  288DG     C12 6613   0.748   3.832   1.239  0.3865  0.0325 -0.3234
  288DG     H13 6614   1.259   4.029   1.107  0.6564 -1.0964  0.0967
  288DG     H14 6615   1.195   4.107   1.242  0.6597 -1.6483  2.1152
  288DG     H15 6616   0.711   3.913   1.302  0.1860  0.3385 -0.8348
  288DG     H16 6617   0.666   3.792   1.179  1.7416 -0.0634 -2.1979
  288DG     C17 6618   1.048   4.007   1.113  0.3371  0.3546 -0.3506
  288DG     C18 6619   0.843   3.894   1.138  0.1550  1.0829 -0.2386
  288DG     O19 6620   0.965   3.932   1.200  0.8844  0.0846 -0.2279
  288DG     H20 6621   1.058   3.954   1.018 -1.2248 -2.8195  1.1103
  288DG     H21 6622   1.000   4.104   1.097  1.1641  1.3641  2.5496
  288DG     H22 6623   0.881   3.820   1.068 -1.7111 -0.3460  0.2049
  288DG     H23 6624   0.792   3.977   1.088  0.9200  2.2606  0.8514
  289DG      C1 6625   0.318   4.454   4.806  0.1605  0.4531  0.0626
  289DG      C2 6626   0.794   5.021   5.001 -0.7363 -0.2492  0.0899
  289DG      H3 6627   0.242   4.376   4.806  2.1263 -1.5975 -2.1953
  289DG      H4 6628   0.391   4.411   4.738  0.1264  1.4526 -0.6268
  289DG      H5 6629   0.279   4.545   4.761 -0.7972 -0.1316 -0.3345
  289DG      H6 6630   0.760   5.063   4.906  0.8045  0.2516 -0.2689
  289DG      H7 6631   0.853   5.100   5.047 -1.5619  1.7095 -2.0230
  289DG      H8 6632   0.853   4.935   4.970  1.2865  1.1188 -0.1032
  289DG      O9 6633   0.380   4.459   4.935 -0.5451  0.4293 -0.0296
  289DG     O10 6634   0.697   4.962   5.081 -0.2417  0.4336  0.7604
  289DG     C11 6635   0.296   4.513   5.034 -0.1328 -0.5929  0.5140
  289DG     C12 6636   0.618   4.858   5.013 -0.2651 -0.2775  0.0255
  289DG     H13 6637   0.252   4.442   5.104 -1.9491  1.9814  2.1656
  289DG     H14 6638   0.209   4.566   4.997  0.5504 -0.2365 -0.6510
  289DG     H15 6639   0.692   4.781   4.990  0.8930  0.8883 -0.3133
  289DG     H16 6640   0.589   4.899   4.917  2.1108 -2.2734 -1.6703
  289DG     C17 6641   0.376   4.616   5.122 -0.3852  0.0854  0.4155
  289DG     C18 6642   0.515   4.798   5.104  0.4794 -0.7589  0.7068
  289DG     O19 6643   0.442   4.703   5.034  0.2809  0.4898 -0.3677
  289DG     H20 6644   0.465   4.576   5.171 -0.5944 -1.0636 -0.1080
  289DG     H21 6645   0.318   4.676   5.192 -1.9221  0.4070 -1.0871
  289DG     H22 6646   0.567   4.774   5.197  1.4406  1.2344  0.7346
  289DG     H23 6647   0.446   4.877   5.133  1.1527 -0.8011  2.5492
  290DG      C1 6648   0.021   5.042   3.391 -0.2104  0.6134 -0.0199
  290DG      C2 6649   0.115   4.258   3.452  0.0431  0.0180  0.0932
  290DG      H3 6650   0.117   4.996   3.413 -0.9413 -1.5526 -1.1694
  290DG      H4 6651  -0.002   5.120   3.465 -0.3416 -0.8232  1.5057
  290DG      H5 6652   0.024   5.076   3.288  0.7654 -1.7884 -0.8467
  290DG      H6 6653   0.144   4.198   3.538 -2.2616 -0.3812  0.6612
  290DG      H7 6654   0.045   4.202   3.389  0.5275  2.4819 -2.8757
  290DG      H8 6655   0.203   4.280   3.392  0.5810 -1.6028  0.2531
  290DG      O9 6656  -0.073   4.941   3.403 -0.1505  0.3011  0.0646
  290DG     O10 6657   0.041   4.377   3.493 -0.2038  0.1440  0.4544
  290DG     C11 6658  -0.072   4.888   3.536 -0.3036 -0.3346  0.3319
  290DG     C12 6659   0.129   4.475   3.545 -0.4134  0.6324 -0.1623
  290DG     H13 6660  -0.148   4.940   3.594 -0.5794 -0.7579  0.3557
  290DG     H14 6661   0.026   4.897   3.583  0.9387 -2.3569 -1.6375
  290DG     H15 6662   0.197   4.511   3.468  1.0236  1.0297  1.2438
  290DG     H16 6663   0.180   4.434   3.632 -0.5080 -0.1083 -0.4490
  290DG     C17 6664  -0.116   4.744   3.539  0.3813  0.2709  0.4744
  290DG     C18 6665   0.057   4.600   3.598  0.0715  0.3756  0.7866
  290DG     O19 6666  -0.020   4.648   3.495 -0.2813  0.2116  0.2369
  290DG     H20 6667  -0.200   4.739   3.470  1.9732  1.6690 -1.6750
  290DG     H21 6668  -0.149   4.726   3.642  0.0312  0.7626  0.4487
  290DG     H22 6669  -0.007   4.574   3.682  0.1605  0.3501  0.8465
  290DG     H23 6670   0.133   4.672   3.628 -0.3756  1.0733  0.2653
  291DG      C1 6671   0.664   3.229   3.283 -0.9018 -0.1142  0.2785
  291DG      C2 6672   0.386   3.490   2.684  0.2085 -0.0826  0.8718
  291DG      H3 6673   0.757   3.184   3.246  0.0278  0.7979  1.4222
  291DG      H4 6674   0.642   3.181   3.378  0.6084  2.0517  1.8067
  291DG      H5 6675   0.692   3.332   3.304 -0.5695  0.0857 -1.0593
  291DG      H6 6676   0.295   3.509   2.627 -0.6283 -1.1575  1.8039
  291DG      H7 6677   0.417   3.577   2.741  1.3020 -0.8767  1.5199
  291DG      H8 6678   0.464   3.474   2.609  1.5033  2.4780  1.5731
  291DG      O9 6679   0.561   3.210   3.188  0.4621  0.5949  0.2730
  291DG     O10 6680   0.367   3.389   2.780  0.4471 -0.1703 -0.5385
  291DG     C11 6681   0.559   3.076   3.128 -0.1838 -0.4623  0.1152
  291DG     C12 6682   0.374   3.265   2.723  0.2287  0.2556 -0.9542
  291DG     H13 6683   0.552   2.996   3.201  0.6608  0.3126  1.0721
  291DG     H14 6684   0.653   3.050   3.078 -0.2510 -0.4798 -0.0042
  291DG     H15 6685   0.468   3.238   2.676  0.0255 -0.9878 -0.6890
  291DG     H16 6686   0.286   3.247   2.662 -0.8881  1.2230  0.3039
  291DG     C17 6687   0.438   3.070   3.035  0.8763  0.4743 -0.3626
  291DG     C18 6688   0.353   3.156   2.832  0.7057  0.5096  0.0708
  291DG     O19 6689   0.458   3.161   2.933 -0.2709  0.2432  0.2258
  291DG     H20 6690   0.345   3.090   3.089  0.9814 -2.3893  1.0701
  291DG     H21 6691   0.424   2.967   3.002  2.0752  0.3816 -0.6253
  291DG     H22 6692   0.250   3.148   2.865  1.2237 -0.0034  1.6769
  291DG     H23 6693   0.372   3.062   2.779 -0.0455  0.4171 -0.0412
  292DG      C1 6694   3.409   1.032   3.368  0.7070 -0.6340 -0.2697
  292DG      C2 6695   3.419   1.272   4.135  0.7538  0.5441 -0.2089
  292DG      H3 6696   3.301   1.023   3.382  0.6423  0.3425 -0.1226
  292DG      H4 6697   3.437   0.941   3.421  0.4751 -1.2801 -1.2335
  292DG      H5 6698   3.430   1.010   3.264  2.5257 -0.9274  0.1279
  292DG      H6 6699   3.468   1.348   4.196 -0.2715  0.9072  0.1964
  292DG      H7 6700   3.313   1.298   4.145  0.6698  0.0581  0.2109
  292DG      H8 6701   3.435   1.167   4.159 -0.8638  0.0535 -1.0903
  292DG      O9 6702   3.463   1.160   3.402  0.9553 -0.5132  0.6660
  292DG     O10 6703   3.464   1.280   4.001 -0.0242 -0.3301  0.4552
  292DG     C11 6704   3.426   1.196   3.532 -0.2730 -0.4060 -0.7766
  292DG     C12 6705   3.445   1.413   3.945 -0.5318  1.1063 -0.2502
  292DG     H13 6706   3.448   1.111   3.598 -0.7872 -0.1322 -0.2368
  292DG     H14 6707   3.318   1.206   3.527 -0.5276 -2.4445 -0.1612
  292DG     H15 6708   3.508   1.474   4.010  1.1070 -0.4588 -0.2842
  292DG     H16 6709   3.339   1.435   3.943 -0.8334 -0.1600 -3.1522
  292DG     C17 6710   3.505   1.321   3.584 -0.1641  0.1823 -0.0953
  292DG     C18 6711   3.501   1.429   3.805  0.3552  0.3669  0.2379
  292DG     O19 6712   3.432   1.349   3.710 -0.0340  0.7663  0.2669
  292DG     H20 6713   3.502   1.409   3.519  2.8375  1.4872  1.3643
  292DG     H21 6714   3.612   1.303   3.598 -0.0096  1.7769  1.0258
  292DG     H22 6715   3.497   1.528   3.759  0.9566 -0.3957 -1.5634
  292DG     H23 6716   3.606   1.398   3.814 -0.0475 -0.9674  0.5439
  293DG      C1 6717   0.251   1.100   2.970  0.1565  0.1249 -0.4319
  293DG      C2 6718   0.366   0.765   3.696  0.3593 -0.0545  0.2330
  293DG      H3 6719   0.328   1.059   2.904  1.8139  1.3102  0.6936
  293DG      H4 6720   0.248   1.207   2.952  2.2267  0.2607 -0.2509
  293DG      H5 6721   0.155   1.052   2.951  1.8896 -2.9885 -2.1693
  293DG      H6 6722   0.289   0.706   3.747 -0.7899  0.2660 -1.0970
  293DG      H7 6723   0.466   0.729   3.718  1.4124 -0.8077 -4.7939
  293DG      H8 6724   0.356   0.865   3.739 -0.7832  0.7535 -1.8101
  293DG      O9 6725   0.303   1.076   3.096 -0.0272 -1.1564 -0.8819
  293DG     O10 6726   0.346   0.762   3.554  0.1183  0.0954  0.1246
  293DG     C11 6727   0.211   1.120   3.198  0.0694  0.0973 -0.4521
  293DG     C12 6728   0.452   0.833   3.489  0.5293  0.9041  0.4853
  293DG     H13 6729   0.110   1.079   3.195  0.3139 -0.7146  1.1912
  293DG     H14 6730   0.186   1.225   3.182  0.6014  0.5278  1.2654
  293DG     H15 6731   0.455   0.787   3.390  1.0347  1.2567  0.3286
  293DG     H16 6732   0.553   0.817   3.526  1.6381  0.2629 -2.5511
  293DG     C17 6733   0.276   1.116   3.337  0.2887 -0.1639 -0.3861
  293DG     C18 6734   0.427   0.982   3.454  1.0665 -0.2738  0.4703
  293DG     O19 6735   0.327   0.986   3.361  0.4515  0.1100  0.6866
  293DG     H20 6736   0.202   1.137   3.414  0.5899 -0.4784 -0.0083
  293DG     H21 6737   0.359   1.187   3.332 -0.2282  0.4586 -0.2868
  293DG     H22 6738   0.401   1.036   3.545  0.4525 -1.2783  0.9094
  293DG     H23 6739   0.515   1.030   3.412  1.7527 -0.1383  1.9755
  294DG      C1 6740   2.808   1.300   1.258  0.2826  0.9606  0.3431
  294DG      C2 6741   2.126   1.175   1.337  0.1804  0.6948  0.1532
  294DG      H3 6742   2.911   1.269   1.239  0.3715  1.1541  0.5079
  294DG      H4 6743   2.805   1.336   1.360  0.9988 -0.3235  0.8498
  294DG      H5 6744   2.782   1.388   1.199 -0.6662  0.2871 -0.2737
  294DG      H6 6745   2.150   1.234   1.425  0.8704 -0.7344  0.9407
  294DG      H7 6746   2.089   1.243   1.260 -0.7337 -0.2703 -0.2757
  294DG      H8 6747   2.046   1.102   1.351  1.6366 -1.3027 -1.4024
  294DG      O9 6748   2.725   1.188   1.221  0.8567  0.1593 -0.0252
  294DG     O10 6749   2.240   1.096   1.293 -0.2225 -0.1651  0.0204
  294DG     C11 6750   2.747   1.074   1.291  0.1430  0.8698 -0.4167
  294DG     C12 6751   2.278   0.997   1.386  0.0068  0.1411 -0.4151
  294DG     H13 6752   2.751   1.094   1.398 -2.4517  2.2604 -0.4900
  294DG     H14 6753   2.842   1.031   1.259  0.4423  2.2990 -1.5480
  294DG     H15 6754   2.194   0.928   1.391  0.4950 -0.4918 -0.8768
  294DG     H16 6755   2.301   1.043   1.482 -0.2931 -1.0462  0.2431
  294DG     C17 6756   2.634   0.976   1.261 -0.6292  1.0473  0.3923
  294DG     C18 6757   2.401   0.918   1.332  0.3519 -0.3547 -0.1734
  294DG     O19 6758   2.507   1.019   1.308  0.4225 -0.2634  0.8203
  294DG     H20 6759   2.655   0.891   1.325 -0.5947 -0.9064 -2.0322
  294DG     H21 6760   2.625   0.931   1.162 -2.1253 -0.8943  1.3576
  294DG     H22 6761   2.421   0.855   1.418 -1.5685  0.2619  0.7692
  294DG     H23 6762   2.367   0.859   1.247  0.3902 -0.3417 -0.1979
  295DG      C1 6763   3.922   2.640   5.122 -0.2810  0.2042  0.7010
  295DG      C2 6764   4.170   2.510   5.662 -0.1083  0.9334 -0.8617
  295DG      H3 6765   3.891   2.729   5.069 -0.3640 -1.1451 -1.6440
  295DG      H4 6766   3.830   2.597   5.162 -0.4796 -0.6621 -0.6207
  295DG      H5 6767   3.963   2.569   5.050 -1.9266  0.3652 -0.4489
  295DG      H6 6768   4.108   2.594   5.693 -0.2475  0.0129  1.6502
  295DG      H7 6769   4.091   2.436   5.674  0.4949  0.7263  4.5695
  295DG      H8 6770   4.253   2.486   5.730 -1.0783  0.8863  0.3462
  295DG      O9 6771   4.032   2.661   5.208 -0.6533 -0.2902 -0.5387
  295DG     O10 6772   4.238   2.527   5.540  0.1725  0.3342 -0.1781
  295DG     C11 6773   4.141   2.722   5.135  0.2930  0.3077 -0.5262
  295DG     C12 6774   4.326   2.639   5.523  0.0243  0.6006 -0.1537
  295DG     H13 6775   4.120   2.819   5.089 -1.0331 -0.9943 -2.8936
  295DG     H14 6776   4.173   2.652   5.058  1.6196  0.5232 -0.1900
  295DG     H15 6777   4.403   2.643   5.601 -1.0855  0.8746  0.9673
  295DG     H16 6778   4.279   2.737   5.534 -0.9882  0.0413  0.7527
  295DG     C17 6779   4.252   2.745   5.227  0.0444  0.1084  0.7218
  295DG     C18 6780   4.387   2.640   5.383  0.4299  0.3526  0.7588
  295DG     O19 6781   4.291   2.620   5.287  0.6458 -0.0223  0.3884
  295DG     H20 6782   4.223   2.813   5.307  3.5301  0.4530  1.8530
  295DG     H21 6783   4.338   2.792   5.180 -0.4411  0.5813  0.2945
  295DG     H22 6784   4.463   2.718   5.375  0.2748  0.6990  2.2515
  295DG     H23 6785   4.448   2.550   5.382 -0.8614 -0.5390  0.4508
  296DG      C1 6786   0.086   0.471   0.764 -0.2970  0.2303 -0.1315
  296DG      C2 6787  -0.432   0.943   1.055  0.6471 -0.2028  0.2519
  296DG      H3 6788  -0.012   0.430   0.738 -0.4335  0.5898 -0.2008
  296DG      H4 6789   0.156   0.399   0.806 -0.4942 -0.2222 -0.5714
  296DG      H5 6790   0.124   0.516   0.672 -2.8394 -0.3511 -1.5595
  296DG      H6 6791  -0.524   0.898   1.091  0.3702 -1.0924 -1.4552
  296DG      H7 6792  -0.439   1.043   1.098  2.4313 -0.0480  0.2523
  296DG      H8 6793  -0.432   0.950   0.946 -0.6073 -0.9608  0.1925
  296DG      O9 6794   0.076   0.579   0.850  0.6790 -0.1703 -0.2924
  296DG     O10 6795  -0.315   0.888   1.099  0.5656  0.8057 -0.0874
  296DG     C11 6796   0.077   0.557   0.990 -0.6339 -0.0133  0.9905
  296DG     C12 6797  -0.203   0.935   1.031  0.0235 -0.0900  0.1255
  296DG     H13 6798   0.167   0.506   1.023 -1.1844  0.0971  2.7952
  296DG     H14 6799  -0.004   0.491   1.020 -0.6594  0.2260  1.4546
  296DG     H15 6800  -0.187   1.043   1.038 -0.6890  0.0803 -0.6245
  296DG     H16 6801  -0.199   0.915   0.924  2.2261 -0.5006  0.2425
  296DG     C17 6802   0.065   0.695   1.063 -0.2760 -0.6762  0.0867
  296DG     C18 6803  -0.083   0.871   1.088 -0.4716 -0.3090  0.2356
  296DG     O19 6804  -0.064   0.739   1.043  0.1940 -0.1588  0.7271
  296DG     H20 6805   0.138   0.767   1.025 -0.8651  0.2983  0.7632
  296DG     H21 6806   0.085   0.676   1.168 -2.1628 -1.8528  0.2862
  296DG     H22 6807   0.002   0.926   1.048  1.3516 -2.4113  0.9835
  296DG     H23 6808  -0.073   0.878   1.196  1.3996 -0.7590  0.1278
  297DG      C1 6809   1.119   0.600   2.467  0.0083  0.2161 -0.3554
  297DG      C2 6810   1.471   0.013   2.189  0.3459 -0.0347  0.4043
  297DG      H3 6811   1.039   0.536   2.504  0.8937 -1.4454 -1.1912
  297DG      H4 6812   1.093   0.634   2.367 -0.6810 -1.2280 -0.6887
  297DG      H5 6813   1.135   0.691   2.525  2.0138  0.5640 -1.3488
  297DG      H6 6814   1.385  -0.053   2.173 -0.7020  1.5447 -0.7754
  297DG      H7 6815   1.502   0.047   2.090  1.5116 -3.0962 -0.4138
  297DG      H8 6816   1.552  -0.047   2.230  0.1050 -0.1087  0.7771
  297DG      O9 6817   1.237   0.529   2.475 -0.1145 -0.2586  0.0217
  297DG     O10 6818   1.444   0.108   2.290  0.4221  0.1367  0.5120
  297DG     C11 6819   1.266   0.479   2.606 -0.6678  0.0208  0.6151
  297DG     C12 6820   1.436   0.069   2.428  0.0246 -0.5359  0.7946
  297DG     H13 6821   1.185   0.409   2.630 -1.1856  0.9779  1.7106
  297DG     H14 6822   1.268   0.548   2.689  1.5264  1.0778 -0.2470
  297DG     H15 6823   1.515  -0.004   2.448  2.3784  1.7077  0.1895
  297DG     H16 6824   1.337   0.026   2.446  0.8663 -3.1812 -0.3766
  297DG     C17 6825   1.395   0.398   2.614 -0.0364  0.1249  0.2511
  297DG     C18 6826   1.478   0.187   2.521 -0.6456  0.0619 -0.4383
  297DG     O19 6827   1.386   0.293   2.508 -0.1905  0.2771 -0.1694
  297DG     H20 6828   1.414   0.349   2.710  2.2551 -1.4746 -0.9307
  297DG     H21 6829   1.481   0.464   2.610  0.1832 -0.1941 -0.4072
  297DG     H22 6830   1.500   0.153   2.622 -0.9451  1.9213  0.2886
  297DG     H23 6831   1.571   0.226   2.480 -1.4291  0.4550 -1.9502
  298DG      C1 6832   0.392   2.427   0.111  0.3022 -0.3748 -1.2494
  298DG      C2 6833   0.637   2.459  -0.543 -0.1826  0.7669  0.9993
  298DG      H3 6834   0.489   2.384   0.136  1.6823  2.3432 -1.6778
  298DG      H4 6835   0.318   2.351   0.084  2.0608 -1.7200 -2.5116
  298DG      H5 6836   0.358   2.467   0.207  4.3349  0.5868 -0.0276
  298DG      H6 6837   0.589   2.363  -0.560  1.6846  0.1763 -1.5214
  298DG      H7 6838   0.649   2.519  -0.634  0.8824  1.0921  1.3391
  298DG      H8 6839   0.742   2.443  -0.520 -0.5945 -0.7856  1.9495
  298DG      O9 6840   0.393   2.531   0.012  0.3269  0.1965 -0.3613
  298DG     O10 6841   0.561   2.524  -0.443  0.0453 -0.1911  0.3560
  298DG     C11 6842   0.489   2.640   0.043  0.2116 -0.6304  1.5840
  298DG     C12 6843   0.600   2.661  -0.431 -0.3796 -0.3704  0.0076
  298DG     H13 6844   0.587   2.599   0.067  2.3096  2.1036 -1.5567
  298DG     H14 6845   0.450   2.702   0.124  0.5126  0.0703  1.1937
  298DG     H15 6846   0.570   2.714  -0.521  1.2661 -1.0971 -1.0278
  298DG     H16 6847   0.708   2.680  -0.436 -0.4713 -0.1257 -1.5838
  298DG     C17 6848   0.499   2.733  -0.079  0.0514 -0.2399  0.4056
  298DG     C18 6849   0.537   2.741  -0.311 -0.7096  0.1055 -0.1510
  298DG     O19 6850   0.545   2.660  -0.192  0.2223 -0.5197  0.4233
  298DG     H20 6851   0.575   2.807  -0.052 -0.7756  0.6377  0.3703
  298DG     H21 6852   0.402   2.779  -0.098  0.0030  0.6148  2.4483
  298DG     H22 6853   0.601   2.828  -0.299  0.9841 -0.6641 -2.7568
  298DG     H23 6854   0.434   2.771  -0.326 -0.6999  0.3025  0.1760
  299DG      C1 6855   0.925   2.257   4.054  0.0759  0.7350  0.0033
  299DG      C2 6856   1.068   2.174   3.467  0.2144 -0.3901  0.9418
  299DG      H3 6857   0.923   2.310   4.149  3.5336 -2.3712  2.1029
  299DG      H4 6858   0.894   2.155   4.081  0.9561  0.8569  1.5967
  299DG      H5 6859   0.858   2.309   3.986 -0.7689 -1.1680 -0.7102
  299DG      H6 6860   0.986   2.225   3.418  1.1950 -0.0843 -0.4568
  299DG      H7 6861   1.131   2.142   3.384 -0.4672 -0.1931  0.3419
  299DG      H8 6862   1.032   2.093   3.530 -1.9243  0.1703  0.5141
  299DG      O9 6863   1.048   2.263   3.992  0.0503  0.4599 -0.2651
  299DG     O10 6864   1.149   2.273   3.528 -0.0740 -0.0357 -0.0749
  299DG     C11 6865   1.113   2.387   3.982  0.1763  0.5106 -0.3150
  299DG     C12 6866   1.257   2.205   3.588  0.2441 -0.5118 -0.1642
  299DG     H13 6867   1.136   2.432   4.079  2.1023  2.5527 -1.6253
  299DG     H14 6868   1.058   2.458   3.920 -2.5070 -0.3377  0.9531
  299DG     H15 6869   1.333   2.180   3.514  0.4597 -0.3715  0.0122
  299DG     H16 6870   1.229   2.111   3.637 -1.2098 -1.1998 -2.1604
  299DG     C17 6871   1.242   2.368   3.909  0.0462 -0.2616 -0.3352
  299DG     C18 6872   1.315   2.301   3.688  0.0209  0.5020  0.4371
  299DG     O19 6873   1.213   2.309   3.784  0.4932  0.2827  0.2131
  299DG     H20 6874   1.311   2.302   3.961 -0.0526 -0.6674 -0.7153
  299DG     H21 6875   1.288   2.465   3.892 -2.0578  1.1621  1.5754
  299DG     H22 6876   1.407   2.267   3.736  1.7695 -1.7999 -3.9790
  299DG     H23 6877   1.339   2.400   3.649 -0.1268  0.2516 -0.2986
  300DG      C1 6878   0.485   5.204   4.791  0.0825  0.5879 -0.2077
  300DG      C2 6879   0.987   5.466   5.137  0.3719  0.0068 -0.1236
  300DG      H3 6880   0.460   5.129   4.866  1.1836 -0.5282 -0.9326
  300DG      H4 6881   0.410   5.200   4.713  1.7303  0.6852 -1.8761
  300DG      H5 6882   0.486   5.297   4.849 -0.5652  0.2910  0.2930
  300DG      H6 6883   1.030   5.383   5.080 -1.3646 -0.2908 -1.0920
  300DG      H7 6884   1.064   5.542   5.144  1.2838 -0.9056  0.0758
  300DG      H8 6885   0.978   5.415   5.233 -2.0299  0.2925 -0.1286
  300DG      O9 6886   0.609   5.170   4.729 -0.3460  0.3152  0.4754
  300DG     O10 6887   0.852   5.507   5.094 -0.2537 -0.0473  0.1130
  300DG     C11 6888   0.650   5.273   4.642 -0.5857  0.7092 -0.6536
  300DG     C12 6889   0.853   5.576   4.972 -0.3220  0.0118 -0.0514
  300DG     H13 6890   0.580   5.353   4.623  1.1429  2.9913  1.7859
  300DG     H14 6891   0.681   5.222   4.550  1.1872 -0.7059  0.6347
  300DG     H15 6892   0.936   5.646   4.980 -0.2576 -0.0465 -0.2111
  300DG     H16 6893   0.758   5.626   4.954 -0.7241 -1.5525 -2.7013
  300DG     C17 6894   0.776   5.338   4.699 -0.2230  0.4640 -0.1618
  300DG     C18 6895   0.869   5.488   4.850  0.4838  0.3639  0.5842
  300DG     O19 6896   0.749   5.423   4.807  0.4720 -0.1571  0.3826
  300DG     H20 6897   0.822   5.398   4.620  3.4423  1.7273  2.6306
  300DG     H21 6898   0.847   5.258   4.721 -0.7926  0.2252  0.9045
  300DG     H22 6899   0.909   5.545   4.766 -0.3313  2.0581  1.2945
  300DG     H23 6900   0.947   5.417   4.878  0.9491 -0.1633 -1.7523
  301DG      C1 6901   1.094   5.502   1.203  0.2117 -0.6580  0.5594
  301DG      C2 6902   0.838   6.217   0.923 -0.6739 -0.1508 -0.2231
  301DG      H3 6903   1.163   5.425   1.238 -1.3053 -2.4457 -0.1950
  301DG      H4 6904   1.038   5.439   1.134  1.1269 -1.1607  0.2537
  301DG      H5 6905   1.029   5.525   1.288  0.8516  1.3202  0.5631
  301DG      H6 6906   0.833   6.268   0.827 -0.0283 -1.4124 -0.9528
  301DG      H7 6907   0.752   6.149   0.924 -0.4053 -0.5088 -0.8070
  301DG      H8 6908   0.833   6.303   0.989  1.0706  1.3637 -1.9603
  301DG      O9 6909   1.140   5.617   1.133 -0.0156  0.1232  0.1230
  301DG     O10 6910   0.968   6.149   0.910 -0.4015 -0.3610  0.2573
  301DG     C11 6911   1.235   5.700   1.192 -0.2689 -0.2662  0.7272
  301DG     C12 6912   0.992   6.057   1.011 -0.2387  0.2065  0.4387
  301DG     H13 6913   1.328   5.647   1.212  0.5353  1.2066  1.0203
  301DG     H14 6914   1.195   5.737   1.286 -0.4035 -3.0096  1.8298
  301DG     H15 6915   0.920   5.976   0.998 -0.7284  0.7240 -0.1207
  301DG     H16 6916   0.985   6.094   1.114 -0.1069  1.8528 -0.1183
  301DG     C17 6917   1.260   5.828   1.102  0.3062 -0.2851 -0.2374
  301DG     C18 6918   1.126   5.993   0.995 -0.0707  0.0689  0.1015
  301DG     O19 6919   1.140   5.901   1.098  0.0222 -0.4637 -0.5864
  301DG     H20 6920   1.295   5.792   1.006  0.7933  0.4548 -0.3480
  301DG     H21 6921   1.331   5.901   1.142  0.1151 -0.6920  0.8888
  301DG     H22 6922   1.131   5.950   0.895 -0.8546  2.6634 -1.1374
  301DG     H23 6923   1.203   6.070   1.004 -0.3985  0.5018 -0.6702
  302DG      C1 6924   0.732   1.914   1.682 -0.0392 -0.5847 -0.3836
  302DG      C2 6925   0.297   2.394   1.237  0.1167 -0.1417  0.4684
  302DG      H3 6926   0.820   1.961   1.726 -2.2791  0.9726  2.8123
  302DG      H4 6927   0.748   1.808   1.659  2.4620  0.0940 -2.2827
  302DG      H5 6928   0.646   1.932   1.746 -0.6514  0.1773 -1.3931
  302DG      H6 6929   0.232   2.430   1.316  0.2779 -2.3475  1.6746
  302DG      H7 6930   0.361   2.480   1.218  0.7662 -0.6012  0.5223
  302DG      H8 6931   0.234   2.369   1.152 -1.2232  1.8497  0.8319
  302DG      O9 6932   0.688   1.969   1.560  0.1622 -0.1510  0.0719
  302DG     O10 6933   0.357   2.274   1.276 -0.0105 -0.1071  0.2499
  302DG     C11 6934   0.572   1.898   1.503  0.1639  0.4922  0.3368
  302DG     C12 6935   0.459   2.241   1.181  0.0658 -0.0960 -0.0908
  302DG     H13 6936   0.483   1.929   1.559 -0.3490 -0.7798  0.2633
  302DG     H14 6937   0.575   1.789   1.505 -1.7189  0.4046  0.2330
  302DG     H15 6938   0.542   2.310   1.179 -0.0435  0.0265 -2.0620
  302DG     H16 6939   0.420   2.256   1.081  0.8596 -2.1349 -0.7639
  302DG     C17 6940   0.548   1.928   1.350 -0.4349  0.3403 -0.6766
  302DG     C18 6941   0.502   2.095   1.198  0.3867  0.1697 -1.0301
  302DG     O19 6942   0.525   2.065   1.335 -0.2152  0.3539 -0.4174
  302DG     H20 6943   0.458   1.874   1.320 -0.0485 -0.6239 -0.1469
  302DG     H21 6944   0.628   1.883   1.291  0.8099 -1.1181  1.9628
  302DG     H22 6945   0.424   2.031   1.158 -0.2044 -0.1062  0.4799
  302DG     H23 6946   0.596   2.080   1.147  1.3606  1.1774  0.3713
  303DG      C1 6947   0.146   0.943   2.622  0.6291 -0.2029  0.4491
  303DG      C2 6948   0.195   1.513   2.566 -0.0802 -0.5600 -0.4300
  303DG      H3 6949   0.165   1.040   2.668  0.7847 -0.2160  0.4121
  303DG      H4 6950   0.242   0.892   2.629  0.5428 -0.5457 -0.6770
  303DG      H5 6951   0.067   0.891   2.677  0.2217 -1.7211 -1.4539
  303DG      H6 6952   0.159   1.615   2.551  3.3800  0.7865 -0.4753
  303DG      H7 6953   0.116   1.447   2.602 -0.1600  1.2461  3.1342
  303DG      H8 6954   0.279   1.504   2.635  0.4919 -3.3925 -1.3773
  303DG      O9 6955   0.098   0.968   2.492 -0.1139  0.3683 -0.3491
  303DG     O10 6956   0.256   1.469   2.446 -0.2721 -0.1587 -0.0810
  303DG     C11 6957   0.210   0.992   2.417 -0.5903  0.2339  0.2040
  303DG     C12 6958   0.163   1.461   2.339  0.2433  0.2090 -0.3914
  303DG     H13 6959   0.250   0.897   2.381  1.7399  0.2611  2.4247
  303DG     H14 6960   0.295   1.040   2.467  0.5085 -0.4654 -0.9187
  303DG     H15 6961   0.188   1.548   2.278 -0.5418  0.3733 -0.4904
  303DG     H16 6962   0.058   1.469   2.367  0.0675 -0.3387 -0.8740
  303DG     C17 6963   0.169   1.090   2.305  0.1308  0.1630  0.1994
  303DG     C18 6964   0.168   1.332   2.265  0.4968  0.1048 -0.9208
  303DG     O19 6965   0.174   1.224   2.359  0.8593  0.0540 -0.2866
  303DG     H20 6966   0.066   1.072   2.277 -0.0074  0.2087  0.6691
  303DG     H21 6967   0.235   1.070   2.221 -1.8167 -2.3756 -0.8564
  303DG     H22 6968   0.084   1.326   2.196 -1.1646 -0.1360  1.0112
  303DG     H23 6969   0.256   1.327   2.201  1.2911  0.0201  0.1322
  304DG      C1 6970   3.636   0.938   2.290 -0.3670 -0.0740 -0.2333
  304DG      C2 6971   2.972   0.524   2.370 -0.0398 -0.3506  0.0161
  304DG      H3 6972   3.680   1.015   2.352  0.5069 -0.6815 -0.0879
  304DG      H4 6973   3.638   0.959   2.183 -0.0777  0.5328 -0.1109
  304DG      H5 6974   3.698   0.850   2.309 -1.0411 -1.0202 -2.1050
  304DG      H6 6975   2.872   0.502   2.408  0.2682 -0.0513  1.0425
  304DG      H7 6976   2.951   0.566   2.272  0.8434 -0.7840 -0.3700
  304DG      H8 6977   3.018   0.426   2.366  1.2945  0.2750 -0.4493
  304DG      O9 6978   3.494   0.922   2.325 -0.6839  0.2614  0.0479
  304DG     O10 6979   3.038   0.609   2.458  0.2065 -0.1084  0.2206
  304DG     C11 6980   3.497   0.858   2.455 -0.4011  0.7255  0.3789
  304DG     C12 6981   3.027   0.743   2.432  0.4378 -0.2208  0.6596
  304DG     H13 6982   3.562   0.907   2.527  1.6130 -0.9453 -0.2169
  304DG     H14 6983   3.535   0.756   2.449 -1.5543  0.3311 -0.7110
  304DG     H15 6984   2.929   0.781   2.460  1.0259  2.0903 -0.1729
  304DG     H16 6985   3.044   0.768   2.327  4.2791  2.3377  1.6650
  304DG     C17 6986   3.369   0.863   2.523 -0.0381 -0.1239  0.5750
  304DG     C18 6987   3.136   0.828   2.498  0.6352  0.3759 -0.3587
  304DG     O19 6988   3.268   0.797   2.455 -0.3959  0.0388 -0.0040
  304DG     H20 6989   3.333   0.964   2.539 -1.5486 -0.7921  1.5668
  304DG     H21 6990   3.378   0.817   2.621 -3.3960 -0.0853  0.9958
  304DG     H22 6991   3.118   0.934   2.479  1.6519  1.0445  2.0443
  304DG     H23 6992   3.128   0.823   2.607  1.0959  1.3075 -0.2741
  305DG      C1 6993   3.910   3.055   1.469  0.0239  0.0004 -0.1610
  305DG      C2 6994   3.488   2.560   1.537  0.9152 -0.0859 -0.2174
  305DG      H3 6995   3.970   2.972   1.431  0.9124 -0.0500  1.2613
  305DG      H4 6996   3.980   3.122   1.519  2.2305 -2.1730 -0.1377
  305DG      H5 6997   3.885   3.115   1.381 -0.6507  2.5726  1.6779
  305DG      H6 6998   3.426   2.593   1.454  0.8654 -1.4898 -0.7718
  305DG      H7 6999   3.562   2.489   1.500 -0.3593 -1.4875 -0.1703
  305DG      H8 7000   3.417   2.510   1.603  0.1032  1.6935  0.3286
  305DG      O9 7001   3.808   2.992   1.541 -0.8035 -0.2259  0.7047
  305DG     O10 7002   3.544   2.670   1.603  0.3769 -0.3918 -0.2540
  305DG     C11 7003   3.714   3.068   1.613  0.7876 -0.0932 -0.1581
  305DG     C12 7004   3.620   2.644   1.718 -0.7252 -0.1472 -0.0073
  305DG     H13 7005   3.667   3.133   1.539 -0.8368 -0.1112  0.7985
  305DG     H14 7006   3.774   3.116   1.689  2.5309 -1.2914 -0.7263
  305DG     H15 7007   3.724   2.650   1.687 -0.4578  1.5582  1.0635
  305DG     H16 7008   3.603   2.549   1.770  0.7619  0.6016  2.0100
  305DG     C17 7009   3.609   2.970   1.674  0.4879  0.9688 -0.5562
  305DG     C18 7010   3.593   2.767   1.813 -0.1108 -0.3619  0.4177
  305DG     O19 7011   3.674   2.878   1.764 -0.6083  0.1380  0.5792
  305DG     H20 7012   3.561   2.935   1.582 -3.1543  2.5227  0.5699
  305DG     H21 7013   3.528   3.015   1.732 -0.4759  0.5659 -1.5471
  305DG     H22 7014   3.489   2.799   1.814  0.1287  0.7125 -1.6995
  305DG     H23 7015   3.624   2.745   1.915  0.4267 -2.4012 -0.1315
  306DG      C1 7016   4.792   0.982   1.753  0.4747  1.2307 -0.0187
  306DG      C2 7017   4.141   1.246   1.723 -0.0355 -0.6355 -0.3544
  306DG      H3 7018   4.717   0.931   1.693  0.7441  0.1614  0.5250
  306DG      H4 7019   4.856   0.905   1.798 -0.6636  0.3816  0.2032
  306DG      H5 7020   4.849   1.052   1.692  1.4958 -0.8986 -1.6782
  306DG      H6 7021   4.207   1.313   1.667  0.2819 -1.7672 -1.3731
  306DG      H7 7022   4.116   1.172   1.647  0.9912 -0.4418 -0.9051
  306DG      H8 7023   4.047   1.293   1.752  0.0707 -1.1322  0.8412
  306DG      O9 7024   4.722   1.065   1.847  0.2594  0.0093 -0.6385
  306DG     O10 7025   4.207   1.185   1.833  0.3422  0.1649 -0.3221
  306DG     C11 7026   4.643   0.994   1.944  1.0519  0.2742  0.3015
  306DG     C12 7027   4.243   1.275   1.940 -0.1584 -0.2389 -0.1086
  306DG     H13 7028   4.719   0.953   2.012 -0.3452 -0.9337  1.1888
  306DG     H14 7029   4.592   0.913   1.891  0.6316 -0.4491  1.7463
  306DG     H15 7030   4.167   1.320   2.004  2.1834  2.2757  1.1298
  306DG     H16 7031   4.295   1.363   1.902  0.0131 -0.6214 -0.7903
  306DG     C17 7032   4.548   1.081   2.025  0.2086  0.2260 -0.0227
  306DG     C18 7033   4.344   1.198   2.029  0.1558 -0.2509 -0.1587
  306DG     O19 7034   4.438   1.127   1.950 -0.5935 -0.2668 -0.1149
  306DG     H20 7035   4.609   1.165   2.058  4.8731 -2.4024 -1.0970
  306DG     H21 7036   4.515   1.023   2.112 -1.0563 -1.7061 -1.6913
  306DG     H22 7037   4.402   1.271   2.086  0.4456 -0.1033 -0.6398
  306DG     H23 7038   4.300   1.130   2.102  1.1374 -0.3774  0.3318
  307DG      C1 7039   1.369   5.250   1.811  0.2798  0.3476 -0.1469
  307DG      C2 7040   1.445   5.931   1.543  0.1506  1.1328  0.2916
  307DG      H3 7041   1.418   5.180   1.743 -2.3612 -2.0574  0.2403
  307DG      H4 7042   1.297   5.208   1.881  3.5935 -0.9907  2.7790
  307DG      H5 7043   1.449   5.282   1.878  0.6783 -0.5065 -0.2052
  307DG      H6 7044   1.452   5.995   1.631 -1.4384 -0.0195  1.3312
  307DG      H7 7045   1.542   5.887   1.520  1.2068  3.7479 -0.5186
  307DG      H8 7046   1.406   5.986   1.457  1.4985  1.0512 -0.3864
  307DG      O9 7047   1.306   5.355   1.752 -0.2273 -0.5154  0.1739
  307DG     O10 7048   1.340   5.834   1.569 -0.3519  0.0138 -0.5518
  307DG     C11 7049   1.215   5.325   1.643  0.6085  0.0288 -0.9019
  307DG     C12 7050   1.384   5.754   1.678 -0.0293 -0.0832  0.0977
  307DG     H13 7051   1.143   5.254   1.682  0.1996  1.3099  0.8201
  307DG     H14 7052   1.266   5.287   1.555 -0.8166 -1.6745 -1.0429
  307DG     H15 7053   1.387   5.809   1.773 -0.8103 -0.5249  0.3867
  307DG     H16 7054   1.476   5.706   1.646 -0.5292 -0.4565 -0.8146
  307DG     C17 7055   1.158   5.467   1.597 -0.2530 -0.4403 -0.7261
  307DG     C18 7056   1.280   5.646   1.705 -0.8232  0.3167 -0.4792
  307DG     O19 7057   1.267   5.560   1.593 -0.3534 -0.2261  0.4860
  307DG     H20 7058   1.075   5.492   1.663 -1.1165 -1.6722 -1.3081
  307DG     H21 7059   1.106   5.481   1.502 -0.3298  1.0093 -0.4829
  307DG     H22 7060   1.315   5.591   1.793 -1.3003  0.5251 -0.1581
  307DG     H23 7061   1.186   5.699   1.719  0.0095  1.4518  1.2394
  308DG      C1 7062   2.976   1.165   3.383  0.2541 -0.7852  0.2890
  308DG      C2 7063   3.517   0.934   3.926  0.2759  0.5273 -0.2699
  308DG      H3 7064   3.047   1.144   3.304 -0.4949 -0.5236 -0.4735
  308DG      H4 7065   2.985   1.272   3.406 -0.1731 -0.6869  0.0294
  308DG      H5 7066   2.876   1.136   3.350  0.9614 -1.3860 -1.4559
  308DG      H6 7067   3.548   1.035   3.898 -0.6947  0.5647 -1.3087
  308DG      H7 7068   3.485   0.944   4.029  2.3758 -0.3869  0.5221
  308DG      H8 7069   3.607   0.874   3.923  1.9917  2.9410 -0.5323
  308DG      O9 7070   3.006   1.093   3.500 -0.0480  0.0603  0.0459
  308DG     O10 7071   3.421   0.881   3.840  0.2892 -0.5121 -0.0340
  308DG     C11 7072   3.038   0.958   3.475  0.2709  0.4986 -0.2136
  308DG     C12 7073   3.296   0.948   3.836  0.2047  0.5830  0.5359
  308DG     H13 7074   3.145   0.939   3.463  0.1835 -1.8895  1.9196
  308DG     H14 7075   2.974   0.916   3.397  1.1002  1.1956 -1.3054
  308DG     H15 7076   3.303   1.051   3.802 -2.0735 -0.0745 -2.3444
  308DG     H16 7077   3.242   0.945   3.931  2.0272  0.7502  1.6114
  308DG     C17 7078   3.014   0.861   3.604  0.1005 -0.0717 -0.2386
  308DG     C18 7079   3.215   0.869   3.731 -0.0280 -0.4383 -0.1403
  308DG     O19 7080   3.087   0.926   3.706 -0.6381 -0.0082 -0.1298
  308DG     H20 7081   3.043   0.757   3.597 -0.7952 -0.4489  1.1988
  308DG     H21 7082   2.908   0.869   3.627  0.4280  0.9167  1.0525
  308DG     H22 7083   3.271   0.849   3.640 -1.1715 -2.0031 -0.5553
  308DG     H23 7084   3.199   0.770   3.775  0.1713 -0.4939 -0.1941
  309DG      C1 7085   4.202   1.030   0.615 -0.7116  0.9311  0.0474
  309DG      C2 7086   4.113   0.910   1.319  0.5357 -0.8599  0.6999
  309DG      H3 7087   4.277   0.953   0.598  0.6029  1.5520  2.5411
  309DG      H4 7088   4.228   1.117   0.554 -0.7064  1.1180  0.3153
  309DG      H5 7089   4.108   0.995   0.575 -0.6722 -0.2491  0.9301
  309DG      H6 7090   4.093   0.966   1.410 -0.1463 -2.6162  1.6830
  309DG      H7 7091   4.021   0.872   1.275  1.0640  1.3166 -2.6251
  309DG      H8 7092   4.186   0.832   1.340 -0.5613 -2.2783 -0.4268
  309DG      O9 7093   4.216   1.081   0.748 -0.2443 -0.0685 -0.1591
  309DG     O10 7094   4.169   1.003   1.220 -0.9374  0.0164 -0.0406
  309DG     C11 7095   4.336   1.150   0.778 -0.4370 -0.5028 -0.2530
  309DG     C12 7096   4.299   1.037   1.257  0.9436 -0.4147  0.2894
  309DG     H13 7097   4.341   1.236   0.711  1.6955 -1.2768 -1.1879
  309DG     H14 7098   4.416   1.081   0.754 -0.5792 -1.1542  1.0849
  309DG     H15 7099   4.354   0.943   1.256  0.7107 -0.5430 -0.9198
  309DG     H16 7100   4.290   1.079   1.357 -0.0697  0.7225 -0.2592
  309DG     C17 7101   4.355   1.195   0.926  0.1413  0.1630  0.4979
  309DG     C18 7102   4.361   1.138   1.154  0.8148  0.0253 -0.6227
  309DG     O19 7103   4.340   1.093   1.022 -0.4060  0.0040  0.0320
  309DG     H20 7104   4.285   1.277   0.945  1.0375  0.4075  3.0548
  309DG     H21 7105   4.457   1.229   0.938  0.4755 -1.2688  2.0201
  309DG     H22 7106   4.300   1.229   1.152  0.5667 -0.1439 -0.8507
  309DG     H23 7107   4.466   1.160   1.176  0.7296  0.2996 -0.4972
  310DG      C1 7108   2.043   1.449   2.527 -0.4619 -0.6749  0.1890
  310DG      C2 7109   2.486   1.900   2.739 -0.4450  0.3050 -0.5135
  310DG      H3 7110   1.979   1.462   2.614  0.6220 -1.7575  1.1796
  310DG      H4 7111   2.008   1.367   2.463  0.1585 -0.0768 -0.9387
  310DG      H5 7112   2.014   1.535   2.466 -0.6555 -0.3616  0.7194
  310DG      H6 7113   2.520   1.984   2.678  1.0311 -0.2662 -0.5248
  310DG      H7 7114   2.453   1.817   2.677  1.1963 -0.4622 -0.4022
  310DG      H8 7115   2.395   1.935   2.788 -0.8192 -2.1703  0.7166
  310DG      O9 7116   2.181   1.425   2.554 -0.7568  0.0359 -0.3815
  310DG     O10 7117   2.588   1.866   2.839  0.2151  0.2915 -0.0424
  310DG     C11 7118   2.231   1.517   2.653 -0.3931 -0.6092  0.7508
  310DG     C12 7119   2.565   1.740   2.896 -0.3913  0.2001  0.3895
  310DG     H13 7120   2.185   1.495   2.749  1.6365 -0.1739  1.8745
  310DG     H14 7121   2.208   1.615   2.610 -0.2901  0.1333  2.3255
  310DG     H15 7122   2.492   1.751   2.976 -0.2572  0.2789  0.5005
  310DG     H16 7123   2.654   1.723   2.957 -0.9486  2.0807  1.8443
  310DG     C17 7124   2.382   1.508   2.671 -0.1343  0.8871  0.3840
  310DG     C18 7125   2.549   1.623   2.803  0.7741  0.7911  0.3836
  310DG     O19 7126   2.413   1.605   2.765 -0.0335 -0.0163 -0.2615
  310DG     H20 7127   2.424   1.524   2.571  0.7206  0.5929  0.6922
  310DG     H21 7128   2.419   1.412   2.705  1.7465  1.5371  0.2803
  310DG     H22 7129   2.609   1.650   2.716  0.4256  0.8262  0.1530
  310DG     H23 7130   2.583   1.532   2.852 -0.2292 -0.0571 -0.4471
  311DG      C1 7131   4.626   3.407   5.271 -0.3166  0.4699  0.3739
  311DG      C2 7132   4.488   3.346   4.408 -0.2294 -0.7885 -0.6002
  311DG      H3 7133   4.715   3.366   5.319 -0.6479 -1.0630 -0.2610
  311DG      H4 7134   4.544   3.375   5.335  0.8041 -0.3859  1.4355
  311DG      H5 7135   4.626   3.516   5.272 -0.3460  0.5147 -1.3340
  311DG      H6 7136   4.420   3.428   4.388 -0.4267 -0.0429  2.6036
  311DG      H7 7137   4.595   3.367   4.399 -0.3237 -0.7644 -1.9033
  311DG      H8 7138   4.471   3.273   4.328  0.8320 -0.8048 -0.8254
  311DG      O9 7139   4.618   3.364   5.134  0.0370  0.1855  0.4019
  311DG     O10 7140   4.467   3.277   4.526 -0.1479  0.0462 -0.4677
  311DG     C11 7141   4.733   3.389   5.050  0.0957 -0.0622  0.2231
  311DG     C12 7142   4.491   3.355   4.650  0.0120  0.3549 -0.4468
  311DG     H13 7143   4.826   3.366   5.102  0.4837 -0.2954 -0.5602
  311DG     H14 7144   4.740   3.493   5.019 -1.3538  0.4347  1.4473
  311DG     H15 7145   4.403   3.362   4.712  0.6762 -0.3018  0.5940
  311DG     H16 7146   4.531   3.455   4.630 -1.2372  1.1076  0.6669
  311DG     C17 7147   4.730   3.303   4.929  0.0925 -0.1840  0.6516
  311DG     C18 7148   4.590   3.275   4.735 -0.2270  0.4541  0.3793
  311DG     O19 7149   4.626   3.352   4.847  0.2936  0.6316  0.5588
  311DG     H20 7150   4.711   3.200   4.960 -0.2421  0.1889  1.7292
  311DG     H21 7151   4.819   3.319   4.869 -0.3754  1.3577  0.3316
  311DG     H22 7152   4.559   3.173   4.759  0.7834 -0.0256 -0.2828
  311DG     H23 7153   4.681   3.280   4.676 -0.1630  1.4204  0.5461
  312DG      C1 7154   0.415   0.417   2.367  0.6343  0.3143  0.1527
  312DG      C2 7155   0.457   1.238   2.620  0.4572 -0.3690 -0.5217
  312DG      H3 7156   0.460   0.318   2.374 -0.2226 -0.4426 -3.2888
  312DG      H4 7157   0.431   0.454   2.266 -1.4760  2.0512  0.3679
  312DG      H5 7158   0.308   0.402   2.384  0.6682 -0.2813 -0.1469
  312DG      H6 7159   0.352   1.266   2.627  1.0154  2.2937 -1.7010
  312DG      H7 7160   0.520   1.293   2.690  0.4610 -2.4110  1.1711
  312DG      H8 7161   0.484   1.254   2.516  1.9846 -1.3149 -0.3039
  312DG      O9 7162   0.472   0.492   2.462 -0.0783 -0.0077  0.0129
  312DG     O10 7163   0.467   1.098   2.643  0.6350  0.2032  0.0432
  312DG     C11 7164   0.445   0.628   2.471  0.5791 -0.3728 -0.4937
  312DG     C12 7165   0.592   1.045   2.670 -0.1855  0.2792  0.3746
  312DG     H13 7166   0.342   0.655   2.493  0.2462  0.0459 -2.3488
  312DG     H14 7167   0.472   0.683   2.381 -1.9395  2.1112  0.1352
  312DG     H15 7168   0.634   1.086   2.762  5.0287  0.3525 -1.7214
  312DG     H16 7169   0.663   1.058   2.589  1.6408 -1.4238  1.6101
  312DG     C17 7170   0.523   0.684   2.588  0.3386  0.0925  0.6594
  312DG     C18 7171   0.607   0.890   2.676 -0.6540 -0.0099  0.1384
  312DG     O19 7172   0.522   0.828   2.582 -0.1246 -0.3320  0.0440
  312DG     H20 7173   0.619   0.641   2.557  0.6027  2.7049 -2.7431
  312DG     H21 7174   0.496   0.646   2.687  0.1423  0.8308  0.8950
  312DG     H22 7175   0.710   0.856   2.670 -0.8749 -1.4939  3.0461
  312DG     H23 7176   0.585   0.854   2.777 -0.1681 -0.9255 -0.0657
  313DG      C1 7177   1.181   1.388   3.797 -0.3486 -0.2106  0.3050
  313DG      C2 7178   1.477   1.063   4.390 -0.0102  0.2226  0.6322
  313DG      H3 7179   1.116   1.346   3.720  0.0134 -0.8680  0.3526
  313DG      H4 7180   1.280   1.341   3.795 -0.0093  0.5089 -1.3719
  313DG      H5 7181   1.203   1.493   3.778 -0.7362 -0.1258  0.3287
  313DG      H6 7182   1.465   0.996   4.475 -2.2454 -0.1185  0.1093
  313DG      H7 7183   1.549   1.010   4.328  1.3564  3.5308 -0.7934
  313DG      H8 7184   1.524   1.154   4.428  1.0047 -0.2739  0.5948
  313DG      O9 7185   1.113   1.369   3.919 -0.1981  0.2046  0.2041
  313DG     O10 7186   1.354   1.080   4.316 -0.6568 -0.5640 -0.2187
  313DG     C11 7187   1.097   1.229   3.940 -0.2999 -0.3492  0.0848
  313DG     C12 7188   1.255   1.159   4.378 -0.3366 -0.3105 -0.2457
  313DG     H13 7189   1.196   1.182   3.934  0.0718  0.4528 -0.1543
  313DG     H14 7190   1.033   1.180   3.866 -1.2917 -0.5529  1.0567
  313DG     H15 7191   1.289   1.263   4.383 -0.8093 -0.1904  0.6234
  313DG     H16 7192   1.239   1.136   4.483 -0.2015 -1.4621 -0.4724
  313DG     C17 7193   1.046   1.206   4.078  0.8060 -0.0820 -0.2156
  313DG     C18 7194   1.124   1.169   4.301  0.0105  0.2413  0.1070
  313DG     O19 7195   1.151   1.216   4.173  0.6607  0.5824 -0.5346
  313DG     H20 7196   1.015   1.101   4.076 -0.8548  0.3722 -2.3608
  313DG     H21 7197   0.962   1.272   4.099  0.5189  0.0125 -1.5511
  313DG     H22 7198   1.070   1.075   4.298  0.0737  0.0698  2.4789
  313DG     H23 7199   1.052   1.235   4.349 -0.2904 -0.8703  1.2219
  314DG      C1 7200   4.965   2.871   4.908 -0.3008 -0.1693  0.0952
  314DG      C2 7201   4.825   2.980   4.358  0.1886 -0.3399  0.0106
  314DG      H3 7202   4.943   2.788   4.842 -1.5596 -0.9915  1.4665
  314DG      H4 7203   4.893   2.873   4.990 -0.1631  1.5484  0.2010
  314DG      H5 7204   5.056   2.844   4.962 -0.6260 -0.9050  0.2867
  314DG      H6 7205   4.916   2.950   4.410  1.5619  1.4878 -1.2140
  314DG      H7 7206   4.741   2.918   4.390 -0.7870  0.3808 -1.0401
  314DG      H8 7207   4.845   2.948   4.255  2.9549 -1.9082  0.9461
  314DG      O9 7208   4.972   2.999   4.839 -0.3134  0.3219  0.3134
  314DG     O10 7209   4.803   3.117   4.373  0.2320  0.3759  0.3731
  314DG     C11 7210   5.098   3.019   4.769  0.1217  0.6092 -0.1555
  314DG     C12 7211   4.916   3.203   4.362 -0.3536 -0.3004 -0.4805
  314DG     H13 7212   5.137   2.941   4.703  0.0187 -0.0172  0.5240
  314DG     H14 7213   5.174   3.033   4.845  0.1225 -1.7648  0.3450
  314DG     H15 7214   4.879   3.292   4.311  0.0912 -2.2438 -4.5941
  314DG     H16 7215   5.003   3.164   4.309  1.0475  1.2597  0.5438
  314DG     C17 7216   5.081   3.151   4.689 -0.2352  0.2965 -0.2050
  314DG     C18 7217   4.970   3.246   4.500  0.1964  0.2490 -0.4323
  314DG     O19 7218   5.007   3.127   4.572 -0.3693  0.6504 -0.6036
  314DG     H20 7219   5.184   3.184   4.675  0.4814 -0.5637  2.4224
  314DG     H21 7220   5.036   3.229   4.751  2.0078  0.0583  1.8614
  314DG     H22 7221   5.065   3.300   4.492  0.8553 -1.0044 -1.3034
  314DG     H23 7222   4.899   3.304   4.559  0.5019  0.5593 -0.3628
  315DG      C1 7223   0.397   3.808   1.001 -0.2029 -0.0281 -0.1192
  315DG      C2 7224   0.675   4.061   1.587 -0.4992  0.0540 -0.2494
  315DG      H3 7225   0.343   3.829   0.909  0.2523  1.0564 -0.1473
  315DG      H4 7226   0.318   3.773   1.068  0.9322 -0.6181  0.9668
  315DG      H5 7227   0.471   3.739   0.961 -2.3700 -1.3641 -2.0460
  315DG      H6 7228   0.640   3.993   1.664  0.4231  0.1858  0.3047
  315DG      H7 7229   0.749   4.013   1.524 -1.5279 -0.0941 -1.3870
  315DG      H8 7230   0.724   4.140   1.645  0.2553 -0.0789 -0.7032
  315DG      O9 7231   0.459   3.930   1.044 -0.1143  0.0305  0.1243
  315DG     O10 7232   0.584   4.118   1.491  0.4228  0.2965 -0.1252
  315DG     C11 7233   0.368   4.038   1.064  0.7800 -0.5887  0.2918
  315DG     C12 7234   0.629   4.234   1.417  0.0639 -0.4514 -0.1353
  315DG     H13 7235   0.296   4.004   1.138 -0.2272  0.2804 -0.2548
  315DG     H14 7236   0.316   4.065   0.972  0.6891 -1.6532  0.0264
  315DG     H15 7237   0.727   4.220   1.372 -0.4717 -3.8550 -0.5398
  315DG     H16 7238   0.647   4.324   1.475 -1.3575 -0.6324  0.6520
  315DG     C17 7239   0.427   4.167   1.120 -0.0594 -0.0845 -0.9830
  315DG     C18 7240   0.536   4.270   1.304  0.1773  0.0764 -0.2631
  315DG     O19 7241   0.485   4.149   1.250 -0.5754  0.0982 -0.2588
  315DG     H20 7242   0.344   4.236   1.115  0.5533  0.5967 -2.2730
  315DG     H21 7243   0.495   4.200   1.041  0.5477 -1.8731 -1.2552
  315DG     H22 7244   0.450   4.322   1.346  1.5432  1.0829  1.4079
  315DG     H23 7245   0.580   4.342   1.236  1.2827  0.4211  0.7848
  316DG      C1 7246   3.751   3.791   2.217  0.0313 -0.2563  0.1833
  316DG      C2 7247   4.098   4.031   1.570 -0.1023  0.2773  0.2418
  316DG      H3 7248   3.843   3.766   2.270 -0.5868  0.8677  1.8401
  316DG      H4 7249   3.716   3.706   2.157 -1.3568 -1.5581  2.6783
  316DG      H5 7250   3.672   3.800   2.291  0.3851 -4.1202  1.2477
  316DG      H6 7251   4.164   4.034   1.656  0.7386  2.0738 -0.4281
  316DG      H7 7252   4.125   3.955   1.496 -1.4888  0.3466 -0.3699
  316DG      H8 7253   4.101   4.129   1.523 -3.8352  1.3608  1.9332
  316DG      O9 7254   3.774   3.896   2.127 -0.0170 -0.2271  0.3096
  316DG     O10 7255   3.968   4.001   1.626 -0.4768 -0.0564  0.3484
  316DG     C11 7256   3.669   3.929   2.046  0.2186  0.1322 -0.0660
  316DG     C12 7257   3.958   3.881   1.698 -0.1826  0.9810  0.5747
  316DG     H13 7258   3.594   3.978   2.108  1.2379  1.6724  0.0104
  316DG     H14 7259   3.624   3.848   1.989  2.2493 -0.6479 -0.6599
  316DG     H15 7260   4.042   3.860   1.764  0.5486  0.7152 -0.4128
  316DG     H16 7261   3.942   3.799   1.628 -0.5807  1.1557  0.4571
  316DG     C17 7262   3.727   4.024   1.936 -0.1232  0.1453  0.7337
  316DG     C18 7263   3.831   3.884   1.780 -0.6410 -0.7704  0.7996
  316DG     O19 7264   3.851   3.987   1.876 -0.0156  0.0028 -0.2741
  316DG     H20 7265   3.770   4.115   1.976  2.5919  0.2670 -2.0853
  316DG     H21 7266   3.658   4.050   1.856  0.2198 -1.5806 -0.1739
  316DG     H22 7267   3.741   3.910   1.726 -0.5494 -1.8295  0.1033
  316DG     H23 7268   3.796   3.787   1.815 -1.4064 -0.1274  1.8599
  317DG      C1 7269   5.275   2.030   4.001 -0.0082 -0.1475  0.0689
  317DG      C2 7270   5.564   2.723   3.840 -0.1040 -0.1382  0.9142
  317DG      H3 7271   5.202   2.080   3.938 -0.2196 -0.2260  0.2520
  317DG      H4 7272   5.246   2.055   4.103 -0.8323  1.3305 -0.4893
  317DG      H5 7273   5.269   1.924   3.975 -0.4291 -0.5133  1.5872
  317DG      H6 7274   5.512   2.758   3.929 -0.8493  0.7087  0.1717
  317DG      H7 7275   5.666   2.761   3.840  0.8215 -2.2531 -1.9700
  317DG      H8 7276   5.513   2.774   3.758 -0.7524 -0.9968  0.7634
  317DG      O9 7277   5.407   2.083   3.980  0.4121 -0.7094  0.7941
  317DG     O10 7278   5.573   2.582   3.829 -0.0371  0.4233 -0.8135
  317DG     C11 7279   5.444   2.102   3.844  0.4059 -0.8255  0.4453
  317DG     C12 7280   5.664   2.523   3.923 -0.1803 -0.2509 -0.4846
  317DG     H13 7281   5.380   2.163   3.781  0.6557 -1.2551 -0.2418
  317DG     H14 7282   5.444   2.001   3.802  1.0014 -0.3106 -0.8286
  317DG     H15 7283   5.621   2.522   4.024 -1.1892 -1.5372 -0.8961
  317DG     H16 7284   5.754   2.583   3.926  0.3971 -1.0339 -1.4924
  317DG     C17 7285   5.586   2.167   3.850  0.6824  0.4910  0.5133
  317DG     C18 7286   5.687   2.376   3.891  0.2342 -0.3839 -0.4621
  317DG     O19 7287   5.568   2.296   3.901 -0.1032  0.0449 -0.1100
  317DG     H20 7288   5.612   2.164   3.744  0.2986  0.3928  0.4183
  317DG     H21 7289   5.659   2.107   3.904  2.0396  0.1435 -1.5815
  317DG     H22 7290   5.728   2.387   3.791  1.1393  1.1911  0.0542
  317DG     H23 7291   5.767   2.337   3.954  0.9699 -0.0616 -1.1850
  318DG      C1 7292   4.270   4.153   4.713 -0.6894 -0.6755  0.3332
  318DG      C2 7293   4.146   3.445   4.639  0.1673  0.2086 -0.2425
  318DG      H3 7294   4.330   4.172   4.624 -2.2734 -1.0612 -0.8460
  318DG      H4 7295   4.345   4.168   4.792  0.9459 -1.7032 -0.9633
  318DG      H5 7296   4.193   4.230   4.715 -0.7699 -0.7589  1.9112
  318DG      H6 7297   4.059   3.489   4.591 -1.6861 -0.5478  2.1924
  318DG      H7 7298   4.229   3.426   4.571 -1.1601 -2.5310 -1.3068
  318DG      H8 7299   4.126   3.344   4.677 -0.7444  0.3986 -0.2008
  318DG      O9 7300   4.225   4.020   4.725 -0.1323  0.1990  0.4655
  318DG     O10 7301   4.186   3.530   4.744 -0.2735 -0.2344  0.1514
  318DG     C11 7302   4.116   4.006   4.822 -0.0307 -0.4591 -0.0811
  318DG     C12 7303   4.069   3.562   4.826 -0.0621 -0.2010  0.1689
  318DG     H13 7304   4.035   4.072   4.790  1.9613  1.8505 -0.7432
  318DG     H14 7305   4.143   4.056   4.915  0.4014 -0.6875 -0.0827
  318DG     H15 7306   4.019   3.472   4.861 -2.2628  0.4785 -1.0467
  318DG     H16 7307   3.996   3.616   4.765  1.5778 -0.0648 -1.7568
  318DG     C17 7308   4.071   3.859   4.838  0.1574 -1.0838 -0.3302
  318DG     C18 7309   4.108   3.655   4.947  0.1574  0.1954  0.4153
  318DG     O19 7310   4.169   3.775   4.898 -0.6771 -0.1865  0.3147
  318DG     H20 7311   4.034   3.822   4.742 -2.7516  0.5941 -0.0023
  318DG     H21 7312   3.982   3.869   4.900  0.5327  2.1738 -0.1277
  318DG     H22 7313   4.019   3.674   5.007 -1.2329  0.0550 -1.5074
  318DG     H23 7314   4.179   3.602   5.010 -1.6519 -1.6717  1.0048
  319DG      C1 7315   0.506   4.573   3.528  0.3282 -0.1722 -0.0914
  319DG      C2 7316   0.794   4.272   2.873 -0.2115 -0.1262 -0.0903
  319DG      H3 7317   0.605   4.605   3.559  0.7520  0.4891 -1.9974
  319DG      H4 7318   0.450   4.536   3.614 -1.2117  1.3529 -0.3881
  319DG      H5 7319   0.443   4.659   3.504  1.5194  1.6589  2.7193
  319DG      H6 7320   0.694   4.231   2.853 -0.7734  1.3079 -0.3070
  319DG      H7 7321   0.801   4.365   2.817 -0.9439 -0.0108  0.0019
  319DG      H8 7322   0.880   4.209   2.853 -0.6069 -0.8486  0.4405
  319DG      O9 7323   0.497   4.464   3.429 -0.2201  0.0547 -0.4088
  319DG     O10 7324   0.804   4.307   3.007  0.1017 -0.3649 -0.7053
  319DG     C11 7325   0.578   4.355   3.469  0.5104  0.3907 -0.0920
  319DG     C12 7326   0.714   4.415   3.043 -0.5107 -0.3720  0.1971
  319DG     H13 7327   0.535   4.308   3.557  3.3425  0.4041  1.4012
  319DG     H14 7328   0.685   4.363   3.488  0.3281 -2.2436  2.8121
  319DG     H15 7329   0.680   4.481   2.963 -0.7499 -0.7490 -0.0179
  319DG     H16 7330   0.772   4.472   3.116  1.6596 -1.8584 -0.2637
  319DG     C17 7331   0.578   4.264   3.350 -0.3614  0.2981  0.0154
  319DG     C18 7332   0.606   4.354   3.128  0.6911 -0.6254 -0.4570
  319DG     O19 7333   0.667   4.334   3.255 -0.4000  0.4133 -0.0933
  319DG     H20 7334   0.477   4.248   3.313  0.2384 -0.0908 -1.5282
  319DG     H21 7335   0.624   4.168   3.375 -1.1704 -1.7384 -5.2097
  319DG     H22 7336   0.521   4.422   3.139 -0.6409 -2.3480  0.4939
  319DG     H23 7337   0.559   4.261   3.094 -0.8074 -0.3546  0.7418
  320DG      C1 7338   5.361   4.616   1.740  0.7159  0.1020  0.2178
  320DG      C2 7339   6.048   4.382   1.767 -0.1114 -0.8381  0.1100
  320DG      H3 7340   5.254   4.595   1.741  0.9361 -1.2418 -1.1022
  320DG      H4 7341   5.384   4.694   1.667 -0.7052 -0.4311 -0.8489
  320DG      H5 7342   5.378   4.674   1.831 -1.1591 -0.2719  0.8688
  320DG      H6 7343   6.072   4.447   1.683 -3.2402  0.0082 -0.2576
  320DG      H7 7344   6.112   4.406   1.852 -1.2166  1.0404  0.4700
  320DG      H8 7345   6.062   4.280   1.732  3.6350  0.1189 -1.7200
  320DG      O9 7346   5.451   4.514   1.709  0.1493  0.1541 -0.5445
  320DG     O10 7347   5.924   4.421   1.815  0.6022 -0.4031 -0.2195
  320DG     C11 7348   5.424   4.402   1.795 -0.2857 -0.1156  0.1586
  320DG     C12 7349   5.878   4.353   1.933  0.4570  0.1843 -0.5713
  320DG     H13 7350   5.446   4.317   1.730 -0.6381 -0.6954  0.7914
  320DG     H14 7351   5.321   4.385   1.825 -0.3601  0.7658  0.4515
  320DG     H15 7352   5.947   4.364   2.016  0.2856  1.4804 -0.5867
  320DG     H16 7353   5.868   4.245   1.918  0.3049  0.2596 -1.0490
  320DG     C17 7354   5.521   4.396   1.921 -0.0413  0.4338  1.4049
  320DG     C18 7355   5.739   4.387   1.987 -0.2843  0.3638 -0.2159
  320DG     O19 7356   5.656   4.389   1.878  0.7561 -0.5231  0.2615
  320DG     H20 7357   5.509   4.307   1.983 -1.1464  0.9670  1.9973
  320DG     H21 7358   5.508   4.486   1.981 -0.4120  2.6643 -1.7594
  320DG     H22 7359   5.725   4.307   2.060  2.7230 -1.0940 -1.0358
  320DG     H23 7360   5.735   4.482   2.039  0.4966 -0.7494  2.0100
  321DG      C1 7361   4.996   1.750   1.205 -0.2614 -0.4429 -0.3214
  321DG      C2 7362   4.557   2.035   1.368 -1.0147 -0.2559  1.0945
  321DG      H3 7363   4.902   1.704   1.175 -0.6868 -1.4459  2.2512
  321DG      H4 7364   5.004   1.733   1.313 -2.7522  0.3540  0.0561
  321DG      H5 7365   5.086   1.715   1.155  1.1967  1.6036  0.7160
  321DG      H6 7366   4.616   1.956   1.415  2.7625  1.7986  0.2203
  321DG      H7 7367   4.486   2.088   1.432 -1.3630  0.7003 -0.0389
  321DG      H8 7368   4.499   1.984   1.291  0.0943 -3.8788  2.4641
  321DG      O9 7369   4.984   1.886   1.177 -0.8956 -0.2676 -0.6667
  321DG     O10 7370   4.656   2.122   1.306 -0.2974 -0.4844  0.4105
  321DG     C11 7371   4.993   1.905   1.036  0.6585 -0.8033 -0.6183
  321DG     C12 7372   4.714   2.064   1.190 -0.5016 -0.1318  0.1681
  321DG     H13 7373   4.919   1.856   0.973  0.5300  0.1854 -1.2698
  321DG     H14 7374   5.082   1.869   0.985  0.1707 -4.2388  0.6856
  321DG     H15 7375   4.639   2.049   1.112 -1.4928  0.5234  0.9727
  321DG     H16 7376   4.764   1.970   1.211  1.6023  1.2055  1.4721
  321DG     C17 7377   4.997   2.056   1.017 -0.5356 -0.1637  0.1438
  321DG     C18 7378   4.822   2.158   1.140  0.8158  0.3022  0.1885
  321DG     O19 7379   4.878   2.131   1.013 -0.0407 -0.6626  0.1966
  321DG     H20 7380   5.022   2.078   0.914 -0.4398 -0.6785  0.0544
  321DG     H21 7381   5.067   2.112   1.079 -1.1305  0.0514  0.6441
  321DG     H22 7382   4.774   2.254   1.123  2.6771  1.9147  3.1911
  321DG     H23 7383   4.898   2.178   1.214  1.5704 -0.2003 -0.4340
  322DG      C1 7384   2.156   3.651   4.351  0.5484  0.2829 -0.2183
  322DG      C2 7385   2.057   2.927   4.369  0.0289 -0.2499  0.2163
  322DG      H3 7386   2.154   3.742   4.291  1.0763  2.4696  2.8492
  322DG      H4 7387   2.251   3.641   4.402 -0.1219 -3.0833  0.6462
  322DG      H5 7388   2.097   3.669   4.441  0.9014 -2.3771  0.6442
  322DG      H6 7389   1.949   2.914   4.359  0.2401 -0.6831 -2.1107
  322DG      H7 7390   2.101   2.899   4.274 -0.0412  1.6644 -0.4150
  322DG      H8 7391   2.091   2.855   4.443 -0.4671 -0.0694  0.6311
  322DG      O9 7392   2.094   3.533   4.293  0.1221  0.4078  0.7897
  322DG     O10 7393   2.090   3.058   4.410 -0.0813 -0.0475 -0.1073
  322DG     C11 7394   2.169   3.454   4.203  0.0161  0.1284 -0.4832
  322DG     C12 7395   2.233   3.081   4.390 -0.5471 -1.1359  0.8500
  322DG     H13 7396   2.214   3.522   4.131  2.0134 -0.0300  0.5383
  322DG     H14 7397   2.097   3.393   4.148  1.9628 -1.3095 -1.5531
  322DG     H15 7398   2.268   3.078   4.287 -1.7159  1.4802  0.3024
  322DG     H16 7399   2.288   2.993   4.425 -1.3916 -2.1620 -0.2946
  322DG     C17 7400   2.273   3.363   4.275  0.1863  0.3167  0.7677
  322DG     C18 7401   2.289   3.214   4.450  0.0076 -0.1858 -0.1181
  322DG     O19 7402   2.211   3.312   4.388  0.5368 -0.4421 -0.4312
  322DG     H20 7403   2.357   3.427   4.305 -0.1005  1.1055 -0.0568
  322DG     H21 7404   2.305   3.293   4.197  0.3436  2.0053 -0.7575
  322DG     H22 7405   2.280   3.221   4.558  1.0239 -1.7328  0.0976
  322DG     H23 7406   2.395   3.229   4.430 -0.3459  2.9770 -0.0864
  323DG      C1 7407   3.328   5.367   1.940 -0.3664  0.3540  0.5715
  323DG      C2 7408   3.434   5.124   1.463  0.1559  0.1822 -0.2807
  323DG      H3 7409   3.325   5.330   2.042  0.9474  0.8985  0.8320
  323DG      H4 7410   3.290   5.469   1.942 -0.8645  0.2047 -0.5915
  323DG      H5 7411   3.430   5.385   1.906 -0.8706  0.5312 -0.9063
  323DG      H6 7412   3.465   5.029   1.507 -1.1472  0.1360  0.5774
  323DG      H7 7413   3.460   5.122   1.357  2.5532 -1.2441  0.2553
  323DG      H8 7414   3.504   5.203   1.489 -0.8334  1.4620 -1.3597
  323DG      O9 7415   3.261   5.288   1.845  1.0421  0.1444 -0.3352
  323DG     O10 7416   3.306   5.176   1.493  0.3259 -0.5465 -0.2825
  323DG     C11 7417   3.143   5.217   1.903  0.0963 -0.2495  0.5711
  323DG     C12 7418   3.203   5.086   1.502  0.1540  0.4773  0.4538
  323DG     H13 7419   3.067   5.287   1.940  1.2161  1.9944 -1.1288
  323DG     H14 7420   3.180   5.159   1.988  0.1609 -0.9540  0.0699
  323DG     H15 7421   3.233   5.004   1.566  0.4868 -0.2142 -0.5709
  323DG     H16 7422   3.187   5.048   1.401  4.1906  0.9583 -0.5272
  323DG     C17 7423   3.082   5.128   1.794  0.8229  0.3254  1.0253
  323DG     C18 7424   3.074   5.148   1.553 -0.3569 -0.4692 -0.2974
  323DG     O19 7425   3.072   5.212   1.679 -0.4621 -0.4451  0.2428
  323DG     H20 7426   2.984   5.083   1.808  0.9961  0.0412  1.3456
  323DG     H21 7427   3.140   5.038   1.774 -1.8599 -1.0809 -1.0115
  323DG     H22 7428   3.041   5.215   1.474  1.6388  1.1827  0.1924
  323DG     H23 7429   3.004   5.065   1.549 -0.1392 -0.7218  0.7520
  324DG      C1 7430   5.162   1.002   1.631  0.2481  0.2948 -0.6793
  324DG      C2 7431   5.067   1.440   1.484 -0.4713  0.3355 -0.4599
  324DG      H3 7432   5.113   0.911   1.595 -3.5317  2.3528 -1.2720
  324DG      H4 7433   5.118   1.045   1.722  2.1334 -1.2909  1.0751
  324DG      H5 7434   5.261   0.972   1.665 -1.1172 -0.7770  2.8874
  324DG      H6 7435   5.061   1.339   1.444  2.2085  0.5518 -1.5964
  324DG      H7 7436   5.126   1.451   1.575 -2.5467  1.1085  0.8568
  324DG      H8 7437   4.970   1.481   1.515 -0.6222  0.9751 -1.7165
  324DG      O9 7438   5.176   1.106   1.532  0.6298  0.4503  0.2170
  324DG     O10 7439   5.117   1.520   1.380  0.0436 -0.3737  0.0056
  324DG     C11 7440   5.222   1.048   1.420  0.0386  0.3981  0.0121
  324DG     C12 7441   5.251   1.503   1.350 -0.0767 -0.0088 -0.5267
  324DG     H13 7442   5.165   0.961   1.386 -2.5251  2.0171 -0.1253
  324DG     H14 7443   5.322   1.012   1.445 -0.5476 -0.7988  0.7446
  324DG     H15 7444   5.318   1.507   1.436  1.1536 -0.8653 -1.4161
  324DG     H16 7445   5.291   1.588   1.295  2.9355 -1.7512 -1.2360
  324DG     C17 7446   5.228   1.152   1.310 -0.2695  0.0758 -0.5908
  324DG     C18 7447   5.276   1.384   1.257  0.1185 -0.5555  0.0072
  324DG     O19 7448   5.293   1.275   1.344 -0.3586  0.2334  0.4775
  324DG     H20 7449   5.122   1.175   1.297  0.0672  1.3240 -1.3393
  324DG     H21 7450   5.274   1.108   1.221 -0.8560 -1.7636 -0.0275
  324DG     H22 7451   5.191   1.369   1.189 -0.2013 -0.5683  0.4061
  324DG     H23 7452   5.367   1.384   1.196  0.2834 -1.5342  0.2380
  325DG      C1 7453   3.807   2.397   4.810  0.6807  0.1517  0.3497
  325DG      C2 7454   3.205   1.960   5.158  0.1764  0.9267  0.4852
  325DG      H3 7455   3.916   2.390   4.808  0.7303  0.8770 -1.3101
  325DG      H4 7456   3.787   2.493   4.858  1.7600  0.1639  0.8079
  325DG      H5 7457   3.778   2.393   4.705  1.6781  2.1225 -0.0723
  325DG      H6 7458   3.168   1.876   5.216  0.1260  1.2638  0.9459
  325DG      H7 7459   3.210   2.042   5.230  0.1734  0.3742  1.1214
  325DG      H8 7460   3.137   1.986   5.077 -0.0197  1.3058  0.7683
  325DG      O9 7461   3.747   2.289   4.876  0.1066 -0.4091  0.0253
  325DG     O10 7462   3.344   1.927   5.134  0.3667  0.1649  0.0672
  325DG     C11 7463   3.785   2.164   4.829 -0.0882 -0.2336 -0.4068
  325DG     C12 7464   3.391   2.016   5.036  0.2290  0.4914 -0.6058
  325DG     H13 7465   3.891   2.138   4.823 -0.3649 -2.0502  1.5612
  325DG     H14 7466   3.751   2.139   4.728  0.2355 -0.6791 -0.4103
  325DG     H15 7467   3.402   2.119   5.070  0.3364 -0.4639  2.5668
  325DG     H16 7468   3.340   2.016   4.940 -1.0605  1.1019  0.0586
  325DG     C17 7469   3.734   2.053   4.920  0.6409 -0.0439  0.4256
  325DG     C18 7470   3.540   1.976   5.022  0.4694  0.3368 -0.4676
  325DG     O19 7471   3.596   2.065   4.931  0.3780  0.2527  0.0971
  325DG     H20 7472   3.776   2.064   5.020 -0.8255 -1.6935  1.2790
  325DG     H21 7473   3.765   1.952   4.895  0.0306 -0.2258  0.3872
  325DG     H22 7474   3.590   1.980   5.119  0.3377  0.6993 -0.4154
  325DG     H23 7475   3.559   1.879   4.975  1.3770  1.4058 -2.4104
  326DG      C1 7476   5.253   2.502   3.924 -0.2597  0.2859 -0.2478
  326DG      C2 7477   5.458   2.197   4.560  0.1805 -0.1069  0.3009
  326DG      H3 7478   5.357   2.536   3.923 -0.5953  1.3460 -0.5861
  326DG      H4 7479   5.198   2.596   3.932 -0.2419  0.1600  2.3795
  326DG      H5 7480   5.242   2.451   3.828 -1.5895 -1.6860  0.8901
  326DG      H6 7481   5.419   2.171   4.658 -0.8998  0.5735  0.0685
  326DG      H7 7482   5.530   2.122   4.525 -0.6390 -0.5104 -0.5468
  326DG      H8 7483   5.510   2.290   4.585  0.2810 -0.3348  0.9445
  326DG      O9 7484   5.227   2.406   4.033  0.5714 -0.3414 -0.4182
  326DG     O10 7485   5.351   2.224   4.469 -0.4646  0.0028  0.0796
  326DG     C11 7486   5.091   2.404   4.082  0.1583 -0.0036  0.3763
  326DG     C12 7487   5.238   2.294   4.517 -0.1750 -0.4155 -0.6331
  326DG     H13 7488   5.026   2.388   3.997  2.1397 -0.4975 -1.1096
  326DG     H14 7489   5.074   2.510   4.105 -0.8133  0.3652 -1.8559
  326DG     H15 7490   5.256   2.401   4.532 -0.0021 -0.3947 -0.9641
  326DG     H16 7491   5.225   2.257   4.618  1.7180 -0.1524 -0.2630
  326DG     C17 7492   5.057   2.315   4.195 -0.0272  0.6979 -0.0040
  326DG     C18 7493   5.119   2.273   4.421  0.2909  0.3408 -0.3101
  326DG     O19 7494   5.163   2.323   4.291 -1.0457  0.0627  0.4027
  326DG     H20 7495   5.039   2.211   4.168  2.6364  0.2770 -0.4211
  326DG     H21 7496   4.966   2.361   4.235  0.0470  0.7121  0.1492
  326DG     H22 7497   5.082   2.171   4.414 -0.9050  0.6388  1.1636
  326DG     H23 7498   5.031   2.333   4.444  0.2233  0.2692 -0.3851
  327DG      C1 7499   3.373   1.650   0.738 -0.2582 -0.2881 -0.2009
  327DG      C2 7500   3.574   2.459   0.553 -0.2011 -0.1839  0.2283
  327DG      H3 7501   3.353   1.584   0.653  0.9064 -0.3426 -0.4507
  327DG      H4 7502   3.281   1.653   0.797  0.7345  0.3723  1.3533
  327DG      H5 7503   3.444   1.599   0.802 -2.1548 -1.3457  1.1882
  327DG      H6 7504   3.467   2.465   0.534 -0.1239  1.5002  0.2072
  327DG      H7 7505   3.583   2.476   0.661 -2.4972 -2.2741  0.8548
  327DG      H8 7506   3.624   2.536   0.495  0.2922 -1.0768 -0.5628
  327DG      O9 7507   3.437   1.773   0.713  0.0636 -0.2170 -0.2871
  327DG     O10 7508   3.635   2.343   0.520 -0.3622  0.1049  0.4027
  327DG     C11 7509   3.531   1.749   0.607 -0.3366 -0.0598  0.6276
  327DG     C12 7510   3.570   2.234   0.587 -0.1831  0.3918  0.6969
  327DG     H13 7511   3.479   1.719   0.516 -0.2334  0.0223  0.5424
  327DG     H14 7512   3.597   1.665   0.631  0.8735  0.8241  0.5138
  327DG     H15 7513   3.463   2.241   0.566  0.0364  1.3379 -0.1714
  327DG     H16 7514   3.582   2.246   0.695 -1.1894  0.0841  0.8564
  327DG     C17 7515   3.629   1.870   0.587  0.0664  0.4119 -0.0826
  327DG     C18 7516   3.636   2.100   0.559  0.2559 -0.2076 -0.2303
  327DG     O19 7517   3.553   1.997   0.605 -0.5102 -0.4331 -0.0581
  327DG     H20 7518   3.681   1.861   0.492  1.3074 -0.2595  0.6206
  327DG     H21 7519   3.697   1.872   0.672  1.5288 -0.7306 -1.1569
  327DG     H22 7520   3.661   2.092   0.453 -2.0052 -0.3859 -0.7854
  327DG     H23 7521   3.728   2.105   0.617  0.1552 -0.2108 -0.0716
  328DG      C1 7522   2.648   2.409   2.046  0.4789  0.5135  1.0656
  328DG      C2 7523   2.348   2.023   1.704  0.3622  0.3404  0.4128
  328DG      H3 7524   2.580   2.336   2.002  1.5723 -0.3514  0.7861
  328DG      H4 7525   2.623   2.408   2.153 -0.5108 -3.3459  0.9488
  328DG      H5 7526   2.747   2.365   2.048 -0.0736 -0.7682  0.9979
  328DG      H6 7527   2.432   1.972   1.752  0.4634 -1.8257 -1.8747
  328DG      H7 7528   2.255   2.003   1.757 -0.5064  0.1414 -1.1302
  328DG      H8 7529   2.342   1.973   1.608  1.0869  1.2866 -0.1462
  328DG      O9 7530   2.678   2.532   1.978  0.4762 -0.0314  0.3797
  328DG     O10 7531   2.360   2.164   1.678  0.2827  0.9779  0.1050
  328DG     C11 7532   2.571   2.576   1.907 -0.0681  0.0486  0.3373
  328DG     C12 7533   2.496   2.177   1.642  0.1430 -0.6810  0.0694
  328DG     H13 7534   2.581   2.683   1.887  0.5651 -0.1985 -0.7492
  328DG     H14 7535   2.480   2.562   1.966  1.4236 -0.0428  2.7086
  328DG     H15 7536   2.506   2.130   1.545 -0.5939 -0.6872 -0.0052
  328DG     H16 7537   2.566   2.131   1.712  0.5146 -0.4220 -0.1292
  328DG     C17 7538   2.553   2.516   1.763 -0.5213  0.0208  0.1356
  328DG     C18 7539   2.536   2.325   1.637  0.4387  0.0422 -0.1147
  328DG     O19 7540   2.547   2.374   1.773  0.2738  0.0824  0.3215
  328DG     H20 7541   2.649   2.538   1.715 -1.4315 -0.1539 -1.8596
  328DG     H21 7542   2.466   2.556   1.711  0.2049  1.5666  0.0547
  328DG     H22 7543   2.627   2.345   1.580 -0.0719  2.2821 -0.1994
  328DG     H23 7544   2.453   2.364   1.578  0.4613 -2.3608 -1.8983
  329DG      C1 7545   3.934   0.027   3.866  0.5443  0.3082  0.1454
  329DG      C2 7546   3.428   0.637   3.611 -0.4247 -0.2501 -0.1685
  329DG      H3 7547   3.869  -0.052   3.830 -2.4321  2.1584  1.1051
  329DG      H4 7548   3.915   0.026   3.974  0.0081 -0.4631  0.0489
  329DG      H5 7549   4.037  -0.001   3.844 -0.1867 -1.9952 -0.5573
  329DG      H6 7550   3.346   0.567   3.593 -2.5150  2.1866 -0.6980
  329DG      H7 7551   3.429   0.665   3.717  0.4968 -0.2334 -0.1752
  329DG      H8 7552   3.422   0.734   3.562  2.2258  0.6247  1.0347
  329DG      O9 7553   3.905   0.146   3.801  0.6019 -0.2526  0.4520
  329DG     O10 7554   3.548   0.596   3.561 -0.0390  0.2188  0.0586
  329DG     C11 7555   3.891   0.122   3.660  0.2675  0.5470  0.3565
  329DG     C12 7556   3.610   0.493   3.637  0.0606 -0.2505  0.3134
  329DG     H13 7557   3.809   0.053   3.643  1.3329 -0.7978  0.4634
  329DG     H14 7558   3.978   0.070   3.619 -0.6614 -0.4187 -0.4344
  329DG     H15 7559   3.534   0.425   3.675  0.4902 -1.5575 -1.0521
  329DG     H16 7560   3.664   0.539   3.719  0.6091  2.7236 -1.5689
  329DG     C17 7561   3.869   0.245   3.578  0.0434 -0.0116 -0.0931
  329DG     C18 7562   3.711   0.423   3.552  0.2046  1.5130 -0.9400
  329DG     O19 7563   3.768   0.320   3.633  0.2740  0.5512 -0.5364
  329DG     H20 7564   3.840   0.220   3.476 -0.1940  2.2513 -0.6255
  329DG     H21 7565   3.960   0.304   3.567 -0.0315  0.6709  2.3390
  329DG     H22 7566   3.665   0.377   3.465 -1.5578  0.6789  0.3595
  329DG     H23 7567   3.790   0.490   3.518  3.1354 -0.6817  0.9925
  330DG      C1 7568   2.733   5.210   0.187 -0.2574  0.0758 -0.3206
  330DG      C2 7569   3.168   5.887   0.425  0.0054 -0.1075 -0.0695
  330DG      H3 7570   2.723   5.257   0.089 -2.8038 -0.0571 -0.1913
  330DG      H4 7571   2.634   5.173   0.213 -0.2996 -0.0266 -0.6213
  330DG      H5 7572   2.801   5.125   0.183  0.5898  0.7222 -0.1806
  330DG      H6 7573   3.123   5.983   0.400 -1.6073 -0.7844  0.0540
  330DG      H7 7574   3.226   5.886   0.518  0.0016  3.7784  0.1361
  330DG      H8 7575   3.227   5.849   0.342 -1.1680  1.4137 -1.6543
  330DG      O9 7576   2.784   5.293   0.290  0.2576  0.2034  0.1608
  330DG     O10 7577   3.061   5.801   0.450 -0.2925 -0.0812  0.1375
  330DG     C11 7578   2.716   5.416   0.298 -0.4826 -0.8834 -0.1250
  330DG     C12 7579   3.097   5.665   0.469  0.7468  0.2859 -0.6245
  330DG     H13 7580   2.608   5.406   0.308 -0.5184 -1.7316 -1.1819
  330DG     H14 7581   2.735   5.471   0.206  0.8054  0.3143  0.8198
  330DG     H15 7582   3.163   5.662   0.556  0.1867  1.7870 -0.1189
  330DG     H16 7583   3.144   5.626   0.378  2.9360  2.1491 -0.4032
  330DG     C17 7584   2.769   5.495   0.425  0.6960 -0.5167 -0.0899
  330DG     C18 7585   2.971   5.589   0.511 -0.0771 -0.3263  0.7086
  330DG     O19 7586   2.903   5.546   0.398  0.4443  0.4245 -0.2694
  330DG     H20 7587   2.770   5.426   0.510 -0.1772  1.3190  1.4679
  330DG     H21 7588   2.691   5.568   0.446  1.2344 -0.5900  2.4041
  330DG     H22 7589   2.998   5.498   0.564  2.3685  0.0317  0.1773
  330DG     H23 7590   2.908   5.657   0.569 -0.2200  0.6429 -0.5330
  331DG      C1 7591   4.160   0.826   0.961  0.0687 -0.2715  0.1348
  331DG      C2 7592   3.805   0.205   1.316  0.0052 -0.7601 -0.1363
  331DG      H3 7593   4.255   0.802   0.913  0.2695  1.0008 -0.1221
  331DG      H4 7594   4.187   0.843   1.065  0.7597  0.5482 -0.1665
  331DG      H5 7595   4.125   0.921   0.921 -3.4130 -0.7089  1.7121
  331DG      H6 7596   3.797   0.248   1.416  0.7293 -0.4299 -0.2164
  331DG      H7 7597   3.730   0.130   1.294  0.7453 -1.7384  0.5808
  331DG      H8 7598   3.897   0.149   1.301 -0.0630 -1.1332  0.7503
  331DG      O9 7599   4.089   0.710   0.945  0.1820  0.3025 -0.6476
  331DG     O10 7600   3.799   0.312   1.229  0.3893 -0.3080  0.2477
  331DG     C11 7601   3.952   0.746   0.967 -0.0040  0.1632  0.3086
  331DG     C12 7602   3.809   0.276   1.090  0.6641  0.2817 -0.1939
  331DG     H13 7603   3.911   0.832   0.914  0.1669  1.5316  2.2956
  331DG     H14 7604   3.936   0.774   1.071  0.8054  1.3941  0.1319
  331DG     H15 7605   3.744   0.190   1.075 -2.4073  2.7675 -2.4561
  331DG     H16 7606   3.915   0.255   1.077  0.6156  0.1738 -0.4101
  331DG     C17 7607   3.853   0.623   0.938  0.2909 -0.0037 -0.4666
  331DG     C18 7608   3.775   0.394   0.998  0.6734  0.1936  0.0929
  331DG     O19 7609   3.868   0.505   1.023  0.2265  0.2644  0.2018
  331DG     H20 7610   3.866   0.599   0.832  0.0705 -2.5690  0.0117
  331DG     H21 7611   3.755   0.665   0.958  0.8427  1.1756 -0.1489
  331DG     H22 7612   3.786   0.378   0.891  0.8943  2.7793 -0.3357
  331DG     H23 7613   3.670   0.422   1.008  0.2830 -0.9938 -0.5381
  332DG      C1 7614   2.523   3.485   4.891  0.1140 -0.1086  0.5143
  332DG      C2 7615   1.931   2.937   4.898 -0.0679  0.4290 -0.2016
  332DG      H3 7616   2.584   3.441   4.812  0.3119 -0.0029  0.6090
  332DG      H4 7617   2.548   3.437   4.986  0.5268 -0.3763  0.2753
  332DG      H5 7618   2.555   3.589   4.899 -0.7018  0.3197 -1.2481
  332DG      H6 7619   1.852   2.905   4.831  0.2877  0.0154 -0.4279
  332DG      H7 7620   1.928   2.874   4.987 -1.9386 -1.5050 -1.5252
  332DG      H8 7621   1.904   3.040   4.923 -1.2898  0.5950 -2.0420
  332DG      O9 7622   2.381   3.489   4.867 -0.8702  0.3394 -0.0347
  332DG     O10 7623   2.063   2.939   4.839 -0.2870 -0.0261  0.2447
  332DG     C11 7624   2.347   3.360   4.824  0.0592 -0.0521 -0.5902
  332DG     C12 7625   2.063   3.011   4.718  0.7461  0.5791 -0.2427
  332DG     H13 7626   2.389   3.289   4.896  2.1407  1.6267 -0.0761
  332DG     H14 7627   2.388   3.341   4.725  0.7314 -1.4676 -0.0779
  332DG     H15 7628   1.985   2.970   4.655 -0.5233  1.6720  0.5593
  332DG     H16 7629   2.161   2.986   4.677  1.0270  0.2992  0.5685
  332DG     C17 7630   2.200   3.329   4.828  1.0863  0.2775  0.1294
  332DG     C18 7631   2.067   3.162   4.728  0.0804  0.0873  0.1346
  332DG     O19 7632   2.183   3.187   4.806  0.1150 -0.0856 -0.4363
  332DG     H20 7633   2.153   3.405   4.765 -0.5358  0.5274  1.5737
  332DG     H21 7634   2.161   3.353   4.927 -0.0532 -0.4572 -0.1347
  332DG     H22 7635   2.064   3.202   4.627 -0.3179 -2.4644 -0.9536
  332DG     H23 7636   1.976   3.200   4.773 -1.0462  0.1837 -2.0986
  333DG      C1 7637   1.612   2.710   1.952 -0.5123  0.6425  0.3810
  333DG      C2 7638   1.213   3.164   1.428  0.4573 -0.0572  0.1211
  333DG      H3 7639   1.568   2.773   2.030 -0.6566  1.2648 -0.1974
  333DG      H4 7640   1.719   2.726   1.936 -0.6557  0.2759 -1.0219
  333DG      H5 7641   1.582   2.608   1.974 -3.1288  1.6573  2.0006
  333DG      H6 7642   1.281   3.147   1.345 -1.3751 -1.1761 -1.2324
  333DG      H7 7643   1.105   3.161   1.414  0.2672 -0.2068  1.4913
  333DG      H8 7644   1.241   3.263   1.465 -2.1968  0.9983 -0.4468
  333DG      O9 7645   1.553   2.755   1.830 -0.3874  0.2333 -0.2240
  333DG     O10 7646   1.252   3.076   1.525 -0.4241  0.2159 -0.1380
  333DG     C11 7647   1.433   2.684   1.796 -0.1410  0.0091 -0.1440
  333DG     C12 7648   1.395   3.046   1.516  0.0416 -0.5011  0.6148
  333DG     H13 7649   1.354   2.717   1.862 -0.9716 -2.8794  0.4412
  333DG     H14 7650   1.432   2.578   1.819 -1.2876  0.3127  1.3277
  333DG     H15 7651   1.449   3.139   1.538 -0.7657  0.3983 -1.0122
  333DG     H16 7652   1.437   3.015   1.420  0.6848 -0.3289  0.8301
  333DG     C17 7653   1.398   2.705   1.645 -0.3822  0.2185 -0.6063
  333DG     C18 7654   1.426   2.939   1.618 -0.0394 -0.2508  0.0243
  333DG     O19 7655   1.343   2.830   1.603 -0.4392  0.4465 -0.2841
  333DG     H20 7656   1.308   2.646   1.625 -0.5510  0.3568 -0.2721
  333DG     H21 7657   1.483   2.679   1.582  2.2688 -1.6186  3.3435
  333DG     H22 7658   1.528   2.901   1.613 -1.4112 -4.6287  0.9309
  333DG     H23 7659   1.419   2.973   1.722  1.2650  0.9962 -0.2538
  334DG      C1 7660   1.313   4.198   2.232 -0.4302  0.0815 -0.5942
  334DG      C2 7661   2.001   4.407   2.315  0.4498  0.1719  0.5031
  334DG      H3 7662   1.213   4.235   2.257 -0.8571 -0.5893 -1.2689
  334DG      H4 7663   1.309   4.098   2.275 -2.5399  0.2300 -0.3420
  334DG      H5 7664   1.307   4.198   2.123 -0.4932  0.4302 -0.5922
  334DG      H6 7665   1.965   4.335   2.241  0.2328 -0.5224  1.2694
  334DG      H7 7666   2.086   4.461   2.274  0.6258 -0.1061  0.4995
  334DG      H8 7667   2.034   4.345   2.398 -0.1542 -1.4936 -0.4459
  334DG      O9 7668   1.427   4.277   2.259 -0.0789  0.3883  0.1257
  334DG     O10 7669   1.896   4.489   2.358  0.0381  0.4300  0.0096
  334DG     C11 7670   1.554   4.227   2.209  0.0107 -0.1902  0.3543
  334DG     C12 7671   1.852   4.580   2.258 -0.2857  0.4203 -0.2845
  334DG     H13 7672   1.557   4.220   2.100  0.8820 -2.0907  0.4556
  334DG     H14 7673   1.570   4.121   2.231  1.8449 -0.3059 -1.2052
  334DG     H15 7674   1.944   4.630   2.225 -0.0418  0.7775  0.8917
  334DG     H16 7675   1.794   4.658   2.308 -0.9198 -0.6016  0.6277
  334DG     C17 7676   1.663   4.318   2.253 -0.3322 -0.0316  0.3187
  334DG     C18 7677   1.775   4.510   2.139  0.2023 -0.4081 -0.3208
  334DG     O19 7678   1.655   4.449   2.194  0.3863 -0.5250  0.4602
  334DG     H20 7679   1.758   4.270   2.231  0.8638  1.9655  0.8891
  334DG     H21 7680   1.667   4.341   2.359  0.6218 -1.9646  0.7500
  334DG     H22 7681   1.731   4.571   2.061  0.6876 -0.4854 -0.6571
  334DG     H23 7682   1.837   4.434   2.091  0.7856 -1.9948  2.6560
  335DG      C1 7683   5.304   3.118   1.035  0.0342  0.4702  0.3320
  335DG      C2 7684   5.014   2.366   0.779 -0.9077 -0.1036  0.2383
  335DG      H3 7685   5.368   3.206   1.049  0.5695  0.3118 -0.9592
  335DG      H4 7686   5.288   3.056   1.122 -2.2339 -0.0749 -0.4221
  335DG      H5 7687   5.205   3.160   1.022 -1.4400 -2.4019  1.5864
  335DG      H6 7688   4.907   2.385   0.790 -0.5188  2.1159  0.5322
  335DG      H7 7689   5.029   2.296   0.696  1.6393  1.0427 -0.3697
  335DG      H8 7690   5.045   2.299   0.859 -1.6445 -1.5567 -0.6458
  335DG      O9 7691   5.331   3.039   0.921 -0.0839 -0.5001  0.2986
  335DG     O10 7692   5.097   2.484   0.780  0.1050 -0.3037 -0.3014
  335DG     C11 7693   5.235   2.939   0.899  0.1200 -0.3694  0.3523
  335DG     C12 7694   5.102   2.548   0.654  0.1581  0.0235  0.5130
  335DG     H13 7695   5.135   2.982   0.888  0.0158 -0.1902  1.7275
  335DG     H14 7696   5.241   2.878   0.990  0.3623 -0.0685  0.5402
  335DG     H15 7697   5.004   2.567   0.612  0.5789  0.1590 -0.4264
  335DG     H16 7698   5.154   2.483   0.584  1.9448  1.0948  0.7784
  335DG     C17 7699   5.264   2.867   0.776 -0.5489 -0.3998  0.3817
  335DG     C18 7700   5.182   2.679   0.653  0.1591  0.0858 -0.2018
  335DG     O19 7701   5.169   2.756   0.773  0.2979 -0.1916  0.4201
  335DG     H20 7702   5.366   2.829   0.779 -0.1430  0.6555  2.4556
  335DG     H21 7703   5.261   2.933   0.690  0.8605 -2.3547 -1.2455
  335DG     H22 7704   5.285   2.642   0.656  1.4034  3.2695  0.2489
  335DG     H23 7705   5.167   2.739   0.563  0.0313  0.0183 -0.2246
  336DG      C1 7706   5.371   5.071   1.823 -0.2056  0.5707 -0.9704
  336DG      C2 7707   5.422   5.423   1.153  0.4778  0.0385 -0.2849
  336DG      H3 7708   5.313   5.163   1.819 -1.5250  0.0112  2.0728
  336DG      H4 7709   5.459   5.090   1.885  1.1599 -3.3857 -1.3542
  336DG      H5 7710   5.315   4.989   1.868  2.0040 -2.2907 -3.0174
  336DG      H6 7711   5.503   5.433   1.080  2.1027 -2.4302  1.0554
  336DG      H7 7712   5.332   5.470   1.113  0.0219  0.7893  1.5136
  336DG      H8 7713   5.449   5.467   1.249 -0.4965 -0.6853  0.3419
  336DG      O9 7714   5.409   5.028   1.697 -0.1848  0.2094 -0.8963
  336DG     O10 7715   5.387   5.291   1.180  0.0836  0.3192 -0.1077
  336DG     C11 7716   5.307   4.987   1.609  0.5997  0.0118 -0.2935
  336DG     C12 7717   5.501   5.220   1.234  0.0506  0.9945  0.2607
  336DG     H13 7718   5.233   5.066   1.596 -0.6834 -1.0677  0.2795
  336DG     H14 7719   5.263   4.896   1.650  0.5721  0.1280 -0.0655
  336DG     H15 7720   5.553   5.273   1.314 -1.1729  2.3083  0.2171
  336DG     H16 7721   5.576   5.214   1.155 -0.0166  4.3205 -0.1966
  336DG     C17 7722   5.371   4.962   1.468  0.4238 -0.7832 -0.2334
  336DG     C18 7723   5.456   5.076   1.286 -0.1680 -1.4564 -0.1984
  336DG     O19 7724   5.427   5.082   1.424  0.4447 -0.6537 -0.6935
  336DG     H20 7725   5.294   4.925   1.401 -0.0033 -2.2700  1.0252
  336DG     H21 7726   5.449   4.886   1.467 -0.4064 -1.6631 -2.2463
  336DG     H22 7727   5.369   5.041   1.230 -2.1064  2.6834 -0.1530
  336DG     H23 7728   5.538   5.011   1.255  2.3261  0.9107  1.0314
  337DG      C1 7729   2.890   4.177   2.563 -0.5078 -0.5275 -0.2130
  337DG      C2 7730   2.793   4.703   2.231  0.7074  0.4024  0.4828
  337DG      H3 7731   2.977   4.116   2.587 -0.6683 -1.3340 -1.5369
  337DG      H4 7732   2.834   4.116   2.492 -2.5641  1.1080 -0.0670
  337DG      H5 7733   2.830   4.173   2.654  0.0506 -1.5276  0.1352
  337DG      H6 7734   2.811   4.786   2.162  0.1986 -0.5733 -0.8736
  337DG      H7 7735   2.854   4.626   2.184 -1.2176 -0.6032 -0.4982
  337DG      H8 7736   2.692   4.666   2.213  1.3773 -0.5872 -1.5333
  337DG      O9 7737   2.935   4.303   2.525 -0.5431 -0.6034 -0.7854
  337DG     O10 7738   2.833   4.730   2.364 -0.2133 -0.7579 -0.3899
  337DG     C11 7739   3.075   4.330   2.526  0.1452 -0.5946  0.1561
  337DG     C12 7740   2.955   4.789   2.385  0.2051 -0.3650 -0.3891
  337DG     H13 7741   3.138   4.254   2.481  1.8042  1.2431 -0.7351
  337DG     H14 7742   3.103   4.348   2.630  3.1180  1.6612 -0.9042
  337DG     H15 7743   2.954   4.829   2.486  2.4820 -0.5923 -0.2230
  337DG     H16 7744   2.977   4.875   2.322 -2.4422  0.1915 -0.6826
  337DG     C17 7745   3.117   4.453   2.439 -0.1436  0.1534  0.2854
  337DG     C18 7746   3.073   4.686   2.392 -0.2696 -0.3049  0.2540
  337DG     O19 7747   3.027   4.568   2.447  0.0986  0.0281  0.4271
  337DG     H20 7748   3.129   4.422   2.336  0.7617 -1.7806  0.9164
  337DG     H21 7749   3.218   4.479   2.473 -0.0425 -1.5994  1.4910
  337DG     H22 7750   3.101   4.666   2.289 -0.2344 -0.9300  0.3762
  337DG     H23 7751   3.159   4.735   2.438 -0.7866  2.3351 -1.3870
  338DG      C1 7752   4.848   4.424   5.336 -0.2284 -0.5248 -0.3589
  338DG      C2 7753   4.437   4.241   5.745  0.5168  0.5355  0.5986
  338DG      H3 7754   4.883   4.405   5.235 -1.3755 -1.6677 -0.5683
  338DG      H4 7755   4.914   4.403   5.420  1.1149  2.3766 -0.5533
  338DG      H5 7756   4.830   4.531   5.350 -0.1137 -0.6895  1.1881
  338DG      H6 7757   4.475   4.162   5.810  0.2537 -0.4860 -0.4714
  338DG      H7 7758   4.530   4.281   5.704  1.9976  1.7590  4.6632
  338DG      H8 7759   4.385   4.313   5.808 -1.9985 -1.9171  1.5153
  338DG      O9 7760   4.728   4.354   5.359  0.2985 -0.3763  0.0770
  338DG     O10 7761   4.351   4.193   5.634 -0.1696  0.6692 -0.0040
  338DG     C11 7762   4.720   4.224   5.298  1.0039 -0.4326 -0.4852
  338DG     C12 7763   4.379   4.057   5.609 -0.1907 -0.3244 -0.1253
  338DG     H13 7764   4.814   4.196   5.249  0.5027 -0.1690 -1.6355
  338DG     H14 7765   4.641   4.222   5.222  0.3866 -0.1753  0.1403
  338DG     H15 7766   4.325   4.025   5.520  1.9121 -0.3844 -1.4434
  338DG     H16 7767   4.350   3.995   5.694 -2.0372 -1.9030 -1.7912
  338DG     C17 7768   4.691   4.114   5.399  0.2546  0.5729  0.3701
  338DG     C18 7769   4.524   4.035   5.558 -0.2377 -0.6652  0.3555
  338DG     O19 7770   4.563   4.135   5.466 -0.1026  1.0952 -0.3423
  338DG     H20 7771   4.776   4.102   5.467  0.4365  1.2202  0.2661
  338DG     H21 7772   4.694   4.023   5.340 -2.5967  0.2821  0.5701
  338DG     H22 7773   4.590   4.052   5.644  1.2358  0.6039 -0.9642
  338DG     H23 7774   4.534   3.934   5.519 -1.0206 -0.6385  0.0734
  339DG      C1 7775   3.067   3.056   2.239  0.0867  0.2777  0.2358
  339DG      C2 7776   2.987   3.148   1.482  0.2263  0.3145  0.3716
  339DG      H3 7777   3.035   2.956   2.209  1.8772 -0.7283  1.4983
  339DG      H4 7778   2.983   3.121   2.262 -1.2094 -1.0341 -0.6025
  339DG      H5 7779   3.128   3.043   2.328 -0.4368  0.4983  0.6247
  339DG      H6 7780   3.009   3.237   1.424  0.4104  0.9197  1.3520
  339DG      H7 7781   2.977   3.060   1.418  0.2169  0.5018  0.1138
  339DG      H8 7782   2.885   3.165   1.517  0.3236 -0.1410  0.8955
  339DG      O9 7783   3.150   3.121   2.143  0.2438 -0.3370 -0.2652
  339DG     O10 7784   3.077   3.130   1.581  0.1150 -0.4746 -0.0060
  339DG     C11 7785   3.242   3.044   2.069 -0.0580 -0.3926  0.7240
  339DG     C12 7786   3.118   3.243   1.656 -0.0920 -0.1698 -0.3427
  339DG     H13 7787   3.210   2.943   2.045  0.0489 -0.3141  0.2505
  339DG     H14 7788   3.321   3.018   2.140  2.0740  0.9483 -1.0429
  339DG     H15 7789   3.034   3.289   1.707  0.3996  0.9151 -0.4892
  339DG     H16 7790   3.155   3.311   1.580  0.8774  0.2235  0.4563
  339DG     C17 7791   3.306   3.119   1.952 -0.2954  0.1689  0.4552
  339DG     C18 7792   3.236   3.222   1.745 -0.6478  0.3563 -0.1931
  339DG     O19 7793   3.200   3.152   1.864  0.3903  0.1472  0.4720
  339DG     H20 7794   3.378   3.046   1.914  0.2392  0.5167  0.7772
  339DG     H21 7795   3.367   3.204   1.981  1.6148 -1.4436  1.4636
  339DG     H22 7796   3.299   3.155   1.686 -0.8241 -0.7580  0.8331
  339DG     H23 7797   3.283   3.318   1.764 -0.8491  0.0189  2.2562
  340DG      C1 7798   2.369   1.477   1.361  0.3580  0.0764 -0.0613
  340DG      C2 7799   2.523   0.963   0.920 -0.1204  0.2062 -0.8522
  340DG      H3 7800   2.347   1.584   1.357 -1.5936 -0.3325 -1.1415
  340DG      H4 7801   2.449   1.451   1.431 -0.6974 -2.7310  0.2248
  340DG      H5 7802   2.282   1.420   1.392 -0.4419  1.0010 -0.5445
  340DG      H6 7803   2.437   0.916   0.967 -0.6998 -0.0022 -2.0612
  340DG      H7 7804   2.524   0.941   0.813 -0.9533 -1.5693 -0.5421
  340DG      H8 7805   2.624   0.938   0.952  0.8451  1.9598 -2.3170
  340DG      O9 7806   2.411   1.432   1.228  0.5401 -0.7876  0.2356
  340DG     O10 7807   2.511   1.105   0.936 -0.1567  0.3003  0.3470
  340DG     C11 7808   2.517   1.513   1.181 -0.3317  0.1474  0.1790
  340DG     C12 7809   2.612   1.176   0.856 -0.3793 -0.3623  0.3733
  340DG     H13 7810   2.601   1.491   1.248 -0.8826 -0.3278  0.7306
  340DG     H14 7811   2.500   1.619   1.201  0.2302  0.2284  0.2356
  340DG     H15 7812   2.617   1.141   0.753 -3.2991  1.7250 -0.6240
  340DG     H16 7813   2.709   1.152   0.898 -1.2724 -2.0247  1.6054
  340DG     C17 7814   2.550   1.489   1.034  0.0523  0.2495 -0.0788
  340DG     C18 7815   2.583   1.329   0.864 -0.3112 -0.1588  0.9026
  340DG     O19 7816   2.539   1.350   1.001 -0.9593 -0.2232 -0.3553
  340DG     H20 7817   2.641   1.547   1.026 -0.5260  1.1031 -0.6783
  340DG     H21 7818   2.471   1.542   0.980  0.4283  0.8642 -0.0336
  340DG     H22 7819   2.665   1.391   0.829 -0.1230 -1.4023 -1.0143
  340DG     H23 7820   2.502   1.349   0.794  1.3250  0.6909 -0.8528
  341DG      C1 7821   3.026   2.437   3.286 -0.4350  0.0715  0.0906
  341DG      C2 7822   3.310   1.797   3.714  0.3119 -0.4640  0.1834
  341DG      H3 7823   3.077   2.522   3.333 -3.2816  2.9080 -1.5501
  341DG      H4 7824   2.928   2.470   3.253 -0.1766  0.4603 -0.3087
  341DG      H5 7825   3.082   2.420   3.194 -1.2960  1.3080 -0.6873
  341DG      H6 7826   3.385   1.836   3.645  0.5278 -1.8440 -0.3890
  341DG      H7 7827   3.331   1.836   3.814  1.4919  0.3245 -0.3493
  341DG      H8 7828   3.330   1.691   3.708  1.0221 -0.2418 -2.1822
  341DG      O9 7829   3.015   2.313   3.360  0.2470 -0.2764 -0.5917
  341DG     O10 7830   3.178   1.833   3.680 -0.5048  0.1309 -0.7388
  341DG     C11 7831   2.933   2.336   3.473 -0.0767 -0.0950 -0.0192
  341DG     C12 7832   3.170   1.972   3.665  0.2662 -0.3215  0.2006
  341DG     H13 7833   2.835   2.380   3.452  0.2585  0.5634 -0.2116
  341DG     H14 7834   2.986   2.409   3.534 -1.7118  1.0130  0.1517
  341DG     H15 7835   3.235   2.000   3.582  1.1562  0.4993  1.1552
  341DG     H16 7836   3.206   2.029   3.751 -0.0311  0.3894 -0.1380
  341DG     C17 7837   2.907   2.207   3.552 -0.5149 -0.4209  0.1076
  341DG     C18 7838   3.027   2.015   3.628  0.0383 -0.6949 -0.4387
  341DG     O19 7839   3.033   2.147   3.575  1.0478  0.2992 -0.4551
  341DG     H20 7840   2.848   2.148   3.482  1.2760  0.5754 -2.3846
  341DG     H21 7841   2.857   2.224   3.647  0.0816 -2.7877  0.8985
  341DG     H22 7842   2.967   1.957   3.558 -3.2723  1.6246  0.2516
  341DG     H23 7843   2.979   2.011   3.726 -0.8786  0.0544 -0.8358
  342DG      C1 7844   5.213   2.206   0.366 -0.5182 -0.7488  0.5854
  342DG      C2 7845   5.094   2.912   0.058  0.2346 -0.7211 -0.1939
  342DG      H3 7846   5.269   2.163   0.283  1.0399 -0.4457  1.4450
  342DG      H4 7847   5.173   2.125   0.426 -2.2684  0.0624  0.5903
  342DG      H5 7848   5.285   2.265   0.423 -0.1913  0.4009 -0.9350
  342DG      H6 7849   5.043   2.859  -0.022 -1.4795  0.7534 -0.1224
  342DG      H7 7850   5.060   3.015   0.059  1.8108 -0.1756 -0.3476
  342DG      H8 7851   5.200   2.926   0.034 -0.2311  2.2393 -0.9109
  342DG      O9 7852   5.104   2.289   0.323 -0.2649  0.0303  0.1335
  342DG     O10 7853   5.082   2.832   0.182  0.0535  0.1086 -0.1864
  342DG     C11 7854   5.136   2.396   0.234  0.3099 -0.5084  0.9797
  342DG     C12 7855   4.944   2.788   0.202  0.2735 -0.7502  0.2921
  342DG     H13 7856   5.175   2.358   0.139  0.0749 -0.5538  0.9003
  342DG     H14 7857   5.214   2.459   0.275 -0.6776  1.7043 -0.3366
  342DG     H15 7858   4.896   2.743   0.116  0.0103  0.1377 -0.0220
  342DG     H16 7859   4.883   2.876   0.222 -0.7336 -1.1546 -0.8658
  342DG     C17 7860   5.019   2.496   0.201 -0.0777  0.5147  0.0598
  342DG     C18 7861   4.928   2.695   0.319 -0.0491  0.2728 -0.0897
  342DG     O19 7862   5.008   2.577   0.319 -0.1401 -0.0495 -0.3351
  342DG     H20 7863   4.925   2.450   0.168  0.7512 -0.6879 -0.7022
  342DG     H21 7864   5.051   2.554   0.115 -0.1650 -1.4022 -1.3381
  342DG     H22 7865   4.947   2.745   0.413  0.3169  0.1167 -0.0810
  342DG     H23 7866   4.825   2.661   0.332 -0.3742  0.8384 -1.0616
  343DG      C1 7867   0.994   0.976   0.518 -0.0966  0.3130  0.0760
  343DG      C2 7868   1.605   0.681   0.568  0.1671 -0.5046 -0.6922
  343DG      H3 7869   0.896   0.950   0.477  0.1119 -0.7118  0.2098
  343DG      H4 7870   1.045   1.023   0.435 -2.8643 -1.2899 -2.7404
  343DG      H5 7871   0.982   1.049   0.599 -1.0256 -0.1041  0.3409
  343DG      H6 7872   1.540   0.670   0.655  0.6839 -0.1927 -0.2657
  343DG      H7 7873   1.684   0.607   0.578  0.2584 -0.4033 -0.6712
  343DG      H8 7874   1.651   0.780   0.572 -1.8786  0.6927 -3.5335
  343DG      O9 7875   1.074   0.877   0.569 -0.0368 -0.1558 -0.0143
  343DG     O10 7876   1.514   0.674   0.457 -0.5776 -0.3092  0.0641
  343DG     C11 7877   1.020   0.747   0.553 -0.5708 -0.0880  0.0247
  343DG     C12 7878   1.457   0.544   0.449  0.4153  0.1929  0.4342
  343DG     H13 7879   0.996   0.738   0.447 -2.1830 -3.8977  0.5811
  343DG     H14 7880   0.927   0.722   0.605  0.0994 -3.6024 -0.2315
  343DG     H15 7881   1.523   0.458   0.465 -1.1157 -1.0297  0.4897
  343DG     H16 7882   1.423   0.531   0.347  0.4633  0.0560  0.4348
  343DG     C17 7883   1.121   0.644   0.589 -0.2402  0.1352 -0.0278
  343DG     C18 7884   1.325   0.528   0.528 -0.0319 -0.3615 -0.9249
  343DG     O19 7885   1.238   0.641   0.508 -0.1942  0.5335 -0.0666
  343DG     H20 7886   1.069   0.549   0.576 -1.1703  0.7628 -1.0556
  343DG     H21 7887   1.151   0.645   0.693 -1.5599 -3.0228  0.5095
  343DG     H22 7888   1.266   0.438   0.513  1.6224 -1.5231 -0.6841
  343DG     H23 7889   1.345   0.521   0.635 -1.5764 -0.4078 -0.6126
  344DG      C1 7890   0.457   2.075   3.786 -0.1625 -0.4164  0.5237
  344DG      C2 7891   0.615   1.482   3.957  0.3151  0.4036 -0.6316
  344DG      H3 7892   0.553   2.073   3.733  1.0569  2.2919  2.4046
  344DG      H4 7893   0.390   2.129   3.720  2.1560  0.0405 -1.6179
  344DG      H5 7894   0.423   1.973   3.807  2.0763 -1.2433  0.3902
  344DG      H6 7895   0.605   1.476   3.848 -1.0917  2.6557 -0.6856
  344DG      H7 7896   0.712   1.444   3.986 -0.9865 -3.1407 -0.4280
  344DG      H8 7897   0.556   1.401   4.000  3.6743 -0.7170  2.2566
  344DG      O9 7898   0.467   2.154   3.906  0.0401 -1.0411  0.6828
  344DG     O10 7899   0.590   1.603   4.014 -0.7830 -0.1536  0.6974
  344DG     C11 7900   0.567   2.114   3.999 -0.3767 -0.0189 -0.6057
  344DG     C12 7901   0.456   1.637   4.000 -0.0890 -0.7619  0.1873
  344DG     H13 7902   0.603   2.183   4.075 -0.4167 -0.8748  0.2048
  344DG     H14 7903   0.659   2.080   3.951  0.5879 -2.0696  2.4101
  344DG     H15 7904   0.380   1.562   4.019 -1.8625  0.6719 -0.8754
  344DG     H16 7905   0.436   1.657   3.895 -1.6639  0.5999  0.6880
  344DG     C17 7906   0.506   2.002   4.090 -0.2066  0.5398 -0.0801
  344DG     C18 7907   0.428   1.767   4.078  0.0093  0.2584  0.4298
  344DG     O19 7908   0.502   1.879   4.017 -0.4374  0.3954 -0.7087
  344DG     H20 7909   0.412   2.033   4.135 -0.5612 -0.0744 -0.3844
  344DG     H21 7910   0.576   1.978   4.170  1.6827 -2.2759 -2.3632
  344DG     H22 7911   0.321   1.783   4.093 -0.0722 -0.8794  1.1710
  344DG     H23 7912   0.472   1.757   4.177 -1.6393 -2.8801  0.9562
  345DG      C1 7913   2.729   4.177   4.730 -0.0391  0.1521  0.3209
  345DG      C2 7914   2.579   3.593   4.258  0.2248 -0.0144  0.8513
  345DG      H3 7915   2.802   4.247   4.689 -2.6461  3.1238  0.3551
  345DG      H4 7916   2.696   4.220   4.825  1.6493  1.3002  0.4297
  345DG      H5 7917   2.643   4.154   4.667  1.0458  0.2301 -1.2483
  345DG      H6 7918   2.661   3.521   4.265  1.1112  0.9230  0.4770
  345DG      H7 7919   2.501   3.552   4.194  1.1352 -2.1072  0.9940
  345DG      H8 7920   2.625   3.670   4.196  1.3606 -0.5948  0.9459
  345DG      O9 7921   2.800   4.057   4.741  0.3219 -0.2698 -0.0510
  345DG     O10 7922   2.527   3.638   4.380 -0.4156 -0.7295 -0.2254
  345DG     C11 7923   2.756   3.962   4.825  0.7352  0.5686 -0.1499
  345DG     C12 7924   2.622   3.709   4.446  0.4448  0.0945 -0.2177
  345DG     H13 7925   2.728   4.000   4.923 -0.7539 -2.5038  0.7249
  345DG     H14 7926   2.846   3.902   4.834 -0.4878 -1.6736 -1.8566
  345DG     H15 7927   2.663   3.793   4.390 -3.3423  1.0019 -1.9304
  345DG     H16 7928   2.707   3.646   4.470  0.4534  1.3026  3.7621
  345DG     C17 7929   2.632   3.881   4.772 -0.5684  0.2931  0.2491
  345DG     C18 7930   2.563   3.758   4.579  0.1350 -0.3297 -0.4083
  345DG     O19 7931   2.666   3.824   4.650  0.0544 -0.2819  0.4416
  345DG     H20 7932   2.544   3.945   4.779 -0.4413  0.3631  1.3867
  345DG     H21 7933   2.616   3.804   4.848  0.5950  0.3060  0.5348
  345DG     H22 7934   2.482   3.825   4.551  0.7784  0.4113 -0.5302
  345DG     H23 7935   2.510   3.681   4.636 -0.1011  0.4392  0.4312
  346DG      C1 7936   2.129   1.791   0.295 -0.0246 -0.1703 -0.7269
  346DG      C2 7937   2.756   1.738   0.475  0.1634  0.1698  0.0134
  346DG      H3 7938   2.170   1.800   0.194  1.2186  2.1520 -0.0941
  346DG      H4 7939   2.028   1.831   0.295  0.2152  0.7801  2.8659
  346DG      H5 7940   2.131   1.689   0.333  1.0028  0.1781  0.2009
  346DG      H6 7941   2.754   1.633   0.501  0.4640  0.6597  2.2269
  346DG      H7 7942   2.766   1.759   0.369  1.1587  0.0962  0.0862
  346DG      H8 7943   2.842   1.786   0.522 -0.1428  0.7034  0.0436
  346DG      O9 7944   2.217   1.867   0.379  0.0194  0.4887  0.0031
  346DG     O10 7945   2.636   1.810   0.519 -0.6791 -0.5413  0.2998
  346DG     C11 7946   2.165   1.858   0.512 -0.0624  0.4643 -0.1464
  346DG     C12 7947   2.605   1.790   0.651 -0.5008  0.0939  0.0888
  346DG     H13 7948   2.167   1.751   0.536  0.7787  0.5614  0.2371
  346DG     H14 7949   2.061   1.892   0.513 -0.3415 -0.1792 -2.3067
  346DG     H15 7950   2.689   1.820   0.714 -0.4143 -0.5696  0.3011
  346DG     H16 7951   2.598   1.682   0.659  2.8764 -0.5553 -3.0693
  346DG     C17 7952   2.269   1.930   0.600 -0.2322  0.1712 -0.7319
  346DG     C18 7953   2.480   1.874   0.686 -0.0924  0.4423  0.5314
  346DG     O19 7954   2.383   1.853   0.582 -0.1022  0.0060  0.2264
  346DG     H20 7955   2.231   1.947   0.701  1.9438  2.5529 -0.1967
  346DG     H21 7956   2.294   2.032   0.569  0.0605  0.5724  0.7589
  346DG     H22 7957   2.448   1.838   0.783  0.0624 -0.0003  0.4221
  346DG     H23 7958   2.500   1.981   0.694 -0.2774  0.6215 -1.0340
  347DG      C1 7959   4.097   1.304   5.007  0.2400 -0.1759 -0.7108
  347DG      C2 7960   4.279   0.789   5.406  0.6882  0.3466 -0.0638
  347DG      H3 7961   3.999   1.259   5.021  0.2792  0.0313  0.2648
  347DG      H4 7962   4.139   1.292   4.907 -1.4849 -2.0940 -1.2717
  347DG      H5 7963   4.095   1.412   5.025 -2.5698 -0.2197 -0.2875
  347DG      H6 7964   4.349   0.737   5.471  1.5192  1.5282  0.0004
  347DG      H7 7965   4.229   0.855   5.477  0.9120 -0.6673  1.0784
  347DG      H8 7966   4.208   0.711   5.376  0.4389  0.2009  0.8556
  347DG      O9 7967   4.181   1.238   5.091  0.1364 -0.2164  0.4537
  347DG     O10 7968   4.336   0.860   5.303  0.4248 -0.2012 -0.4229
  347DG     C11 7969   4.310   1.287   5.068  0.2911  0.9746 -1.1200
  347DG     C12 7970   4.436   0.951   5.354  0.4875  0.3597  0.5877
  347DG     H13 7971   4.315   1.395   5.072 -0.9367  1.0302 -0.9102
  347DG     H14 7972   4.347   1.259   4.969  1.4160 -0.4466 -0.3465
  347DG     H15 7973   4.515   0.899   5.407  2.1688  3.0857  0.9337
  347DG     H16 7974   4.397   1.023   5.426  0.5637  1.4477 -0.4241
  347DG     C17 7975   4.402   1.228   5.173  0.2536 -0.3096 -0.6911
  347DG     C18 7976   4.504   1.023   5.241 -0.0063 -0.1437 -0.4868
  347DG     O19 7977   4.406   1.092   5.159 -1.0621  0.0968  0.2773
  347DG     H20 7978   4.371   1.258   5.274 -1.3561 -0.0658 -1.2257
  347DG     H21 7979   4.504   1.263   5.159  1.3397 -3.1083 -0.4502
  347DG     H22 7980   4.574   1.093   5.287 -0.6439  0.5206 -0.5059
  347DG     H23 7981   4.566   0.956   5.182  1.6553  1.7419 -0.9706
  348DG      C1 7982   1.507   1.078   1.592  0.0037 -0.5485 -0.6412
  348DG      C2 7983   1.193   1.295   2.322  0.2043  0.1534 -0.0757
  348DG      H3 7984   1.531   1.177   1.554  2.4001 -1.1178 -0.7686
  348DG      H4 7985   1.413   1.064   1.538 -0.1113  2.3011 -1.3548
  348DG      H5 7986   1.582   1.011   1.549 -1.5295 -1.7605 -1.5530
  348DG      H6 7987   1.249   1.388   2.324  2.4712 -1.1440 -0.0833
  348DG      H7 7988   1.086   1.315   2.314 -0.3169 -2.5631 -0.7498
  348DG      H8 7989   1.205   1.232   2.410 -0.4607 -1.5328 -1.1370
  348DG      O9 7990   1.489   1.076   1.730 -0.5022 -0.0345 -0.7492
  348DG     O10 7991   1.247   1.233   2.207 -0.0107 -0.2279 -0.0093
  348DG     C11 7992   1.425   0.965   1.783 -0.0627  0.7027 -0.2198
  348DG     C12 7993   1.204   1.276   2.081 -0.0011 -0.6065 -0.0563
  348DG     H13 7994   1.492   0.880   1.771  1.8807  2.3995 -2.3033
  348DG     H14 7995   1.331   0.955   1.728 -0.7906  1.5341  0.8565
  348DG     H15 7996   1.226   1.380   2.060 -5.5777  0.8036 -0.2911
  348DG     H16 7997   1.098   1.291   2.066 -0.1378  0.1241  1.3989
  348DG     C17 7998   1.381   0.973   1.930 -0.1456  0.4017 -0.5885
  348DG     C18 7999   1.294   1.199   1.972  0.1685  0.2503  0.4913
  348DG     O19 8000   1.272   1.057   1.958  0.4097  0.6815 -0.0892
  348DG     H20 8001   1.467   0.992   1.995 -0.9136  1.0298  0.2557
  348DG     H21 8002   1.368   0.868   1.959  2.4051  0.7353  2.2768
  348DG     H22 8003   1.271   1.237   1.873  1.7702 -0.9050 -0.3700
  348DG     H23 8004   1.401   1.221   1.969  1.1096 -3.7062 -2.5460
  349DG      C1 8005   4.415   4.477   4.582 -0.7473 -0.1941  0.7423
  349DG      C2 8006   4.436   4.742   4.040 -0.6346  0.2634 -0.1284
  349DG      H3 8007   4.325   4.435   4.537  0.0808  0.5110 -1.6979
  349DG      H4 8008   4.399   4.460   4.688 -0.7049 -2.0291  0.4750
  349DG      H5 8009   4.488   4.408   4.541 -1.7650 -0.8512 -0.0293
  349DG      H6 8010   4.461   4.638   4.018  1.4605  0.3816  1.4013
  349DG      H7 8011   4.327   4.743   4.030 -0.6980 -2.3622 -0.5658
  349DG      H8 8012   4.482   4.804   3.964  2.7113 -0.0774  1.4436
  349DG      O9 8013   4.438   4.609   4.535 -0.1778 -0.1577  0.6657
  349DG     O10 8014   4.473   4.792   4.174 -0.6575  0.2196  0.6588
  349DG     C11 8015   4.329   4.704   4.554 -0.4936  0.1017  0.3041
  349DG     C12 8016   4.437   4.924   4.195 -0.5167 -0.3874 -0.6135
  349DG     H13 8017   4.329   4.729   4.660 -0.4204  1.9386 -0.0830
  349DG     H14 8018   4.229   4.664   4.541 -0.6262 -0.4274  2.5768
  349DG     H15 8019   4.330   4.942   4.200 -0.3778  0.9024 -1.7042
  349DG     H16 8020   4.470   5.004   4.129  0.8475  0.9934  1.5976
  349DG     C17 8021   4.354   4.828   4.466  0.6252  0.7567 -0.5200
  349DG     C18 8022   4.491   4.971   4.332 -0.2566  0.4190  0.4654
  349DG     O19 8023   4.483   4.861   4.422  0.1762 -0.4200  0.4701
  349DG     H20 8024   4.313   4.905   4.532 -1.6734  0.4643 -1.4907
  349DG     H21 8025   4.290   4.812   4.378 -1.3209 -2.2950  1.2624
  349DG     H22 8026   4.598   4.988   4.326 -0.2731  0.3511 -0.1300
  349DG     H23 8027   4.444   5.065   4.363 -0.7367  0.4887 -0.4284
  350DG      C1 8028   1.826   2.290   2.142  0.6844  0.7594  0.2835
  350DG      C2 8029   1.833   1.767   2.359 -0.1322  0.2287  0.7788
  350DG      H3 8030   1.759   2.365   2.182  0.1937 -0.0835  1.0700
  350DG      H4 8031   1.845   2.314   2.037 -0.9625  2.7926  0.3898
  350DG      H5 8032   1.919   2.302   2.198  0.5430 -1.0216  0.9645
  350DG      H6 8033   1.833   1.660   2.381  0.7933 -0.3799 -1.7580
  350DG      H7 8034   1.862   1.792   2.257 -0.2262 -0.6403  0.5330
  350DG      H8 8035   1.911   1.807   2.423  1.7041 -1.2489 -0.4269
  350DG      O9 8036   1.770   2.165   2.163 -0.2330 -0.5244  0.1046
  350DG     O10 8037   1.706   1.822   2.392 -0.1001  0.1310 -0.1322
  350DG     C11 8038   1.657   2.156   2.078 -0.0265  0.4442  0.8956
  350DG     C12 8039   1.583   1.775   2.336  0.1359 -0.2083  0.3256
  350DG     H13 8040   1.677   2.182   1.975 -1.3059  0.3792  0.6153
  350DG     H14 8041   1.579   2.218   2.121 -0.2457 -0.6149  2.0875
  350DG     H15 8042   1.507   1.827   2.394  1.3812  1.6650  0.3441
  350DG     H16 8043   1.574   1.667   2.346 -1.4340  0.0431  2.3384
  350DG     C17 8044   1.622   2.008   2.065  0.2538 -0.3241 -0.1454
  350DG     C18 8045   1.564   1.824   2.194 -0.3526  0.0006  0.1033
  350DG     O19 8046   1.597   1.961   2.195 -0.6116 -0.2422  0.6018
  350DG     H20 8047   1.697   1.953   2.007 -0.6924 -1.1440 -0.6223
  350DG     H21 8048   1.538   2.001   1.996  0.0108  0.8415  0.0074
  350DG     H22 8049   1.638   1.773   2.132  1.0123  1.0761  0.7917
  350DG     H23 8050   1.464   1.815   2.151 -0.9534  1.6276  1.0769
  351DG      C1 8051   5.391   2.527   2.186  0.4514  1.0820  0.0514
  351DG      C2 8052   5.971   2.992   2.406  0.0232 -0.5456  0.5376
  351DG      H3 8053   5.449   2.435   2.191  1.3409  1.4038 -2.4829
  351DG      H4 8054   5.391   2.564   2.083 -1.7071 -0.8068 -0.7163
  351DG      H5 8055   5.291   2.499   2.218  0.2329 -0.7675 -1.9863
  351DG      H6 8056   5.949   3.060   2.489 -0.8742 -1.4648  1.0683
  351DG      H7 8057   6.051   2.928   2.444  0.7522  0.8418  1.4611
  351DG      H8 8058   6.006   3.058   2.327 -1.6928 -2.2696 -1.7862
  351DG      O9 8059   5.432   2.630   2.274  0.0136 -0.0327  0.5965
  351DG     O10 8060   5.848   2.920   2.375  0.0885 -0.1024 -0.3303
  351DG     C11 8061   5.453   2.594   2.405  0.0262  0.3580 -0.7165
  351DG     C12 8062   5.819   2.837   2.488 -0.2396 -0.6563 -0.0056
  351DG     H13 8063   5.543   2.532   2.410  0.4036  0.8406 -1.3728
  351DG     H14 8064   5.377   2.523   2.438 -0.7267  0.5498 -1.9754
  351DG     H15 8065   5.795   2.903   2.572  2.2801  0.2367  0.0766
  351DG     H16 8066   5.906   2.781   2.522 -0.4866 -0.2365  1.3707
  351DG     C17 8067   5.466   2.724   2.492  0.5081  0.3686 -0.0846
  351DG     C18 8068   5.702   2.744   2.458 -1.1748  0.2185 -0.0447
  351DG     O19 8069   5.576   2.805   2.462 -0.0621  0.3545 -0.8504
  351DG     H20 8070   5.469   2.701   2.599 -0.9130  1.9363  0.3240
  351DG     H21 8071   5.374   2.783   2.490  0.0851 -0.1580  1.6038
  351DG     H22 8072   5.716   2.695   2.362 -2.7935 -2.9122  1.1776
  351DG     H23 8073   5.710   2.670   2.537  1.0391 -1.0356 -1.3580
  352DG      C1 8074   4.995   5.220   4.310 -0.3863 -0.2084  0.1001
  352DG      C2 8075   4.656   5.722   3.906  0.2496 -0.5475  0.8634
  352DG      H3 8076   5.043   5.128   4.278  0.8020  0.4927 -0.2119
  352DG      H4 8077   4.960   5.214   4.413 -3.1693 -0.5723 -0.7875
  352DG      H5 8078   5.069   5.295   4.282  0.1161 -0.6358  0.2706
  352DG      H6 8079   4.763   5.705   3.890  0.2103 -3.0131  2.6016
  352DG      H7 8080   4.617   5.725   3.804  0.7978 -1.7325  0.6027
  352DG      H8 8081   4.654   5.824   3.943  1.1845 -0.1071 -0.2169
  352DG      O9 8082   4.882   5.248   4.232 -0.1021 -0.4400  0.1154
  352DG     O10 8083   4.614   5.628   4.002 -0.4334  0.4461 -0.7992
  352DG     C11 8084   4.760   5.240   4.303 -0.1020  0.4093 -0.0953
  352DG     C12 8085   4.583   5.504   3.946 -0.1864  0.3691  0.2423
  352DG     H13 8086   4.761   5.313   4.383 -0.5811  1.4223 -0.9822
  352DG     H14 8087   4.752   5.141   4.348  1.0378  0.4134  0.1472
  352DG     H15 8088   4.670   5.455   3.903 -1.3207 -1.8268  0.3304
  352DG     H16 8089   4.502   5.524   3.876  0.8172 -0.0858 -1.0904
  352DG     C17 8090   4.629   5.279   4.228  0.6040 -0.0326  0.2369
  352DG     C18 8091   4.542   5.409   4.057  0.1952  0.7215 -0.3267
  352DG     O19 8092   4.655   5.390   4.142  0.4497 -0.2469  0.1674
  352DG     H20 8093   4.545   5.286   4.298 -0.0490  0.9214 -0.6208
  352DG     H21 8094   4.605   5.195   4.163  0.7421 -0.4299  0.6880
  352DG     H22 8095   4.457   5.431   4.122 -1.9275  0.4668 -2.8854
  352DG     H23 8096   4.521   5.315   4.008  0.6776  0.4878 -0.0914
  353DG      C1 8097   2.042   2.212   1.507  0.3300  0.1355 -0.5900
  353DG      C2 8098   2.138   2.932   1.287  0.4908 -0.0743  0.3423
  353DG      H3 8099   1.993   2.117   1.486 -1.6101  1.1067 -0.6474
  353DG      H4 8100   1.971   2.260   1.575  0.5634 -0.7485  0.3097
  353DG      H5 8101   2.140   2.194   1.553  0.4644  0.3046 -0.8104
  353DG      H6 8102   2.229   2.944   1.344  1.5972 -0.8500 -1.1819
  353DG      H7 8103   2.117   3.015   1.219  0.6924 -1.7612 -1.8920
  353DG      H8 8104   2.057   2.917   1.358  1.5559 -0.3572  1.5195
  353DG      O9 8105   2.060   2.288   1.397 -0.2614  0.2272 -0.1078
  353DG     O10 8106   2.151   2.817   1.203  0.1519  0.4327 -0.0517
  353DG     C11 8107   2.160   2.234   1.314  0.3365  0.8679  0.3329
  353DG     C12 8108   2.182   2.703   1.272 -0.0122 -0.0833  0.7447
  353DG     H13 8109   2.125   2.146   1.261  1.1701  1.3798 -1.1085
  353DG     H14 8110   2.246   2.204   1.374  0.0092 -0.6744  0.0628
  353DG     H15 8111   2.090   2.677   1.323 -1.4776  1.2363 -1.1008
  353DG     H16 8112   2.259   2.709   1.350 -1.4253 -0.2446  2.2035
  353DG     C17 8113   2.201   2.338   1.207  0.0655 -0.4118  0.1658
  353DG     C18 8114   2.189   2.577   1.179 -0.4491 -0.3047 -0.5238
  353DG     O19 8115   2.176   2.463   1.265 -0.1358  0.1077  0.2220
  353DG     H20 8116   2.156   2.324   1.109 -0.2562  0.6314  0.1511
  353DG     H21 8117   2.308   2.346   1.188  0.1087  0.0733  0.5845
  353DG     H22 8118   2.120   2.579   1.095  1.2982  0.5487 -2.0206
  353DG     H23 8119   2.287   2.587   1.132  0.6519 -1.6664  1.3594
  354DG      C1 8120   0.104   4.366   3.947  0.2896  1.1310 -0.0729
  354DG      C2 8121   0.682   4.015   4.355  0.4050  0.3134 -0.6670
  354DG      H3 8122   0.045   4.297   4.007 -1.1062  2.6986  0.4534
  354DG      H4 8123   0.063   4.349   3.848  0.0493 -1.4636  0.4065
  354DG      H5 8124   0.075   4.468   3.975 -1.5086  0.5714  0.2585
  354DG      H6 8125   0.790   4.023   4.347  0.6806 -2.6038 -1.1736
  354DG      H7 8126   0.654   3.951   4.440 -2.0587  1.4426 -0.5386
  354DG      H8 8127   0.644   3.967   4.265  2.3254  0.0999 -1.4117
  354DG      O9 8128   0.239   4.346   3.967 -0.0923 -0.2928  0.1489
  354DG     O10 8129   0.616   4.137   4.387  0.1664  0.2016  0.2215
  354DG     C11 8130   0.268   4.335   4.111  0.7597  0.3692  0.4803
  354DG     C12 8131   0.654   4.247   4.298 -0.5301 -0.5675  0.0838
  354DG     H13 8132   0.232   4.234   4.135 -1.2762 -0.0260 -3.3768
  354DG     H14 8133   0.217   4.402   4.181  1.3941  0.0767  1.2392
  354DG     H15 8134   0.634   4.203   4.200 -0.5862 -4.3800  1.6507
  354DG     H16 8135   0.760   4.263   4.316 -0.4818  0.6081 -1.0754
  354DG     C17 8136   0.419   4.338   4.133  0.3934 -0.0935  0.0915
  354DG     C18 8137   0.571   4.371   4.317  0.2319  0.1304 -0.2682
  354DG     O19 8138   0.441   4.344   4.276  0.1432 -0.6867 -0.0817
  354DG     H20 8139   0.453   4.422   4.073  1.8633 -0.5091  0.2856
  354DG     H21 8140   0.465   4.247   4.091  3.8206  1.3708  0.2946
  354DG     H22 8141   0.580   4.385   4.425 -1.4409 -0.1649 -0.0628
  354DG     H23 8142   0.620   4.456   4.268  0.5524  0.3501  0.4234
  355DG      C1 8143   3.759   1.612   4.860 -0.8500  0.3335  0.2023
  355DG      C2 8144   3.789   1.004   4.572  0.1105  0.4060 -0.2566
  355DG      H3 8145   3.706   1.547   4.929 -0.1926 -0.4806 -0.0519
  355DG      H4 8146   3.734   1.713   4.894 -0.5968  0.3871  0.2274
  355DG      H5 8147   3.867   1.604   4.866 -0.9514 -0.0968  1.8391
  355DG      H6 8148   3.797   0.956   4.475  0.2583 -0.0255 -0.0315
  355DG      H7 8149   3.892   1.008   4.607  0.2299  0.8737 -0.6506
  355DG      H8 8150   3.738   0.945   4.648  0.5147 -0.8587 -0.9342
  355DG      O9 8151   3.724   1.578   4.728 -0.6139 -0.0054 -0.2888
  355DG     O10 8152   3.727   1.129   4.567 -0.5929  0.1637  0.0032
  355DG     C11 8153   3.590   1.613   4.695 -0.9933  0.3682 -0.0250
  355DG     C12 8154   3.586   1.133   4.574  0.0069 -1.6579  0.1111
  355DG     H13 8155   3.573   1.712   4.655 -3.0967 -0.9385 -2.6829
  355DG     H14 8156   3.521   1.602   4.779 -1.2518 -2.1618 -0.4768
  355DG     H15 8157   3.540   1.113   4.671 -3.4052  0.0859 -0.9877
  355DG     H16 8158   3.543   1.063   4.502 -1.6877  0.3283 -0.9209
  355DG     C17 8159   3.553   1.508   4.587  0.1323 -0.1775  0.2562
  355DG     C18 8160   3.540   1.277   4.536  0.0402  0.4580  0.0888
  355DG     O19 8161   3.590   1.379   4.628  0.1711 -0.0434  0.1480
  355DG     H20 8162   3.608   1.531   4.496 -0.7818 -1.5043 -0.6821
  355DG     H21 8163   3.447   1.504   4.561  0.2157 -2.4914  0.0767
  355DG     H22 8164   3.558   1.305   4.432  1.0953  0.3463  0.2367
  355DG     H23 8165   3.432   1.279   4.554 -0.0194  2.4331 -0.2615
  356DG      C1 8166   4.190   3.803   0.457 -0.0350  0.0949 -0.9565
  356DG      C2 8167   4.215   4.038   1.114  0.2903  0.9859  0.4517
  356DG      H3 8168   4.101   3.795   0.395 -0.4753 -0.4006 -0.2776
  356DG      H4 8169   4.208   3.705   0.502  1.4420  1.0214  0.5874
  356DG      H5 8170   4.277   3.801   0.391  1.3426 -0.3665  0.7955
  356DG      H6 8171   4.162   3.943   1.109 -0.6689  1.5400 -0.2653
  356DG      H7 8172   4.317   4.024   1.151  0.6040  3.1747  0.5506
  356DG      H8 8173   4.158   4.106   1.177  0.2447  4.1493 -2.6908
  356DG      O9 8174   4.185   3.904   0.555  0.0104  0.0350 -0.0119
  356DG     O10 8175   4.195   4.063   0.976 -0.4516  0.0006  0.6693
  356DG     C11 8176   4.166   4.030   0.496 -0.5468 -0.8717 -0.2414
  356DG     C12 8177   4.249   4.188   0.941  0.0569 -0.4841 -0.3526
  356DG     H13 8178   4.058   4.049   0.493 -0.2496  1.9053  2.0987
  356DG     H14 8179   4.214   4.045   0.400  0.5699  1.4199  0.6085
  356DG     H15 8180   4.357   4.189   0.950  0.1301  2.9242 -0.0326
  356DG     H16 8181   4.197   4.262   1.003 -0.0436  0.8495 -1.9666
  356DG     C17 8182   4.223   4.149   0.581 -0.2145  0.1561  0.2115
  356DG     C18 8183   4.225   4.224   0.797 -0.0692 -0.0240 -0.5467
  356DG     O19 8184   4.204   4.114   0.713 -0.7645 -0.1691 -0.1392
  356DG     H20 8185   4.165   4.236   0.550 -1.1494 -0.1944  0.9343
  356DG     H21 8186   4.328   4.168   0.558 -0.4015  1.1279  0.1025
  356DG     H22 8187   4.143   4.296   0.799  0.2116  0.3901 -2.1218
  356DG     H23 8188   4.294   4.293   0.748 -1.1207  0.2862 -1.6372
  357DG      C1 8189   1.472   5.014   0.138  0.2597  0.2262  0.1424
  357DG      C2 8190   2.123   5.033   0.177 -0.1149  0.9317 -0.7044
  357DG      H3 8191   1.397   5.008   0.217  0.4038  2.4156  0.5136
  357DG      H4 8192   1.428   4.994   0.041  1.4341  1.5435 -0.7079
  357DG      H5 8193   1.493   5.121   0.132 -1.8347  0.6303 -0.6054
  357DG      H6 8194   2.103   5.125   0.232  0.6595  1.2218 -0.9019
  357DG      H7 8195   2.207   4.983   0.224  0.4601  2.0088 -0.5467
  357DG      H8 8196   2.167   5.062   0.081  0.5361 -0.6955 -0.9287
  357DG      O9 8197   1.584   4.935   0.164 -0.2616  0.0974  0.0459
  357DG     O10 8198   2.008   4.956   0.161 -0.3917 -1.1683  0.0052
  357DG     C11 8199   1.560   4.793   0.154 -0.5234  0.1400 -0.5540
  357DG     C12 8200   2.032   4.826   0.105 -0.5126 -0.5784 -0.4831
  357DG     H13 8201   1.508   4.776   0.060 -0.4637 -2.1390 -0.2479
  357DG     H14 8202   1.485   4.759   0.225  0.6769 -0.3830  0.5102
  357DG     H15 8203   2.130   4.795   0.139 -0.1047  1.3830  0.2411
  357DG     H16 8204   2.018   4.820  -0.003 -1.4407 -2.4413 -0.3043
  357DG     C17 8205   1.686   4.710   0.159 -0.4707 -0.3573  0.1523
  357DG     C18 8206   1.917   4.740   0.156 -0.2433  0.3221 -0.5146
  357DG     O19 8207   1.793   4.787   0.120  0.9093  0.0941  0.8419
  357DG     H20 8208   1.681   4.615   0.105 -0.5190 -0.1080 -0.2846
  357DG     H21 8209   1.703   4.684   0.263  1.1985  1.3310  0.3540
  357DG     H22 8210   1.933   4.646   0.104  0.8158  0.3725 -0.2934
  357DG     H23 8211   1.921   4.720   0.263 -1.7532 -0.7991 -0.6356
  358DG      C1 8212   3.160   2.334   1.605 -0.5670  0.4686  0.3384
  358DG      C2 8213   2.909   2.483   0.837  1.0780 -0.0957 -0.2121
  358DG      H3 8214   3.204   2.423   1.561  1.4362 -0.7221 -0.2075
  358DG      H4 8215   3.243   2.264   1.619 -0.2400  0.0851 -2.8210
  358DG      H5 8216   3.117   2.352   1.704  2.2195  1.8942  1.3874
  358DG      H6 8217   2.838   2.421   0.782 -1.0451  1.6413  0.4361
  358DG      H7 8218   2.856   2.578   0.844  0.8654 -0.1639 -0.8451
  358DG      H8 8219   3.000   2.493   0.778  0.7136 -0.9240 -0.9363
  358DG      O9 8220   3.057   2.282   1.518  0.3503 -0.1564 -0.0558
  358DG     O10 8221   2.937   2.425   0.952  0.4572  0.2767  0.0365
  358DG     C11 8222   3.102   2.257   1.392 -0.0166  0.8379 -1.1795
  358DG     C12 8223   2.833   2.429   1.046  0.1789  0.1468 -0.0700
  358DG     H13 8224   3.163   2.167   1.400  1.5839  2.0093  0.6862
  358DG     H14 8225   3.153   2.343   1.349  0.3508  0.1776 -2.1202
  358DG     H15 8226   2.736   2.412   0.998  1.7461 -2.8130 -2.5060
  358DG     H16 8227   2.832   2.527   1.093 -1.1983  0.1457 -0.0305
  358DG     C17 8228   2.993   2.228   1.294 -0.7308 -0.1225 -0.1057
  358DG     C18 8229   2.844   2.317   1.148 -0.4271 -0.5768 -0.2741
  358DG     O19 8230   2.941   2.351   1.240 -0.2322 -0.1002  0.3770
  358DG     H20 8231   2.912   2.176   1.345 -1.0856  0.0421 -0.4919
  358DG     H21 8232   3.021   2.158   1.215 -0.5774 -0.5379  0.3133
  358DG     H22 8233   2.747   2.308   1.197 -1.4709  2.5572 -1.5360
  358DG     H23 8234   2.851   2.223   1.093 -2.7005 -1.4672  0.8333
  359DG      C1 8235   1.800   2.487   1.270  0.6395  0.1077  0.2656
  359DG      C2 8236   1.592   2.750   0.708  0.3046 -0.1786  0.5876
  359DG      H3 8237   1.811   2.404   1.200 -1.8054 -0.0217 -0.0228
  359DG      H4 8238   1.730   2.460   1.349  0.6479  0.9951  0.5804
  359DG      H5 8239   1.898   2.510   1.312  0.7546  2.2228 -1.0333
  359DG      H6 8240   1.698   2.774   0.699  0.0611  1.1335  0.9739
  359DG      H7 8241   1.571   2.654   0.660 -1.1767 -0.1729  1.1868
  359DG      H8 8242   1.533   2.835   0.673  0.2041  0.4085  2.1109
  359DG      O9 8243   1.750   2.602   1.202  0.1617  0.1360  0.3737
  359DG     O10 8244   1.583   2.748   0.850 -0.0646 -0.4169 -0.1781
  359DG     C11 8245   1.671   2.695   1.289 -0.5674  0.4833  0.4422
  359DG     C12 8246   1.451   2.777   0.894 -0.0486  0.0791 -0.2584
  359DG     H13 8247   1.742   2.743   1.356 -0.1508  0.4723  0.0154
  359DG     H14 8248   1.592   2.642   1.342  1.5734 -2.9495  0.5022
  359DG     H15 8249   1.394   2.684   0.889 -0.4213  0.1589  1.5830
  359DG     H16 8250   1.396   2.852   0.838  0.6091 -0.0031 -1.0232
  359DG     C17 8251   1.615   2.808   1.201 -0.2149 -0.4152 -0.0286
  359DG     C18 8252   1.450   2.837   1.037 -0.8153  0.3399 -0.0061
  359DG     O19 8253   1.509   2.745   1.130  0.2041 -0.4987 -0.1919
  359DG     H20 8254   1.691   2.848   1.135 -0.7878  0.7952  0.0167
  359DG     H21 8255   1.579   2.882   1.272 -1.5723 -1.3208  0.2596
  359DG     H22 8256   1.507   2.929   1.027 -1.2136  0.5189 -0.7017
  359DG     H23 8257   1.349   2.863   1.069 -1.5562 -3.0568  0.8353
  360DG      C1 8258   4.032   5.485   0.595 -0.2584 -0.2543 -0.0410
  360DG      C2 8259   3.467   5.692   0.154  1.1017  0.1806  0.2275
  360DG      H3 8260   4.066   5.588   0.601 -0.0934 -0.3756  1.5607
  360DG      H4 8261   4.122   5.423   0.593  0.1294  0.2923 -2.3092
  360DG      H5 8262   3.994   5.459   0.694 -0.6500  0.8767  0.1189
  360DG      H6 8263   3.431   5.656   0.058 -0.4512 -1.1849  1.2743
  360DG      H7 8264   3.386   5.697   0.226 -0.2756  1.0529 -1.3203
  360DG      H8 8265   3.503   5.795   0.143 -0.7172  0.7756 -0.4061
  360DG      O9 8266   3.936   5.463   0.494 -0.6319 -0.3737 -0.0775
  360DG     O10 8267   3.569   5.606   0.193 -0.1337  0.0815  0.1257
  360DG     C11 8268   3.872   5.334   0.505  0.1184  0.3138  0.6773
  360DG     C12 8269   3.538   5.467   0.172 -0.6551  0.7568 -0.1749
  360DG     H13 8270   3.801   5.330   0.587  0.3696  0.4960  0.9075
  360DG     H14 8271   3.942   5.252   0.521 -0.1583 -0.0781 -0.0611
  360DG     H15 8272   3.519   5.455   0.066 -0.3643  0.8750 -0.2403
  360DG     H16 8273   3.458   5.436   0.239 -1.6777  1.9522 -0.7931
  360DG     C17 8274   3.803   5.307   0.365 -0.6590 -1.0193 -0.0041
  360DG     C18 8275   3.663   5.392   0.203 -0.4804  0.1902 -0.6520
  360DG     O19 8276   3.696   5.400   0.337 -0.6974  0.3644 -0.0026
  360DG     H20 8277   3.756   5.209   0.371 -3.0956  0.1248  1.2401
  360DG     H21 8278   3.887   5.290   0.298 -0.8654 -0.3352 -0.4486
  360DG     H22 8279   3.653   5.286   0.176  1.0102 -0.1751  0.1077
  360DG     H23 8280   3.748   5.433   0.148  1.1116 -3.3820 -1.2115
  361DG      C1 8281   0.140   1.533   0.172 -0.3542 -0.2978  0.2698
  361DG      C2 8282  -0.524   1.591   0.019 -0.5700  0.5059 -0.3206
  361DG      H3 8283   0.197   1.601   0.109 -1.9160  2.6636  1.8447
  361DG      H4 8284   0.199   1.454   0.217 -0.6070 -1.1747 -0.8694
  361DG      H5 8285   0.107   1.597   0.253  0.6349 -1.2323  1.4409
  361DG      H6 8286  -0.554   1.595   0.124 -1.0402 -1.1833 -0.3582
  361DG      H7 8287  -0.518   1.693  -0.020 -0.6426  0.2022 -1.1378
  361DG      H8 8288  -0.602   1.541  -0.037 -1.5649  0.6999  0.8420
  361DG      O9 8289   0.027   1.486   0.107 -0.2479  0.1226 -0.1594
  361DG     O10 8290  -0.398   1.535  -0.016 -0.2108  0.3126 -0.0514
  361DG     C11 8291   0.073   1.411  -0.001 -0.5355 -0.4057  0.4008
  361DG     C12 8292  -0.374   1.543  -0.152 -0.3278 -0.1793 -0.1849
  361DG     H13 8293   0.134   1.323   0.021  0.4898  0.1931  0.0132
  361DG     H14 8294   0.137   1.466  -0.069  0.6400  0.4061  2.0908
  361DG     H15 8295  -0.333   1.644  -0.162  1.1970 -0.8493 -1.1386
  361DG     H16 8296  -0.455   1.535  -0.224  1.2177 -0.4538 -1.9691
  361DG     C17 8297  -0.045   1.379  -0.098  0.3705 -0.0283 -0.2745
  361DG     C18 8298  -0.253   1.442  -0.180  0.3152  0.3076 -0.3259
  361DG     O19 8299  -0.152   1.463  -0.082 -0.3443 -0.5199 -0.0510
  361DG     H20 8300  -0.088   1.282  -0.071  1.3578 -0.3942  0.0269
  361DG     H21 8301  -0.014   1.373  -0.203 -1.6593 -1.4516 -0.8476
  361DG     H22 8302  -0.296   1.342  -0.173 -0.7818  0.6793 -1.2748
  361DG     H23 8303  -0.206   1.456  -0.278  0.8822  0.6027 -0.0101
  362DG      C1 8304   3.212   1.415   5.333 -0.7019 -0.0590  0.3273
  362DG      C2 8305   3.026   0.699   5.190  0.1411 -0.6376 -0.3315
  362DG      H3 8306   3.176   1.426   5.435 -2.9411 -1.6001 -0.2245
  362DG      H4 8307   3.202   1.518   5.297 -1.9319 -0.2657  0.0319
  362DG      H5 8308   3.318   1.391   5.345 -0.6238 -0.6729 -1.2653
  362DG      H6 8309   3.040   0.673   5.295  1.2497 -0.7760 -0.5030
  362DG      H7 8310   2.971   0.624   5.133 -0.8676 -0.7737  0.7923
  362DG      H8 8311   3.125   0.691   5.145  0.1390 -0.5853 -0.3461
  362DG      O9 8312   3.142   1.329   5.254  0.4410 -0.2541 -0.6959
  362DG     O10 8313   2.970   0.836   5.191 -0.4097  0.5039 -0.7929
  362DG     C11 8314   3.006   1.298   5.290  0.4479 -0.1026  0.1723
  362DG     C12 8315   2.990   0.890   5.064  0.0336 -0.0379  0.0340
  362DG     H13 8316   2.948   1.382   5.328  1.7367  0.7471  0.3458
  362DG     H14 8317   3.011   1.231   5.376 -0.2755  0.0469  0.3353
  362DG     H15 8318   2.963   0.827   4.979  0.4401 -1.2656  0.7884
  362DG     H16 8319   3.098   0.898   5.048  0.0867 -0.5028  0.1443
  362DG     C17 8320   2.942   1.240   5.166 -0.2353  0.3264 -0.3273
  362DG     C18 8321   2.933   1.031   5.057  0.7878 -0.5039 -0.0195
  362DG     O19 8322   2.990   1.103   5.158  0.4998 -0.6020 -0.9725
  362DG     H20 8323   2.953   1.298   5.074 -0.2489 -2.2064 -2.0430
  362DG     H21 8324   2.835   1.234   5.182  0.0604 -0.9112  1.4019
  362DG     H22 8325   2.951   1.079   4.961 -3.2756  2.0404  0.2260
  362DG     H23 8326   2.825   1.026   5.076  0.4830  2.6780 -0.2548
  363DG      C1 8327   3.751   4.826   3.757 -0.4278  0.4149 -0.3624
  363DG      C2 8328   4.143   5.214   4.319  0.8315  0.3409  0.7200
  363DG      H3 8329   3.733   4.767   3.847 -0.1614  0.6584 -0.1440
  363DG      H4 8330   3.775   4.760   3.674 -1.4762 -1.3931  0.7122
  363DG      H5 8331   3.663   4.883   3.728 -0.9941 -0.3534 -0.1650
  363DG      H6 8332   4.165   5.320   4.332 -0.0542  0.7701 -0.9282
  363DG      H7 8333   4.035   5.209   4.338  0.6266  3.9400  1.0801
  363DG      H8 8334   4.192   5.155   4.396  2.2219  1.3571  0.6365
  363DG      O9 8335   3.852   4.924   3.786 -0.1779 -0.3079  0.1929
  363DG     O10 8336   4.189   5.173   4.192  0.4686  0.1674 -0.3460
  363DG     C11 8337   3.979   4.870   3.811 -0.8018 -0.2054 -0.0950
  363DG     C12 8338   4.138   5.245   4.081 -0.7430  0.4596  0.2057
  363DG     H13 8339   4.012   4.783   3.755  0.5507  0.1371  0.1293
  363DG     H14 8340   3.968   4.833   3.913 -0.8481  0.2059  0.0542
  363DG     H15 8341   4.198   5.336   4.079  0.0857 -0.0653 -1.8361
  363DG     H16 8342   4.038   5.286   4.096 -0.1314  1.5032  1.6499
  363DG     C17 8343   4.099   4.973   3.825  0.5364 -0.8859  0.1831
  363DG     C18 8344   4.165   5.164   3.951 -0.4903 -0.3992  0.5383
  363DG     O19 8345   4.076   5.056   3.936 -0.0948  0.0114 -0.6052
  363DG     H20 8346   4.098   5.020   3.727  2.7944 -1.3903 -0.1277
  363DG     H21 8347   4.192   4.918   3.840  0.3203 -1.0696  0.9041
  363DG     H22 8348   4.147   5.240   3.875 -1.9195  1.8033  2.8860
  363DG     H23 8349   4.269   5.133   3.957  0.2146  1.6679 -0.1254
  364DG      C1 8350   3.227   1.222   4.903 -0.3328  0.6090  0.3666
  364DG      C2 8351   3.786   1.304   5.353 -0.1024  0.0086  0.2557
  364DG      H3 8352   3.278   1.186   4.813 -1.7855  0.2894 -0.3563
  364DG      H4 8353   3.140   1.287   4.891 -1.0689  0.0688  2.3140
  364DG      H5 8354   3.178   1.140   4.955 -1.8218  2.7473  2.5802
  364DG      H6 8355   3.868   1.320   5.283  0.4920 -2.4213  0.3351
  364DG      H7 8356   3.808   1.356   5.446  2.8688 -0.8704  0.1217
  364DG      H8 8357   3.761   1.200   5.374  0.5892 -0.6090 -1.7718
  364DG      O9 8358   3.309   1.300   4.988  0.7859  0.0650  0.5005
  364DG     O10 8359   3.667   1.366   5.296  0.4626 -0.0192 -0.1646
  364DG     C11 8360   3.354   1.419   4.923 -0.4729  0.1858  0.2000
  364DG     C12 8361   3.680   1.509   5.280 -0.2364 -0.1200  0.3005
  364DG     H13 8362   3.280   1.457   4.852  2.3983  0.2854 -3.0348
  364DG     H14 8363   3.440   1.397   4.860  0.4818  0.7620  1.2657
  364DG     H15 8364   3.769   1.522   5.219 -1.2208 -0.0121 -1.1725
  364DG     H16 8365   3.687   1.562   5.374  3.1337 -2.7045  1.7079
  364DG     C17 8366   3.405   1.521   5.025  1.0055  0.1713  0.1259
  364DG     C18 8367   3.556   1.562   5.202  0.1709 -0.4109  0.9083
  364DG     O19 8368   3.514   1.468   5.105  0.4541  0.0119 -0.1661
  364DG     H20 8369   3.316   1.528   5.088 -0.3139 -0.8083 -1.5154
  364DG     H21 8370   3.430   1.619   4.983 -0.1106 -0.3065 -1.7905
  364DG     H22 8371   3.476   1.589   5.271 -0.1359  1.6298 -0.1481
  364DG     H23 8372   3.585   1.658   5.159  1.3216 -0.8360  0.6999
  365DG      C1 8373   2.072   3.869   5.199  0.7429 -0.5172 -0.0950
  365DG      C2 8374   1.360   3.735   5.576  0.1285 -0.7003 -0.9908
  365DG      H3 8375   2.023   3.919   5.115 -2.2546 -1.9145  0.6758
  365DG      H4 8376   2.167   3.823   5.172 -1.0528 -4.0729 -0.9422
  365DG      H5 8377   2.081   3.955   5.266  0.1125  0.1131 -0.7916
  365DG      H6 8378   1.338   3.671   5.491 -0.8170 -1.6800 -0.0499
  365DG      H7 8379   1.330   3.672   5.659  0.2870 -0.3262 -0.6461
  365DG      H8 8380   1.296   3.824   5.574  1.0557 -0.0078 -0.4825
  365DG      O9 8381   1.973   3.782   5.243  0.2898  0.0094 -0.3113
  365DG     O10 8382   1.503   3.762   5.590  0.1113  0.4878  0.5282
  365DG     C11 8383   1.979   3.740   5.372 -0.4318  0.3035 -0.1276
  365DG     C12 8384   1.547   3.868   5.501  0.1114 -0.4348 -0.4380
  365DG     H13 8385   1.984   3.823   5.443 -2.4783  0.6316 -0.3038
  365DG     H14 8386   2.052   3.662   5.395 -0.4549  0.5469  0.8210
  365DG     H15 8387   1.499   3.961   5.533  0.5788 -0.3643  0.0768
  365DG     H16 8388   1.509   3.836   5.404 -3.9285 -2.8025  1.6012
  365DG     C17 8389   1.845   3.679   5.411  0.1305  0.1121  0.7115
  365DG     C18 8390   1.695   3.866   5.487 -0.0235  0.4177 -0.3622
  365DG     O19 8391   1.730   3.756   5.391  0.3959  0.1928  0.4219
  365DG     H20 8392   1.840   3.644   5.514 -1.4654  1.1459  1.0175
  365DG     H21 8393   1.834   3.589   5.351  0.6444  0.2598  0.3818
  365DG     H22 8394   1.729   3.957   5.438  1.8949 -0.8011 -1.4400
  365DG     H23 8395   1.738   3.848   5.586 -0.7304 -0.3622 -0.1889
  366DG      C1 8396   0.242   5.259   5.433 -0.6756 -0.1436  0.0631
  366DG      C2 8397   0.604   5.781   5.232 -0.1933 -0.2910 -0.5280
  366DG      H3 8398   0.170   5.238   5.512 -0.3734  2.4019  1.1020
  366DG      H4 8399   0.334   5.201   5.438  0.2516  1.1517 -1.1534
  366DG      H5 8400   0.194   5.244   5.336 -1.3139  0.3517  0.3027
  366DG      H6 8401   0.675   5.702   5.256  1.1287  0.4630 -1.7811
  366DG      H7 8402   0.580   5.764   5.127  0.0419  1.1919 -0.8445
  366DG      H8 8403   0.660   5.874   5.234  0.0332 -0.4263 -0.4858
  366DG      O9 8404   0.268   5.394   5.444 -0.3479  1.1183  0.1208
  366DG     O10 8405   0.490   5.781   5.313 -0.2380 -0.1973  0.2071
  366DG     C11 8406   0.146   5.467   5.450  0.2122 -0.0203 -0.0004
  366DG     C12 8407   0.375   5.845   5.255  0.2966  0.3684  0.3382
  366DG     H13 8408   0.078   5.437   5.529  0.8700 -0.8749  0.2577
  366DG     H14 8409   0.078   5.462   5.365 -1.6351  2.6098  1.1976
  366DG     H15 8410   0.348   5.787   5.167  0.0220 -2.8524  2.3677
  366DG     H16 8411   0.392   5.951   5.235 -1.2747  0.7971  1.1257
  366DG     C17 8412   0.164   5.615   5.462  0.1490 -0.0292 -0.5110
  366DG     C18 8413   0.263   5.808   5.355  0.3279  0.5405 -0.1694
  366DG     O19 8414   0.270   5.665   5.381  0.5643  0.2291 -0.4488
  366DG     H20 8415   0.186   5.637   5.566 -1.1482 -0.6642 -0.0844
  366DG     H21 8416   0.075   5.668   5.429  0.6480  1.6220  0.7034
  366DG     H22 8417   0.282   5.845   5.456 -0.1173  0.5703 -0.0934
  366DG     H23 8418   0.164   5.847   5.329 -0.7244  0.1255  2.8105
  367DG      C1 8419   2.108   5.032   3.341 -1.0913 -0.0918  0.2158
  367DG      C2 8420   1.864   4.339   3.521  0.0086  0.1593  0.0139
  367DG      H3 8421   2.177   4.985   3.411 -2.4228  1.2443  2.5770
  367DG      H4 8422   2.066   5.117   3.395 -0.5405  0.5666 -0.3632
  367DG      H5 8423   2.156   5.089   3.262 -1.6488  2.0773  1.3552
  367DG      H6 8424   1.807   4.370   3.608 -1.4585 -0.8570 -0.5383
  367DG      H7 8425   1.805   4.261   3.471 -1.0972  0.7529  0.3640
  367DG      H8 8426   1.958   4.305   3.565  0.3455 -0.0925 -0.8569
  367DG      O9 8427   2.007   4.941   3.302 -0.5170  0.2729 -0.2375
  367DG     O10 8428   1.879   4.442   3.424  0.2635  0.3515 -0.2145
  367DG     C11 8429   2.059   4.845   3.210  0.1635  0.6499 -0.4260
  367DG     C12 8430   1.765   4.506   3.369  0.2617  0.4552 -0.0446
  367DG     H13 8431   2.138   4.787   3.258 -0.9539  1.2098  2.3174
  367DG     H14 8432   2.108   4.901   3.130  0.4267  0.5912 -0.3070
  367DG     H15 8433   1.733   4.573   3.449 -0.2661  0.7921 -0.5388
  367DG     H16 8434   1.678   4.443   3.354 -0.6472  1.7294 -0.2666
  367DG     C17 8435   1.953   4.740   3.158 -0.1861 -0.4337  0.3119
  367DG     C18 8436   1.798   4.595   3.250  0.3874 -0.8230  0.1376
  367DG     O19 8437   1.888   4.695   3.278 -0.3786 -0.4101 -0.5881
  367DG     H20 8438   1.999   4.665   3.094 -1.0336  0.1537 -1.0240
  367DG     H21 8439   1.880   4.792   3.096 -0.2202  0.1631  0.8320
  367DG     H22 8440   1.817   4.526   3.168 -0.4875  0.5739 -1.2926
  367DG     H23 8441   1.717   4.655   3.210 -1.7594 -3.0104  0.9346
  368DG      C1 8442   3.319   0.135   5.072  0.5027 -0.4322  0.3752
  368DG      C2 8443   2.503   0.246   5.418  0.5292 -0.6159 -0.5364
  368DG      H3 8444   3.367   0.127   4.975  1.2728 -1.0397  0.7924
  368DG      H4 8445   3.339   0.050   5.138  2.7575 -0.2367  0.0332
  368DG      H5 8446   3.377   0.216   5.118  0.4701 -0.4225  0.3989
  368DG      H6 8447   2.572   0.214   5.497  0.5135  2.0361  0.6519
  368DG      H7 8448   2.461   0.345   5.432  0.6217 -0.7181  0.5540
  368DG      H8 8449   2.432   0.164   5.412  1.3186 -1.6001  1.9825
  368DG      O9 8450   3.180   0.152   5.036  0.2542 -0.1688  0.1309
  368DG     O10 8451   2.577   0.241   5.302 -0.0430 -0.5067 -0.4270
  368DG     C11 8452   3.083   0.175   5.136  0.1593 -0.8024  0.0802
  368DG     C12 8453   2.651   0.121   5.278  0.3378  0.3331  0.3984
  368DG     H13 8454   3.107   0.264   5.194 -0.3961  0.3276 -1.3885
  368DG     H14 8455   3.083   0.085   5.199 -0.5731 -0.8991 -0.0536
  368DG     H15 8456   2.583   0.036   5.284  0.4309  0.3113  1.3132
  368DG     H16 8457   2.721   0.099   5.359  1.9987  1.1346 -0.7522
  368DG     C17 8458   2.949   0.197   5.064 -0.5707 -0.0325 -0.0688
  368DG     C18 8459   2.736   0.136   5.152 -0.5242  0.2214 -0.0873
  368DG     O19 8460   2.857   0.210   5.173  0.5915 -0.4022 -0.4682
  368DG     H20 8461   2.928   0.114   4.997 -3.1421  0.5877 -0.1122
  368DG     H21 8462   2.952   0.294   5.014  2.8138  0.0381  0.0470
  368DG     H22 8463   2.766   0.032   5.137  0.1576  0.4557 -0.4011
  368DG     H23 8464   2.664   0.175   5.081 -0.4346  2.6986  1.0988
  369DG      C1 8465   4.629   1.655   2.643  0.2977  0.4825  0.1707
  369DG      C2 8466   4.723   1.047   2.370  0.7413  0.8143  0.0222
  369DG      H3 8467   4.587   1.755   2.632 -0.7224 -0.0525 -0.9553
  369DG      H4 8468   4.722   1.667   2.700  0.4826  3.5680 -0.5998
  369DG      H5 8469   4.557   1.592   2.695  0.0479  0.5190 -0.1314
  369DG      H6 8470   4.765   0.974   2.301 -0.8574  1.0380 -1.2431
  369DG      H7 8471   4.785   1.049   2.460 -0.5347  0.2935  0.9337
  369DG      H8 8472   4.623   1.008   2.388  0.3156  1.3822 -0.9840
  369DG      O9 8473   4.646   1.604   2.510  0.5720  0.6258  0.1991
  369DG     O10 8474   4.699   1.173   2.321  0.3307 -0.3977  0.1228
  369DG     C11 8475   4.758   1.658   2.456 -0.9934  0.8863  0.2554
  369DG     C12 8476   4.816   1.231   2.260  0.2129 -0.2231 -0.0402
  369DG     H13 8477   4.845   1.640   2.519  0.1208  1.2456 -1.1428
  369DG     H14 8478   4.752   1.766   2.442  0.5879  0.7486 -2.1153
  369DG     H15 8479   4.839   1.170   2.173  1.3870  1.4501 -0.9455
  369DG     H16 8480   4.901   1.234   2.328 -0.2136  0.1178  0.4844
  369DG     C17 8481   4.771   1.599   2.312  0.0515  0.3858 -0.2812
  369DG     C18 8482   4.800   1.378   2.218 -0.0608 -0.3437  0.0083
  369DG     O19 8483   4.773   1.457   2.336 -0.2659 -0.6498 -0.0390
  369DG     H20 8484   4.865   1.628   2.265  1.0158 -1.2511  0.5381
  369DG     H21 8485   4.685   1.626   2.251 -2.5871 -1.0937  2.5110
  369DG     H22 8486   4.887   1.419   2.168 -0.5621 -0.1009 -0.6881
  369DG     H23 8487   4.711   1.385   2.155 -2.3578 -2.3932  2.7361
  370DG      C1 8488   5.229   4.877   2.770 -0.2366  0.3820 -0.1784
  370DG      C2 8489   4.963   4.266   2.843 -0.1352 -0.0544 -0.5719
  370DG      H3 8490   5.176   4.908   2.860  1.7671 -1.0411  1.5812
  370DG      H4 8491   5.178   4.920   2.683 -0.0595  0.8438 -0.0544
  370DG      H5 8492   5.328   4.919   2.784  0.1004 -0.2879 -0.5137
  370DG      H6 8493   4.946   4.160   2.863  3.6013 -0.4168  1.7159
  370DG      H7 8494   4.903   4.316   2.919  1.3237 -0.2297  0.7469
  370DG      H8 8495   4.926   4.292   2.744 -1.2154 -0.4066 -0.2725
  370DG      O9 8496   5.242   4.738   2.765 -0.0339  0.1736 -0.0187
  370DG     O10 8497   5.098   4.296   2.863 -0.1291 -0.2300  0.2309
  370DG     C11 8498   5.307   4.679   2.647  0.7410  0.4021 -0.6396
  370DG     C12 8499   5.180   4.237   2.762 -0.5103 -0.6929 -0.0201
  370DG     H13 8500   5.390   4.737   2.608 -0.5223  2.3218 -0.6021
  370DG     H14 8501   5.228   4.672   2.572  0.1449  0.9850 -0.0805
  370DG     H15 8502   5.134   4.230   2.663 -0.8637  2.0946 -0.1165
  370DG     H16 8503   5.215   4.138   2.792  0.0739 -0.7778 -0.9275
  370DG     C17 8504   5.358   4.540   2.681  0.3561 -0.6078 -0.0738
  370DG     C18 8505   5.308   4.323   2.744  0.9200  0.8847 -0.4533
  370DG     O19 8506   5.252   4.452   2.713  0.0088 -0.3146 -0.4380
  370DG     H20 8507   5.429   4.541   2.763 -2.3054  1.1917  2.4261
  370DG     H21 8508   5.405   4.505   2.589  0.0025  1.6161 -1.1937
  370DG     H22 8509   5.357   4.321   2.842 -1.7880  0.8030  1.0099
  370DG     H23 8510   5.378   4.271   2.679  3.0446  0.8718  1.6963
  371DG      C1 8511   1.824   0.070   4.605 -0.4765 -0.3653 -0.2788
  371DG      C2 8512   1.951   0.761   4.418  0.4026 -0.4581 -1.1301
  371DG      H3 8513   1.754  -0.011   4.625 -0.3707  0.2355  3.1288
  371DG      H4 8514   1.859   0.137   4.684  0.8865  1.7457 -2.5372
  371DG      H5 8515   1.916   0.029   4.564 -0.9136 -0.6417 -0.9783
  371DG      H6 8516   2.043   0.704   4.423  0.2293 -0.6832 -0.3960
  371DG      H7 8517   1.946   0.809   4.320  2.0392  1.0251 -0.5291
  371DG      H8 8518   1.959   0.833   4.499  0.5044  0.3937 -1.8804
  371DG      O9 8519   1.767   0.166   4.515  0.1971 -0.6012 -0.4135
  371DG     O10 8520   1.841   0.676   4.459  1.3629  0.1534  0.2771
  371DG     C11 8521   1.646   0.218   4.572 -0.7292  0.6053 -0.4494
  371DG     C12 8522   1.793   0.606   4.342  0.4147  0.1195 -0.4946
  371DG     H13 8523   1.662   0.265   4.669 -0.0308  0.4419 -0.4818
  371DG     H14 8524   1.574   0.137   4.584 -0.0052  0.0162 -0.0345
  371DG     H15 8525   1.865   0.533   4.304  0.2488  0.6477 -1.8962
  371DG     H16 8526   1.783   0.668   4.252  3.7395  0.0676 -1.0200
  371DG     C17 8527   1.594   0.325   4.482  0.0589 -0.5352 -0.0033
  371DG     C18 8528   1.667   0.523   4.366  0.4735 -0.1777  0.2315
  371DG     O19 8529   1.683   0.435   4.472 -0.6524  0.5387 -0.1817
  371DG     H20 8530   1.506   0.363   4.533  0.6764  0.3977  0.3922
  371DG     H21 8531   1.582   0.272   4.388  1.1447 -1.3477  0.2931
  371DG     H22 8532   1.579   0.584   4.383  0.7815  0.1803  0.5591
  371DG     H23 8533   1.641   0.473   4.273  1.3656 -1.4542  0.6424
  372DG      C1 8534   4.086   2.767   2.215 -0.3435 -0.4384  0.1556
  372DG      C2 8535   3.652   2.500   2.843 -0.0900  0.3283  0.3185
  372DG      H3 8536   4.146   2.688   2.259  1.1651  0.4957 -0.1512
  372DG      H4 8537   4.144   2.846   2.166 -1.2799  1.4707  1.9470
  372DG      H5 8538   4.018   2.724   2.142 -2.3027 -1.4924  2.4709
  372DG      H6 8539   3.572   2.573   2.840 -1.0684 -0.6968  0.8703
  372DG      H7 8540   3.632   2.434   2.759  1.6141 -2.6674  2.0930
  372DG      H8 8541   3.656   2.456   2.943 -1.7668  0.9915  0.6945
  372DG      O9 8542   4.010   2.840   2.313 -0.0039  0.1715 -0.1540
  372DG     O10 8543   3.775   2.553   2.822 -0.2059  0.1963  0.4889
  372DG     C11 8544   4.071   2.884   2.434  0.3095 -0.2118 -0.2106
  372DG     C12 8545   3.788   2.640   2.707 -0.1914  0.6683 -0.4371
  372DG     H13 8546   4.027   2.977   2.470  0.3534 -1.2643  2.8427
  372DG     H14 8547   4.176   2.908   2.416  0.6162 -0.6520  0.9365
  372DG     H15 8548   3.718   2.723   2.710 -1.6156 -0.5175  1.2045
  372DG     H16 8549   3.757   2.591   2.614 -1.3907 -0.8419  0.6986
  372DG     C17 8550   4.079   2.782   2.548  0.5830  0.6028 -0.4562
  372DG     C18 8551   3.935   2.658   2.695 -0.0583 -0.4031 -0.5379
  372DG     O19 8552   3.951   2.732   2.571 -0.2143 -0.1686 -0.1904
  372DG     H20 8553   4.132   2.820   2.635 -0.3158  2.2434 -0.5763
  372DG     H21 8554   4.140   2.698   2.517 -0.3735 -1.9857  3.7650
  372DG     H22 8555   3.973   2.709   2.784 -0.0373 -0.8684 -0.2812
  372DG     H23 8556   3.994   2.567   2.686  0.2167 -0.0308 -3.6991
  373DG      C1 8557   2.799   2.826   0.041  0.0941 -0.0353  0.2507
  373DG      C2 8558   2.426   2.769   0.519 -0.1990  0.0475  0.0423
  373DG      H3 8559   2.847   2.760   0.114  0.0267 -0.1150  0.2237
  373DG      H4 8560   2.811   2.926   0.081 -3.9383  0.0537  1.6910
  373DG      H5 8561   2.860   2.829  -0.049 -1.5573 -1.0855 -0.9690
  373DG      H6 8562   2.346   2.726   0.459 -0.1786  0.5800 -0.3724
  373DG      H7 8563   2.499   2.693   0.545  0.2745  0.2003 -0.8061
  373DG      H8 8564   2.384   2.818   0.607  1.7069  1.6294  0.1211
  373DG      O9 8565   2.658   2.793   0.024 -0.3902 -0.0976 -0.3728
  373DG     O10 8566   2.486   2.871   0.439  0.5236  0.6037  0.1588
  373DG     C11 8567   2.591   2.891  -0.046  0.4982  0.3467  0.6839
  373DG     C12 8568   2.392   2.967   0.380 -0.8638 -0.0998  0.2617
  373DG     H13 8569   2.506   2.842  -0.094  0.4889  1.8737 -0.9550
  373DG     H14 8570   2.642   2.921  -0.137 -0.6552 -1.6071 -0.6903
  373DG     H15 8571   2.357   3.034   0.460  0.6887 -1.0669  1.8369
  373DG     H16 8572   2.294   2.926   0.357 -1.0556  0.1148  0.6657
  373DG     C17 8573   2.552   3.007   0.052 -0.1107  0.5463  0.2644
  373DG     C18 8574   2.457   3.053   0.262  0.3443  0.7352 -0.8806
  373DG     O19 8575   2.496   2.952   0.169 -0.3867 -0.5151 -0.4239
  373DG     H20 8576   2.476   3.074   0.011 -1.7285 -0.6506  1.1861
  373DG     H21 8577   2.638   3.066   0.083  0.7647 -0.3357 -0.4336
  373DG     H22 8578   2.379   3.121   0.226 -0.1542  0.4801 -0.3045
  373DG     H23 8579   2.544   3.107   0.300  0.0887  1.3670 -1.1687
  374DG      C1 8580   4.676   0.511   5.095 -0.1427  0.0629 -0.5948
  374DG      C2 8581   5.465   0.630   4.839  0.3806 -0.8360  0.0573
  374DG      H3 8582   4.576   0.534   5.132  0.0075 -1.5155  0.9340
  374DG      H4 8583   4.688   0.407   5.125  0.0850  0.4405  0.6893
  374DG      H5 8584   4.656   0.516   4.988 -0.5105 -3.4755 -0.7958
  374DG      H6 8585   5.421   0.606   4.742 -0.7004  1.8268 -0.1804
  374DG      H7 8586   5.528   0.719   4.837  1.3990 -1.4698 -3.7437
  374DG      H8 8587   5.531   0.551   4.876  3.3693  1.5437  0.1332
  374DG      O9 8588   4.760   0.616   5.139  0.6003  0.3836 -0.3931
  374DG     O10 8589   5.362   0.650   4.931 -0.5586 -0.1685 -0.0234
  374DG     C11 8590   4.888   0.587   5.096  0.2428 -0.8720  0.0549
  374DG     C12 8591   5.294   0.772   4.923 -0.3778  0.0914  0.2231
  374DG     H13 8592   4.892   0.568   4.989  4.2898 -0.0953 -0.0762
  374DG     H14 8593   4.931   0.504   5.151  1.1332 -0.4925 -0.0539
  374DG     H15 8594   5.244   0.782   4.827  0.7129  0.4163 -0.3348
  374DG     H16 8595   5.364   0.853   4.941  0.4009 -0.2643 -1.0466
  374DG     C17 8596   4.985   0.704   5.122 -0.6459  0.0773  0.6784
  374DG     C18 8597   5.190   0.785   5.028 -0.2153 -0.5240 -0.4066
  374DG     O19 8598   5.092   0.685   5.022  0.2500  0.1593 -0.4650
  374DG     H20 8599   5.024   0.713   5.224  2.5237  0.1636 -0.4356
  374DG     H21 8600   4.929   0.791   5.088 -2.5141 -1.3255 -0.0519
  374DG     H22 8601   5.244   0.786   5.123 -1.5738  1.4197  0.4057
  374DG     H23 8602   5.158   0.889   5.024  0.7039 -0.2650 -2.0643
  375DG      C1 8603   1.124   2.800   0.661  0.2883 -0.5236 -0.0732
  375DG      C2 8604   1.677   3.207   0.570 -0.6087 -0.0325 -0.1953
  375DG      H3 8605   1.049   2.786   0.740  1.4035  0.0518  1.1270
  375DG      H4 8606   1.189   2.886   0.672  1.7009 -1.3738 -1.4340
  375DG      H5 8607   1.183   2.709   0.668 -1.8559 -1.8947  3.7302
  375DG      H6 8608   1.705   3.173   0.669  1.5389  1.2757 -0.2987
  375DG      H7 8609   1.749   3.169   0.497 -1.2108  0.8835 -1.2991
  375DG      H8 8610   1.667   3.315   0.578 -1.1866 -0.0608 -0.4640
  375DG      O9 8611   1.056   2.809   0.539  0.5762 -0.1413 -0.0358
  375DG     O10 8612   1.559   3.153   0.518  0.2748 -0.0668 -0.7538
  375DG     C11 8613   1.142   2.818   0.430  0.6790  0.0865 -0.5248
  375DG     C12 8614   1.452   3.166   0.606 -0.7737  0.6219 -0.0158
  375DG     H13 8615   1.091   2.782   0.341  1.9270 -1.8231 -0.5325
  375DG     H14 8616   1.233   2.757   0.434  1.0293  0.6119 -0.3526
  375DG     H15 8617   1.433   3.266   0.643  0.2738  0.8510 -0.0605
  375DG     H16 8618   1.472   3.095   0.687 -1.4394 -1.9003 -1.9066
  375DG     C17 8619   1.180   2.969   0.413 -0.0247 -0.1525 -0.0218
  375DG     C18 8620   1.317   3.132   0.536  0.0359  0.4014  0.4716
  375DG     O19 8621   1.290   2.994   0.502  0.5057  0.1456 -0.1665
  375DG     H20 8622   1.097   3.037   0.430  0.2580  0.6936 -1.8365
  375DG     H21 8623   1.195   2.982   0.306  0.9110 -0.2615  0.0903
  375DG     H22 8624   1.243   3.187   0.593 -1.1883 -0.1049 -0.5714
  375DG     H23 8625   1.325   3.182   0.439 -2.1437  0.9373  0.5210
  376DG      C1 8626   3.665   4.698   2.977 -0.3403  0.1336 -0.8206
  376DG      C2 8627   3.409   5.029   3.508 -0.3689  0.4919 -0.4461
  376DG      H3 8628   3.589   4.658   2.910 -0.4406 -1.7225  0.3497
  376DG      H4 8629   3.750   4.633   2.958 -0.2904  0.3857 -1.5208
  376DG      H5 8630   3.693   4.801   2.956  0.1844  0.1440 -0.0762
  376DG      H6 8631   3.375   5.065   3.411  0.2325  2.7188  0.1083
  376DG      H7 8632   3.330   5.038   3.583  1.1938  2.4182  1.0870
  376DG      H8 8633   3.484   5.102   3.539  2.4343 -0.9061 -3.3205
  376DG      O9 8634   3.613   4.683   3.111 -0.5964  0.2251 -0.1605
  376DG     O10 8635   3.469   4.900   3.496  0.2782  0.4526  0.1256
  376DG     C11 8636   3.547   4.558   3.141 -0.5685 -0.3893  0.1707
  376DG     C12 8637   3.373   4.797   3.512 -0.0230  0.1854  0.6606
  376DG     H13 8638   3.621   4.483   3.113  0.5039  0.3881  0.8251
  376DG     H14 8639   3.469   4.539   3.068 -0.8143  0.5058  0.1842
  376DG     H15 8640   3.276   4.796   3.461 -0.6600 -1.4917  1.7979
  376DG     H16 8641   3.358   4.806   3.620 -1.0110  4.5168  0.3366
  376DG     C17 8642   3.509   4.538   3.288  0.3024 -0.1176 -0.2282
  376DG     C18 8643   3.437   4.663   3.481 -0.3893  0.1046  0.4426
  376DG     O19 8644   3.460   4.665   3.335 -0.0400  0.3521  0.3085
  376DG     H20 8645   3.601   4.512   3.340 -0.4755  1.2020  1.9002
  376DG     H21 8646   3.425   4.468   3.287 -0.3675  0.5034 -4.2060
  376DG     H22 8647   3.533   4.662   3.533  0.3981  3.6808 -0.6827
  376DG     H23 8648   3.381   4.578   3.520  0.1672  0.0346  1.1241
  377DG      C1 8649   3.276   2.999   1.106 -0.1983 -0.7959  0.3723
  377DG      C2 8650   2.635   2.788   1.493 -0.1506  0.2727  0.9899
  377DG      H3 8651   3.331   3.056   1.181  0.2937  1.3261 -1.4863
  377DG      H4 8652   3.241   3.068   1.029  0.8517 -0.7743 -0.0955
  377DG      H5 8653   3.346   2.935   1.054  0.1948 -0.3092  0.2882
  377DG      H6 8654   2.599   2.784   1.595  0.9621  0.1913  1.3844
  377DG      H7 8655   2.564   2.839   1.428 -1.3392 -0.7482  1.4507
  377DG      H8 8656   2.633   2.688   1.450 -0.7448  0.7059 -0.0428
  377DG      O9 8657   3.174   2.921   1.169  0.3131  0.0776  0.4858
  377DG     O10 8658   2.767   2.841   1.481  0.0727  0.2851  0.0670
  377DG     C11 8659   3.210   2.786   1.199 -0.7584 -0.5260  0.6249
  377DG     C12 8660   2.867   2.752   1.533  0.1757 -0.0756  0.4467
  377DG     H13 8661   3.285   2.787   1.279  0.3889  0.2443 -0.4313
  377DG     H14 8662   3.252   2.737   1.112  0.2196 -2.5619  2.1466
  377DG     H15 8663   2.818   2.685   1.604 -1.1465  0.6191  0.2282
  377DG     H16 8664   2.950   2.808   1.576  1.6865  1.3859 -3.8495
  377DG     C17 8665   3.085   2.705   1.239 -0.0650  0.1846 -0.5867
  377DG     C18 8666   2.931   2.677   1.414 -0.1661 -0.6780 -0.7460
  377DG     O19 8667   3.025   2.762   1.354  0.5228  0.2336 -0.0628
  377DG     H20 8668   3.130   2.607   1.256 -0.1748  0.3895  0.9655
  377DG     H21 8669   3.019   2.701   1.152 -1.6410  1.0595  0.5381
  377DG     H22 8670   2.984   2.591   1.455 -1.1169 -0.4717  1.0020
  377DG     H23 8671   2.863   2.637   1.338  1.3996 -2.5603 -1.2284
  378DG      C1 8672   4.632   1.093   4.790 -0.1026 -0.5314 -0.6748
  378DG      C2 8673   4.861   0.968   5.464  0.2930 -0.4134 -0.4287
  378DG      H3 8674   4.624   1.108   4.682 -0.5640  0.6850 -0.4961
  378DG      H4 8675   4.587   1.178   4.841  1.2830 -0.5582  0.6631
  378DG      H5 8676   4.583   1.000   4.816 -1.8983  0.2180 -1.1898
  378DG      H6 8677   4.830   1.034   5.545 -1.1198 -1.4809 -0.0581
  378DG      H7 8678   4.798   0.879   5.463 -0.5543  0.1623  0.1813
  378DG      H8 8679   4.954   0.924   5.499  0.4472  2.5711  3.7100
  378DG      O9 8680   4.773   1.087   4.815  0.3891  0.3003  0.0300
  378DG     O10 8681   4.873   1.025   5.336 -0.1548 -0.3297  0.0449
  378DG     C11 8682   4.813   1.066   4.950 -0.3136 -0.7245 -0.6006
  378DG     C12 8683   4.962   1.140   5.343  0.0987 -0.6586  0.1174
  378DG     H13 8684   4.809   0.961   4.978  0.2834 -0.5489  0.1753
  378DG     H14 8685   4.748   1.125   5.015 -0.6752  0.3022 -1.8553
  378DG     H15 8686   5.069   1.132   5.358  0.1400 -0.3814 -0.0187
  378DG     H16 8687   4.916   1.219   5.403  1.3558 -0.4036  0.7678
  378DG     C17 8688   4.953   1.125   4.975 -0.2039 -0.0292  1.0738
  378DG     C18 8689   4.945   1.197   5.198 -0.0986 -0.1728 -0.3987
  378DG     O19 8690   4.993   1.102   5.112 -1.0777  0.0507 -0.3649
  378DG     H20 8691   4.961   1.230   4.949  0.4112 -0.0405  1.1982
  378DG     H21 8692   5.025   1.075   4.910 -0.7234 -0.5678  0.9094
  378DG     H22 8693   4.838   1.192   5.177 -0.2952 -1.9916  0.8116
  378DG     H23 8694   4.991   1.296   5.200  1.5958 -0.9439  0.5246
  379DG      C1 8695   4.237   3.742   3.605 -0.1120 -0.2818 -0.1905
  379DG      C2 8696   3.831   4.275   3.439  0.4056  0.6788 -0.1726
  379DG      H3 8697   4.266   3.670   3.529  1.2640 -1.4183  1.3449
  379DG      H4 8698   4.140   3.700   3.632  0.6268 -2.1875 -0.3485
  379DG      H5 8699   4.310   3.730   3.684  1.3983  1.5172 -1.2258
  379DG      H6 8700   3.830   4.382   3.418 -0.2034  0.9458  1.0872
  379DG      H7 8701   3.780   4.244   3.348 -4.0489  1.4858  1.7963
  379DG      H8 8702   3.783   4.263   3.536  3.6547  0.8778  1.6161
  379DG      O9 8703   4.231   3.879   3.557 -0.3858  0.1439  0.0680
  379DG     O10 8704   3.962   4.231   3.464  0.2987  0.2465 -0.1888
  379DG     C11 8705   4.349   3.916   3.485  1.0454 -0.1554  0.2259
  379DG     C12 8706   4.062   4.297   3.384  0.2102  0.3183  0.3043
  379DG     H13 8707   4.325   3.864   3.392  0.8519  1.0252 -0.3992
  379DG     H14 8708   4.442   3.881   3.528  1.2735 -1.4603 -1.2450
  379DG     H15 8709   4.051   4.405   3.397  1.5031  0.4146  0.7244
  379DG     H16 8710   4.050   4.278   3.278  1.7750 -0.6987  0.2768
  379DG     C17 8711   4.356   4.073   3.472 -0.8708  0.5538  0.5778
  379DG     C18 8712   4.212   4.262   3.434 -0.5454  0.2477 -0.0493
  379DG     O19 8713   4.234   4.124   3.429 -0.0794 -0.2055 -0.4399
  379DG     H20 8714   4.430   4.080   3.392  0.1491 -3.6376  0.9118
  379DG     H21 8715   4.395   4.110   3.567 -0.2215  0.7229  0.2548
  379DG     H22 8716   4.285   4.303   3.364  1.3072 -2.1166  0.3737
  379DG     H23 8717   4.232   4.320   3.524  2.0316 -2.0126  0.9624
  380DG      C1 8718   1.220   1.393   1.585  0.1291 -0.3216 -0.2358
  380DG      C2 8719   0.587   1.503   1.400 -0.6962 -0.4540  0.0070
  380DG      H3 8720   1.216   1.300   1.529 -1.0703  1.0615 -2.6385
  380DG      H4 8721   1.305   1.396   1.654 -0.2759 -0.4056  0.2706
  380DG      H5 8722   1.230   1.471   1.510 -1.8864  1.8159  1.5552
  380DG      H6 8723   0.509   1.429   1.414  0.1191 -1.5131 -0.9102
  380DG      H7 8724   0.555   1.592   1.345  0.5824  0.5123  0.7944
  380DG      H8 8725   0.652   1.442   1.339 -0.8279 -0.5011 -0.0873
  380DG      O9 8726   1.105   1.415   1.657  0.0817 -0.8068  0.3379
  380DG     O10 8727   0.644   1.555   1.510 -0.2328 -0.6168 -0.0212
  380DG     C11 8728   1.092   1.542   1.720 -0.7520 -0.4600 -0.2542
  380DG     C12 8729   0.641   1.468   1.623  0.5495  1.0135 -0.2378
  380DG     H13 8730   1.129   1.626   1.660  2.0892  1.5032  3.7107
  380DG     H14 8731   1.171   1.540   1.795  2.6860 -0.0261 -3.5485
  380DG     H15 8732   0.667   1.370   1.582 -1.1280  0.7349 -0.7168
  380DG     H16 8733   0.540   1.454   1.662  1.2199 -1.4464  0.7631
  380DG     C17 8734   0.961   1.554   1.789  0.4788 -0.4895  0.0186
  380DG     C18 8735   0.728   1.500   1.744  0.3019 -0.7286  0.0073
  380DG     O19 8736   0.866   1.503   1.698  0.1335 -0.3561 -0.0188
  380DG     H20 8737   0.919   1.650   1.818  0.8642 -0.2214 -0.3043
  380DG     H21 8738   0.959   1.493   1.880 -1.2544 -0.8865 -0.2488
  380DG     H22 8739   0.696   1.599   1.775 -1.1496 -0.2358 -2.7333
  380DG     H23 8740   0.718   1.418   1.816 -2.3039  0.2263  0.8461
  381DG      C1 8741   2.061   4.845   4.746  0.0002 -0.3832  0.1912
  381DG      C2 8742   2.076   5.380   4.320 -0.4417 -0.2567 -0.5047
  381DG      H3 8743   2.019   4.885   4.654  0.8422  1.6524  0.6231
  381DG      H4 8744   1.997   4.872   4.831  0.4746  0.0830  0.4115
  381DG      H5 8745   2.061   4.738   4.726 -0.4209 -0.1248 -1.2879
  381DG      H6 8746   1.981   5.401   4.370  0.1299 -0.1126  0.5539
  381DG      H7 8747   2.162   5.444   4.342  0.4928 -0.4573 -3.1500
  381DG      H8 8748   2.069   5.398   4.213 -0.9436 -0.5864 -0.5315
  381DG      O9 8749   2.188   4.905   4.763  0.0168  0.7196  0.2047
  381DG     O10 8750   2.106   5.250   4.350 -0.0913  0.4190  0.0394
  381DG     C11 8751   2.293   4.875   4.672  0.2352 -0.2266 -0.5783
  381DG     C12 8752   2.231   5.203   4.298 -0.8487  0.5835  0.8488
  381DG     H13 8753   2.304   4.767   4.671 -3.4853 -0.7626  0.6869
  381DG     H14 8754   2.387   4.912   4.713  1.6807  0.6597 -4.3026
  381DG     H15 8755   2.318   5.255   4.337  0.2098 -0.1774 -0.4010
  381DG     H16 8756   2.237   5.207   4.189 -1.0713  0.7277  0.8428
  381DG     C17 8757   2.287   4.904   4.522  0.1635  0.4816  0.1087
  381DG     C18 8758   2.255   5.057   4.339 -0.0309 -0.1652  0.1584
  381DG     O19 8759   2.285   5.044   4.478 -0.1171 -0.5381 -0.0028
  381DG     H20 8760   2.194   4.861   4.483 -0.4313 -0.9179  2.7809
  381DG     H21 8761   2.377   4.855   4.487  0.9451  0.2193  2.3233
  381DG     H22 8762   2.158   5.013   4.317 -0.6310  1.5344 -0.7663
  381DG     H23 8763   2.336   5.009   4.284  0.8546  0.7393  0.6452
  382DG      C1 8764   1.645   2.925   3.392 -0.4448  0.6047 -0.5715
  382DG      C2 8765   1.338   2.544   2.895  0.1557  0.1059  0.5029
  382DG      H3 8766   1.577   3.010   3.400 -0.0761  0.6682  3.8884
  382DG      H4 8767   1.743   2.961   3.424 -0.2012 -1.2234  0.9009
  382DG      H5 8768   1.627   2.848   3.466  0.3905  2.8911  2.1621
  382DG      H6 8769   1.272   2.630   2.892  0.9205  0.8153  2.3930
  382DG      H7 8770   1.328   2.489   2.801  1.0325  0.7688  0.0177
  382DG      H8 8771   1.302   2.482   2.978 -0.9119 -0.7898 -0.5841
  382DG      O9 8772   1.643   2.864   3.262 -0.4040 -0.0527  0.2870
  382DG     O10 8773   1.470   2.579   2.906 -0.4861  0.0469  0.1049
  382DG     C11 8774   1.683   2.955   3.159  0.0827 -0.0127 -0.4395
  382DG     C12 8775   1.502   2.680   2.808  0.2236 -0.4496  0.3190
  382DG     H13 8776   1.772   3.008   3.193  0.7794 -0.7722 -1.0450
  382DG     H14 8777   1.618   3.042   3.147  0.5339  0.4803  0.5717
  382DG     H15 8778   1.428   2.761   2.812  3.3325  2.6098  0.7389
  382DG     H16 8779   1.524   2.633   2.712  0.8076  0.9173 -0.2425
  382DG     C17 8780   1.711   2.891   3.021 -0.1419 -0.1325  0.1901
  382DG     C18 8781   1.628   2.758   2.856 -0.4384  0.4196 -0.5732
  382DG     O19 8782   1.595   2.814   2.983  0.2950  0.4838 -0.4298
  382DG     H20 8783   1.795   2.821   3.024 -0.9239 -1.2590 -2.0728
  382DG     H21 8784   1.740   2.970   2.952  4.2446 -0.3529  1.4869
  382DG     H22 8785   1.710   2.686   2.858 -2.1730 -1.6307  0.0631
  382DG     H23 8786   1.664   2.839   2.793  1.0986 -0.4628 -0.8720
  383DG      C1 8787   4.747   0.468   4.718  0.0492  0.1027 -0.8162
  383DG      C2 8788   4.909   0.651   4.076  0.0005  0.2258  0.0890
  383DG      H3 8789   4.845   0.469   4.766  1.7409  1.5636 -4.0030
  383DG      H4 8790   4.679   0.402   4.771 -0.2401  1.4081  0.5272
  383DG      H5 8791   4.715   0.572   4.722 -2.0795 -0.5299  0.2391
  383DG      H6 8792   5.016   0.664   4.092  0.3923 -2.1853 -0.1787
  383DG      H7 8793   4.895   0.635   3.969  0.3109  2.0321 -0.2670
  383DG      H8 8794   4.858   0.742   4.109 -2.3327 -1.3840  1.1651
  383DG      O9 8795   4.743   0.434   4.580 -0.2076 -0.3738  0.6154
  383DG     O10 8796   4.847   0.540   4.144  0.1205 -0.1419 -0.7644
  383DG     C11 8797   4.792   0.305   4.559 -0.3147 -0.1190  0.8723
  383DG     C12 8798   4.914   0.414   4.116  0.5383  0.4458  0.0165
  383DG     H13 8799   4.758   0.240   4.639  0.2798  0.7481  1.8728
  383DG     H14 8800   4.900   0.310   4.577  0.6281  2.2200 -3.7952
  383DG     H15 8801   5.020   0.419   4.141  0.4842 -0.1766  0.3905
  383DG     H16 8802   4.916   0.388   4.011 -1.2109 -1.6173  0.4164
  383DG     C17 8803   4.761   0.257   4.417  0.2284  0.0356 -0.0205
  383DG     C18 8804   4.821   0.315   4.200  0.4360  0.1928  0.2153
  383DG     O19 8805   4.811   0.357   4.336 -0.2852 -0.3028  0.4686
  383DG     H20 8806   4.656   0.229   4.415 -0.2264  1.0778  3.4619
  383DG     H21 8807   4.818   0.164   4.411 -1.4827 -1.1458  1.2098
  383DG     H22 8808   4.724   0.314   4.150  1.1655 -0.3967 -1.2139
  383DG     H23 8809   4.853   0.212   4.189  0.4480  0.2702 -0.4833
  384DG      C1 8810   0.816   0.436   0.350 -0.3637 -0.2617 -0.0313
  384DG      C2 8811   1.585   0.470   0.132  0.0568  0.4380  0.0379
  384DG      H3 8812   0.829   0.527   0.291 -1.2111 -0.2848 -0.2605
  384DG      H4 8813   0.863   0.462   0.445  1.1516  0.2462 -0.8819
  384DG      H5 8814   0.714   0.401   0.366 -0.8928  1.2419  0.0497
  384DG      H6 8815   1.574   0.578   0.126  4.5365  1.1182  0.7489
  384DG      H7 8816   1.628   0.438   0.227  0.6431 -0.5724 -0.5506
  384DG      H8 8817   1.651   0.443   0.049 -1.0899  0.0049 -0.7638
  384DG      O9 8818   0.887   0.337   0.278 -0.2824 -0.4751  0.0107
  384DG     O10 8819   1.460   0.416   0.115 -0.0354  0.2552 -0.8450
  384DG     C11 8820   1.027   0.354   0.297 -0.1178 -0.4918  0.2193
  384DG     C12 8821   1.458   0.271   0.121  0.0288  0.1022 -0.5711
  384DG     H13 8822   1.052   0.340   0.403  0.9078 -0.0283  0.0505
  384DG     H14 8823   1.049   0.457   0.271 -0.0008 -0.3038  1.0347
  384DG     H15 8824   1.499   0.247   0.220  0.9557 -0.7298 -1.1412
  384DG     H16 8825   1.529   0.225   0.053 -0.5183  0.1529 -1.1835
  384DG     C17 8826   1.103   0.246   0.213 -0.8143  0.0753  0.2401
  384DG     C18 8827   1.312   0.224   0.108  0.2034  0.0297  0.3979
  384DG     O19 8828   1.243   0.286   0.204 -0.3760 -0.5010  0.4389
  384DG     H20 8829   1.063   0.241   0.111  1.7519  1.5186 -0.9319
  384DG     H21 8830   1.093   0.148   0.259  1.3064 -0.8709 -1.2128
  384DG     H22 8831   1.286   0.249   0.005  1.3490  1.0143  0.3252
  384DG     H23 8832   1.306   0.115   0.116  0.6083 -0.1273 -1.1427
  385DG      C1 8833   4.571   2.991   5.471 -0.0388 -0.5843 -0.4236
  385DG      C2 8834   4.712   2.590   4.908  0.9167 -0.8460 -0.1516
  385DG      H3 8835   4.486   2.935   5.509 -1.8512  2.0561 -0.3232
  385DG      H4 8836   4.569   3.094   5.506 -0.3357 -0.7717  0.1124
  385DG      H5 8837   4.655   2.950   5.528 -0.6708 -0.5781  0.5225
  385DG      H6 8838   4.760   2.615   4.814  0.6317 -1.7724 -0.5558
  385DG      H7 8839   4.793   2.555   4.973  0.5705  0.3354  0.9592
  385DG      H8 8840   4.646   2.507   4.883 -0.2291 -0.8268  2.4563
  385DG      O9 8841   4.585   2.999   5.330  0.1488 -0.5287 -0.1014
  385DG     O10 8842   4.644   2.702   4.956 -0.6318 -0.6468 -0.3261
  385DG     C11 8843   4.462   3.051   5.265 -0.4555 -0.0136  0.5364
  385DG     C12 8844   4.541   2.770   4.879 -0.3049  0.0880  0.0062
  385DG     H13 8845   4.462   3.155   5.296 -0.8184 -0.0696  0.7314
  385DG     H14 8846   4.375   2.996   5.302  0.5825 -0.9326  1.7056
  385DG     H15 8847   4.445   2.720   4.886 -0.5387  0.5836  0.3838
  385DG     H16 8848   4.568   2.779   4.774 -2.3889  1.7866 -0.4534
  385DG     C17 8849   4.488   3.049   5.116 -0.3752  0.4873  0.2840
  385DG     C18 8850   4.533   2.916   4.934  0.9166  0.3645 -0.1565
  385DG     O19 8851   4.506   2.913   5.075 -0.7030 -0.1071 -0.4653
  385DG     H20 8852   4.573   3.117   5.109 -1.7983  2.4219  1.0900
  385DG     H21 8853   4.410   3.102   5.061  0.9475  1.5027 -0.6729
  385DG     H22 8854   4.616   2.983   4.911 -0.5430  2.4383  0.3064
  385DG     H23 8855   4.456   2.972   4.881 -1.1500 -1.2388  1.0158
  386DG      C1 8856   2.283   2.371   2.027  0.6921 -0.2628  0.8165
  386DG      C2 8857   2.106   1.867   2.683  0.2631 -0.3037 -0.7267
  386DG      H3 8858   2.276   2.474   2.063 -1.1327 -0.1036  0.1242
  386DG      H4 8859   2.185   2.364   1.980  0.3305  0.6279  1.4157
  386DG      H5 8860   2.355   2.356   1.948  1.7228 -1.9926  2.0127
  386DG      H6 8861   2.019   1.824   2.632 -2.7697  1.3414  2.6015
  386DG      H7 8862   2.126   1.794   2.761  0.2282 -0.6564 -1.0423
  386DG      H8 8863   2.081   1.966   2.722  0.1751 -0.8115  0.5439
  386DG      O9 8864   2.290   2.272   2.133  0.5788 -0.1857  0.1228
  386DG     O10 8865   2.211   1.888   2.584  0.0819  0.1098 -0.5997
  386DG     C11 8866   2.302   2.145   2.062 -0.4347 -0.2700 -0.5255
  386DG     C12 8867   2.174   1.978   2.486 -0.6183 -0.5266  0.4086
  386DG     H13 8868   2.399   2.160   2.016  0.6414  2.2543  2.2741
  386DG     H14 8869   2.231   2.112   1.985 -1.0278  1.3084 -0.7066
  386DG     H15 8870   2.171   2.082   2.519  0.4959  0.0449 -1.1702
  386DG     H16 8871   2.076   1.958   2.443 -0.3053 -0.1630 -0.5015
  386DG     C17 8872   2.323   2.028   2.160  0.3908 -1.0346  0.3117
  386DG     C18 8873   2.275   1.966   2.377 -0.2155  0.2808  0.0576
  386DG     O19 8874   2.245   2.051   2.273 -0.3686 -0.1637  0.0228
  386DG     H20 8875   2.432   2.031   2.172  0.2290  2.7284  2.4707
  386DG     H21 8876   2.303   1.931   2.114  0.0009 -0.8425  0.0677
  386DG     H22 8877   2.376   1.989   2.412 -0.6962  1.6268  0.6252
  386DG     H23 8878   2.263   1.862   2.347 -1.5541  0.8062 -1.3638
  387DG      C1 8879   4.050   1.766   2.568 -0.2497 -0.3231 -0.7712
  387DG      C2 8880   3.936   1.191   2.242  0.5773  0.6323 -0.1803
  387DG      H3 8881   4.155   1.739   2.564 -0.8327 -2.8753 -0.3451
  387DG      H4 8882   4.040   1.863   2.617  2.1676  0.0727 -0.9139
  387DG      H5 8883   4.022   1.776   2.463  0.9488 -2.3176 -1.3305
  387DG      H6 8884   4.021   1.135   2.281  0.8280  0.9023 -0.3383
  387DG      H7 8885   3.874   1.119   2.188 -1.2384  0.0450  2.4462
  387DG      H8 8886   3.966   1.271   2.175  3.2911 -0.1013  0.0713
  387DG      O9 8887   3.970   1.662   2.634  0.5409 -0.2483 -0.0778
  387DG     O10 8888   3.863   1.246   2.348  0.2325  0.2439  0.1386
  387DG     C11 8889   3.834   1.680   2.613  0.1595 -0.3206  0.3453
  387DG     C12 8890   3.945   1.277   2.464  0.0321  0.9907  0.0149
  387DG     H13 8891   3.807   1.786   2.608 -0.6839 -0.5675 -0.6970
  387DG     H14 8892   3.782   1.648   2.703 -1.2603 -0.0423 -0.3507
  387DG     H15 8893   4.047   1.312   2.446  1.0766 -1.4179  0.8320
  387DG     H16 8894   3.948   1.184   2.520 -0.7108  1.3588  0.6753
  387DG     C17 8895   3.788   1.603   2.495  0.6609  0.3464  0.0611
  387DG     C18 8896   3.859   1.376   2.533 -0.3228 -0.3198  0.1214
  387DG     O19 8897   3.862   1.488   2.451 -0.5817 -0.6441  0.2453
  387DG     H20 8898   3.804   1.672   2.413 -0.8900 -0.8617 -1.3256
  387DG     H21 8899   3.683   1.574   2.490  1.0459 -1.0290 -0.6163
  387DG     H22 8900   3.759   1.348   2.564 -0.8356  2.7023  1.5044
  387DG     H23 8901   3.908   1.408   2.625 -2.4049  0.1705  1.1026
  388DG      C1 8902   1.919   1.457   0.386 -0.0306  0.2977 -0.2666
  388DG      C2 8903   1.820   1.830   0.760 -0.0506  0.3644  0.0245
  388DG      H3 8904   1.974   1.490   0.298 -4.0731  1.0493 -2.7676
  388DG      H4 8905   1.965   1.388   0.457  2.2600  1.7456 -0.2616
  388DG      H5 8906   1.899   1.543   0.449 -0.6124  0.7634 -1.0634
  388DG      H6 8907   1.842   1.813   0.865  1.6013  2.7609  0.1459
  388DG      H7 8908   1.907   1.803   0.701  0.6398  1.8094  0.3416
  388DG      H8 8909   1.804   1.938   0.751  0.9846  0.6165  1.0978
  388DG      O9 8910   1.806   1.392   0.322 -0.3378  0.0780 -0.6884
  388DG     O10 8911   1.712   1.742   0.731  0.5725 -0.4049  0.3629
  388DG     C11 8912   1.705   1.345   0.417 -0.6208 -0.2679  0.4700
  388DG     C12 8913   1.640   1.783   0.619 -0.5855 -0.1122 -0.1104
  388DG     H13 8914   1.740   1.320   0.517  0.6521 -0.0063  0.1129
  388DG     H14 8915   1.655   1.254   0.382  1.8569 -0.3581 -3.4426
  388DG     H15 8916   1.706   1.844   0.557  1.5489 -0.6775  1.4869
  388DG     H16 8917   1.557   1.842   0.659  0.2681  2.6892 -2.1463
  388DG     C17 8918   1.613   1.460   0.439 -0.2530  0.1809  0.2042
  388DG     C18 8919   1.588   1.663   0.537  0.1274  0.2756  0.4589
  388DG     O19 8920   1.672   1.554   0.530  0.0027  0.4294  0.5934
  388DG     H20 8921   1.527   1.420   0.493 -0.9837 -0.0315 -1.0876
  388DG     H21 8922   1.583   1.500   0.342  0.3447 -2.0474 -0.9897
  388DG     H22 8923   1.491   1.639   0.583  0.9437 -2.8406  0.7457
  388DG     H23 8924   1.570   1.714   0.442  0.2329  0.4100  0.5112
  389DG      C1 8925   4.463   3.600   3.976 -0.7346 -0.4214 -0.2908
  389DG      C2 8926   3.909   4.092   4.380 -0.6661  0.0809 -0.0516
  389DG      H3 8927   4.542   3.539   4.021 -0.2731  0.4556  0.1237
  389DG      H4 8928   4.493   3.705   3.971 -2.0145 -0.1200 -2.6616
  389DG      H5 8929   4.455   3.562   3.874  1.4007  0.5448 -0.8960
  389DG      H6 8930   3.892   4.153   4.291 -0.7783 -0.0496 -0.1205
  389DG      H7 8931   3.810   4.073   4.422 -0.9665  2.4408  0.4492
  389DG      H8 8932   3.966   4.160   4.443 -1.1874  1.6084 -1.1424
  389DG      O9 8933   4.338   3.602   4.039  0.1557  0.1494 -0.2864
  389DG     O10 8934   3.971   3.974   4.335 -0.1192 -0.0495 -0.2204
  389DG     C11 8935   4.326   3.665   4.165  0.5216  0.0043 -0.2246
  389DG     C12 8936   4.009   3.883   4.439 -0.2791  0.2312  0.0612
  389DG     H13 8937   4.355   3.769   4.152  1.6460 -0.1826  0.5708
  389DG     H14 8938   4.394   3.621   4.239 -0.2874 -0.1400  0.4419
  389DG     H15 8939   3.926   3.855   4.503 -0.9708  0.4749 -0.7070
  389DG     H16 8940   4.076   3.929   4.512 -0.9316  0.1673  0.7048
  389DG     C17 8941   4.181   3.658   4.202 -0.0514 -0.1994  0.2395
  389DG     C18 8942   4.048   3.754   4.372 -0.3259  0.6550 -0.0352
  389DG     O19 8943   4.169   3.760   4.303  0.0101 -0.4540 -0.2707
  389DG     H20 8944   4.162   3.555   4.231 -0.6118 -0.3304 -0.5618
  389DG     H21 8945   4.110   3.683   4.124 -0.0770  2.2994  0.9644
  389DG     H22 8946   4.060   3.674   4.444 -2.7836 -0.1854 -0.4786
  389DG     H23 8947   3.971   3.713   4.306 -0.9686 -0.2511  1.2451
  390DG      C1 8948   4.288   0.496   2.928  0.1198  0.7420 -0.0907
  390DG      C2 8949   4.381   0.109   3.506  0.3816  0.1584 -0.2355
  390DG      H3 8950   4.257   0.485   2.825 -1.6284  0.9116  0.3925
  390DG      H4 8951   4.375   0.562   2.925  0.5121  0.2058 -1.2250
  390DG      H5 8952   4.207   0.554   2.972 -0.0742  1.0616 -0.8558
  390DG      H6 8953   4.328   0.182   3.567  1.0995 -1.8147  3.0268
  390DG      H7 8954   4.373   0.016   3.563 -2.1560 -1.2156 -2.6224
  390DG      H8 8955   4.484   0.146   3.503 -0.9081  4.1497 -1.5618
  390DG      O9 8956   4.299   0.372   2.990 -0.6488 -0.5104 -0.2717
  390DG     O10 8957   4.323   0.093   3.385  0.3324  0.8283 -0.1517
  390DG     C11 8958   4.413   0.304   2.939  0.2828 -0.4696 -0.1128
  390DG     C12 8959   4.389  -0.014   3.309 -0.0199  0.8332 -1.0101
  390DG     H13 8960   4.507   0.355   2.961 -0.4693  0.5878  0.7517
  390DG     H14 8961   4.414   0.306   2.830 -0.8141 -4.3626 -0.3341
  390DG     H15 8962   4.346  -0.108   3.342  2.0406  0.3455  0.4624
  390DG     H16 8963   4.497  -0.023   3.322 -0.0730  0.2462 -0.9595
  390DG     C17 8964   4.427   0.155   2.982 -0.4154  0.3535 -0.3618
  390DG     C18 8965   4.357   0.008   3.156  0.8589 -0.0828 -0.5889
  390DG     O19 8966   4.391   0.146   3.121  0.3162 -0.5453 -0.2301
  390DG     H20 8967   4.531   0.124   2.967 -1.0416 -1.9820 -0.3071
  390DG     H21 8968   4.368   0.084   2.924  1.6814 -0.5623 -1.4909
  390DG     H22 8969   4.411  -0.065   3.095  0.8165 -1.7724  1.2872
  390DG     H23 8970   4.256  -0.028   3.136  0.8898 -1.0955  0.8552
  391DG      C1 8971   4.730   4.742   2.235  0.1887 -0.0337 -0.1654
  391DG      C2 8972   4.344   4.628   2.629  0.7806  0.8514 -0.1231
  391DG      H3 8973   4.778   4.786   2.148 -0.3293 -0.8151 -0.8653
  391DG      H4 8974   4.730   4.635   2.213 -0.5157  0.2249 -1.5090
  391DG      H5 8975   4.801   4.763   2.315 -0.2042 -2.1715  0.8046
  391DG      H6 8976   4.394   4.532   2.615  1.7108  1.3692 -0.4377
  391DG      H7 8977   4.239   4.608   2.649  0.8797  1.4280  1.0412
  391DG      H8 8978   4.346   4.674   2.530  0.3639  0.7025 -0.2020
  391DG      O9 8979   4.589   4.778   2.237  0.7188  0.0583 -0.2448
  391DG     O10 8980   4.418   4.694   2.737  0.8473  0.2841  0.6077
  391DG     C11 8981   4.556   4.915   2.270 -0.0856 -0.1697  0.0413
  391DG     C12 8982   4.417   4.835   2.722  0.1445 -0.0708 -0.3716
  391DG     H13 8983   4.450   4.937   2.257 -0.0041 -0.4259 -1.1963
  391DG     H14 8984   4.605   4.980   2.197 -0.3883 -1.3472 -1.2575
  391DG     H15 8985   4.438   4.867   2.824 -0.5976 -0.9170  0.0639
  391DG     H16 8986   4.315   4.868   2.701  0.9454  2.4682 -0.5899
  391DG     C17 8987   4.590   4.945   2.420  0.3893  0.4426 -0.1200
  391DG     C18 8988   4.528   4.901   2.641  0.2653 -0.3403  0.1590
  391DG     O19 8989   4.521   4.856   2.504 -0.1987 -0.2012  0.5775
  391DG     H20 8990   4.572   5.047   2.455 -0.3115 -0.6380  2.9523
  391DG     H21 8991   4.699   4.934   2.420  0.2980 -0.9375  2.0610
  391DG     H22 8992   4.508   5.008   2.644  0.7095 -0.2423 -0.2813
  391DG     H23 8993   4.631   4.900   2.677  0.8854  3.4376 -1.1222
  392DG      C1 8994   3.765   3.705   5.292  0.0309 -0.2721  0.3447
  392DG      C2 8995   3.555   3.626   6.112 -0.0825  0.2776 -0.1410
  392DG      H3 8996   3.778   3.807   5.256  1.2256 -1.2331 -2.1578
  392DG      H4 8997   3.675   3.664   5.246  0.2352 -1.2004  0.7616
  392DG      H5 8998   3.853   3.648   5.262 -1.1423 -1.8935 -0.1656
  392DG      H6 8999   3.497   3.718   6.105  1.2387  1.1750  0.2917
  392DG      H7 9000   3.501   3.541   6.070  1.6715 -0.8102 -0.2680
  392DG      H8 9001   3.564   3.616   6.220  0.4190 -0.0901 -0.2170
  392DG      O9 9002   3.750   3.706   5.428 -0.0652 -0.6874  0.7956
  392DG     O10 9003   3.683   3.639   6.041  0.2287  0.2549 -0.1476
  392DG     C11 9004   3.758   3.579   5.478 -0.1751  0.0425 -0.3923
  392DG     C12 9005   3.669   3.710   5.920  0.4619  0.0697  0.3467
  392DG     H13 9006   3.841   3.513   5.453 -0.9300 -0.1413 -2.6161
  392DG     H14 9007   3.676   3.521   5.435  0.3395  0.3121 -1.7954
  392DG     H15 9008   3.655   3.817   5.941  1.1440  0.3179 -0.4124
  392DG     H16 9009   3.584   3.687   5.855  1.3392  0.9032 -1.1597
  392DG     C17 9010   3.743   3.577   5.637 -0.1512 -0.6854 -0.5025
  392DG     C18 9011   3.804   3.708   5.839  0.5484 -0.1229 -0.0413
  392DG     O19 9012   3.771   3.704   5.701  0.5033 -0.0140 -0.1602
  392DG     H20 9013   3.803   3.501   5.686 -0.9007 -2.2726 -1.9501
  392DG     H21 9014   3.639   3.553   5.659 -0.2769  0.5265  0.3597
  392DG     H22 9015   3.864   3.797   5.858 -0.2539  0.3330  0.4055
  392DG     H23 9016   3.868   3.621   5.853  0.7295  0.1544  0.8743
  393DG      C1 9017   0.339   4.392   2.325 -0.0314 -0.3389  0.2018
  393DG      C2 9018   0.391   4.812   2.754 -0.4632  0.2219 -0.7399
  393DG      H3 9019   0.348   4.491   2.280 -1.5962 -0.8646 -1.3816
  393DG      H4 9020   0.238   4.360   2.349 -1.1133  1.8087 -1.1678
  393DG      H5 9021   0.386   4.330   2.248  2.3638  2.8400 -1.1537
  393DG      H6 9022   0.444   4.838   2.845  0.0194 -0.0911 -0.9279
  393DG      H7 9023   0.413   4.876   2.669 -2.1774  1.7373 -0.1072
  393DG      H8 9024   0.285   4.823   2.778 -0.0816  0.1668  1.0721
  393DG      O9 9025   0.426   4.388   2.440  0.1432 -0.1852  0.1624
  393DG     O10 9026   0.421   4.673   2.721  0.1111 -0.0547  0.5452
  393DG     C11 9027   0.404   4.272   2.514 -0.6180 -0.1971 -0.2041
  393DG     C12 9028   0.419   4.585   2.838 -1.0088  0.5869  0.2275
  393DG     H13 9029   0.413   4.182   2.453  0.6269  0.5010 -1.0859
  393DG     H14 9030   0.300   4.279   2.546 -0.0271 -0.3737  1.9051
  393DG     H15 9031   0.328   4.607   2.893 -0.1245  1.7597  1.2879
  393DG     H16 9032   0.492   4.622   2.910 -0.3770 -0.5486  0.1916
  393DG     C17 9033   0.497   4.273   2.634 -0.0822 -0.3083 -0.7844
  393DG     C18 9034   0.418   4.440   2.789 -0.8239 -0.2956  0.2876
  393DG     O19 9035   0.517   4.410   2.691 -0.1648 -0.0864  0.1116
  393DG     H20 9036   0.597   4.246   2.599  2.4513  3.3450  2.7415
  393DG     H21 9037   0.473   4.212   2.721  1.0050  0.8800  0.3850
  393DG     H22 9038   0.427   4.380   2.880 -4.1171  0.8856  1.5501
  393DG     H23 9039   0.322   4.416   2.743  0.1543 -3.1141 -0.4698
  394DG      C1 9040   5.179   1.109   1.973 -0.1052  0.4564 -0.2812
  394DG      C2 9041   4.493   1.584   1.974 -0.2155 -0.6394 -0.5577
  394DG      H3 9042   5.219   1.118   2.074 -0.1460  0.9116 -0.3065
  394DG      H4 9043   5.254   1.116   1.895 -0.9086  0.7265 -1.0437
  394DG      H5 9044   5.151   1.003   1.970 -1.5467  0.7509  1.0916
  394DG      H6 9045   4.410   1.585   1.903 -0.1695  0.3868 -0.6109
  394DG      H7 9046   4.472   1.507   2.049 -2.1442 -0.4163 -0.8052
  394DG      H8 9047   4.469   1.673   2.032  0.5077 -0.8331  0.0445
  394DG      O9 9048   5.073   1.202   1.951 -0.1559  0.0478 -0.3716
  394DG     O10 9049   4.624   1.566   1.919 -0.0386  0.2271  0.3474
  394DG     C11 9050   5.098   1.335   1.983  0.6264  0.0665  0.3620
  394DG     C12 9051   4.647   1.439   1.862  0.8757 -0.0632  0.1298
  394DG     H13 9052   5.204   1.353   1.961  0.5408  0.1822  0.0353
  394DG     H14 9053   5.097   1.343   2.092 -3.4214  0.3207  0.4455
  394DG     H15 9054   4.578   1.430   1.778 -1.3400  1.0852  1.7240
  394DG     H16 9055   4.618   1.359   1.930 -1.7857 -0.8611 -1.7822
  394DG     C17 9056   5.007   1.423   1.896  0.4592 -0.0677 -0.4340
  394DG     C18 9057   4.787   1.423   1.807 -0.0866  0.6154 -0.3247
  394DG     O19 9058   4.868   1.410   1.924 -0.2841 -0.1247  0.5476
  394DG     H20 9059   5.022   1.421   1.789 -0.6637  3.2300 -0.7646
  394DG     H21 9060   5.031   1.525   1.924  1.2886 -0.4554  0.3206
  394DG     H22 9061   4.802   1.336   1.743  1.7044  0.9460 -0.4065
  394DG     H23 9062   4.810   1.507   1.742  1.1317  0.5013 -0.0621
  395DG      C1 9063   0.677   0.102   3.794  0.0697  0.4106 -0.1231
  395DG      C2 9064   1.334   0.507   3.958 -0.4859 -0.4391 -0.8750
  395DG      H3 9065   0.702   0.023   3.865 -0.4914 -0.5423 -0.9551
  395DG      H4 9066   0.682   0.067   3.691 -1.6074 -0.7522  0.1398
  395DG      H5 9067   0.572   0.130   3.807  0.4653  2.1304 -0.5012
  395DG      H6 9068   1.368   0.405   3.945  2.3237  0.3760 -0.7624
  395DG      H7 9069   1.396   0.569   3.892 -1.1318  2.7167  1.2124
  395DG      H8 9070   1.365   0.543   4.057 -1.7308  1.4249 -1.1215
  395DG      O9 9071   0.775   0.199   3.803 -0.7850 -0.0625  0.4219
  395DG     O10 9072   1.195   0.506   3.935 -0.7406 -0.2673 -0.6322
  395DG     C11 9073   0.902   0.165   3.757 -0.8181 -0.2407  0.3699
  395DG     C12 9074   1.163   0.488   3.796  0.3748  0.4533  0.5968
  395DG     H13 9075   0.900   0.204   3.655 -4.2659  0.1466  0.4635
  395DG     H14 9076   0.911   0.056   3.753  1.5001 -0.0736 -1.3178
  395DG     H15 9077   1.220   0.400   3.768 -1.5349 -1.9536  3.6394
  395DG     H16 9078   1.198   0.576   3.741 -2.5809  0.2172 -1.9277
  395DG     C17 9079   1.009   0.224   3.840 -0.1177 -0.3132 -0.2662
  395DG     C18 9080   1.015   0.450   3.775  0.1490  0.0134 -0.6959
  395DG     O19 9081   0.986   0.354   3.881  0.3071 -0.1108 -0.0825
  395DG     H20 9082   1.108   0.203   3.800 -0.4827 -0.7708 -0.9563
  395DG     H21 9083   1.005   0.170   3.935 -0.5546  0.9381  0.4427
  395DG     H22 9084   0.952   0.539   3.779 -0.0773 -0.0714 -2.0906
  395DG     H23 9085   1.002   0.406   3.676  0.6681 -0.9124 -0.3668
  396DG      C1 9086   1.875   5.284   0.687  0.5872  0.3875 -0.1413
  396DG      C2 9087   1.744   4.626   0.624  0.2751  0.6530  0.3760
  396DG      H3 9088   1.925   5.314   0.595  2.2335 -3.5907 -0.7564
  396DG      H4 9089   1.898   5.356   0.766 -1.7473  1.6865 -0.5721
  396DG      H5 9090   1.767   5.296   0.678  0.6875  2.2737  0.7779
  396DG      H6 9091   1.641   4.661   0.637 -0.6289 -1.7818  0.2281
  396DG      H7 9092   1.762   4.653   0.520 -0.2041  0.8281  0.3367
  396DG      H8 9093   1.757   4.518   0.631  1.2767  0.8326  1.5178
  396DG      O9 9094   1.920   5.155   0.734 -0.2754  0.0008  0.2542
  396DG     O10 9095   1.841   4.701   0.710  0.3637  0.3937 -0.2559
  396DG     C11 9096   2.063   5.138   0.727  0.3163  0.1266  0.2942
  396DG     C12 9097   1.978   4.668   0.676  0.1898  0.0727  0.7003
  396DG     H13 9098   2.121   5.218   0.772 -1.9818  2.5529 -0.7817
  396DG     H14 9099   2.091   5.135   0.622 -0.8127 -1.1275 -0.0111
  396DG     H15 9100   1.991   4.677   0.568  2.0192 -0.3650  0.8543
  396DG     H16 9101   2.001   4.565   0.704  0.1798 -0.3493 -0.7495
  396DG     C17 9102   2.100   5.003   0.787  0.4420 -0.2743 -0.5675
  396DG     C18 9103   2.075   4.764   0.750  0.4723 -0.0394  0.0359
  396DG     O19 9104   2.030   4.903   0.723  0.1280  0.1972 -0.1715
  396DG     H20 9105   2.083   4.991   0.894 -0.5910  3.6108 -0.1558
  396DG     H21 9106   2.209   4.990   0.790  0.3639 -1.0162  2.0089
  396DG     H22 9107   2.065   4.742   0.856 -1.0670  1.3892  0.2343
  396DG     H23 9108   2.178   4.758   0.716  0.1216  0.4252 -1.1721
  397DG      C1 9109   0.686   0.066   0.851 -0.0301 -0.2922 -1.1776
  397DG      C2 9110   1.047  -0.446   0.604 -0.3622 -0.5520 -0.6228
  397DG      H3 9111   0.660   0.080   0.746  0.9894 -2.5950 -1.7960
  397DG      H4 9112   0.752   0.139   0.900 -0.8867 -0.6124  0.5253
  397DG      H5 9113   0.596   0.068   0.912  0.7470 -2.0399  0.1184
  397DG      H6 9114   1.040  -0.381   0.516  1.9391  0.7507  0.0623
  397DG      H7 9115   1.145  -0.437   0.652 -0.5617 -0.4375 -0.2373
  397DG      H8 9116   1.025  -0.546   0.568 -3.4022 -0.7162  1.3714
  397DG      O9 9117   0.737  -0.062   0.864 -0.4890  0.0681  0.8306
  397DG     O10 9118   0.944  -0.411   0.689 -0.3231 -0.4707 -0.4744
  397DG     C11 9119   0.758  -0.093   1.002  0.4580 -0.6299  0.1038
  397DG     C12 9120   0.936  -0.499   0.804  0.0748 -0.4128 -0.7636
  397DG     H13 9121   0.673  -0.083   1.070  0.3505 -2.6824  0.3479
  397DG     H14 9122   0.846  -0.038   1.034 -0.7294  1.9978 -0.8335
  397DG     H15 9123   1.029  -0.510   0.859 -0.5140 -1.8161 -0.0129
  397DG     H16 9124   0.915  -0.606   0.802  0.5984 -0.5223 -0.6360
  397DG     C17 9125   0.773  -0.250   1.019  0.0979 -0.1811 -0.2105
  397DG     C18 9126   0.830  -0.447   0.894  0.1803 -0.4633 -0.1671
  397DG     O19 9127   0.856  -0.310   0.923  0.0456 -0.4901  0.7029
  397DG     H20 9128   0.673  -0.294   1.027 -0.0001  0.2174  1.0027
  397DG     H21 9129   0.818  -0.274   1.115 -1.3720 -1.7665  0.1287
  397DG     H22 9130   0.733  -0.459   0.846  0.3518 -1.4589 -0.3014
  397DG     H23 9131   0.822  -0.500   0.989  0.3047  0.0947  0.1555
  398DG      C1 9132   4.170   0.172   4.118 -0.1142 -0.4883 -0.0628
  398DG      C2 9133   3.888   0.698   3.990 -0.3710 -0.4622 -0.0178
  398DG      H3 9134   4.224   0.079   4.097 -0.8519 -0.6333 -1.4421
  398DG      H4 9135   4.075   0.138   4.161  0.9309 -0.5551  2.3788
  398DG      H5 9136   4.220   0.225   4.200 -0.1679 -2.1855  1.1354
  398DG      H6 9137   3.977   0.748   4.028 -0.4275  0.3542 -0.9128
  398DG      H7 9138   3.820   0.769   3.942  0.8380  2.1760  1.9063
  398DG      H8 9139   3.831   0.658   4.074  0.0464  0.5209  0.7533
  398DG      O9 9140   4.147   0.242   3.995  0.5109  0.3646  0.3586
  398DG     O10 9141   3.931   0.598   3.905 -0.2555 -0.1101 -0.2058
  398DG     C11 9142   4.262   0.256   3.911  0.1072 -0.1057 -0.3847
  398DG     C12 9143   4.026   0.656   3.809  0.8011 -0.3533 -0.4835
  398DG     H13 9144   4.299   0.164   3.866 -0.0668  0.5447 -1.9314
  398DG     H14 9145   4.341   0.305   3.968 -0.6698  0.8610 -0.1037
  398DG     H15 9146   4.082   0.737   3.854 -0.3421 -0.5933  1.4796
  398DG     H16 9147   3.984   0.713   3.725  0.2951  1.4209  0.9217
  398DG     C17 9148   4.213   0.344   3.797 -0.6040  0.2701 -0.3661
  398DG     C18 9149   4.121   0.550   3.750  0.2477  0.5465  0.2454
  398DG     O19 9150   4.154   0.463   3.854 -0.2199 -0.0022 -0.5978
  398DG     H20 9151   4.141   0.292   3.734 -2.0984  1.8965 -0.0883
  398DG     H21 9152   4.299   0.378   3.738  0.6075  0.6705  1.5527
  398DG     H22 9153   4.065   0.501   3.671 -2.1693  1.3103  1.3951
  398DG     H23 9154   4.209   0.600   3.710  0.4363  0.9372  1.1113
  399DG      C1 9155   2.364   2.838   0.935  0.0056 -0.7222  0.2268
  399DG      C2 9156   2.798   3.313   0.944  0.0701  0.1968 -0.4729
  399DG      H3 9157   2.404   2.849   0.834  1.4963 -1.7023  0.6811
  399DG      H4 9158   2.292   2.916   0.958  0.5860 -0.3089  0.6580
  399DG      H5 9159   2.322   2.738   0.953  0.3885 -0.7223  1.1976
  399DG      H6 9160   2.879   3.379   0.976 -0.0604 -1.0451  2.8099
  399DG      H7 9161   2.791   3.318   0.835 -0.9029  0.0431 -0.4276
  399DG      H8 9162   2.709   3.363   0.981  1.2890  1.9066  0.3176
  399DG      O9 9163   2.465   2.871   1.020  0.3058  0.2528  0.1572
  399DG     O10 9164   2.829   3.181   0.984  0.2462  1.4567 -0.3164
  399DG     C11 9165   2.561   2.768   1.014 -0.6737  0.4083 -0.1923
  399DG     C12 9166   2.859   3.153   1.120  0.3638  0.0196  0.2729
  399DG     H13 9167   2.592   2.756   0.910  2.4667 -0.6459  0.7586
  399DG     H14 9168   2.522   2.673   1.050 -0.2299  0.6330  0.9066
  399DG     H15 9169   2.789   3.198   1.191  2.2683  2.5444  0.6791
  399DG     H16 9170   2.955   3.195   1.152 -0.5348  1.3490  1.3366
  399DG     C17 9171   2.691   2.811   1.086 -0.1039  0.5008 -0.4081
  399DG     C18 9172   2.850   2.997   1.125  0.3963 -0.3655  0.4965
  399DG     O19 9173   2.727   2.951   1.064  0.0845  0.4782  0.0111
  399DG     H20 9174   2.775   2.743   1.071  0.6228  1.5267 -1.0712
  399DG     H21 9175   2.662   2.811   1.191  0.9854  2.1019 -0.0769
  399DG     H22 9176   2.933   2.957   1.066 -0.1500  0.0879 -0.6015
  399DG     H23 9177   2.853   2.959   1.227 -2.8086 -0.5340  0.6127
  400DG      C1 9178   3.616   2.316   2.339  0.0992 -0.2430 -0.5097
  400DG      C2 9179   3.437   1.940   1.802  0.9823  0.0017  0.6341
  400DG      H3 9180   3.633   2.387   2.259 -1.5697 -0.7055 -1.3308
  400DG      H4 9181   3.680   2.346   2.422  0.0401  1.3898 -1.0404
  400DG      H5 9182   3.512   2.316   2.370  0.0604  0.4303 -0.6400
  400DG      H6 9183   3.338   1.929   1.847 -0.8239  1.2921 -2.6540
  400DG      H7 9184   3.441   2.028   1.738 -1.4389  1.3072  2.1191
  400DG      H8 9185   3.465   1.859   1.735 -0.6739 -0.0562 -0.0278
  400DG      O9 9186   3.655   2.195   2.280 -0.4632  1.0674  0.3239
  400DG     O10 9187   3.520   1.958   1.910  0.5127  0.1364 -0.3261
  400DG     C11 9188   3.652   2.085   2.370 -0.4917  0.0552 -0.2735
  400DG     C12 9189   3.521   1.838   1.993 -0.1235  0.2886  0.1496
  400DG     H13 9190   3.555   2.074   2.418  0.8696 -0.0527  2.6829
  400DG     H14 9191   3.715   2.101   2.457 -1.9634  1.6330  0.5606
  400DG     H15 9192   3.545   1.751   1.933  0.8061  0.3700  0.3881
  400DG     H16 9193   3.427   1.816   2.043 -0.2146  0.0983 -0.0994
  400DG     C17 9194   3.698   1.956   2.293 -0.3007 -0.4579 -0.1254
  400DG     C18 9195   3.641   1.848   2.096 -0.2428 -0.5877 -0.3467
  400DG     O19 9196   3.595   1.930   2.201  0.2245  0.2573  0.4314
  400DG     H20 9197   3.715   1.867   2.355 -0.1310 -1.2389 -1.2677
  400DG     H21 9198   3.796   1.965   2.247  0.6894 -0.6133  1.8355
  400DG     H22 9199   3.645   1.749   2.140 -2.7957 -0.0824  1.2233
  400DG     H23 9200   3.723   1.883   2.034 -0.9858  0.1651 -0.9330
  401DG      C1 9201   2.162   5.139   3.902 -0.5399  0.0865 -0.2809
  401DG      C2 9202   1.636   5.485   3.669 -0.0857  0.0701 -0.2740
  401DG      H3 9203   2.086   5.087   3.961 -0.3401  0.8121  0.6410
  401DG      H4 9204   2.213   5.226   3.943  1.2945 -1.6035  1.1738
  401DG      H5 9205   2.246   5.072   3.885 -1.8767 -1.7446  0.0822
  401DG      H6 9206   1.591   5.404   3.726 -2.1490 -0.6308 -2.7397
  401DG      H7 9207   1.603   5.580   3.711  0.8707  0.1675  0.2816
  401DG      H8 9208   1.591   5.474   3.571 -3.6902  2.9755  0.8384
  401DG      O9 9209   2.116   5.173   3.774  0.0067 -0.7731  0.1702
  401DG     O10 9210   1.773   5.476   3.689  0.0329  0.5718 -0.2822
  401DG     C11 9211   2.217   5.246   3.704 -0.0625 -0.5263  0.4003
  401DG     C12 9212   1.856   5.573   3.629 -0.3067 -0.4325 -0.5064
  401DG     H13 9213   2.210   5.207   3.603  0.6734  0.0392  0.1220
  401DG     H14 9214   2.318   5.224   3.739  0.2543 -0.9391 -0.7349
  401DG     H15 9215   1.819   5.671   3.659  1.1020 -0.0217 -0.0700
  401DG     H16 9216   1.846   5.573   3.520 -2.5422 -0.9408 -0.3498
  401DG     C17 9217   2.183   5.393   3.689 -0.1575 -0.3318  0.0206
  401DG     C18 9218   2.005   5.556   3.665 -0.9918  0.5778 -0.3378
  401DG     O19 9219   2.050   5.422   3.658  0.2301  0.4591  0.0385
  401DG     H20 9220   2.246   5.446   3.618 -0.6504  0.4700  0.1717
  401DG     H21 9221   2.224   5.448   3.774  0.3699  1.4132 -1.3071
  401DG     H22 9222   2.073   5.624   3.614  2.5226 -0.4124  2.5774
  401DG     H23 9223   2.025   5.577   3.770  0.6446 -0.1089 -0.4756
  402DG      C1 9224   4.248   3.958   5.150 -0.1921 -0.2547  0.2076
  402DG      C2 9225   4.474   3.374   5.650 -0.9961  0.2651  0.2101
  402DG      H3 9226   4.313   3.941   5.064  1.1251  3.6020  0.2319
  402DG      H4 9227   4.236   4.066   5.151  1.1461 -0.0733 -0.6331
  402DG      H5 9228   4.145   3.926   5.132  0.1229 -1.4174  0.3745
  402DG      H6 9229   4.439   3.341   5.748  1.3220  1.6651  1.6115
  402DG      H7 9230   4.413   3.307   5.589 -0.4755  1.1080 -1.2856
  402DG      H8 9231   4.580   3.350   5.637 -1.2834 -0.8550 -0.1694
  402DG      O9 9232   4.306   3.888   5.253 -0.4856  0.3938 -0.0391
  402DG     O10 9233   4.448   3.513   5.617 -0.3454 -0.5397 -1.0401
  402DG     C11 9234   4.306   3.747   5.239 -0.8185  0.0460 -0.1500
  402DG     C12 9235   4.315   3.552   5.641  0.3362 -0.1087 -0.2294
  402DG     H13 9236   4.382   3.712   5.169 -1.0991 -1.2677  0.1641
  402DG     H14 9237   4.210   3.702   5.214 -1.8726  0.6072  2.5140
  402DG     H15 9238   4.292   3.520   5.742 -0.1613 -0.8775 -0.5760
  402DG     H16 9239   4.268   3.482   5.573  1.0004 -0.9366  0.1467
  402DG     C17 9240   4.343   3.693   5.377  0.1984 -0.4082  0.1336
  402DG     C18 9241   4.280   3.699   5.610 -0.2876 -0.4828 -0.3752
  402DG     O19 9242   4.240   3.718   5.473 -0.5410 -0.3643  0.2565
  402DG     H20 9243   4.432   3.740   5.419 -0.9319  0.1971  1.9585
  402DG     H21 9244   4.375   3.589   5.370 -2.8133 -1.3740 -0.8614
  402DG     H22 9245   4.212   3.750   5.678  2.1804  1.3379  0.9040
  402DG     H23 9246   4.364   3.766   5.629 -1.0664 -0.0196  1.6854
  403DG      C1 9247   2.681   4.932   2.945 -0.4052  0.2146  0.1573
  403DG      C2 9248   2.217   4.647   2.605 -0.6659  0.3667  0.1631
  403DG      H3 9249   2.645   4.834   2.977  0.0463  0.6059  1.9800
  403DG      H4 9250   2.748   4.967   3.023 -0.0990 -1.7326  0.8229
  403DG      H5 9251   2.737   4.908   2.855  0.4929  0.8307  0.5386
  403DG      H6 9252   2.322   4.620   2.593 -0.9486 -0.2936 -0.9599
  403DG      H7 9253   2.147   4.567   2.579  1.0831 -0.6548 -1.7838
  403DG      H8 9254   2.207   4.738   2.546  2.1185  0.9087  0.3821
  403DG      O9 9255   2.587   5.047   2.941  0.0905  0.3314 -0.1871
  403DG     O10 9256   2.203   4.674   2.740  0.4752 -0.1927 -0.6175
  403DG     C11 9257   2.505   5.051   3.055 -0.4643 -0.9437 -0.1129
  403DG     C12 9258   2.299   4.758   2.803  0.0998  0.2602  0.4416
  403DG     H13 9259   2.503   5.148   3.105  1.4969 -1.9786  2.1715
  403DG     H14 9260   2.545   4.987   3.133  0.9987  0.3392  0.2635
  403DG     H15 9261   2.318   4.830   2.723 -2.4032 -0.4094 -0.8552
  403DG     H16 9262   2.394   4.711   2.828  1.1090  1.7320 -0.4382
  403DG     C17 9263   2.365   5.010   3.028 -0.1357  0.0346 -0.8217
  403DG     C18 9264   2.258   4.826   2.929  0.2895 -0.3307  0.1920
  403DG     O19 9265   2.374   4.873   3.004  0.3227  0.0709  0.3966
  403DG     H20 9266   2.336   5.082   2.952 -0.3048  1.1128  0.2371
  403DG     H21 9267   2.304   5.031   3.115 -2.0579  0.4641 -2.2197
  403DG     H22 9268   2.182   4.903   2.911 -0.9333 -1.7097 -0.7443
  403DG     H23 9269   2.211   4.754   2.996 -0.5637  0.7150  0.7459
  404DG      C1 9270   1.798   2.474   1.677  0.8255 -0.2693 -0.0599
  404DG      C2 9271   1.949   2.080   1.871 -0.3231  0.0959 -0.2590
  404DG      H3 9272   1.729   2.557   1.666 -2.0464 -2.2624  1.4875
  404DG      H4 9273   1.850   2.488   1.582  1.7217  1.0597  0.5972
  404DG      H5 9274   1.864   2.503   1.759  1.4578  0.3909 -0.7841
  404DG      H6 9275   1.957   2.087   1.980 -1.5159 -1.6355 -0.0153
  404DG      H7 9276   2.047   2.091   1.826  0.3711 -0.4125  1.0635
  404DG      H8 9277   1.890   2.159   1.824  1.7772  0.0156 -3.2873
  404DG      O9 9278   1.739   2.352   1.690 -0.5660  0.2716 -0.2425
  404DG     O10 9279   1.904   1.950   1.841  1.1564 -0.0074  0.4983
  404DG     C11 9280   1.684   2.300   1.567  0.9703  0.1747  0.3017
  404DG     C12 9281   1.893   1.912   1.704  0.1631  0.3429  0.5188
  404DG     H13 9282   1.757   2.316   1.488 -0.5690  0.6310 -1.1021
  404DG     H14 9283   1.609   2.368   1.527  2.7862  1.7125 -0.6265
  404DG     H15 9284   1.909   1.806   1.685 -0.1075  0.5127 -0.7391
  404DG     H16 9285   1.966   1.952   1.634  2.3990  0.7854  2.9458
  404DG     C17 9286   1.644   2.148   1.578  0.3647  0.1881  0.7965
  404DG     C18 9287   1.758   1.946   1.644  0.6578  0.2350 -0.3057
  404DG     O19 9288   1.759   2.086   1.642 -0.3855 -0.4178 -0.4820
  404DG     H20 9289   1.623   2.097   1.484  2.0740 -1.0647  1.0454
  404DG     H21 9290   1.552   2.136   1.635  0.5746 -1.1211  0.8874
  404DG     H22 9291   1.756   1.910   1.541  0.6433  0.6315 -0.4454
  404DG     H23 9292   1.674   1.905   1.700  0.7954 -0.5661 -0.6658
  405DG      C1 9293   0.831   1.217   2.060  0.0994 -1.0223  0.1338
  405DG      C2 9294   0.512   1.052   1.781  0.8949 -0.9344  0.0123
  405DG      H3 9295   0.898   1.193   2.142 -0.7419 -1.3135  0.7548
  405DG      H4 9296   0.831   1.325   2.050 -0.5475 -1.0063  0.2439
  405DG      H5 9297   0.881   1.172   1.974  2.1738  1.0556  0.1582
  405DG      H6 9298   0.489   1.115   1.695  2.2014 -0.1260  0.2240
  405DG      H7 9299   0.593   1.106   1.830  1.7287 -0.8301 -1.4297
  405DG      H8 9300   0.541   0.955   1.741  1.4829 -0.8517  0.2289
  405DG      O9 9301   0.709   1.158   2.091  0.7150 -0.5154  0.0922
  405DG     O10 9302   0.397   1.048   1.866  0.4935 -0.1325  0.0874
  405DG     C11 9303   0.648   1.209   2.211  0.4788  0.3415 -0.7780
  405DG     C12 9304   0.390   0.936   1.958 -0.5712 -0.2794 -0.3988
  405DG     H13 9305   0.642   1.318   2.205  0.6258  0.4070  0.0698
  405DG     H14 9306   0.704   1.186   2.302 -2.1348 -1.5850  0.5041
  405DG     H15 9307   0.415   0.843   1.906  2.1251  0.6902 -0.9694
  405DG     H16 9308   0.289   0.926   1.997  0.7633 -0.8442  3.3339
  405DG     C17 9309   0.516   1.137   2.237  0.5346  0.2341 -0.3223
  405DG     C18 9310   0.482   0.966   2.080  0.3020 -0.0308 -0.3730
  405DG     O19 9311   0.448   1.093   2.126 -0.2680  0.1679  0.5038
  405DG     H20 9312   0.446   1.215   2.267  0.5998  0.1861 -0.0384
  405DG     H21 9313   0.521   1.053   2.307 -0.4171 -1.7256 -2.4674
  405DG     H22 9314   0.455   0.897   2.160 -2.6920 -1.0402 -2.0884
  405DG     H23 9315   0.583   0.935   2.055  1.3666  0.5566  2.8168
  406DG      C1 9316   4.394   0.929   1.608  0.4461 -0.9216  0.0390
  406DG      C2 9317   4.154   0.316   1.237 -0.0632 -0.3800 -0.5609
  406DG      H3 9318   4.426   0.865   1.689 -0.1425  0.3923  1.3683
  406DG      H4 9319   4.291   0.957   1.631  0.6249  0.5998 -0.8637
  406DG      H5 9320   4.452   1.022   1.609  0.3294 -0.8495  0.7412
  406DG      H6 9321   4.057   0.362   1.256  0.1389 -1.0088  2.5012
  406DG      H7 9322   4.142   0.260   1.145 -3.0492 -2.8932  1.1464
  406DG      H8 9323   4.175   0.238   1.311  2.2726  0.6518 -0.0466
  406DG      O9 9324   4.398   0.859   1.486 -0.3432  0.3200 -0.4516
  406DG     O10 9325   4.264   0.403   1.245 -0.1533 -0.3297  0.6041
  406DG     C11 9326   4.518   0.792   1.466  0.4804 -0.3640 -0.0057
  406DG     C12 9327   4.249   0.519   1.161 -0.8474  0.1906  0.4216
  406DG     H13 9328   4.534   0.717   1.544  1.5297 -0.2506 -0.0997
  406DG     H14 9329   4.602   0.862   1.470 -0.2544  0.5718 -0.5750
  406DG     H15 9330   4.166   0.569   1.211 -1.4688 -0.3539 -0.0589
  406DG     H16 9331   4.241   0.488   1.057  0.9760 -1.3856  0.7030
  406DG     C17 9332   4.520   0.735   1.327 -0.1439  0.8009  0.8314
  406DG     C18 9333   4.378   0.608   1.175  0.2668  0.7600  0.5617
  406DG     O19 9334   4.404   0.651   1.311  0.1387 -0.0185  0.5446
  406DG     H20 9335   4.616   0.686   1.312  0.7412  2.3833  1.0352
  406DG     H21 9336   4.522   0.824   1.264 -0.7043  0.6134  0.5417
  406DG     H22 9337   4.462   0.544   1.147 -1.3855 -1.0855 -0.4146
  406DG     H23 9338   4.382   0.691   1.104  1.4285  0.3866  0.1624
  407DG      C1 9339   5.191   3.350   2.406 -0.2552  0.3889  1.0292
  407DG      C2 9340   5.537   3.397   2.951  0.3185  0.2413  0.3652
  407DG      H3 9341   5.098   3.355   2.349 -0.7418 -2.2278  1.4661
  407DG      H4 9342   5.279   3.320   2.349 -0.6212 -0.7222  1.0308
  407DG      H5 9343   5.224   3.450   2.433  0.1208  0.6633 -0.3632
  407DG      H6 9344   5.609   3.333   3.002 -0.9768 -0.4905  1.3381
  407DG      H7 9345   5.593   3.445   2.870  1.3625 -0.2135  0.7899
  407DG      H8 9346   5.498   3.469   3.023  1.3993 -0.1285  1.3542
  407DG      O9 9347   5.171   3.280   2.525  0.2166 -0.0899  0.2301
  407DG     O10 9348   5.430   3.332   2.888  0.2803 -0.2784  0.4261
  407DG     C11 9349   5.145   3.140   2.519 -0.1382  0.9047  0.0012
  407DG     C12 9350   5.351   3.247   2.961  0.3426  0.3937 -0.0432
  407DG     H13 9351   5.224   3.092   2.460 -0.6622 -2.0707  1.5163
  407DG     H14 9352   5.052   3.124   2.464  0.1569  1.9286 -0.8280
  407DG     H15 9353   5.314   3.294   3.052 -1.0017 -2.1848  0.8369
  407DG     H16 9354   5.417   3.166   2.994 -1.9918 -1.4054  0.4237
  407DG     C17 9355   5.156   3.099   2.671  0.0222 -0.4142 -0.0996
  407DG     C18 9356   5.229   3.189   2.877 -0.3851  0.2456 -0.6150
  407DG     O19 9357   5.262   3.164   2.744  0.5136  0.2578  0.0170
  407DG     H20 9358   5.176   2.992   2.666  2.1508 -0.0578 -0.1309
  407DG     H21 9359   5.059   3.121   2.715  0.5152 -0.3320  0.9777
  407DG     H22 9360   5.183   3.100   2.920  1.8118 -0.5757  0.1271
  407DG     H23 9361   5.146   3.259   2.866  2.1696  3.6890  0.5997
  408DG      C1 9362   5.326   4.708   4.814  0.1914  0.3667 -0.3409
  408DG      C2 9363   4.880   4.049   4.682  0.1850  0.2531  0.3110
  408DG      H3 9364   5.396   4.790   4.828 -0.5561  1.4726 -2.5168
  408DG      H4 9365   5.306   4.705   4.707 -1.2186  3.0429 -0.2396
  408DG      H5 9366   5.371   4.611   4.836 -2.9804 -1.0337  0.5448
  408DG      H6 9367   4.905   4.047   4.576 -0.2403  0.7694  0.1920
  408DG      H7 9368   4.903   3.954   4.729 -0.7039  0.2145  0.6931
  408DG      H8 9369   4.772   4.061   4.692  0.0654 -0.4316 -0.1361
  408DG      O9 9370   5.198   4.725   4.889  0.0902 -0.2775 -0.1757
  408DG     O10 9371   4.961   4.154   4.722 -0.8278  0.3409 -1.1407
  408DG     C11 9372   5.106   4.627   4.855  0.6932 -0.5119 -0.0172
  408DG     C12 9373   4.938   4.174   4.868  0.7590 -0.1988 -0.4876
  408DG     H13 9374   5.119   4.596   4.751  0.3264 -1.5479  0.2380
  408DG     H14 9375   5.005   4.668   4.861 -0.2453 -2.8000  0.7290
  408DG     H15 9376   4.951   4.079   4.920 -0.7698  0.3387  0.9802
  408DG     H16 9377   4.838   4.203   4.900  1.2623 -0.6782  1.7226
  408DG     C17 9378   5.107   4.500   4.939 -0.4412 -0.2169  0.0954
  408DG     C18 9379   5.034   4.270   4.939  0.1188 -0.1791 -0.9523
  408DG     O19 9380   5.023   4.403   4.882 -0.1587  0.4716 -0.0222
  408DG     H20 9381   5.064   4.543   5.029  0.7771  2.5090 -0.5144
  408DG     H21 9382   5.208   4.465   4.961  0.3912  1.2673 -1.1197
  408DG     H22 9383   5.009   4.284   5.044  1.8620  1.5741 -0.7010
  408DG     H23 9384   5.135   4.231   4.935  0.0268 -0.3940 -1.2242
  409DG      C1 9385   0.052   2.520   4.899 -0.6657 -0.1465 -0.3548
  409DG      C2 9386   0.048   1.992   4.840 -0.0302  0.1688  0.1632
  409DG      H3 9387   0.061   2.445   4.821  0.2102 -1.7154  1.1936
  409DG      H4 9388  -0.053   2.549   4.911 -0.2845  0.9722  0.5271
  409DG      H5 9389   0.087   2.469   4.988 -0.2005  0.2944 -0.2798
  409DG      H6 9390   0.095   1.897   4.815  0.4834 -0.2993  2.6081
  409DG      H7 9391   0.058   1.993   4.949  1.0239 -0.7457  0.1011
  409DG      H8 9392  -0.057   1.977   4.814 -0.0849  0.9824 -0.1004
  409DG      O9 9393   0.143   2.622   4.853  0.0727  0.4291 -0.1087
  409DG     O10 9394   0.106   2.104   4.783  0.1544  0.3911 -0.2460
  409DG     C11 9395   0.277   2.576   4.858 -0.4908  0.6530 -0.0298
  409DG     C12 9396   0.250   2.100   4.765 -0.0854 -0.1738 -0.2505
  409DG     H13 9397   0.304   2.572   4.963 -0.8681  2.7422  0.1933
  409DG     H14 9398   0.331   2.662   4.820 -2.2010  2.0432  0.5466
  409DG     H15 9399   0.284   2.026   4.693  0.4975 -0.4519  0.3018
  409DG     H16 9400   0.300   2.070   4.857 -0.7726 -0.0245  0.1855
  409DG     C17 9401   0.307   2.471   4.751 -0.2346  0.3778  0.0835
  409DG     C18 9402   0.292   2.242   4.719 -0.1013 -0.4465  0.1150
  409DG     O19 9403   0.267   2.346   4.809  0.2225  0.4383  0.0394
  409DG     H20 9404   0.412   2.479   4.725 -0.1708  3.7990  0.9538
  409DG     H21 9405   0.252   2.494   4.659  0.2044  2.1967  0.2489
  409DG     H22 9406   0.400   2.241   4.705 -0.1626  2.0505 -0.8840
  409DG     H23 9407   0.241   2.258   4.624 -1.4194  1.6498  1.0918
  410DG      C1 9408   0.138   1.364   3.784  0.3857  0.6154 -0.2792
  410DG      C2 9409  -0.539   1.190   4.200  0.5795  0.4073  0.0437
  410DG      H3 9410   0.237   1.327   3.757 -0.2141 -1.6293  0.3412
  410DG      H4 9411   0.121   1.470   3.770 -5.2284 -0.1437 -1.5321
  410DG      H5 9412   0.072   1.325   3.706 -0.7233  3.4061 -0.8380
  410DG      H6 9413  -0.601   1.164   4.285 -2.0092 -2.3981 -2.4757
  410DG      H7 9414  -0.516   1.297   4.196 -2.7916  1.2890  1.2145
  410DG      H8 9415  -0.586   1.170   4.104  0.6754  0.2592  0.0276
  410DG      O9 9416   0.084   1.319   3.913  0.0444 -0.1283  0.1303
  410DG     O10 9417  -0.411   1.127   4.219 -0.0632 -0.3036 -0.4579
  410DG     C11 9418   0.125   1.191   3.958 -0.6511  0.5257 -0.1840
  410DG     C12 9419  -0.321   1.154   4.113  0.1909 -0.0159  1.0419
  410DG     H13 9420   0.224   1.189   4.003 -1.7996  0.0068  2.5111
  410DG     H14 9421   0.124   1.116   3.879  1.6703 -0.0377  0.2388
  410DG     H15 9422  -0.320   1.261   4.095  1.9548  0.0803  1.6090
  410DG     H16 9423  -0.341   1.103   4.019  2.9980 -1.0330  0.9188
  410DG     C17 9424   0.043   1.150   4.085  0.3055  0.1259 -0.7016
  410DG     C18 9425  -0.183   1.110   4.157  0.0837  0.1138 -0.0134
  410DG     O19 9426  -0.093   1.141   4.050  0.3143  0.0623  0.2662
  410DG     H20 9427   0.058   1.220   4.167  1.6384 -1.4426  0.4604
  410DG     H21 9428   0.074   1.056   4.130 -1.0982  0.1421  0.3720
  410DG     H22 9429  -0.168   1.154   4.255 -1.5185 -1.8017  1.1674
  410DG     H23 9430  -0.190   1.003   4.175 -1.9231  0.0581 -0.7993
  411DG      C1 9431   1.166   0.930   3.478  0.0493  0.5531  0.2223
  411DG      C2 9432   1.171   0.316   2.938  0.3501  0.5345 -0.3927
  411DG      H3 9433   1.098   1.005   3.519  1.2946  1.7116  0.2239
  411DG      H4 9434   1.244   0.989   3.431  0.5245 -1.1388 -1.2309
  411DG      H5 9435   1.221   0.884   3.560 -0.6808 -1.0535 -0.1282
  411DG      H6 9436   1.128   0.273   2.848  1.4582 -0.8691 -0.2810
  411DG      H7 9437   1.272   0.351   2.918  1.4184 -1.8287  0.4396
  411DG      H8 9438   1.159   0.232   3.007 -0.0097  0.2143 -0.8332
  411DG      O9 9439   1.092   0.850   3.383 -0.5728 -0.3996  0.7039
  411DG     O10 9440   1.081   0.413   3.001  0.2471  0.2208 -0.9240
  411DG     C11 9441   0.994   0.773   3.445 -0.1654 -0.0648 -0.1715
  411DG     C12 9442   1.100   0.436   3.142  0.0261  0.2074  0.1859
  411DG     H13 9443   0.918   0.838   3.488 -1.7162 -1.9864  0.1143
  411DG     H14 9444   1.031   0.714   3.528 -0.6091  0.4947  0.4327
  411DG     H15 9445   1.198   0.479   3.158 -0.4306  1.0631  0.7733
  411DG     H16 9446   1.096   0.348   3.206  1.0255 -0.1108 -0.1776
  411DG     C17 9447   0.916   0.688   3.336  0.2357  0.3122  0.0639
  411DG     C18 9448   0.977   0.526   3.177 -0.5709  0.3320  0.0591
  411DG     O19 9449   1.010   0.583   3.305  0.0368  0.3846  0.1479
  411DG     H20 9450   0.896   0.744   3.245 -0.9646 -1.7112 -0.9685
  411DG     H21 9451   0.818   0.656   3.370  0.1254  0.5113 -0.0644
  411DG     H22 9452   0.960   0.602   3.101 -0.7060  1.5024  1.2153
  411DG     H23 9453   0.889   0.465   3.193  0.3225 -0.9073  0.3540
  412DG      C1 9454   0.137   1.223   1.137  0.4288  0.6095  0.2222
  412DG      C2 9455   0.167   1.952   1.476  0.4287 -0.2662 -0.0967
  412DG      H3 9456   0.042   1.271   1.113  1.1361  1.2386 -1.5433
  412DG      H4 9457   0.115   1.122   1.169 -0.6582  0.9695  0.6586
  412DG      H5 9458   0.187   1.217   1.040  0.8059 -2.3415  0.5146
  412DG      H6 9459   0.058   1.950   1.466  0.5119  0.1272 -1.1986
  412DG      H7 9460   0.205   2.037   1.532  0.6438  0.0583 -0.7260
  412DG      H8 9461   0.194   1.958   1.371  1.8584 -0.6522  0.2298
  412DG      O9 9462   0.207   1.293   1.232  0.5360 -0.7481 -0.3214
  412DG     O10 9463   0.206   1.829   1.542  0.4394 -0.3072  0.5174
  412DG     C11 9464   0.174   1.253   1.363 -0.4004 -0.4076 -0.1084
  412DG     C12 9465   0.151   1.709   1.477  0.9697 -0.4046  0.1269
  412DG     H13 9466   0.210   1.152   1.383 -1.4378 -0.8527 -0.3887
  412DG     H14 9467   0.069   1.251   1.390  0.0634 -1.7453  1.7897
  412DG     H15 9468   0.168   1.717   1.370 -1.3642 -0.2230 -0.2720
  412DG     H16 9469   0.046   1.699   1.501  0.8234  0.0277 -0.3244
  412DG     C17 9470   0.219   1.356   1.472 -0.2872 -0.2410 -0.0491
  412DG     C18 9471   0.219   1.586   1.534 -0.2397 -0.5637  0.2231
  412DG     O19 9472   0.181   1.481   1.437  0.3036  0.3249 -0.4848
  412DG     H20 9473   0.327   1.353   1.486 -0.5674 -0.1557  2.6158
  412DG     H21 9474   0.172   1.330   1.567 -1.9815  0.6168 -0.6102
  412DG     H22 9475   0.328   1.591   1.526 -0.3667  1.8783 -1.0047
  412DG     H23 9476   0.188   1.563   1.635 -1.8583  0.9276  0.1223
  413DG      C1 9477   0.424   0.537   1.792  0.0532 -0.1233 -0.2554
  413DG      C2 9478   0.930   1.109   1.641 -0.0572 -0.2599 -0.1558
  413DG      H3 9479   0.376   0.453   1.741 -2.0794  1.4591 -1.0024
  413DG      H4 9480   0.347   0.614   1.804 -1.0523 -1.4593  1.8456
  413DG      H5 9481   0.446   0.509   1.895  3.1085  1.8387 -0.2740
  413DG      H6 9482   0.869   1.197   1.623  0.6204 -0.0239 -1.3786
  413DG      H7 9483   0.965   1.125   1.743  1.8756 -0.1726 -0.7912
  413DG      H8 9484   1.019   1.134   1.584  0.6071 -1.0844  0.4867
  413DG      O9 9485   0.542   0.579   1.735 -0.5195 -0.4516  0.0622
  413DG     O10 9486   0.874   0.981   1.641  0.4315 -0.4471  0.3877
  413DG     C11 9487   0.520   0.597   1.591 -0.1545 -0.3552 -1.3627
  413DG     C12 9488   0.841   0.945   1.502 -0.0457 -0.0086 -0.5885
  413DG     H13 9489   0.434   0.663   1.575 -1.5239 -1.7881 -0.2637
  413DG     H14 9490   0.492   0.497   1.557  0.9127 -0.8706 -0.7382
  413DG     H15 9491   0.923   0.968   1.434 -0.0137 -0.5748 -0.7421
  413DG     H16 9492   0.763   0.999   1.448  2.2819  3.9022 -0.4505
  413DG     C17 9493   0.636   0.658   1.514  0.1544 -0.4988 -0.1590
  413DG     C18 9494   0.811   0.793   1.504  0.4424 -0.6741  0.2647
  413DG     O19 9495   0.684   0.784   1.560 -0.4138  0.4335 -0.3537
  413DG     H20 9496   0.604   0.663   1.410 -0.0547 -0.7786 -0.1123
  413DG     H21 9497   0.710   0.578   1.527  0.1243 -0.4098  0.6226
  413DG     H22 9498   0.820   0.755   1.403 -3.8773  1.2334 -1.0497
  413DG     H23 9499   0.886   0.743   1.566 -0.9510 -2.5654  0.5341
  414DG      C1 9500   4.183   2.279   1.034 -0.1600 -0.4763 -0.1177
  414DG      C2 9501   3.530   2.197   1.317 -0.0655  0.0761  0.0876
  414DG      H3 9502   4.203   2.330   0.940  1.9144  1.5871  1.3312
  414DG      H4 9503   4.265   2.209   1.049  0.4263  0.3508  0.6388
  414DG      H5 9504   4.188   2.358   1.109 -2.6614 -0.8435  0.5383
  414DG      H6 9505   3.421   2.191   1.316 -0.2093  1.5225 -2.3283
  414DG      H7 9506   3.560   2.171   1.419  1.1812  2.6635  0.4685
  414DG      H8 9507   3.553   2.303   1.302 -1.2101  0.5855  1.6832
  414DG      O9 9508   4.057   2.208   1.027  0.0609  0.2856  0.0493
  414DG     O10 9509   3.591   2.115   1.224 -0.2981 -0.6730 -0.6837
  414DG     C11 9510   3.951   2.300   0.999  0.2292  0.0132 -0.3689
  414DG     C12 9511   3.550   2.138   1.093  0.1174  0.6619 -0.2469
  414DG     H13 9512   3.972   2.368   0.917  0.3312 -0.5788 -0.8420
  414DG     H14 9513   3.930   2.344   1.096  0.2698 -5.1083  2.3104
  414DG     H15 9514   3.537   2.245   1.076 -2.1278  0.6080  0.7461
  414DG     H16 9515   3.449   2.096   1.090 -0.3219  1.1284  3.5691
  414DG     C17 9516   3.814   2.231   0.951 -0.1292 -0.8002  0.1241
  414DG     C18 9517   3.643   2.070   0.994 -0.8027 -0.4756 -0.2019
  414DG     O19 9518   3.782   2.107   1.010 -0.4155  0.6672 -0.2318
  414DG     H20 9519   3.818   2.206   0.845  3.2093  0.4071 -0.1521
  414DG     H21 9520   3.734   2.305   0.962 -0.2877 -0.6008 -1.9772
  414DG     H22 9521   3.634   1.962   0.998  1.1502 -0.8745 -3.2624
  414DG     H23 9522   3.618   2.101   0.892 -0.8058  0.1511 -0.0187
  415DG      C1 9523   4.946   5.071   2.696  0.2736  0.2222  0.3554
  415DG      C2 9524   4.616   5.325   2.205 -0.7891 -0.1876  0.1639
  415DG      H3 9525   4.846   5.116   2.698  0.7155  1.2250  0.4199
  415DG      H4 9526   5.006   5.149   2.744  0.4921  0.2593  0.0198
  415DG      H5 9527   4.951   4.985   2.763 -1.0963  0.8344  1.2823
  415DG      H6 9528   4.626   5.432   2.223  1.9217 -0.4560  0.6818
  415DG      H7 9529   4.597   5.326   2.098  1.5626  1.6200 -0.3381
  415DG      H8 9530   4.543   5.279   2.272  1.3531 -1.0882  2.0300
  415DG      O9 9531   5.003   5.025   2.575 -0.2302  0.1154 -0.2916
  415DG     O10 9532   4.745   5.262   2.232  0.0300 -0.2882  0.2567
  415DG     C11 9533   4.954   5.097   2.466  0.0531 -0.6293 -0.0121
  415DG     C12 9534   4.828   5.260   2.115  0.0529 -0.0303  0.2496
  415DG     H13 9535   5.001   5.195   2.459  0.1024 -0.6760 -0.3256
  415DG     H14 9536   4.846   5.107   2.476  0.1570 -0.7117  1.3729
  415DG     H15 9537   4.861   5.360   2.088  0.3651 -0.7473 -2.2894
  415DG     H16 9538   4.785   5.211   2.028  0.7427 -0.5150  0.1717
  415DG     C17 9539   4.978   5.022   2.332 -0.2424 -0.1002  0.4823
  415DG     C18 9540   4.950   5.178   2.155 -0.4597 -0.1658 -0.2089
  415DG     O19 9541   4.906   5.060   2.215 -0.0895  0.0874 -0.2010
  415DG     H20 9542   4.943   4.921   2.354 -0.5480  0.2547  1.6984
  415DG     H21 9543   5.085   5.006   2.322  0.1649  0.9240  2.7122
  415DG     H22 9544   5.006   5.161   2.063 -0.1284  2.1669 -0.4919
  415DG     H23 9545   5.012   5.236   2.224 -2.8873 -1.6608  3.5737
  416DG      C1 9546   1.214   2.996   5.385 -0.2220  0.0633  0.2863
  416DG      C2 9547   0.869   2.677   4.723  0.5656 -0.2812 -0.3060
  416DG      H3 9548   1.149   3.081   5.365  0.9088  0.5563 -1.4911
  416DG      H4 9549   1.312   3.021   5.345 -0.4464 -1.1328 -1.0750
  416DG      H5 9550   1.217   2.976   5.492  1.2798  2.9198  0.8597
  416DG      H6 9551   0.952   2.687   4.652  0.8001  0.6416  0.0806
  416DG      H7 9552   0.819   2.581   4.713 -0.8325  0.1159  2.0137
  416DG      H8 9553   0.799   2.758   4.705 -0.0909 -0.3824  1.5769
  416DG      O9 9554   1.167   2.883   5.307  0.7634 -0.2538 -0.2350
  416DG     O10 9555   0.907   2.693   4.866  0.0552  0.1198  0.0500
  416DG     C11 9556   1.037   2.836   5.343  0.2730  0.2550 -0.2621
  416DG     C12 9557   1.015   2.608   4.905  0.3227  1.0200  0.3154
  416DG     H13 9558   0.965   2.911   5.309 -0.4240  0.0684  0.7876
  416DG     H14 9559   1.018   2.820   5.449 -1.7011 -1.1931 -0.7748
  416DG     H15 9560   1.117   2.635   4.877  1.9473 -1.6614  3.0270
  416DG     H16 9561   1.001   2.512   4.856 -0.7805  1.0349  0.5958
  416DG     C17 9562   1.018   2.694   5.272 -0.2106 -0.8551  0.1032
  416DG     C18 9563   1.004   2.579   5.062 -0.2538 -0.7115  0.0568
  416DG     O19 9564   1.043   2.699   5.134  0.6197  0.4311 -0.3336
  416DG     H20 9565   0.917   2.656   5.281 -0.3145 -0.5648  0.1824
  416DG     H21 9566   1.090   2.622   5.312  0.4717  0.3980  1.2492
  416DG     H22 9567   0.903   2.549   5.090 -0.7841  1.7609  1.0697
  416DG     H23 9568   1.078   2.509   5.101  1.7505  1.4923  0.5116
  417DG      C1 9569   0.160   4.672   2.498  0.3013  0.7306 -0.4533
  417DG      C2 9570   0.767   4.378   2.364 -0.6406  0.7319 -0.1211
  417DG      H3 9571   0.157   4.614   2.591 -0.7061 -0.8973 -1.4573
  417DG      H4 9572   0.102   4.609   2.431 -2.0921  0.5412  1.6431
  417DG      H5 9573   0.103   4.764   2.506 -0.7223  0.1138 -0.5603
  417DG      H6 9574   0.865   4.417   2.337  0.3217 -0.6420  1.2240
  417DG      H7 9575   0.784   4.344   2.466  0.1425  1.5112  0.0180
  417DG      H8 9576   0.728   4.302   2.296  0.4982  0.9332 -1.0350
  417DG      O9 9577   0.294   4.691   2.458  0.3897 -0.0146  0.8222
  417DG     O10 9578   0.687   4.494   2.359 -0.3630 -0.1133  0.2298
  417DG     C11 9579   0.302   4.788   2.356  0.8730 -0.4427 -0.3574
  417DG     C12 9580   0.694   4.562   2.231  0.0721 -0.2227 -0.1845
  417DG     H13 9581   0.258   4.883   2.386 -0.8665 -1.4929  0.5737
  417DG     H14 9582   0.258   4.748   2.264  1.0989 -1.3585 -0.0753
  417DG     H15 9583   0.651   4.498   2.154 -1.2626 -0.4411  0.7075
  417DG     H16 9584   0.794   4.576   2.190  0.5582 -2.6115  0.0634
  417DG     C17 9585   0.438   4.825   2.307 -0.2692  0.0880 -0.2923
  417DG     C18 9586   0.626   4.704   2.242  0.3913 -0.3735  0.3338
  417DG     O19 9587   0.493   4.701   2.288 -0.1451  0.2156  0.2069
  417DG     H20 9588   0.486   4.879   2.388 -1.1935  2.5312 -1.2748
  417DG     H21 9589   0.441   4.883   2.215 -0.7199 -0.7590 -0.8576
  417DG     H22 9590   0.685   4.775   2.299 -0.3959  0.0778  0.5903
  417DG     H23 9591   0.628   4.734   2.137 -0.9751 -2.2044 -0.2593
  418DG      C1 9592   2.436   4.832   3.368  0.2139 -0.1331 -0.0939
  418DG      C2 9593   3.108   4.537   3.076  0.6911 -0.4908  0.5962
  418DG      H3 9594   2.455   4.929   3.322  0.9988 -0.7873 -1.1996
  418DG      H4 9595   2.399   4.857   3.467 -2.5021 -2.3912 -0.3971
  418DG      H5 9596   2.354   4.792   3.308  1.1230 -0.6357 -1.0459
  418DG      H6 9597   3.125   4.491   3.173 -0.9341 -0.3726  0.9760
  418DG      H7 9598   3.078   4.471   2.994  1.1848  1.2086 -1.0291
  418DG      H8 9599   3.204   4.579   3.046 -0.0810  1.5709  0.8176
  418DG      O9 9600   2.559   4.759   3.354 -0.7766 -0.1921  0.5724
  418DG     O10 9601   3.027   4.656   3.078  0.0990  0.6852 -0.7691
  418DG     C11 9602   2.655   4.816   3.438  0.3609 -0.5908 -0.3386
  418DG     C12 9603   3.057   4.747   3.184 -0.2944  0.7342  0.4027
  418DG     H13 9604   2.612   4.837   3.537  1.3036 -0.9168  0.1554
  418DG     H14 9605   2.678   4.916   3.401 -0.2935 -0.8267 -1.4297
  418DG     H15 9606   3.044   4.852   3.157 -1.8792  0.2082 -1.1053
  418DG     H16 9607   3.162   4.733   3.209  0.9130  2.6359 -3.0228
  418DG     C17 9608   2.787   4.740   3.439 -0.1725 -0.0462 -0.1919
  418DG     C18 9609   2.989   4.714   3.318 -0.0194  0.4487  0.3873
  418DG     O19 9610   2.850   4.738   3.311 -0.1728 -0.0196  0.2357
  418DG     H20 9611   2.781   4.637   3.475  0.4342 -0.2222 -0.5819
  418DG     H21 9612   2.844   4.803   3.508 -3.2085  2.7173  0.0377
  418DG     H22 9613   3.018   4.613   3.346  0.3841  0.6824  0.8524
  418DG     H23 9614   3.033   4.783   3.391  2.2527  2.3265 -2.5008
  419DG      C1 9615   3.368   3.842   2.307 -0.0465 -0.4877  0.0568
  419DG      C2 9616   3.221   4.439   2.035  0.3392  0.5995 -0.2848
  419DG      H3 9617   3.277   3.890   2.269  0.3528 -0.8845 -1.4487
  419DG      H4 9618   3.343   3.795   2.402  2.2043 -1.2957  0.3046
  419DG      H5 9619   3.403   3.771   2.232  0.1755 -1.0416  0.6832
  419DG      H6 9620   3.170   4.508   2.103  0.0567  0.8683 -0.7690
  419DG      H7 9621   3.204   4.481   1.936  1.0433  0.6324 -0.3916
  419DG      H8 9622   3.175   4.341   2.052  3.3913 -0.6901  1.2874
  419DG      O9 9623   3.462   3.940   2.334 -0.0114  0.2295  0.1816
  419DG     O10 9624   3.366   4.424   2.046  0.0663  0.1125 -0.5700
  419DG     C11 9625   3.407   4.048   2.411 -0.2072 -0.5758 -0.0255
  419DG     C12 9626   3.414   4.410   2.180  0.1662  0.1671 -0.2193
  419DG     H13 9627   3.398   4.014   2.514 -1.3214  0.3094  0.1899
  419DG     H14 9628   3.307   4.086   2.391  0.7375  2.2356  0.0683
  419DG     H15 9629   3.372   4.475   2.257 -1.4435 -1.5110  0.4100
  419DG     H16 9630   3.516   4.448   2.173 -0.1649  0.9756 -0.7714
  419DG     C17 9631   3.521   4.143   2.409 -0.3494 -0.1321 -0.3941
  419DG     C18 9632   3.426   4.268   2.222 -0.3999 -0.0876 -0.2878
  419DG     O19 9633   3.474   4.263   2.358  0.0750 -0.3449  0.1886
  419DG     H20 9634   3.604   4.109   2.347 -0.6104  1.2822 -1.5873
  419DG     H21 9635   3.540   4.167   2.514 -1.2776  3.1122 -0.8410
  419DG     H22 9636   3.324   4.228   2.218  0.3185 -2.0146 -0.6264
  419DG     H23 9637   3.495   4.206   2.164  0.9439 -0.6312  1.7614
  420DG      C1 9638   3.878   2.268   0.262  0.6020  0.3396  0.5147
  420DG      C2 9639   4.454   1.887   0.488 -0.3493 -0.6377 -0.1157
  420DG      H3 9640   3.864   2.213   0.356 -2.2490 -1.3113 -0.7495
  420DG      H4 9641   3.780   2.268   0.215  0.8852  1.4306 -0.0964
  420DG      H5 9642   3.890   2.371   0.295 -0.7471  0.6478  0.1043
  420DG      H6 9643   4.475   1.780   0.495 -0.3501 -0.6580 -0.3853
  420DG      H7 9644   4.550   1.939   0.491 -0.3863 -0.5183 -0.8317
  420DG      H8 9645   4.410   1.924   0.581  0.5067  2.7597 -0.9098
  420DG      O9 9646   3.987   2.225   0.182  0.3513  0.4185 -0.6030
  420DG     O10 9647   4.376   1.926   0.375 -0.1641  0.3397  0.4193
  420DG     C11 9648   3.973   2.088   0.146 -0.1792  0.0297  0.3889
  420DG     C12 9649   4.353   2.066   0.373  0.2052 -0.2585  0.0173
  420DG     H13 9650   3.901   2.088   0.064  1.5658  0.3652 -1.1870
  420DG     H14 9651   3.937   2.013   0.218  0.0080 -1.0918 -0.6573
  420DG     H15 9652   4.451   2.112   0.382 -0.6293  1.2168  2.4633
  420DG     H16 9653   4.306   2.113   0.459  0.6795  0.2483  0.0057
  420DG     C17 9654   4.103   2.031   0.092 -0.4297 -0.6010 -0.5927
  420DG     C18 9655   4.288   2.107   0.239  0.0159 -0.2585  0.1512
  420DG     O19 9656   4.197   2.007   0.197 -0.4870 -0.1627  0.1271
  420DG     H20 9657   4.140   2.087   0.006 -0.7793 -1.7034 -1.4804
  420DG     H21 9658   4.081   1.928   0.064  0.5283 -0.8673 -0.4212
  420DG     H22 9659   4.234   2.198   0.264 -0.1120  0.2956 -1.9504
  420DG     H23 9660   4.356   2.138   0.159  0.9146 -0.0321  0.9758
  421DG      C1 9661   4.035   4.993   1.327 -0.5242 -0.4829  0.4660
  421DG      C2 9662   4.402   5.368   0.654 -0.5620  0.3735 -0.4780
  421DG      H3 9663   3.990   4.899   1.298 -1.1440 -0.6490  1.9024
  421DG      H4 9664   3.963   5.063   1.371  1.0679  1.1523  0.6068
  421DG      H5 9665   4.107   4.973   1.406 -0.5820  0.3039  0.7326
  421DG      H6 9666   4.333   5.450   0.675  2.2706  2.6549  0.5780
  421DG      H7 9667   4.483   5.356   0.726 -0.2199 -3.0151 -1.2709
  421DG      H8 9668   4.449   5.352   0.557  0.1322  0.2377 -0.1254
  421DG      O9 9669   4.097   5.044   1.208 -0.4758  0.5551 -0.0058
  421DG     O10 9670   4.314   5.258   0.666  0.8899  0.2910  0.3798
  421DG     C11 9671   4.174   4.943   1.139  0.0172 -1.0845 -0.2226
  421DG     C12 9672   4.274   5.224   0.797  0.4471  0.2121  0.1585
  421DG     H13 9673   4.118   4.857   1.103  1.3043 -1.2353 -1.9564
  421DG     H14 9674   4.247   4.900   1.209  0.9903 -1.2480 -1.3130
  421DG     H15 9675   4.219   5.312   0.829 -0.6174  0.4731 -2.1689
  421DG     H16 9676   4.362   5.231   0.861  0.7965  1.1768 -0.3980
  421DG     C17 9677   4.244   5.011   1.021  0.9414 -0.0761 -0.4057
  421DG     C18 9678   4.190   5.095   0.805 -0.1306 -0.1325  0.0787
  421DG     O19 9679   4.143   5.065   0.932  0.3490  0.1953 -0.2992
  421DG     H20 9680   4.303   4.935   0.969  0.7037 -0.3053 -0.3456
  421DG     H21 9681   4.309   5.094   1.048  0.9990 -0.0625 -0.5878
  421DG     H22 9682   4.099   5.105   0.745 -1.1470 -0.4237  1.5281
  421DG     H23 9683   4.237   5.013   0.752 -2.1563 -0.8390 -0.7344
  422DG      C1 9684   1.482   3.975   0.956 -1.1871  0.2942  0.1902
  422DG      C2 9685   0.689   4.093   0.815 -0.3135  0.0911 -0.0829
  422DG      H3 9686   1.435   3.877   0.958 -1.5976  0.3817 -2.0194
  422DG      H4 9687   1.525   4.005   1.051 -0.1122  1.1155 -0.5353
  422DG      H5 9688   1.576   3.963   0.902 -1.9922 -1.1807 -0.9680
  422DG      H6 9689   0.628   4.179   0.789  0.7269  0.3952 -1.6783
  422DG      H7 9690   0.652   4.012   0.753 -0.1304 -1.6302  1.9363
  422DG      H8 9691   0.677   4.065   0.920 -1.7966 -2.4797 -0.8550
  422DG      O9 9692   1.411   4.081   0.891  0.4067 -0.7688 -0.2845
  422DG     O10 9693   0.828   4.112   0.792  0.1873 -0.4230 -0.2026
  422DG     C11 9694   1.331   4.038   0.786 -0.0070  0.0910 -0.0905
  422DG     C12 9695   0.893   4.235   0.835  0.2019 -0.3727 -0.1020
  422DG     H13 9696   1.279   3.950   0.821 -0.3838  0.8741  1.3867
  422DG     H14 9697   1.390   4.011   0.698 -1.1561  0.0329 -0.8672
  422DG     H15 9698   0.908   4.248   0.942 -1.7114  1.4729  0.0126
  422DG     H16 9699   0.825   4.311   0.797 -1.3861 -2.4594 -1.7251
  422DG     C17 9700   1.237   4.148   0.729  0.2987 -0.2650 -0.0914
  422DG     C18 9701   1.019   4.246   0.760  0.4638  0.2736  0.4637
  422DG     O19 9702   1.117   4.155   0.807  0.0978 -0.1577 -0.3737
  422DG     H20 9703   1.211   4.126   0.626  0.1649  1.4890 -0.4680
  422DG     H21 9704   1.281   4.246   0.709 -0.2809  0.5523  2.3071
  422DG     H22 9705   0.998   4.234   0.654  3.3696 -3.2233  0.1063
  422DG     H23 9706   1.066   4.344   0.768  0.8920  0.4087 -2.5466
  423DG      C1 9707   2.720   4.374   4.358  0.1129  0.0651  0.5967
  423DG      C2 9708   3.282   4.275   4.024 -0.4469 -0.2027 -0.0766
  423DG      H3 9709   2.671   4.336   4.448  0.2194 -0.9424  0.2321
  423DG      H4 9710   2.662   4.390   4.268  2.6827  2.0089 -0.8498
  423DG      H5 9711   2.756   4.474   4.381 -0.1111  0.6476 -1.3897
  423DG      H6 9712   3.322   4.369   4.063  0.9208 -1.1703  0.9326
  423DG      H7 9713   3.372   4.215   4.014  0.5947  1.2353  0.2666
  423DG      H8 9714   3.228   4.292   3.931 -0.6686  1.3266  0.2917
  423DG      O9 9715   2.820   4.270   4.329  0.5658 -0.4879  0.1927
  423DG     O10 9716   3.204   4.215   4.122 -0.0530 -0.7127 -0.3500
  423DG     C11 9717   2.755   4.150   4.279 -0.1732 -0.2636  0.1160
  423DG     C12 9718   3.183   4.075   4.097  0.2701  0.4198 -1.0474
  423DG     H13 9719   2.713   4.178   4.182  2.9986 -0.5662 -1.4956
  423DG     H14 9720   2.668   4.115   4.335 -0.7309 -1.1440 -1.2457
  423DG     H15 9721   3.277   4.021   4.108 -1.3221 -2.0093  2.0678
  423DG     H16 9722   3.145   4.058   3.996  2.7869 -0.0909 -1.9995
  423DG     C17 9723   2.871   4.048   4.277 -0.7159  0.4358 -0.4260
  423DG     C18 9724   3.081   4.006   4.190 -0.2422 -0.2621  0.1675
  423DG     O19 9725   2.967   4.093   4.193  0.4290 -0.2153  1.0979
  423DG     H20 9726   2.830   3.952   4.249 -1.0081 -0.2093  2.0081
  423DG     H21 9727   2.909   4.028   4.377 -0.2821  2.2094 -0.1859
  423DG     H22 9728   3.045   3.914   4.145 -1.5175  0.8865 -1.2681
  423DG     H23 9729   3.114   3.978   4.290 -0.2520 -0.8585  0.0067
  424DG      C1 9730   2.904   3.082   1.912  1.0695  0.1759  0.5036
  424DG      C2 9731   2.115   2.668   1.607 -0.0907 -0.0774 -0.0009
  424DG      H3 9732   2.952   2.985   1.924  0.7464 -0.2675 -1.4144
  424DG      H4 9733   2.948   3.152   1.983  0.5160  0.7756  0.2657
  424DG      H5 9734   2.926   3.124   1.813 -2.9145 -0.1330 -0.7069
  424DG      H6 9735   2.080   2.601   1.686 -0.2850  1.2682  1.0776
  424DG      H7 9736   2.027   2.680   1.545 -0.0954  0.4146  0.1004
  424DG      H8 9737   2.186   2.606   1.552 -1.1117 -0.2907 -1.0994
  424DG      O9 9738   2.762   3.075   1.935 -0.2266  0.0859 -0.2729
  424DG     O10 9739   2.174   2.789   1.658  0.4356 -0.0194 -0.3545
  424DG     C11 9740   2.704   2.973   1.856 -0.1211 -0.2484 -0.2517
  424DG     C12 9741   2.303   2.768   1.713  0.0351  0.2794  0.2293
  424DG     H13 9742   2.743   2.874   1.880 -0.8408 -0.6931 -0.8798
  424DG     H14 9743   2.725   3.000   1.752  0.4196  1.3097  0.2405
  424DG     H15 9744   2.365   2.738   1.628 -0.2786 -1.2420  0.4969
  424DG     H16 9745   2.294   2.681   1.779 -3.7114  0.8332  0.6537
  424DG     C17 9746   2.559   2.975   1.885 -0.1358 -0.9612  0.0408
  424DG     C18 9747   2.353   2.878   1.805 -0.1122 -0.3734  0.2184
  424DG     O19 9748   2.497   2.888   1.790  0.0788  0.0925 -0.2648
  424DG     H20 9749   2.528   3.079   1.875  0.6208 -0.6840  0.5554
  424DG     H21 9750   2.542   2.943   1.987  0.6925  1.1766  0.9143
  424DG     H22 9751   2.315   2.978   1.783  0.4859 -0.0212  0.7521
  424DG     H23 9752   2.319   2.868   1.908  0.5561  1.0361  0.5956
  425DG      C1 9753   1.077   4.973   5.349  0.0467  0.3040  0.3653
  425DG      C2 9754   0.568   4.844   5.475 -0.5578 -0.0565 -0.5807
  425DG      H3 9755   1.165   4.913   5.327 -0.0635  0.1861  0.2393
  425DG      H4 9756   1.071   5.082   5.344 -0.2780  0.4212  2.3823
  425DG      H5 9757   1.002   4.947   5.274 -0.6138 -1.4775  1.5959
  425DG      H6 9758   0.501   4.766   5.509  1.1990 -1.0191  0.8403
  425DG      H7 9759   0.526   4.899   5.391  0.6608  0.2388 -1.0146
  425DG      H8 9760   0.663   4.802   5.443 -1.5336 -3.6627  0.8415
  425DG      O9 9761   1.034   4.949   5.477 -0.5951  0.3299  0.7431
  425DG     O10 9762   0.589   4.924   5.590  0.5290 -0.2330  0.9021
  425DG     C11 9763   0.918   5.017   5.525 -0.3873  0.2013 -0.1768
  425DG     C12 9764   0.648   4.857   5.702 -0.3106 -0.3090  0.0437
  425DG     H13 9765   0.826   4.988   5.474  0.3117  1.6893 -2.4084
  425DG     H14 9766   0.923   5.124   5.505 -1.4566  0.7637  2.1455
  425DG     H15 9767   0.719   4.777   5.683 -1.8927 -1.6942 -0.2945
  425DG     H16 9768   0.570   4.801   5.753 -1.8693  0.1847 -1.6655
  425DG     C17 9769   0.920   4.991   5.685  0.2087  0.1785  0.0638
  425DG     C18 9770   0.707   4.953   5.800 -0.1897  0.3677  0.0048
  425DG     O19 9771   0.790   5.040   5.732 -0.3898  0.6521  0.2396
  425DG     H20 9772   0.996   5.059   5.724 -0.2131  1.2130 -0.8883
  425DG     H21 9773   0.956   4.891   5.711  3.0551  1.3756  1.0841
  425DG     H22 9774   0.627   5.011   5.846 -1.6774 -0.0875 -1.8811
  425DG     H23 9775   0.765   4.901   5.876 -0.3771  0.4046  0.1720
  426DG      C1 9776   3.606   1.845   0.011 -0.2902 -0.4181  0.0002
  426DG      C2 9777   3.264   1.319   0.509  0.0123 -0.5464  0.6803
  426DG      H3 9778   3.680   1.777   0.054 -0.2504  0.2646  1.0432
  426DG      H4 9779   3.576   1.920   0.084 -1.9012 -2.8364  2.0131
  426DG      H5 9780   3.636   1.881  -0.087  2.0973 -0.1416  0.7650
  426DG      H6 9781   3.253   1.384   0.596 -1.6302 -2.1337  1.7285
  426DG      H7 9782   3.169   1.304   0.457  1.0861 -2.7503 -0.7881
  426DG      H8 9783   3.297   1.223   0.548  0.6491 -0.2725  0.8275
  426DG      O9 9784   3.493   1.777  -0.033 -0.0851  0.2667  0.2347
  426DG     O10 9785   3.361   1.382   0.430  0.6014 -0.1412 -0.0987
  426DG     C11 9786   3.427   1.694   0.063 -0.1205  0.2326  0.0847
  426DG     C12 9787   3.418   1.305   0.325 -0.6521  0.3061 -0.5935
  426DG     H13 9788   3.329   1.666   0.023  0.1291 -0.3123 -0.1642
  426DG     H14 9789   3.417   1.747   0.157 -1.0657 -0.2964  0.2948
  426DG     H15 9790   3.352   1.241   0.267 -0.4261  0.8466 -1.4573
  426DG     H16 9791   3.471   1.237   0.392  0.3983  0.2069 -1.5121
  426DG     C17 9792   3.503   1.553   0.074  0.0249 -0.1767 -0.1091
  426DG     C18 9793   3.510   1.392   0.239 -0.1520  0.0765 -0.0061
  426DG     O19 9794   3.435   1.480   0.172  0.5126 -0.6243 -0.4217
  426DG     H20 9795   3.608   1.560   0.101  0.5664 -1.7102 -1.5787
  426DG     H21 9796   3.486   1.500  -0.021 -3.2496 -1.2520  0.9337
  426DG     H22 9797   3.580   1.448   0.301  1.3243  0.0033 -1.5634
  426DG     H23 9798   3.567   1.321   0.179 -0.4862 -2.0543  2.0255
  427DG      C1 9799   3.655   4.495   5.464  0.1886 -0.7662 -0.1975
  427DG      C2 9800   3.073   4.982   5.618  0.5293 -0.3596 -0.0886
  427DG      H3 9801   3.661   4.501   5.355  1.0195  2.8820 -0.0740
  427DG      H4 9802   3.572   4.431   5.495 -1.1180  0.6892 -0.5873
  427DG      H5 9803   3.749   4.460   5.507  0.1277 -0.1822  0.4146
  427DG      H6 9804   3.076   5.091   5.627  2.1323 -0.3504 -0.4048
  427DG      H7 9805   3.055   4.949   5.515 -0.4325 -2.5249  0.7246
  427DG      H8 9806   2.995   4.932   5.676  0.7324 -2.6710 -1.6942
  427DG      O9 9807   3.635   4.630   5.518  0.2128  0.0875  0.0934
  427DG     O10 9808   3.199   4.946   5.676  0.2160 -0.1838  0.4422
  427DG     C11 9809   3.598   4.628   5.659  0.1484 -0.1148 -0.6933
  427DG     C12 9810   3.309   4.996   5.596  0.4684 -0.1595  0.0478
  427DG     H13 9811   3.678   4.577   5.713  1.2468  0.3888 -1.7941
  427DG     H14 9812   3.510   4.569   5.685 -1.3564  2.0817 -0.5184
  427DG     H15 9813   3.304   5.104   5.580 -0.1743  0.2928  2.8068
  427DG     H16 9814   3.300   4.947   5.499 -0.4467  0.3510 -0.1360
  427DG     C17 9815   3.577   4.775   5.708  0.4801 -0.1462  0.1711
  427DG     C18 9816   3.440   4.964   5.663 -0.3919  0.2320  0.0512
  427DG     O19 9817   3.465   4.824   5.649  0.6295 -0.3446  0.4153
  427DG     H20 9818   3.667   4.829   5.679 -0.1702  0.9097  0.1036
  427DG     H21 9819   3.564   4.774   5.816  0.3864 -0.8425  0.1640
  427DG     H22 9820   3.526   5.021   5.626 -0.2816  0.1999  0.2596
  427DG     H23 9821   3.432   4.998   5.766  0.0768 -2.6152  1.1078
  428DG      C1 9822   5.310   3.377   3.774 -0.0259 -0.3114  0.5281
  428DG      C2 9823   4.809   2.919   3.732 -0.7510 -0.0058  0.5640
  428DG      H3 9824   5.390   3.319   3.821 -1.4536 -1.6853  1.3575
  428DG      H4 9825   5.326   3.484   3.763 -2.2812 -0.1677 -2.9704
  428DG      H5 9826   5.289   3.354   3.669 -1.3769  1.5620  0.3472
  428DG      H6 9827   4.807   2.932   3.624  0.6446  0.2037  0.5571
  428DG      H7 9828   4.883   2.839   3.736 -1.4175 -0.7296 -0.7684
  428DG      H8 9829   4.715   2.875   3.768 -0.4633 -1.2134 -0.0916
  428DG      O9 9830   5.193   3.356   3.849 -0.0376  0.6281  0.7949
  428DG     O10 9831   4.856   3.034   3.800 -0.8979  0.2934 -0.1086
  428DG     C11 9832   5.196   3.340   3.987 -0.2670 -0.5104  0.2269
  428DG     C12 9833   4.849   3.029   3.942  0.5737  0.2476 -0.8564
  428DG     H13 9834   5.217   3.437   4.032 -2.5478 -0.0909  0.4965
  428DG     H14 9835   5.268   3.267   4.023  0.1535 -0.0390  0.3566
  428DG     H15 9836   4.907   2.951   3.992 -0.2192 -0.0106 -0.3237
  428DG     H16 9837   4.747   3.007   3.972  0.2434  1.0655 -1.3465
  428DG     C17 9838   5.058   3.312   4.041  0.3755  0.2747  0.7320
  428DG     C18 9839   4.875   3.163   4.004 -0.8190  0.2644 -0.2930
  428DG     O19 9840   5.008   3.202   3.969  0.4107  0.0480  0.0117
  428DG     H20 9841   5.000   3.397   4.006 -1.4545 -0.6156  1.4722
  428DG     H21 9842   5.063   3.312   4.150 -1.1436  1.4440  0.8376
  428DG     H22 9843   4.791   3.229   3.986 -1.0580  0.3828  1.1506
  428DG     H23 9844   4.880   3.141   4.111 -2.1727 -0.1711 -0.2983
  429DG      C1 9845   2.614   1.516   5.123  0.0071 -0.0427 -0.1003
  429DG      C2 9846   1.907   1.578   5.349  0.5904 -0.2991 -0.7011
  429DG      H3 9847   2.712   1.542   5.165 -0.5176  0.1686  1.0345
  429DG      H4 9848   2.597   1.596   5.051  2.5110  2.0412  1.4446
  429DG      H5 9849   2.624   1.421   5.070  1.4718  0.1816 -0.2768
  429DG      H6 9850   1.847   1.531   5.271 -1.0057  0.3466  0.0991
  429DG      H7 9851   1.854   1.585   5.443 -1.0648 -0.3651 -1.5896
  429DG      H8 9852   1.934   1.676   5.310  0.6232 -0.4014 -0.9376
  429DG      O9 9853   2.506   1.501   5.209  0.2488 -0.1875  0.8376
  429DG     O10 9854   2.024   1.499   5.371 -0.1901 -0.9167 -0.4029
  429DG     C11 9855   2.507   1.385   5.282  0.5364  0.6588  0.1601
  429DG     C12 9856   2.119   1.566   5.453  0.5841  0.5418  0.3640
  429DG     H13 9857   2.609   1.358   5.311  0.0132 -0.9607  0.5698
  429DG     H14 9858   2.469   1.298   5.229  0.2434  2.0742 -2.1062
  429DG     H15 9859   2.071   1.617   5.536 -0.2674  0.7080 -0.2157
  429DG     H16 9860   2.175   1.641   5.398  2.2562  0.6344  2.0858
  429DG     C17 9861   2.434   1.411   5.409  0.2829 -0.1081  0.0224
  429DG     C18 9862   2.226   1.471   5.497 -0.4646 -0.1576 -0.1953
  429DG     O19 9863   2.302   1.456   5.378  0.0374  0.4380  0.2031
  429DG     H20 9864   2.481   1.488   5.471  1.9788 -0.6784 -0.5076
  429DG     H21 9865   2.435   1.329   5.482  0.0711  0.9464  1.2512
  429DG     H22 9866   2.269   1.528   5.579 -0.7995 -3.1626  2.2485
  429DG     H23 9867   2.182   1.379   5.537  0.2455 -0.2810  0.3144
  430DG      C1 9868   4.064   3.723   2.575 -0.1075 -1.2356 -0.8318
  430DG      C2 9869   4.457   3.432   2.119  0.2869 -0.6293 -0.6882
  430DG      H3 9870   3.969   3.714   2.627 -0.2826 -2.7093 -1.3630
  430DG      H4 9871   4.036   3.777   2.484 -0.4278  0.1568  0.0756
  430DG      H5 9872   4.134   3.788   2.628  0.8683 -1.6665 -1.5433
  430DG      H6 9873   4.500   3.531   2.135  1.2430 -1.2136  0.4910
  430DG      H7 9874   4.535   3.370   2.077 -0.7935 -0.6815 -2.7315
  430DG      H8 9875   4.394   3.436   2.030 -0.0743 -2.0575 -0.5111
  430DG      O9 9876   4.116   3.596   2.553 -0.2786 -0.0407  0.1878
  430DG     O10 9877   4.399   3.401   2.242 -0.2267 -0.4110  0.4764
  430DG     C11 9878   4.014   3.502   2.511  0.2005  0.1375  0.1451
  430DG     C12 9879   4.334   3.275   2.242 -0.0141  0.0483  0.2878
  430DG     H13 9880   3.970   3.539   2.418 -0.6851 -1.4292 -0.0868
  430DG     H14 9881   3.931   3.497   2.581  0.0087  0.6297 -0.0415
  430DG     H15 9882   4.412   3.198   2.239  0.6859  0.7348  0.4636
  430DG     H16 9883   4.262   3.272   2.161  0.2898  0.6824 -0.0168
  430DG     C17 9884   4.091   3.369   2.489  0.1394  0.1471 -0.5162
  430DG     C18 9885   4.271   3.265   2.376 -0.2355 -0.4947 -0.0216
  430DG     O19 9886   4.179   3.370   2.382  0.0066 -0.2766  0.7234
  430DG     H20 9887   4.032   3.278   2.475  0.7074 -0.1702 -0.8698
  430DG     H21 9888   4.140   3.348   2.584 -0.0957  0.7548 -0.2537
  430DG     H22 9889   4.231   3.163   2.383  0.2828 -0.6491  0.9805
  430DG     H23 9890   4.351   3.275   2.449  0.9120  1.2979 -1.4452
  431DG      C1 9891   0.873   0.391   5.447 -0.6385  0.0335  0.3230
  431DG      C2 9892   1.335   0.094   4.817  0.0442  0.1196 -0.0983
  431DG      H3 9893   0.788   0.457   5.459 -0.2310  0.9998 -1.6020
  431DG      H4 9894   0.923   0.371   5.542  1.3902 -2.9233 -1.2045
  431DG      H5 9895   0.833   0.299   5.404  0.9508 -1.1065  1.1739
  431DG      H6 9896   1.411   0.018   4.832 -1.3531 -1.2060  0.5351
  431DG      H7 9897   1.242   0.037   4.822 -0.3634  0.7146 -0.6705
  431DG      H8 9898   1.356   0.114   4.712  0.7552  0.7080  0.1481
  431DG      O9 9899   0.953   0.455   5.346 -0.2791  0.4083  0.0386
  431DG     O10 9900   1.338   0.208   4.902  0.2216  0.1883 -0.3295
  431DG     C11 9901   1.061   0.374   5.295  0.1602  0.0579 -1.2247
  431DG     C12 9902   1.251   0.310   4.863 -0.1900 -0.3301  0.7843
  431DG     H13 9903   1.015   0.282   5.260 -1.8390 -0.1422  1.5664
  431DG     H14 9904   1.118   0.329   5.377  0.3748 -0.1181 -1.4699
  431DG     H15 9905   1.149   0.273   4.854 -0.1717 -1.6712  4.4454
  431DG     H16 9906   1.287   0.349   4.767  0.1866  0.8925  1.4070
  431DG     C17 9907   1.147   0.441   5.196 -0.3843 -0.4411  0.0179
  431DG     C18 9908   1.250   0.409   4.984 -0.8618 -0.1701  0.1069
  431DG     O19 9909   1.187   0.348   5.092  0.2574  0.0866 -0.1364
  431DG     H20 9910   1.237   0.476   5.247 -0.4225 -3.2017  2.2111
  431DG     H21 9911   1.096   0.529   5.157 -1.2998 -0.0143  2.0642
  431DG     H22 9912   1.346   0.446   5.020 -1.1284 -0.6089  1.3263
  431DG     H23 9913   1.194   0.495   4.946 -0.1450  0.4652  0.4709
  432DG      C1 9914   4.984   3.422   3.028  0.3469 -0.3362  0.3291
  432DG      C2 9915   5.300   2.801   2.846  0.1445  0.7610  0.6890
  432DG      H3 9916   5.066   3.489   3.056 -1.0317  1.5015  0.2178
  432DG      H4 9917   4.886   3.458   3.062 -0.0046 -1.7887  0.9024
  432DG      H5 9918   4.994   3.418   2.920 -2.5507 -1.1681  0.0148
  432DG      H6 9919   5.403   2.800   2.811 -0.5523  0.8132 -1.4646
  432DG      H7 9920   5.288   2.696   2.870 -0.2091  0.1513 -1.8722
  432DG      H8 9921   5.233   2.824   2.763 -0.6615 -0.0873  1.0885
  432DG      O9 9922   5.003   3.292   3.088 -0.1664 -0.2777 -0.0028
  432DG     O10 9923   5.283   2.870   2.966  0.2849 -0.3395  0.2280
  432DG     C11 9924   4.905   3.193   3.056 -0.4033  0.3221 -0.4556
  432DG     C12 9925   5.155   2.841   3.020 -0.2524 -0.2039  0.0370
  432DG     H13 9926   4.884   3.195   2.949  3.2276  0.8677 -1.2768
  432DG     H14 9927   4.809   3.224   3.098 -1.1247 -2.5633  0.2733
  432DG     H15 9928   5.152   2.735   3.045 -0.9931  0.2067  1.9055
  432DG     H16 9929   5.070   2.854   2.952 -1.1610 -0.6359  1.0525
  432DG     C17 9930   4.940   3.053   3.106 -0.7794  0.4052 -0.0935
  432DG     C18 9931   5.128   2.918   3.151  0.2980 -0.0613  0.9069
  432DG     O19 9932   5.078   3.048   3.122  0.5020  0.2108  0.4270
  432DG     H20 9933   4.904   2.973   3.041 -1.4577  1.5089 -1.1258
  432DG     H21 9934   4.891   3.040   3.203  0.4987  1.4316  0.7204
  432DG     H22 9935   5.062   2.864   3.219  1.4110 -2.0499  0.4873
  432DG     H23 9936   5.228   2.923   3.194  1.0651 -1.0027 -0.6498
  433DG      C1 9937   5.254   4.390   3.170 -0.3530  0.3607 -0.1328
  433DG      C2 9938   5.658   4.952   3.013  0.3156 -0.7341 -0.9191
  433DG      H3 9939   5.160   4.377   3.116  0.5244  0.8779 -1.8647
  433DG      H4 9940   5.223   4.419   3.270  1.3804 -0.4557  0.6831
  433DG      H5 9941   5.276   4.287   3.199  2.0237  0.8662  0.0778
  433DG      H6 9942   5.555   4.933   2.984  1.1323 -2.6914 -2.8568
  433DG      H7 9943   5.656   5.012   3.104 -0.8334 -1.8494 -0.1677
  433DG      H8 9944   5.711   5.007   2.935  0.6782  1.5122  0.8156
  433DG      O9 9945   5.366   4.455   3.106  0.0197  0.7137 -0.6489
  433DG     O10 9946   5.701   4.817   3.037  0.1421  0.0636  0.5550
  433DG     C11 9947   5.485   4.390   3.135 -0.4950  0.3233 -0.0695
  433DG     C12 9948   5.698   4.772   3.173 -0.0647 -0.4098 -0.3204
  433DG     H13 9949   5.478   4.282   3.118  0.5113  0.3586 -0.7680
  433DG     H14 9950   5.514   4.417   3.237  1.1795 -4.2977  0.9396
  433DG     H15 9951   5.605   4.799   3.223 -0.5667 -1.9905 -0.3391
  433DG     H16 9952   5.781   4.806   3.234  1.3582 -0.9169 -1.8861
  433DG     C17 9953   5.599   4.443   3.048  0.0354  0.1063  0.9631
  433DG     C18 9954   5.708   4.620   3.160 -0.1789  0.0433 -0.2413
  433DG     O19 9955   5.598   4.578   3.082  0.4370  0.3216  0.8682
  433DG     H20 9956   5.565   4.436   2.944  0.5837  0.6181  0.7410
  433DG     H21 9957   5.695   4.391   3.054 -0.7309 -1.1640  3.5828
  433DG     H22 9958   5.796   4.574   3.115  0.4424 -1.0850  1.9647
  433DG     H23 9959   5.701   4.570   3.257  1.8871 -0.3415 -0.2469
  434DG      C1 9960   0.260   0.311   2.691 -0.7482  0.0948 -0.0410
  434DG      C2 9961   0.147  -0.025   2.236  0.9603 -1.0111 -0.0556
  434DG      H3 9962   0.337   0.385   2.712 -1.1447  0.7200 -0.7678
  434DG      H4 9963   0.178   0.366   2.738 -0.6385  1.6458 -1.5866
  434DG      H5 9964   0.231   0.296   2.587 -0.7492  0.6709 -0.1230
  434DG      H6 9965   0.094  -0.103   2.290  1.2519 -2.1852 -1.3816
  434DG      H7 9966   0.078   0.059   2.219  1.0167 -0.9403  0.0717
  434DG      H8 9967   0.166  -0.072   2.139  1.9956  1.7322 -1.3059
  434DG      O9 9968   0.282   0.186   2.755 -0.3475 -0.1702 -0.9269
  434DG     O10 9969   0.270   0.026   2.296  0.2540 -0.0115  0.1389
  434DG     C11 9970   0.417   0.145   2.745 -0.6358  0.6230 -0.0293
  434DG     C12 9971   0.368  -0.073   2.323  0.1662 -0.4435 -0.9194
  434DG     H13 9972   0.427   0.054   2.804  1.3198  0.5318 -0.4315
  434DG     H14 9973   0.485   0.215   2.793 -1.8679  1.0583  1.1319
  434DG     H15 9974   0.406  -0.101   2.224  1.6218  1.5212 -0.9572
  434DG     H16 9975   0.323  -0.161   2.370  1.0515  0.5076  1.9086
  434DG     C17 9976   0.479   0.116   2.611 -0.4849 -0.5063  1.1236
  434DG     C18 9977   0.472  -0.007   2.411  0.2941  0.1780  0.3693
  434DG     O19 9978   0.401   0.028   2.534  0.2180  0.2016  0.8448
  434DG     H20 9979   0.579   0.074   2.621 -0.3605 -0.6920 -0.5550
  434DG     H21 9980   0.485   0.211   2.559 -3.8996 -1.1133 -0.7135
  434DG     H22 9981   0.562  -0.069   2.416 -0.0623 -0.2860  1.3962
  434DG     H23 9982   0.496   0.089   2.365  0.7122  0.9571  2.1284
  435DG      C1 9983   2.987   3.703   3.900 -0.2250  0.5545 -0.5174
  435DG      C2 9984   3.143   3.941   4.680  0.1133  0.4008  0.5966
  435DG      H3 9985   2.886   3.742   3.903 -0.4872 -0.0139 -1.5211
  435DG      H4 9986   2.989   3.607   3.849 -0.8140  1.2256 -1.8397
  435DG      H5 9987   3.049   3.770   3.840  0.7819  0.1794  0.0821
  435DG      H6 9988   3.226   4.012   4.688  0.1744  0.1342  3.2380
  435DG      H7 9989   3.048   3.992   4.701  0.7503  2.2497 -0.6700
  435DG      H8 9990   3.164   3.860   4.749 -3.0794 -2.1602 -1.1856
  435DG      O9 9991   3.035   3.681   4.038  0.3354  0.1899 -0.8573
  435DG     O10 9992   3.132   3.887   4.551 -0.2959 -0.0813  0.0946
  435DG     C11 9993   2.942   3.621   4.119  0.1438  0.2965  0.3578
  435DG     C12 9994   3.023   3.794   4.553  0.0289  0.7078  0.1630
  435DG     H13 9995   2.912   3.531   4.064  0.2091  0.0042  0.7953
  435DG     H14 9996   2.854   3.683   4.138  0.0021  0.4258 -0.6468
  435DG     H15 9997   2.931   3.844   4.524  0.2847  0.7162 -0.6577
  435DG     H16 9998   3.015   3.740   4.647  0.8842 -2.1162 -1.2552
  435DG     C17 9999   3.003   3.576   4.251 -0.4084 -0.4852  0.3413
  435DG     C1810000   3.053   3.672   4.471  0.3230  0.5592 -0.3662
  435DG     O1910001   3.007   3.695   4.333  0.0572  0.1283 -0.4315
  435DG     H2010002   3.106   3.540   4.245 -0.3101 -0.4671  1.6956
  435DG     H2110003   2.943   3.499   4.300 -0.4284  0.3392  1.6377
  435DG     H2210004   3.160   3.651   4.461  1.0024  3.1160  0.7272
  435DG     H2310005   3.001   3.581   4.502 -0.9521  1.5309  0.4372
  436DG      C110006   2.012   4.385   1.608 -0.1297  0.3232 -0.5029
  436DG      C210007   1.408   4.104   1.672  0.2704  0.5296 -0.0294
  436DG      H310008   2.076   4.379   1.520 -0.2944 -0.3838 -0.5802
  436DG      H410009   2.037   4.307   1.679  2.0479  2.0641  0.7570
  436DG      H510010   2.013   4.485   1.653  0.4174 -0.3244  0.9839
  436DG      H610011   1.481   4.062   1.741 -0.2932 -0.3758  0.0205
  436DG      H710012   1.356   4.180   1.732  0.3719 -0.8821  1.9449
  436DG      H810013   1.336   4.031   1.636  0.4750 -0.7002  1.8852
  436DG      O910014   1.875   4.356   1.561  0.1038 -0.0814  0.8573
  436DG     O1010015   1.486   4.162   1.578  0.5078  0.1940  0.1575
  436DG     C1110016   1.830   4.448   1.462  0.5186  0.7908  0.0372
  436DG     C1210017   1.429   4.268   1.499  0.6224 -0.1729  0.8123
  436DG     H1310018   1.886   4.437   1.370  0.5483  1.8707 -0.0836
  436DG     H1410019   1.847   4.551   1.493 -1.3844  0.9259  0.7338
  436DG     H1510020   1.417   4.358   1.559  0.2225  0.7854 -0.6666
  436DG     H1610021   1.326   4.256   1.466  0.4148  2.9807  0.0336
  436DG     C1710022   1.686   4.427   1.418  0.1556  0.0498 -0.8423
  436DG     C1810023   1.517   4.283   1.368  0.4302  0.3878  0.1863
  436DG     O1910024   1.655   4.294   1.390 -0.2967 -0.0425 -0.3105
  436DG     H2010025   1.670   4.496   1.334 -1.1729  1.3536  0.4244
  436DG     H2110026   1.630   4.468   1.502  0.1247 -0.3421 -0.6723
  436DG     H2210027   1.517   4.184   1.321  1.9806  0.0333  0.8700
  436DG     H2310028   1.470   4.350   1.295 -2.4512 -1.1813  0.4281
  437DG      C110029   1.487   2.735   5.304  0.4234  0.6339  0.6587
  437DG      C210030   1.595   2.130   5.280  0.3403 -0.1487  0.5877
  437DG      H310031   1.526   2.795   5.386 -0.8876  0.1785  1.6490
  437DG      H410032   1.400   2.787   5.263  1.1607  1.0515 -0.4268
  437DG      H510033   1.571   2.720   5.236 -0.9881 -1.9279 -0.6746
  437DG      H610034   1.678   2.137   5.350  0.0046  0.7764  0.9184
  437DG      H710035   1.577   2.025   5.261  0.1029 -0.1947  1.0530
  437DG      H810036   1.624   2.175   5.185  1.5216 -1.6551  0.2142
  437DG      O910037   1.438   2.605   5.358 -0.3794  0.1839 -0.4382
  437DG     O1010038   1.471   2.191   5.315  0.2969  0.2041  1.1049
  437DG     C1110039   1.380   2.617   5.484 -0.1062  0.4224  0.2210
  437DG     C1210040   1.412   2.137   5.433  0.2057  0.0549 -0.2746
  437DG     H1310041   1.317   2.704   5.499 -0.7612  0.0504 -0.3383
  437DG     H1410042   1.466   2.627   5.551 -0.0452 -1.1358  0.4079
  437DG     H1510043   1.487   2.117   5.510 -0.9487 -0.1973  0.8229
  437DG     H1610044   1.373   2.037   5.412  0.4024 -0.0846  0.0202
  437DG     C1710045   1.298   2.490   5.509 -0.7899  0.4681 -0.0407
  437DG     C1810046   1.312   2.243   5.487 -0.2228  0.8706 -0.5478
  437DG     O1910047   1.375   2.370   5.495 -0.0395  0.2419 -0.2136
  437DG     H2010048   1.219   2.496   5.435 -0.8254  2.9968  0.1183
  437DG     H2110049   1.266   2.497   5.613  0.0664 -0.4298  0.2975
  437DG     H2210050   1.233   2.237   5.411  0.3727 -0.5824 -1.0997
  437DG     H2310051   1.273   2.209   5.583  0.3087 -2.0792 -1.2927
  438DG      C110052   3.878   4.247   4.926  0.2049 -0.5247 -0.1227
  438DG      C210053   3.378   4.757   4.814  0.4204  0.5158 -0.4230
  438DG      H310054   3.908   4.160   4.984 -1.4435 -0.0038  1.6290
  438DG      H410055   3.951   4.267   4.848  1.9455 -0.4261  1.4428
  438DG      H510056   3.780   4.218   4.888  0.4953 -2.2917  0.3966
  438DG      H610057   3.340   4.679   4.749  0.3527 -0.8978  1.2445
  438DG      H710058   3.324   4.760   4.909  0.3701  0.5059 -0.4516
  438DG      H810059   3.366   4.850   4.758  0.2731  1.3943  1.0104
  438DG      O910060   3.877   4.355   5.026  0.0624  0.3125  0.0170
  438DG     O1010061   3.510   4.707   4.824  0.2610  0.0880  0.4820
  438DG     C1110062   3.810   4.473   4.972 -0.2430 -0.0252  0.5664
  438DG     C1210063   3.588   4.808   4.877 -1.4256 -0.0729 -0.5208
  438DG     H1310064   3.711   4.454   4.932 -0.0928  0.6725 -0.1713
  438DG     H1410065   3.869   4.504   4.886  1.2187 -0.1558  1.4796
  438DG     H1510066   3.551   4.865   4.962  1.0792  3.3846 -1.4699
  438DG     H1610067   3.596   4.895   4.811  1.3213  0.9422  0.9954
  438DG     C1710068   3.814   4.593   5.067  0.4323  0.2271  0.5039
  438DG     C1810069   3.728   4.763   4.920  0.4424  0.2660 -0.1011
  438DG     O1910070   3.708   4.676   5.033  0.1447  0.0423 -0.1017
  438DG     H2010071   3.911   4.640   5.051  0.5675 -0.4187 -0.6931
  438DG     H2110072   3.795   4.554   5.167 -4.2325 -0.4081 -0.3785
  438DG     H2210073   3.778   4.716   4.836 -0.5625  1.8858 -1.6698
  438DG     H2310074   3.793   4.844   4.953 -1.2755  1.1510  1.2919
  439DG      C110075   3.250   2.967   5.394 -0.0679 -0.1621  0.0558
  439DG      C210076   3.217   2.459   5.897 -0.1177 -0.1185 -0.4533
  439DG      H310077   3.356   2.969   5.417 -0.0605  1.3877  0.0242
  439DG      H410078   3.227   3.061   5.344  1.0663  0.0087 -0.1617
  439DG      H510079   3.232   2.904   5.306 -0.4151 -1.1625  0.8293
  439DG      H610080   3.218   2.417   5.998 -0.5896 -0.0784 -0.4279
  439DG      H710081   3.167   2.380   5.841 -0.7911 -1.0342  1.3476
  439DG      H810082   3.317   2.458   5.856  0.8681 -1.6050  1.7615
  439DG      O910083   3.161   2.946   5.502  0.2922 -0.3272 -0.2007
  439DG     O1010084   3.135   2.566   5.861 -0.0292 -0.2970 -0.0520
  439DG     C1110085   3.174   3.039   5.610 -0.2763  0.0215  0.1024
  439DG     C1210086   3.172   2.687   5.921  0.1517  0.3960 -0.0288
  439DG     H1310087   3.133   3.138   5.590 -0.8465 -0.2285  0.0096
  439DG     H1410088   3.277   3.068   5.632  0.6412 -3.2824  0.7584
  439DG     H1510089   3.277   2.700   5.895  0.1993 -1.5582 -1.0110
  439DG     H1610090   3.168   2.681   6.030 -1.9253  0.7706 -0.0321
  439DG     C1710091   3.117   2.996   5.743 -0.2936 -0.3801  0.6969
  439DG     C1810092   3.089   2.811   5.879  0.4139  0.1827 -0.0751
  439DG     O1910093   3.173   2.879   5.785 -0.4150 -0.0114 -0.5814
  439DG     H2010094   3.010   2.989   5.725  0.0797 -1.7747 -1.3934
  439DG     H2110095   3.134   3.076   5.815  0.5707  0.1246 -0.0409
  439DG     H2210096   3.002   2.770   5.829 -0.9010  1.2856  1.1994
  439DG     H2310097   3.053   2.865   5.967 -1.5471 -1.9362  0.4955
  440DG      C110098   2.364   0.803   0.226  0.1417 -0.0459 -0.1183
  440DG      C210099   1.917   1.083   0.699 -0.5224 -0.4741 -0.2915
  440DG      H310100   2.282   0.732   0.233  0.1027 -0.1086 -1.0345
  440DG      H410101   2.456   0.758   0.187  1.4924  2.7205 -0.3719
  440DG      H510102   2.335   0.879   0.153  1.5753  1.1083  0.4697
  440DG      H610103   1.909   1.074   0.807  2.3763  1.0171  0.1435
  440DG      H710104   1.894   1.185   0.667 -0.0415  0.0264  0.9148
  440DG      H810105   1.841   1.007   0.679  0.9936 -2.2376  0.3662
  440DG      O910106   2.377   0.855   0.352 -0.4135 -0.2384  0.0227
  440DG     O1010107   2.047   1.059   0.643 -0.0127  0.4542 -0.5832
  440DG     C1110108   2.476   0.949   0.382  0.3775  0.8184 -0.5114
  440DG     C1210109   2.145   1.144   0.702 -0.2092  0.4187  0.6939
  440DG     H1310110   2.473   1.033   0.312  0.9039 -0.0032 -1.5462
  440DG     H1410111   2.573   0.906   0.358 -0.1627  0.7547 -2.8299
  440DG     H1510112   2.139   1.158   0.810  2.9660  0.9660  0.8811
  440DG     H1610113   2.147   1.243   0.658 -0.3665 -1.2590 -3.5582
  440DG     C1710114   2.453   0.993   0.530  0.3619  0.3420 -0.0512
  440DG     C1810115   2.289   1.085   0.684 -0.3958 -0.8631  0.1089
  440DG     O1910116   2.322   1.042   0.549 -0.1605  0.2459  0.1660
  440DG     H2010117   2.527   1.068   0.557  0.4258  0.6022 -0.9405
  440DG     H2110118   2.469   0.907   0.595  0.8606 -1.5756 -2.5334
  440DG     H2210119   2.366   1.154   0.718  0.2508 -0.6220 -1.7724
  440DG     H2310120   2.298   0.997   0.749  1.1499 -0.3432  0.6221
  441DG      C110121   4.608   4.247   2.777  0.7524 -0.0007  0.0816
  441DG      C210122   3.957   3.862   3.009 -0.2620 -0.7125 -0.4578
  441DG      H310123   4.564   4.240   2.678  3.8666 -1.5714 -1.3443
  441DG      H410124   4.694   4.180   2.780  0.1084 -0.9540 -1.3699
  441DG      H510125   4.637   4.351   2.786 -0.5541  0.5552 -1.7450
  441DG      H610126   3.895   3.776   3.034  1.0024 -0.9808  2.0917
  441DG      H710127   3.894   3.944   3.045  0.4795 -0.3852  0.1240
  441DG      H810128   3.975   3.876   2.903 -1.4764  0.1435 -0.5815
  441DG      O910129   4.508   4.195   2.865  0.1200  0.1950  0.1120
  441DG     O1010130   4.078   3.860   3.089 -0.2388 -0.3508  0.0458
  441DG     C1110131   4.545   4.186   2.995 -0.5311 -0.2990 -0.2720
  441DG     C1210132   4.175   3.956   3.049  0.0346 -0.4495  0.3020
  441DG     H1310133   4.566   4.286   3.033  1.1644 -0.3969 -0.8565
  441DG     H1410134   4.636   4.128   3.012  1.6129  2.5588 -1.2241
  441DG     H1510135   4.138   4.056   3.070  1.8699  0.3057  0.1374
  441DG     H1610136   4.206   3.952   2.945  0.7755 -1.0030  0.5235
  441DG     C1710137   4.423   4.139   3.069 -0.6319 -1.1228 -0.2880
  441DG     C1810138   4.306   3.949   3.133  0.7212  0.1958  0.2426
  441DG     O1910139   4.418   3.997   3.060  0.4646  0.0027  0.0110
  441DG     H2010140   4.336   4.182   3.019 -0.4345 -0.6412 -0.2253
  441DG     H2110141   4.425   4.167   3.174  1.1399  0.4118 -0.6818
  441DG     H2210142   4.292   4.008   3.224 -3.4036 -1.5901  1.0016
  441DG     H2310143   4.333   3.844   3.145  0.2001  0.1917  1.5166
  442DG      C110144   4.210   1.475   3.875  0.0745 -0.4647  0.3668
  442DG      C210145   4.649   1.719   3.466 -0.4521 -0.5075 -0.2814
  442DG      H310146   4.233   1.578   3.900  0.5272 -1.1039  2.8576
  442DG      H410147   4.275   1.413   3.937 -0.7356 -1.9181 -0.1848
  442DG      H510148   4.112   1.449   3.916  0.9867 -1.3599  2.0663
  442DG      H610149   4.689   1.820   3.459 -0.9947 -0.3133 -0.6312
  442DG      H710150   4.682   1.669   3.558 -1.4981  0.5454  0.6995
  442DG      H810151   4.697   1.666   3.384  2.1876  2.1105 -0.6069
  442DG      O910152   4.231   1.440   3.742 -0.1328 -0.4545 -0.1345
  442DG     O1010153   4.508   1.703   3.450  0.0959  0.1762 -0.7368
  442DG     C1110154   4.135   1.475   3.642  0.0489 -0.2180  0.7612
  442DG     C1210155   4.442   1.813   3.515  0.5504 -0.1259 -0.1926
  442DG     H1310156   4.032   1.459   3.673 -0.0911  0.4578  0.6752
  442DG     H1410157   4.147   1.423   3.548  0.4900 -0.1108  0.7540
  442DG     H1510158   4.454   1.904   3.457 -0.3040 -0.6354 -1.1880
  442DG     H1610159   4.475   1.836   3.617  0.8568 -1.7072  0.0867
  442DG     C1710160   4.147   1.626   3.614  0.6794  0.7353  0.3875
  442DG     C1810161   4.290   1.780   3.534 -0.0650 -0.2217  0.2530
  442DG     O1910162   4.276   1.643   3.563  0.2672 -0.4766 -0.0464
  442DG     H2010163   4.128   1.677   3.709 -1.2663 -2.0091  1.6145
  442DG     H2110164   4.073   1.647   3.538  1.1171  3.2700  0.5897
  442DG     H2210165   4.256   1.840   3.619  1.7074  1.3875 -0.1104
  442DG     H2310166   4.230   1.805   3.447 -1.0882 -0.9857  0.7107
  443DG      C110167   3.040   0.446   0.900 -0.3889  0.1355  0.3890
  443DG      C210168   3.749   0.189   0.545  0.5720 -0.0992  0.2184
  443DG      H310169   2.984   0.499   0.823  0.0169  1.6779  1.1196
  443DG      H410170   2.983   0.459   0.992  1.6094  1.4896  1.5225
  443DG      H510171   3.031   0.339   0.884  0.0111  0.0556  0.6740
  443DG      H610172   3.850   0.196   0.506  1.1799  0.2117  1.8014
  443DG      H710173   3.745   0.102   0.610  2.6907 -1.1629 -0.9689
  443DG      H810174   3.676   0.164   0.468 -1.9775 -1.5380  2.8894
  443DG      O910175   3.177   0.489   0.906 -0.0820  0.4452  0.1087
  443DG     O1010176   3.719   0.307   0.619  0.0514 -1.1628 -0.3165
  443DG     C1110177   3.247   0.425   0.800  0.8497 -0.0382 -0.1600
  443DG     C1210178   3.670   0.417   0.541 -0.0757 -0.1659 -0.4030
  443DG     H1310179   3.187   0.450   0.712 -3.0902 -0.3348  2.1960
  443DG     H1410180   3.243   0.316   0.805  0.0942  0.0256  0.8826
  443DG     H1510181   3.628   0.383   0.446  0.4412 -0.4642 -0.5282
  443DG     H1610182   3.748   0.491   0.522 -0.4006  0.3020  0.0583
  443DG     C1710183   3.389   0.472   0.781 -1.1812  0.2638  0.0181
  443DG     C1810184   3.565   0.492   0.626  0.2784 -0.3683  0.1438
  443DG     O1910185   3.455   0.414   0.670 -0.2723  0.1397 -0.2127
  443DG     H2010186   3.436   0.454   0.877  0.6293 -2.0975 -1.2145
  443DG     H2110187   3.399   0.580   0.767  3.5589 -0.0894 -1.1442
  443DG     H2210188   3.602   0.530   0.721  0.8922 -1.1288  0.2233
  443DG     H2310189   3.541   0.583   0.571 -0.6568 -1.1836 -0.8577
  444DG      C110190   4.639   2.072   1.847  0.3926 -0.4529 -0.0691
  444DG      C210191   5.293   2.021   2.023 -0.5235  0.2934 -0.1188
  444DG      H310192   4.637   2.011   1.758 -1.3469  0.4621 -0.7036
  444DG      H410193   4.540   2.117   1.852 -0.0929 -1.4431 -0.6700
  444DG      H510194   4.654   2.004   1.931 -1.3915 -0.1129  0.5618
  444DG      H610195   5.254   1.923   1.996 -2.5095  1.3218 -1.1857
  444DG      H710196   5.394   2.022   1.982 -0.8563 -2.0316 -1.0959
  444DG      H810197   5.295   2.016   2.132 -0.2318  1.6104 -0.0425
  444DG      O910198   4.758   2.155   1.834 -0.2511 -0.1771 -0.5633
  444DG     O1010199   5.208   2.122   1.976 -0.2515  0.3818  0.2492
  444DG     C1110200   4.758   2.249   1.950  0.1023 -0.7458  0.5701
  444DG     C1210201   5.237   2.248   2.036 -0.0522  0.1182  0.2525
  444DG     H1310202   4.745   2.190   2.041  1.4131  0.0039  1.2678
  444DG     H1410203   4.674   2.318   1.944 -0.6376 -1.6985 -0.4846
  444DG     H1510204   5.327   2.300   2.004  0.3383  0.9179  2.4783
  444DG     H1610205   5.252   2.228   2.142 -2.4346 -1.1228  0.4272
  444DG     C1710206   4.886   2.337   1.951 -0.2620 -0.4117  0.3389
  444DG     C1810207   5.125   2.337   1.989  0.4107 -0.4360 -0.2895
  444DG     O1910208   5.002   2.261   1.971  0.7767 -0.8463  0.1480
  444DG     H2010209   4.875   2.410   2.031  0.1217 -1.2079  1.1376
  444DG     H2110210   4.885   2.398   1.861 -1.2323  1.0113  1.2759
  444DG     H2210211   5.109   2.407   2.071  2.2744 -1.2885  0.8466
  444DG     H2310212   5.171   2.403   1.915  0.8700 -0.4157  0.0116
  445DG      C110213   3.510   3.092   4.557 -0.2613  0.4838  0.5469
  445DG      C210214   2.886   3.589   4.952  0.4059  0.5822 -0.6548
  445DG      H310215   3.605   3.142   4.535  0.4055 -1.3916 -1.1506
  445DG      H410216   3.476   3.030   4.474  0.3466  0.6188  0.1901
  445DG      H510217   3.529   3.024   4.640  0.8659 -0.8755 -0.7718
  445DG      H610218   2.822   3.547   4.875 -1.4365 -0.8570  1.5354
  445DG      H710219   2.884   3.520   5.036  1.8260 -0.5321 -1.4927
  445DG      H810220   2.843   3.685   4.982  1.5304  1.4812 -1.7992
  445DG      O910221   3.427   3.210   4.591  0.1510  0.1966  0.0807
  445DG     O1010222   3.017   3.625   4.902  0.5236 -0.2646  0.0489
  445DG     C1110223   3.473   3.266   4.707 -0.0592 -0.5394 -0.4024
  445DG     C1210224   3.077   3.506   4.859 -0.3745 -0.1121  0.0675
  445DG     H1310225   3.582   3.275   4.710 -0.0581 -0.7435  0.4296
  445DG     H1410226   3.459   3.202   4.794  0.5261  1.8823  1.5981
  445DG     H1510227   3.016   3.455   4.785 -0.6717 -1.6753  1.3571
  445DG     H1610228   3.076   3.434   4.940  1.5199 -1.9267 -1.3977
  445DG     C1710229   3.405   3.404   4.724 -0.0887  0.8465 -0.6583
  445DG     C1810230   3.228   3.522   4.807  0.8333 -0.6161  0.3067
  445DG     O1910231   3.282   3.397   4.785  0.4843 -0.1800 -0.1459
  445DG     H2010232   3.392   3.451   4.626 -2.4736 -0.3316 -0.9855
  445DG     H2110233   3.467   3.464   4.790  1.9653 -2.2493  0.4652
  445DG     H2210234   3.237   3.595   4.726 -1.1088 -0.0020  0.6086
  445DG     H2310235   3.278   3.569   4.892  1.2755 -0.2876 -0.1272
  446DG      C110236   1.786   5.252   3.375 -0.6239 -0.3596  0.3426
  446DG      C210237   1.795   5.312   4.036 -0.2239  0.0468 -0.0897
  446DG      H310238   1.832   5.350   3.382 -0.5247 -0.5160  2.7251
  446DG      H410239   1.679   5.245   3.356 -0.0807 -1.3006 -3.0410
  446DG      H510240   1.843   5.201   3.297  0.2977  0.5069  0.4268
  446DG      H610241   1.833   5.293   4.137  0.5110  1.3376 -0.1028
  446DG      H710242   1.819   5.409   3.993  0.2061  0.0084  0.0563
  446DG      H810243   1.686   5.305   4.046 -0.0787 -2.1241  0.5076
  446DG      O910244   1.821   5.192   3.494  0.6735 -0.6451  0.3376
  446DG     O1010245   1.833   5.204   3.945  0.4980 -0.3564 -0.3969
  446DG     C1110246   1.771   5.056   3.494 -0.0284 -0.0949  0.3474
  446DG     C1210247   1.764   5.079   3.970 -0.2874  0.2504 -0.0454
  446DG     H1310248   1.797   4.998   3.405 -1.8024  1.2376 -1.0923
  446DG     H1410249   1.663   5.052   3.489 -0.0577  1.3265 -1.0485
  446DG     H1510250   1.656   5.082   3.962 -0.1632  0.9622 -2.3653
  446DG     H1610251   1.789   5.035   4.066 -0.8275 -1.7719 -0.7808
  446DG     C1710252   1.816   4.982   3.620 -0.0992 -0.4627 -1.2557
  446DG     C1810253   1.800   4.988   3.855  0.0474  0.0290 -0.2508
  446DG     O1910254   1.778   5.057   3.738 -0.0016  0.2431  0.8413
  446DG     H2010255   1.922   4.961   3.610  0.2054  0.8892 -1.0100
  446DG     H2110256   1.767   4.884   3.617 -2.7864  0.7595 -0.7696
  446DG     H2210257   1.903   4.954   3.850  0.6922  1.8112  0.0777
  446DG     H2310258   1.736   4.900   3.857 -0.0217  0.0786 -0.2557
  447DG      C110259   3.928   2.727   1.008 -0.6642 -0.5342 -0.0960
  447DG      C210260   4.062   2.643   1.347  0.0128 -0.8662 -0.4031
  447DG      H310261   3.937   2.743   1.115  1.3659 -3.6462  0.3260
  447DG      H410262   3.901   2.823   0.966 -1.9680 -0.2011  1.4406
  447DG      H510263   4.029   2.696   0.980 -0.4534  0.1942 -0.1519
  447DG      H610264   4.065   2.745   1.308  0.8918 -0.9275 -0.5159
  447DG      H710265   4.096   2.641   1.451 -1.7447 -1.5024  0.1962
  447DG      H810266   4.127   2.573   1.295  0.0031 -1.0186 -0.2119
  447DG      O910267   3.843   2.624   0.973 -0.3490  0.7559  0.0719
  447DG     O1010268   3.927   2.610   1.332  0.2186  0.4356 -0.2285
  447DG     C1110269   3.703   2.633   1.015  0.2257 -0.2894  0.3798
  447DG     C1210270   3.832   2.692   1.403 -0.2886  0.9283 -0.2027
  447DG     H1310271   3.645   2.588   0.934  0.6328  0.0811 -0.1227
  447DG     H1410272   3.653   2.729   1.012 -1.3917 -1.1207 -1.0748
  447DG     H1510273   3.875   2.755   1.481  0.4532 -0.6579  0.7141
  447DG     H1610274   3.775   2.614   1.453  1.3220 -0.6052 -0.6724
  447DG     C1710275   3.675   2.571   1.156  0.5447  0.2421 -0.2631
  447DG     C1810276   3.725   2.760   1.308  0.0253 -0.3270 -0.2052
  447DG     O1910277   3.628   2.675   1.245  0.1761  0.3776  0.5501
  447DG     H2010278   3.758   2.514   1.198 -0.8385 -0.4242  1.7184
  447DG     H2110279   3.593   2.501   1.150 -0.6530  1.4254  1.3380
  447DG     H2210280   3.662   2.818   1.375  0.0472 -1.5236  0.8704
  447DG     H2310281   3.768   2.830   1.236  0.1312  0.8838  1.0030
  448DG      C110282   2.613   4.181   1.552  0.1629 -0.1736 -0.0828
  448DG      C210283   3.128   4.255   1.374  0.4357  0.0218 -0.0082
  448DG      H310284   2.603   4.125   1.645  4.1358 -0.1309  0.5665
  448DG      H410285   2.601   4.289   1.559 -1.7484 -0.1380 -2.4989
  448DG      H510286   2.719   4.161   1.533  0.3237 -2.3665  2.6162
  448DG      H610287   3.201   4.237   1.296 -1.4687 -0.7236 -1.7157
  448DG      H710288   3.106   4.361   1.389  0.5794  0.2498 -1.2842
  448DG      H810289   3.159   4.207   1.467 -0.5767 -0.0212  0.3190
  448DG      O910290   2.535   4.128   1.457  0.7610 -0.0349  0.2513
  448DG     O1010291   3.007   4.194   1.322 -0.5246 -0.2735 -0.1589
  448DG     C1110292   2.550   3.991   1.443 -0.2073  0.5092 -0.0800
  448DG     C1210293   3.012   4.053   1.305  0.2593 -0.3313  0.0952
  448DG     H1310294   2.448   3.956   1.427 -0.5137  0.4140  1.8174
  448DG     H1410295   2.569   3.930   1.531 -1.6632 -0.4028 -0.3623
  448DG     H1510296   3.042   4.009   1.400  3.4702 -1.9669 -1.5281
  448DG     H1610297   3.090   4.027   1.234  1.0300  1.1579  0.3740
  448DG     C1710298   2.647   3.950   1.333 -0.1143  0.1369 -0.2921
  448DG     C1810299   2.872   4.000   1.261  0.5050  0.8078  0.7239
  448DG     O1910300   2.777   3.987   1.370 -0.4396  0.1341  0.3819
  448DG     H2010301   2.624   3.985   1.232  0.9741 -3.3049 -1.9072
  448DG     H2110302   2.646   3.841   1.328 -0.9536  0.0309  1.5244
  448DG     H2210303   2.833   4.062   1.180  0.9001 -4.0357 -3.6684
  448DG     H2310304   2.883   3.904   1.211  0.5028  1.0543  0.2454
  449DG      C110305   4.518   1.979   5.174 -0.1289 -0.1925  0.7016
  449DG      C210306   5.159   2.118   5.359  0.0921 -0.1539  0.1989
  449DG      H310307   4.450   1.943   5.096 -0.8278  1.5173  0.4921
  449DG      H410308   4.464   1.996   5.267  0.9068  1.0652  1.0979
  449DG      H510309   4.594   1.904   5.196 -1.2486 -1.6753 -0.2600
  449DG      H610310   5.222   2.035   5.391  0.9765 -0.0097 -1.0722
  449DG      H710311   5.214   2.211   5.372  0.9322 -0.1520 -2.6638
  449DG      H810312   5.078   2.115   5.431 -0.5028  0.0863 -0.4423
  449DG      O910313   4.593   2.090   5.134 -0.3416 -0.4564 -0.3830
  449DG     O1010314   5.106   2.113   5.226  0.0285 -0.2051 -0.5055
  449DG     C1110315   4.640   2.096   4.996  0.3817 -0.1377 -0.3134
  449DG     C1210316   5.014   2.008   5.212 -0.7911 -0.0433 -0.1722
  449DG     H1310317   4.555   2.138   4.942 -1.1260 -2.6082 -0.0034
  449DG     H1410318   4.661   1.996   4.958 -0.4757 -0.6173  0.4330
  449DG     H1510319   4.936   2.004   5.288 -1.2300 -2.6384 -0.6715
  449DG     H1610320   5.068   1.914   5.204 -0.3817  0.2559 -1.0759
  449DG     C1710321   4.758   2.189   4.994  0.2202 -0.6830 -0.5800
  449DG     C1810322   4.927   2.040   5.079 -0.0241  0.0785 -0.0904
  449DG     O1910323   4.868   2.164   5.082 -0.1777  0.5844 -0.5617
  449DG     H2010324   4.720   2.289   5.015  1.4313 -0.5605  1.1838
  449DG     H2110325   4.804   2.187   4.895  1.9200 -2.6991  0.1646
  449DG     H2210326   4.991   2.017   4.994  3.8322  0.2104  2.4712
  449DG     H2310327   4.853   1.963   5.098 -0.0372  0.2259  0.4982
  450DG      C110328   0.197   4.805   0.054  0.6259  0.1041 -0.5673
  450DG      C210329  -0.099   5.169   0.308  0.4130  0.6579 -0.3104
  450DG      H310330   0.103   4.795  -0.000  0.3940  1.1605 -0.3926
  450DG      H410331   0.258   4.716   0.068  0.1994 -0.1386 -0.2395
  450DG      H510332   0.256   4.870  -0.011  1.6791 -1.1444 -0.9022
  450DG      H610333  -0.034   5.244   0.262 -0.7016  2.3453  0.7876
  450DG      H710334  -0.073   5.072   0.265  3.6403  0.6199  1.4163
  450DG      H810335  -0.195   5.184   0.260  1.6350  1.2433 -2.7826
  450DG      O910336   0.153   4.858   0.182 -0.3571 -0.1355  0.4101
  450DG     O1010337  -0.110   5.174   0.454  0.6889 -0.5418 -0.0376
  450DG     C1110338   0.260   4.874   0.269 -0.1597  0.7717 -0.3331
  450DG     C1210339   0.012   5.190   0.522 -0.1518  0.0400 -0.5344
  450DG     H1310340   0.327   4.949   0.226  0.2353  0.9043  0.4873
  450DG     H1410341   0.315   4.781   0.282 -1.2115  0.0338 -1.0451
  450DG     H1510342  -0.001   5.239   0.619  1.0411 -0.0526 -0.3016
  450DG     H1610343   0.063   5.266   0.463 -1.5095  0.9904 -0.5250
  450DG     C1710344   0.228   4.921   0.415 -0.1912  0.7008 -0.1047
  450DG     C1810345   0.098   5.067   0.542  0.6347  0.2667  0.8798
  450DG     O1910346   0.161   5.041   0.416  0.0694  0.0551  0.2855
  450DG     H2010347   0.319   4.916   0.475  0.6563 -1.6068 -1.4421
  450DG     H2110348   0.164   4.843   0.456  0.4311  0.8742  1.2460
  450DG     H2210349   0.173   5.075   0.621 -0.5732 -1.0868  2.2298
  450DG     H2310350   0.033   4.988   0.578 -0.4407  0.7903  0.1222
  451DG      C110351   1.500   2.885   0.206 -0.0094 -0.2951 -0.0283
  451DG      C210352   2.052   2.871  -0.133  0.7218  0.6112 -0.3348
  451DG      H310353   1.443   2.922   0.291 -0.3512 -1.3826  0.2231
  451DG      H410354   1.431   2.855   0.128 -0.3323  2.3154 -0.8517
  451DG      H510355   1.554   2.972   0.168  1.1360 -1.1548 -0.4123
  451DG      H610356   1.995   2.919  -0.212 -0.3024 -0.5474 -0.3258
  451DG      H710357   2.141   2.931  -0.115 -0.9917  2.9099  1.1450
  451DG      H810358   2.077   2.770  -0.163  1.5943  0.6754  0.1425
  451DG      O910359   1.586   2.776   0.250  0.2863 -0.1528  0.4501
  451DG     O1010360   1.984   2.880  -0.007 -0.2372 -0.4486  0.1175
  451DG     C1110361   1.672   2.814   0.356 -0.0759  0.0022 -0.3233
  451DG     C1210362   1.921   3.003   0.011  0.1162  0.6939  0.3010
  451DG     H1310363   1.730   2.731   0.397  0.1305  0.8827  1.2658
  451DG     H1410364   1.610   2.829   0.444  1.2059 -0.9581  0.7778
  451DG     H1510365   1.837   3.001  -0.058  2.7246 -0.8825 -3.1126
  451DG     H1610366   1.982   3.087  -0.021  3.3854 -1.2899  0.8713
  451DG     C1710367   1.762   2.929   0.332 -0.1071 -0.2261 -0.4848
  451DG     C1810368   1.878   3.033   0.154  0.0052 -0.3720  1.0223
  451DG     O1910369   1.815   2.916   0.204 -0.6416 -0.0679 -0.3574
  451DG     H2010370   1.837   2.942   0.410 -1.8700  0.6679  1.1504
  451DG     H2110371   1.705   3.022   0.339  1.1136  0.5943 -1.1476
  451DG     H2210372   1.956   3.079   0.214  1.3514  0.8892 -1.5684
  451DG     H2310373   1.798   3.106   0.151 -1.0296 -1.4672  0.9491
  452DG      C110374   3.147   3.778   5.192 -0.6418  0.8578 -0.6396
  452DG      C210375   3.285   3.964   5.866 -0.4777 -0.3225 -0.0900
  452DG      H310376   3.246   3.822   5.178 -0.5454  0.9659  0.3022
  452DG      H410377   3.083   3.861   5.161 -0.0375  1.5296 -0.1094
  452DG      H510378   3.146   3.693   5.123 -0.0260 -1.4255  1.9876
  452DG      H610379   3.300   3.955   5.973  0.7892  0.3460 -0.1882
  452DG      H710380   3.390   3.948   5.840  0.1531  0.6266  1.7135
  452DG      H810381   3.255   4.065   5.836  0.4207 -0.5213 -1.7951
  452DG      O910382   3.127   3.752   5.330  0.2565  0.7086 -0.3369
  452DG     O1010383   3.205   3.867   5.796 -0.0225  0.0102  0.8244
  452DG     C1110384   2.992   3.709   5.361 -0.3717  0.7948 -0.1926
  452DG     C1210385   3.060   3.847   5.823 -0.8520  0.1179  0.1840
  452DG     H1310386   2.967   3.620   5.304 -1.1055  0.1331  1.1141
  452DG     H1410387   2.924   3.789   5.330 -1.6413 -0.2766 -0.2511
  452DG     H1510388   3.001   3.935   5.795 -0.7392  1.0871  2.7498
  452DG     H1610389   3.037   3.829   5.928 -3.1885  1.6615  0.0168
  452DG     C1710390   2.979   3.673   5.510  0.0127 -0.7850  0.1621
  452DG     C1810391   3.020   3.726   5.733 -0.1781  0.1010 -0.0652
  452DG     O1910392   3.031   3.770   5.599  0.2737  0.3559  0.3633
  452DG     H2010393   3.033   3.580   5.526  1.3849 -0.3074 -1.3692
  452DG     H2110394   2.876   3.656   5.539 -0.5623  2.6742  0.6264
  452DG     H2210395   3.084   3.641   5.756 -0.8603 -0.4702 -0.2380
  452DG     H2310396   2.921   3.696   5.767  1.0182 -1.1122  2.6682
  453DG      C110397   2.996   5.338   0.992 -0.1939  0.6533 -0.4562
  453DG      C210398   3.192   5.287   0.403  1.1520 -0.0841 -0.6612
  453DG      H310399   3.093   5.317   1.037  0.2447  1.1623 -1.1443
  453DG      H410400   2.937   5.385   1.071  2.3272  2.1230  0.6912
  453DG      H510401   2.998   5.405   0.906 -2.5607  0.3443 -0.8056
  453DG      H610402   3.259   5.201   0.406  0.2785 -0.8153 -1.4851
  453DG      H710403   3.152   5.305   0.304 -0.9491  0.5442  0.2420
  453DG      H810404   3.233   5.382   0.437  1.0997 -0.7262  1.3670
  453DG      O910405   2.943   5.210   0.954 -0.1756 -0.1972  0.4451
  453DG     O1010406   3.084   5.253   0.493  0.1356  0.2355 -0.3830
  453DG     C1110407   2.816   5.223   0.890  1.0521  0.3529 -0.1269
  453DG     C1210408   3.057   5.117   0.497 -0.0177  0.0600 -0.3067
  453DG     H1310409   2.756   5.293   0.948  0.7635  1.0989 -1.2951
  453DG     H1410410   2.775   5.123   0.901  1.6907  0.2459  1.6008
  453DG     H1510411   3.137   5.071   0.556  1.1415  0.5747 -1.4360
  453DG     H1610412   3.060   5.070   0.398 -2.7275 -0.5238 -0.1815
  453DG     C1710413   2.829   5.257   0.737  0.5392 -0.3762 -0.0002
  453DG     C1810414   2.913   5.120   0.552  0.0316 -0.0823  0.0925
  453DG     O1910415   2.911   5.151   0.690  0.1782  0.5023  0.3587
  453DG     H2010416   2.871   5.356   0.718 -0.5732  0.4922  1.8315
  453DG     H2110417   2.736   5.256   0.680  0.9997  0.5433 -0.7827
  453DG     H2210418   2.863   5.202   0.499  1.0070  1.3476  1.2867
  453DG     H2310419   2.859   5.026   0.542  0.2905 -0.4785  1.9537
  454DG      C110420   2.115   0.893   4.767  0.0783  0.3004 -0.1524
  454DG      C210421   2.307   1.074   4.065  0.1686 -0.4023  0.2236
  454DG      H310422   2.039   0.818   4.792 -2.4978  2.4515 -0.9790
  454DG      H410423   2.050   0.971   4.727 -0.3627  0.1217  0.2068
  454DG      H510424   2.169   0.927   4.855 -0.8478 -0.4276  0.7272
  454DG      H610425   2.279   1.163   4.009  1.8701 -0.9268 -1.5942
  454DG      H710426   2.415   1.063   4.063  0.2450 -0.0411  1.4960
  454DG      H810427   2.248   0.996   4.016 -1.6929  1.7959 -1.2632
  454DG      O910428   2.199   0.841   4.665 -0.0168 -0.4539  0.3767
  454DG     O1010429   2.268   1.096   4.202  0.3956  0.5924 -0.0485
  454DG     C1110430   2.301   0.924   4.624 -0.0840 -0.3007  0.6158
  454DG     C1210431   2.323   1.216   4.254 -0.2061 -0.2423  0.5607
  454DG     H1310432   2.380   0.863   4.579 -1.5544 -0.7849 -1.4553
  454DG     H1410433   2.336   0.984   4.708  0.0884  1.7309 -0.8146
  454DG     H1510434   2.287   1.309   4.210  0.3088 -0.5308 -0.5039
  454DG     H1610435   2.430   1.217   4.232 -0.3161  2.5469 -0.2747
  454DG     C1710436   2.239   1.030   4.526 -0.1020 -0.2649 -0.0877
  454DG     C1810437   2.294   1.242   4.412  0.8586  1.2038 -0.0703
  454DG     O1910438   2.344   1.124   4.487 -0.0507 -0.0058  0.3050
  454DG     H2010439   2.163   1.092   4.573  0.6117  1.7087 -1.3959
  454DG     H2110440   2.190   0.984   4.441 -0.0802 -0.4631  0.0075
  454DG     H2210441   2.326   1.344   4.433  2.1063  0.5809  1.1810
  454DG     H2310442   2.186   1.253   4.421  0.6369 -1.2089  1.0098
  455DG      C110443   3.968   4.550   0.828 -0.2304  0.0889 -0.2414
  455DG      C210444   4.596   4.926   1.063 -0.2357 -0.4542 -0.3599
  455DG      H310445   3.929   4.649   0.806 -2.0980 -0.6376 -0.4320
  455DG      H410446   3.907   4.516   0.911  3.5218 -1.5974  2.0852
  455DG      H510447   3.969   4.480   0.744  0.4111  1.9580 -1.8548
  455DG      H610448   4.544   5.021   1.066  1.3158  0.4168 -0.3358
  455DG      H710449   4.569   4.862   1.148 -2.0717 -0.3405 -0.8151
  455DG      H810450   4.701   4.954   1.061 -1.1518  3.4114 -1.2602
  455DG      O910451   4.104   4.570   0.872  0.1240 -0.4948 -0.0912
  455DG     O1010452   4.565   4.874   0.929  0.3821  0.5347 -0.0768
  455DG     C1110453   4.180   4.662   0.791 -0.0688 -0.2303 -0.0371
  455DG     C1210454   4.607   4.734   0.914 -0.2278 -0.0312  0.1942
  455DG     H1310455   4.146   4.762   0.818  0.3053 -0.5163  1.5737
  455DG     H1410456   4.153   4.634   0.689  2.4548 -2.6217 -0.1618
  455DG     H1510457   4.567   4.673   0.995  0.3187 -0.9813 -0.2327
  455DG     H1610458   4.715   4.719   0.910 -0.3815 -1.1245 -0.1166
  455DG     C1710459   4.328   4.628   0.836  0.1850 -0.5925  0.3458
  455DG     C1810460   4.550   4.688   0.779  0.3925 -0.7850  0.1313
  455DG     O1910461   4.409   4.713   0.758  0.2254 -0.4429 -0.0398
  455DG     H2010462   4.353   4.525   0.812  1.4247 -0.5188  1.2025
  455DG     H2110463   4.342   4.638   0.944 -3.6638 -2.3633  1.1667
  455DG     H2210464   4.601   4.740   0.698 -1.7503 -0.3816 -1.0347
  455DG     H2310465   4.569   4.582   0.762  0.1114 -0.5783 -1.7313
  456DG      C110466   2.579   0.971   4.925 -0.0418  0.3465  0.1572
  456DG      C210467   2.760   1.500   4.386  0.4308 -1.2792  0.5038
  456DG      H310468   2.505   0.891   4.917  0.1671  0.0245  1.2662
  456DG      H410469   2.577   0.987   5.033  0.6888 -1.1102  0.4233
  456DG      H510470   2.675   0.925   4.901 -0.0542  0.8256 -0.8474
  456DG      H610471   2.701   1.449   4.310  0.4079 -0.7151  0.1298
  456DG      H710472   2.755   1.599   4.340 -2.4477 -1.2722  0.6584
  456DG      H810473   2.848   1.439   4.370  0.1115 -1.5942 -0.1078
  456DG      O910474   2.557   1.089   4.842 -0.0708  0.9367  0.2826
  456DG     O1010475   2.699   1.483   4.514  0.5206  0.2622  0.5458
  456DG     C1110476   2.673   1.169   4.848 -0.3797 -0.1054  0.8187
  456DG     C1210477   2.759   1.561   4.622  0.1438 -0.2827 -0.7658
  456DG     H1310478   2.762   1.124   4.803 -0.7643 -0.0047 -0.0669
  456DG     H1410479   2.698   1.187   4.953  2.9563  1.2831 -0.0726
  456DG     H1510480   2.740   1.667   4.602 -1.4239 -0.6415 -1.3166
  456DG     H1610481   2.866   1.538   4.631 -0.2942 -1.6047  2.0151
  456DG     C1710482   2.636   1.293   4.772 -0.5669 -0.4605  0.3484
  456DG     C1810483   2.692   1.526   4.762  0.9937 -0.1842  0.1795
  456DG     O1910484   2.726   1.393   4.805 -0.3675 -0.0459  0.1550
  456DG     H2010485   2.532   1.306   4.799 -0.2123 -1.9892  2.8020
  456DG     H2110486   2.640   1.280   4.664 -1.6038  1.7542 -0.0016
  456DG     H2210487   2.709   1.612   4.827  0.0259  0.2267 -0.0881
  456DG     H2310488   2.584   1.534   4.748  1.2595 -0.2898 -2.2811
  457DG      C110489   0.041   3.685   4.089 -0.1699 -0.0639 -0.9951
  457DG      C210490  -0.274   4.105   3.449  0.4782 -0.0181  1.2492
  457DG      H310491   0.004   3.585   4.116  0.0915 -0.0070 -0.4152
  457DG      H410492   0.102   3.722   4.171 -1.9134 -0.5690  0.6146
  457DG      H510493   0.098   3.684   3.997 -0.9744 -1.0847 -1.5020
  457DG      H610494  -0.199   4.120   3.371 -1.4434  1.1766 -0.4868
  457DG      H710495  -0.342   4.026   3.416 -0.9825  1.9833 -0.8998
  457DG      H810496  -0.335   4.192   3.422  0.4025 -0.5540 -0.4027
  457DG      O910497  -0.061   3.781   4.079  0.8627 -0.1329  0.2740
  457DG     O1010498  -0.225   4.113   3.580 -0.0229 -0.2545 -0.4656
  457DG     C1110499  -0.163   3.739   3.990  0.1601 -0.0779  0.1954
  457DG     C1210500  -0.202   3.990   3.633  0.5098 -0.5261  0.5164
  457DG     H1310501  -0.248   3.704   4.048  0.8461 -1.1839  0.5624
  457DG     H1410502  -0.130   3.664   3.918  0.2687 -0.7190  0.9025
  457DG     H1510503  -0.156   3.924   3.560 -1.8402 -0.6921 -0.9056
  457DG     H1610504  -0.293   3.936   3.661 -0.6244  0.5679 -0.9389
  457DG     C1710505  -0.196   3.861   3.903  0.8780  0.1323 -1.4298
  457DG     C1810506  -0.099   4.001   3.745 -0.1046 -0.2010 -0.6934
  457DG     O1910507  -0.083   3.882   3.827 -0.2201 -0.2000  0.1051
  457DG     H2010508  -0.231   3.943   3.966  1.0082  1.4008 -2.9686
  457DG     H2110509  -0.286   3.829   3.850 -0.9912  1.5363  0.6694
  457DG     H2210510  -0.008   4.036   3.696  0.0927  3.7754  2.0185
  457DG     H2310511  -0.124   4.072   3.824 -1.4803 -1.5738  0.1763
  458DG      C110512   5.309   0.230   3.325 -0.1209 -0.5015  0.1226
  458DG      C210513   5.919   0.316   3.201  0.2807 -0.0080 -0.5931
  458DG      H310514   5.232   0.171   3.376 -0.2702 -0.8725 -0.5180
  458DG      H410515   5.336   0.200   3.224  1.5861  0.7658  0.1623
  458DG      H510516   5.258   0.324   3.310  0.4659 -0.2717 -0.4531
  458DG      H610517   5.908   0.394   3.125 -1.5789 -0.5992 -0.9783
  458DG      H710518   6.025   0.304   3.223  0.4334 -0.6545 -1.6429
  458DG      H810519   5.880   0.224   3.158 -0.4999  0.0800 -0.0954
  458DG      O910520   5.427   0.275   3.392 -0.1278 -0.3746  0.2654
  458DG     O1010521   5.844   0.325   3.319 -0.7835  0.0142 -0.2287
  458DG     C1110522   5.411   0.370   3.500  0.7997  0.8426 -0.2403
  458DG     C1210523   5.853   0.449   3.390  0.1405 -0.3570  0.1411
  458DG     H1310524   5.326   0.337   3.560  0.6637  2.6784  0.6329
  458DG     H1410525   5.377   0.470   3.473 -2.9366 -0.3531 -0.4866
  458DG     H1510526   5.831   0.533   3.323 -0.0570  1.2505  2.1273
  458DG     H1610527   5.957   0.463   3.421 -0.1580  0.8478  0.6710
  458DG     C1710528   5.548   0.366   3.568  0.4585 -0.0817  0.0731
  458DG     C1810529   5.764   0.437   3.516  0.0451 -0.7433 -0.7632
  458DG     O1910530   5.630   0.399   3.468 -0.5423  0.6490  0.1600
  458DG     H2010531   5.588   0.268   3.596 -0.5229 -0.8558 -1.1248
  458DG     H2110532   5.549   0.447   3.640 -1.8124  0.5810 -0.5403
  458DG     H2210533   5.801   0.367   3.591 -1.1759 -0.0414  0.5528
  458DG     H2310534   5.759   0.522   3.585  0.0379 -2.3181  1.2711
  459DG      C110535   3.624   4.621   0.910 -0.2126  0.3961 -0.2980
  459DG      C210536   3.029   4.835   0.764  0.3511  0.0296  0.3882
  459DG      H310537   3.690   4.541   0.877  0.1084  0.5361 -0.0015
  459DG      H410538   3.593   4.611   1.014 -1.1745 -0.0911 -0.6211
  459DG      H510539   3.684   4.712   0.905 -1.1499  1.3486  3.1118
  459DG      H610540   2.955   4.879   0.696  1.7962  1.5436 -0.2746
  459DG      H710541   2.993   4.733   0.781 -3.0261  0.7480 -1.4819
  459DG      H810542   3.030   4.903   0.849  2.2558  3.5292 -2.1675
  459DG      O910543   3.513   4.625   0.827 -0.6234 -0.2252  0.6468
  459DG     O1010544   3.146   4.836   0.687 -0.0936  0.0714 -0.1530
  459DG     C1110545   3.555   4.621   0.691  0.0066  0.1654  0.3675
  459DG     C1210546   3.148   4.756   0.575  0.1974  0.4787  0.4252
  459DG     H1310547   3.600   4.525   0.665 -0.2681  0.4255 -1.1799
  459DG     H1410548   3.617   4.707   0.664  2.5194 -0.9641  2.1091
  459DG     H1510549   3.066   4.761   0.504  0.7068 -1.2610 -0.3401
  459DG     H1610550   3.129   4.655   0.610 -1.3859  0.3047 -0.8225
  459DG     C1710551   3.433   4.615   0.607 -0.2399 -0.6745 -0.0137
  459DG     C1810552   3.284   4.771   0.500  0.1346 -0.0601 -0.1552
  459DG     O1910553   3.393   4.754   0.587 -0.5474 -0.2714  0.0986
  459DG     H2010554   3.347   4.564   0.652  0.3995 -1.8670 -0.1277
  459DG     H2110555   3.447   4.566   0.511  0.9811 -0.0437 -0.1736
  459DG     H2210556   3.300   4.714   0.409  0.5520  0.2774 -0.2963
  459DG     H2310557   3.294   4.872   0.460 -3.1946 -0.5873 -2.7567
  460DG      C110558   4.685   0.082   1.821  0.0062 -0.1251 -0.6464
  460DG      C210559   5.278  -0.117   2.141  0.4070 -0.1296 -0.1775
  460DG      H310560   4.617   0.105   1.903 -0.7691 -1.2745 -0.9562
  460DG      H410561   4.683  -0.024   1.795  0.7100 -0.0873 -0.8871
  460DG      H510562   4.638   0.149   1.749 -0.4083  2.2788  1.6997
  460DG      H610563   5.364  -0.082   2.197  0.7785  0.7090 -1.2488
  460DG      H710564   5.231  -0.193   2.204 -1.2848  0.2046 -0.9487
  460DG      H810565   5.308  -0.164   2.047 -3.5507 -1.0340 -1.2058
  460DG      O910566   4.820   0.121   1.844 -0.0922  0.0775 -0.4367
  460DG     O1010567   5.200  -0.011   2.098  0.0097 -0.0694  0.1371
  460DG     C1110568   4.816   0.239   1.928  0.5271  0.4224  0.2709
  460DG     C1210569   5.147   0.061   2.207 -0.2990  0.1906 -1.1082
  460DG     H1310570   4.743   0.237   2.008 -0.5914  0.4077 -0.7256
  460DG     H1410571   4.782   0.316   1.859 -0.1787  0.1685  0.3269
  460DG     H1510572   5.220   0.089   2.283  0.0757 -0.0558 -1.3781
  460DG     H1610573   5.068   0.005   2.257  1.2465  0.9895  2.5816
  460DG     C1710574   4.951   0.261   1.987 -0.8711 -0.0950  0.1323
  460DG     C1810575   5.078   0.192   2.161 -0.3823  0.1589 -0.0547
  460DG     O1910576   4.967   0.157   2.078 -0.3442 -0.5296 -0.0387
  460DG     H2010577   4.955   0.363   2.025  1.5531  0.3484 -1.0908
  460DG     H2110578   5.030   0.265   1.912  0.5686 -3.9096  1.1883
  460DG     H2210579   5.037   0.248   2.244 -0.7152  0.5162 -0.4556
  460DG     H2310580   5.145   0.250   2.097  0.2288 -2.1670 -1.6839
  461DG      C110581   0.697   0.327   3.438  0.1719  0.4438  0.3682
  461DG      C210582   0.138   0.543   4.016  0.4397  0.3589  0.2710
  461DG      H310583   0.653   0.231   3.410 -1.7448  1.4182 -0.1533
  461DG      H410584   0.804   0.308   3.442 -0.0923 -1.1068  1.1765
  461DG      H510585   0.678   0.395   3.355 -1.3919 -0.3473  0.0325
  461DG      H610586   0.100   0.602   3.933  0.7933  0.4017  0.1372
  461DG      H710587   0.110   0.438   4.018  3.1136 -0.4901  3.1230
  461DG      H810588   0.088   0.580   4.106 -0.7544  1.0276 -0.6539
  461DG      O910589   0.641   0.375   3.558 -0.2955  0.1603 -0.0016
  461DG     O1010590   0.285   0.547   4.026  0.4479  0.6396 -0.4930
  461DG     C1110591   0.685   0.502   3.600 -0.5272  0.4567  0.3597
  461DG     C1210592   0.349   0.466   3.923 -0.4470 -0.5954  0.3384
  461DG     H1310593   0.621   0.581   3.562  0.9274  1.8318  0.6509
  461DG     H1410594   0.786   0.533   3.573 -1.1166  2.6233  0.4599
  461DG     H1510595   0.293   0.460   3.829 -0.0798 -0.4007  0.1006
  461DG     H1610596   0.357   0.359   3.943 -0.7903 -0.5906  0.5007
  461DG     C1710597   0.675   0.520   3.751  0.2110  0.2310  0.4505
  461DG     C1810598   0.491   0.512   3.900 -0.3736  0.0827 -0.4839
  461DG     O1910599   0.533   0.487   3.774 -0.6183  0.1120  0.9676
  461DG     H2010600   0.707   0.616   3.791  2.1858 -1.1920  2.5677
  461DG     H2110601   0.729   0.440   3.803 -1.3988 -0.0327  1.8000
  461DG     H2210602   0.498   0.620   3.916 -0.5002 -0.0567  0.5816
  461DG     H2310603   0.546   0.455   3.974  0.6288  0.5432 -0.8575
  462DG      C110604   1.864   5.142   1.101 -0.3977  0.4716 -0.3166
  462DG      C210605   1.133   4.948   1.174 -0.0293  0.2496  0.2448
  462DG      H310606   1.939   5.195   1.044  0.5444  2.2013  2.3330
  462DG      H410607   1.895   5.039   1.122  0.1666  0.8008  0.5179
  462DG      H510608   1.855   5.193   1.197 -2.2451  0.3552 -0.3938
  462DG      H610609   1.116   4.893   1.081  3.0297  2.7159 -1.9989
  462DG      H710610   1.154   4.883   1.259 -1.3355  0.1131  0.4960
  462DG      H810611   1.050   5.014   1.200  1.1932  2.3760 -0.9293
  462DG      O910612   1.743   5.120   1.038 -0.0711 -0.2278  0.1092
  462DG     O1010613   1.250   5.025   1.156  0.6535  0.2061 -0.4182
  462DG     C1110614   1.670   5.237   1.024  0.3635 -0.2032 -0.7524
  462DG     C1210615   1.281   5.101   1.274  0.3772 -0.6505 -0.2403
  462DG     H1310616   1.604   5.211   0.941 -0.1909 -0.1160 -0.3369
  462DG     H1410617   1.740   5.313   0.989  0.2121 -0.1631 -0.9657
  462DG     H1510618   1.332   5.042   1.350 -0.1764  0.2543  0.8585
  462DG     H1610619   1.204   5.145   1.337  0.2428 -1.5267  0.2194
  462DG     C1710620   1.586   5.278   1.148 -0.1465 -0.6483 -0.3154
  462DG     C1810621   1.374   5.219   1.247  0.4551  0.9502  0.4652
  462DG     O1910622   1.490   5.174   1.175  0.6021  0.1338  0.2067
  462DG     H2010623   1.541   5.376   1.130  0.2599 -0.4407 -0.2287
  462DG     H2110624   1.658   5.298   1.228 -0.6790  0.2888 -0.0481
  462DG     H2210625   1.323   5.299   1.192  0.5813  1.1268  0.6037
  462DG     H2310626   1.397   5.271   1.340 -2.4010  1.3150  1.0551
  463DG      C110627   5.187   0.146   4.200  0.3162  0.3670 -0.0270
  463DG      C210628   5.390   0.848   3.852 -0.4213  0.9708  0.9167
  463DG      H310629   5.216   0.044   4.174  0.2357  0.3787 -0.1621
  463DG      H410630   5.089   0.152   4.246  0.1064 -0.0660 -0.4127
  463DG      H510631   5.248   0.203   4.270  2.1615 -0.6084 -0.7653
  463DG      H610632   5.492   0.882   3.834 -0.4150 -0.4783 -2.6130
  463DG      H710633   5.322   0.912   3.796  0.7641  0.6532 -0.9684
  463DG      H810634   5.365   0.873   3.956  0.9782  1.5582  1.1301
  463DG      O910635   5.174   0.210   4.073  0.3363  0.0031 -0.3534
  463DG     O1010636   5.372   0.713   3.831 -0.1699  0.7996 -0.0794
  463DG     C1110637   5.304   0.225   4.009 -0.3759  0.0544  0.3050
  463DG     C1210638   5.240   0.674   3.875 -0.6155 -0.0323  0.8176
  463DG     H1310639   5.352   0.129   3.992 -1.3824 -0.3268 -0.5252
  463DG     H1410640   5.364   0.282   4.080 -0.9703  0.5715  0.4028
  463DG     H1510641   5.162   0.734   3.830 -0.5595 -0.2813  0.3842
  463DG     H1610642   5.232   0.677   3.984  3.4335 -2.5453  1.4146
  463DG     C1710643   5.310   0.309   3.881  0.1980  0.4589  0.4854
  463DG     C1810644   5.226   0.527   3.828 -0.8462  1.0073 -0.8893
  463DG     O1910645   5.308   0.443   3.908 -0.3960  0.5841  0.5346
  463DG     H2010646   5.228   0.275   3.818  0.3412  0.6585  0.1870
  463DG     H2110647   5.398   0.291   3.819 -0.8928  0.1258 -1.0426
  463DG     H2210648   5.125   0.486   3.837 -0.4299  0.2122  0.6824
  463DG     H2310649   5.262   0.502   3.728 -1.0772 -0.3978 -0.6456
  464DG      C110650   2.179   1.802   1.368  0.4592  0.5133  0.1045
  464DG      C210651   2.038   2.196   0.687  0.3468 -0.0675  0.0466
  464DG      H310652   2.133   1.803   1.467 -1.7781 -0.7826 -0.8210
  464DG      H410653   2.285   1.824   1.380  1.0710 -2.9656  2.8645
  464DG      H510654   2.176   1.707   1.316  0.7069  0.2794  0.5115
  464DG      H610655   2.048   2.305   0.693  1.5367 -0.2113  1.1364
  464DG      H710656   2.137   2.150   0.686  0.4846  0.2217 -0.9366
  464DG      H810657   1.987   2.179   0.592  1.8564 -1.5060 -0.5663
  464DG      O910658   2.100   1.902   1.295  0.0164  0.4186 -0.4023
  464DG     O1010659   1.957   2.141   0.797  0.1847 -0.1229  0.7603
  464DG     C1110660   1.968   1.849   1.283  0.0864  0.5845  0.6634
  464DG     C1210661   2.002   2.175   0.930 -0.1723 -0.0591 -0.3483
  464DG     H1310662   1.924   1.835   1.381 -0.2369  0.5805  0.5169
  464DG     H1410663   1.970   1.750   1.237  1.2567  1.3221 -0.9957
  464DG     H1510664   2.008   2.283   0.939  0.5185  0.0500 -1.8938
  464DG     H1610665   2.102   2.136   0.949 -0.3176 -0.0987  0.3523
  464DG     C1710666   1.885   1.938   1.192 -0.9500  0.9357  0.6473
  464DG     C1810667   1.912   2.121   1.050 -0.2954 -0.6019  0.2497
  464DG     O1910668   1.968   1.992   1.088 -0.3130  0.9630 -0.1580
  464DG     H2010669   1.857   2.016   1.263 -0.8141  0.1458  1.5936
  464DG     H2110670   1.795   1.888   1.155 -0.0420  0.0616 -0.4493
  464DG     H2210671   1.925   2.189   1.133 -1.3890 -1.6580  1.3165
  464DG     H2310672   1.810   2.113   1.012 -0.4233  2.0825 -0.1431
  465DG      C110673   3.998   4.804   4.666  0.1944 -0.2378 -0.2177
  465DG      C210674   3.949   4.758   5.502 -0.2409 -0.4015  0.0049
  465DG      H310675   4.064   4.851   4.593 -0.6893  0.7390 -0.4121
  465DG      H410676   3.898   4.846   4.682 -0.4245 -1.8777  0.4273
  465DG      H510677   3.982   4.698   4.646 -0.9726 -0.3108  0.9529
  465DG      H610678   3.912   4.660   5.474  1.9185 -2.3923  3.4627
  465DG      H710679   3.983   4.744   5.604  1.2356 -1.6752 -0.6223
  465DG      H810680   3.863   4.824   5.515 -0.0250 -0.5814  3.0962
  465DG      O910681   4.060   4.795   4.786 -0.3685 -0.5655  0.1305
  465DG     O1010682   4.047   4.807   5.415 -0.1942 -0.0268 -0.0354
  465DG     C1110683   4.103   4.922   4.840 -0.3575  0.6482  0.1456
  465DG     C1210684   3.996   4.850   5.294  0.0545  0.3285 -0.4636
  465DG     H1310685   4.021   4.995   4.832 -1.0990 -0.2862 -1.2335
  465DG     H1410686   4.175   4.963   4.769  0.6362 -1.8845 -0.4154
  465DG     H1510687   3.934   4.939   5.303 -3.3281 -1.8765 -0.0296
  465DG     H1610688   3.944   4.766   5.247  1.6347 -0.3971 -1.0037
  465DG     C1710689   4.168   4.911   4.981  0.6634  0.3576 -0.5800
  465DG     C1810690   4.111   4.883   5.202 -0.2979  1.1537  0.2569
  465DG     O1910691   4.072   4.857   5.069  0.7404  0.9136  0.1656
  465DG     H2010692   4.196   5.008   5.021  0.2482 -0.4704  1.8608
  465DG     H2110693   4.260   4.854   4.997  1.6668  1.7203 -1.2539
  465DG     H2210694   4.137   4.988   5.219  0.4320  0.7329  1.9052
  465DG     H2310695   4.196   4.826   5.240 -0.1080  2.3777  1.7890
  466DG      C110696   2.010   3.932   2.675  0.8124  0.3859  0.3048
  466DG      C210697   2.151   3.164   2.635 -0.1076 -0.9335 -0.2326
  466DG      H310698   1.914   3.947   2.723  0.2868  1.1674 -0.9461
  466DG      H410699   2.044   4.020   2.620  0.3075  0.8061  0.6529
  466DG      H510700   2.078   3.910   2.757  2.1982  0.0230 -0.8962
  466DG      H610701   2.113   3.078   2.580  0.9061  0.5455 -3.4952
  466DG      H710702   2.249   3.149   2.681  0.6609 -0.4891 -1.6818
  466DG      H810703   2.085   3.184   2.720  0.9716  0.3022  0.3552
  466DG      O910704   2.016   3.830   2.583 -0.2364  0.2513 -0.1820
  466DG     O1010705   2.172   3.268   2.542 -0.1109 -0.1424 -0.7591
  466DG     C1110706   2.145   3.799   2.532 -0.3984  0.2092  0.2685
  466DG     C1210707   2.066   3.325   2.476 -0.4162 -1.0465  0.0657
  466DG     H1310708   2.217   3.773   2.609 -0.5761 -0.5245  0.1968
  466DG     H1410709   2.190   3.884   2.483 -1.9793 -0.1466 -1.9593
  466DG     H1510710   1.985   3.342   2.546 -0.6067  0.6712 -0.5304
  466DG     H1610711   2.031   3.260   2.396  0.6648  1.5974 -2.7819
  466DG     C1710712   2.131   3.687   2.437  0.9568  0.1880 -0.2325
  466DG     C1810713   2.090   3.457   2.407  0.2137 -0.3471  0.4327
  466DG     O1910714   2.118   3.562   2.501  0.4222 -0.0593 -0.3457
  466DG     H2010715   2.207   3.680   2.358 -0.2382 -2.1001 -1.2680
  466DG     H2110716   2.039   3.709   2.384  1.5551  2.3494 -0.4970
  466DG     H2210717   2.177   3.447   2.343 -1.4594 -1.0777 -1.8796
  466DG     H2310718   2.004   3.485   2.345 -0.4637 -0.5584  1.2585
  467DG      C110719   5.484   4.867   3.882  0.1730  0.2460 -0.0134
  467DG      C210720   5.045   4.544   3.494 -0.4426 -0.3344  0.0619
  467DG      H310721   5.516   4.770   3.842 -1.1275  0.7140 -2.3963
  467DG      H410722   5.537   4.879   3.976  0.6359 -0.7967 -0.1272
  467DG      H510723   5.500   4.959   3.827  0.2634  0.3764  0.2344
  467DG      H610724   5.080   4.460   3.435 -1.2101 -3.0722  3.2077
  467DG      H710725   4.948   4.578   3.457 -0.5215 -0.5780  0.0458
  467DG      H810726   5.110   4.632   3.489  0.1888 -0.8887 -2.2372
  467DG      O910727   5.340   4.866   3.893 -0.3973 -0.0912 -0.3508
  467DG     O1010728   5.027   4.525   3.631  0.1349 -0.4859  0.1291
  467DG     C1110729   5.298   4.771   3.988  0.1370 -0.4378  0.6958
  467DG     C1210730   5.140   4.491   3.702  0.1168 -0.5744 -1.1975
  467DG     H1310731   5.317   4.816   4.085 -0.4984  1.9181 -0.2031
  467DG     H1410732   5.355   4.678   3.980 -1.7463 -1.6248  0.5480
  467DG     H1510733   5.237   4.509   3.656  0.8003 -1.6326 -0.2321
  467DG     H1610734   5.139   4.383   3.710 -2.7188 -0.5610 -0.4446
  467DG     C1710735   5.148   4.749   3.964  0.8840 -0.5528  0.0845
  467DG     C1810736   5.122   4.540   3.845 -0.4826  0.0078 -0.2014
  467DG     O1910737   5.116   4.685   3.844  0.3835  0.7314 -0.0838
  467DG     H2010738   5.096   4.844   3.975 -0.1720 -1.1777  0.6305
  467DG     H2110739   5.110   4.703   4.056  2.3657 -1.1490  0.4263
  467DG     H2210740   5.038   4.495   3.899  0.7670 -0.5585  1.3727
  467DG     H2310741   5.213   4.517   3.899 -2.3007 -0.2349  3.0204
  468DG      C110742   4.776   3.628   3.352  0.4063 -0.0750  0.2415
  468DG      C210743   4.106   3.528   2.937 -0.7378 -0.1078 -0.1906
  468DG      H310744   4.839   3.625   3.263  1.2870  0.1750  0.8407
  468DG      H410745   4.839   3.563   3.413  0.5163 -0.2586 -0.0709
  468DG      H510746   4.773   3.728   3.397 -0.9568 -0.9634  2.2986
  468DG      H610747   4.107   3.637   2.946  0.4348 -0.0568 -0.7003
  468DG      H710748   4.119   3.518   2.829  1.8757 -2.1699  0.1865
  468DG      H810749   4.014   3.475   2.959 -0.9757 -0.4549 -1.8885
  468DG      O910750   4.654   3.557   3.329  0.4652 -0.4397 -0.2068
  468DG     O1010751   4.217   3.459   2.999 -0.4327  0.3388  0.0156
  468DG     C1110752   4.574   3.557   3.447 -0.3352  0.2308  0.0154
  468DG     C1210753   4.229   3.506   3.129  0.5290 -0.4624 -0.6747
  468DG     H1310754   4.521   3.652   3.444 -1.9980 -0.6776 -0.5587
  468DG     H1410755   4.633   3.552   3.539  0.5621  0.9918 -0.5078
  468DG     H1510756   4.134   3.520   3.180  1.4325 -0.9123  1.2093
  468DG     H1610757   4.267   3.608   3.128  0.9688 -0.6191 -0.1629
  468DG     C1710758   4.457   3.459   3.421 -0.1416 -0.9429 -0.1554
  468DG     C1810759   4.326   3.420   3.215  0.2753 -0.7027 -0.3201
  468DG     O1910760   4.353   3.505   3.332 -0.0792  0.5014  0.7339
  468DG     H2010761   4.401   3.454   3.514 -0.9608  0.1983 -0.5694
  468DG     H2110762   4.501   3.361   3.401  2.4553  0.0852  0.0950
  468DG     H2210763   4.264   3.338   3.249 -2.0773  0.7913 -0.7646
  468DG     H2310764   4.421   3.401   3.166  0.8179  0.2409  0.3171
  469DG      C110765   1.626   3.367   2.047  0.2803 -0.3388  0.0817
  469DG      C210766   1.877   3.169   1.482  0.3073  0.1638  0.2965
  469DG      H310767   1.539   3.315   2.086 -1.1979  1.6574 -0.4244
  469DG      H410768   1.610   3.470   2.077  1.7381  0.9126 -2.9255
  469DG      H510769   1.720   3.353   2.100  0.6354  0.5740 -0.2786
  469DG      H610770   1.769   3.161   1.485  0.2811  0.5397  0.4237
  469DG      H710771   1.888   3.277   1.476 -0.1407  0.1395 -1.6209
  469DG      H810772   1.911   3.118   1.392 -1.1366 -1.1527  0.4673
  469DG      O910773   1.638   3.375   1.906  0.0241 -0.5396 -0.4735
  469DG     O1010774   1.935   3.103   1.592 -0.5587  0.4477 -0.6383
  469DG     C1110775   1.621   3.244   1.848  0.1824 -0.5015 -0.1508
  469DG     C1210776   1.871   2.976   1.617 -0.1392  0.1088 -0.5918
  469DG     H1310777   1.576   3.274   1.753  0.4197  1.0919  0.2079
  469DG     H1410778   1.549   3.190   1.909  1.3446  0.7203  2.4487
  469DG     H1510779   1.944   2.898   1.594 -0.9632 -0.7384 -0.3930
  469DG     H1610780   1.788   2.944   1.553 -0.0275 -0.9088 -0.2450
  469DG     C1710781   1.755   3.168   1.826  0.9643 -0.4399 -0.6223
  469DG     C1810782   1.839   2.960   1.758  0.2679 -0.9141  0.0986
  469DG     O1910783   1.725   3.043   1.773 -0.1039  0.6470 -0.1486
  469DG     H2010784   1.794   3.152   1.926 -1.4746  0.7037  0.6007
  469DG     H2110785   1.815   3.238   1.769 -2.5160  2.4632 -1.1012
  469DG     H2210786   1.813   2.856   1.776  0.3118 -1.4504 -2.6167
  469DG     H2310787   1.924   2.982   1.823 -0.3432  0.9795  0.3248
  470DG      C110788   0.231   4.172   1.608 -0.2776  0.1739  0.1543
  470DG      C210789  -0.557   4.050   1.577  0.2005  0.4003 -0.3331
  470DG      H310790   0.235   4.280   1.591 -1.5228  0.3580  0.9300
  470DG      H410791   0.282   4.117   1.529  3.1506 -0.0596  2.3122
  470DG      H510792   0.292   4.160   1.697 -0.4240  1.8063  0.5141
  470DG      H610793  -0.569   3.994   1.484  1.2732 -0.2604 -0.0939
  470DG      H710794  -0.622   4.003   1.650  0.8547  0.3093  0.2046
  470DG      H810795  -0.580   4.155   1.564  1.9627  0.8990  0.2665
  470DG      O910796   0.092   4.136   1.623 -0.2957 -0.2908 -0.5045
  470DG     O1010797  -0.421   4.029   1.616 -0.2964 -0.0883  0.0155
  470DG     C1110798   0.077   4.000   1.642 -0.1462 -0.7286 -0.5265
  470DG     C1210799  -0.382   4.119   1.717  0.0579  0.3101 -0.1542
  470DG     H1310800   0.162   3.949   1.687  0.0263 -1.1757 -1.3573
  470DG     H1410801   0.033   3.944   1.560 -2.3755 -0.8132  0.6351
  470DG     H1510802  -0.465   4.127   1.787 -1.5150  1.8700 -2.0502
  470DG     H1610803  -0.364   4.220   1.680 -2.7000  0.3382 -1.6961
  470DG     C1710804  -0.042   3.976   1.740  0.7143  0.4218  0.0046
  470DG     C1810805  -0.254   4.067   1.784 -0.3058 -0.6428 -0.5949
  470DG     O1910806  -0.155   4.034   1.684 -0.2969  0.0440 -0.4629
  470DG     H2010807  -0.003   4.023   1.830  5.6579 -0.4203 -1.3753
  470DG     H2110808  -0.058   3.869   1.754 -0.8674  0.7867  1.2562
  470DG     H2210809  -0.207   4.126   1.863  2.4065 -3.3111 -0.0111
  470DG     H2310810  -0.280   3.969   1.826 -0.9485 -0.3854 -0.3771
  471DG      C110811   5.230   1.030   3.062 -0.4858 -0.3184 -0.3814
  471DG      C210812   4.580   1.055   3.126 -0.4598 -0.2468  0.7344
  471DG      H310813   5.314   1.098   3.075  0.3082 -1.3415 -0.1407
  471DG      H410814   5.276   0.952   3.002 -1.0009  0.0360 -1.2536
  471DG      H510815   5.194   0.995   3.159 -0.4225  0.8853  0.0989
  471DG      H610816   4.537   1.008   3.038 -1.4118  0.7324  0.6542
  471DG      H710817   4.669   1.000   3.156  0.1781  0.6209  0.4629
  471DG      H810818   4.503   1.047   3.204 -0.8215  2.6076  0.7559
  471DG      O910819   5.122   1.097   2.998  0.3257  0.4032  0.0179
  471DG     O1010820   4.643   1.174   3.098  0.4464 -0.2539 -0.2446
  471DG     C1110821   5.078   1.218   3.062 -1.0009  0.0829 -0.0035
  471DG     C1210822   4.678   1.247   3.219 -0.4282  0.7796  0.1592
  471DG     H1310823   5.094   1.300   2.992  1.9884 -1.0604 -0.8122
  471DG     H1410824   5.129   1.240   3.156 -1.0929 -1.1515  0.3533
  471DG     H1510825   4.701   1.183   3.304  1.0709  2.1002  0.8052
  471DG     H1610826   4.587   1.291   3.260  0.0801  1.6297  0.4099
  471DG     C1710827   4.935   1.216   3.099  0.2279  0.0788  0.2573
  471DG     C1810828   4.772   1.360   3.203 -0.6932 -0.0480  0.0741
  471DG     O1910829   4.910   1.320   3.192  0.5143  0.3270  0.2379
  471DG     H2010830   4.908   1.119   3.142  0.8132  0.5314  1.6916
  471DG     H2110831   4.886   1.232   3.003 -0.2275  0.0600  0.4829
  471DG     H2210832   4.756   1.405   3.106  0.2281  0.4788  0.1534
  471DG     H2310833   4.764   1.434   3.282  0.2786 -0.4291  0.5538
  472DG      C110834   1.681   4.359   1.824 -0.8678 -0.0385 -0.5995
  472DG      C210835   1.936   4.115   1.355 -0.7281  0.1004 -0.7205
  472DG      H310836   1.752   4.441   1.825  0.7599 -1.3777  1.3374
  472DG      H410837   1.643   4.364   1.925  2.4007  0.8195  0.7146
  472DG      H510838   1.606   4.372   1.746 -1.0738 -0.4555 -0.4749
  472DG      H610839   1.993   4.061   1.279 -0.6961 -0.4354 -0.3215
  472DG      H710840   1.844   4.143   1.305 -0.1681  1.4297 -1.0397
  472DG      H810841   1.983   4.206   1.391  1.3592 -1.4403  0.6789
  472DG      O910842   1.743   4.232   1.802 -0.8588 -0.2865 -0.2192
  472DG     O1010843   1.908   4.026   1.459  0.1890  0.2100 -0.2526
  472DG     C1110844   1.851   4.194   1.896  0.2580  0.5370 -0.2690
  472DG     C1210845   2.027   3.979   1.517 -0.0585  0.0955  0.1386
  472DG     H1310846   1.827   4.194   2.002  0.5913  0.3220 -0.1898
  472DG     H1410847   1.937   4.260   1.885  1.4790 -1.0291 -0.4737
  472DG     H1510848   2.110   4.047   1.497 -0.0383  0.0703  0.1363
  472DG     H1610849   2.049   3.891   1.457  0.1012 -0.2602  0.7088
  472DG     C1710850   1.907   4.059   1.845  0.4270  0.4303 -0.6420
  472DG     C1810851   1.999   3.954   1.663 -0.1059 -0.8924  0.6353
  472DG     O1910852   1.945   4.078   1.711  0.4186 -0.1840  0.1773
  472DG     H2010853   1.817   3.996   1.844  0.5477  0.2512 -1.2262
  472DG     H2110854   1.973   4.014   1.919  1.5538 -0.3705 -2.0785
  472DG     H2210855   1.930   3.870   1.660 -1.0498 -0.1146  0.0034
  472DG     H2310856   2.090   3.918   1.710 -0.3205 -1.1608  0.8489
  473DG      C110857   2.617   1.777   2.389  0.1601  0.1697  0.6342
  473DG      C210858   3.136   2.210   1.978  0.4065  1.1181 -0.3317
  473DG      H310859   2.620   1.698   2.464  1.9641  0.5300  0.9878
  473DG      H410860   2.565   1.748   2.298  1.7085 -0.2499 -0.1598
  473DG      H510861   2.578   1.874   2.421  0.1059  0.4503 -0.2538
  473DG      H610862   3.189   2.166   1.893  0.2859  0.5541 -0.1214
  473DG      H710863   3.065   2.278   1.932  0.6179  1.7456  0.2617
  473DG      H810864   3.212   2.270   2.028 -0.2234  1.1154  0.6504
  473DG      O910865   2.746   1.812   2.357 -0.2704  0.0971  0.0591
  473DG     O1010866   3.071   2.107   2.059  0.4363 -0.2691 -0.4035
  473DG     C1110867   2.824   1.717   2.294  0.3582  0.5378 -1.3005
  473DG     C1210868   3.167   2.010   2.104 -0.1720 -0.3207 -0.4977
  473DG     H1310869   2.771   1.690   2.202 -3.6775  2.2956  0.2824
  473DG     H1410870   2.816   1.624   2.350 -1.0136  2.7064  2.4264
  473DG     H1510871   3.270   2.044   2.110 -0.6397  1.1668 -0.4829
  473DG     H1610872   3.177   1.937   2.024  0.0621  0.1439 -0.8972
  473DG     C1710873   2.973   1.761   2.283  0.1330  0.1214  0.5876
  473DG     C1810874   3.123   1.936   2.227  0.6137 -0.0212  0.3557
  473DG     O1910875   2.994   1.879   2.198 -0.3880 -0.5889 -0.0976
  473DG     H2010876   3.023   1.679   2.232  0.2210  0.6872 -0.2659
  473DG     H2110877   3.018   1.766   2.382  2.5678  1.0199 -0.4627
  473DG     H2210878   3.188   1.852   2.252  1.6682  0.6565 -0.0596
  473DG     H2310879   3.118   2.006   2.311 -0.9777  0.6701 -0.2720
  474DG      C110880   0.833   3.641   2.344 -0.0892  0.5203 -0.0224
  474DG      C210881   0.899   3.186   2.925 -0.2389  0.4103 -0.2506
  474DG      H310882   0.858   3.731   2.399  2.3444  1.0589 -1.8478
  474DG      H410883   0.729   3.607   2.345  0.3065 -0.7624 -0.3120
  474DG      H510884   0.864   3.661   2.241 -0.8224  1.6972 -0.0327
  474DG      H610885   0.894   3.088   2.974 -0.1263  1.2677  1.5802
  474DG      H710886   0.912   3.258   3.006 -0.4017  0.5784 -0.3729
  474DG      H810887   0.802   3.201   2.877 -0.1644  1.0065 -0.2259
  474DG      O910888   0.920   3.534   2.387  0.7464 -0.0201 -0.7869
  474DG     O1010889   1.006   3.188   2.841 -0.3973  0.0965  0.4858
  474DG     C1110890   1.056   3.567   2.396  0.0607  1.2676  0.1124
  474DG     C1210891   1.007   3.290   2.733 -0.3731  0.4191 -0.0571
  474DG     H1310892   1.088   3.671   2.395  1.7552  0.7793 -0.0601
  474DG     H1410893   1.114   3.528   2.312 -0.5300  0.4648  0.0638
  474DG     H1510894   1.024   3.383   2.788  0.5248  0.5166 -0.4807
  474DG     H1610895   0.917   3.300   2.672  0.0492  0.6284 -0.6503
  474DG     C1710896   1.106   3.487   2.514  0.2986 -0.3389 -0.6464
  474DG     C1810897   1.124   3.276   2.630  0.3350 -0.2275 -0.0933
  474DG     O1910898   1.087   3.349   2.505 -0.5138 -0.3866  0.2257
  474DG     H2010899   1.050   3.519   2.602 -1.7358 -0.3314 -1.8730
  474DG     H2110900   1.214   3.500   2.523  0.1986  0.2420 -0.1244
  474DG     H2210901   1.220   3.314   2.666 -0.4701  0.0996  1.8704
  474DG     H2310902   1.136   3.168   2.619  0.5639 -0.0528 -1.6925
  475DG      C110903   1.086   2.107   1.057 -0.0493  0.4419  0.1570
  475DG      C210904   1.277   2.330   1.651  0.3218  0.0580 -0.5230
  475DG      H310905   1.183   2.139   1.017 -1.1017  2.4837 -0.9564
  475DG      H410906   1.001   2.145   0.999  0.6902  1.7339 -0.1328
  475DG      H510907   1.080   1.999   1.046 -0.5402  0.4819  0.0165
  475DG      H610908   1.260   2.225   1.675 -1.0909  0.8580  2.5445
  475DG      H710909   1.370   2.338   1.595  1.4227 -1.9744  0.8936
  475DG      H810910   1.294   2.374   1.750  2.7222  0.6902 -1.1376
  475DG      O910911   1.071   2.148   1.189  0.3793  0.2725 -0.3348
  475DG     O1010912   1.172   2.386   1.585  0.1781  0.6294  0.2354
  475DG     C1110913   0.948   2.092   1.240 -0.6593 -0.7191  0.1392
  475DG     C1210914   1.042   2.363   1.648 -0.2164 -0.8199  0.2864
  475DG     H1310915   0.948   1.986   1.217 -1.5001 -0.2355 -2.4139
  475DG     H1410916   0.861   2.125   1.183 -0.3242 -1.7561 -1.0085
  475DG     H1510917   0.964   2.432   1.613  1.7051  0.0285 -2.6892
  475DG     H1610918   1.048   2.380   1.755  0.7387  1.7754 -0.1118
  475DG     C1710919   0.947   2.111   1.397 -0.2750  0.5549 -0.6353
  475DG     C1810920   0.986   2.237   1.591 -0.0333  0.3235  0.2058
  475DG     O1910921   1.004   2.229   1.450  0.1201 -0.4302  0.0568
  475DG     H2010922   0.987   2.019   1.440 -2.2333 -0.3114 -0.5638
  475DG     H2110923   0.843   2.097   1.426 -0.2741  0.4702 -0.6713
  475DG     H2210924   1.024   2.154   1.650  0.4418  1.6459  1.8098
  475DG     H2310925   0.880   2.220   1.610  0.0159 -0.9933 -0.5392
  476DG      C110926   1.074   4.114   0.138  0.2768 -0.0170  0.4292
  476DG      C210927   0.684   3.775   0.555  0.4322  0.9226 -0.6795
  476DG      H310928   1.061   4.215   0.176 -0.3002  0.4273 -0.8705
  476DG      H410929   0.984   4.096   0.079  1.1136  0.5887 -1.0922
  476DG      H510930   1.162   4.109   0.074  1.0846  2.9506  1.1561
  476DG      H610931   0.667   3.821   0.653  1.6889 -0.8018  0.4215
  476DG      H710932   0.624   3.824   0.479 -1.2494  1.3202  0.8211
  476DG      H810933   0.657   3.669   0.555  0.2702  0.9214  1.2586
  476DG      O910934   1.089   4.006   0.231 -0.2363 -0.3077  0.4849
  476DG     O1010935   0.822   3.789   0.521  0.6039  0.2540  0.1346
  476DG     C1110936   1.191   4.028   0.326  0.0864 -0.5094  0.0945
  476DG     C1210937   0.911   3.794   0.627  0.5389 -0.0001  0.3091
  476DG     H1310938   1.178   4.118   0.386  1.9842  0.3588 -0.6976
  476DG     H1410939   1.291   4.025   0.281  0.2329  1.2980  0.2233
  476DG     H1510940   0.904   3.709   0.694 -1.9532  0.4121  0.6725
  476DG     H1610941   0.880   3.881   0.686  1.9120  0.0860  0.9401
  476DG     C1710942   1.183   3.904   0.414 -0.1199  0.0490  0.2905
  476DG     C1810943   1.051   3.808   0.577 -0.1901  0.5433  0.4915
  476DG     O1910944   1.060   3.905   0.480 -0.2373  0.7828  0.6139
  476DG     H2010945   1.272   3.906   0.477 -0.7740  3.7847  1.3559
  476DG     H2110946   1.197   3.821   0.345 -1.2392  1.4938 -1.7631
  476DG     H2210947   1.118   3.838   0.658 -1.4023  3.9358  0.3682
  476DG     H2310948   1.079   3.706   0.551 -1.3273  0.1646  0.7090
  477DG      C110949   4.157   1.638   1.649  0.0119 -0.6732 -0.3121
  477DG      C210950   3.584   1.621   1.225  0.4088 -0.1391  0.5066
  477DG      H310951   4.128   1.551   1.708  1.3639 -1.0206 -0.1353
  477DG      H410952   4.221   1.703   1.709 -0.4554 -1.0197  0.5854
  477DG      H510953   4.218   1.604   1.566 -1.8420  0.1298 -2.1054
  477DG      H610954   3.490   1.585   1.267  0.1919 -1.2608 -0.8757
  477DG      H710955   3.540   1.683   1.147 -0.6109  1.4210  2.2599
  477DG      H810956   3.642   1.540   1.180  0.4701  0.7075 -0.9864
  477DG      O910957   4.041   1.702   1.609 -0.2814 -0.0440  0.6100
  477DG     O1010958   3.672   1.697   1.310 -0.5914  0.1589  0.1584
  477DG     C1110959   3.951   1.751   1.710 -0.1135 -0.1859  0.6620
  477DG     C1210960   3.598   1.783   1.395  0.4039 -0.0337  0.4525
  477DG     H1310961   4.013   1.797   1.786  0.7112 -0.3016  0.0716
  477DG     H1410962   3.902   1.671   1.765 -0.0819 -0.3073  0.5161
  477DG     H1510963   3.524   1.726   1.451 -0.5536  0.7932  0.0673
  477DG     H1610964   3.539   1.848   1.330  1.1380  1.0248  0.8076
  477DG     C1710965   3.861   1.851   1.644 -0.1456 -0.4592 -0.7285
  477DG     C1810966   3.685   1.875   1.486  0.3727  0.7056  0.0351
  477DG     O1910967   3.776   1.788   1.549 -0.1533 -0.0889  0.1965
  477DG     H2010968   3.925   1.926   1.596  1.2316  0.8264  2.8110
  477DG     H2110969   3.802   1.911   1.712  1.2456  0.5526 -0.3755
  477DG     H2210970   3.735   1.962   1.443 -0.1660  1.4143  0.8093
  477DG     H2310971   3.625   1.934   1.555  1.7175  1.1482  0.8566
  478DG      C110972   0.713   1.835   2.648  0.1766 -0.0303  0.6595
  478DG      C210973   0.944   1.242   2.622 -0.1519  0.0703 -0.3834
  478DG      H310974   0.740   1.939   2.667 -0.7951  0.3125  0.2339
  478DG      H410975   0.604   1.833   2.649  0.1545  0.7748  1.9537
  478DG      H510976   0.743   1.798   2.550  4.8814  0.4901  1.6882
  478DG      H610977   0.846   1.193   2.625 -0.7017  1.1717  0.0647
  478DG      H710978   0.962   1.287   2.525  3.5409 -0.0234  0.1144
  478DG      H810979   1.027   1.172   2.633 -0.0898  0.1298 -0.4743
  478DG      O910980   0.773   1.750   2.738  0.5690  0.4560  0.2178
  478DG     O1010981   0.943   1.348   2.718 -0.3008  0.0453 -0.1525
  478DG     C1110982   0.726   1.750   2.870 -0.2909  0.1986 -0.4189
  478DG     C1210983   0.895   1.302   2.840  0.1251 -0.1877 -0.8461
  478DG     H1310984   0.623   1.717   2.863  0.0581 -0.7090 -1.5807
  478DG     H1410985   0.742   1.845   2.921  1.5474 -0.2727 -0.0223
  478DG     H1510986   0.959   1.226   2.884 -0.5800 -1.1709 -1.4718
  478DG     H1610987   0.792   1.267   2.850 -0.3195  1.6283  2.1649
  478DG     C1710988   0.822   1.653   2.941  0.1720 -0.2077 -0.0141
  478DG     C1810989   0.899   1.433   2.938 -0.3509 -0.2249  1.1325
  478DG     O1910990   0.834   1.537   2.866 -0.3494 -0.1293 -0.6213
  478DG     H2010991   0.802   1.636   3.046 -0.8865  0.1310 -0.1466
  478DG     H2110992   0.920   1.701   2.944  0.3131 -0.4654 -0.3317
  478DG     H2210993   0.850   1.424   3.035 -0.9626  0.8026  0.9307
  478DG     H2310994   1.004   1.449   2.960  0.4258 -1.7961 -0.9896
  479DG      C110995   2.459   1.713   3.683 -0.4462 -0.0438 -0.4970
  479DG      C210996   2.763   2.315   3.928 -0.1723  0.0227 -0.4596
  479DG      H310997   2.361   1.758   3.664 -0.3564  0.4139  0.0941
  479DG      H410998   2.458   1.667   3.783  0.4877 -1.6394 -1.1788
  479DG      H510999   2.469   1.627   3.617  0.0659 -1.2916  1.1295
  479DG      H611000   2.793   2.349   3.829  0.0250  0.2216 -0.3337
  479DG      H711001   2.654   2.313   3.926 -0.2699 -0.9821  2.0945
  479DG      H811002   2.810   2.371   4.010 -0.8404  0.0854 -0.1107
  479DG      O911003   2.563   1.807   3.675  0.5450 -0.2609  0.2151
  479DG     O1011004   2.820   2.187   3.920 -0.1968  0.5509  0.1066
  479DG     C1111005   2.698   1.761   3.673  0.9340 -0.7613 -0.2111
  479DG     C1211006   2.771   2.091   4.011 -0.2403 -0.6757 -0.2635
  479DG     H1311007   2.756   1.815   3.598  0.9562  1.3275  1.2332
  479DG     H1411008   2.696   1.654   3.649  1.3171 -0.0583 -3.9434
  479DG     H1511009   2.663   2.106   4.015 -0.1185  0.5840 -1.2747
  479DG     H1611010   2.805   2.109   4.113  0.5643 -0.4415 -0.5647
  479DG     C1711011   2.764   1.788   3.811 -0.0459 -0.1817 -0.2836
  479DG     C1811012   2.803   1.954   3.968  0.2287  0.0205 -0.5785
  479DG     O1911013   2.760   1.925   3.835  0.4669  0.5386 -0.2593
  479DG     H2011014   2.869   1.762   3.800  0.0473 -0.5071  1.1611
  479DG     H2111015   2.713   1.725   3.884 -0.1244 -1.2769 -1.2617
  479DG     H2211016   2.910   1.934   3.973  0.2639  0.3630  0.1897
  479DG     H2311017   2.745   1.893   4.037  0.6912 -1.6812 -1.6446
  480DG      C111018   2.641   1.049   2.333 -0.4152 -0.0198  0.0969
  480DG      C211019   3.160   1.261   1.873  0.4359  0.2731 -0.0851
  480DG      H311020   2.575   1.136   2.338 -0.6136 -0.0905 -0.9614
  480DG      H411021   2.727   1.063   2.398  1.0135  1.2094 -1.9441
  480DG      H511022   2.574   0.978   2.383 -0.3112  0.7810  1.4254
  480DG      H611023   3.178   1.363   1.906 -0.6245  0.2069  0.7410
  480DG      H711024   3.256   1.226   1.834 -0.4554 -1.9938 -0.4020
  480DG      H811025   3.091   1.255   1.789  1.0571  0.0128 -0.5895
  480DG      O911026   2.666   1.021   2.194  0.1614  0.4930  0.6121
  480DG     O1011027   3.131   1.180   1.986  0.0251 -0.5767  0.2069
  480DG     C1111028   2.739   0.901   2.177  0.2676  0.0761 -0.1613
  480DG     C1211029   3.119   1.043   1.945  0.1419  0.3277  0.0721
  480DG     H1311030   2.669   0.821   2.155  1.3108 -1.0237  0.3968
  480DG     H1411031   2.775   0.859   2.271  0.0300 -0.1905 -0.1878
  480DG     H1511032   3.213   1.009   1.903 -0.3477  0.3002 -1.0418
  480DG     H1611033   3.043   1.031   1.867  1.1414  0.4667 -0.9441
  480DG     C1711034   2.854   0.924   2.070 -0.5471  1.2053  0.2326
  480DG     C1811035   3.085   0.963   2.068 -0.1625  0.2507 -0.6143
  480DG     O1911036   2.961   0.994   2.131  0.0958  0.1267 -0.0837
  480DG     H2011037   2.820   0.980   1.984 -2.3580 -0.4577 -0.2185
  480DG     H2111038   2.885   0.829   2.026  0.1534  1.1018  0.9189
  480DG     H2211039   3.095   0.857   2.048 -0.9046 -0.2087  1.2700
  480DG     H2311040   3.152   0.991   2.149  0.3727 -0.9549 -0.6211
  481DG      C111041   3.521   5.498   2.751 -0.0998 -0.6325  0.5519
  481DG      C211042   3.895   4.852   2.701  0.6790 -0.1688 -0.2033
  481DG      H311043   3.543   5.604   2.736  2.0721 -1.1174 -0.0561
  481DG      H411044   3.518   5.483   2.859  0.0951 -0.6612  0.5545
  481DG      H511045   3.428   5.474   2.699  0.9776 -1.9467 -0.8767
  481DG      H611046   3.992   4.801   2.706 -0.7398 -3.1233 -0.7004
  481DG      H711047   3.855   4.862   2.802  0.3562 -0.1824 -0.3296
  481DG      H811048   3.833   4.779   2.649 -0.5437  0.1066  0.8418
  481DG      O911049   3.630   5.431   2.689 -0.7564  0.2615 -0.2102
  481DG     O1011050   3.901   4.969   2.622  0.2675  0.0017 -0.0320
  481DG     C1111051   3.758   5.455   2.748  0.2001 -0.0263 -0.3532
  481DG     C1211052   3.780   5.034   2.582 -0.1865  0.5454  1.0247
  481DG     H1311053   3.776   5.417   2.849 -0.3128  2.0722  0.5855
  481DG     H1411054   3.763   5.563   2.765  0.4010 -0.4930  3.5057
  481DG     H1511055   3.703   5.034   2.659 -1.8767  1.0194 -0.5865
  481DG     H1611056   3.737   4.983   2.495  1.6823 -0.8631  0.8617
  481DG     C1711057   3.858   5.390   2.655  0.4333  0.1342 -0.2319
  481DG     C1811058   3.801   5.181   2.542  0.3901 -0.7571 -0.2839
  481DG     O1911059   3.853   5.245   2.660  0.2521 -0.5858 -0.3392
  481DG     H2011060   3.949   5.431   2.698  0.6390  0.4764 -0.9686
  481DG     H2111061   3.864   5.425   2.552  0.1537 -1.5175 -0.8473
  481DG     H2211062   3.875   5.184   2.461  1.7516 -2.0028  0.8564
  481DG     H2311063   3.710   5.230   2.507  1.5387  0.9814 -0.9872
  482DG      C111064   0.541   0.738   5.227  0.3935  0.3004  0.2454
  482DG      C211065   0.470   0.179   4.852  0.1211 -0.9702  0.3884
  482DG      H311066   0.499   0.825   5.277  2.4799  2.0838 -0.9169
  482DG      H411067   0.617   0.775   5.158 -3.7579  2.5194 -3.6592
  482DG      H511068   0.586   0.682   5.309  0.2028 -0.9127 -0.4618
  482DG      H611069   0.393   0.191   4.928 -0.0118  1.5473 -0.0322
  482DG      H711070   0.434   0.105   4.780 -0.3962 -1.6096  1.2863
  482DG      H811071   0.550   0.130   4.907 -1.2788 -3.0157  0.7010
  482DG      O911072   0.452   0.654   5.158  0.0895 -0.1660  0.2310
  482DG     O1011073   0.503   0.305   4.787 -0.1327  0.4953 -0.0389
  482DG     C1111074   0.384   0.726   5.055 -0.3621 -0.0277 -0.4446
  482DG     C1211075   0.388   0.359   4.723  0.5104 -0.3403  0.1074
  482DG     H1311076   0.465   0.779   5.004  0.9933 -1.6956 -0.1348
  482DG     H1411077   0.319   0.801   5.099  0.5398 -0.3944  1.6760
  482DG     H1511078   0.329   0.292   4.660  1.7187 -1.5062  0.1766
  482DG     H1611079   0.436   0.434   4.660  1.2811  0.2344  1.3326
  482DG     C1711080   0.305   0.635   4.965  0.2961 -0.2344  0.0264
  482DG     C1811081   0.303   0.442   4.818 -0.4415 -0.5019 -1.0548
  482DG     O1911082   0.389   0.544   4.891  0.0829 -0.0111  0.0981
  482DG     H2011083   0.258   0.697   4.889 -0.7937 -2.2448 -1.0245
  482DG     H2111084   0.228   0.598   5.032 -0.4280  1.6264  0.2888
  482DG     H2211085   0.215   0.488   4.774 -2.4704 -0.5980  2.4698
  482DG     H2311086   0.252   0.374   4.886  2.2823 -1.1333  0.5061
  483DG      C111087   0.029   3.236   3.305 -0.3575 -0.2268 -0.3928
  483DG      C211088  -0.275   3.983   3.030  0.5312 -0.4294 -0.1751
  483DG      H311089   0.117   3.297   3.285  0.0291 -0.7490 -0.3132
  483DG      H411090   0.019   3.159   3.229 -1.1661  0.6317 -1.1689
  483DG      H511091   0.051   3.187   3.401  0.0579  1.9425  0.6871
  483DG      H611092  -0.333   4.075   3.028  0.9351 -0.1636  0.0993
  483DG      H711093  -0.175   4.015   3.059  1.2787 -1.9445 -0.9625
  483DG      H811094  -0.275   3.941   2.930 -0.3986 -0.3914 -0.1971
  483DG      O911095  -0.090   3.313   3.297  0.1838  0.2045 -0.2334
  483DG     O1011096  -0.318   3.895   3.135 -0.0034 -0.3166 -0.5552
  483DG     C1111097  -0.100   3.410   3.400 -0.8235 -0.4958 -0.1891
  483DG     C1211098  -0.224   3.790   3.164 -0.3914  0.1213  0.0720
  483DG     H1311099  -0.018   3.483   3.401 -1.3732  0.1245  0.4833
  483DG     H1411100  -0.091   3.370   3.501 -0.6405  0.2561  0.1012
  483DG     H1511101  -0.138   3.833   3.215  0.5324 -2.6828  1.1030
  483DG     H1611102  -0.191   3.748   3.069  0.3333 -0.7093  0.6641
  483DG     C1711103  -0.225   3.502   3.389 -0.0196  0.4834  0.0966
  483DG     C1811104  -0.284   3.686   3.264 -0.3074 -0.1036  0.2843
  483DG     O1911105  -0.184   3.590   3.289 -0.0165  0.2688 -0.4221
  483DG     H2011106  -0.248   3.545   3.486  0.4327  1.9584 -0.4321
  483DG     H2111107  -0.313   3.450   3.353 -0.1878 -0.3534  1.6229
  483DG     H2211108  -0.310   3.742   3.354  0.6817  2.2551 -0.8237
  483DG     H2311109  -0.379   3.645   3.231 -1.1424  1.8194  0.1774
  484DG      C111110   2.763   1.406   3.127 -0.6594 -0.0520 -0.6203
  484DG      C211111   2.706   2.252   3.045 -0.2873  0.1160  0.4692
  484DG      H311112   2.733   1.438   3.027  2.6027 -0.0485 -1.7165
  484DG      H411113   2.693   1.335   3.170 -1.6854  0.3439 -1.6030
  484DG      H511114   2.860   1.356   3.117 -2.3386 -3.4883 -0.8690
  484DG      H611115   2.790   2.235   2.979  0.0180 -1.0804  1.1396
  484DG      H711116   2.608   2.231   3.001  0.3009 -0.9371 -0.4060
  484DG      H811117   2.709   2.356   3.079 -2.8055  0.4728 -0.1342
  484DG      O911118   2.773   1.524   3.204 -0.8588 -0.7860 -0.0146
  484DG     O1011119   2.714   2.170   3.156  0.4743  0.1078  0.3576
  484DG     C1111120   2.659   1.572   3.261  0.4350 -0.1663 -0.3495
  484DG     C1211121   2.702   2.031   3.126  0.0358  0.2275 -0.1284
  484DG     H1311122   2.634   1.514   3.350 -0.6477  2.0862  0.8984
  484DG     H1411123   2.573   1.564   3.195  0.9416 -0.7911 -0.9551
  484DG     H1511124   2.784   1.999   3.061  0.8447  0.9025  0.5428
  484DG     H1611125   2.613   2.012   3.066 -1.1421 -0.4851  1.7814
  484DG     C1711126   2.677   1.723   3.304  0.4824  0.0561 -0.0200
  484DG     C1811127   2.710   1.946   3.249 -0.3886 -0.7015  0.1152
  484DG     O1911128   2.699   1.814   3.201  0.0895  0.2570 -0.4542
  484DG     H2011129   2.758   1.727   3.377 -0.2156 -0.7861  0.8293
  484DG     H2111130   2.587   1.755   3.356 -1.1437 -2.1373 -1.2725
  484DG     H2211131   2.798   1.965   3.312 -0.8739  0.5466  0.4552
  484DG     H2311132   2.618   1.974   3.300 -1.1606 -1.1831 -0.9844
  485DG      C111133   3.398   5.140   4.378  0.3602 -0.3255  0.5303
  485DG      C211134   3.564   5.557   3.820 -0.1546 -0.1901 -0.1663
  485DG      H311135   3.334   5.216   4.423  0.4967  0.8282 -1.1188
  485DG      H411136   3.502   5.156   4.409  0.0228 -0.3480  1.7167
  485DG      H511137   3.363   5.040   4.403  1.8611 -1.3262 -1.1303
  485DG      H611138   3.666   5.559   3.858 -0.8838  0.6708  1.8532
  485DG      H711139   3.577   5.591   3.717 -0.7197 -0.0099 -0.1853
  485DG      H811140   3.501   5.635   3.862  1.1115 -0.0307  1.5091
  485DG      O911141   3.410   5.157   4.235 -0.0878  0.1991 -0.4762
  485DG     O1011142   3.513   5.426   3.843  0.0883  0.0890  0.7195
  485DG     C1111143   3.501   5.064   4.184  0.7059  0.2713  0.3914
  485DG     C1211144   3.607   5.324   3.813 -0.2921 -1.2072  1.2881
  485DG     H1311145   3.496   4.965   4.230 -0.4712  0.9108  1.7259
  485DG     H1411146   3.606   5.089   4.201  1.3372 -2.9410  2.0353
  485DG     H1511147   3.693   5.339   3.878 -0.3648  0.1234  1.1108
  485DG     H1611148   3.628   5.329   3.706  1.9424  2.7957  1.7175
  485DG     C1711149   3.482   5.047   4.032 -0.8405  0.0751  0.1254
  485DG     C1811150   3.541   5.182   3.835  0.2436  0.4015 -0.1695
  485DG     O1911151   3.526   5.177   3.980 -0.5760  0.2080 -0.1057
  485DG     H2011152   3.376   5.033   4.008 -0.4884 -0.4368 -1.1917
  485DG     H2111153   3.543   4.967   3.990  0.4263  0.1020  1.7967
  485DG     H2211154   3.441   5.189   3.791 -0.6583 -0.1502  1.7061
  485DG     H2311155   3.597   5.102   3.788 -1.9674 -1.7846  0.6810
  486DG      C111156   0.049   1.113   0.254 -0.1337  0.3399  0.5269
  486DG      C211157   0.808   0.758   0.066 -0.6455  0.2041 -0.2404
  486DG      H311158   0.016   1.128   0.152  1.0795 -1.6129 -0.2204
  486DG      H411159   0.090   1.206   0.293  2.2734 -0.3447 -0.2354
  486DG      H511160  -0.044   1.088   0.306 -1.0755 -0.4989 -1.4603
  486DG      H611161   0.904   0.709   0.085 -1.3888 -0.9949  0.5220
  486DG      H711162   0.751   0.690   0.004 -1.5014  0.5457  0.1640
  486DG      H811163   0.825   0.856   0.022  1.7178 -0.2405 -0.4735
  486DG      O911164   0.145   1.001   0.270  0.1537 -0.3208  0.1478
  486DG     O1011165   0.731   0.760   0.184  0.2503  0.3007  0.1444
  486DG     C1111166   0.210   1.017   0.396  0.5642  0.0315  0.6419
  486DG     C1211167   0.615   0.838   0.167  0.8871  0.0641 -0.4846
  486DG     H1311168   0.140   1.011   0.479 -0.0654  0.0147  0.1180
  486DG     H1411169   0.252   1.117   0.405 -0.7718  0.6331  0.3359
  486DG     H1511170   0.558   0.806   0.080  1.2312 -1.6562 -0.1001
  486DG     H1611171   0.627   0.945   0.148 -2.8196  0.7499  0.1381
  486DG     C1711172   0.329   0.917   0.411  0.1484 -0.3253  0.1051
  486DG     C1811173   0.547   0.840   0.313  0.1262 -0.0545  0.2264
  486DG     O1911174   0.429   0.927   0.307 -0.6401 -0.0189 -0.1597
  486DG     H2011175   0.286   0.816   0.415  1.2052 -0.7841  0.3156
  486DG     H2111176   0.380   0.923   0.508  0.2508  0.4904 -0.0006
  486DG     H2211177   0.514   0.746   0.357  0.4411 -0.2023  0.1549
  486DG     H2311178   0.613   0.885   0.386  0.3951  0.0352 -0.0700
  487DG      C111179   5.412   2.866   4.754  0.2068  0.3348 -0.4661
  487DG      C211180   5.403   2.256   5.113  0.1361  0.1628 -0.2499
  487DG      H311181   5.360   2.931   4.684  1.3697  0.1967 -1.4982
  487DG      H411182   5.501   2.820   4.711 -0.8667 -0.9937 -1.3306
  487DG      H511183   5.430   2.912   4.851 -0.9579 -1.4409  0.6553
  487DG      H611184   5.356   2.161   5.141 -1.3103  0.9358  0.0686
  487DG      H711185   5.471   2.225   5.035  2.0126  0.4477  1.1991
  487DG      H811186   5.480   2.281   5.186  0.5062  0.2260 -0.6644
  487DG      O911187   5.322   2.759   4.786 -0.4184  0.1435  0.1493
  487DG     O1011188   5.320   2.356   5.068 -0.8003  0.3815  0.1219
  487DG     C1111189   5.271   2.682   4.673  0.2618 -0.5610  0.6704
  487DG     C1211190   5.229   2.299   4.975 -0.8016  0.6572 -0.8128
  487DG     H1311191   5.346   2.631   4.613 -0.8761 -2.1107  0.5117
  487DG     H1411192   5.216   2.749   4.606 -2.8430 -1.1563  2.4336
  487DG     H1511193   5.166   2.226   5.025 -0.2742 -0.1734 -1.3453
  487DG     H1611194   5.277   2.237   4.900 -1.0893  0.4412 -0.8196
  487DG     C1711195   5.171   2.576   4.728 -0.3673 -0.2395  0.3912
  487DG     C1811196   5.152   2.397   4.889 -0.3904 -0.0522  0.4345
  487DG     O1911197   5.234   2.471   4.801  0.1252 -0.2697  0.7752
  487DG     H2011198   5.108   2.544   4.645 -0.4039 -0.3118  0.4460
  487DG     H2111199   5.104   2.623   4.800 -1.2152 -0.3329 -0.3210
  487DG     H2211200   5.073   2.342   4.837 -0.1254  1.1695 -1.3532
  487DG     H2311201   5.110   2.469   4.958  1.2495  0.6036  0.7972
  488DG      C111202   1.286   4.054   2.937  0.3512  0.0812 -0.0487
  488DG      C211203   0.677   3.876   2.602  0.5763 -0.9131 -0.1014
  488DG      H311204   1.229   4.117   3.005 -1.0368  1.3458 -2.2726
  488DG      H411205   1.384   4.100   2.921 -0.2238  0.9355 -1.2538
  488DG      H511206   1.294   3.949   2.968  1.4826 -0.4429 -1.9518
  488DG      H611207   0.653   3.819   2.692 -2.3003  0.7542  0.2935
  488DG      H711208   0.599   3.950   2.615  0.5609 -0.7490 -1.0545
  488DG      H811209   0.656   3.809   2.518 -4.1294 -0.8502  0.7677
  488DG      O911210   1.228   4.041   2.810  0.1331 -0.3881  0.0575
  488DG     O1011211   0.804   3.932   2.614  0.8906  0.1738  0.6884
  488DG     C1111212   1.226   4.170   2.746  0.1167  0.2430  0.5319
  488DG     C1211213   0.849   3.999   2.499 -0.5238 -0.6098  0.1234
  488DG     H1311214   1.329   4.206   2.743  1.0209 -2.1877 -1.0647
  488DG     H1411215   1.165   4.233   2.810 -0.8163 -0.4128  0.3171
  488DG     H1511216   0.784   4.080   2.465 -0.0710 -0.4392 -0.3621
  488DG     H1611217   0.847   3.928   2.416 -0.4015 -1.5344  0.9003
  488DG     C1711218   1.169   4.152   2.612  0.2966  0.3486  1.0582
  488DG     C1811219   0.995   4.035   2.505 -0.4054  0.4265  0.2174
  488DG     O1911220   1.037   4.098   2.629  0.2113  0.4722  0.4134
  488DG     H2011221   1.236   4.080   2.565 -0.3674  0.0414  0.5661
  488DG     H2111222   1.176   4.241   2.549  1.4605 -1.4787 -1.5676
  488DG     H2211223   1.048   3.944   2.477 -0.0266  0.8250 -0.3979
  488DG     H2311224   1.015   4.109   2.427 -0.9628  1.7757  1.3100
  489DG      C111225   0.091   0.254   4.293 -0.2327  0.4414  0.4489
  489DG      C211226  -0.029  -0.223   4.913 -0.0276  0.4661  0.4601
  489DG      H311227   0.199   0.269   4.287 -0.3060  1.3654  1.2092
  489DG      H411228   0.035   0.344   4.269  1.1094  1.0630 -0.5412
  489DG      H511229   0.056   0.180   4.222 -1.5698  2.0841 -0.6880
  489DG      H611230  -0.006  -0.330   4.908  1.6576  0.8106  0.2971
  489DG      H711231  -0.019  -0.200   5.019 -1.5079 -0.0152  0.7243
  489DG      H811232  -0.132  -0.202   4.882 -0.2451 -1.2702 -0.1236
  489DG      O911233   0.055   0.208   4.424 -0.0622  0.7815  0.2739
  489DG     O1011234   0.082  -0.172   4.835  0.2800 -0.6305 -0.2118
  489DG     C1111235   0.144   0.122   4.479 -0.0153  0.4562 -0.0380
  489DG     C1211236   0.065  -0.214   4.702  0.0039 -0.3939  0.4650
  489DG     H1311237   0.246   0.160   4.480  0.5872 -0.9633  2.9908
  489DG     H1411238   0.144   0.028   4.423 -0.5681  0.3708  0.0968
  489DG     H1511239   0.027  -0.315   4.688 -1.0085 -0.4849  3.2146
  489DG     H1611240   0.163  -0.215   4.654 -0.7753  0.4900 -1.1988
  489DG     C1711241   0.120   0.090   4.623  1.0379  0.0833 -0.1449
  489DG     C1811242  -0.026  -0.111   4.624 -0.4549  0.5004  0.0534
  489DG     O1911243  -0.001   0.029   4.660  0.3997 -0.2245 -0.2809
  489DG     H2011244   0.114   0.186   4.674  0.1613  0.0902 -0.2533
  489DG     H2111245   0.205   0.031   4.659 -0.8709 -2.3047  0.7396
  489DG     H2211246  -0.007  -0.129   4.518  0.6241 -2.6454  0.6771
  489DG     H2311247  -0.130  -0.127   4.650 -0.3573  1.9023  1.3902
  490DG      C111248   4.544   0.564   4.284  0.2701 -0.1060 -0.3925
  490DG      C211249   5.058   0.884   4.425  0.3840  0.3750 -0.1899
  490DG      H311250   4.435   0.560   4.284  0.2788 -3.2447  1.3201
  490DG      H411251   4.582   0.467   4.314 -0.6615 -0.0328  1.0708
  490DG      H511252   4.577   0.582   4.181  0.3474 -0.3247 -0.4065
  490DG      H611253   5.150   0.909   4.478  0.6427  0.9973 -0.9249
  490DG      H711254   5.084   0.887   4.320 -1.1000  1.5625 -0.5564
  490DG      H811255   4.986   0.965   4.440  0.7788  0.6610  0.1803
  490DG      O911256   4.597   0.672   4.357  0.0489  0.4485  0.7129
  490DG     O1011257   5.005   0.758   4.472 -0.2905  0.4887  0.5951
  490DG     C1111258   4.530   0.686   4.479  0.7472 -0.3159 -0.2653
  490DG     C1211259   4.966   0.771   4.609 -0.6374 -0.2854  0.0429
  490DG     H1311260   4.538   0.591   4.531  1.0966  0.1556  0.5697
  490DG     H1411261   4.425   0.715   4.470  1.4078  2.2108 -0.5686
  490DG     H1511262   5.039   0.834   4.661 -0.7973 -0.1329  0.0865
  490DG     H1611263   4.968   0.674   4.659 -2.7200 -0.1435  0.5231
  490DG     C1711264   4.609   0.788   4.559  0.5680 -0.1949 -1.0282
  490DG     C1811265   4.825   0.830   4.631 -0.3388  0.1877 -0.2717
  490DG     O1911266   4.741   0.746   4.556 -0.5228  0.3536 -0.0226
  490DG     H2011267   4.565   0.794   4.659  0.8074  1.4079 -1.0012
  490DG     H2111268   4.606   0.890   4.523 -3.0929 -0.2824 -1.3522
  490DG     H2211269   4.818   0.815   4.738  3.2750  0.4058  0.1277
  490DG     H2311270   4.822   0.934   4.599 -0.4305  0.4858  0.7075
  491DG      C111271   3.265   0.176   3.030 -0.3615  0.4975  0.3421
  491DG      C211272   2.647   0.414   2.975 -0.4327  0.3019  0.5691
  491DG      H311273   3.273   0.267   2.971 -3.9704  0.1979 -0.8485
  491DG      H411274   3.250   0.096   2.957  0.4079  1.0810 -0.4700
  491DG      H511275   3.358   0.154   3.082  0.5651 -1.2478 -1.8949
  491DG      H611276   2.677   0.519   2.976 -0.0345  0.1865  0.6961
  491DG      H711277   2.662   0.381   2.872  1.2015 -1.3991  1.3014
  491DG      H811278   2.542   0.428   3.000 -0.0599  3.1268  0.8936
  491DG      O911279   3.150   0.193   3.116 -0.1863 -0.2420 -0.1450
  491DG     O1011280   2.728   0.341   3.067 -0.4540 -0.0426  0.5463
  491DG     C1111281   3.106   0.078   3.194  0.6594 -1.3459 -1.2810
  491DG     C1211282   2.664   0.222   3.109 -0.1297 -0.3311  0.3874
  491DG     H1311283   3.190   0.053   3.258  0.0952  0.5935  0.2990
  491DG     H1411284   3.089  -0.011   3.133  1.3180 -1.0994 -1.8403
  491DG     H1511285   2.656   0.163   3.018  0.4368  0.0529  0.0779
  491DG     H1611286   2.565   0.245   3.147 -0.9411  2.0352 -2.7150
  491DG     C1711287   2.974   0.114   3.270  0.0058  0.6060  0.7595
  491DG     C1811288   2.743   0.159   3.225 -0.0325  0.5221 -0.2123
  491DG     O1911289   2.875   0.147   3.173 -0.1238 -0.1795  0.0468
  491DG     H2011290   2.991   0.200   3.334 -0.7535  2.1271 -0.9942
  491DG     H2111291   2.938   0.033   3.334 -0.6916  1.4195  1.4185
  491DG     H2211292   2.744   0.218   3.317 -0.4608  0.9343 -0.4707
  491DG     H2311293   2.702   0.059   3.240 -0.9944  0.6231 -1.9737
  492DG      C111294   5.053   0.657   1.316 -0.2612 -0.1101  0.6018
  492DG      C211295   4.969   0.017   1.130 -0.0728  0.2845  0.3097
  492DG      H311296   5.067   0.764   1.301 -0.2765 -0.2232 -0.2674
  492DG      H411297   5.119   0.626   1.397 -0.7747  0.3402  1.2031
  492DG      H511298   4.957   0.636   1.362 -0.1682  1.5101  1.6342
  492DG      H611299   5.059  -0.041   1.151  0.8749  1.4896 -0.2881
  492DG      H711300   4.902   0.006   1.215  1.3193 -1.0797  1.3036
  492DG      H811301   4.909  -0.024   1.050 -1.8127  1.4136  0.9806
  492DG      O911302   5.051   0.582   1.194  0.0233 -0.8078 -0.5803
  492DG     O1011303   5.017   0.145   1.092 -0.0444  0.2483  0.1642
  492DG     C1111304   5.179   0.567   1.140 -0.0954 -0.2699  0.6104
  492DG     C1211305   5.092   0.141   0.969 -0.0640  0.3611  0.2207
  492DG     H1311306   5.242   0.517   1.213  0.6317 -0.8271 -0.3831
  492DG     H1411307   5.226   0.662   1.115  0.5976 -0.9402 -0.7387
  492DG     H1511308   5.032   0.096   0.890  1.4287 -1.6083  0.1086
  492DG     H1611309   5.181   0.080   0.984  0.5199  1.2448  0.4300
  492DG     C1711310   5.180   0.499   1.000  0.4888 -1.0846  0.2942
  492DG     C1811311   5.125   0.284   0.921  0.5687 -0.1125  0.2558
  492DG     O1911312   5.144   0.368   1.030  0.9998 -0.1432 -0.8396
  492DG     H2011313   5.280   0.496   0.956  0.7230 -0.9041  0.7990
  492DG     H2111314   5.102   0.546   0.941  1.0715  1.4140  1.3925
  492DG     H2211315   5.214   0.295   0.859 -0.0398 -0.1705 -0.6497
  492DG     H2311316   5.043   0.334   0.870  0.5950 -1.1954 -0.9058
  493DG      C111317   2.120   0.682   2.183 -0.2551 -0.2272  0.3975
  493DG      C211318   1.902   1.012   1.648  0.3572  0.1524  0.2143
  493DG      H311319   2.162   0.756   2.250  2.3691 -1.1554 -0.0762
  493DG      H411320   2.199   0.641   2.119  0.3124 -1.3704  1.7951
  493DG      H511321   2.093   0.595   2.244  1.8207 -0.6238  0.8209
  493DG      H611322   1.856   0.914   1.655  1.9371 -0.6122  0.3939
  493DG      H711323   1.820   1.069   1.606  0.5882  1.0419  0.9164
  493DG      H811324   1.979   1.005   1.572 -0.3686 -0.1014 -0.5041
  493DG      O911325   2.011   0.729   2.099 -0.0814 -0.5606  0.4783
  493DG     O1011326   1.959   1.062   1.773 -0.1375 -0.0220  0.1331
  493DG     C1111327   1.905   0.789   2.177  0.0847  0.0191  0.5101
  493DG     C1211328   1.862   1.133   1.850 -0.2330  0.1844 -0.0831
  493DG     H1311329   1.950   0.846   2.258  2.2265  0.7225 -1.0903
  493DG     H1411330   1.849   0.703   2.215  1.7386 -0.5934  1.7217
  493DG     H1511331   1.804   1.192   1.779  0.6624  2.2378  0.8209
  493DG     H1611332   1.900   1.210   1.916 -0.5713 -1.3868  2.0582
  493DG     C1711333   1.806   0.867   2.089  0.4469 -0.9844  0.0618
  493DG     C1811334   1.770   1.043   1.930 -0.0099  0.3268 -0.3078
  493DG     O1911335   1.864   0.970   2.015 -0.7816  0.6411  0.0230
  493DG     H2011336   1.749   0.915   2.169 -1.0472 -2.0231 -0.3337
  493DG     H2111337   1.748   0.797   2.030 -0.3665  0.9144 -1.4796
  493DG     H2211338   1.688   1.100   1.975  1.2015  0.3870  2.0135
  493DG     H2311339   1.722   0.970   1.865  0.5860  0.1969 -0.6075
  494DG      C111340   1.597   4.528   4.291  0.4052  0.5638  0.3184
  494DG      C211341   1.275   4.384   3.705  0.0358 -0.6596 -0.4907
  494DG      H311342   1.584   4.511   4.398  1.0162  1.5684  0.5588
  494DG      H411343   1.670   4.608   4.280  2.9219 -1.5282  0.5041
  494DG      H511344   1.641   4.437   4.250 -0.2556 -0.6170  2.1176
  494DG      H611345   1.231   4.426   3.615 -0.1411 -0.5639 -0.3601
  494DG      H711346   1.360   4.442   3.743  0.7842 -0.6775 -2.0569
  494DG      H811347   1.311   4.282   3.692 -0.5635 -0.9345 -0.0197
  494DG      O911348   1.481   4.545   4.220  0.1092  0.5412  0.6034
  494DG     O1011349   1.191   4.376   3.813 -0.4904 -0.1301 -0.8846
  494DG     C1111350   1.396   4.435   4.223  0.1584 -0.0357 -0.2685
  494DG     C1211351   1.131   4.502   3.856  0.0569  0.8954 -0.2660
  494DG     H1311352   1.364   4.420   4.326 -0.6902 -1.5022 -0.6942
  494DG     H1411353   1.441   4.343   4.185  0.0679  0.2988 -1.2109
  494DG     H1511354   1.057   4.472   3.930  1.3579 -0.5198  0.5090
  494DG     H1611355   1.074   4.561   3.784  0.6663  3.0530  0.9259
  494DG     C1711356   1.271   4.476   4.140  0.3039  0.0773  0.3120
  494DG     C1811357   1.231   4.592   3.927  0.0272 -0.2734  0.0937
  494DG     O1911358   1.319   4.515   4.009  0.1473  0.0332 -0.3113
  494DG     H2011359   1.213   4.551   4.193  3.3794  1.6743  1.6912
  494DG     H2111360   1.196   4.399   4.124 -2.9408  3.6549 -4.2179
  494DG     H2211361   1.291   4.633   3.846 -0.3435 -2.2081 -1.2364
  494DG     H2311362   1.182   4.670   3.984  1.1990  0.4247  0.1900
  495DG      C111363   2.836   1.799   1.037  0.0520 -0.3099 -0.6793
  495DG      C211364   2.193   1.597   0.866  0.4978 -0.5713  0.1474
  495DG      H311365   2.882   1.737   0.960 -4.1716 -2.7791 -1.5365
  495DG      H411366   2.842   1.732   1.123  0.6760  0.0695 -0.4212
  495DG      H511367   2.896   1.887   1.064 -1.9528  1.0498 -0.4776
  495DG      H611368   2.147   1.615   0.769  0.5159  0.2999  0.2939
  495DG      H711369   2.273   1.523   0.859  0.5264 -0.5143 -0.1303
  495DG      H811370   2.124   1.559   0.941  1.2000  1.0624  1.6796
  495DG      O911371   2.706   1.836   1.001 -0.8029  0.2484 -0.0569
  495DG     O1011372   2.272   1.697   0.913  0.6017 -0.4584 -0.4871
  495DG     C1111373   2.648   1.912   1.104 -0.0700  0.2298  0.2768
  495DG     C1211374   2.202   1.790   0.988  0.4192  0.1304  0.7635
  495DG     H1311375   2.710   1.992   1.145  0.4452  0.2602 -0.5198
  495DG     H1411376   2.636   1.858   1.197 -1.2786  0.3696  0.2156
  495DG     H1511377   2.179   1.747   1.086 -0.8945  1.9598  1.3285
  495DG     H1611378   2.111   1.827   0.940  1.7114 -0.3883 -2.2536
  495DG     C1711379   2.515   1.968   1.068  0.4845  0.1581 -0.6333
  495DG     C1811380   2.292   1.912   1.022  0.5719  0.4129  0.3315
  495DG     O1911381   2.416   1.864   1.064  0.3974 -0.0424  0.4401
  495DG     H2011382   2.516   2.020   0.972 -3.6567 -0.6041 -1.2624
  495DG     H2111383   2.491   2.049   1.137  2.6660 -0.9556  1.5819
  495DG     H2211384   2.307   1.956   0.923 -1.7683  0.4121 -0.0626
  495DG     H2311385   2.246   1.979   1.095  1.0858  0.3767  0.6966
  496DG      C111386   1.888   2.617   4.489 -0.4781  0.0658 -0.2738
  496DG      C211387   2.377   2.262   4.075  0.1452 -0.3399  0.4215
  496DG      H311388   1.799   2.619   4.426 -1.2192  2.1227  0.7714
  496DG      H411389   1.948   2.706   4.470  0.6767 -0.4202  0.8878
  496DG      H511390   1.850   2.621   4.591 -2.8785  0.4580 -1.1249
  496DG      H611391   2.333   2.315   3.991 -0.0142 -1.8562 -0.4888
  496DG      H711392   2.456   2.327   4.112 -2.1644  1.6592  2.2352
  496DG      H811393   2.409   2.171   4.025 -0.6534  1.3750 -3.5642
  496DG      O911394   1.965   2.494   4.479 -0.3351  0.2201 -0.9067
  496DG     O1011395   2.274   2.242   4.169 -0.2502  0.4206  0.6484
  496DG     C1111396   1.885   2.380   4.445  0.5313  0.0994 -0.0313
  496DG     C1211397   2.312   2.180   4.286  0.7670 -0.5529 -0.0154
  496DG     H1311398   1.843   2.391   4.345 -0.1839 -1.7981  0.0257
  496DG     H1411399   1.792   2.375   4.502 -0.5723  1.2626 -1.6359
  496DG     H1511400   2.387   2.244   4.332  1.2484 -1.8971  1.1047
  496DG     H1611401   2.371   2.091   4.267  1.2171 -0.1766 -0.4196
  496DG     C1711402   1.970   2.256   4.448  0.5093 -0.1192 -0.3898
  496DG     C1811403   2.179   2.160   4.378 -0.2940  0.3259 -0.3768
  496DG     O1911404   2.091   2.271   4.378 -0.5597 -0.4543 -0.0471
  496DG     H2011405   1.912   2.174   4.406  2.4065 -1.2553 -0.9136
  496DG     H2111406   1.990   2.238   4.554 -0.4013 -2.0940 -0.5130
  496DG     H2211407   2.127   2.070   4.344  0.4682 -0.4042  0.3392
  496DG     H2311408   2.218   2.138   4.477  1.6417 -0.4452 -1.2494
  497DG      C111409   0.923   1.698   1.383  0.0288 -0.2569 -0.5173
  497DG      C211410   0.735   1.499   0.734  0.2074  0.1443 -0.5304
  497DG      H311411   0.986   1.751   1.455 -1.7052  0.8828  0.2070
  497DG      H411412   0.907   1.596   1.416 -0.4770  0.6483  2.3113
  497DG      H511413   0.826   1.745   1.391  0.6609  1.1928 -0.9798
  497DG      H611414   0.757   1.542   0.636 -1.8034  0.6456 -0.8013
  497DG      H711415   0.773   1.397   0.732  1.0984  0.4714 -0.9688
  497DG      H811416   0.638   1.516   0.781  1.5502  0.8656  2.1603
  497DG      O911417   0.950   1.708   1.248  0.0215  0.6782 -0.2439
  497DG     O1011418   0.822   1.553   0.828 -0.1286  0.0485  0.5536
  497DG     C1111419   1.092   1.682   1.231  0.2613 -0.2444  0.3067
  497DG     C1211420   0.959   1.521   0.790 -0.6792  0.1063 -0.3566
  497DG     H1311421   1.119   1.590   1.281  0.8492 -1.9145 -2.8038
  497DG     H1411422   1.153   1.765   1.268  0.5365 -0.8823  1.2987
  497DG     H1511423   0.979   1.532   0.683  0.9478 -3.1248 -0.5190
  497DG     H1611424   0.969   1.418   0.823 -0.1333  0.6453  1.2722
  497DG     C1711425   1.125   1.679   1.084  0.1963  0.5842  0.8352
  497DG     C1811426   1.060   1.606   0.874 -0.1500 -0.0511  0.5257
  497DG     O1911427   1.032   1.603   1.013  0.2818  0.0725 -0.1375
  497DG     H2011428   1.223   1.634   1.068 -1.2268 -2.0457 -1.2947
  497DG     H2111429   1.122   1.778   1.038 -0.0952  0.0980 -0.2218
  497DG     H2211430   1.157   1.565   0.846 -0.3104  1.1537 -2.1099
  497DG     H2311431   1.061   1.705   0.827  2.1193  0.5080  1.5879
  498DG      C111432   3.714   1.171   1.019  0.7310 -0.7278  0.2267
  498DG      C211433   3.037   1.523   0.721  0.1383 -0.0355 -0.1298
  498DG      H311434   3.752   1.097   1.090  1.2023 -1.5529 -0.8482
  498DG      H411435   3.783   1.254   1.009 -1.1591  1.2289  2.3962
  498DG      H511436   3.707   1.104   0.933 -0.5175 -1.1818  0.6586
  498DG      H611437   3.064   1.527   0.616 -0.6737  0.9361 -0.3190
  498DG      H711438   2.932   1.495   0.729 -0.4424  2.1433  0.5975
  498DG      H811439   3.050   1.621   0.767 -1.0191 -1.4515  3.5615
  498DG      O911440   3.595   1.214   1.074  0.1272 -0.5639  0.2919
  498DG     O1011441   3.111   1.433   0.795 -0.1990  0.6695 -0.4295
  498DG     C1111442   3.514   1.301   0.998  0.4402 -0.4184  0.3133
  498DG     C1211443   3.056   1.416   0.930  0.0494 -0.3334  0.3306
  498DG     H1311444   3.510   1.290   0.889 -1.5759  0.6785  0.2343
  498DG     H1411445   3.563   1.396   1.015 -0.3964 -0.4452  3.3957
  498DG     H1511446   2.961   1.363   0.934 -0.3102  0.2055 -0.8916
  498DG     H1611447   3.043   1.516   0.972  1.3270  0.4270 -0.9886
  498DG     C1711448   3.375   1.308   1.065  0.2026 -0.4077 -0.5449
  498DG     C1811449   3.153   1.352   1.018  0.0561  0.1672  0.7600
  498DG     O1911450   3.284   1.395   1.005  0.4750 -0.0702  0.2797
  498DG     H2011451   3.396   1.345   1.165  2.6720 -0.9398 -0.8028
  498DG     H2111452   3.332   1.209   1.080 -0.2767 -0.1615 -0.2377
  498DG     H2211453   3.119   1.369   1.120  0.3451  1.1862  0.6981
  498DG     H2311454   3.141   1.246   0.996 -0.3276 -0.0328  1.8632
  499DG      C111455   2.886   5.309   3.071  0.1485 -0.1265 -0.0736
  499DG      C211456   3.237   5.101   2.314 -0.1660 -0.5650  0.1748
  499DG      H311457   2.807   5.243   3.034  1.6080 -1.4450 -0.9637
  499DG      H411458   2.882   5.408   3.025  0.8722 -0.1536 -0.2011
  499DG      H511459   2.875   5.309   3.179 -0.0580 -2.6424 -0.0415
  499DG      H611460   3.193   5.002   2.301 -1.1757 -0.1137  0.0563
  499DG      H711461   3.175   5.163   2.249  2.2636 -0.1104 -1.8720
  499DG      H811462   3.343   5.090   2.292  0.0508  1.7724 -0.1671
  499DG      O911463   3.011   5.258   3.043 -0.3099 -0.3688 -0.9240
  499DG     O1011464   3.223   5.145   2.448 -0.4027  0.3059  0.5538
  499DG     C1111465   3.034   5.227   2.905  0.7239 -0.1739 -0.2682
  499DG     C1211466   3.285   5.051   2.544 -0.2128 -0.7454  0.4040
  499DG     H1311467   2.969   5.292   2.846  1.9202  0.9303 -0.3917
  499DG     H1411468   2.998   5.128   2.877  2.1744 -1.2495  1.4501
  499DG     H1511469   3.387   5.030   2.513  0.0654 -0.8368  1.3493
  499DG     H1611470   3.221   4.963   2.550 -1.5443  0.1639  0.0543
  499DG     C1711471   3.178   5.234   2.853 -0.8309  0.1142 -0.0456
  499DG     C1811472   3.296   5.123   2.684 -0.2363 -0.0654  0.2357
  499DG     O1911473   3.173   5.176   2.724  0.4087 -0.8766  0.2312
  499DG     H2011474   3.238   5.178   2.923 -1.2015 -1.2151 -0.7638
  499DG     H2111475   3.203   5.340   2.855 -0.4985  0.0358  1.5882
  499DG     H2211476   3.321   5.055   2.766  0.4294  1.0802  1.0146
  499DG     H2311477   3.371   5.200   2.702  0.3110 -0.7939  1.2298
  500DG      C111478   1.239   4.643   4.859  0.3467 -0.3014 -0.2740
  500DG      C211479   0.974   4.572   5.709 -0.2445  0.2303 -0.2022
  500DG      H311480   1.305   4.560   4.834 -0.1462 -0.9438  0.4981
  500DG      H411481   1.300   4.724   4.898  0.3827 -0.2707 -0.3941
  500DG      H511482   1.179   4.659   4.770 -3.0549  1.4360  2.0894
  500DG      H611483   0.897   4.568   5.786 -1.2095  0.9305 -1.1087
  500DG      H711484   1.039   4.488   5.733 -0.6821 -0.1343 -0.2673
  500DG      H811485   1.028   4.666   5.715 -2.0155  1.1931  3.6457
  500DG      O911486   1.151   4.600   4.965  0.0672  0.2103 -0.0408
  500DG     O1011487   0.918   4.541   5.577 -0.1458  0.5832  0.6941
  500DG     C1111488   1.051   4.699   4.997  0.0420 -0.7189  0.2587
  500DG     C1211489   0.984   4.595   5.461  0.0697  0.3667 -1.1480
  500DG     H1311490   0.993   4.720   4.908  0.1392 -1.8887 -0.0971
  500DG     H1411491   1.113   4.780   5.035  0.3155  0.0769 -1.8160
  500DG     H1511492   1.081   4.547   5.454  0.4093  0.4706  1.6056
  500DG     H1611493   0.989   4.703   5.472  0.0570  0.3165 -0.6219
  500DG     C1711494   0.954   4.650   5.103 -0.3735  0.3467 -0.9983
  500DG     C1811495   0.910   4.581   5.325 -0.3929 -0.0755  0.4669
  500DG     O1911496   1.014   4.604   5.223 -0.5636  0.1402  0.0778
  500DG     H2011497   0.903   4.559   5.070  0.7796 -1.0051  0.7830
  500DG     H2111498   0.876   4.726   5.116 -0.2732  0.4150 -0.8028
  500DG     H2211499   0.864   4.484   5.307 -0.1287 -0.2985  0.9704
  500DG     H2311500   0.842   4.666   5.325  2.0589  2.0167  1.3268
  501DG      C111501   2.883   0.829   0.046 -0.0267  0.3138  0.3011
  501DG      C211502   2.388   0.117   0.326  0.3211 -0.7766  0.6130
  501DG      H311503   2.817   0.915   0.040  1.3575  1.3112 -1.4830
  501DG      H411504   2.837   0.765  -0.030 -0.8461  1.7207 -0.4226
  501DG      H511505   2.984   0.850   0.011  0.1269  0.8080  1.0198
  501DG      H611506   2.346   0.125   0.225  0.7889  1.5825  0.5559
  501DG      H711507   2.385   0.015   0.363 -3.4054 -0.5851  1.2440
  501DG      H811508   2.318   0.169   0.391 -1.2987  0.5328 -1.9944
  501DG      O911509   2.887   0.760   0.173  0.6922  0.1541  0.6034
  501DG     O1011510   2.515   0.191   0.345  0.3888  0.1762  0.1008
  501DG     C1111511   2.763   0.716   0.219 -0.6896  0.0595 -0.3734
  501DG     C1211512   2.512   0.330   0.310 -0.1864  0.2819 -0.1226
  501DG     H1311513   2.692   0.706   0.136 -0.2063  1.7460 -1.0341
  501DG     H1411514   2.706   0.779   0.287  0.3517  2.8891 -1.9514
  501DG     H1511515   2.443   0.377   0.381 -0.1951 -2.0442  1.5370
  501DG     H1611516   2.477   0.330   0.207 -0.7565 -0.1960  0.0646
  501DG     C1711517   2.776   0.573   0.272 -0.1617  0.0876 -0.1525
  501DG     C1811518   2.657   0.382   0.335  0.6803 -0.0952 -0.2809
  501DG     O1911519   2.650   0.519   0.307  0.1295 -0.3006 -0.0025
  501DG     H2011520   2.851   0.574   0.351  1.1055  0.7285 -1.3160
  501DG     H2111521   2.826   0.513   0.196  0.4934 -0.5910  0.7892
  501DG     H2211522   2.703   0.362   0.432 -0.2346 -0.1826  0.1448
  501DG     H2311523   2.720   0.322   0.269 -2.2261 -1.4485 -2.0301
  502DG      C111524   3.118   2.359   3.807  0.1938  0.2131  0.3877
  502DG      C211525   3.522   2.144   3.662  0.0608 -0.3550  0.2116
  502DG      H311526   3.168   2.272   3.849 -1.0741 -1.4070 -1.2727
  502DG      H411527   3.152   2.344   3.704 -1.5887 -0.4666 -0.1386
  502DG      H511528   3.010   2.344   3.812  0.4918 -1.9762  1.5545
  502DG      H611529   3.493   2.040   3.644 -1.6055  0.1433 -0.2382
  502DG      H711530   3.426   2.192   3.682  1.0017  1.4353  0.6584
  502DG      H811531   3.562   2.181   3.567 -0.5531  0.5182  0.2835
  502DG      O911532   3.154   2.492   3.861  0.0049 -0.0485  0.2706
  502DG     O1011533   3.619   2.134   3.763 -0.2356  0.0431  0.1383
  502DG     C1111534   3.289   2.528   3.840  0.0962  0.0358 -0.3577
  502DG     C1211535   3.549   2.115   3.887 -0.2175  0.1376  0.0233
  502DG     H1311536   3.299   2.628   3.880 -0.3030 -1.2992  3.4665
  502DG     H1411537   3.310   2.528   3.733 -1.3336 -0.1810 -0.6517
  502DG     H1511538   3.613   2.046   3.941 -0.4951 -2.1085 -2.2933
  502DG     H1611539   3.457   2.058   3.873 -1.2824  1.5214  1.1048
  502DG     C1711540   3.383   2.452   3.935  0.7237  0.1038 -0.1354
  502DG     C1811541   3.513   2.249   3.954 -0.6443 -0.6081 -0.5094
  502DG     O1911542   3.424   2.330   3.872  0.9746  0.2211 -0.0930
  502DG     H2011543   3.336   2.430   4.031 -1.5885 -0.0258 -1.2468
  502DG     H2111544   3.465   2.511   3.975  0.2889 -0.0505  1.0255
  502DG     H2211545   3.471   2.218   4.050 -0.6781 -1.6180 -0.8384
  502DG     H2311546   3.605   2.306   3.971 -0.7869 -0.3727 -0.5195
  503DG      C111547   3.520   2.281   1.981  0.1623 -0.6208 -0.4938
  503DG      C211548   3.202   2.852   1.726  0.8050  0.0323  0.4711
  503DG      H311549   3.531   2.223   1.889 -1.1268  0.8807 -1.6437
  503DG      H411550   3.480   2.224   2.065 -0.6887  2.9376  1.7533
  503DG      H511551   3.614   2.323   2.018 -1.2753  1.0132  1.5441
  503DG      H611552   3.265   2.940   1.741  0.5320  0.2205  0.5347
  503DG      H711553   3.246   2.794   1.646 -4.1188 -0.6034 -2.1643
  503DG      H811554   3.109   2.888   1.682  0.1151  0.1918  1.9957
  503DG      O911555   3.441   2.388   1.945  0.4748 -0.6694 -0.4672
  503DG     O1011556   3.175   2.793   1.852 -0.2501  0.0755  0.2268
  503DG     C1111557   3.432   2.480   2.053  0.5898 -0.2581  0.0501
  503DG     C1211558   3.089   2.676   1.866  0.2285 -0.0497  0.2106
  503DG     H1311559   3.532   2.524   2.055  1.6272 -2.4249 -0.4662
  503DG     H1411560   3.414   2.433   2.149  1.2683 -1.6138 -0.4628
  503DG     H1511561   3.117   2.603   1.790  3.0973  1.6619 -0.5664
  503DG     H1611562   2.987   2.715   1.858 -0.0119 -0.4414  1.2443
  503DG     C1711563   3.327   2.589   2.031 -0.1514 -0.3472  0.8698
  503DG     C1811564   3.098   2.603   1.999 -0.4051 -0.3295 -0.3140
  503DG     O1911565   3.212   2.519   2.016 -0.1716  0.5338  0.3500
  503DG     H2011566   3.346   2.644   1.938 -0.1414  0.4768  1.3489
  503DG     H2111567   3.323   2.659   2.115 -0.0043  1.3291 -0.4464
  503DG     H2211568   3.077   2.681   2.074 -2.2368 -1.8253  0.8292
  503DG     H2311569   3.008   2.542   2.009 -0.6781  0.0942 -0.1248
  504DG      C111570   5.083   1.914   0.210  0.4555 -0.2787 -0.5662
  504DG      C211571   5.029   1.221   0.290 -0.8034 -0.2391  0.7226
  504DG      H311572   5.037   1.917   0.111 -1.7686  2.0118  0.4347
  504DG      H411573   5.138   2.008   0.208 -1.7367  1.1271  0.5702
  504DG      H511574   5.001   1.909   0.282  0.6084  1.3053 -0.2579
  504DG      H611575   4.963   1.226   0.376  0.6745  1.0769  1.8399
  504DG      H711576   4.983   1.235   0.191 -0.6787  0.2660  0.7343
  504DG      H811577   5.085   1.128   0.298 -2.2466 -1.3254 -1.0001
  504DG      O911578   5.185   1.811   0.239  0.1851  0.0614  0.3014
  504DG     O1011579   5.119   1.329   0.290  0.4438  0.2894  0.5930
  504DG     C1111580   5.231   1.813   0.370  0.3169 -0.3295  0.1309
  504DG     C1211581   5.208   1.338   0.406  0.8290  0.1109 -0.4558
  504DG     H1311582   5.160   1.818   0.452 -1.5917  1.1234 -1.5028
  504DG     H1411583   5.304   1.890   0.394  0.9689 -0.6798 -0.6942
  504DG     H1511584   5.269   1.249   0.404 -0.1984 -0.6225 -0.1649
  504DG     H1611585   5.159   1.339   0.504  0.4103  2.1760 -0.6342
  504DG     C1711586   5.311   1.687   0.398  0.3713  0.3824 -0.3939
  504DG     C1811587   5.303   1.457   0.406 -0.3572  0.2834  0.1289
  504DG     O1911588   5.234   1.574   0.370 -0.5804 -0.2630 -0.0040
  504DG     H2011589   5.337   1.696   0.503  1.7371 -1.9971 -0.4549
  504DG     H2111590   5.407   1.679   0.346  1.3653  0.5349  1.3487
  504DG     H2211591   5.351   1.469   0.504 -4.2642 -1.2596  2.4424
  504DG     H2311592   5.378   1.442   0.329 -1.4485  0.2509 -0.9481
  505DG      C111593   5.223   0.553   4.334 -0.3929 -1.0520 -0.9889
  505DG      C211594   4.859  -0.060   4.636 -0.2991  0.1769 -0.4228
  505DG      H311595   5.177   0.608   4.253  1.1521  0.4642 -0.9021
  505DG      H411596   5.302   0.491   4.292 -0.9781 -0.5091 -2.9647
  505DG      H511597   5.278   0.632   4.386 -0.8813 -1.3422  0.0065
  505DG      H611598   4.796  -0.037   4.551 -0.9550 -1.7094 -0.4912
  505DG      H711599   4.892  -0.163   4.650 -0.9638 -0.1044 -0.8932
  505DG      H811600   4.790  -0.042   4.719 -1.2418 -1.9121 -0.6976
  505DG      O911601   5.132   0.483   4.417 -0.3743 -0.0109 -0.4809
  505DG     O1011602   4.972   0.024   4.641  0.3464 -0.2839 -0.1325
  505DG     C1111603   5.187   0.476   4.548  0.5397 -0.6192 -0.1042
  505DG     C1211604   5.060   0.001   4.530 -0.2269 -0.2937 -0.0307
  505DG     H1311605   5.099   0.500   4.608  0.2922  1.0018 -1.0280
  505DG     H1411606   5.265   0.547   4.576 -1.4677  1.0550  1.5485
  505DG     H1511607   5.012   0.024   4.435  0.6052  1.3947 -0.0834
  505DG     H1611608   5.109  -0.097   4.528  1.2682  0.4330 -0.4661
  505DG     C1711609   5.237   0.331   4.563  0.3428  0.0403 -0.3201
  505DG     C1811610   5.174   0.101   4.546  0.1031 -0.9719 -0.7379
  505DG     O1911611   5.129   0.238   4.547  0.0698 -0.3900 -0.1294
  505DG     H2011612   5.273   0.322   4.665  0.3744  0.1743 -0.3191
  505DG     H2111613   5.325   0.316   4.500  1.2170  1.3205  0.5621
  505DG     H2211614   5.226   0.083   4.640 -0.8792  0.6250  0.1654
  505DG     H2311615   5.250   0.095   4.468 -0.4826 -1.8960 -1.2473
  506DG      C111616   0.471   3.479   0.348  1.1584 -0.1156  0.0390
  506DG      C211617   0.734   2.756   0.408  0.6419  0.7378  0.3251
  506DG      H311618   0.436   3.433   0.440  2.8220  0.8101  1.1855
  506DG      H411619   0.383   3.502   0.289  0.1804 -1.8394  0.7643
  506DG      H511620   0.514   3.579   0.364 -0.1589  0.3264  0.9779
  506DG      H611621   0.710   2.750   0.514  2.0822  0.9005  0.6938
  506DG      H711622   0.660   2.699   0.353  1.1260 -0.7204  1.1235
  506DG      H811623   0.828   2.703   0.390  0.9410  0.8641  1.4260
  506DG      O911624   0.559   3.391   0.283 -0.0927 -0.2825  0.1587
  506DG     O1011625   0.749   2.891   0.364  0.2956  0.8344  0.0379
  506DG     C1111626   0.688   3.381   0.330 -0.4045 -0.1724  0.4994
  506DG     C1211627   0.798   2.912   0.234 -0.5754  0.3484 -0.1363
  506DG     H1311628   0.688   3.344   0.432 -3.2873  1.4210  1.1643
  506DG     H1411629   0.743   3.475   0.326  1.2040 -1.0846 -2.5928
  506DG     H1511630   0.712   2.889   0.173 -0.1050 -0.3854 -0.5372
  506DG     H1611631   0.876   2.846   0.196 -0.3321 -0.4407  1.6201
  506DG     C1711632   0.777   3.285   0.246 -0.8596  0.3145  0.2614
  506DG     C1811633   0.836   3.060   0.209  0.0761 -0.5307 -0.7704
  506DG     O1911634   0.741   3.151   0.268 -0.8642  0.6619  0.2103
  506DG     H2011635   0.876   3.296   0.290 -0.5970 -1.6302  0.2498
  506DG     H2111636   0.776   3.312   0.141 -0.1862  0.1930  0.2203
  506DG     H2211637   0.935   3.072   0.252  1.1779 -4.5560 -1.7354
  506DG     H2311638   0.856   3.096   0.108  0.2645  0.7731 -0.2753
  507DG      C111639   0.313   2.691   1.590  0.4627  0.1134  0.3528
  507DG      C211640   0.130   3.210   1.969 -1.1783 -0.5363  0.4683
  507DG      H311641   0.355   2.764   1.521 -0.4966 -0.1781 -0.5591
  507DG      H411642   0.207   2.677   1.568 -0.2535  4.1530  0.6079
  507DG      H511643   0.377   2.604   1.571 -0.7088 -0.5057 -0.9352
  507DG      H611644   0.115   3.269   1.878  0.8533 -0.8891 -0.1405
  507DG      H711645   0.069   3.241   2.054  1.8929  0.4391  2.4931
  507DG      H811646   0.227   3.243   2.007 -0.4491 -2.1440  0.0926
  507DG      O911647   0.324   2.735   1.721 -0.3427  0.1439 -0.0788
  507DG     O1011648   0.133   3.068   1.947  0.0004 -0.4532 -0.4626
  507DG     C1111649   0.282   2.640   1.819  0.1715  0.2704 -0.0438
  507DG     C1211650   0.143   2.998   2.066  0.2749  0.4259  0.0435
  507DG     H1311651   0.334   2.546   1.800  0.0673  0.4251 -1.1578
  507DG     H1411652   0.175   2.619   1.814  0.5785 -3.2909  2.1882
  507DG     H1511653   0.057   3.013   2.131  1.4168 -0.5351  1.8723
  507DG     H1611654   0.222   3.044   2.126 -2.0540  3.9747  0.6804
  507DG     C1711655   0.313   2.689   1.960  0.2333  0.4846  0.2611
  507DG     C1811656   0.164   2.844   2.057  0.3066 -0.0479 -0.2854
  507DG     O1911657   0.273   2.818   1.974 -0.5319 -0.3475 -0.4698
  507DG     H2011658   0.421   2.687   1.977  0.3153  0.7490 -0.1915
  507DG     H2111659   0.276   2.620   2.035  1.6364 -1.0059 -0.3575
  507DG     H2211660   0.188   2.808   2.158 -0.7670 -0.3300 -0.1192
  507DG     H2311661   0.082   2.784   2.017 -0.1720  0.5086 -0.1491
  508DG      C111662   3.663   3.215   0.168 -0.0619 -0.2407 -0.2335
  508DG      C211663   3.750   3.493  -0.498  0.0841  0.1371  0.2243
  508DG      H311664   3.632   3.110   0.170 -3.2698  0.5920  0.7346
  508DG      H411665   3.608   3.276   0.240 -2.0858  0.7569 -2.4739
  508DG      H511666   3.769   3.229   0.189  0.8609 -0.2402 -4.0931
  508DG      H611667   3.854   3.468  -0.477 -0.0978 -0.9945 -0.1649
  508DG      H711668   3.735   3.472  -0.604  1.1822 -0.2233  0.1239
  508DG      H811669   3.733   3.598  -0.473 -0.9546 -0.1523  0.8418
  508DG      O911670   3.630   3.273   0.040  0.6709 -0.3651  0.1594
  508DG     O1011671   3.671   3.415  -0.413 -0.3608 -0.0960 -0.4490
  508DG     C1111672   3.498   3.218   0.003  0.6005 -0.1502 -0.2119
  508DG     C1211673   3.534   3.419  -0.433  0.0712  0.0018 -0.1711
  508DG     H1311674   3.431   3.228   0.089  0.1751  1.7247 -0.7138
  508DG     H1411675   3.514   3.116  -0.029  2.5137  0.4383 -1.3087
  508DG     H1511676   3.507   3.352  -0.514  0.5896 -0.5070  0.0731
  508DG     H1611677   3.520   3.518  -0.476  4.3881 -0.1863 -2.6651
  508DG     C1711678   3.427   3.310  -0.096 -0.1350  0.7319 -0.0785
  508DG     C1811679   3.458   3.412  -0.303  0.2458 -0.8083  0.3008
  508DG     O1911680   3.508   3.317  -0.212  0.3921  0.2954 -0.0656
  508DG     H2011681   3.413   3.402  -0.038 -0.5202 -0.1055  1.2128
  508DG     H2111682   3.329   3.272  -0.124 -0.2503  0.5757  0.5195
  508DG     H2211683   3.455   3.509  -0.254 -1.6144  0.3497 -1.8891
  508DG     H2311684   3.352   3.393  -0.316  0.4443 -1.1279 -0.9617
  509DG      C111685   1.252   0.664   0.024 -0.1642 -0.1062 -0.0161
  509DG      C211686   1.672   1.310   0.030  0.7660  0.1233  0.4420
  509DG      H311687   1.351   0.628   0.050  0.3042  0.5956 -0.8143
  509DG      H411688   1.226   0.637  -0.079  1.3427 -1.1345 -0.1512
  509DG      H511689   1.185   0.610   0.092 -1.6480  0.8082 -0.6909
  509DG      H611690   1.628   1.292  -0.068  0.5992  0.6527  0.4194
  509DG      H711691   1.666   1.417   0.051  0.3948  0.1033  0.4484
  509DG      H811692   1.778   1.291   0.045  0.6920  0.3042  1.2483
  509DG      O911693   1.248   0.801   0.052 -0.3033 -0.1329 -0.6450
  509DG     O1011694   1.601   1.243   0.126  0.2555 -1.0598  0.0156
  509DG     C1111695   1.300   0.819   0.188  0.4213 -0.3146  0.0884
  509DG     C1211696   1.460   1.276   0.124  0.1571 -0.4560  0.8764
  509DG     H1311697   1.401   0.780   0.198  1.0701  1.3354  0.3225
  509DG     H1411698   1.237   0.761   0.255 -1.0657  2.2222  1.0482
  509DG     H1511699   1.426   1.254   0.023 -1.4582 -2.7376  1.8269
  509DG     H1611700   1.449   1.377   0.162 -3.2643 -0.8726  1.2785
  509DG     C1711701   1.288   0.963   0.245  0.2344 -0.0234 -0.1330
  509DG     C1811702   1.390   1.178   0.221 -0.3060  0.0509  0.1868
  509DG     O1911703   1.370   1.045   0.166  0.0531  0.2412 -0.3012
  509DG     H2011704   1.330   0.964   0.346 -0.8233 -1.2260  0.3380
  509DG     H2111705   1.183   0.989   0.255  0.5869  0.6779  2.8419
  509DG     H2211706   1.446   1.170   0.315  0.1051  1.0268  0.0410
  509DG     H2311707   1.293   1.212   0.258 -0.2317 -0.2165  0.6348
  510DG      C111708   1.993   3.770   0.353 -0.2999 -0.1155  0.4696
  510DG      C211709   1.912   4.377   0.341  0.6605  0.1180  0.0461
  510DG      H311710   2.004   3.678   0.295  1.1557 -0.7114  1.6364
  510DG      H411711   1.885   3.787   0.353 -0.1928  0.6347 -0.3842
  510DG      H511712   2.024   3.750   0.455  1.0081  0.8157  0.2823
  510DG      H611713   1.808   4.346   0.337 -0.0219  2.2821 -0.2662
  510DG      H711714   1.936   4.421   0.438 -2.5835  2.3024  0.0333
  510DG      H811715   1.910   4.470   0.285 -2.1281 -0.7114 -1.3716
  510DG      O911716   2.055   3.876   0.289 -0.0346  0.1533  0.3244
  510DG     O1011717   2.002   4.289   0.280 -0.6538 -0.0126  0.2680
  510DG     C1111718   2.198   3.868   0.275  0.5417 -0.1870 -0.2244
  510DG     C1211719   2.134   4.334   0.279 -0.2441 -0.1036 -0.8333
  510DG     H1311720   2.207   3.794   0.195  0.7252 -0.2628 -0.1343
  510DG     H1411721   2.244   3.829   0.366  1.5847 -1.3105 -1.2023
  510DG     H1511722   2.150   4.372   0.380 -0.6134  3.2505 -1.9159
  510DG     H1611723   2.134   4.423   0.217 -1.6630  1.7030  1.5917
  510DG     C1711724   2.257   3.996   0.226 -0.1741 -0.2823 -0.2711
  510DG     C1811725   2.231   4.227   0.220 -0.3603 -0.0723 -0.2672
  510DG     O1911726   2.192   4.108   0.288 -0.0742  0.5609 -0.4027
  510DG     H2011727   2.231   3.992   0.121 -1.4853  1.0488 -0.0383
  510DG     H2111728   2.364   4.003   0.242  0.1456 -2.8139 -0.8430
  510DG     H2211729   2.220   4.212   0.113 -1.5283  0.6002 -0.2483
  510DG     H2311730   2.333   4.256   0.246 -0.3871 -1.2664  1.3230
  511DG      C111731   2.460   4.088   0.987  0.2317  0.3151  0.8691
  511DG      C211732   3.201   4.189   1.019 -0.2241 -0.5051  0.7222
  511DG      H311733   2.451   3.988   0.942  2.9641 -0.4334  1.8016
  511DG      H411734   2.362   4.132   0.971 -0.4762 -0.6744  2.2952
  511DG      H511735   2.480   4.092   1.094  2.0722  1.0088  0.5335
  511DG      H611736   3.263   4.109   1.060 -1.1380 -1.1270  0.8997
  511DG      H711737   3.223   4.283   1.070 -0.4493 -0.6510  1.0900
  511DG      H811738   3.101   4.174   1.057 -0.1581 -0.3301  0.9670
  511DG      O911739   2.558   4.160   0.918 -0.3679 -0.7135  0.1122
  511DG     O1011740   3.200   4.217   0.878 -0.2133  0.2858 -0.1590
  511DG     C1111741   2.700   4.130   0.927  0.7311  0.2837 -0.5692
  511DG     C1211742   3.153   4.113   0.799  0.0922  0.5377  0.4575
  511DG     H1311743   2.726   4.027   0.952 -0.0488  0.5388  1.4792
  511DG     H1411744   2.716   4.183   1.020  0.6205 -2.0419  0.8701
  511DG     H1511745   3.222   4.029   0.810  1.8945  2.0870  1.5555
  511DG     H1611746   3.156   4.156   0.699 -2.1865  0.7240  0.4266
  511DG     C1711747   2.779   4.185   0.810 -0.3329  0.2075  0.0166
  511DG     C1811748   3.000   4.077   0.826  0.7982 -0.5541  0.4407
  511DG     O1911749   2.916   4.192   0.844 -0.0307  0.0059  0.0068
  511DG     H2011750   2.759   4.291   0.793  3.6131  0.7524 -2.7509
  511DG     H2111751   2.762   4.140   0.712  1.6307  2.2251 -1.3456
  511DG     H2211752   2.950   4.012   0.754 -0.9568 -0.9870  1.9541
  511DG     H2311753   2.989   4.021   0.918  0.4468  0.8384  1.2819
  512DG      C111754   5.361   1.119   5.154  0.1333 -0.2135 -0.6319
  512DG      C211755   5.405   1.841   5.123 -1.3600  1.0059  0.0908
  512DG      H311756   5.372   1.081   5.256 -1.6692 -1.4091 -0.8257
  512DG      H411757   5.379   1.035   5.088  0.7348 -0.3594 -0.2902
  512DG      H511758   5.256   1.148   5.148 -0.2333 -1.8239 -3.0542
  512DG      H611759   5.349   1.779   5.193 -0.1866  0.9185  0.9643
  512DG      H711760   5.461   1.919   5.174  1.6778  0.3848 -2.0470
  512DG      H811761   5.332   1.884   5.054 -1.2354 -1.1270 -1.4787
  512DG      O911762   5.439   1.229   5.120 -0.0862 -0.4482 -0.4390
  512DG     O1011763   5.494   1.756   5.040  0.0861 -0.0850  0.1237
  512DG     C1111764   5.476   1.240   4.987 -0.0265 -0.0945  0.0135
  512DG     C1211765   5.598   1.694   5.113  0.6126  0.2856 -0.4455
  512DG     H1311766   5.383   1.259   4.934 -0.4750  1.3405  1.2369
  512DG     H1411767   5.514   1.150   4.937  0.6191 -0.2845  0.8259
  512DG     H1511768   5.561   1.673   5.214  1.2358  0.3497 -0.2030
  512DG     H1611769   5.684   1.761   5.113 -0.4901  1.7468 -0.1114
  512DG     C1711770   5.582   1.351   4.975  0.7921  0.4576  0.1374
  512DG     C1811771   5.637   1.558   5.052  0.7323  0.4555 -0.3814
  512DG     O1911772   5.535   1.469   5.035 -0.1237  0.0859 -1.0473
  512DG     H2011773   5.596   1.364   4.868 -2.0906  0.5623 -0.3084
  512DG     H2111774   5.669   1.318   5.031  0.8124  0.9489  0.4087
  512DG     H2211775   5.696   1.579   4.962  1.7664  0.4020  0.2703
  512DG     H2311776   5.705   1.515   5.126  1.0968  0.3410 -0.7743
  513DG      C111777   2.083   4.346   5.380  0.0811 -0.1025  0.0702
  513DG      C211778   2.149   5.104   5.144  0.1409  0.0082 -0.6143
  513DG      H311779   2.164   4.323   5.448 -0.5222  0.8254  1.1395
  513DG      H411780   2.124   4.321   5.282  0.9969 -0.1495  0.4535
  513DG      H511781   1.999   4.279   5.398  1.5817 -1.7020  1.4905
  513DG      H611782   2.241   5.097   5.086  2.6533  0.1757  3.0218
  513DG      H711783   2.086   5.191   5.121 -1.4107 -1.3672 -1.7639
  513DG      H811784   2.174   5.114   5.250  0.7279  0.2072 -0.7672
  513DG      O911785   2.043   4.477   5.374 -0.2228  0.2413 -0.0541
  513DG     O1011786   2.064   4.998   5.122  0.2632 -0.1626 -0.0050
  513DG     C1111787   1.943   4.507   5.285  0.1596  0.3224  0.4562
  513DG     C1211788   2.148   4.877   5.124  0.3007  0.3002  0.1002
  513DG     H1311789   1.857   4.445   5.311  1.2292 -1.9897 -1.1216
  513DG     H1411790   1.968   4.469   5.186 -0.4076 -0.2041  0.5079
  513DG     H1511791   2.212   4.886   5.212  2.5453  1.3794 -1.5440
  513DG     H1611792   2.199   4.860   5.029  1.0647  1.7831  0.2126
  513DG     C1711793   1.901   4.658   5.286  0.0226  0.0575 -0.0566
  513DG     C1811794   2.055   4.753   5.140 -0.6779 -0.2602  0.0739
  513DG     O1911795   2.005   4.751   5.272  0.4623  0.7405  0.0584
  513DG     H2011796   1.840   4.673   5.374 -2.2545 -0.5419 -1.4416
  513DG     H2111797   1.831   4.671   5.204  1.5582  2.1665 -1.1449
  513DG     H2211798   1.974   4.779   5.072 -0.0511  1.5245 -0.0369
  513DG     H2311799   2.098   4.658   5.108 -0.7757 -0.2003 -0.2398
  514DG      C111800   0.191   2.812   1.180  0.0398 -0.0746 -0.0309
  514DG      C211801   0.875   3.263   1.525 -0.1152  0.1036  0.0196
  514DG      H311802   0.153   2.765   1.088 -1.4847 -4.3569  2.4657
  514DG      H411803   0.129   2.901   1.190  0.8998  0.4270  0.9873
  514DG      H511804   0.162   2.752   1.266 -0.8056 -0.3244 -0.4795
  514DG      H611805   0.815   3.246   1.614 -1.1840 -1.0970 -0.8798
  514DG      H711806   0.976   3.266   1.565  0.9515 -1.9357 -2.2590
  514DG      H811807   0.825   3.353   1.489  1.1066  1.0749  0.6901
  514DG      O911808   0.320   2.867   1.202 -0.5092  0.4693  0.4717
  514DG     O1011809   0.865   3.152   1.431  0.3576 -0.4571 -0.6451
  514DG     C1111810   0.431   2.776   1.183 -0.5508  0.1151 -0.3711
  514DG     C1211811   0.729   3.112   1.415 -0.4986 -0.1339 -0.4534
  514DG     H1311812   0.437   2.733   1.084  2.7474  0.7338 -0.5220
  514DG     H1411813   0.429   2.698   1.260  1.5296  2.3424  2.1400
  514DG     H1511814   0.669   3.198   1.385 -2.0000 -1.5045 -1.5994
  514DG     H1611815   0.676   3.094   1.509 -1.1079  0.8413 -0.5974
  514DG     C1711816   0.560   2.860   1.194 -0.2813 -0.7177  0.0559
  514DG     C1811817   0.706   3.003   1.311  0.0698 -0.4208  0.7073
  514DG     O1911818   0.577   2.947   1.304  0.0492 -0.7336 -0.5378
  514DG     H2011819   0.561   2.936   1.116  2.0668  0.4137  1.0819
  514DG     H2111820   0.644   2.797   1.166  2.6368  2.3881  1.1093
  514DG     H2211821   0.734   3.044   1.213  1.6076 -1.3131  0.7519
  514DG     H2311822   0.774   2.921   1.332 -0.8401 -1.0588  1.2460
  515DG      C111823   2.854   2.001   2.718 -0.2814 -0.6608  0.4110
  515DG      C211824   2.967   2.538   2.327  0.1506 -0.9723  0.3561
  515DG      H311825   2.886   1.930   2.794  1.4720 -1.0514 -0.6406
  515DG      H411826   2.799   1.938   2.648  0.1932 -0.0744 -0.4983
  515DG      H511827   2.771   2.061   2.754 -0.6193 -0.7666 -0.1773
  515DG      H611828   2.876   2.581   2.371  0.0909  1.8964 -2.2958
  515DG      H711829   3.037   2.620   2.317 -0.1200 -0.6075  1.3505
  515DG      H811830   2.942   2.505   2.227  0.3279 -0.3054  0.0876
  515DG      O911831   2.957   2.074   2.666 -0.5301  0.5499 -0.3180
  515DG     O1011832   3.024   2.440   2.408 -0.1114  0.1341 -0.0821
  515DG     C1111833   3.064   1.995   2.611  0.4414  0.6404 -0.1616
  515DG     C1211834   3.146   2.391   2.361 -0.7405  0.2443  0.5245
  515DG     H1311835   3.033   1.946   2.519  0.9332 -0.1771  0.0979
  515DG     H1411836   3.095   1.914   2.678 -1.0234 -0.1005 -0.3271
  515DG     H1511837   3.216   2.468   2.329 -1.5992  0.4259 -1.0123
  515DG     H1611838   3.125   2.344   2.265 -0.4725 -0.0692  0.6195
  515DG     C1711839   3.179   2.093   2.586  0.5493 -0.0571  0.5945
  515DG     C1811840   3.216   2.286   2.456 -0.2863 -0.6189  0.1006
  515DG     O1911841   3.128   2.191   2.499  0.1173 -0.3287 -0.2324
  515DG     H2011842   3.254   2.039   2.528  1.0963 -0.4764  1.6750
  515DG     H2111843   3.234   2.142   2.666  1.3897 -0.4080  0.2382
  515DG     H2211844   3.307   2.246   2.410 -0.0915  1.2328 -1.2197
  515DG     H2311845   3.258   2.335   2.544 -0.9347  1.6704 -0.7907
  516DG      C111846   2.238   3.511   3.125 -0.2205 -0.8080  0.4429
  516DG      C211847   1.603   3.721   3.077 -0.6011 -1.0190 -0.1662
  516DG      H311848   2.336   3.475   3.092  0.6396  0.6791  1.2655
  516DG      H411849   2.181   3.432   3.173  1.2808 -1.5843  1.0115
  516DG      H511850   2.262   3.581   3.205 -1.4666 -0.1247  0.2425
  516DG      H611851   1.622   3.768   3.174 -0.5853 -1.8369  0.2360
  516DG      H711852   1.523   3.767   3.019 -2.1945 -3.8544 -0.3550
  516DG      H811853   1.568   3.623   3.109 -1.2060 -1.1604 -1.2079
  516DG      O911854   2.161   3.575   3.024  0.3767 -0.3233  0.0732
  516DG     O1011855   1.723   3.711   3.003  0.3372 -0.1184 -0.3653
  516DG     C1111856   2.156   3.496   2.910  0.0493  0.3360 -0.0530
  516DG     C1211857   1.697   3.627   2.891 -0.8250 -0.0142 -0.6460
  516DG     H1311858   2.123   3.396   2.939  1.4892 -0.3917 -0.8004
  516DG     H1411859   2.245   3.484   2.849  0.4366  0.3997  0.4918
  516DG     H1511860   1.624   3.677   2.827  1.0413  0.3934 -2.5944
  516DG     H1611861   1.665   3.526   2.917  3.4808 -1.4235 -0.0411
  516DG     C1711862   2.051   3.557   2.818  0.0784  0.3332 -0.0955
  516DG     C1811863   1.824   3.615   2.813 -0.5533  0.0408  0.3429
  516DG     O1911864   1.926   3.561   2.893 -0.1528 -0.4667 -0.0637
  516DG     H2011865   2.036   3.490   2.733 -1.4575 -0.4868  0.7865
  516DG     H2111866   2.085   3.649   2.771 -0.6239 -0.1086 -1.5212
  516DG     H2211867   1.803   3.554   2.726 -0.4793  2.9095 -1.8161
  516DG     H2311868   1.856   3.714   2.780  1.3501 -0.8477 -0.6338
  517DG      C111869   0.042   3.096   2.504  0.1906  0.0048  0.1923
  517DG      C211870  -0.205   3.631   2.821 -0.4378  1.1792  0.3623
  517DG      H311871   0.104   3.056   2.424  0.5005 -0.6924  0.7667
  517DG      H411872  -0.047   3.033   2.501 -0.5014  1.0003 -0.9566
  517DG      H511873   0.081   3.075   2.604 -0.8036  0.4281  0.6785
  517DG      H611874  -0.269   3.560   2.873  1.0584  0.3703  1.1579
  517DG      H711875  -0.120   3.653   2.885  0.8006 -0.8754 -0.4577
  517DG      H811876  -0.266   3.721   2.809  0.7507  1.8579 -0.8904
  517DG      O911877   0.016   3.238   2.487 -0.0055  0.3523  0.3728
  517DG     O1011878  -0.167   3.586   2.697 -0.2284 -0.0519  0.0185
  517DG     C1111879   0.112   3.311   2.417 -0.2328  0.3537 -0.4522
  517DG     C1211880  -0.090   3.685   2.622  0.0990  0.2808  0.0458
  517DG     H1311881   0.140   3.262   2.324 -1.4151 -1.2455 -0.0347
  517DG     H1411882   0.202   3.325   2.477 -2.4419  2.3299  2.6771
  517DG     H1511883  -0.020   3.726   2.695 -0.5567 -0.3643  1.0593
  517DG     H1611884  -0.151   3.772   2.599  1.2806  1.2666  0.5423
  517DG     C1711885   0.044   3.441   2.378  0.6294 -1.1005  0.9808
  517DG     C1811886  -0.040   3.638   2.489 -0.1837 -0.6832  0.2694
  517DG     O1911887  -0.012   3.496   2.497  0.3923 -0.0007 -0.3912
  517DG     H2011888  -0.035   3.424   2.305 -1.4279  2.5896  2.1356
  517DG     H2111889   0.112   3.503   2.319 -2.3415  1.2638 -0.2348
  517DG     H2211890  -0.117   3.636   2.412  1.0774 -0.0338 -1.0564
  517DG     H2311891   0.039   3.706   2.456 -0.8402  0.4894  1.0128
  518DG      C111892   2.764   5.105   2.092 -0.5751  0.0586 -0.2559
  518DG      C211893   2.152   5.273   2.213  0.7673 -0.4440 -0.3226
  518DG      H311894   2.849   5.036   2.091  0.2560  1.0209 -2.5997
  518DG      H411895   2.765   5.179   2.172 -2.1367 -0.5249  0.3420
  518DG      H511896   2.775   5.168   2.004 -0.1823 -0.4871 -0.6027
  518DG      H611897   2.175   5.276   2.319 -0.1094  0.7144 -0.1462
  518DG      H711898   2.172   5.371   2.170 -0.7729 -0.0132 -0.1024
  518DG      H811899   2.044   5.260   2.204  0.4292  1.1201  1.0631
  518DG      O911900   2.643   5.036   2.088  0.1877  0.0190  0.1648
  518DG     O1011901   2.233   5.176   2.152  0.1241  0.1867 -0.1420
  518DG     C1111902   2.608   4.977   1.956  0.2688 -0.3256 -0.5075
  518DG     C1211903   2.182   5.148   2.025  0.0107 -0.5270  0.1995
  518DG     H1311904   2.680   4.903   1.923  4.7301  2.3462  2.1973
  518DG     H1411905   2.600   5.049   1.875 -0.7047  0.2779  0.0991
  518DG     H1511906   2.207   5.229   1.957 -0.7401 -0.5718 -0.1393
  518DG     H1611907   2.075   5.130   2.020  0.1017 -0.7476 -1.8513
  518DG     C1711908   2.463   4.931   1.957  0.2368  0.0317  0.2508
  518DG     C1811909   2.246   5.013   1.985 -1.1554  0.7113 -0.6217
  518DG     O1911910   2.384   5.040   1.994 -0.6407 -0.4798 -0.4739
  518DG     H2011911   2.448   4.844   2.020 -0.4635 -0.1370 -0.1335
  518DG     H2111912   2.440   4.908   1.853 -4.0892  1.3596  0.6953
  518DG     H2211913   2.218   4.930   2.050 -1.0915 -1.9521 -3.7393
  518DG     H2311914   2.206   4.991   1.885 -2.5919 -0.9732  0.2764
  519DG      C111915   0.064   1.986   4.220  0.4409  0.2303  0.2285
  519DG      C211916  -0.275   2.640   4.346 -0.7740  0.4486  0.0326
  519DG      H311917   0.107   1.941   4.309  2.9359  1.4958 -0.2515
  519DG      H411918   0.122   1.960   4.132 -0.0279 -1.2013  0.3255
  519DG      H511919  -0.040   1.955   4.207 -0.0464  2.0651 -0.6314
  519DG      H611920  -0.255   2.743   4.375  1.0612  0.4573 -1.1186
  519DG      H711921  -0.303   2.651   4.241 -1.7291 -2.8127 -0.1897
  519DG      H811922  -0.365   2.608   4.399 -0.5630 -1.3126 -0.5913
  519DG      O911923   0.055   2.131   4.244  0.4164  0.3696 -0.1292
  519DG     O1011924  -0.159   2.563   4.362 -0.3962  0.3688  0.0967
  519DG     C1111925   0.187   2.187   4.240  0.2987 -0.5044 -0.1937
  519DG     C1211926  -0.042   2.618   4.308 -0.7407  0.0976 -0.0924
  519DG     H1311927   0.221   2.199   4.137  0.5472 -2.3502 -0.3510
  519DG     H1411928   0.274   2.131   4.274  0.9039  1.7329  2.3346
  519DG     H1511929  -0.044   2.722   4.338 -0.5751  0.4764 -1.3377
  519DG     H1611930  -0.038   2.627   4.200  0.7335 -1.2662 -0.1922
  519DG     C1711931   0.199   2.327   4.309 -0.4496 -0.3445  0.3944
  519DG     C1811932   0.091   2.543   4.349  0.4232  0.7095 -0.0489
  519DG     O1911933   0.092   2.416   4.279 -0.0459 -0.1852 -0.3652
  519DG     H2011934   0.296   2.374   4.293  0.8077 -2.7677  0.4174
  519DG     H2111935   0.190   2.312   4.417 -0.7710 -1.8527  0.1855
  519DG     H2211936   0.179   2.603   4.328  0.7052  0.6249  0.8467
  519DG     H2311937   0.096   2.541   4.458  1.5040 -1.4022 -0.0957
  520DG      C111938   1.142   5.367   4.560  0.5132 -0.0586 -0.4850
  520DG      C211939   1.328   6.244   4.414  0.8247  0.3262 -0.7812
  520DG      H311940   1.134   5.328   4.661  0.2164  1.0567 -0.0753
  520DG      H411941   1.159   5.286   4.488  0.8903 -1.9831  1.6321
  520DG      H511942   1.051   5.422   4.537  1.4964  1.6462 -0.4914
  520DG      H611943   1.397   6.216   4.335  0.4514 -0.0030 -0.9941
  520DG      H711944   1.273   6.336   4.392  0.4114  0.0927 -0.7453
  520DG      H811945   1.379   6.260   4.509 -0.1105 -2.0721  0.1976
  520DG      O911946   1.240   5.467   4.562  0.4622  0.4848  0.0787
  520DG     O1011947   1.238   6.141   4.443 -0.0631  0.1480 -0.0433
  520DG     C1111948   1.277   5.524   4.428 -0.0663 -0.3584 -0.1805
  520DG     C1211949   1.303   6.018   4.452 -0.3976  0.9654 -0.9569
  520DG     H1311950   1.246   5.456   4.349  1.8140 -2.5063  0.8045
  520DG     H1411951   1.383   5.545   4.415 -0.0989 -1.0137 -1.6339
  520DG     H1511952   1.369   6.023   4.538 -1.2723 -1.8877  0.0005
  520DG     H1611953   1.357   6.002   4.359  0.2458  1.3972 -0.6629
  520DG     C1711954   1.207   5.665   4.419 -0.4728  0.1340  0.5957
  520DG     C1811955   1.205   5.898   4.450  0.0759  0.0722 -0.2962
  520DG     O1911956   1.271   5.777   4.481  0.0787 -0.0421 -0.0707
  520DG     H2011957   1.109   5.652   4.465 -0.5836  0.6708  0.5138
  520DG     H2111958   1.180   5.690   4.317  0.0700  0.0020  0.4156
  520DG     H2211959   1.138   5.917   4.534 -0.1991  2.2132 -0.9387
  520DG     H2311960   1.151   5.899   4.356  0.0812  1.1564 -0.3026
  521DG      C111961   4.081   3.488   2.086  0.1216 -0.3723 -0.5597
  521DG      C211962   4.673   3.677   2.326 -0.7908 -0.0393  0.1030
  521DG      H311963   4.166   3.462   2.022  0.9001  0.1224  0.2454
  521DG      H411964   3.990   3.487   2.026 -0.5017  2.9026  0.1355
  521DG      H511965   4.084   3.401   2.151  1.7903 -0.0636 -0.1600
  521DG      H611966   4.690   3.642   2.225 -1.0024 -0.2599  0.1450
  521DG      H711967   4.734   3.767   2.339 -0.7257 -0.1579  0.6645
  521DG      H811968   4.704   3.612   2.408 -0.4915  0.8015  0.6826
  521DG      O911969   4.110   3.600   2.167 -0.0326  1.0859 -0.1658
  521DG     O1011970   4.536   3.716   2.344  0.0141  1.1377 -0.1074
  521DG     C1111971   4.125   3.718   2.089  0.1690  0.6688  0.2947
  521DG     C1211972   4.519   3.852   2.303 -0.3622 -0.4759  0.4342
  521DG     H1311973   4.028   3.741   2.044  0.9247 -1.2677 -2.6595
  521DG     H1411974   4.178   3.708   1.994  0.7634 -1.1077  0.7637
  521DG     H1511975   4.575   3.862   2.210  1.3042  0.3029  1.4647
  521DG     H1611976   4.567   3.914   2.379 -1.5262 -0.9444  1.5957
  521DG     C1711977   4.183   3.821   2.175  0.4112 -0.6624  0.3665
  521DG     C1811978   4.375   3.886   2.298  0.3992  0.3136  0.0309
  521DG     O1911979   4.317   3.790   2.205 -0.2384  0.0280  0.5381
  521DG     H2011980   4.126   3.834   2.268  0.2381  0.3722  0.1206
  521DG     H2111981   4.168   3.913   2.119 -0.0003 -0.9253  0.0384
  521DG     H2211982   4.334   3.869   2.397 -3.4280 -3.0576 -1.8211
  521DG     H2311983   4.370   3.982   2.247  1.8440 -0.5675 -1.9189
  522DG      C111984   2.887   5.148   2.580 -0.1417 -0.6044  0.2079
  522DG      C211985   3.026   5.614   2.021 -0.2004 -0.6657 -0.4491
  522DG      H311986   2.984   5.121   2.538  1.1701  1.1762  1.9285
  522DG      H411987   2.803   5.106   2.524  1.8716 -1.0770 -2.6821
  522DG      H511988   2.871   5.101   2.677 -0.1914 -0.8767  0.0699
  522DG      H611989   2.964   5.607   1.931  1.2725 -1.6708 -1.4263
  522DG      H711990   3.123   5.645   1.981 -0.7837  0.2768 -1.1935
  522DG      H811991   3.029   5.513   2.060  1.2213 -0.2111  0.7073
  522DG      O911992   2.876   5.294   2.590  0.5494  0.0375 -0.2581
  522DG     O1011993   2.984   5.713   2.111 -0.5996  0.3602  0.1538
  522DG     C1111994   2.882   5.339   2.450  0.2246  0.1064 -0.1900
  522DG     C1211995   2.849   5.705   2.161 -0.2842 -0.3567 -0.3312
  522DG     H1311996   2.806   5.284   2.394  1.3021 -0.8042 -0.8080
  522DG     H1411997   2.984   5.318   2.416  0.7453  1.8849  0.1765
  522DG     H1511998   2.798   5.626   2.105  1.1267 -1.2732 -0.3538
  522DG     H1611999   2.804   5.803   2.140  0.2646  0.2480  1.1710
  522DG     C1712000   2.859   5.494   2.454  0.0147 -0.6301  0.6162
  522DG     C1812001   2.830   5.677   2.308 -0.1416 -0.1120 -0.4542
  522DG     O1912002   2.870   5.542   2.321  0.2698 -0.0204  0.2488
  522DG     H2012003   2.943   5.541   2.505  2.3972 -1.5383 -2.1428
  522DG     H2112004   2.776   5.518   2.519  0.6186 -0.1482  1.2263
  522DG     H2212005   2.894   5.747   2.360 -2.1714  3.1044 -1.9256
  522DG     H2312006   2.723   5.681   2.330 -0.1282  0.8274 -0.5372
  523DG      C112007   0.506   2.134   2.764 -0.2875 -0.3921 -0.8269
  523DG      C212008   0.682   1.825   2.116 -0.2143  0.2093  0.3104
  523DG      H312009   0.482   2.044   2.821 -1.9119  0.2973 -0.3684
  523DG      H412010   0.452   2.218   2.807  2.3931  0.3381  1.3294
  523DG      H512011   0.604   2.159   2.803 -0.8794  1.8278 -0.6104
  523DG      H612012   0.780   1.871   2.117 -0.0789 -0.0161 -1.1360
  523DG      H712013   0.694   1.720   2.088 -0.3194  0.0974  0.6784
  523DG      H812014   0.618   1.894   2.061  0.1801  0.8315  0.6169
  523DG      O912015   0.492   2.122   2.627  0.3825  0.4574 -0.3395
  523DG     O1012016   0.632   1.825   2.251 -0.4891 -0.3870 -0.1706
  523DG     C1112017   0.361   2.093   2.593  0.1101 -0.0251 -0.0834
  523DG     C1212018   0.503   1.759   2.260 -0.3885 -0.7583  0.1088
  523DG     H1312019   0.320   2.160   2.517 -1.1424 -0.9336 -0.2427
  523DG     H1412020   0.291   2.100   2.677  0.1787  1.0525 -0.1033
  523DG     H1512021   0.520   1.660   2.218  3.3106  0.6181 -2.0589
  523DG     H1612022   0.443   1.804   2.181  0.7806  2.0781  0.7322
  523DG     C1712023   0.352   1.947   2.545  0.5597 -0.0288  0.2472
  523DG     C1812024   0.443   1.777   2.401 -0.5834 -0.6984  0.9366
  523DG     O1912025   0.428   1.921   2.432 -0.2772 -0.2001 -0.0071
  523DG     H2012026   0.255   1.913   2.511  0.7267 -2.3526  1.8333
  523DG     H2112027   0.370   1.871   2.621  2.0927 -0.0521 -0.1104
  523DG     H2212028   0.342   1.735   2.404 -1.6627  1.4007 -1.7009
  523DG     H2312029   0.500   1.732   2.482  0.5450 -2.8686 -0.9653
  524DG      C112030   0.748   2.487   1.389  0.2788 -0.4834  0.4771
  524DG      C212031   1.399   2.303   1.265 -0.8041  0.4193  0.1089
  524DG      H312032   0.725   2.386   1.354 -0.6124 -0.2160  0.2554
  524DG      H412033   0.702   2.555   1.317 -1.9425 -2.8222 -0.4898
  524DG      H512034   0.702   2.507   1.486 -0.7495  1.3143 -0.3274
  524DG      H612035   1.364   2.200   1.272  2.2494 -0.8718 -1.4620
  524DG      H712036   1.462   2.315   1.177 -1.6925 -0.5329 -0.6697
  524DG      H812037   1.473   2.324   1.343 -1.3772  1.0074  0.5077
  524DG      O912038   0.888   2.519   1.372 -0.2567 -0.1637  0.3554
  524DG     O1012039   1.291   2.402   1.280  0.1322  0.5759  0.7382
  524DG     C1112040   0.923   2.652   1.398 -1.0396 -0.2915 -0.6776
  524DG     C1212041   1.346   2.530   1.286  0.7672  0.4669 -0.0691
  524DG     H1312042   0.964   2.651   1.499  3.0386  1.7278 -2.0712
  524DG     H1412043   0.842   2.724   1.403 -0.3561  0.5375 -1.1233
  524DG     H1512044   1.430   2.535   1.216  0.1620  1.2976 -0.7613
  524DG     H1612045   1.386   2.539   1.387 -0.2401 -2.1952  0.6480
  524DG     C1712046   1.025   2.706   1.311 -1.0250 -0.0971 -0.6538
  524DG     C1812047   1.249   2.648   1.255 -0.3585  0.1071 -0.2333
  524DG     O1912048   1.128   2.603   1.304  0.0729  0.1504  0.2114
  524DG     H2012049   1.067   2.796   1.355  0.2558 -0.9353 -0.1089
  524DG     H2112050   0.989   2.717   1.209  0.4463 -2.6494 -1.5244
  524DG     H2212051   1.284   2.739   1.303  0.2332 -0.1434 -0.1813
  524DG     H2312052   1.242   2.660   1.147  0.9481 -0.6279 -0.4209
  525DG      C112053   1.181   3.528   1.276  0.8315  0.0934  0.0270
  525DG      C212054   1.031   4.134   1.512 -0.1895  0.4581  0.6087
  525DG      H312055   1.286   3.558   1.267  1.4324 -1.7958  0.3914
  525DG      H412056   1.130   3.562   1.186  0.1450  0.1344  0.4281
  525DG      H512057   1.185   3.420   1.268 -0.0141 -0.0043  0.7270
  525DG      H612058   1.136   4.161   1.524 -0.1260  0.4122  0.1680
  525DG      H712059   1.012   4.149   1.406  2.0867  0.4625  0.1417
  525DG      H812060   0.968   4.196   1.576  0.3505 -1.1662  2.8374
  525DG      O912061   1.113   3.574   1.394 -0.3446  0.4834  0.5347
  525DG     O1012062   1.019   3.994   1.531  0.6302  0.6685  0.1382
  525DG     C1112063   1.172   3.542   1.520  0.2296 -0.3433 -0.2113
  525DG     C1212064   1.018   3.963   1.667  0.1320  0.8400 -0.3927
  525DG     H1312065   1.269   3.591   1.521  0.1712 -0.1688  2.2187
  525DG     H1412066   1.184   3.435   1.534 -0.1348 -0.1959  1.4996
  525DG     H1512067   0.940   4.013   1.723 -1.3809  0.5625 -2.1701
  525DG     H1612068   1.116   3.995   1.704  1.3546 -1.6398 -1.2655
  525DG     C1712069   1.074   3.595   1.628  0.2368  0.1703  0.3836
  525DG     C1812070   0.990   3.814   1.695  0.0320  0.2334 -0.2352
  525DG     O1912071   1.046   3.731   1.595 -0.1629  0.3455  0.3925
  525DG     H2012072   1.114   3.575   1.727  1.3046 -0.8308 -0.2311
  525DG     H2112073   0.983   3.535   1.626 -0.2112  0.8366 -1.4727
  525DG     H2212074   1.015   3.782   1.795  0.2511  0.0335 -0.3532
  525DG     H2312075   0.881   3.809   1.690  0.1047 -0.2826 -2.0841
  526DG      C112076   0.217   2.154   2.191  0.6545 -0.4917  0.5553
  526DG      C212077   0.719   2.388   1.775 -1.0066  0.2991  0.1613
  526DG      H312078   0.218   2.235   2.263 -1.3513 -1.4500  1.7520
  526DG      H412079   0.296   2.080   2.205 -0.3565 -1.6366  0.4259
  526DG      H512080   0.129   2.090   2.201  2.3389 -3.3029 -1.0964
  526DG      H612081   0.759   2.430   1.683  0.4183  1.0997  1.0990
  526DG      H712082   0.729   2.461   1.855  0.3160  0.1149  0.1856
  526DG      H812083   0.771   2.298   1.809 -1.3384  0.5329  1.3507
  526DG      O912084   0.220   2.216   2.061  0.1506 -0.1417  0.1249
  526DG     O1012085   0.583   2.360   1.768 -0.0075 -0.7872  0.1880
  526DG     C1112086   0.220   2.111   1.960 -0.1069 -0.0819 -0.1913
  526DG     C1212087   0.553   2.267   1.662 -0.2220  0.4132  0.9573
  526DG     H1312088   0.124   2.061   1.961  0.1042 -0.5501 -1.6651
  526DG     H1412089   0.299   2.039   1.981 -0.3415  0.2275  2.0016
  526DG     H1512090   0.617   2.179   1.654  3.5994  2.8537  2.0158
  526DG     H1612091   0.567   2.319   1.567 -0.6732 -1.0270  0.0782
  526DG     C1712092   0.241   2.156   1.817  0.5797  0.0034  0.4598
  526DG     C1812093   0.408   2.224   1.667 -0.5470  0.1609  0.7776
  526DG     O1912094   0.376   2.190   1.801 -0.1578 -0.5914  0.3642
  526DG     H2012095   0.175   2.244   1.813  0.9859  0.3624  1.2962
  526DG     H2112096   0.201   2.069   1.766 -2.1678  1.0983  0.5126
  526DG     H2212097   0.345   2.303   1.628  0.4334  0.2821 -0.6384
  526DG     H2312098   0.396   2.131   1.611  1.2919  0.5041 -0.2636
  527DG      C112099   1.614   3.347   4.559 -0.0116  0.1395  0.2092
  527DG      C212100   1.202   3.847   4.363  0.3184 -0.2396 -0.2311
  527DG      H312101   1.625   3.268   4.634  0.1359  0.1683  0.2174
  527DG      H412102   1.636   3.438   4.615  1.3796 -0.0826  0.0674
  527DG      H512103   1.685   3.341   4.477 -0.5606  0.0392 -0.2646
  527DG      H612104   1.136   3.892   4.289  1.0546  0.0960 -0.7038
  527DG      H712105   1.200   3.901   4.457  0.7407 -1.9255  0.7848
  527DG      H812106   1.302   3.871   4.325  0.2099  1.5731  0.5468
  527DG      O912107   1.483   3.376   4.520  0.9804 -0.2824  1.2617
  527DG     O1012108   1.176   3.712   4.391  0.0840 -0.1412  0.2711
  527DG     C1112109   1.435   3.291   4.416  0.1512 -0.5972  0.4272
  527DG     C1212110   1.156   3.646   4.268 -0.3091 -0.1056 -0.0387
  527DG     H1312111   1.452   3.189   4.450  1.3436  0.0537  1.9289
  527DG     H1412112   1.496   3.302   4.326 -0.6901 -0.2191 -0.1001
  527DG     H1512113   1.226   3.668   4.188 -2.9303 -1.1325 -2.8252
  527DG     H1612114   1.057   3.669   4.228 -0.1965  2.7089  1.0937
  527DG     C1712115   1.279   3.310   4.385  0.0211 -0.0326 -0.3616
  527DG     C1812116   1.145   3.491   4.299 -0.1590 -0.1661 -0.1506
  527DG     O1912117   1.273   3.444   4.351  0.0823  0.1600  0.5954
  527DG     H2012118   1.216   3.278   4.469  1.8141  0.4676  1.2497
  527DG     H2112119   1.243   3.260   4.295 -2.8020 -0.0338  0.6743
  527DG     H2212120   1.069   3.462   4.371 -0.7092 -0.4961 -0.8489
  527DG     H2312121   1.114   3.437   4.209 -2.7767  2.5835 -1.0587
  528DG      C112122   4.094   1.085   5.366  0.4068 -0.5968 -0.5011
  528DG      C212123   4.361   0.664   4.952  0.0383  0.2071  0.1415
  528DG      H312124   4.028   1.170   5.384  1.5849  0.3364 -0.4698
  528DG      H412125   4.197   1.120   5.358  1.0397 -1.9595  1.0613
  528DG      H512126   4.104   1.037   5.464 -0.1840  2.6844  1.3320
  528DG      H612127   4.448   0.718   4.989 -1.0608  0.3543  2.7564
  528DG      H712128   4.355   0.571   5.009 -0.0258 -1.0450 -1.8046
  528DG      H812129   4.360   0.636   4.847 -1.5325 -1.7942  0.6148
  528DG      O912130   4.052   1.000   5.257 -0.3290  0.5915 -0.1929
  528DG     O1012131   4.242   0.740   4.988 -0.3005 -0.3041  0.4803
  528DG     C1112132   3.912   0.965   5.260 -0.8297 -0.4900  0.0547
  528DG     C1212133   4.123   0.669   4.945 -0.5278 -0.9009 -0.4851
  528DG     H1312134   3.868   1.065   5.259  0.2701  0.0497 -2.2420
  528DG     H1412135   3.906   0.909   5.353 -1.1034 -0.3391  0.1304
  528DG     H1512136   4.112   0.569   4.987 -0.3885 -1.2759 -1.3154
  528DG     H1612137   4.121   0.651   4.837  1.0540 -0.7936 -0.5486
  528DG     C1712138   3.879   0.882   5.134  0.0255  0.1231  0.0066
  528DG     C1812139   4.000   0.764   4.974  0.1521 -0.0172 -0.5039
  528DG     O1912140   4.000   0.807   5.113 -0.3938  0.6350  0.2162
  528DG     H2012141   3.845   0.943   5.050 -1.2256 -0.7623 -0.1622
  528DG     H2112142   3.801   0.808   5.152 -1.4162  1.7749  0.9007
  528DG     H2212143   4.006   0.850   4.908  0.5789  1.0237  0.8475
  528DG     H2312144   3.912   0.702   4.958 -1.7238  1.6222  2.5862
  529DG      C112145   2.559   3.988   3.246  0.3820 -0.4377 -0.0975
  529DG      C212146   2.784   3.197   3.210 -0.2785 -1.6119 -0.3932
  529DG      H312147   2.521   4.085   3.276  1.1379  0.3037 -1.4074
  529DG      H412148   2.519   3.968   3.146  1.0335  0.2591 -0.5118
  529DG      H512149   2.668   3.998   3.243  0.2912  0.4909 -2.2900
  529DG      H612150   2.893   3.194   3.213 -0.2796 -1.3289  0.7789
  529DG      H712151   2.751   3.099   3.246 -0.3226 -1.9784 -1.4048
  529DG      H812152   2.762   3.199   3.104 -1.6854 -1.0642 -0.1157
  529DG      O912153   2.521   3.881   3.331 -0.1469  0.8447  0.3292
  529DG     O1012154   2.733   3.316   3.276  0.1116  0.1659 -0.5085
  529DG     C1112155   2.554   3.759   3.275 -0.0744  0.1736 -0.5413
  529DG     C1212156   2.593   3.302   3.297 -0.2273  0.5828  0.7569
  529DG     H1312157   2.660   3.755   3.247 -0.1422  1.1078 -0.9764
  529DG     H1412158   2.503   3.742   3.181 -0.4192 -0.6271 -0.2245
  529DG     H1512159   2.567   3.206   3.342  0.6186 -0.1516 -0.2498
  529DG     H1612160   2.546   3.301   3.198  0.7741 -0.0937  0.2697
  529DG     C1712161   2.516   3.644   3.364 -0.8520  0.8503 -0.0891
  529DG     C1812162   2.549   3.419   3.392  0.1130  0.0288  0.4843
  529DG     O1912163   2.560   3.526   3.301 -0.2137  0.3031  0.1362
  529DG     H2012164   2.409   3.630   3.383 -0.5539  0.9518  1.8676
  529DG     H2112165   2.553   3.647   3.467  2.3923 -1.6227 -1.0429
  529DG     H2212166   2.450   3.396   3.432  1.2309 -0.9986  2.9007
  529DG     H2312167   2.619   3.433   3.475  1.7605  1.1324 -1.0236
  530DG      C112168   4.261   0.338   4.579 -0.7610  0.0062  0.9073
  530DG      C212169   3.556   0.324   4.498  0.1694  0.6807 -0.0448
  530DG      H312170   4.265   0.446   4.598  0.3373 -0.3526  3.0701
  530DG      H412171   4.286   0.330   4.474  2.0504  0.3663  1.4515
  530DG      H512172   4.354   0.297   4.619 -0.1610  0.5450  0.0836
  530DG      H612173   3.621   0.238   4.515  0.9089  1.4230  1.0679
  530DG      H712174   3.452   0.311   4.529 -0.2133 -0.7660 -1.8019
  530DG      H812175   3.556   0.347   4.392  3.4860 -1.3857 -0.6357
  530DG      O912176   4.133   0.286   4.611  0.4551  0.0933  0.4810
  530DG     O1012177   3.610   0.421   4.566  0.1062 -0.5417 -0.3528
  530DG     C1112178   4.108   0.299   4.750  0.2496  0.1499  0.2524
  530DG     C1212179   3.628   0.398   4.704  0.7735 -0.4844 -0.6233
  530DG     H1312180   4.120   0.402   4.782  0.8120  0.1097  0.1851
  530DG     H1412181   4.187   0.234   4.789  1.2823  0.1200 -1.7534
  530DG     H1512182   3.538   0.381   4.763  0.3539  0.5094 -0.9571
  530DG     H1612183   3.662   0.491   4.750  1.4462 -0.9647 -0.1180
  530DG     C1712184   3.968   0.256   4.787 -0.4813  0.0576  0.1722
  530DG     C1812185   3.735   0.298   4.753 -0.3429 -0.0439  0.6763
  530DG     O1912186   3.871   0.322   4.705  0.3818 -0.9429  0.5206
  530DG     H2012187   3.951   0.274   4.893 -1.2080  0.5365 -0.0185
  530DG     H2112188   3.960   0.149   4.774 -1.5414  0.0847  0.5100
  530DG     H2212189   3.727   0.315   4.860 -0.4466 -0.1701  0.6891
  530DG     H2312190   3.714   0.192   4.739  0.4545 -0.2625  1.0673
  531DG      C112191   4.074   0.710   0.156  0.3403 -0.4265 -0.2255
  531DG      C212192   4.399   0.107  -0.012  0.0979  0.5113  0.1944
  531DG      H312193   4.020   0.704   0.250  0.0396  1.6928 -0.2180
  531DG      H412194   4.021   0.790   0.103 -0.3286 -0.2701  0.6583
  531DG      H512195   4.174   0.741   0.185  1.0296 -0.8951 -1.9986
  531DG      H612196   4.427   0.091   0.092  0.1516 -1.8999 -0.1268
  531DG      H712197   4.342   0.019  -0.042  0.8814 -0.5066  1.5555
  531DG      H812198   4.488   0.113  -0.075 -0.5350  0.1965 -0.7433
  531DG      O912199   4.082   0.592   0.072 -0.4918  0.0536 -0.3544
  531DG     O1012200   4.330   0.226  -0.036 -0.5518 -0.2233 -0.2601
  531DG     C1112201   3.962   0.546   0.010  0.2762 -0.3324  0.5130
  531DG     C1212202   4.268   0.230  -0.164 -0.3844 -0.8125 -0.1268
  531DG     H1312203   3.904   0.630  -0.028  0.2864 -1.2858 -1.7451
  531DG     H1412204   3.913   0.469   0.071  0.0676  0.2445  1.0798
  531DG     H1512205   4.212   0.137  -0.174  0.8889 -1.4475 -2.0758
  531DG     H1612206   4.344   0.227  -0.243  0.6551  2.5829  0.5941
  531DG     C1712207   4.015   0.480  -0.113  0.5496 -0.4308 -0.3854
  531DG     C1812208   4.198   0.360  -0.191  0.0094  0.2321 -0.1013
  531DG     O1912209   4.104   0.373  -0.091  0.0356 -0.6857 -0.2667
  531DG     H2012210   4.051   0.546  -0.191  1.2518 -0.0378  0.2514
  531DG     H2112211   3.927   0.422  -0.140  2.0956 -2.8170 -0.5932
  531DG     H2212212   4.266   0.445  -0.178  0.9670 -0.5961  0.3860
  531DG     H2312213   4.143   0.358  -0.285 -0.4097  1.2500  0.1039
  532DG      C112214   1.123   3.883   2.072 -0.8099 -0.0192 -0.3771
  532DG      C212215   1.284   3.277   1.814 -0.0504 -0.4558  0.1546
  532DG      H312216   1.019   3.860   2.092 -1.0564  1.0860 -0.3354
  532DG      H412217   1.133   3.887   1.963  2.0103  1.7453 -0.1566
  532DG      H512218   1.147   3.980   2.114 -2.2421 -0.3255  1.2736
  532DG      H612219   1.330   3.219   1.893  0.9641  2.1602  1.6197
  532DG      H712220   1.237   3.225   1.730  0.8589 -1.9007  0.5194
  532DG      H812221   1.365   3.336   1.773 -0.1559 -0.8963 -0.7086
  532DG      O912222   1.213   3.789   2.132 -0.5247  0.5504  0.0119
  532DG     O1012223   1.182   3.359   1.879 -0.2271  0.1062  0.1975
  532DG     C1112224   1.350   3.813   2.097 -0.1356  0.4131  0.8343
  532DG     C1212225   1.227   3.418   2.001 -0.3145  0.3613  0.7831
  532DG     H1312226   1.382   3.894   2.162  0.0147  0.4842  0.6739
  532DG     H1412227   1.354   3.839   1.991 -3.3836 -0.9846  0.2496
  532DG     H1512228   1.261   3.349   2.078  0.2412  1.5801  1.6624
  532DG     H1612229   1.147   3.476   2.045 -1.0646 -0.6039  0.7414
  532DG     C1712230   1.439   3.691   2.125 -0.6854 -0.0604  0.0135
  532DG     C1812231   1.332   3.529   1.975 -0.3050 -0.3431  0.0358
  532DG     O1912232   1.357   3.572   2.114  0.3897  0.0388 -0.5197
  532DG     H2012233   1.483   3.689   2.224 -0.6772 -1.8252  0.0050
  532DG     H2112234   1.520   3.686   2.052  0.1186  0.4066  0.8545
  532DG     H2212235   1.426   3.494   1.933  1.1165  1.6055  1.3898
  532DG     H2312236   1.291   3.617   1.927  0.9122  0.1700 -0.1009
  533DG      C112237   3.433   3.036   5.106  0.1287 -0.2042 -0.9107
  533DG      C212238   4.052   3.334   5.249 -0.1888 -0.2815 -0.3059
  533DG      H312239   3.353   2.963   5.099 -0.1050  0.0086 -0.4714
  533DG      H412240   3.490   3.033   5.013 -2.6272  0.7989 -2.7675
  533DG      H512241   3.370   3.125   5.102 -1.0827 -1.0566 -4.0322
  533DG      H612242   4.125   3.357   5.327 -1.0409  0.6714  0.2406
  533DG      H712243   4.099   3.290   5.161  2.0976  0.0332  0.6819
  533DG      H812244   4.004   3.423   5.210 -1.8111 -1.0970 -0.2777
  533DG      O912245   3.513   3.020   5.228 -0.0184 -0.2042  0.5611
  533DG     O1012246   3.952   3.255   5.306  0.0038 -0.6324  0.5653
  533DG     C1112247   3.598   2.905   5.221 -0.3972 -0.3440  0.1486
  533DG     C1212248   4.007   3.127   5.320 -0.1007  0.7114 -0.2412
  533DG     H1312249   3.652   2.892   5.127  1.0005  1.8308  0.5796
  533DG     H1412250   3.542   2.813   5.239  0.7329 -0.7972  1.5415
  533DG     H1512251   4.096   3.121   5.383  0.4695  0.0474 -1.0789
  533DG     H1612252   4.027   3.091   5.219 -2.3993 -1.1195 -0.1284
  533DG     C1712253   3.705   2.918   5.329  0.0066 -0.6075 -0.4879
  533DG     C1812254   3.903   3.037   5.389  0.5338 -0.4894  0.4902
  533DG     O1912255   3.793   3.018   5.292 -0.7101  0.1777 -0.2446
  533DG     H2012256   3.759   2.823   5.329  2.8331  0.8850 -1.7534
  533DG     H2112257   3.649   2.936   5.422 -1.2739  0.3074 -1.3985
  533DG     H2212258   3.956   2.946   5.417  3.3979  1.0124  0.2924
  533DG     H2312259   3.875   3.089   5.480 -1.2473  0.2615 -0.4326
  534DG      C112260   3.784   4.755   1.998  0.9135  0.2523  0.4626
  534DG      C212261   4.180   4.242   2.073  0.4307  0.0703  0.5578
  534DG      H312262   3.842   4.793   2.082  1.6085 -0.3576  0.2715
  534DG      H412263   3.685   4.728   2.033  0.2287  0.6864 -1.0316
  534DG      H512264   3.786   4.847   1.940  1.9796  1.3765  2.1926
  534DG      H612265   4.174   4.137   2.101  1.3688 -0.6041 -1.5853
  534DG      H712266   4.273   4.264   2.021  0.1262  1.5368  0.5664
  534DG      H812267   4.175   4.298   2.167  1.4428  0.8512  0.1616
  534DG      O912268   3.845   4.657   1.927 -0.4735  0.1684  0.0814
  534DG     O1012269   4.072   4.285   1.993 -0.1589 -0.0013 -0.4225
  534DG     C1112270   3.772   4.607   1.823  0.4294 -0.8411 -0.0568
  534DG     C1212271   4.085   4.254   1.858  0.1974  0.7519  0.6457
  534DG     H1312272   3.747   4.689   1.755 -0.0227 -0.0337  1.0434
  534DG     H1412273   3.675   4.570   1.854  0.2862 -1.5280 -1.2817
  534DG     H1512274   4.082   4.145   1.851 -0.3072  0.7064  1.3861
  534DG     H1612275   4.183   4.283   1.822  0.1793  0.7512  0.5955
  534DG     C1712276   3.841   4.504   1.742 -0.8818  0.8095  0.3907
  534DG     C1812277   3.965   4.301   1.788  0.2222 -0.2663 -0.1852
  534DG     O1912278   3.928   4.431   1.826  0.0820 -0.0859 -0.4298
  534DG     H2012279   3.904   4.552   1.667  0.4642  1.2289  1.7482
  534DG     H2112280   3.763   4.444   1.695 -3.0208  2.5679  1.5708
  534DG     H2212281   3.976   4.295   1.680  3.1046  0.3940  0.0088
  534DG     H2312282   3.874   4.241   1.785 -1.5718  2.2152 -3.5200
  535DG      C112283   1.876   3.536   4.596  0.9613 -0.1473 -0.0727
  535DG      C212284   1.383   3.301   5.054 -0.4541  0.3939  0.5195
  535DG      H312285   1.821   3.541   4.502 -0.4309  1.2915  0.7687
  535DG      H412286   1.892   3.432   4.626 -1.3622 -0.2599  0.9270
  535DG      H512287   1.972   3.587   4.588  0.0515  1.8545  0.9856
  535DG      H612288   1.337   3.322   4.957 -1.0943 -1.9787  0.2648
  535DG      H712289   1.405   3.195   5.063 -0.9374  0.1505 -0.9096
  535DG      H812290   1.310   3.329   5.131  1.3197  2.3479  1.6219
  535DG      O912291   1.803   3.602   4.705 -0.2219  0.3035  0.2698
  535DG     O1012292   1.501   3.375   5.066 -0.1849  0.5382 -0.4115
  535DG     C1112293   1.879   3.615   4.826  0.7152  0.2840  0.0116
  535DG     C1212294   1.483   3.511   5.101 -0.1602 -0.7778  0.0522
  535DG     H1312295   1.956   3.692   4.817  1.3810 -0.6201 -3.0352
  535DG     H1412296   1.923   3.519   4.851  1.9020  0.9923  0.7265
  535DG     H1512297   1.442   3.532   5.199  0.5398 -1.1373  0.4294
  535DG     H1612298   1.419   3.558   5.026 -1.1066  0.3376  1.5102
  535DG     C1712299   1.780   3.651   4.940 -0.3152  0.1365 -0.7204
  535DG     C1812300   1.616   3.584   5.090  0.4675 -0.7833  0.0037
  535DG     O1912301   1.677   3.557   4.960 -0.3711 -0.2725 -0.6224
  535DG     H2012302   1.735   3.747   4.915  1.4490  0.2723 -3.9347
  535DG     H2112303   1.835   3.669   5.032 -0.5424  0.7369 -0.6958
  535DG     H2212304   1.598   3.692   5.092  0.1324 -0.8312 -0.2647
  535DG     H2312305   1.675   3.554   5.176 -0.2921 -0.3830  0.6775
  536DG      C112306   2.045   3.079   3.993  0.1916 -0.1932 -0.5988
  536DG      C212307   2.265   2.490   3.563 -0.3069 -0.2370  0.2229
  536DG      H312308   2.010   3.024   4.080 -1.1309  0.6591 -0.5608
  536DG      H412309   1.960   3.102   3.928 -0.0382 -2.0305 -1.0284
  536DG      H512310   2.098   3.170   4.020 -2.3999  1.0678  0.5584
  536DG      H612311   2.197   2.411   3.595 -0.8663  0.6346  1.2620
  536DG      H712312   2.234   2.507   3.460 -0.9709 -1.0559  0.2712
  536DG      H812313   2.361   2.440   3.566 -0.0014  0.3458  0.2631
  536DG      O912314   2.140   2.993   3.926  0.5897 -0.5289 -0.8102
  536DG     O1012315   2.258   2.604   3.652  0.3236  0.0451  0.0454
  536DG     C1112316   2.243   2.945   4.008 -0.5142 -0.3870 -0.5992
  536DG     C1212317   2.353   2.701   3.608  0.5326 -0.3181 -0.7621
  536DG     H1312318   2.206   2.864   4.072 -0.9863 -0.7759 -1.3583
  536DG     H1412319   2.285   3.010   4.085  0.6250 -2.3289  0.5066
  536DG     H1512320   2.290   2.772   3.554  0.9705 -0.3526 -1.3339
  536DG     H1612321   2.425   2.670   3.532 -0.5276  0.0453 -1.9485
  536DG     C1712322   2.357   2.888   3.927 -0.0588  0.2133  0.8750
  536DG     C1812323   2.410   2.779   3.730  0.1317 -0.2332  0.4657
  536DG     O1912324   2.310   2.805   3.823  0.2443 -0.6545 -0.0474
  536DG     H2012325   2.423   2.843   4.000  1.2714  0.6734 -0.0131
  536DG     H2112326   2.407   2.974   3.882  0.9721 -0.9863 -0.3330
  536DG     H2212327   2.477   2.711   3.781  0.5774 -0.9657 -1.0313
  536DG     H2312328   2.458   2.870   3.694 -1.2503  0.5484  0.5246
  537DG      C112329   5.206   4.270   0.374 -0.7836 -0.2379  0.0519
  537DG      C212330   5.840   3.944   0.608 -0.1690 -0.0504 -0.2345
  537DG      H312331   5.137   4.196   0.412 -2.2880  1.0269 -0.0798
  537DG      H412332   5.157   4.303   0.282  0.3169 -1.7731 -1.1329
  537DG      H512333   5.214   4.355   0.442  0.5454 -0.6755  0.4545
  537DG      H612334   5.895   4.016   0.669  0.4326  0.3173 -1.1904
  537DG      H712335   5.749   3.904   0.653 -1.1556  4.1747  2.0451
  537DG      H812336   5.902   3.855   0.601  0.2220  0.1397  0.7244
  537DG      O912337   5.334   4.216   0.339 -0.2292 -0.3025  0.4147
  537DG     O1012338   5.818   4.003   0.484  0.0811  0.2583  0.5798
  537DG     C1112339   5.442   4.306   0.313 -0.9432 -0.1081 -0.4228
  537DG     C1212340   5.736   3.933   0.384  0.3500 -0.0870  0.4513
  537DG     H1312341   5.477   4.343   0.409  0.1178 -1.5026 -0.2341
  537DG     H1412342   5.408   4.383   0.244  1.6977  1.4080 -0.1632
  537DG     H1512343   5.649   3.887   0.431  0.0130  1.9961  2.0538
  537DG     H1612344   5.802   3.853   0.351  1.1915 -0.1956  2.2903
  537DG     C1712345   5.549   4.231   0.236 -0.6762  0.4401  0.3135
  537DG     C1812346   5.694   4.039   0.271  0.1244 -0.1909 -0.0150
  537DG     O1912347   5.613   4.141   0.326  0.1560  0.0194  0.0773
  537DG     H2012348   5.627   4.294   0.193 -1.3594 -0.5823 -2.6472
  537DG     H2112349   5.503   4.186   0.148 -1.6856  1.0214  0.5275
  537DG     H2212350   5.785   4.093   0.246  1.8496 -1.0612  3.6986
  537DG     H2312351   5.634   3.979   0.202 -1.4015 -0.4505  1.4834
  538DG      C112352   3.782   3.358   2.261  0.6442 -0.4418 -0.0625
  538DG      C212353   3.484   2.643   2.488  0.2369  0.0225  0.2758
  538DG      H312354   3.883   3.369   2.300 -0.2563 -2.6631  3.3034
  538DG      H412355   3.712   3.391   2.338  1.6972  0.3172  0.6059
  538DG      H512356   3.765   3.420   2.172 -1.5819  0.6683  1.0544
  538DG      H612357   3.375   2.633   2.481  0.1767  0.9166 -0.1737
  538DG      H712358   3.525   2.548   2.453  2.1375  0.5774  0.9167
  538DG      H812359   3.511   2.647   2.593  2.0099 -1.1333 -0.0946
  538DG      O912360   3.776   3.224   2.230 -0.1420  0.0452  0.1628
  538DG     O1012361   3.526   2.743   2.392 -0.9815  0.9307 -0.5187
  538DG     C1112362   3.662   3.183   2.163 -0.1778 -0.1009  0.1501
  538DG     C1212363   3.672   2.746   2.382  0.2113 -0.6129 -0.2153
  538DG     H1312364   3.653   3.232   2.066 -0.2299 -2.5343 -1.1546
  538DG     H1412365   3.575   3.210   2.224  0.7117  0.6932  1.1012
  538DG     H1512366   3.719   2.648   2.382  0.2522 -0.6961 -3.2714
  538DG     H1612367   3.715   2.800   2.466 -2.7281  0.4128  0.7657
  538DG     C1712368   3.671   3.028   2.151 -0.3633  0.0483  0.2209
  538DG     C1812369   3.692   2.831   2.260 -0.5264 -0.5507 -0.5540
  538DG     O1912370   3.676   2.971   2.281  0.3469 -0.0926 -0.5071
  538DG     H2012371   3.759   3.001   2.093 -0.5777 -0.8704  0.3066
  538DG     H2112372   3.582   2.987   2.102  0.8700 -2.6370  0.0333
  538DG     H2212373   3.797   2.810   2.237  0.0469 -1.1659  2.2492
  538DG     H2312374   3.619   2.798   2.186 -2.1547  2.1735 -0.3077
  539DG      C112375   0.574   3.030   2.021  0.8020  0.2804  0.2042
  539DG      C212376   0.031   2.956   1.578  0.4615  0.1898  0.6270
  539DG      H312377   0.675   3.004   1.987  0.4082 -0.6526 -0.2780
  539DG      H412378   0.518   2.949   2.066  0.6904  1.9468  3.2820
  539DG      H512379   0.576   3.116   2.088 -0.6488  0.4523  0.0558
  539DG      H612380  -0.043   3.008   1.518  1.3692 -0.4883 -1.1460
  539DG      H712381   0.066   2.873   1.517 -0.5783 -0.9282  1.5252
  539DG      H812382  -0.021   2.916   1.665 -0.0480 -0.0453  0.2165
  539DG      O912383   0.502   3.070   1.906 -0.2206 -0.2839 -0.2221
  539DG     O1012384   0.124   3.048   1.622  0.1142 -0.1096 -0.1014
  539DG     C1112385   0.556   3.196   1.852  0.5182 -0.2279  1.0221
  539DG     C1212386   0.213   3.097   1.530 -0.0153  0.0902  0.5821
  539DG     H1312387   0.635   3.170   1.782 -0.0262  0.1535  0.2392
  539DG     H1412388   0.583   3.276   1.920 -2.5281  0.1119  1.9887
  539DG     H1512389   0.168   3.132   1.438  1.4754 -0.9402 -0.5884
  539DG     H1612390   0.284   3.017   1.508  0.9313  0.1823  2.9439
  539DG     C1712391   0.456   3.265   1.753 -0.3927 -0.4868 -0.6221
  539DG     C1812392   0.310   3.210   1.569  0.4025  0.6891 -0.1047
  539DG     O1912393   0.386   3.164   1.683 -0.4430  0.2991  0.2341
  539DG     H2012394   0.516   3.326   1.685 -1.8711  1.5075 -0.2319
  539DG     H2112395   0.380   3.327   1.802 -2.4006 -3.0121 -0.3265
  539DG     H2212396   0.373   3.229   1.482  2.2302 -0.5846  0.8672
  539DG     H2312397   0.243   3.294   1.589 -1.4870 -0.9526  0.7409
  540DG      C112398   4.079   3.090   4.491  0.3668  0.4882  0.1708
  540DG      C212399   4.237   2.519   4.133  0.1013 -0.1703 -0.5354
  540DG      H312400   4.169   3.122   4.439  0.8826 -0.7380  0.2783
  540DG      H412401   4.119   3.033   4.575  0.0080  1.5591  1.0833
  540DG      H512402   4.016   3.174   4.521 -0.2278  0.7333 -1.6213
  540DG      H612403   4.272   2.480   4.228 -0.4268  0.5393 -0.0407
  540DG      H712404   4.208   2.442   4.061  1.8929  0.5993 -2.1602
  540DG      H812405   4.318   2.573   4.084  0.8677 -0.9929 -0.2072
  540DG      O912406   4.017   3.004   4.396  0.5612 -0.1652 -0.0980
  540DG     O1012407   4.131   2.608   4.165 -0.0065  0.3112  0.2138
  540DG     C1112408   3.900   2.936   4.442  0.0528  0.1844 -0.0250
  540DG     C1212409   4.020   2.540   4.229 -0.0730 -0.4348 -0.0214
  540DG     H1312410   3.823   3.011   4.460 -0.9056 -0.0697 -2.6409
  540DG     H1412411   3.925   2.883   4.534  0.2194 -0.8245 -0.6434
  540DG     H1512412   4.042   2.490   4.323 -1.7810 -1.1134  0.0485
  540DG     H1612413   3.990   2.464   4.157 -1.3491 -0.1149  0.1504
  540DG     C1712414   3.840   2.832   4.340 -0.8111  0.0012 -0.3183
  540DG     C1812415   3.897   2.628   4.251  0.4137  0.1907 -0.4199
  540DG     O1912416   3.942   2.729   4.330  0.0162  0.0025  0.7088
  540DG     H2012417   3.818   2.886   4.248  2.2647 -0.0565 -1.2062
  540DG     H2112418   3.743   2.791   4.365 -0.9396  1.1693  1.2885
  540DG     H2212419   3.856   2.652   4.153 -0.8777 -0.2868 -0.0166
  540DG     H2312420   3.828   2.572   4.314  0.1243 -0.6278 -1.4414
  541DG      C112421   4.040   3.347   4.046 -0.6304 -0.3277  0.4368
  541DG      C212422   3.349   3.536   4.064  0.1246  0.7523  0.0744
  541DG      H312423   4.021   3.261   3.982  0.1095  1.9139 -3.0793
  541DG      H412424   4.023   3.325   4.151 -3.1149  2.8028  0.8761
  541DG      H512425   4.141   3.381   4.023 -0.1995 -1.8732 -0.0498
  541DG      H612426   3.258   3.588   4.032 -0.9906  0.4460  2.5465
  541DG      H712427   3.338   3.431   4.036  2.5628  0.0429  1.5256
  541DG      H812428   3.348   3.517   4.171 -0.5665 -1.4488 -0.2664
  541DG      O912429   3.935   3.440   4.014  0.2115 -0.4297  0.2470
  541DG     O1012430   3.477   3.580   4.024  0.3152  0.2736  0.3918
  541DG     C1112431   3.959   3.507   3.892 -0.0446 -0.5870  0.7663
  541DG     C1212432   3.485   3.590   3.884 -0.1291 -0.0512 -0.1237
  541DG     H1312433   3.972   3.432   3.815 -2.7666 -1.3413  0.9415
  541DG     H1412434   4.050   3.567   3.902 -0.9431  0.9839 -0.0930
  541DG     H1512435   3.410   3.657   3.843  0.6385 -0.4362 -2.2820
  541DG     H1612436   3.476   3.489   3.842  1.7064  0.1538 -1.1210
  541DG     C1712437   3.854   3.607   3.858  0.1927  0.2241 -0.6480
  541DG     C1812438   3.620   3.644   3.837  0.9859 -0.0805  0.3071
  541DG     O1912439   3.719   3.557   3.880 -0.0068 -0.2706 -0.0447
  541DG     H2012440   3.859   3.621   3.750  0.5818 -0.6242 -0.7484
  541DG     H2112441   3.882   3.696   3.914  1.3081 -0.0904 -0.6880
  541DG     H2212442   3.606   3.645   3.729  0.5425 -0.1167  0.3603
  541DG     H2312443   3.629   3.747   3.869 -0.7183  0.0496  0.4834
  542DG      C112444   3.101   3.308   3.922 -0.0835 -0.1032 -0.3295
  542DG      C212445   2.709   3.317   4.569  0.2516  0.9947 -0.2401
  542DG      H312446   3.202   3.303   3.882  0.1045 -0.5055  0.1830
  542DG      H412447   3.062   3.402   3.883  0.4032  1.3234  2.3413
  542DG      H512448   3.049   3.217   3.894  0.6792 -1.4198  2.2433
  542DG      H612449   2.652   3.409   4.559  1.2154  1.5466 -0.8404
  542DG      H712450   2.651   3.238   4.521 -0.1347  0.1453  1.5296
  542DG      H812451   2.711   3.299   4.676 -1.0592 -0.3881 -0.4208
  542DG      O912452   3.078   3.317   4.065 -0.8252 -0.4418  0.2921
  542DG     O1012453   2.836   3.330   4.514 -0.4985  0.0384  0.0226
  542DG     C1112454   3.153   3.215   4.134  0.1895 -0.5421  0.5490
  542DG     C1212455   2.916   3.222   4.551  0.0604  0.5300 -0.5763
  542DG     H1312456   3.250   3.198   4.087  0.7036 -2.7575  2.2747
  542DG     H1412457   3.100   3.120   4.132 -0.9545  0.0524  1.5272
  542DG     H1512458   2.871   3.126   4.526 -0.1573  0.6543 -0.6637
  542DG     H1612459   2.930   3.221   4.660 -0.1270  1.4321 -0.5394
  542DG     C1712460   3.166   3.243   4.281 -0.2341  0.3941 -0.3081
  542DG     C1812461   3.055   3.242   4.489 -0.0052 -0.2174 -0.4053
  542DG     O1912462   3.047   3.224   4.352  0.0235 -0.1911 -0.1555
  542DG     H2012463   3.212   3.340   4.302  0.0641 -0.1328  1.6398
  542DG     H2112464   3.237   3.177   4.330  0.2029  2.4474  2.0616
  542DG     H2212465   3.086   3.346   4.505 -0.5322  0.5168 -3.4819
  542DG     H2312466   3.140   3.184   4.524  0.7360 -0.2314 -2.0949
  543DG      C112467   0.209   3.258   3.646  0.2939 -0.2164  0.0979
  543DG      C212468   0.099   3.986   3.175 -0.4761 -0.0123  0.0987
  543DG      H312469   0.150   3.219   3.729  0.7967  2.1548  1.6687
  543DG      H412470   0.313   3.252   3.678 -0.0757  1.0881  1.6206
  543DG      H512471   0.200   3.181   3.568  0.6529  0.6345 -0.8031
  543DG      H612472   0.042   4.079   3.163  2.6680  2.0310 -0.2557
  543DG      H712473   0.203   4.015   3.161 -0.8139  0.8719 -0.7356
  543DG      H812474   0.075   3.903   3.109  2.8223 -1.4932  0.5612
  543DG      O912475   0.166   3.382   3.604  0.3544 -0.5115  0.7047
  543DG     O1012476   0.098   3.949   3.314  0.7066 -0.4214 -0.0895
  543DG     C1112477   0.206   3.486   3.692 -0.0334 -0.0801  0.6594
  543DG     C1212478   0.161   3.825   3.350 -0.0920 -0.1846  0.1334
  543DG     H1312479   0.313   3.502   3.682 -0.5751  3.0107 -1.7721
  543DG     H1412480   0.168   3.460   3.791 -2.1134  0.4265  0.0365
  543DG     H1512481   0.268   3.842   3.347 -0.4799  2.7043  0.2193
  543DG     H1612482   0.138   3.737   3.290 -1.6233 -0.7202  1.4347
  543DG     C1712483   0.136   3.629   3.665 -0.7356  0.5728 -0.2164
  543DG     C1812484   0.106   3.790   3.485 -0.1107  0.5590  0.1506
  543DG     O1912485   0.176   3.672   3.537  0.2354  0.1264 -0.0625
  543DG     H2012486   0.173   3.691   3.747 -1.0268 -1.1819  1.2976
  543DG     H2112487   0.028   3.638   3.675 -0.7287  0.7036 -0.2523
  543DG     H2212488   0.127   3.875   3.550 -0.1588  1.3751 -0.8714
  543DG     H2312489  -0.001   3.773   3.476 -0.4167  3.1951 -4.7991
  544DG      C112490   3.500   1.782   3.267 -0.7172 -0.0486 -0.0606
  544DG      C212491   3.763   1.142   3.118  0.0150  0.3599 -0.0462
  544DG      H312492   3.487   1.786   3.158  0.7100  0.5089 -0.2291
  544DG      H412493   3.530   1.883   3.294 -3.1262  0.9113 -0.7111
  544DG      H512494   3.417   1.758   3.334  0.6910 -2.7324  0.8797
  544DG      H612495   3.859   1.115   3.074 -0.7949 -0.7012 -1.2234
  544DG      H712496   3.728   1.066   3.187  0.5436  0.2646  0.1250
  544DG      H812497   3.699   1.140   3.030  0.5379 -1.3325 -0.4333
  544DG      O912498   3.607   1.692   3.296  0.3675 -1.0130  0.0003
  544DG     O1012499   3.765   1.263   3.188 -0.7186 -0.1528  0.5206
  544DG     C1112500   3.649   1.685   3.434 -0.9503  0.3590 -0.4315
  544DG     C1212501   3.835   1.252   3.313 -0.7117 -0.4025 -0.0016
  544DG     H1312502   3.564   1.663   3.499 -0.2354 -0.3238  0.2955
  544DG     H1412503   3.675   1.783   3.475  2.7622 -0.2600 -0.9639
  544DG     H1512504   3.930   1.204   3.291 -0.4058 -0.1209  0.6694
  544DG     H1612505   3.774   1.192   3.381  0.9718 -0.6999  1.3178
  544DG     C1712506   3.773   1.593   3.446  0.2517 -0.0255 -0.2314
  544DG     C1812507   3.859   1.386   3.386  0.5672 -0.2164  0.2092
  544DG     O1912508   3.744   1.468   3.389 -0.5426  0.0827 -0.1828
  544DG     H2012509   3.796   1.565   3.549  0.3318 -0.8175 -0.4612
  544DG     H2112510   3.862   1.638   3.401  1.4783 -1.8367  0.2507
  544DG     H2212511   3.887   1.364   3.489  0.2832  0.6093  0.4699
  544DG     H2312512   3.941   1.432   3.331 -1.1985 -0.2573 -2.6586
  545DG      C112513   4.445   0.954   0.290 -0.5036 -0.0446  0.2469
  545DG      C212514   4.980   0.541   0.017 -0.6444  0.0243 -0.8573
  545DG      H312515   4.416   1.058   0.280  0.6302  0.1723 -1.0617
  545DG      H412516   4.370   0.898   0.346 -0.6851 -0.0861 -0.0372
  545DG      H512517   4.449   0.918   0.187 -1.7043 -1.0417  0.5216
  545DG      H612518   4.908   0.461   0.034  1.2111 -1.7078 -0.6723
  545DG      H712519   4.988   0.546  -0.092  0.5382 -1.7799 -0.8999
  545DG      H812520   5.073   0.492   0.047  0.3762  1.3905 -1.6581
  545DG      O912521   4.579   0.936   0.340  0.0680  0.5598  0.1088
  545DG     O1012522   4.955   0.654   0.086  0.0883  0.1991  0.2245
  545DG     C1112523   4.675   1.007   0.264 -0.9136  0.3344 -0.0108
  545DG     C1212524   4.976   0.635   0.231  0.1036 -0.6198  0.6207
  545DG     H1312525   4.667   1.114   0.287 -1.2192 -0.4320  4.3258
  545DG     H1412526   4.667   0.997   0.156  0.1895 -2.5137  0.1000
  545DG     H1512527   5.078   0.603   0.251  0.8900  1.7832  0.7578
  545DG     H1612528   4.901   0.561   0.260  0.3068 -0.3589  1.8341
  545DG     C1712529   4.811   0.954   0.313  0.1454  0.1528 -0.1328
  545DG     C1812530   4.952   0.765   0.301 -0.0353  0.4892 -0.1601
  545DG     O1912531   4.828   0.827   0.262 -0.1542  0.3766 -0.7356
  545DG     H2012532   4.824   0.957   0.421 -0.5200 -0.5896 -0.0200
  545DG     H2112533   4.888   1.007   0.258 -1.0512  1.9982 -0.1235
  545DG     H2212534   4.954   0.738   0.407 -0.9922 -0.3900 -0.3413
  545DG     H2312535   5.044   0.821   0.285  1.2709 -0.4857  3.1561
  546DG      C112536   3.081   4.743   1.532  0.4652  0.3277  0.1351
  546DG      C212537   2.811   4.551   0.960  0.0658 -0.0952  0.7670
  546DG      H312538   3.075   4.636   1.554  0.6796  0.4124  0.6221
  546DG      H412539   2.980   4.782   1.546  0.8968  1.0079  1.4792
  546DG      H512540   3.138   4.790   1.612  0.2950  0.2949  0.2776
  546DG      H612541   2.788   4.445   0.973  0.0472 -0.3582 -1.0537
  546DG      H712542   2.719   4.600   0.992  0.2383  0.5327  0.3232
  546DG      H812543   2.808   4.562   0.851  1.7954  1.0676  0.7952
  546DG      O912544   3.121   4.763   1.400 -0.0525  0.1382  0.3438
  546DG     O1012545   2.925   4.599   1.020  0.4017  0.3301  0.2699
  546DG     C1112546   3.247   4.698   1.369 -0.5033 -0.5059  0.3410
  546DG     C1212547   3.035   4.516   0.977  0.5729  0.3578 -0.5235
  546DG     H1312548   3.263   4.598   1.410  2.7392  0.3785  1.5662
  546DG     H1412549   3.329   4.755   1.412 -0.4472 -0.6394  0.4118
  546DG     H1512550   3.040   4.514   0.868 -0.1579  0.1135 -0.5566
  546DG     H1612551   3.036   4.413   1.012  0.3989  0.7336  0.6556
  546DG     C1712552   3.269   4.679   1.220 -0.1882  0.0964 -0.2390
  546DG     C1812553   3.160   4.585   1.025  0.2387  0.8739 -0.1576
  546DG     O1912554   3.158   4.615   1.165  0.5515  0.2160 -0.2273
  546DG     H2012555   3.365   4.633   1.194  1.1108  2.5870 -0.0802
  546DG     H2112556   3.284   4.782   1.188  0.0999  0.5767  1.3114
  546DG     H2212557   3.246   4.524   0.999 -0.2326 -0.7385  1.7941
  546DG     H2312558   3.170   4.679   0.971 -0.9854  1.0006 -0.1915
  547DG      C112559   2.534   2.696   2.986  0.3220 -0.6419  1.1911
  547DG      C212560   2.664   2.784   2.229 -0.5074 -0.2097  0.3233
  547DG      H312561   2.482   2.606   2.956 -0.3431  0.5510 -1.5543
  547DG      H412562   2.461   2.756   3.040  0.8748  1.8062 -0.5803
  547DG      H512563   2.618   2.668   3.050  0.5193 -2.1735  0.3059
  547DG      H612564   2.726   2.702   2.192  1.8640  1.7128 -0.2342
  547DG      H712565   2.559   2.764   2.210 -0.7784  0.1919  1.3136
  547DG      H812566   2.692   2.868   2.166 -0.3629 -1.1838 -0.9633
  547DG      O912567   2.599   2.770   2.883  0.6621 -0.1764  0.2356
  547DG     O1012568   2.703   2.800   2.363 -0.2850  0.1795  0.2853
  547DG     C1112569   2.498   2.792   2.786 -0.6497 -0.0742  0.7846
  547DG     C1212570   2.696   2.929   2.420 -0.0931 -0.3100  0.3605
  547DG     H1312571   2.415   2.842   2.837 -1.3118  1.2695 -1.4184
  547DG     H1412572   2.460   2.704   2.734 -1.2762  0.4804  0.2760
  547DG     H1512573   2.592   2.961   2.413 -0.0359 -0.3817 -1.0502
  547DG     H1612574   2.763   2.995   2.365 -2.5576  0.9229 -1.3449
  547DG     C1712575   2.556   2.894   2.688  0.4626  0.9315  0.3561
  547DG     C1812576   2.751   2.926   2.560 -0.2194  0.2838  0.2850
  547DG     O1912577   2.679   2.849   2.653 -0.5855  0.5538  0.1691
  547DG     H2012578   2.570   2.990   2.739  1.9171  2.0120 -1.9361
  547DG     H2112579   2.490   2.911   2.603 -0.3854  0.0056  0.8064
  547DG     H2212580   2.850   2.882   2.558  0.3378  1.5093 -1.3159
  547DG     H2312581   2.768   3.026   2.601 -1.7606  0.2658  1.0327
  548DG      C112582   2.356   0.635   4.320 -0.1618  0.1966  0.3342
  548DG      C212583   2.350   0.300   3.671 -0.0175  0.3291  0.1268
  548DG      H312584   2.328   0.726   4.372 -4.0233 -2.2417  2.9746
  548DG      H412585   2.465   0.628   4.326 -0.0429  1.8198  0.5695
  548DG      H512586   2.304   0.554   4.371 -3.1555  0.9984 -1.1978
  548DG      H612587   2.288   0.213   3.695 -3.3501  1.7328 -2.5487
  548DG      H712588   2.337   0.334   3.568  1.3601  1.5031  0.3098
  548DG      H812589   2.455   0.279   3.687 -0.1752 -0.9450 -0.3692
  548DG      O912590   2.306   0.622   4.189 -0.5734  0.0569  0.1004
  548DG     O1012591   2.301   0.410   3.744  0.1592 -0.4311 -0.0430
  548DG     C1112592   2.176   0.674   4.183  0.0273 -0.7057  0.2192
  548DG     C1212593   2.161   0.448   3.736 -0.4153  1.0342  0.4632
  548DG     H1312594   2.166   0.773   4.227 -2.8476 -0.9461  0.3035
  548DG     H1412595   2.111   0.598   4.227  0.5461 -1.1608  0.2136
  548DG     H1512596   2.094   0.377   3.785  1.1382  0.3639  1.7038
  548DG     H1612597   2.136   0.465   3.631  2.4377  2.4237 -0.0818
  548DG     C1712598   2.145   0.682   4.027  0.3677 -0.1859  0.3588
  548DG     C1812599   2.133   0.576   3.820 -0.2599 -0.8220 -0.1289
  548DG     O1912600   2.171   0.565   3.959 -0.4301  0.1620  0.2245
  548DG     H2012601   2.216   0.752   3.983  1.0475 -0.0024  1.6847
  548DG     H2112602   2.045   0.719   4.004 -0.2670 -0.9650  1.7343
  548DG     H2212603   2.199   0.654   3.782 -1.6294  2.1570  3.0428
  548DG     H2312604   2.033   0.610   3.792  0.5525  1.6133 -0.2986
  549DG      C112605   2.774   5.392   4.901  0.2524 -0.1497  0.5375
  549DG      C212606   3.010   4.871   5.217 -0.0089  0.7478  0.0683
  549DG      H312607   2.742   5.333   4.815 -1.7674  2.1190 -0.3826
  549DG      H412608   2.791   5.498   4.881 -1.6106  0.1317  0.2649
  549DG      H512609   2.698   5.384   4.979 -0.9066  2.5258 -0.1898
  549DG      H612610   2.960   4.936   5.288  0.4260  0.4668  0.6421
  549DG      H712611   2.939   4.796   5.180 -0.2365 -0.0531  1.9946
  549DG      H812612   3.086   4.818   5.274 -1.8054 -1.6832  0.3566
  549DG      O912613   2.896   5.349   4.958  0.4335  0.3898 -0.6619
  549DG     O1012614   3.075   4.950   5.117  0.3645  0.8844  0.1867
  549DG     C1112615   3.006   5.355   4.874  0.2181  0.3535 -0.1554
  549DG     C1212616   3.182   5.023   5.167 -0.5601 -0.7106  0.1914
  549DG     H1312617   3.016   5.453   4.826 -1.0975 -0.1063 -1.4569
  549DG     H1412618   2.993   5.278   4.798 -0.5114  0.0016  0.3251
  549DG     H1512619   3.263   4.952   5.183  1.1803  1.0026 -0.6759
  549DG     H1612620   3.158   5.067   5.264 -1.9246  0.4656 -0.6497
  549DG     C1712621   3.132   5.308   4.947 -0.1928 -0.2283 -0.1268
  549DG     C1812622   3.227   5.130   5.061  0.6017 -0.0089 -0.6448
  549DG     O1912623   3.106   5.185   5.012  0.0661 -0.3672  0.7030
  549DG     H2012624   3.175   5.380   5.016 -1.4138 -0.3546  0.7845
  549DG     H2112625   3.212   5.302   4.872  0.0406  2.4542 -0.1853
  549DG     H2212626   3.303   5.196   5.101  0.9398 -1.7234  1.7640
  549DG     H2312627   3.262   5.065   4.980  0.6346 -2.2100  1.0397
  550DG      C112628   2.967   3.332   2.782  0.7567  0.6007  0.0496
  550DG      C212629   2.553   3.705   2.441 -0.8639  0.9163  0.3611
  550DG      H312630   2.987   3.243   2.842 -1.8160  0.6767  1.1638
  550DG      H412631   3.036   3.416   2.791  0.2748  1.3574 -2.5946
  550DG      H512632   2.964   3.313   2.675 -0.1050 -0.3838  0.2347
  550DG      H612633   2.649   3.731   2.398  1.7582 -3.6153  2.7491
  550DG      H712634   2.489   3.668   2.361 -1.7037  0.8424  1.0439
  550DG      H812635   2.505   3.787   2.496  0.5097  0.8822  1.6783
  550DG      O912636   2.829   3.363   2.809  0.2600  0.0609  0.3643
  550DG     O1012637   2.578   3.589   2.517 -0.6960  0.4535  0.1262
  550DG     C1112638   2.736   3.259   2.793  0.3798  0.0732  0.1848
  550DG     C1212639   2.457   3.537   2.579 -0.7522  0.4224 -0.1504
  550DG     H1312640   2.761   3.174   2.857  0.5209 -0.2765 -0.3347
  550DG     H1412641   2.719   3.232   2.689  0.6519  0.5542  0.0122
  550DG     H1512642   2.379   3.519   2.504  1.0958 -2.9991 -1.4808
  550DG     H1612643   2.414   3.607   2.651 -2.9877 -0.2340 -0.7589
  550DG     C1712644   2.600   3.315   2.836  0.4050  0.2020 -0.7928
  550DG     C1812645   2.473   3.405   2.665  0.3290 -0.4652 -0.0999
  550DG     O1912646   2.566   3.428   2.770  0.7324 -0.2551 -0.7471
  550DG     H2012647   2.598   3.334   2.944 -1.3294  1.7246 -1.0492
  550DG     H2112648   2.536   3.229   2.818  0.3945 -0.1164  0.6350
  550DG     H2212649   2.375   3.382   2.706 -0.6571  0.6620 -1.7048
  550DG     H2312650   2.506   3.320   2.606  0.0963  0.7982 -2.1441
  551DG      C112651   3.038   3.748   2.048 -0.7324 -0.0989 -0.2347
  551DG      C212652   2.337   3.589   2.105 -0.2323  0.8788 -0.4063
  551DG      H312653   3.035   3.806   2.140 -2.8075 -1.4975  0.6615
  551DG      H412654   2.982   3.796   1.968  1.0934 -1.0349 -2.1752
  551DG      H512655   3.140   3.738   2.013  0.9752  0.5407  3.9193
  551DG      H612656   2.369   3.650   2.190  0.7734 -1.2683  0.8565
  551DG      H712657   2.292   3.648   2.026 -0.5627 -0.7422 -1.4630
  551DG      H812658   2.260   3.516   2.132  1.1028 -0.8843 -1.1749
  551DG      O912659   2.987   3.626   2.084  0.0996 -0.6715  0.2464
  551DG     O1012660   2.450   3.528   2.044 -0.1551  0.8652 -0.4729
  551DG     C1112661   2.961   3.546   1.970 -1.1156  0.5443  0.8358
  551DG     C1212662   2.521   3.436   2.133  0.5751 -0.0364  0.5123
  551DG     H1312663   3.049   3.493   1.935 -0.6480 -0.2250  3.0370
  551DG     H1412664   2.933   3.605   1.882  0.3738 -1.3547 -1.0032
  551DG     H1512665   2.448   3.359   2.157 -0.9038  0.8405 -0.9526
  551DG     H1612666   2.557   3.486   2.223  0.7918  0.4911  0.1422
  551DG     C1712667   2.854   3.438   1.995 -0.3939  0.2593 -0.9081
  551DG     C1812668   2.640   3.380   2.054  0.3686  0.2115  0.8161
  551DG     O1912669   2.729   3.491   2.032  0.3180  0.1515 -0.4861
  551DG     H2012670   2.902   3.381   2.075 -1.2498 -0.2560 -0.7544
  551DG     H2112671   2.847   3.377   1.905 -0.8664 -1.3469  0.1776
  551DG     H2212672   2.698   3.303   2.104  0.9460 -0.2246 -0.4685
  551DG     H2312673   2.600   3.340   1.961  0.3250  1.0251  0.4772
  552DG      C112674   3.828   2.229   2.668 -0.7170 -0.0343 -0.7992
  552DG      C212675   3.414   1.713   2.394 -0.3888  0.5846  0.3372
  552DG      H312676   3.881   2.277   2.750 -2.8828  1.8582 -0.4080
  552DG      H412677   3.805   2.309   2.598  0.4131  3.3193  2.3668
  552DG      H512678   3.903   2.166   2.620  0.9411  1.3512 -0.1138
  552DG      H612679   3.428   1.765   2.299 -1.3360 -2.7900 -1.8077
  552DG      H712680   3.471   1.620   2.386 -1.8698 -0.1806 -2.4675
  552DG      H812681   3.310   1.681   2.400 -0.4954  1.0636  1.2996
  552DG      O912682   3.716   2.150   2.705  0.5380  0.3382  0.2092
  552DG     O1012683   3.449   1.801   2.496  0.2833  1.0262 -0.3110
  552DG     C1112684   3.740   2.054   2.803  0.0505 -0.2177  0.3216
  552DG     C1212685   3.411   1.754   2.623  0.2974 -0.1258 -0.1391
  552DG     H1312686   3.791   2.088   2.893 -0.7646  0.2220  0.6334
  552DG     H1412687   3.812   1.984   2.761 -1.7411 -2.3357  0.5633
  552DG     H1512688   3.475   1.670   2.651 -0.0443 -1.1442 -2.2239
  552DG     H1612689   3.307   1.722   2.630  0.0777 -0.0468 -2.5241
  552DG     C1712690   3.615   1.975   2.837 -0.3680 -0.0743  0.3885
  552DG     C1812691   3.438   1.864   2.722  0.0808  0.5084  0.4327
  552DG     O1912692   3.577   1.903   2.722 -0.5520  0.2467  0.4500
  552DG     H2012693   3.534   2.036   2.878 -1.2042 -1.9198  1.6235
  552DG     H2112694   3.633   1.892   2.905  4.3170 -1.9214 -2.5702
  552DG     H2212695   3.376   1.950   2.698 -0.4964  0.1037  0.4460
  552DG     H2312696   3.410   1.829   2.822  3.0903 -2.9686  0.2620
  553DG      C112697   0.023   1.198   0.763  0.2217 -0.4225 -0.2456
  553DG      C212698   0.469   0.991   1.334  0.3109 -0.1431 -0.2349
  553DG      H312699  -0.077   1.200   0.805  0.3864  1.2823  0.1582
  553DG      H412700   0.024   1.181   0.655  0.4266  0.1800 -0.3422
  553DG      H512701   0.067   1.298   0.774  1.8335 -1.1743  0.4390
  553DG      H612702   0.538   0.917   1.376  0.0096  0.5670  1.6270
  553DG      H712703   0.514   1.091   1.338 -0.7168  0.4492 -2.3066
  553DG      H812704   0.375   1.013   1.386 -0.7391  1.0785 -2.5164
  553DG      O912705   0.099   1.091   0.816  0.1798  0.1109 -0.7316
  553DG     O1012706   0.445   0.978   1.199 -0.4165  0.3065  0.1105
  553DG     C1112707   0.235   1.077   0.771  0.5316  0.1694 -0.4443
  553DG     C1212708   0.407   0.853   1.162 -0.4123 -0.5265 -0.2300
  553DG     H1312709   0.299   1.151   0.820  0.7098  1.2796 -2.2492
  553DG     H1412710   0.239   1.104   0.665 -0.5533  0.2970 -0.4609
  553DG     H1512711   0.312   0.837   1.213  0.8013  0.4025  2.5099
  553DG     H1612712   0.481   0.779   1.192  0.7688  1.3462  1.7797
  553DG     C1712713   0.291   0.933   0.810 -0.3612  1.0052 -0.6796
  553DG     C1812714   0.391   0.844   1.009 -0.5072  0.2165 -0.2785
  553DG     O1912715   0.321   0.955   0.951 -0.0721 -0.4125 -0.6228
  553DG     H2012716   0.389   0.904   0.772  0.6966  0.6921  2.0143
  553DG     H2112717   0.214   0.858   0.796 -1.3840  1.9587 -0.2746
  553DG     H2212718   0.492   0.856   0.969  0.0202 -0.8304  0.6680
  553DG     H2312719   0.353   0.745   0.984  0.5961 -0.8979  2.1469
  554DG      C112720   1.090   4.518   1.462  0.0533  0.3559  0.1551
  554DG      C212721   1.452   4.724   2.099  0.0169 -0.1224 -0.2853
  554DG      H312722   0.998   4.538   1.406  0.9904  1.1675 -1.1494
  554DG      H412723   1.148   4.442   1.409  2.5045  2.1993  0.0227
  554DG      H512724   1.150   4.608   1.453  0.0988  0.2989 -0.1488
  554DG      H612725   1.473   4.825   2.133  1.9691 -1.0087  1.3783
  554DG      H712726   1.483   4.651   2.174  0.0382 -1.6196 -1.6962
  554DG      H812727   1.528   4.699   2.026 -0.0535  1.7699 -1.0471
  554DG      O912728   1.057   4.483   1.601  0.3796 -0.4038 -0.0980
  554DG     O1012729   1.326   4.705   2.040  0.3438 -0.2039  0.4160
  554DG     C1112730   0.988   4.587   1.669  0.4018 -0.1116  0.4822
  554DG     C1212731   1.324   4.567   1.991  0.2992 -0.1325 -0.8678
  554DG     H1312732   0.887   4.574   1.628  0.4766 -1.0528  0.5769
  554DG     H1412733   1.006   4.693   1.651 -1.3615  0.1333 -0.1052
  554DG     H1512734   1.372   4.502   2.063 -1.7181  0.9869  1.6423
  554DG     H1612735   1.392   4.560   1.906 -0.2274  0.5577 -1.3591
  554DG     C1712736   0.991   4.564   1.819  0.3609  0.1226 -0.6194
  554DG     C1812737   1.182   4.506   1.948 -0.2028 -0.0645 -0.5744
  554DG     O1912738   1.121   4.607   1.867  0.6026  1.1636  0.0902
  554DG     H2012739   0.977   4.458   1.841 -0.5032  0.5683  1.1613
  554DG     H2112740   0.915   4.635   1.854 -1.5465 -2.9164  1.9973
  554DG     H2212741   1.199   4.407   1.907  0.1242 -0.1350 -0.2785
  554DG     H2312742   1.122   4.485   2.037 -2.8569 -0.1760 -2.3150
  555DG      C112743   5.314   1.749   4.337 -0.6775  0.4432  0.3678
  555DG      C212744   5.199   1.477   4.935 -0.5176  0.3688 -0.2604
  555DG      H312745   5.261   1.806   4.260 -1.8013 -1.8022 -0.5917
  555DG      H412746   5.300   1.647   4.303 -0.2130 -0.3240  2.3580
  555DG      H512747   5.420   1.772   4.323 -0.5071 -0.2241  0.5588
  555DG      H612748   5.181   1.458   5.041  1.4229  1.8519  0.4093
  555DG      H712749   5.175   1.386   4.881 -1.8666  0.7535 -0.3441
  555DG      H812750   5.305   1.500   4.925 -0.7197  1.8141  0.5702
  555DG      O912751   5.249   1.760   4.460 -0.1920  0.2349 -0.2084
  555DG     O1012752   5.144   1.576   4.858 -0.2720 -0.1967 -0.2367
  555DG     C1112753   5.250   1.898   4.501 -0.3019  0.0642 -0.2407
  555DG     C1212754   5.149   1.701   4.921 -0.1449  0.5385 -0.1479
  555DG     H1312755   5.217   1.957   4.415 -1.3245  0.1517  0.1900
  555DG     H1412756   5.356   1.903   4.523 -0.5044  0.3338  0.7157
  555DG     H1512757   5.246   1.711   4.970 -1.2589  0.0435  2.3378
  555DG     H1612758   5.085   1.699   5.010 -1.8673  0.0306 -1.3467
  555DG     C1712759   5.158   1.916   4.617  0.4457  0.1811  0.2559
  555DG     C1812760   5.112   1.815   4.824 -0.2487 -0.1105  0.7871
  555DG     O1912761   5.188   1.806   4.704  0.4190  0.5988 -0.3841
  555DG     H2012762   5.053   1.917   4.588  0.2814  1.0120  0.8253
  555DG     H2112763   5.183   2.011   4.664 -1.5269  0.6246  0.5208
  555DG     H2212764   5.006   1.819   4.802  0.2339  0.0327 -1.7289
  555DG     H2312765   5.134   1.909   4.876  0.0259 -0.7213  1.8168
  556DG      C112766   2.884   2.943   2.922  0.6363 -0.3223  0.4997
  556DG      C212767   3.355   2.372   2.902  0.0951 -0.6409  0.2031
  556DG      H312768   2.902   3.002   2.832 -0.0422 -0.3613  0.3310
  556DG      H412769   2.799   2.986   2.974  1.1127  0.2358  0.8349
  556DG      H512770   2.853   2.849   2.876  0.3290  0.3619 -0.7521
  556DG      H612771   3.311   2.311   2.981  1.4547  0.1892  1.6400
  556DG      H712772   3.309   2.340   2.808 -0.7061  2.7298 -0.6594
  556DG      H812773   3.462   2.353   2.896  0.1807  0.1904 -1.8485
  556DG      O912774   3.000   2.937   2.990  0.1166  0.1823  0.3884
  556DG     O1012775   3.329   2.516   2.925 -0.5731  0.2148  0.1507
  556DG     C1112776   2.980   2.846   3.100  0.7875  0.5819 -0.5003
  556DG     C1212777   3.372   2.553   3.062  0.0720 -0.3775  0.4389
  556DG     H1312778   2.919   2.757   3.094  1.0377  0.3483  0.2504
  556DG     H1412779   2.920   2.899   3.174 -2.1388  0.0244 -2.3341
  556DG     H1512780   3.480   2.563   3.070  0.1543  0.0544 -0.8751
  556DG     H1612781   3.318   2.487   3.129 -0.9555 -2.2307 -2.0527
  556DG     C1712782   3.110   2.807   3.150  0.3981  0.1292  0.3313
  556DG     C1812783   3.315   2.691   3.085  0.3796 -0.4028  0.1245
  556DG     O1912784   3.167   2.702   3.068 -0.6562  0.0544 -0.2852
  556DG     H2012785   3.099   2.762   3.249 -0.3580 -0.8478 -0.1873
  556DG     H2112786   3.171   2.896   3.170  1.4746 -0.8581  1.6246
  556DG     H2212787   3.356   2.735   3.177  2.2052  2.8106 -2.0257
  556DG     H2312788   3.356   2.751   3.004  0.0452 -1.3680 -0.7706
  557DG      C112789   2.544   0.097   4.696 -0.5315  0.1285  0.2062
  557DG      C212790   1.954   0.385   4.840 -0.5969  0.1541  0.5592
  557DG      H312791   2.626   0.167   4.711  0.7310 -1.4937  1.2795
  557DG      H412792   2.582   0.024   4.625 -0.5797  1.1478 -0.8943
  557DG      H512793   2.525   0.058   4.796  0.4822  0.5078  0.5552
  557DG      H612794   1.979   0.301   4.905 -0.4010 -0.6409 -0.5276
  557DG      H712795   1.977   0.487   4.870 -3.0540  0.8783  0.2007
  557DG      H812796   1.852   0.379   4.802 -0.6459 -0.2270  0.7433
  557DG      O912797   2.425   0.159   4.640  0.1139  0.6556 -0.4495
  557DG     O1012798   2.040   0.347   4.728 -0.4433  0.7759 -0.6546
  557DG     C1112799   2.448   0.218   4.516  0.2968  0.2527 -0.1290
  557DG     C1212800   2.033   0.439   4.617  0.0934  0.1537 -0.4479
  557DG     H1312801   2.516   0.153   4.462 -0.0329 -0.2855  0.0935
  557DG     H1412802   2.505   0.307   4.543 -0.3555  0.1550  1.7204
  557DG     H1512803   2.081   0.534   4.643 -3.0440  1.3071  1.6825
  557DG     H1612804   1.935   0.475   4.586  0.4232  1.7253  0.2245
  557DG     C1712805   2.306   0.254   4.451  0.3007  0.1915  0.5557
  557DG     C1812806   2.104   0.373   4.491  0.0720  0.4198 -0.2848
  557DG     O1912807   2.232   0.341   4.544  0.3585  0.7246 -0.0724
  557DG     H2012808   2.259   0.157   4.434  0.8931 -0.0845  0.4656
  557DG     H2112809   2.321   0.305   4.356  0.0895  3.7127  2.2238
  557DG     H2212810   2.050   0.286   4.456 -0.6817  0.9217 -0.3932
  557DG     H2312811   2.119   0.434   4.402  1.8289  0.2824 -0.1274
  558DG      C112812   0.311   1.767   1.868 -0.5026  0.1910  0.3171
  558DG      C212813  -0.086   1.278   1.648 -0.6893  0.4252  0.4083
  558DG      H312814   0.241   1.831   1.815  0.8892  1.5371  0.0410
  558DG      H412815   0.412   1.792   1.838 -0.0954 -0.6323  0.9477
  558DG      H512816   0.310   1.811   1.968  1.3686 -1.7096  1.2540
  558DG      H612817  -0.060   1.178   1.613  1.7070  1.3935 -0.7940
  558DG      H712818  -0.184   1.284   1.695 -0.9089  0.5395 -0.0623
  558DG      H812819  -0.085   1.331   1.553  1.3962 -2.4171 -1.3016
  558DG      O912820   0.288   1.628   1.860  0.0309  0.4487  0.3146
  558DG     O1012821   0.019   1.317   1.736  0.7838  0.2787  0.0685
  558DG     C1112822   0.358   1.556   1.957 -0.2907 -0.6540 -0.3239
  558DG     C1212823   0.027   1.238   1.852 -0.4234  0.0770 -0.7272
  558DG     H1312824   0.327   1.594   2.054  0.1664 -0.4753 -0.2447
  558DG     H1412825   0.462   1.590   1.955 -0.9765  1.5911 -1.4524
  558DG     H1512826   0.013   1.133   1.827 -0.3752  0.3782 -2.1492
  558DG     H1612827  -0.039   1.260   1.936  1.3416  0.9610  0.5027
  558DG     C1712828   0.341   1.408   1.943  0.1042  0.3070 -0.1241
  558DG     C1812829   0.175   1.248   1.911 -0.7768  0.0704  0.5307
  558DG     O1912830   0.200   1.387   1.945  0.5700  0.2238  0.0562
  558DG     H2012831   0.398   1.363   2.024 -1.5411  0.0073  0.9196
  558DG     H2112832   0.397   1.387   1.851  0.6791  0.1322  0.2606
  558DG     H2212833   0.191   1.184   1.998  0.1783  0.4343  0.6306
  558DG     H2312834   0.234   1.212   1.827 -2.2460 -1.4444  0.0915
  559DG      C112835   1.675   0.718   2.529 -0.5157 -0.5949 -0.1240
  559DG      C212836   0.855   0.872   2.380  0.3582 -0.0033  0.4138
  559DG      H312837   1.637   0.704   2.630 -0.1961  2.9201  0.6231
  559DG      H412838   1.773   0.761   2.550 -0.2755 -0.9088 -0.5927
  559DG      H512839   1.690   0.622   2.481  2.0911 -0.6752  0.6498
  559DG      H612840   0.816   0.967   2.343 -0.5117 -0.5351 -0.0749
  559DG      H712841   0.814   0.794   2.315 -0.2424  1.3334 -0.8791
  559DG      H812842   0.800   0.879   2.473 -0.7849 -1.3981 -0.1095
  559DG      O912843   1.604   0.815   2.459  0.9053  0.2679  0.0145
  559DG     O1012844   0.998   0.874   2.375 -0.0657  0.0691  0.0765
  559DG     C1112845   1.465   0.778   2.450  0.7639  0.5409  0.5210
  559DG     C1212846   1.049   0.877   2.240  0.4713  0.2306 -1.0992
  559DG     H1312847   1.400   0.816   2.528  0.2584  2.5593 -0.8025
  559DG     H1412848   1.451   0.671   2.434 -0.4248  0.5946  1.1507
  559DG     H1512849   0.994   0.949   2.179 -2.8930 -1.6505 -0.5582
  559DG     H1612850   1.048   0.776   2.199 -0.5394  0.2965 -1.2705
  559DG     C1712851   1.414   0.845   2.321  0.0156  0.8015  0.3985
  559DG     C1812852   1.198   0.911   2.257 -0.1519 -0.2219 -0.0233
  559DG     O1912853   1.275   0.806   2.314 -0.1747  0.1529 -0.4835
  559DG     H2012854   1.461   0.809   2.229 -1.0764  3.4429 -1.3234
  559DG     H2112855   1.435   0.951   2.337 -1.0181  1.0153  0.4180
  559DG     H2212856   1.217   0.950   2.158  0.6400 -1.2837 -0.3156
  559DG     H2312857   1.219   1.000   2.315  1.0561 -0.2062 -0.4591
  560DG      C112858   0.270   2.750   0.511  0.1335  0.4167 -0.0068
  560DG      C212859  -0.256   3.116   0.475 -1.0406 -0.0023 -0.7455
  560DG      H312860   0.191   2.676   0.503  0.9381 -0.5661  0.8548
  560DG      H412861   0.352   2.697   0.560 -0.4095 -1.3074 -0.8893
  560DG      H512862   0.299   2.768   0.407 -0.3299 -0.6212 -0.3265
  560DG      H612863  -0.250   3.130   0.367  0.6191 -1.6222 -0.9127
  560DG      H712864  -0.297   3.016   0.489  1.3465 -0.8033  1.3107
  560DG      H812865  -0.319   3.186   0.531 -1.6341 -0.2267 -1.1259
  560DG      O912866   0.227   2.865   0.575  0.1982  0.4347 -0.4280
  560DG     O1012867  -0.117   3.117   0.524 -0.4020  0.0117  0.6350
  560DG     C1112868   0.210   2.852   0.717  0.3207  0.2933 -0.1792
  560DG     C1212869  -0.093   3.205   0.635  0.4122  0.2135  0.5335
  560DG     H1312870   0.302   2.808   0.758 -0.2232  0.6783  1.5146
  560DG     H1412871   0.125   2.791   0.747 -0.7784  1.0315 -1.6885
  560DG     H1512872  -0.172   3.180   0.706 -0.3774 -2.7730 -1.2329
  560DG     H1612873  -0.091   3.309   0.603  1.6860 -0.4024 -1.5465
  560DG     C1712874   0.172   2.991   0.767  0.1030  0.2306 -0.6108
  560DG     C1812875   0.033   3.169   0.706 -0.7748 -0.4606 -0.1751
  560DG     O1912876   0.071   3.031   0.677 -0.0087 -0.9307 -0.1031
  560DG     H2012877   0.258   3.059   0.767  0.4877 -0.2254  0.5429
  560DG     H2112878   0.139   3.002   0.870  0.6612 -1.1759 -0.2555
  560DG     H2212879   0.116   3.232   0.675  0.4111 -1.9280 -0.1298
  560DG     H2312880   0.015   3.185   0.812  0.0572 -0.2297 -0.0618
  561DG      C112881   2.102   1.150   2.175  0.2590  0.2176  0.5548
  561DG      C212882   2.125   0.697   1.553  0.6206 -0.2963  0.3917
  561DG      H312883   2.142   1.219   2.249  0.1619  0.9332 -0.0431
  561DG      H412884   2.068   1.061   2.227  1.6524 -0.5517  0.1883
  561DG      H512885   2.021   1.189   2.113  0.7254 -2.1567 -1.7307
  561DG      H612886   2.044   0.763   1.522  0.3126 -0.0394  1.6618
  561DG      H712887   2.196   0.682   1.472  1.9857 -1.0505  1.6631
  561DG      H812888   2.090   0.600   1.587 -0.8369  0.0427 -0.1036
  561DG      O912889   2.192   1.105   2.070 -0.1859  0.0677 -0.0327
  561DG     O1012890   2.171   0.775   1.658  0.0027  0.1211 -0.3586
  561DG     C1112891   2.300   1.017   2.108  0.0767 -0.7362  0.0408
  561DG     C1212892   2.273   0.714   1.730 -0.2642  0.3748  0.6097
  561DG     H1312893   2.259   0.926   2.151 -0.0030 -0.6804  0.0842
  561DG     H1412894   2.365   1.059   2.185 -0.6981  1.2104 -0.3141
  561DG     H1512895   2.348   0.661   1.671  0.6142  0.6572  1.4558
  561DG     H1612896   2.238   0.643   1.805  0.3210 -0.6308 -0.0321
  561DG     C1712897   2.379   0.960   1.988  0.6981 -0.2673  0.1891
  561DG     C1812898   2.361   0.826   1.794 -0.2988  0.2017 -0.0730
  561DG     O1912899   2.290   0.881   1.905 -0.1872 -0.6165 -0.9261
  561DG     H2012900   2.464   0.895   2.009 -1.5545 -3.6165 -0.3725
  561DG     H2112901   2.407   1.043   1.922  2.3199 -0.8110  0.1486
  561DG     H2212902   2.454   0.775   1.818  1.0368  0.8990 -3.2443
  561DG     H2312903   2.396   0.907   1.730 -0.2176  1.3650  1.4055
  562DG      C112904   2.555   3.471   0.215  0.1438 -0.0973  0.1833
  562DG      C212905   2.052   3.128   0.634 -0.0945  0.5145 -0.4513
  562DG      H312906   2.639   3.542   0.213  1.2306 -1.3310  0.5790
  562DG      H412907   2.480   3.494   0.139  0.4907  1.1540  0.1960
  562DG      H512908   2.603   3.376   0.191  0.4487 -0.5655  2.4060
  562DG      H612909   1.944   3.137   0.645 -0.0417  2.1460 -1.0400
  562DG      H712910   2.069   3.067   0.546 -0.6758  0.0669 -0.2641
  562DG      H812911   2.082   3.073   0.723  0.0758  1.1214 -0.1338
  562DG      O912912   2.488   3.461   0.340 -0.1281  0.0530 -0.3105
  562DG     O1012913   2.116   3.248   0.629  0.3123 -0.0204  0.3343
  562DG     C1112914   2.443   3.588   0.390 -0.5385  0.0052 -0.3183
  562DG     C1212915   2.073   3.339   0.526 -0.5706  0.2317  0.6771
  562DG     H1312916   2.392   3.656   0.322 -2.1378 -0.6593  0.1824
  562DG     H1412917   2.527   3.648   0.425 -1.5037  0.4512  1.3739
  562DG     H1512918   1.964   3.337   0.528 -0.5806 -2.1173  2.1071
  562DG     H1612919   2.114   3.295   0.435  3.4254 -0.4629  2.5891
  562DG     C1712920   2.355   3.571   0.508 -0.6253  0.0637 -0.0445
  562DG     C1812921   2.144   3.471   0.540  0.5516  0.1917 -0.1593
  562DG     O1912922   2.273   3.460   0.484  0.5341  0.9187 -0.1969
  562DG     H2012923   2.299   3.661   0.535 -0.7175  0.1827 -0.6133
  562DG     H2112924   2.413   3.555   0.598 -1.1285  2.9268  0.8931
  562DG     H2212925   2.089   3.542   0.477 -0.9492  0.5939  1.5346
  562DG     H2312926   2.133   3.512   0.640  1.9529  0.7957 -0.2355
  563DG      C112927   3.402   1.281   2.606 -0.4652  0.3160 -0.2744
  563DG      C212928   3.096   1.657   1.930  0.1734 -0.0243  0.2629
  563DG      H312929   3.372   1.348   2.687 -0.3000  2.1732 -1.6774
  563DG      H412930   3.489   1.219   2.625 -1.3443 -1.7949 -2.5489
  563DG      H512931   3.319   1.212   2.591 -1.7618  1.7021  0.3459
  563DG      H612932   3.027   1.575   1.947  0.0854 -0.0569 -0.2295
  563DG      H712933   3.073   1.737   2.000  0.2829  0.7528 -0.5689
  563DG      H812934   3.093   1.705   1.833 -1.4729  2.6772  1.5451
  563DG      O912935   3.428   1.350   2.486 -0.5446  0.7769  0.1106
  563DG     O1012936   3.220   1.602   1.952 -0.3241  0.2587  0.2425
  563DG     C1112937   3.468   1.260   2.373 -0.6365 -0.3342  0.4652
  563DG     C1212938   3.255   1.583   2.086  0.7594  0.5004 -0.6637
  563DG     H1312939   3.391   1.185   2.357  0.7762 -1.4244 -1.6602
  563DG     H1412940   3.565   1.219   2.402  0.0035 -0.4755 -1.7254
  563DG     H1512941   3.170   1.535   2.135  0.7974 -0.3408 -1.3834
  563DG     H1612942   3.278   1.679   2.133 -0.1355 -0.1487  1.1930
  563DG     C1712943   3.489   1.353   2.249 -0.1445 -0.6754  0.9755
  563DG     C1812944   3.375   1.491   2.095 -0.5358 -0.3315  0.1490
  563DG     O1912945   3.393   1.452   2.231 -0.3711 -0.3422 -0.0326
  563DG     H2012946   3.485   1.289   2.161 -1.1022  0.0298  0.4858
  563DG     H2112947   3.590   1.394   2.245 -0.1814 -0.6682 -0.0361
  563DG     H2212948   3.370   1.404   2.030  0.2694  1.5292 -2.5805
  563DG     H2312949   3.461   1.549   2.061  0.8423 -0.7624  2.6544
  564DG      C112950   1.268   1.197   0.640  0.3470 -0.7604  0.0789
  564DG      C212951   1.951   1.308   0.994 -0.3846  0.1946 -0.2691
  564DG      H312952   1.195   1.278   0.643  1.9074  0.8824 -2.3758
  564DG      H412953   1.223   1.110   0.689 -0.7247 -0.5689 -0.5413
  564DG      H512954   1.299   1.177   0.538  2.2487  1.0461  0.2236
  564DG      H612955   2.024   1.346   0.923  1.9291  0.1511  1.9092
  564DG      H712956   1.941   1.377   1.078  0.8148 -1.1618  1.0457
  564DG      H812957   1.981   1.211   1.036  0.6591  0.9816  0.8825
  564DG      O912958   1.378   1.250   0.715  0.2914 -0.1650 -0.3495
  564DG     O1012959   1.829   1.306   0.925 -0.4779  0.0969  0.3955
  564DG     C1112960   1.353   1.271   0.857 -1.1771 -0.3342 -0.4673
  564DG     C1212961   1.786   1.431   0.869 -0.0727 -0.2466 -0.2460
  564DG     H1312962   1.410   1.198   0.915 -0.7617 -0.6839 -1.2913
  564DG     H1412963   1.251   1.251   0.889 -0.6265 -1.1746  0.9060
  564DG     H1512964   1.849   1.453   0.783  0.0143 -0.6187 -0.2806
  564DG     H1612965   1.794   1.512   0.942 -2.2211  0.0572 -0.2916
  564DG     C1712966   1.403   1.414   0.893 -0.2007 -0.0372 -0.2992
  564DG     C1812967   1.637   1.423   0.822  0.0796  0.6202  0.4283
  564DG     O1912968   1.540   1.424   0.927  0.6735 -0.3985  0.3465
  564DG     H2012969   1.349   1.438   0.984  1.6026 -2.0531  1.4213
  564DG     H2112970   1.371   1.489   0.821  1.4099  1.7476  0.7475
  564DG     H2212971   1.606   1.510   0.764 -1.3210  1.7005  2.7014
  564DG     H2312972   1.628   1.335   0.758 -0.6623  0.1599  1.1532
  565DG      C112973   4.754   3.862   1.279 -0.4032  0.4235  0.0034
  565DG      C212974   4.185   3.287   1.247  0.1274  0.5817  0.0634
  565DG      H312975   4.793   3.816   1.189 -1.8910  0.2145 -0.5636
  565DG      H412976   4.813   3.839   1.368 -0.3180 -1.8798 -0.5667
  565DG      H512977   4.739   3.968   1.262 -2.1202 -0.1168 -2.2821
  565DG      H612978   4.092   3.259   1.198 -0.8181  0.9693  1.5753
  565DG      H712979   4.268   3.284   1.176 -0.4528 -0.6227 -0.5901
  565DG      H812980   4.209   3.215   1.325 -1.6761 -0.1955 -0.0516
  565DG      O912981   4.621   3.808   1.290 -0.6060 -0.2780 -0.4648
  565DG     O1012982   4.179   3.414   1.308 -0.6846  0.2771  1.2068
  565DG     C1112983   4.538   3.885   1.373 -0.8802  0.1344  0.4055
  565DG     C1212984   4.312   3.461   1.328  0.2703 -0.1280 -0.2265
  565DG     H1312985   4.530   3.990   1.343 -0.4579 -0.1004 -0.5429
  565DG     H1412986   4.566   3.879   1.478 -2.3360  0.5628  0.8520
  565DG     H1512987   4.364   3.450   1.233 -1.1382 -3.1526 -0.7651
  565DG     H1612988   4.366   3.405   1.404 -0.1551 -0.7838 -0.3949
  565DG     C1712989   4.405   3.811   1.381 -0.4678 -0.3090  0.3561
  565DG     C1812990   4.299   3.610   1.363 -0.1933  0.6340 -0.1728
  565DG     O1912991   4.425   3.673   1.400 -0.0677  0.0985 -0.3562
  565DG     H2012992   4.365   3.833   1.282  2.5776  0.2870 -0.8378
  565DG     H2112993   4.344   3.856   1.459 -2.0145  0.2091 -1.0809
  565DG     H2212994   4.242   3.648   1.279 -1.9314 -2.0884 -0.3232
  565DG     H2312995   4.239   3.611   1.454  0.5482  1.1061  0.3244
  566DG      C112996   3.978   2.402   2.297 -0.6562 -0.0743  0.2115
  566DG      C212997   4.353   2.793   2.833  0.3762 -0.2273 -0.4284
  566DG      H312998   4.001   2.334   2.216  0.1479  0.3944  0.0385
  566DG      H412999   4.024   2.497   2.268 -0.5937 -0.3057 -0.4548
  566DG      H513000   3.870   2.412   2.306 -0.8696  1.0395 -2.4989
  566DG      H613001   4.435   2.777   2.904 -0.1330  2.3784  0.8725
  566DG      H713002   4.393   2.874   2.771  2.5107 -0.9014 -0.0108
  566DG      H813003   4.269   2.836   2.887  1.7246  2.2714 -0.1853
  566DG      O913004   4.034   2.357   2.419 -0.1272 -0.2149  0.4373
  566DG     O1013005   4.310   2.679   2.754  0.5963  0.2959 -0.0580
  566DG     C1113006   4.173   2.319   2.414 -0.4978  0.0550  0.8371
  566DG     C1213007   4.264   2.569   2.831  0.0638  0.5294  0.3901
  566DG     H1313008   4.222   2.400   2.360  0.2082 -0.4569  0.6844
  566DG     H1413009   4.206   2.225   2.368 -1.1519 -0.1499  0.7775
  566DG     H1513010   4.161   2.592   2.858 -0.1303  2.1630 -1.4567
  566DG     H1613011   4.314   2.559   2.927 -0.4083  3.3222  1.0051
  566DG     C1713012   4.234   2.322   2.555  0.3533  0.9481  0.1575
  566DG     C1813013   4.265   2.435   2.754  0.5502  0.0356  0.3569
  566DG     O1913014   4.219   2.451   2.617  0.3541  0.2243  0.5487
  566DG     H2013015   4.340   2.299   2.547  0.1138 -0.2370  0.1847
  566DG     H2113016   4.168   2.254   2.610 -0.7657  1.2071 -0.8132
  566DG     H2213017   4.370   2.407   2.758  0.6634 -0.0346 -1.7410
  566DG     H2313018   4.206   2.360   2.806 -0.1022 -0.9267 -1.6631
  567DG      C113019   1.575   2.939   4.760 -0.6321  0.4268  0.4538
  567DG      C213020   1.510   2.271   4.636  0.2939 -0.2736 -0.3288
  567DG      H313021   1.652   3.002   4.804 -1.0817  1.1239  0.2629
  567DG      H413022   1.502   3.000   4.708 -0.1018 -0.3197 -1.2449
  567DG      H513023   1.632   2.877   4.691  0.4969  1.5102  0.3751
  567DG      H613024   1.596   2.317   4.684 -0.6800  0.9137  0.3285
  567DG      H713025   1.482   2.200   4.715 -0.6331  2.9364  2.4856
  567DG      H813026   1.541   2.217   4.547  0.0871 -0.1659 -0.4663
  567DG      O913027   1.517   2.847   4.853 -0.0903  0.2337 -0.0784
  567DG     O1013028   1.399   2.367   4.616 -0.2682  0.6626 -1.0104
  567DG     C1113029   1.389   2.805   4.814 -0.6687 -0.2924 -0.0320
  567DG     C1213030   1.420   2.463   4.515 -0.0437 -0.1352  0.2306
  567DG     H1313031   1.323   2.892   4.811  0.2676  0.4064 -1.6061
  567DG     H1413032   1.362   2.732   4.889 -0.9639  0.4956  0.6425
  567DG     H1513033   1.324   2.506   4.487  1.3427  3.8368  0.8961
  567DG     H1613034   1.441   2.408   4.424  1.8482 -0.2450  0.6966
  567DG     C1713035   1.404   2.734   4.671  0.3521  0.0944 -0.0020
  567DG     C1813036   1.523   2.571   4.547 -0.7717  0.1848 -0.1281
  567DG     O1913037   1.492   2.625   4.677 -0.2494  0.0127  0.4372
  567DG     H2013038   1.449   2.806   4.602 -1.3023 -1.5566 -3.0195
  567DG     H2113039   1.303   2.701   4.646  0.7365 -2.7214  1.8158
  567DG     H2213040   1.622   2.527   4.552 -1.2364 -0.7426  2.4209
  567DG     H2313041   1.527   2.651   4.473  1.6402  0.6933  0.4624
  568DG      C113042   1.611   5.386   1.525  0.0976 -0.2272 -0.0840
  568DG      C213043   2.037   5.849   1.439  0.1155 -0.4721  0.3899
  568DG      H313044   1.694   5.322   1.555 -0.4156  0.0651  2.1802
  568DG      H413045   1.520   5.330   1.505  0.8950 -1.1301 -1.3181
  568DG      H513046   1.591   5.443   1.616  4.5588  1.1462  0.2932
  568DG      H613047   1.965   5.870   1.517  0.4200 -1.5174  0.9731
  568DG      H713048   2.117   5.796   1.490  1.2458 -1.0199 -1.8252
  568DG      H813049   2.081   5.944   1.410  0.3521 -0.7068 -0.0394
  568DG      O913050   1.651   5.458   1.408 -0.0293 -0.2436  0.6488
  568DG     O1013051   1.989   5.790   1.321 -0.0639  0.1937 -0.6816
  568DG     C1113052   1.562   5.562   1.368  0.1749  0.5060 -0.6194
  568DG     C1213053   1.897   5.875   1.263 -0.4479  0.0863 -0.3049
  568DG     H1313054   1.550   5.642   1.441  1.7656  1.3144 -1.2153
  568DG     H1413055   1.464   5.517   1.351  0.2932  0.6765 -1.7877
  568DG     H1513056   1.955   5.944   1.202 -0.7141  1.2438  0.7115
  568DG     H1613057   1.835   5.937   1.328  0.8276  0.1507  0.9101
  568DG     C1713058   1.621   5.626   1.241  0.0876  0.1379  0.3243
  568DG     C1813059   1.791   5.790   1.182  0.2170 -0.2445 -0.5454
  568DG     O1913060   1.711   5.722   1.282 -0.6823 -0.1978 -0.0444
  568DG     H2013061   1.548   5.684   1.186  0.2194  0.0052  0.0103
  568DG     H2113062   1.662   5.551   1.173  0.1962 -1.2975  1.9019
  568DG     H2213063   1.732   5.864   1.128 -1.4452 -0.8088  0.4077
  568DG     H2313064   1.835   5.720   1.112 -0.1105 -0.8726 -0.1327
  569DG      C113065   2.658   3.844   2.028  0.5859  0.7456 -0.1402
  569DG      C213066   2.354   3.701   1.269 -0.3656  0.3548 -0.0978
  569DG      H313067   2.756   3.866   1.985  0.4955  1.4586  0.0067
  569DG      H413068   2.673   3.737   2.021  1.6264  0.6805  2.0433
  569DG      H513069   2.647   3.861   2.135 -3.1980  3.1355 -0.6961
  569DG      H613070   2.358   3.785   1.199  2.2675  1.0705  0.7908
  569DG      H713071   2.458   3.683   1.298 -0.3770  1.1982  0.5198
  569DG      H813072   2.325   3.604   1.229  0.2586  0.9519 -2.1331
  569DG      O913073   2.539   3.879   1.960 -0.4624  0.0804 -0.0848
  569DG     O1013074   2.287   3.730   1.392  0.2409 -0.0979  0.6051
  569DG     C1113075   2.536   3.829   1.828 -0.9874 -0.6133 -0.1187
  569DG     C1213076   2.305   3.633   1.499  0.5933 -0.4049 -0.1062
  569DG     H1313077   2.539   3.720   1.833 -3.4754 -0.7495  0.0108
  569DG     H1413078   2.609   3.886   1.771  0.4272  0.0831  2.2408
  569DG     H1513079   2.411   3.608   1.491  0.3236 -1.1599 -1.6836
  569DG     H1613080   2.244   3.546   1.476 -1.9028  1.2240  0.0168
  569DG     C1713081   2.395   3.864   1.772  0.5370 -0.0376 -0.7087
  569DG     C1813082   2.290   3.693   1.636 -0.0811  0.0198 -0.4331
  569DG     O1913083   2.374   3.811   1.641 -0.3234 -0.1059  0.5754
  569DG     H2013084   2.365   3.968   1.780 -3.5556 -0.9899 -1.0315
  569DG     H2113085   2.320   3.812   1.832 -0.6895  0.2212 -1.9696
  569DG     H2213086   2.188   3.710   1.670  0.1505  0.7877 -0.0886
  569DG     H2313087   2.325   3.619   1.708 -1.2519  1.3853  1.6558
  570DG      C113088   0.387   5.397   1.291  0.0705  0.4825 -0.0754
  570DG      C213089  -0.015   4.813   0.863 -0.2787 -0.1561 -0.3294
  570DG      H313090   0.374   5.494   1.243 -1.2795  0.3449 -0.0115
  570DG      H413091   0.477   5.391   1.352  0.5795 -0.0075 -0.8508
  570DG      H513092   0.294   5.385   1.346 -0.7914  0.4018 -1.4956
  570DG      H613093  -0.054   4.771   0.956  2.8816 -0.7999  0.8445
  570DG      H713094  -0.072   4.902   0.835  0.8890  0.0119 -2.3637
  570DG      H813095  -0.035   4.750   0.777 -0.2855 -0.7774  0.1174
  570DG      O913096   0.387   5.293   1.200 -0.4771  0.0677  0.0888
  570DG     O1013097   0.120   4.838   0.872 -0.4282 -0.5424  0.6617
  570DG     C1113098   0.443   5.176   1.253  0.1385 -0.1889 -0.0117
  570DG     C1213099   0.154   4.887   1.000  0.3857 -0.2682  0.4458
  570DG     H1313100   0.389   5.146   1.343  1.4222 -0.8360  0.5752
  570DG     H1413101   0.547   5.195   1.279  0.0736  0.2863 -0.1020
  570DG     H1513102   0.134   4.812   1.076  0.7360 -2.9648 -1.9660
  570DG     H1613103   0.084   4.969   1.015  0.2686  0.1558 -2.0495
  570DG     C1713104   0.435   5.066   1.144 -0.2861 -0.3342 -0.1449
  570DG     C1813105   0.294   4.940   1.003  0.5038 -0.3404  0.4870
  570DG     O1913106   0.306   5.015   1.117 -0.0128 -0.9034 -0.2401
  570DG     H2013107   0.486   4.976   1.180 -1.4902 -1.7154 -1.7214
  570DG     H2113108   0.480   5.093   1.049 -2.6878  0.2533 -1.1977
  570DG     H2213109   0.361   4.854   1.000 -0.4785 -1.1517  1.1132
  570DG     H2313110   0.321   4.990   0.910 -0.0445  0.1500  0.5899
  571DG      C113111   4.173   5.305   2.506  0.1500 -0.9120  0.1593
  571DG      C213112   4.113   4.823   1.842  0.7109  0.6998  0.8725
  571DG      H313113   4.134   5.398   2.465  1.3064 -1.2803 -1.8788
  571DG      H413114   4.281   5.310   2.493  0.0764  2.5649  0.0278
  571DG      H513115   4.162   5.300   2.615  0.7293 -1.9108  0.1834
  571DG      H613116   4.045   4.883   1.782  0.4886 -0.3575  0.0300
  571DG      H713117   4.217   4.834   1.811  0.8478 -2.2297 -0.0290
  571DG      H813118   4.085   4.719   1.821 -0.1351  0.9380  0.7629
  571DG      O913119   4.110   5.205   2.425 -0.3497 -0.4481 -0.5082
  571DG     O1013120   4.090   4.859   1.981 -0.3322  0.2881  0.0924
  571DG     C1113121   4.172   5.087   2.450 -0.0914 -0.5600  0.4961
  571DG     C1213122   4.088   4.998   2.005  0.0322 -0.3897 -0.3678
  571DG     H1313123   4.175   5.074   2.558 -0.6159  1.5164  0.8022
  571DG     H1413124   4.274   5.084   2.412 -0.5268 -1.8513 -0.6573
  571DG     H1513125   4.011   5.052   1.949 -1.2988  0.8641  2.4260
  571DG     H1613126   4.180   5.053   1.989 -0.6844  0.6864 -0.9867
  571DG     C1713127   4.090   4.982   2.369 -0.0287  0.1393 -0.3779
  571DG     C1813128   4.041   5.025   2.152  0.5190  0.2140  0.0303
  571DG     O1913129   4.127   4.952   2.236  0.8750 -0.1896  0.1175
  571DG     H2013130   3.982   4.992   2.383  0.0659 -1.7325  2.5784
  571DG     H2113131   4.110   4.889   2.423  0.0625  0.0860 -0.5028
  571DG     H2213132   4.035   5.130   2.177  0.9916  0.2748 -0.1113
  571DG     H2313133   3.939   4.992   2.172  1.1444 -0.9955  1.3737
  572DG      C113134   0.915   5.198   1.378  0.2392  0.1285 -0.3054
  572DG      C213135   0.257   5.570   1.717 -0.0510 -0.3797  0.0221
  572DG      H313136   0.968   5.148   1.459  0.7465 -0.0867 -0.7568
  572DG      H413137   0.995   5.211   1.305  1.5547 -0.7243  0.9329
  572DG      H513138   0.842   5.125   1.342  0.9420 -0.2051 -1.0955
  572DG      H613139   0.226   5.674   1.727 -0.7511 -0.7690  3.0992
  572DG      H713140   0.178   5.517   1.664 -0.3055 -0.5506  0.5618
  572DG      H813141   0.254   5.523   1.816  1.1697  0.8536  0.6801
  572DG      O913142   0.871   5.331   1.399 -0.0672 -0.3336 -0.2143
  572DG     O1013143   0.389   5.559   1.667 -0.2482 -0.0695 -0.3325
  572DG     C1113144   0.797   5.353   1.521 -0.2424 -0.1119  0.8289
  572DG     C1213145   0.485   5.640   1.733 -0.6925 -0.0531 -0.5276
  572DG     H1313146   0.842   5.312   1.612 -2.0534  1.1653  2.3861
  572DG     H1413147   0.698   5.315   1.495 -0.5396  0.9242  0.4192
  572DG     H1513148   0.515   5.585   1.823 -2.0678 -1.7008 -1.0090
  572DG     H1613149   0.460   5.738   1.773 -0.8912  0.4262 -1.8025
  572DG     C1713150   0.769   5.503   1.536  0.5855  0.3299 -0.1053
  572DG     C1813151   0.609   5.647   1.649 -0.3778  0.1510 -0.1443
  572DG     O1913152   0.666   5.516   1.638  0.6870 -0.0541  0.3388
  572DG     H2013153   0.725   5.552   1.449  1.2550 -0.0988 -0.6933
  572DG     H2113154   0.860   5.555   1.566  2.1500 -1.2112 -1.9165
  572DG     H2213155   0.569   5.687   1.556  2.1913 -0.0948 -1.4231
  572DG     H2313156   0.668   5.723   1.698  0.8940 -0.3107 -0.9201
  573DG      C113157   5.333   3.490   1.035 -0.3388  0.2558 -0.2508
  573DG      C213158   4.606   3.364   1.108 -0.3120 -0.2878 -0.5743
  573DG      H313159   5.413   3.500   0.961  0.2815  0.5250  0.4417
  573DG      H413160   5.374   3.435   1.120 -0.2842  1.0133  0.2222
  573DG      H513161   5.294   3.590   1.055 -0.3285  0.0849  0.6658
  573DG      H613162   4.523   3.354   1.038 -0.3457 -2.2369 -0.2979
  573DG      H713163   4.598   3.274   1.169 -0.3568  1.9460  2.9894
  573DG      H813164   4.587   3.452   1.169  1.2842  0.1884 -0.7252
  573DG      O913165   5.243   3.415   0.961  0.1484  0.0690 -0.7869
  573DG     O1013166   4.730   3.372   1.031  0.2516 -0.6511  0.3353
  573DG     C1113167   5.210   3.461   0.835  0.2933 -0.8372 -0.0782
  573DG     C1213168   4.749   3.496   0.968 -0.3052  0.7700 -0.3311
  573DG     H1313169   5.278   3.418   0.761 -0.9980 -0.1639 -1.7360
  573DG     H1413170   5.225   3.568   0.821 -1.6520 -0.5843 -0.5713
  573DG     H1513171   4.774   3.574   1.040  0.7592 -1.7889  2.2732
  573DG     H1613172   4.655   3.529   0.924 -0.8912  0.0104  0.3288
  573DG     C1713173   5.068   3.421   0.799  0.4037 -0.2868 -0.3845
  573DG     C1813174   4.834   3.472   0.852  0.4963 -0.2069  0.7796
  573DG     O1913175   4.973   3.493   0.880 -0.9237  0.4660  0.0297
  573DG     H2013176   5.048   3.314   0.810 -1.4660  0.1531  1.2161
  573DG     H2113177   5.046   3.439   0.694 -0.5410 -0.7825 -0.2866
  573DG     H2213178   4.801   3.381   0.801 -1.0429  0.3795  0.6687
  573DG     H2313179   4.819   3.543   0.771  0.8078  0.9619  1.7208
  574DG      C113180   5.034   4.090   0.127 -0.3537 -1.1542  0.3895
  574DG      C213181   5.061   3.468   0.373 -0.1913 -0.4403 -1.4116
  574DG      H313182   5.072   4.189   0.104 -2.9497 -0.1503  0.0292
  574DG      H413183   4.947   4.115   0.188  0.1547 -0.5101  0.8507
  574DG      H513184   5.002   4.062   0.027  0.2009  0.5291 -0.2876
  574DG      H613185   4.985   3.429   0.306 -1.3287  0.3604 -0.6236
  574DG      H713186   5.107   3.378   0.412 -1.0278 -0.3969 -0.2809
  574DG      H813187   5.002   3.523   0.446  0.4328  1.6572 -2.4060
  574DG      O913188   5.131   4.013   0.188  0.0172 -0.5761 -0.3972
  574DG     O1013189   5.149   3.554   0.314  0.3788  0.2679  0.1232
  574DG     C1113190   5.261   4.005   0.126  0.2718  0.0510 -0.2967
  574DG     C1213191   5.241   3.607   0.407 -0.6367  0.0692 -0.4993
  574DG     H1313192   5.302   4.103   0.104 -0.2021 -0.2990 -3.1560
  574DG     H1413193   5.230   3.963   0.030 -2.0250 -2.2373  1.2804
  574DG     H1513194   5.303   3.529   0.452 -1.5456 -0.0234  0.6298
  574DG     H1613195   5.197   3.655   0.494 -1.3342  2.4588 -2.0641
  574DG     C1713196   5.345   3.915   0.218 -0.3245  0.0153 -0.1633
  574DG     C1813197   5.324   3.713   0.339  0.3443 -0.4726  0.2752
  574DG     O1913198   5.265   3.803   0.249  0.7962  0.4232 -0.2703
  574DG     H2013199   5.370   3.974   0.305 -3.5410  1.5959 -0.1525
  574DG     H2113200   5.435   3.898   0.159  0.6856  1.2020  0.9828
  574DG     H2213201   5.397   3.761   0.403  0.6134 -0.8416  0.2517
  574DG     H2313202   5.395   3.652   0.282 -0.3019 -0.1925 -0.8655
  575DG      C113203   2.017   4.387   4.423  0.1336 -0.0066 -0.8072
  575DG      C213204   1.606   4.880   4.786  0.1314  0.3611  0.8021
  575DG      H313205   1.941   4.314   4.450 -0.1472 -0.3598 -2.4291
  575DG      H413206   2.082   4.395   4.510  0.4079  0.2014 -1.0268
  575DG      H513207   2.078   4.350   4.340 -0.0890 -0.6351 -0.6983
  575DG      H613208   1.557   4.783   4.774 -1.4787  1.3591 -1.6021
  575DG      H713209   1.657   4.898   4.880  0.6232  1.6805  0.3106
  575DG      H813210   1.530   4.958   4.774 -0.9847 -0.0383  4.2402
  575DG      O913211   1.939   4.508   4.400  0.3753  0.0667 -0.4360
  575DG     O1013212   1.697   4.876   4.675 -0.2045  0.3739 -0.1781
  575DG     C1113213   2.021   4.621   4.397 -0.1028  0.1613 -0.9533
  575DG     C1213214   1.638   4.853   4.547  0.0742 -0.2398  0.4568
  575DG     H1313215   2.091   4.597   4.316 -1.6296 -2.2776 -1.6532
  575DG     H1413216   2.070   4.645   4.491 -2.0367  0.3518  0.0368
  575DG     H1513217   1.567   4.935   4.531  1.0463  0.5513  0.0600
  575DG     H1613218   1.576   4.765   4.536 -1.7754  0.6120  3.0122
  575DG     C1713219   1.930   4.740   4.354  0.1525 -0.7549  0.5550
  575DG     C1813220   1.742   4.857   4.436 -0.0796 -0.4906 -1.3205
  575DG     O1913221   1.833   4.747   4.457 -0.4942  0.4208  0.5335
  575DG     H2013222   1.875   4.724   4.261 -0.5674  0.9666  0.6439
  575DG     H2113223   1.981   4.837   4.362 -1.7683  0.2653  1.0283
  575DG     H2213224   1.696   4.836   4.340  1.0441 -1.2117 -1.7317
  575DG     H2313225   1.792   4.953   4.446  1.8790 -1.6549  1.8021
  576DG      C113226   0.772   1.826   4.643 -0.1464  0.6969 -0.8746
  576DG      C213227   1.243   1.539   4.231  0.0246 -0.0186  0.2862
  576DG      H313228   0.739   1.746   4.708  2.5309 -1.3498 -1.8637
  576DG      H413229   0.721   1.921   4.660 -0.4308 -0.0246  3.4792
  576DG      H513230   0.873   1.835   4.683 -1.3005 -0.8301  2.7483
  576DG      H613231   1.284   1.534   4.130  2.2667 -0.8472  1.1738
  576DG      H713232   1.321   1.558   4.305  0.9850  1.3696 -1.0149
  576DG      H813233   1.213   1.440   4.267 -0.7392 -0.1018 -0.5598
  576DG      O913234   0.778   1.786   4.510 -0.3647 -0.3105  0.1732
  576DG     O1013235   1.137   1.630   4.242  0.3641 -0.2104  0.2839
  576DG     C1113236   0.746   1.882   4.412 -0.1312 -0.6632 -0.8932
  576DG     C1213237   1.037   1.591   4.149 -0.2028  0.4505  0.5344
  576DG     H1313238   0.818   1.964   4.416  0.0005 -0.7725 -1.0076
  576DG     H1413239   0.654   1.934   4.437  1.0944  0.9622  0.5467
  576DG     H1513240   0.997   1.495   4.181  2.8932 -0.3677  2.3101
  576DG     H1613241   1.073   1.578   4.047  0.6352 -2.7928  1.1381
  576DG     C1713242   0.757   1.822   4.270 -0.0792  0.0919  0.5571
  576DG     C1813243   0.917   1.692   4.140  0.5279 -0.5662  0.5617
  576DG     O1913244   0.876   1.749   4.267 -0.3069  0.2467  0.1380
  576DG     H2013245   0.767   1.903   4.198 -0.1748 -1.0139 -0.7343
  576DG     H2113246   0.673   1.754   4.253  1.9817 -2.7152  0.9022
  576DG     H2213247   0.919   1.774   4.069 -1.6399  0.1104  1.2269
  576DG     H2313248   0.835   1.633   4.099 -0.9143  1.9636 -0.3749
  577DG      C113249   3.499   4.305   0.830 -0.6257 -0.9700  0.5534
  577DG      C213250   3.862   3.953   1.308 -0.5194 -0.6229  0.0237
  577DG      H313251   3.592   4.334   0.780 -0.6537  1.7889  1.8843
  577DG      H413252   3.478   4.388   0.898  0.9598 -0.7414  0.8038
  577DG      H513253   3.425   4.295   0.750 -0.0294  2.2098 -0.5572
  577DG      H613254   3.870   3.866   1.372 -1.2538 -1.9662 -1.6371
  577DG      H713255   3.959   3.977   1.265  0.0696  0.3330  1.7724
  577DG      H813256   3.846   4.046   1.365 -2.1742 -1.2322  0.6307
  577DG      O913257   3.501   4.178   0.897 -0.2812 -0.7803 -0.2498
  577DG     O1013258   3.750   3.941   1.218 -0.1779 -0.5516 -0.1490
  577DG     C1113259   3.504   4.074   0.802 -0.7912  0.2547  0.2759
  577DG     C1213260   3.771   3.841   1.131  0.8523  0.3195  0.6740
  577DG     H1313261   3.600   4.083   0.750 -0.3190  0.8615  1.2194
  577DG     H1413262   3.424   4.078   0.727  0.2422 -0.5423 -0.9204
  577DG     H1513263   3.793   3.747   1.180 -0.4825 -0.6405 -0.5032
  577DG     H1613264   3.848   3.881   1.065 -0.3188  0.8462 -0.4213
  577DG     C1713265   3.510   3.939   0.882  0.0275 -0.1501  0.4786
  577DG     C1813266   3.641   3.829   1.046  0.0022  0.6017 -0.5151
  577DG     O1913267   3.612   3.951   0.980 -0.2155  0.6909  0.3272
  577DG     H2013268   3.517   3.853   0.816 -0.0282  0.0184  0.2493
  577DG     H2113269   3.414   3.931   0.934  0.5399  0.0736  1.4815
  577DG     H2213270   3.647   3.745   0.976 -1.1519  1.3608 -1.5620
  577DG     H2313271   3.558   3.803   1.112  1.9830 -2.7370  0.9088
  578DG      C113272   4.564   0.432   3.264  0.5771 -0.2806  0.1902
  578DG      C213273   3.954   0.762   3.072 -0.3777  0.4319  0.3086
  578DG      H313274   4.589   0.362   3.343 -0.8422 -0.6515  0.3444
  578DG      H413275   4.638   0.511   3.249  1.7357 -0.5999  3.5323
  578DG      H513276   4.576   0.370   3.175  3.4300  0.6547 -0.1688
  578DG      H613277   3.856   0.717   3.059  0.0312 -0.7234  0.9984
  578DG      H713278   3.947   0.870   3.063 -1.9320  0.2383 -1.1196
  578DG      H813279   4.022   0.724   2.996 -0.9966  0.3742 -0.2194
  578DG      O913280   4.432   0.482   3.288  0.0056 -0.6862  0.5846
  578DG     O1013281   4.000   0.726   3.200  0.3947  0.1725 -0.1777
  578DG     C1113282   4.421   0.554   3.407  0.0236 -0.0872 -0.2477
  578DG     C1213283   3.994   0.581   3.234 -0.4900 -0.1252  0.1529
  578DG     H1313284   4.493   0.635   3.411  0.6899 -0.5685 -1.8059
  578DG     H1413285   4.440   0.494   3.496  1.9584 -0.5528 -0.9236
  578DG     H1513286   4.057   0.535   3.158 -0.4653 -0.4442  0.3649
  578DG     H1613287   3.890   0.546   3.231 -0.1792 -0.9800 -1.4807
  578DG     C1713288   4.276   0.619   3.409 -0.5478  0.5111  0.4224
  578DG     C1813289   4.047   0.571   3.378  0.3636  0.1500 -0.7468
  578DG     O1913290   4.183   0.521   3.386 -0.1315  0.4030  0.2774
  578DG     H2013291   4.275   0.687   3.324  2.4034  2.2561  1.6401
  578DG     H2113292   4.257   0.670   3.504 -0.0102  0.4708  0.5506
  578DG     H2213293   4.028   0.655   3.445 -0.2782 -1.5189  1.2862
  578DG     H2313294   3.986   0.494   3.427  0.6489  0.2728 -0.1891
  579DG      C113295   2.671   2.335   4.775 -0.0322 -0.1067 -0.0389
  579DG      C213296   2.152   2.348   4.986  0.0528  0.8895  0.2711
  579DG      H313297   2.746   2.364   4.700  0.6780  0.9002  1.0224
  579DG      H413298   2.635   2.233   4.782 -1.5582  0.3215 -1.0585
  579DG      H513299   2.700   2.360   4.877 -1.1169 -1.9971  0.7752
  579DG      H613300   2.113   2.306   5.079 -1.0191  0.2495 -0.4481
  579DG      H713301   2.167   2.269   4.913  0.7733  3.0311 -2.0358
  579DG      H813302   2.249   2.395   4.999 -0.0158  0.4823  2.8162
  579DG      O913303   2.555   2.420   4.753 -0.0179  0.5244  0.0447
  579DG     O1013304   2.054   2.444   4.957 -0.5465  0.3705 -0.4016
  579DG     C1113305   2.455   2.361   4.668 -0.1724  0.1940 -0.3642
  579DG     C1213306   2.054   2.491   4.823 -0.1814  0.2467 -0.1049
  579DG     H1313307   2.432   2.265   4.713 -2.6690  0.5138 -0.8333
  579DG     H1413308   2.499   2.334   4.572 -0.1096 -1.6342  0.1442
  579DG     H1513309   1.960   2.544   4.812  0.4345  0.9533 -2.7486
  579DG     H1613310   2.058   2.399   4.763  0.3017 -1.5584  2.5069
  579DG     C1713311   2.324   2.442   4.652 -0.0475  0.1667  0.0989
  579DG     C1813312   2.170   2.580   4.776  0.1232  0.4991  0.4915
  579DG     O1913313   2.285   2.502   4.777  0.2163 -0.1301 -0.3417
  579DG     H2013314   2.247   2.384   4.603 -0.4489  1.3840 -0.7686
  579DG     H2113315   2.354   2.528   4.592 -2.2530  1.9577  1.3796
  579DG     H2213316   2.161   2.615   4.674  0.8888  0.3715  0.3745
  579DG     H2313317   2.174   2.666   4.843  1.0957 -0.8106  2.1907
  580DG      C113318   0.110   0.100   5.094 -0.5653  0.2250  0.3414
  580DG      C213319  -0.092   0.450   5.487 -0.0594  0.2209  0.3283
  580DG      H313320   0.014   0.069   5.136 -0.8383  0.3956 -0.1420
  580DG      H413321   0.191   0.086   5.166  1.4178  2.8511 -1.2095
  580DG      H513322   0.133   0.028   5.016  0.8135  0.2888  0.6645
  580DG      H613323  -0.040   0.372   5.542 -1.3800 -1.1307 -0.2748
  580DG      H713324  -0.028   0.538   5.476 -0.4467  0.2679 -2.2104
  580DG      H813325  -0.186   0.476   5.535 -0.2975 -0.1986  0.0998
  580DG      O913326   0.107   0.232   5.035  0.8722  0.3367 -0.1836
  580DG     O1013327  -0.125   0.409   5.353 -0.1868 -0.3774  0.1410
  580DG     C1113328  -0.007   0.247   4.944  0.1005 -0.2987 -0.5182
  580DG     C1213329  -0.241   0.330   5.351 -0.3498  0.4046 -0.1067
  580DG     H1313330  -0.035   0.155   4.893 -0.0375  1.6185 -4.2634
  580DG     H1413331   0.013   0.313   4.860 -0.9108  1.0584  0.2712
  580DG     H1513332  -0.327   0.384   5.390 -1.2467 -0.2249 -1.1769
  580DG     H1613333  -0.221   0.250   5.421 -0.4846  0.7673  0.3508
  580DG     C1713334  -0.125   0.318   5.012  0.1780 -0.8385 -0.2249
  580DG     C1813335  -0.270   0.292   5.208 -0.6500  0.0314  0.5060
  580DG     O1913336  -0.148   0.248   5.143  0.0462 -0.0512 -0.2237
  580DG     H2013337  -0.216   0.315   4.952  0.3078 -0.6311 -0.4305
  580DG     H2113338  -0.099   0.422   5.032  0.9335 -0.2671 -3.6810
  580DG     H2213339  -0.346   0.215   5.198 -0.4347 -0.8303  4.1814
  580DG     H2313340  -0.302   0.384   5.159  2.3305  0.7283 -0.3525
  581DG      C113341   0.725   0.528   4.751  0.1616 -0.7915 -0.0878
  581DG      C213342   0.805   0.727   4.118  0.0229  0.5109 -0.2375
  581DG      H313343   0.639   0.596   4.750 -1.2374 -2.4945 -0.1993
  581DG      H413344   0.812   0.593   4.765 -0.4594 -0.3414  1.9545
  581DG      H513345   0.728   0.472   4.844 -0.9601 -0.4581  0.1629
  581DG      H613346   0.767   0.720   4.016  0.4631 -0.8676 -0.3352
  581DG      H713347   0.765   0.817   4.163  0.5282  0.8108 -0.3859
  581DG      H813348   0.914   0.735   4.110  0.3878 -2.7866 -0.0096
  581DG      O913349   0.718   0.461   4.626 -1.0162  0.4892 -0.2785
  581DG     O1013350   0.769   0.604   4.188  0.1144  0.1755 -0.4962
  581DG     C1113351   0.804   0.350   4.613  0.7503 -0.5495 -0.1507
  581DG     C1213352   0.856   0.494   4.155 -0.1396  0.4844  0.5457
  581DG     H1313353   0.771   0.261   4.667  2.0996 -1.4535 -0.7572
  581DG     H1413354   0.903   0.383   4.644  0.7096 -2.1403  1.8571
  581DG     H1513355   0.961   0.521   4.157 -0.0298  0.5391 -2.3730
  581DG     H1613356   0.836   0.473   4.050  0.2924 -0.5936  0.6620
  581DG     C1713357   0.813   0.299   4.471  0.3514  0.2993  0.0134
  581DG     C1813358   0.820   0.377   4.250 -0.6617 -0.6456 -0.6060
  581DG     O1913359   0.841   0.409   4.390  0.0465  0.0317  0.1020
  581DG     H2013360   0.721   0.245   4.449 -0.5126  1.0838  1.5858
  581DG     H2113361   0.894   0.226   4.465 -0.7909 -1.0808  0.8125
  581DG     H2213362   0.721   0.334   4.233 -0.9121 -0.6407  0.7682
  581DG     H2313363   0.873   0.283   4.235 -1.3716 -1.1450  0.0059
  582DG      C113364   2.086   0.342   0.899 -0.5782 -0.4187 -0.1674
  582DG      C213365   2.684   0.250   0.758  0.2626 -0.4570 -1.0889
  582DG      H313366   2.072   0.326   0.792  0.3668 -1.9259 -0.1049
  582DG      H413367   2.103   0.446   0.925  2.8128 -0.9312  0.1617
  582DG      H513368   1.997   0.316   0.956 -0.4262  0.0188  0.2753
  582DG      H613369   2.761   0.325   0.776 -0.6750  0.8065 -2.1615
  582DG      H713370   2.668   0.229   0.652  0.2336  1.4233 -1.4841
  582DG      H813371   2.592   0.301   0.786  0.3841 -1.4607  1.3506
  582DG      O913372   2.208   0.273   0.936 -0.2639  0.0117  1.3792
  582DG     O1013373   2.706   0.130   0.827 -0.6704  0.0358 -0.4418
  582DG     C1113374   2.260   0.308   1.061 -0.0626 -0.1955  0.3021
  582DG     C1213375   2.721   0.155   0.967  0.2293 -0.2735 -0.7527
  582DG     H1313376   2.179   0.286   1.131 -0.9318  0.3098 -0.5214
  582DG     H1413377   2.284   0.415   1.057  0.4474 -0.2904  0.6587
  582DG     H1513378   2.777   0.246   0.990  0.5595 -0.5112 -0.6077
  582DG     H1613379   2.785   0.071   0.996  0.1561 -0.8077 -2.0442
  582DG     C1713380   2.379   0.216   1.104 -0.4695  0.3869 -0.3251
  582DG     C1813381   2.593   0.130   1.049  0.3405  0.6232  0.0093
  582DG     O1913382   2.496   0.226   1.017  0.2610  0.5741 -0.4367
  582DG     H2013383   2.334   0.117   1.111 -0.1893  0.3606  1.6798
  582DG     H2113384   2.404   0.248   1.205 -2.4926  0.4866  0.1882
  582DG     H2213385   2.550   0.031   1.032  0.8695  0.1728  1.2025
  582DG     H2313386   2.618   0.140   1.154 -0.2895 -2.4174  0.5240
  583DG      C113387   2.150   4.631   3.558 -0.1217  0.9073  0.9140
  583DG      C213388   2.044   4.189   3.924 -0.0230  0.1373 -0.2139
  583DG      H313389   2.045   4.662   3.564 -0.3858  0.4353 -0.6785
  583DG      H413390   2.155   4.569   3.468 -0.7766 -0.8278  2.0227
  583DG      H513391   2.201   4.722   3.527  2.7273 -0.4524  1.2997
  583DG      H613392   2.075   4.251   3.841  1.4623 -1.3762 -0.8517
  583DG      H713393   2.006   4.094   3.887 -1.1528  1.5082 -2.8098
  583DG      H813394   1.963   4.243   3.974 -0.5566  0.7665 -1.7052
  583DG      O913395   2.210   4.582   3.670  0.5059 -0.5894  0.2780
  583DG     O1013396   2.152   4.155   4.005 -0.5580  0.8856  0.1112
  583DG     C1113397   2.332   4.525   3.649  0.0081  0.1752 -0.1899
  583DG     C1213398   2.236   4.258   4.050  1.2006  0.4639 -0.6879
  583DG     H1313399   2.409   4.578   3.594 -0.1148 -1.1479 -1.7129
  583DG     H1413400   2.324   4.428   3.599 -1.4851  1.3538 -2.3947
  583DG     H1513401   2.294   4.214   4.131  0.7064 -2.0982 -1.6412
  583DG     H1613402   2.174   4.334   4.097  1.6403 -0.2281  1.0844
  583DG     C1713403   2.384   4.481   3.790  0.1739 -0.0158  1.2004
  583DG     C1813404   2.336   4.312   3.950  0.5669 -0.2320  0.0964
  583DG     O1913405   2.285   4.400   3.856  0.0840  0.1840  0.4995
  583DG     H2013406   2.410   4.574   3.841  0.0509  1.6742 -1.6322
  583DG     H2113407   2.479   4.429   3.774 -0.1531 -0.3834  0.3858
  583DG     H2213408   2.415   4.359   4.007  1.3607  0.5274 -1.5549
  583DG     H2313409   2.380   4.223   3.905 -1.2301 -0.9633 -0.3033
  584DG      C113410   4.620   3.525   2.991 -0.6523 -0.0247  0.7226
  584DG      C213411   4.933   4.083   2.478 -0.5835  0.2741  0.3883
  584DG      H313412   4.607   3.506   3.098  0.3683 -1.1365  0.6647
  584DG      H413413   4.638   3.426   2.949 -1.2822 -0.0757  0.5653
  584DG      H513414   4.522   3.549   2.949  0.9566  0.2858 -3.3087
  584DG      H613415   4.967   4.185   2.495  0.5580 -0.2338  1.3963
  584DG      H713416   5.009   4.014   2.441 -2.0342 -0.9100 -0.4862
  584DG      H813417   4.841   4.071   2.422 -0.8015 -3.0404  1.2246
  584DG      O913418   4.717   3.626   2.961  0.4421 -0.3522  0.1238
  584DG     O1013419   4.920   4.025   2.611 -0.4786  0.2201 -0.2491
  584DG     C1113420   4.674   3.761   3.001  0.5910  0.0421 -0.3206
  584DG     C1213421   4.873   3.894   2.600  0.2389  0.3128  0.0890
  584DG     H1313422   4.663   3.759   3.109 -0.0352  2.5059 -0.3001
  584DG     H1413423   4.570   3.787   2.980  0.8931  0.2064 -1.7226
  584DG     H1513424   4.918   3.834   2.521 -0.7159  0.4667 -0.5971
  584DG     H1613425   4.771   3.907   2.563  0.6536  0.6579 -0.9841
  584DG     C1713426   4.788   3.857   2.954 -0.0192 -0.4979 -0.2972
  584DG     C1813427   4.875   3.827   2.740 -0.7388  0.8212 -0.1613
  584DG     O1913428   4.794   3.903   2.824  0.5008  0.6151  0.1537
  584DG     H2013429   4.888   3.824   2.982 -0.2868  1.0689  2.8742
  584DG     H2113430   4.773   3.951   3.006 -0.3427 -0.0220 -1.2255
  584DG     H2213431   4.834   3.727   2.732 -1.8007  1.0951  1.3867
  584DG     H2313432   4.979   3.814   2.770 -0.7609  2.4587  0.7372
  585DG      C113433   0.588   3.431   3.537  0.4950 -0.8104 -0.3622
  585DG      C213434   0.559   3.913   2.989 -0.0286  0.4320  0.3893
  585DG      H313435   0.696   3.439   3.553  0.1624  0.7233  1.5497
  585DG      H413436   0.576   3.323   3.533  0.4872 -0.8213 -0.1005
  585DG      H513437   0.531   3.454   3.627  1.5089  0.8378 -0.0949
  585DG      H613438   0.537   3.976   3.075  0.8796  1.3906 -0.0686
  585DG      H713439   0.666   3.911   2.968  0.4577  0.4329  2.6086
  585DG      H813440   0.519   3.960   2.900  0.1992  0.5478  0.3472
  585DG      O913441   0.536   3.498   3.423 -0.8823  0.1956  0.0715
  585DG     O1013442   0.519   3.782   3.018 -0.0302 -0.3621  0.0617
  585DG     C1113443   0.409   3.461   3.392 -0.2578 -0.0651  0.1883
  585DG     C1213444   0.378   3.781   3.036  0.8137  1.1406  0.3993
  585DG     H1313445   0.341   3.518   3.456  1.3693  2.2656 -0.0558
  585DG     H1413446   0.392   3.357   3.422 -0.7087  0.7307  2.9171
  585DG     H1513447   0.328   3.808   2.944  0.5205 -0.5334  0.0292
  585DG     H1613448   0.340   3.847   3.114  2.3816  0.5827  1.6949
  585DG     C1713449   0.360   3.492   3.245  0.4751  0.4738  0.1043
  585DG     C1813450   0.325   3.645   3.077  0.0304  0.4392  0.4464
  585DG     O1913451   0.398   3.616   3.198  0.0055 -0.0253 -0.1932
  585DG     H2013452   0.252   3.485   3.255  0.5133  0.4316  0.5153
  585DG     H2113453   0.399   3.419   3.174  0.5221  1.4161 -0.8521
  585DG     H2213454   0.220   3.653   3.103 -0.4674 -2.0869 -0.4870
  585DG     H2313455   0.334   3.576   2.993  0.7871  0.5067  0.4662
  586DG      C113456   1.104   1.529   4.675 -0.3023  0.2412  0.0609
  586DG      C213457   1.125   2.001   4.197  0.1206 -0.2747 -0.0350
  586DG      H313458   1.156   1.496   4.765 -2.5780 -1.2546  0.8977
  586DG      H413459   1.089   1.456   4.595 -2.3384  2.2433 -1.5065
  586DG      H513460   1.004   1.551   4.711  0.2245  1.2694  0.9280
  586DG      H613461   1.042   2.067   4.225  1.6531  0.8505  2.1562
  586DG      H713462   1.195   2.051   4.130 -1.7087  1.5470 -0.7427
  586DG      H813463   1.088   1.906   4.158  0.5066 -1.4664  2.3079
  586DG      O913464   1.186   1.635   4.622  0.2167  0.5493  0.3718
  586DG     O1013465   1.192   1.973   4.308 -0.6391 -0.2377 -0.5895
  586DG     C1113466   1.239   1.722   4.728 -0.3786  0.5421  0.2360
  586DG     C1213467   1.215   2.079   4.410  0.5384  0.3688  0.8689
  586DG     H1313468   1.299   1.674   4.805 -0.6468 -0.5532 -0.2108
  586DG     H1413469   1.152   1.778   4.761 -0.6225  0.3640 -0.0892
  586DG     H1513470   1.120   2.122   4.442  0.4781  1.0957 -0.2102
  586DG     H1613471   1.262   2.162   4.357 -0.6115  0.6936  0.3194
  586DG     C1713472   1.326   1.841   4.673 -0.1255  0.2162 -0.1925
  586DG     C1813473   1.300   2.029   4.529  0.3034 -0.0460  0.4914
  586DG     O1913474   1.246   1.902   4.571 -0.0984 -0.2936 -0.2428
  586DG     H2013475   1.426   1.804   4.648  0.3656  1.7186 -0.5331
  586DG     H2113476   1.345   1.919   4.746 -3.0480  0.0032  0.9611
  586DG     H2213477   1.405   2.011   4.505  0.0157 -1.6766  0.3841
  586DG     H2313478   1.301   2.104   4.608  1.3625  0.6573 -0.1554
  587DG      C113479   3.069   4.843   2.800  0.2420 -0.1481 -0.6567
  587DG      C213480   3.352   4.771   2.157 -0.1547  0.0274 -0.7917
  587DG      H313481   3.022   4.757   2.847  0.6574  1.1199  2.3359
  587DG      H413482   2.998   4.898   2.738  0.8782  0.5591 -0.7824
  587DG      H513483   3.108   4.915   2.873  1.1417 -0.7117 -0.5637
  587DG      H613484   3.252   4.813   2.151  0.9922  3.7616  2.4256
  587DG      H713485   3.422   4.850   2.129 -2.1276  1.3357 -2.2841
  587DG      H813486   3.375   4.695   2.082 -1.2721 -0.2076 -0.9132
  587DG      O913487   3.162   4.786   2.710  0.4010 -0.0622 -0.3570
  587DG     O1013488   3.359   4.733   2.295  0.2935 -0.1157 -0.1166
  587DG     C1113489   3.275   4.728   2.775 -0.0818  0.4858 -0.5605
  587DG     C1213490   3.488   4.726   2.347  0.0642 -0.0240 -1.2055
  587DG     H1313491   3.240   4.659   2.850 -0.6838  0.1366 -1.1546
  587DG     H1413492   3.338   4.811   2.809  0.8928 -0.9720  1.3282
  587DG     H1513493   3.529   4.826   2.355  0.5771 -0.0608 -3.0439
  587DG     H1613494   3.554   4.676   2.277  0.3709 -1.9298  0.3353
  587DG     C1713495   3.370   4.647   2.678 -0.0200  0.3346  0.0509
  587DG     C1813496   3.494   4.655   2.481 -0.1443  0.2306 -0.9944
  587DG     O1913497   3.411   4.726   2.572 -0.1686 -0.2937 -0.6631
  587DG     H2013498   3.298   4.576   2.636 -0.6624  1.5833 -1.0293
  587DG     H2113499   3.451   4.585   2.715 -1.3219 -1.9147 -0.6526
  587DG     H2213500   3.450   4.556   2.465 -1.9981  1.2262 -2.4995
  587DG     H2313501   3.594   4.640   2.523 -1.5184 -1.6683  1.9143
  588DG      C113502   3.746   1.382   0.625  0.2182  0.0482 -0.1606
  588DG      C213503   3.893   1.853   1.084  0.2214 -0.3820 -1.1552
  588DG      H313504   3.745   1.359   0.519 -0.5236 -0.5232 -0.0410
  588DG      H413505   3.802   1.473   0.648 -2.3597  1.7354 -0.1277
  588DG      H513506   3.642   1.405   0.650  1.0260  2.0150  1.7225
  588DG      H613507   3.958   1.930   1.041 -0.4693 -0.5582 -2.5698
  588DG      H713508   3.804   1.866   1.023 -2.0168 -0.4771  1.8644
  588DG      H813509   3.862   1.877   1.185 -1.4929 -0.7920 -1.5478
  588DG      O913510   3.787   1.273   0.708  0.0934  0.3760  0.8324
  588DG     O1013511   3.945   1.718   1.082  0.2131  0.0544 -0.1050
  588DG     C1113512   3.929   1.252   0.688  0.1696 -0.2543 -0.4668
  588DG     C1213513   3.946   1.662   0.952 -0.1443  0.5022  0.4387
  588DG     H1313514   3.967   1.301   0.599  0.6047 -0.0184 -0.1524
  588DG     H1413515   3.961   1.148   0.692  1.0652  0.0140 -0.3970
  588DG     H1513516   4.022   1.721   0.901 -1.3693  1.1895 -0.6500
  588DG     H1613517   3.846   1.671   0.909 -0.0507 -1.6798 -0.3423
  588DG     C1713518   3.991   1.316   0.814  0.1298  0.2872 -0.0781
  588DG     C1813519   3.994   1.510   0.952 -0.3876 -0.2121  0.7226
  588DG     O1913520   3.958   1.454   0.828 -0.2276 -0.2146 -0.2012
  588DG     H2013521   4.099   1.317   0.799 -0.0487  2.0782 -1.6016
  588DG     H2113522   3.960   1.269   0.908  0.9068  1.7199  0.9244
  588DG     H2213523   4.100   1.503   0.978  0.0361  0.3438 -0.7096
  588DG     H2313524   3.941   1.454   1.029 -0.3506  2.1700  2.6089
  589DG      C113525   2.258   1.814   3.164  0.2734  0.3353  0.7613
  589DG      C213526   1.637   1.616   3.062 -0.1622 -0.2618  0.0961
  589DG      H313527   2.311   1.764   3.245  0.1249  0.4122  0.9054
  589DG      H413528   2.209   1.903   3.203 -1.2136  1.5495 -3.3696
  589DG      H513529   2.328   1.850   3.089 -1.0161 -0.4928 -0.9069
  589DG      H613530   1.702   1.569   3.135 -2.7690 -2.1710  1.3794
  589DG      H713531   1.591   1.703   3.110 -0.2728 -0.6428  0.6874
  589DG      H813532   1.561   1.545   3.030 -0.6718 -0.6999  2.1322
  589DG      O913533   2.150   1.736   3.110  0.3142 -0.3678  0.6059
  589DG     O1013534   1.708   1.674   2.954 -0.1884  0.2688  0.2795
  589DG     C1113535   2.195   1.630   3.027  0.5798 -0.0290  0.2936
  589DG     C1213536   1.754   1.581   2.857  0.5876  0.1661 -0.5612
  589DG     H1313537   2.283   1.583   3.071  0.8733  1.1952  1.0641
  589DG     H1413538   2.221   1.675   2.931 -1.6279  1.5011  0.3163
  589DG     H1513539   1.771   1.633   2.762  0.4334  0.5979 -0.3549
  589DG     H1613540   1.668   1.516   2.844  0.7260 -0.5054  1.5448
  589DG     C1713541   2.090   1.523   3.014 -0.0527 -0.1592 -0.0308
  589DG     C1813542   1.870   1.499   2.910  0.1044  0.2959 -0.2230
  589DG     O1913543   1.977   1.589   2.951  0.9770  0.9744  0.0487
  589DG     H2013544   2.070   1.483   3.113  1.7007  0.4521  0.6224
  589DG     H2113545   2.119   1.438   2.952  0.6425  1.4834 -2.1074
  589DG     H2213546   1.842   1.453   3.005  0.6783  0.0326 -0.1796
  589DG     H2313547   1.899   1.427   2.834  0.8417  1.1073 -0.7225
  590DG      C113548   3.891   3.945   0.705  0.2720  0.0763 -0.0338
  590DG      C213549   4.471   3.798   0.993  0.4214 -0.0691 -0.0216
  590DG      H313550   3.791   3.961   0.744 -0.8000 -1.4865 -1.9348
  590DG      H413551   3.879   3.903   0.605  1.7660 -0.2481 -0.1063
  590DG      H513552   3.937   4.042   0.692 -2.3294  1.4849  0.5643
  590DG      H613553   4.525   3.775   0.901  0.4876 -2.6419  0.5691
  590DG      H713554   4.480   3.906   1.005 -0.0582 -0.1065  0.7268
  590DG      H813555   4.527   3.736   1.064  0.3870 -2.1685 -1.7029
  590DG      O913556   3.968   3.846   0.775 -0.0678 -0.2152  0.1929
  590DG     O1013557   4.336   3.754   0.973 -0.2411 -0.3354  0.2667
  590DG     C1113558   3.897   3.722   0.786  0.2968 -0.1298  0.6577
  590DG     C1213559   4.332   3.619   0.925 -0.0324  0.2489  0.8629
  590DG     H1313560   3.875   3.688   0.685  0.0162  3.2337 -0.5450
  590DG     H1413561   3.795   3.735   0.820  0.1490 -2.2541  1.1592
  590DG     H1513562   4.399   3.556   0.983  1.1003  0.2104 -0.4405
  590DG     H1613563   4.356   3.607   0.819 -0.5034 -0.0594  0.7888
  590DG     C1713564   3.969   3.624   0.873  0.2359  0.4579 -0.3710
  590DG     C1813565   4.190   3.563   0.945 -0.7942  0.3073 -0.2378
  590DG     O1913566   4.113   3.640   0.858  0.3674  0.7682  0.2505
  590DG     H2013567   3.941   3.523   0.843 -0.0874 -0.1442  1.7811
  590DG     H2113568   3.937   3.643   0.975  0.3817  0.1521 -0.2657
  590DG     H2213569   4.184   3.459   0.913  2.8493  0.1521 -0.8673
  590DG     H2313570   4.159   3.583   1.048  0.7096 -1.2547  0.5673
  591DG      C113571   4.850   1.344   2.677 -0.4353  0.2260 -0.5632
  591DG      C213572   4.279   1.558   2.377  0.4689 -0.4638 -0.2875
  591DG      H313573   4.914   1.285   2.743 -1.6564  1.4560  1.8663
  591DG      H413574   4.869   1.447   2.707 -0.3537 -0.5117  2.1417
  591DG      H513575   4.872   1.339   2.570 -0.9054 -1.0998 -0.6180
  591DG      H613576   4.345   1.630   2.426 -0.2702 -0.1395  0.2553
  591DG      H713577   4.308   1.535   2.274  0.8110 -0.5039 -0.1831
  591DG      H813578   4.172   1.581   2.375  0.2260 -1.4422  0.3777
  591DG      O913579   4.715   1.303   2.681 -0.3993 -0.5948  0.2314
  591DG     O1013580   4.296   1.443   2.464  0.1998  0.3024  0.4261
  591DG     C1113581   4.661   1.298   2.810  0.1785  0.3863 -0.0357
  591DG     C1213582   4.257   1.474   2.597 -0.1328  0.6595 -0.2222
  591DG     H1313583   4.679   1.397   2.851  1.0340  0.5517 -0.7916
  591DG     H1413584   4.701   1.218   2.873 -0.2749  0.6573  0.6048
  591DG     H1513585   4.151   1.490   2.615  0.2811  1.8430  1.4016
  591DG     H1613586   4.302   1.564   2.638 -1.6270  1.3666 -0.0734
  591DG     C1713587   4.513   1.286   2.801  0.1406 -0.1278 -0.2744
  591DG     C1813588   4.310   1.356   2.690  0.1327 -0.1660 -0.3784
  591DG     O1913589   4.447   1.366   2.705  0.2134  0.6187 -0.1944
  591DG     H2013590   4.462   1.304   2.896  1.8156 -2.5388  1.2082
  591DG     H2113591   4.495   1.184   2.767  2.3601 -0.6212 -0.1326
  591DG     H2213592   4.254   1.351   2.784 -1.2711 -3.3551 -1.2451
  591DG     H2313593   4.288   1.260   2.642 -1.1432  0.1258 -0.4198
  592DG      C113594   3.783   2.729   0.333  0.1188  0.3645  0.0520
  592DG      C213595   3.504   2.512  -0.331 -0.4335 -0.2600 -0.1114
  592DG      H313596   3.881   2.681   0.328  0.8681  1.6612  1.4942
  592DG      H413597   3.738   2.704   0.429 -0.2044 -0.0543 -0.2072
  592DG      H513598   3.799   2.837   0.333 -0.4759  0.5622 -3.2731
  592DG      H613599   3.428   2.451  -0.379 -1.3241 -0.5446  1.5679
  592DG      H713600   3.493   2.611  -0.375 -2.6958 -0.8727 -1.0740
  592DG      H813601   3.607   2.488  -0.356  0.2419  0.7549  1.4753
  592DG      O913602   3.698   2.701   0.220 -0.2788  0.0542 -0.6134
  592DG     O1013603   3.498   2.504  -0.188  0.3885  0.2177  0.2025
  592DG     C1113604   3.567   2.747   0.241 -0.0751 -0.0767  0.5947
  592DG     C1213605   3.378   2.564  -0.134 -0.8236  0.3082  0.2731
  592DG     H1313606   3.557   2.854   0.254 -2.7187 -0.1140 -0.6144
  592DG     H1413607   3.523   2.698   0.327 -0.6881 -1.8264 -0.6408
  592DG     H1513608   3.288   2.537  -0.190 -1.2311  0.2741  0.9320
  592DG     H1613609   3.377   2.673  -0.139  0.5025  0.2840 -0.8305
  592DG     C1713610   3.462   2.701   0.128 -0.8139  0.6052 -0.0140
  592DG     C1813611   3.364   2.518   0.015 -0.7923  0.3241  0.1079
  592DG     O1913612   3.468   2.559   0.109 -0.3683  0.7284 -0.4463
  592DG     H2013613   3.496   2.753   0.038 -1.5672 -0.1619 -0.7657
  592DG     H2113614   3.360   2.732   0.146 -1.2685 -0.5918 -0.4203
  592DG     H2213615   3.270   2.554   0.056 -0.3691  0.6061  0.8602
  592DG     H2313616   3.369   2.410   0.009 -0.8091  0.3956 -1.4912
  593DG      C113617   0.809   4.910   1.789  0.4703 -0.8222 -0.7000
  593DG      C213618   0.210   5.138   2.100  0.0053  0.7605  0.3178
  593DG      H313619   0.753   4.821   1.820 -0.0501 -0.0366  0.7086
  593DG      H413620   0.897   4.920   1.851  1.4063 -0.0971 -2.0952
  593DG      H513621   0.844   4.900   1.686  0.0975  0.9363 -1.0263
  593DG      H613622   0.127   5.207   2.118 -1.5179 -0.6632 -0.9694
  593DG      H713623   0.166   5.051   2.053 -0.4066  1.3336 -0.3906
  593DG      H813624   0.256   5.111   2.195 -0.5746  1.1299  0.7156
  593DG      O913625   0.731   5.023   1.792 -0.2641  0.2862 -0.8010
  593DG     O1013626   0.310   5.206   2.018  0.3210  0.0799 -0.5216
  593DG     C1113627   0.646   5.036   1.676 -0.0016 -0.3787  0.4821
  593DG     C1213628   0.255   5.237   1.891 -0.0634 -0.5215 -0.2834
  593DG     H1313629   0.582   4.953   1.646  0.0464  0.0617 -0.9173
  593DG     H1413630   0.713   5.055   1.592 -1.9988 -0.1412 -1.1431
  593DG     H1513631   0.190   5.323   1.900  1.7996  1.0212 -0.8373
  593DG     H1613632   0.197   5.153   1.853  0.3584 -0.7479 -0.4392
  593DG     C1713633   0.552   5.165   1.690  0.1471  0.5805 -0.4526
  593DG     C1813634   0.376   5.266   1.800  0.1814  0.2497  0.0504
  593DG     O1913635   0.447   5.142   1.789  0.9395  0.3795  0.4102
  593DG     H2013636   0.507   5.187   1.594  0.8557 -2.3652 -1.5546
  593DG     H2113637   0.612   5.253   1.714  1.2703 -0.0561 -0.8498
  593DG     H2213638   0.342   5.303   1.703 -0.7106 -2.4073 -0.7414
  593DG     H2313639   0.432   5.347   1.848  2.4517 -2.4452  2.2920
  594DG      C113640   0.115   3.371   0.341  0.7968  0.5656  0.4133
  594DG      C213641   0.259   3.084  -0.295 -0.4684  0.7065 -0.1384
  594DG      H313642   0.045   3.445   0.380 -0.5820 -0.5169  0.1187
  594DG      H413643   0.178   3.430   0.275 -0.4913  2.2984  0.6629
  594DG      H513644   0.176   3.319   0.415  3.5153 -0.4493 -2.3105
  594DG      H613645   0.230   3.144  -0.382  0.1364 -0.4288 -1.1558
  594DG      H713646   0.368   3.086  -0.287 -0.6101  0.0835  2.9127
  594DG      H813647   0.219   2.987  -0.322 -0.7185  0.7080  0.2320
  594DG      O913648   0.044   3.262   0.278  0.0327 -0.0799  0.4187
  594DG     O1013649   0.202   3.144  -0.186  0.5962  0.0618 -0.4233
  594DG     C1113650  -0.069   3.306   0.202  0.6802  0.6142 -0.1743
  594DG     C1213651   0.072   3.192  -0.212  0.3057 -1.0301  0.2476
  594DG     H1313652  -0.053   3.390   0.135  0.6905  0.8697  0.1456
  594DG     H1413653  -0.145   3.364   0.254  0.0777  1.4361 -1.9087
  594DG     H1513654   0.014   3.112  -0.256  0.3193  0.2751 -2.3104
  594DG     H1613655   0.077   3.277  -0.280  1.2154  1.5191  3.1989
  594DG     C1713656  -0.121   3.189   0.119 -0.3511 -0.0759 -0.5535
  594DG     C1813657   0.001   3.248  -0.090  0.1111 -0.6833 -0.1719
  594DG     O1913658  -0.025   3.160   0.011  0.1920 -0.0151  0.6118
  594DG     H2013659  -0.216   3.217   0.073 -0.5563  0.3156  0.1038
  594DG     H2113660  -0.142   3.094   0.169 -1.2466  0.6294  0.4325
  594DG     H2213661   0.033   3.345  -0.053 -0.3545 -0.5659 -0.0751
  594DG     H2313662  -0.100   3.275  -0.121  0.9279  2.5796 -0.3438
  595DG      C113663   5.039   3.836   1.043 -0.0188  0.0313  0.6921
  595DG      C213664   5.391   4.388   0.874 -0.2589  0.2204  0.3478
  595DG      H313665   4.980   3.766   0.985 -2.6476  1.4372  1.5082
  595DG      H413666   4.983   3.929   1.057 -0.6550 -0.3322  0.5992
  595DG      H513667   5.068   3.786   1.135 -1.5472 -0.8466  0.7270
  595DG      H613668   5.420   4.418   0.975 -0.6945  1.0875  0.2238
  595DG      H713669   5.462   4.440   0.809 -1.7212  0.3173 -1.2268
  595DG      H813670   5.294   4.430   0.848 -0.5653  1.0323  2.6194
  595DG      O913671   5.157   3.866   0.953 -0.5930  0.5160  0.2615
  595DG     O1013672   5.405   4.250   0.849  0.0948  0.7157  0.7813
  595DG     C1113673   5.135   3.854   0.814  0.2357 -0.1698  0.1567
  595DG     C1213674   5.404   4.215   0.709 -0.8612 -0.0704  0.6319
  595DG     H1313675   5.054   3.923   0.792  0.3641 -0.4496 -1.2620
  595DG     H1413676   5.102   3.756   0.780 -0.9068  0.5578 -0.8703
  595DG     H1513677   5.481   4.262   0.649 -1.5625  0.6668  0.2853
  595DG     H1613678   5.308   4.244   0.667 -0.9642 -1.3325 -0.0328
  595DG     C1713679   5.266   3.884   0.746 -0.3522  0.1025 -0.3991
  595DG     C1813680   5.408   4.070   0.692 -0.2914  0.2368  0.2391
  595DG     O1913681   5.302   4.018   0.775 -0.2474  0.0877 -0.3565
  595DG     H2013682   5.245   3.883   0.639 -0.9798  2.2912 -0.3478
  595DG     H2113683   5.343   3.813   0.777  0.1807  0.7159 -0.3054
  595DG     H2213684   5.392   4.041   0.588  2.0023 -0.2808 -0.0145
  595DG     H2313685   5.501   4.026   0.729 -0.2462  0.7853  0.7982
  596DG      C113686   1.396   2.408   5.025 -0.4349  0.0276 -0.0814
  596DG      C213687   1.710   2.453   5.614 -0.6229 -0.5859  0.4658
  596DG      H313688   1.389   2.432   4.919 -0.4356 -0.4735 -0.1962
  596DG      H413689   1.313   2.457   5.076 -1.8904  0.3514 -2.6480
  596DG      H513690   1.384   2.300   5.023 -2.6079  0.2531 -2.0404
  596DG      H613691   1.605   2.444   5.643 -0.9920 -1.8785 -1.1123
  596DG      H713692   1.756   2.354   5.616  0.0100 -0.3273  3.6086
  596DG      H813693   1.753   2.517   5.691 -0.8799  2.2704 -1.6226
  596DG      O913694   1.518   2.435   5.095 -0.1757  0.5438  0.0642
  596DG     O1013695   1.713   2.511   5.483  0.1691 -0.0963  0.3043
  596DG     C1113696   1.635   2.442   5.012  0.0906  0.0726  0.0353
  596DG     C1213697   1.849   2.522   5.436 -0.2557 -0.7548  0.1323
  596DG     H1313698   1.611   2.501   4.924 -1.7129  1.2761  1.2534
  596DG     H1413699   1.666   2.340   4.992 -0.7687 -0.1110 -0.4170
  596DG     H1513700   1.901   2.427   5.449 -0.8558 -1.0052  0.8053
  596DG     H1613701   1.899   2.603   5.490  1.0714 -1.6102  0.2441
  596DG     C1713702   1.738   2.529   5.083 -0.3184  0.2391  0.8429
  596DG     C1813703   1.835   2.569   5.291 -0.1947  0.1289  0.9239
  596DG     O1913704   1.755   2.487   5.216 -0.0659  0.1592 -0.2336
  596DG     H2013705   1.692   2.627   5.089 -1.6326 -0.3172  0.2693
  596DG     H2113706   1.835   2.527   5.032 -0.3360 -0.9339  0.8270
  596DG     H2213707   1.793   2.669   5.293 -0.5649 -0.0171  0.5521
  596DG     H2313708   1.929   2.578   5.237 -1.5330 -0.3837 -1.6757
  597DG      C113709   0.936   4.578   4.383  0.1064  0.1689  0.4142
  597DG      C213710   0.804   4.251   3.903  0.6736  0.3843  0.2598
  597DG      H313711   0.978   4.636   4.465 -0.8250 -0.4074  1.3362
  597DG      H413712   1.020   4.515   4.356  0.3566  1.5153 -2.1961
  597DG      H513713   0.857   4.512   4.421  0.2726 -0.2488  0.0480
  597DG      H613714   0.804   4.240   3.794  0.8433  1.5534  0.1282
  597DG      H713715   0.896   4.201   3.933  0.5085 -0.7107 -0.9288
  597DG      H813716   0.720   4.190   3.936  1.7091 -0.6011  1.1393
  597DG      O913717   0.895   4.645   4.264  0.1073 -0.6078  0.5623
  597DG     O1013718   0.812   4.384   3.947  0.5574  0.3707 -0.3156
  597DG     C1113719   0.776   4.718   4.281  0.5655 -0.2250  0.1086
  597DG     C1213720   0.723   4.474   3.879 -0.3523 -0.3778  0.9837
  597DG     H1313721   0.799   4.815   4.324 -1.9393  0.4619  0.0617
  597DG     H1413722   0.708   4.664   4.347  1.6895 -2.5230 -0.5094
  597DG     H1513723   0.620   4.437   3.886 -0.9414  0.5692 -1.6814
  597DG     H1613724   0.753   4.471   3.775  2.1175 -1.1261  1.6572
  597DG     C1713725   0.723   4.743   4.139  0.6845  0.0244  0.6543
  597DG     C1813726   0.743   4.612   3.942 -0.3555  0.1864  0.6944
  597DG     O1913727   0.720   4.613   4.082  0.3067 -0.2218 -0.5914
  597DG     H2013728   0.783   4.818   4.085  0.1603  0.4155  0.6079
  597DG     H2113729   0.628   4.793   4.155 -0.0807 -1.0329 -0.4397
  597DG     H2213730   0.848   4.638   3.932 -0.0511 -1.3625 -0.4705
  597DG     H2313731   0.684   4.688   3.889  2.0652  0.6776 -1.5295
  598DG      C113732   5.037   3.340   0.027  0.4261 -0.2795 -0.2349
  598DG      C213733   4.969   3.903   0.434  0.7918 -0.7515  0.4282
  598DG      H313734   5.030   3.279  -0.064  2.1974 -1.6432  0.4926
  598DG      H413735   5.052   3.261   0.101  0.5204 -0.6003 -0.5925
  598DG      H513736   5.138   3.380   0.026  0.9606 -1.5406  0.6787
  598DG      H613737   4.949   4.010   0.433  0.9732 -0.6870  1.8963
  598DG      H713738   4.926   3.853   0.521 -1.5308  2.0083  1.0149
  598DG      H813739   5.077   3.905   0.442  0.7625  0.1495  0.7025
  598DG      O913740   4.928   3.428   0.053 -0.4544 -0.4777 -0.2084
  598DG     O1013741   4.908   3.853   0.315 -0.0794 -0.1883  0.2022
  598DG     C1113742   4.917   3.533  -0.040  0.1730 -0.3761 -0.0721
  598DG     C1213743   4.771   3.831   0.310 -0.5567 -0.5239 -0.8418
  598DG     H1313744   4.908   3.486  -0.138  1.0389  4.1755 -2.5746
  598DG     H1413745   5.018   3.572  -0.046  0.6584 -1.4549  0.7057
  598DG     H1513746   4.714   3.918   0.343 -0.5292 -0.6510 -0.4532
  598DG     H1613747   4.751   3.753   0.383 -0.6694  2.4668  2.5882
  598DG     C1713748   4.812   3.641  -0.011 -0.0826 -0.1043 -0.7883
  598DG     C1813749   4.744   3.780   0.174  0.2068  0.3128  0.0462
  598DG     O1913750   4.847   3.688   0.118  0.3519  0.0620  0.4714
  598DG     H2013751   4.711   3.603   0.001 -0.8943  1.7920 -1.2134
  598DG     H2113752   4.819   3.723  -0.083  0.1231  0.3844 -0.2163
  598DG     H2213753   4.646   3.733   0.168  0.4407  0.0059 -2.3550
  598DG     H2313754   4.744   3.858   0.098 -0.8748  0.4084  0.1206
  599DG      C113755   1.202   2.738   3.714  0.3928  0.7051  0.3919
  599DG      C213756   1.150   3.092   3.149  0.1532  0.2477 -0.4127
  599DG      H313757   1.254   2.667   3.777  1.4948  0.4719 -0.7413
  599DG      H413758   1.096   2.727   3.739 -0.1517  0.2458 -1.9005
  599DG      H513759   1.237   2.832   3.756  1.3341  1.3566 -1.6862
  599DG      H613760   1.056   3.126   3.192  0.9565  0.0677  1.5643
  599DG      H713761   1.224   3.168   3.178 -0.5755  1.1457 -0.8341
  599DG      H813762   1.138   3.095   3.040  0.6278  0.4645 -0.4630
  599DG      O913763   1.226   2.723   3.571  0.3225  0.2368 -0.1052
  599DG     O1013764   1.188   2.966   3.197 -0.2544 -0.0606 -0.5036
  599DG     C1113765   1.361   2.704   3.535  0.3340  0.6022 -0.1125
  599DG     C1213766   1.307   2.918   3.132 -0.1104  0.3821 -0.5748
  599DG     H1313767   1.397   2.620   3.594 -0.4235  0.7498  0.5732
  599DG     H1413768   1.420   2.791   3.563  0.0118  0.8833 -0.2966
  599DG     H1513769   1.392   2.985   3.146 -0.1933  0.3546  0.0687
  599DG     H1613770   1.291   2.901   3.026 -0.8498  0.9806 -0.5707
  599DG     C1713771   1.377   2.669   3.382  0.3993  0.1340  0.1336
  599DG     C1813772   1.335   2.775   3.176 -0.1768 -0.0768  0.0689
  599DG     O1913773   1.330   2.781   3.312 -0.0126  0.4980 -0.0563
  599DG     H2013774   1.323   2.579   3.353 -0.7428  0.2119  1.8894
  599DG     H2113775   1.482   2.660   3.353  0.3664  1.3569 -0.4803
  599DG     H2213776   1.259   2.708   3.135 -0.3700 -1.4148  2.4455
  599DG     H2313777   1.432   2.748   3.133 -0.0280 -1.2434  1.1064
  600DG      C113778   1.254   3.287   0.127  0.3165  0.3761 -0.2125
  600DG      C213779   1.077   3.085  -0.440  0.0698 -1.5426  0.0351
  600DG      H313780   1.294   3.384   0.156  1.4468  0.0532 -0.6734
  600DG      H413781   1.327   3.234   0.067  2.7586  2.1744  0.9893
  600DG      H513782   1.222   3.231   0.216 -1.8117  3.2210  0.9848
  600DG      H613783   1.097   3.001  -0.373 -0.9469 -1.0688  0.9739
  600DG      H713784   1.015   3.034  -0.514 -0.5564 -2.1929  0.9692
  600DG      H813785   1.171   3.125  -0.477 -1.0916 -0.3018 -1.7193
  600DG      O913786   1.133   3.301   0.053  0.4722 -0.2162 -0.1433
  600DG     O1013787   1.010   3.195  -0.373  0.0381 -0.1270  0.6680
  600DG     C1113788   1.158   3.364  -0.075 -0.3705  0.5219  0.2109
  600DG     C1213789   0.987   3.312  -0.459  0.1448 -0.2039  0.0776
  600DG     H1313790   1.206   3.287  -0.135  1.0564  0.1362  1.7759
  600DG     H1413791   1.211   3.459  -0.069  1.2558 -0.4477  2.2331
  600DG     H1513792   0.911   3.279  -0.531  1.7574 -0.5088 -1.5703
  600DG     H1613793   1.079   3.327  -0.515  1.0071  2.2895  1.9851
  600DG     C1713794   1.026   3.397  -0.149 -0.4415  0.0095  0.5515
  600DG     C1813795   0.957   3.441  -0.385  0.3732  0.2615 -0.1503
  600DG     O1913796   1.058   3.450  -0.281 -0.2707 -0.5699  0.0011
  600DG     H2013797   0.963   3.476  -0.107 -1.7639 -1.2189  0.9840
  600DG     H2113798   0.958   3.311  -0.155 -3.6260  2.4168 -0.4229
  600DG     H2213799   0.968   3.530  -0.446  0.8993 -1.2434 -2.3591
  600DG     H2313800   0.859   3.443  -0.335 -0.6345 -4.8040 -1.3734
  601DG      C113801   4.981   0.450   0.526 -0.7645  0.1349  0.6054
  601DG      C213802   5.249   0.902   0.088  0.4822 -0.2954  0.1111
  601DG      H313803   4.966   0.369   0.455 -0.2426  0.6608 -0.1223
  601DG      H413804   4.915   0.533   0.501 -1.7477 -0.7998  0.0120
  601DG      H513805   4.983   0.430   0.633  2.7024  0.1962  0.6764
  601DG      H613806   5.318   0.898   0.004 -0.0097  1.4952 -0.4239
  601DG      H713807   5.171   0.827   0.072 -0.4255  0.4528  0.9378
  601DG      H813808   5.197   0.996   0.077 -0.3516 -0.7801 -0.1383
  601DG      O913809   5.116   0.478   0.492  0.2115 -0.0446  0.3729
  601DG     O1013810   5.307   0.900   0.217 -0.2240  0.1610 -0.7122
  601DG     C1113811   5.172   0.572   0.579  0.2789 -0.3408  0.1418
  601DG     C1213812   5.407   0.795   0.231  0.1355 -0.3270 -1.1893
  601DG     H1313813   5.193   0.531   0.678 -0.5720 -0.2047  0.3825
  601DG     H1413814   5.110   0.660   0.593 -0.6457 -1.1195  1.0557
  601DG     H1513815   5.501   0.831   0.189 -0.0376  1.5622 -0.0648
  601DG     H1613816   5.388   0.703   0.175 -1.3109 -0.8925  0.1773
  601DG     C1713817   5.312   0.608   0.520  0.2579 -0.3239 -0.5913
  601DG     C1813818   5.420   0.758   0.375  0.0182  0.3619  0.0307
  601DG     O1913819   5.303   0.687   0.404  0.0118  0.5229  0.7718
  601DG     H2013820   5.380   0.523   0.520  1.6919  0.7402 -1.6800
  601DG     H2113821   5.348   0.681   0.592  1.3357 -0.2128 -1.2093
  601DG     H2213822   5.505   0.692   0.390  0.2636  0.4726 -0.8186
  601DG     H2313823   5.434   0.841   0.445  1.1967 -0.2535  0.5487
  602DG      C113824   2.788   4.422   1.303 -0.8261  0.7634  0.2812
  602DG      C213825   3.000   4.955   1.135 -0.7808 -0.7024 -0.1523
  602DG      H313826   2.711   4.349   1.278 -1.5935  1.8142 -0.5492
  602DG      H413827   2.801   4.404   1.409  0.1756  0.0743  0.0654
  602DG      H513828   2.881   4.399   1.249 -0.0396  2.4956  0.8451
  602DG      H613829   3.090   4.894   1.130 -0.3074 -0.0228 -0.0148
  602DG      H713830   2.931   4.930   1.054  0.8950 -0.2337 -1.8042
  602DG      H813831   3.033   5.057   1.116 -0.9853 -0.8096 -1.1430
  602DG      O913832   2.748   4.543   1.260  0.1711  0.6071  0.9173
  602DG     O1013833   2.927   4.953   1.259  0.0117  0.6853 -0.2685
  602DG     C1113834   2.628   4.592   1.309 -0.1337  0.3242 -0.2440
  602DG     C1213835   2.806   5.022   1.266 -0.9362  0.1229  0.0197
  602DG     H1313836   2.628   4.606   1.417 -0.3667 -0.5196 -0.1297
  602DG     H1413837   2.539   4.532   1.289  0.3898  0.4448 -3.7137
  602DG     H1513838   2.808   5.123   1.223 -0.4729  0.4883  0.8688
  602DG     H1613839   2.802   5.046   1.372 -0.4919 -2.6637  0.7342
  602DG     C1713840   2.595   4.723   1.241  0.1113  0.0324  0.4848
  602DG     C1813841   2.687   4.946   1.219 -0.8672  0.7850  0.8025
  602DG     O1913842   2.694   4.811   1.282  0.6175 -0.2222 -0.0131
  602DG     H2013843   2.497   4.752   1.277 -0.2089  0.2217 -0.5276
  602DG     H2113844   2.576   4.719   1.134 -0.5299 -0.9168  0.6310
  602DG     H2213845   2.595   4.995   1.253 -0.9098 -0.1600  2.1639
  602DG     H2313846   2.687   4.930   1.111 -0.4489 -0.0078  0.9107
  603DG      C113847   1.801   3.026   2.501 -0.0048  0.3265  0.4504
  603DG      C213848   2.251   2.680   2.326 -0.1814 -0.0455 -0.7941
  603DG      H313849   1.766   3.130   2.497 -1.5570 -0.2066 -2.7572
  603DG      H413850   1.862   3.018   2.591 -1.0130  2.6491  1.4265
  603DG      H513851   1.717   2.957   2.510  1.4802 -1.5860  0.2744
  603DG      H613852   2.298   2.731   2.410 -2.2742  1.3787 -0.4009
  603DG      H713853   2.166   2.622   2.363 -0.3675  0.0919 -1.0005
  603DG      H813854   2.320   2.607   2.284  2.2045  2.0361 -0.7643
  603DG      O913855   1.876   3.004   2.382  0.0154 -0.4221 -0.3931
  603DG     O1013856   2.201   2.777   2.231 -0.2545 -0.2110  0.1599
  603DG     C1113857   1.791   2.977   2.271  0.5452  0.5672 -0.3257
  603DG     C1213858   2.138   2.733   2.113  0.4561  0.2073 -0.2100
  603DG     H1313859   1.713   3.051   2.260 -0.9214 -0.5560  1.8203
  603DG     H1413860   1.755   2.877   2.293 -1.1057  0.5342 -2.8475
  603DG     H1513861   2.073   2.650   2.140 -1.4446  1.1510 -1.7071
  603DG     H1613862   2.212   2.701   2.039  2.2213  2.6401  0.3715
  603DG     C1713863   1.867   2.972   2.139  0.1712 -0.3865  0.1027
  603DG     C1813864   2.056   2.848   2.060  0.1586 -0.5561  0.2691
  603DG     O1913865   1.957   2.864   2.157  0.4879  0.0136  0.0347
  603DG     H2013866   1.920   3.064   2.118 -0.2130 -0.5815 -1.9102
  603DG     H2113867   1.799   2.953   2.055 -0.6321  1.5216  0.2825
  603DG     H2213868   2.118   2.935   2.035  0.0186 -0.8808 -1.3138
  603DG     H2313869   2.009   2.824   1.964 -1.3902  1.2631  0.5266
  604DG      C113870   5.008   1.436   3.867 -0.6767 -0.3259 -0.1324
  604DG      C213871   5.158   2.185   3.575  0.5095 -0.3072 -0.1957
  604DG      H313872   5.054   1.340   3.843  0.0871 -0.1742  0.6945
  604DG      H413873   4.905   1.410   3.893 -0.4668  0.0030  1.0458
  604DG      H513874   5.057   1.481   3.953  0.7338 -0.7101 -0.7175
  604DG      H613875   5.052   2.202   3.588  0.6281 -0.2668  0.7784
  604DG      H713876   5.208   2.244   3.651 -0.8985 -0.7806  1.1311
  604DG      H813877   5.196   2.237   3.486 -0.3598  1.4147  0.3996
  604DG      O913878   5.018   1.512   3.747 -0.6063 -0.0344  0.1885
  604DG     O1013879   5.204   2.052   3.589 -0.2333  0.1292 -0.1258
  604DG     C1113880   5.161   1.540   3.724  0.5321 -0.5712  0.7636
  604DG     C1213881   5.115   1.970   3.510 -0.0449  0.1885  0.0439
  604DG     H1313882   5.216   1.449   3.702  2.3214  1.2154 -2.9477
  604DG     H1413883   5.203   1.592   3.810  1.6280 -0.0246 -0.0748
  604DG     H1513884   5.103   2.006   3.408  1.8302 -0.8234 -0.5771
  604DG     H1613885   5.013   1.968   3.550 -0.0435 -1.4024  0.0173
  604DG     C1713886   5.176   1.619   3.602  0.0084 -0.5283  0.1096
  604DG     C1813887   5.155   1.829   3.490  0.1090 -0.6833 -0.1530
  604DG     O1913888   5.139   1.758   3.610  0.0369 -0.0844  0.3785
  604DG     H2013889   5.124   1.571   3.518 -1.7559 -0.2045  0.9720
  604DG     H2113890   5.283   1.618   3.581 -0.2916  0.7253 -1.7294
  604DG     H2213891   5.085   1.781   3.421 -0.1230 -0.2157 -0.2511
  604DG     H2313892   5.250   1.821   3.438  0.1346 -2.3651  0.1110
  605DG      C113893   1.973   5.182   3.020  1.2273 -0.2165  0.2384
  605DG      C213894   1.652   5.185   2.465 -0.2569 -0.9606  0.0360
  605DG      H313895   1.941   5.169   3.124 -0.3947 -2.6046 -0.4773
  605DG      H413896   2.074   5.222   3.020  1.6024 -1.0191 -1.8781
  605DG      H513897   1.990   5.082   2.981 -0.8631 -0.7061  0.4347
  605DG      H613898   1.594   5.101   2.428 -1.3172 -0.8455  1.3719
  605DG      H713899   1.647   5.272   2.399 -0.0916 -0.4822  0.6349
  605DG      H813900   1.760   5.167   2.465  0.2887  1.8163 -0.4720
  605DG      O913901   1.900   5.267   2.921 -0.3158 -0.4092  0.3359
  605DG     O1013902   1.599   5.239   2.589 -0.3387 -0.4014  0.6373
  605DG     C1113903   1.889   5.397   2.968  0.1720 -0.4057 -0.1975
  605DG     C1213904   1.694   5.322   2.658 -0.3680 -0.2690  0.3076
  605DG     H1313905   1.977   5.455   2.994 -1.2852  1.4453  0.8451
  605DG     H1413906   1.820   5.410   3.052 -0.6462  2.5391 -1.2301
  605DG     H1513907   1.714   5.418   2.611  1.2274 -0.5473  0.3647
  605DG     H1613908   1.789   5.271   2.673  0.6154  0.7990 -1.8521
  605DG     C1713909   1.818   5.483   2.859 -0.3248 -0.2380  0.1913
  605DG     C1813910   1.629   5.345   2.795  0.4626 -0.1428 -0.2234
  605DG     O1913911   1.678   5.462   2.853  0.0569 -0.1907 -0.3330
  605DG     H2013912   1.872   5.472   2.765  1.4997 -2.1024  1.3596
  605DG     H2113913   1.824   5.589   2.883 -3.0321 -0.2415  1.2724
  605DG     H2213914   1.521   5.356   2.787  0.1859 -2.4699 -0.1634
  605DG     H2313915   1.653   5.265   2.864  2.7979  1.1369  0.5418
  606DG      C113916   0.452   3.051   3.861  0.8386  0.0069 -0.3392
  606DG      C213917   0.883   2.868   4.368  0.4207  0.1748  0.3989
  606DG      H313918   0.439   3.124   3.940  1.3983  1.1227 -1.2471
  606DG      H413919   0.355   3.038   3.812  0.8416  0.0037 -0.3444
  606DG      H513920   0.531   3.088   3.796  0.1594  2.8156  0.3209
  606DG      H613921   0.957   2.931   4.319  1.0157 -0.5907  0.2964
  606DG      H713922   0.820   2.931   4.430 -1.3878 -0.5253 -0.6577
  606DG      H813923   0.954   2.799   4.413  2.6124  2.5915  0.8763
  606DG      O913924   0.491   2.938   3.933 -0.0497  0.1409 -0.2692
  606DG     O1013925   0.793   2.814   4.275  0.0935 -0.2463  0.1724
  606DG     C1113926   0.493   2.816   3.862  0.8051  0.9454 -0.3527
  606DG     C1213927   0.834   2.709   4.194  0.2515  0.0548 -0.0364
  606DG     H1313928   0.562   2.818   3.777  1.1777 -3.9671 -0.4164
  606DG     H1413929   0.396   2.787   3.821  1.4440  0.9107 -1.8958
  606DG     H1513930   0.874   2.625   4.252  2.2618  0.5417 -0.6449
  606DG     H1613931   0.918   2.742   4.132 -0.1704  2.1176  0.4158
  606DG     C1713932   0.545   2.693   3.945 -0.3813  0.2026  0.1413
  606DG     C1813933   0.716   2.651   4.107 -0.1846  0.4739  0.4108
  606DG     O1913934   0.663   2.742   4.016  0.3248 -0.4496 -0.7410
  606DG     H2013935   0.564   2.613   3.874  0.7727  0.7844 -0.2387
  606DG     H2113936   0.462   2.663   4.009 -1.6785  0.4808 -1.3484
  606DG     H2213937   0.749   2.557   4.063 -1.8696 -0.8399  1.8055
  606DG     H2313938   0.635   2.617   4.172 -0.3023 -0.8400 -0.3954
  607DG      C113939   3.423   3.962   3.852 -0.2567  0.0032 -0.1809
  607DG      C213940   3.600   3.275   3.650 -0.3744 -0.0316  0.4308
  607DG      H313941   3.351   4.044   3.839 -1.4489 -1.0655 -0.5140
  607DG      H413942   3.516   3.995   3.897  0.0691  2.1475 -2.2433
  607DG      H513943   3.373   3.897   3.924  0.3363 -1.4033 -1.0103
  607DG      H613944   3.687   3.256   3.714 -0.7917 -0.3130  0.9232
  607DG      H713945   3.512   3.247   3.707  0.3437 -0.6745  1.2567
  607DG      H813946   3.615   3.203   3.570 -1.4614  0.4625 -0.2406
  607DG      O913947   3.454   3.897   3.724 -0.6657  0.6144 -0.9157
  607DG     O1013948   3.595   3.410   3.607  0.0465  0.0659  0.0151
  607DG     C1113949   3.338   3.875   3.646  0.0951  1.0782 -0.4735
  607DG     C1213950   3.469   3.422   3.540 -0.5990 -0.0094  0.2083
  607DG     H1313951   3.282   3.963   3.615 -2.6509  0.0031  1.0687
  607DG     H1413952   3.269   3.828   3.716  0.3880  0.6300 -0.4807
  607DG     H1513953   3.383   3.397   3.603  0.0134 -1.2807  0.5754
  607DG     H1613954   3.453   3.343   3.467  3.3345 -1.6491  0.9004
  607DG     C1713955   3.374   3.787   3.526  0.2915 -0.4426 -0.1693
  607DG     C1813956   3.443   3.568   3.474 -0.2748  0.4629  0.2895
  607DG     O1913957   3.420   3.659   3.577 -0.2532 -0.7025 -0.2243
  607DG     H2013958   3.456   3.829   3.467 -0.1075 -1.9558 -1.9041
  607DG     H2113959   3.286   3.776   3.463 -0.7781 -1.7984  1.4768
  607DG     H2213960   3.521   3.613   3.412 -1.0276  2.2464  0.5779
  607DG     H2313961   3.354   3.569   3.410 -0.1171 -2.8850 -0.1751
  608DG      C113962   3.537   0.133   0.848 -0.1617  0.1461 -0.4348
  608DG      C213963   3.505  -0.528   1.026  0.3946 -0.2423 -0.4691
  608DG      H313964   3.500   0.213   0.913 -0.0914  0.0789 -0.3113
  608DG      H413965   3.535   0.175   0.747 -0.9155 -1.4575 -1.1272
  608DG      H513966   3.636   0.102   0.879  0.4067  1.0446 -1.2998
  608DG      H613967   3.614  -0.523   1.027  0.3743  0.1652 -0.4402
  608DG      H713968   3.475  -0.544   1.130 -3.7170  1.0944 -1.2750
  608DG      H813969   3.472  -0.617   0.972 -1.7774  0.1102  0.1704
  608DG      O913970   3.456   0.018   0.834 -0.2057 -0.7059  0.4375
  608DG     O1013971   3.447  -0.411   0.967  0.1782  0.3171  0.1643
  608DG     C1113972   3.328   0.036   0.776 -0.2941  0.6353  0.6065
  608DG     C1213973   3.312  -0.436   0.928  0.1351  0.4032 -0.2223
  608DG     H1313974   3.344   0.085   0.679  1.6021  1.7517  1.4175
  608DG     H1413975   3.255   0.095   0.830  0.5414  1.5411  0.7911
  608DG     H1513976   3.254  -0.424   1.020  2.6105 -0.4488  1.5565
  608DG     H1613977   3.292  -0.536   0.888 -1.1378 -0.4039  2.2386
  608DG     C1713978   3.275  -0.103   0.753  0.4387  0.5667 -0.1716
  608DG     C1813979   3.269  -0.334   0.817 -0.4228  0.2878  0.6011
  608DG     O1913980   3.304  -0.198   0.855 -0.1393 -0.2056 -0.3500
  608DG     H2013981   3.326  -0.138   0.663 -1.8718  1.5304 -1.9484
  608DG     H2113982   3.169  -0.099   0.728 -0.2317 -2.1093  1.8435
  608DG     H2213983   3.304  -0.360   0.717  0.4006 -0.9469  1.1791
  608DG     H2313984   3.161  -0.339   0.814 -0.4211 -0.3395  1.1515
  609DG      C113985   0.345   2.283   5.144 -0.3088 -0.2480 -0.4501
  609DG      C213986   0.780   2.027   5.165 -0.1288 -0.3368 -0.7272
  609DG      H313987   0.410   2.240   5.068  1.4963  0.6561  0.5335
  609DG      H413988   0.364   2.390   5.148 -1.0506 -0.1334  2.8011
  609DG      H513989   0.239   2.259   5.135 -0.4215 -0.5415  1.2715
  609DG      H613990   0.823   2.025   5.065 -1.1068  2.4551 -1.2692
  609DG      H713991   0.798   1.929   5.211 -0.2604  0.3867  0.9203
  609DG      H813992   0.672   2.043   5.159 -0.6095 -1.8247  1.9579
  609DG      O913993   0.368   2.244   5.274  0.4637 -0.0040 -0.1921
  609DG     O1013994   0.827   2.136   5.237 -0.1659 -0.3098 -0.2604
  609DG     C1113995   0.388   2.100   5.298  0.0600 -0.4446 -0.0172
  609DG     C1213996   0.856   2.115   5.371  0.1716  0.3544  0.1804
  609DG     H1313997   0.423   2.048   5.209 -0.8009  0.3869 -0.8609
  609DG     H1413998   0.293   2.053   5.325 -1.2536  0.7935 -2.2192
  609DG     H1513999   0.895   2.214   5.394  0.4879  0.4507 -0.7274
  609DG     H1614000   0.942   2.049   5.384 -0.2921  0.0558  2.0902
  609DG     C1714001   0.484   2.081   5.415 -0.8117  0.1326  0.6140
  609DG     C1814002   0.725   2.075   5.450  0.0262 -0.4294  0.6795
  609DG     O1914003   0.616   2.135   5.386 -0.1105 -0.6209  0.0759
  609DG     H2014004   0.494   1.977   5.445 -0.2503  0.2259  0.7605
  609DG     H2114005   0.436   2.129   5.501 -1.3780  0.4971  0.1080
  609DG     H2214006   0.712   1.967   5.443 -0.2564 -0.3253 -0.6673
  609DG     H2314007   0.722   2.104   5.555 -1.1245  3.4608 -0.2621
  610DG      C114008   3.020   4.461   4.939  1.5013  0.3726 -0.1754
  610DG      C214009   3.263   4.224   5.537  0.3926 -0.2637 -0.3665
  610DG      H314010   3.118   4.507   4.957  0.4157  2.3660  1.0461
  610DG      H414011   2.941   4.536   4.935 -0.8697 -1.9722  0.0208
  610DG      H514012   3.021   4.423   4.837  0.4521  1.0259 -0.4488
  610DG      H614013   3.356   4.182   5.499  0.6646 -0.6612  0.7122
  610DG      H714014   3.285   4.331   5.541  3.2658 -0.6809 -2.1562
  610DG      H814015   3.232   4.188   5.635  1.4478 -1.3875 -0.4319
  610DG      O914016   2.988   4.380   5.052 -0.6436  0.2636  0.0952
  610DG     O1014017   3.155   4.208   5.444 -0.1761 -0.7501 -0.1618
  610DG     C1114018   2.891   4.278   5.027 -1.1872  0.3957  0.0969
  610DG     C1214019   3.099   4.078   5.429  0.3838 -0.3090 -0.6263
  610DG     H1314020   2.931   4.212   4.950 -1.8959 -0.8520  0.7751
  610DG     H1414021   2.796   4.325   5.000 -2.5596 -3.3397 -2.2722
  610DG     H1514022   3.075   4.041   5.528  0.8815  0.7396 -0.0971
  610DG     H1614023   3.174   4.014   5.383  0.6356  0.5477 -1.4537
  610DG     C1714024   2.861   4.202   5.153  0.0255  0.0758 -0.0227
  610DG     C1814025   2.970   4.113   5.353 -0.7465  0.0517 -0.6635
  610DG     O1914026   2.983   4.172   5.224 -0.8388  0.6451 -0.4192
  610DG     H2014027   2.812   4.105   5.142  0.7043 -0.3775  0.8008
  610DG     H2114028   2.795   4.261   5.217 -0.8544 -1.0895  0.1767
  610DG     H2214029   2.907   4.025   5.360 -0.2321 -0.2378  0.6796
  610DG     H2314030   2.914   4.184   5.414 -0.0969 -0.7919  0.9701
  611DG      C114031   3.513   4.355   1.196 -0.2983  0.1218 -0.7758
  611DG      C214032   3.279   3.972   1.896  0.0748 -0.4197  0.4590
  611DG      H314033   3.575   4.441   1.171 -0.2678 -0.1203 -1.5448
  611DG      H414034   3.418   4.359   1.143  0.2152  0.7769 -1.6676
  611DG      H514035   3.566   4.261   1.178  0.5884  0.4807 -0.1101
  611DG      H614036   3.215   4.000   1.980 -0.8361 -0.9645 -0.0342
  611DG      H714037   3.225   3.904   1.831  2.3350 -1.4821 -0.4155
  611DG      H814038   3.356   3.905   1.934  1.0505  0.0072 -0.7025
  611DG      O914039   3.473   4.346   1.331  0.0274 -0.1346 -0.1585
  611DG     O1014040   3.335   4.084   1.831  0.4384 -0.1277  0.2620
  611DG     C1114041   3.566   4.293   1.420  0.2691  0.0230 -0.5811
  611DG     C1214042   3.244   4.159   1.751  0.4716 -0.1810 -0.7668
  611DG     H1314043   3.662   4.339   1.399 -0.0514 -0.1923 -2.7476
  611DG     H1414044   3.575   4.184   1.417  0.1583 -0.0180  0.4039
  611DG     H1514045   3.161   4.193   1.813  0.2271  1.2765 -1.8475
  611DG     H1614046   3.197   4.113   1.665  0.5733 -0.4998 -0.6526
  611DG     C1714047   3.517   4.325   1.561  0.9750  0.1412  0.8060
  611DG     C1814048   3.319   4.283   1.694 -0.4751  0.0658  0.0920
  611DG     O1914049   3.407   4.238   1.588 -1.0884 -0.1855  0.3725
  611DG     H2014050   3.495   4.432   1.564  1.2544  0.1789  2.4168
  611DG     H2114051   3.591   4.297   1.636  0.5685 -1.2565  0.7158
  611DG     H2214052   3.264   4.358   1.637 -1.4236 -1.2116 -0.7308
  611DG     H2314053   3.377   4.338   1.768 -0.1908  0.1852 -0.2162
  612DG      C114054   1.544   1.866   3.385  0.2041 -0.5226 -0.4678
  612DG      C214055   1.720   1.932   2.742  0.2210 -0.7352  0.2568
  612DG      H314056   1.646   1.903   3.385  1.4353 -3.5691 -0.8377
  612DG      H414057   1.544   1.759   3.408  0.4806 -0.4948 -0.3378
  612DG      H514058   1.503   1.921   3.470 -1.4819 -0.9741 -0.9390
  612DG      H614059   1.753   1.830   2.726  1.1507 -0.3185 -0.6077
  612DG      H714060   1.676   1.975   2.653  1.6698 -1.0656 -0.6458
  612DG      H814061   1.794   1.996   2.790 -0.3823 -0.9275  1.4850
  612DG      O914062   1.470   1.918   3.270 -0.9683 -0.4469  0.3628
  612DG     O1014063   1.613   1.935   2.838 -0.0406 -0.4650  0.0117
  612DG     C1114064   1.347   1.850   3.238 -0.5277  0.1298  0.2033
  612DG     C1214065   1.506   1.854   2.797  0.4528  0.3938  0.7251
  612DG     H1314066   1.273   1.878   3.314  0.4043  3.2365  0.1202
  612DG     H1414067   1.361   1.742   3.233  0.0002  0.2401 -0.7776
  612DG     H1514068   1.524   1.748   2.816 -0.2400  0.5777  2.7162
  612DG     H1614069   1.476   1.871   2.694  0.5449 -1.1456  0.4338
  612DG     C1714070   1.309   1.886   3.096  0.1203 -0.2416  0.0328
  612DG     C1814071   1.387   1.910   2.879  0.3435  0.0718 -0.2315
  612DG     O1914072   1.422   1.883   3.010 -0.3953 -0.6047 -0.3084
  612DG     H2014073   1.266   1.986   3.094  0.4911 -0.0229  1.4494
  612DG     H2114074   1.229   1.824   3.055 -0.6870  0.2149  0.8701
  612DG     H2214075   1.379   2.018   2.868  0.2348  0.2853  1.6813
  612DG     H2314076   1.297   1.858   2.845  0.7184 -0.3668 -0.5705
  613DG      C114077   1.027   5.486   3.417  0.3179  0.2879  0.5307
  613DG      C214078   1.498   4.896   3.322 -0.3289 -0.2406 -0.3586
  613DG      H314079   1.106   5.468   3.344  1.8221  1.4332  1.8051
  613DG      H414080   1.037   5.593   3.435 -1.5034  0.7382 -0.8399
  613DG      H514081   0.932   5.465   3.368 -0.4923  0.9413  1.7861
  613DG      H614082   1.408   4.857   3.274 -0.4258 -0.4854  0.0227
  613DG      H714083   1.589   4.877   3.264  1.0473 -0.7347  1.8569
  613DG      H814084   1.512   4.851   3.420  0.4386  0.0763 -0.3193
  613DG      O914085   1.024   5.402   3.531  0.3288 -0.0897 -0.2301
  613DG     O1014086   1.470   5.039   3.343 -0.9593 -0.3037 -0.4216
  613DG     C1114087   1.127   5.434   3.625 -0.0586 -0.1691  0.1153
  613DG     C1214088   1.348   5.067   3.400  0.2497  0.0991  0.6807
  613DG     H1314089   1.099   5.378   3.714  1.5194 -0.4493  0.4583
  613DG     H1414090   1.119   5.540   3.652  1.4728 -0.5187  2.1865
  613DG     H1514091   1.318   5.002   3.482 -2.9587  1.2146  0.5308
  613DG     H1614092   1.276   5.065   3.319 -0.5267  1.0292  1.3151
  613DG     C1714093   1.262   5.391   3.573 -0.4520  0.1924 -0.3331
  613DG     C1814094   1.361   5.207   3.460 -0.5259  0.2727 -0.5315
  613DG     O1914095   1.240   5.256   3.518 -0.6036  0.2793  0.3398
  613DG     H2014096   1.332   5.400   3.656 -1.2726 -0.0028  0.4060
  613DG     H2114097   1.299   5.456   3.494 -1.5373 -0.0100 -1.0322
  613DG     H2214098   1.447   5.215   3.526  0.3082  3.0074 -1.7806
  613DG     H2314099   1.404   5.283   3.394 -0.6494  0.1039 -0.8068
  614DG      C114100   5.064   0.482   1.738 -0.0816  0.5533  0.1847
  614DG      C214101   4.384   0.221   1.550 -0.1166 -0.4209 -0.0893
  614DG      H314102   5.081   0.545   1.651 -1.3874  0.7929  0.0813
  614DG      H414103   5.101   0.385   1.704 -0.9205  0.4022 -0.3348
  614DG      H514104   5.120   0.516   1.825 -2.0726  0.6002  1.5314
  614DG      H614105   4.304   0.211   1.624 -1.3196 -1.8639 -1.5060
  614DG      H714106   4.342   0.286   1.473  0.7570  0.3060  0.0330
  614DG      H814107   4.411   0.119   1.523  0.3497 -0.6198  1.0763
  614DG      O914108   4.927   0.480   1.766 -0.1089 -0.2794 -1.1247
  614DG     O1014109   4.493   0.292   1.609 -0.3610 -0.1234  0.0803
  614DG     C1114110   4.871   0.605   1.791  0.1637 -0.0801  0.4093
  614DG     C1214111   4.459   0.428   1.629 -0.4448 -0.4812 -0.0474
  614DG     H1314112   4.897   0.660   1.700 -0.4148  0.4879  0.5872
  614DG     H1414113   4.910   0.650   1.882 -3.1372 -0.5885  2.2338
  614DG     H1514114   4.358   0.430   1.668  0.4204  1.4187  2.3883
  614DG     H1614115   4.461   0.484   1.535  0.4548  1.8523  1.2557
  614DG     C1714116   4.718   0.596   1.813 -0.0806  0.1176  0.7863
  614DG     C1814117   4.528   0.502   1.742 -0.4174  0.4807 -0.1616
  614DG     O1914118   4.663   0.521   1.705 -0.5397  0.0625  0.4937
  614DG     H2014119   4.676   0.694   1.833 -0.5035  0.3197 -0.9229
  614DG     H2114120   4.708   0.539   1.906 -2.0050  0.6383  0.9536
  614DG     H2214121   4.482   0.601   1.745 -0.5649  0.3931  0.6738
  614DG     H2314122   4.511   0.452   1.837 -1.4398  0.9821 -0.0731
  615DG      C114123   0.489   5.249   0.251 -0.1643  0.1925  0.0157
  615DG      C214124   0.214   5.306   0.875 -0.0956  0.4153 -0.3013
  615DG      H314125   0.598   5.249   0.261 -0.2981 -1.2676  2.3129
  615DG      H414126   0.461   5.247   0.145 -1.8649  0.2738  0.4424
  615DG      H514127   0.447   5.164   0.305  0.8519  1.2433  2.6054
  615DG      H614128   0.176   5.205   0.861  0.5683 -0.0581  1.0700
  615DG      H714129   0.281   5.314   0.961 -2.1626  1.4788  1.2902
  615DG      H814130   0.127   5.366   0.903 -0.0297  1.5855 -2.4092
  615DG      O914131   0.444   5.366   0.312  0.0820  0.2045 -0.1009
  615DG     O1014132   0.274   5.336   0.743  0.1126  0.3896  0.2830
  615DG     C1114133   0.304   5.388   0.290  0.2703 -0.8583  0.0621
  615DG     C1214134   0.338   5.462   0.729  0.2584 -0.8790 -0.5697
  615DG     H1314135   0.237   5.302   0.301 -1.6317  0.3593 -1.2657
  615DG     H1414136   0.299   5.409   0.183 -1.0555  0.2498  0.3089
  615DG     H1514137   0.431   5.466   0.786  0.5825  0.3217 -1.1507
  615DG     H1614138   0.278   5.548   0.759 -0.5685 -2.0710  1.3773
  615DG     C1714139   0.264   5.524   0.371 -0.0392 -0.5841 -0.2202
  615DG     C1814140   0.371   5.497   0.587  0.3801  0.3842 -0.6298
  615DG     O1914141   0.246   5.518   0.519  0.5617 -0.3846 -0.2993
  615DG     H2014142   0.168   5.561   0.334  0.9912  2.3050 -0.2527
  615DG     H2114143   0.333   5.605   0.352 -1.5464  0.9043  0.4278
  615DG     H2214144   0.432   5.586   0.569  0.5560  0.5873  0.8590
  615DG     H2314145   0.433   5.413   0.554  1.4763  0.8825  0.1216
  616DG      C114146   4.132   4.428   0.142  0.4946 -0.4685  0.0441
  616DG      C214147   4.163   4.962   0.403 -0.2026  0.6696  0.1468
  616DG      H314148   4.065   4.486   0.080 -0.8841  0.3655  2.2093
  616DG      H414149   4.123   4.320   0.129  1.6269 -0.7043  0.9691
  616DG      H514150   4.231   4.455   0.105 -0.1084  3.3904  0.8716
  616DG      H614151   4.181   5.055   0.457  2.4411  1.1558 -1.3896
  616DG      H714152   4.182   4.879   0.470  1.9237  0.2061 -0.9458
  616DG      H814153   4.247   4.950   0.335  0.1912  0.1412  0.7154
  616DG      O914154   4.123   4.483   0.274 -1.0240 -0.0576  0.3758
  616DG     O1014155   4.045   4.958   0.338 -0.0703  0.3341  0.0885
  616DG     C1114156   3.994   4.460   0.327  0.3487 -0.7399 -0.0980
  616DG     C1214157   3.935   4.927   0.415 -0.2702  0.7318 -0.5491
  616DG     H1314158   3.984   4.362   0.373 -1.0404 -0.1024  1.0482
  616DG     H1414159   3.917   4.479   0.252  0.5778  1.6986  0.1974
  616DG     H1514160   3.848   4.939   0.350 -0.8553  0.0007  0.0729
  616DG     H1614161   3.929   5.002   0.494  0.4101 -0.1374  0.3564
  616DG     C1714162   3.965   4.570   0.435 -0.0525  0.8318 -0.3117
  616DG     C1814163   3.928   4.789   0.467 -0.5048 -0.3201 -0.7036
  616DG     O1914164   3.940   4.692   0.366 -0.5150 -0.0989 -0.3735
  616DG     H2014165   4.054   4.576   0.499 -0.3991 -0.5528  0.3243
  616DG     H2114166   3.878   4.542   0.493 -0.1187 -0.1552 -0.8734
  616DG     H2214167   4.008   4.777   0.540 -0.6577 -0.0447 -0.4915
  616DG     H2314168   3.846   4.770   0.536  2.1047 -1.4530  2.3724
  617DG      C114169   1.391   0.112   5.259 -0.5153 -0.3451 -0.0504
  617DG      C214170   1.304  -0.174   5.941 -0.2356 -0.0261  0.2806
  617DG      H314171   1.385   0.087   5.153  0.0361 -1.8017  0.2325
  617DG      H414172   1.495   0.119   5.292 -0.1247  1.9015 -1.5155
  617DG      H514173   1.347   0.210   5.280 -0.1771 -0.7397  3.0676
  617DG      H614174   1.219  -0.147   6.004  2.0818  0.8316  3.2366
  617DG      H714175   1.363  -0.248   5.994 -0.4555 -0.8994 -0.6756
  617DG      H814176   1.367  -0.086   5.929  3.0846 -2.2195  0.6204
  617DG      O914177   1.318   0.028   5.338  0.0528  0.0727  0.4898
  617DG     O1014178   1.259  -0.223   5.820 -0.1748 -0.0071  0.1699
  617DG     C1114179   1.365  -0.104   5.329  0.0232  0.4252  0.5255
  617DG     C1214180   1.169  -0.137   5.751 -0.3840  0.0346 -0.3073
  617DG     H1314181   1.468  -0.106   5.362  0.6065 -0.0916 -1.2143
  617DG     H1414182   1.370  -0.139   5.226 -1.3677 -1.7017  1.1105
  617DG     H1514183   1.203  -0.034   5.767  0.3222 -0.1251 -0.7260
  617DG     H1614184   1.075  -0.155   5.804  0.5967 -3.0556  0.6044
  617DG     C1714185   1.273  -0.198   5.408 -0.5437  0.5476  0.5632
  617DG     C1814186   1.153  -0.172   5.604  0.9512 -0.1605 -0.6125
  617DG     O1914187   1.280  -0.161   5.549 -0.5740  0.3920  0.3462
  617DG     H2014188   1.292  -0.305   5.396  0.0002  0.6360  0.5998
  617DG     H2114189   1.172  -0.185   5.369 -0.4915 -1.7081 -0.4693
  617DG     H2214190   1.120  -0.275   5.592 -0.4020 -0.3182  3.0425
  617DG     H2314191   1.078  -0.102   5.566  0.2072  0.9550  2.5693
  618DG      C114192   3.352   3.537   0.198  0.0147  0.2927 -0.1399
  618DG      C214193   3.684   2.901   0.665 -0.1545 -0.0796  0.4085
  618DG      H314194   3.435   3.574   0.138 -0.5249  0.9294 -0.5186
  618DG      H414195   3.323   3.626   0.255  2.2485  1.4824 -0.7573
  618DG      H514196   3.277   3.506   0.125 -0.9510 -1.0020  1.3254
  618DG      H614197   3.714   2.797   0.681  1.8872  0.5047  0.6968
  618DG      H714198   3.772   2.946   0.620  0.8301 -1.2435  1.1116
  618DG      H814199   3.666   2.939   0.766  2.1195  1.3250  0.3517
  618DG      O914200   3.394   3.431   0.292 -0.2714 -0.5623  0.4103
  618DG     O1014201   3.579   2.899   0.572 -0.1232 -0.2945 -0.2667
  618DG     C1114202   3.288   3.381   0.370 -0.0225 -0.1748  0.2979
  618DG     C1214203   3.527   3.033   0.545 -0.0047 -0.0670  0.1340
  618DG     H1314204   3.201   3.358   0.309  1.1836 -0.5416 -1.3525
  618DG     H1414205   3.261   3.462   0.439  2.0340 -0.2261  1.2592
  618DG     H1514206   3.612   3.077   0.492  0.1012  1.4304  1.4768
  618DG     H1614207   3.510   3.088   0.638 -0.4287  0.0955 -0.0402
  618DG     C1714208   3.347   3.262   0.447  0.3016 -0.1488  0.0425
  618DG     C1814209   3.413   3.035   0.446  0.2617  0.0420  0.1754
  618DG     O1914210   3.404   3.158   0.372  0.1124  0.0992  0.5339
  618DG     H2014211   3.261   3.223   0.502  1.2806 -0.1627  1.6315
  618DG     H2114212   3.415   3.298   0.525 -0.3570 -1.0784  1.0874
  618DG     H2214213   3.422   2.952   0.376 -2.5548  0.0299 -0.2825
  618DG     H2314214   3.324   2.998   0.498  0.0035 -0.4485 -0.5856
  619DG      C114215   3.387   0.252   3.461  0.9978 -0.7518 -0.3820
  619DG      C214216   3.403  -0.526   3.139  0.0186 -0.4673  0.3199
  619DG      H314217   3.280   0.239   3.445  1.1201 -2.4734  0.0937
  619DG      H414218   3.430   0.306   3.376 -0.8082 -0.1874 -0.9824
  619DG      H514219   3.396   0.329   3.538  0.8481 -1.0991 -0.0180
  619DG      H614220   3.369  -0.523   3.036  0.2032 -0.6942  0.2517
  619DG      H714221   3.450  -0.624   3.143 -1.6644 -1.3067  0.3511
  619DG      H814222   3.313  -0.529   3.200  0.5737 -0.4370  1.1553
  619DG      O914223   3.446   0.137   3.508  0.3040 -0.0941  0.1330
  619DG     O1014224   3.496  -0.421   3.161  0.0454  0.1304  0.5504
  619DG     C1114225   3.480   0.057   3.395  0.3160 -0.3363 -0.3832
  619DG     C1214226   3.433  -0.291   3.159 -0.1071  0.5314 -0.1520
  619DG     H1314227   3.560   0.099   3.334  0.0570  0.5109 -0.1559
  619DG     H1414228   3.394   0.056   3.329  0.7687 -1.1224 -0.9733
  619DG     H1514229   3.325  -0.287   3.176 -0.1624 -0.6865 -0.1153
  619DG     H1614230   3.436  -0.255   3.056 -0.9974  1.5024  0.1459
  619DG     C1714231   3.510  -0.084   3.448  0.6391  0.0774  0.8238
  619DG     C1814232   3.518  -0.184   3.233 -0.3087  1.0086  0.9020
  619DG     O1914233   3.449  -0.178   3.356  0.1868  0.4719 -0.4018
  619DG     H2014234   3.459  -0.098   3.543 -2.4004 -2.8324 -1.0097
  619DG     H2114235   3.617  -0.098   3.465  0.8557  1.6319  0.8795
  619DG     H2214236   3.620  -0.215   3.256 -1.1920 -1.3661  1.9576
  619DG     H2314237   3.507  -0.093   3.174 -3.0634  0.9592  1.2101
  620DG      C114238   4.165   1.232   3.063 -0.0736 -0.3668  0.2124
  620DG      C214239   4.607   1.691   3.022  0.2036 -0.1691  0.0337
  620DG      H314240   4.090   1.230   2.984 -0.8957  0.5386  0.9604
  620DG      H414241   4.172   1.129   3.097  1.7528 -0.6455 -0.8526
  620DG      H514242   4.264   1.252   3.021 -0.3927 -2.2255 -1.5764
  620DG      H614243   4.592   1.648   3.121 -2.0055  2.5599  1.0301
  620DG      H714244   4.689   1.636   2.976  0.0020 -1.6037  1.3192
  620DG      H814245   4.618   1.799   3.024 -3.3937  0.3659 -1.1677
  620DG      O914246   4.136   1.304   3.180 -0.2526 -0.1952 -0.0550
  620DG     O1014247   4.489   1.642   2.963 -0.4103  0.3181 -0.1266
  620DG     C1114248   4.243   1.327   3.270  0.6417  0.2765  0.5187
  620DG     C1214249   4.377   1.707   3.010 -0.0791 -0.2460 -0.6986
  620DG     H1314250   4.339   1.283   3.246  1.1627  0.6682  1.8204
  620DG     H1414251   4.210   1.291   3.367 -0.0752  1.0546  0.5816
  620DG     H1514252   4.296   1.680   2.943 -0.9356  1.2583 -0.3144
  620DG     H1614253   4.388   1.815   3.006 -0.0613 -0.1082  1.7121
  620DG     C1714254   4.265   1.477   3.282 -0.0971 -0.0486  0.3999
  620DG     C1814255   4.327   1.660   3.149 -0.2628  0.0478 -0.2550
  620DG     O1914256   4.288   1.525   3.151  0.3557 -0.1941 -0.4445
  620DG     H2014257   4.343   1.497   3.356 -0.9635  1.6378  0.9148
  620DG     H2114258   4.190   1.540   3.331  0.0133  1.1420 -0.9027
  620DG     H2214259   4.404   1.681   3.224  0.9276  0.9295 -1.6602
  620DG     H2314260   4.244   1.724   3.178  0.5339  0.3228  1.5456
  621DG      C114261   1.288   3.719   3.301 -0.3882  0.2995 -0.7849
  621DG      C214262   1.869   3.999   2.991  0.1760 -0.3782 -0.1977
  621DG      H314263   1.292   3.644   3.223  0.1801 -0.8102  0.2862
  621DG      H414264   1.183   3.745   3.310 -1.0677 -2.0200 -1.3970
  621DG      H514265   1.314   3.662   3.390 -2.0240  3.0962  1.6694
  621DG      H614266   1.790   4.029   2.922 -0.6963  1.1814  1.3880
  621DG      H714267   1.956   4.064   2.990  1.2674 -1.7920  0.5051
  621DG      H814268   1.913   3.906   2.956  0.4925  0.7465 -3.0364
  621DG      O914269   1.368   3.835   3.280  0.1901 -0.0981  0.1453
  621DG     O1014270   1.816   3.983   3.124  0.2445 -0.2591 -0.2017
  621DG     C1114271   1.356   3.948   3.373  1.0140  0.5849 -0.1400
  621DG     C1214272   1.778   4.099   3.194 -0.1713 -0.0061  0.1299
  621DG     H1314273   1.404   3.927   3.469  0.1222  2.3336  0.7389
  621DG     H1414274   1.252   3.969   3.397  0.8898 -1.5255  1.5038
  621DG     H1514275   1.831   4.185   3.152 -0.0595 -0.9107 -1.6853
  621DG     H1614276   1.809   4.096   3.298 -2.5361  0.9560  0.9387
  621DG     C1714277   1.423   4.065   3.301  0.5992  0.1339 -0.3870
  621DG     C1814278   1.626   4.113   3.178  0.9082 -0.3276  0.5708
  621DG     O1914279   1.559   4.043   3.280  0.3256 -0.1286 -0.2955
  621DG     H2014280   1.421   4.154   3.365  1.5104  0.2589 -0.5222
  621DG     H2114281   1.379   4.081   3.203  1.3247  0.5441 -0.6490
  621DG     H2214282   1.594   4.217   3.174 -0.0019 -0.6022  0.4818
  621DG     H2314283   1.598   4.069   3.083 -1.0067 -1.1534  1.4645
  622DG      C114284   1.690   5.169   2.072 -0.0042 -0.7739  0.1322
  622DG      C214285   2.188   5.236   2.722  0.2596 -0.4100  0.2546
  622DG      H314286   1.697   5.272   2.038 -0.0946 -0.3900  1.2404
  622DG      H414287   1.599   5.169   2.132  1.5441 -0.5090  2.6132
  622DG      H514288   1.666   5.105   1.987 -2.8701 -0.0305  0.2850
  622DG      H614289   2.279   5.237   2.782  0.6841  1.3808 -0.3584
  622DG      H714290   2.173   5.334   2.678  1.1789  0.0826  1.0158
  622DG      H814291   2.113   5.220   2.800 -0.1882 -0.8731 -0.2604
  622DG      O914292   1.810   5.135   2.137  0.1245  0.2206 -0.7924
  622DG     O1014293   2.169   5.128   2.629 -0.2810 -0.3560 -0.6919
  622DG     C1114294   1.818   4.994   2.159  0.7367 -0.7377 -0.0959
  622DG     C1214295   2.042   5.129   2.563 -0.4398  0.4606 -0.3665
  622DG     H1314296   1.840   4.952   2.061 -1.3921 -0.0953 -0.9035
  622DG     H1414297   1.722   4.960   2.199  0.2244 -0.8198 -1.3380
  622DG     H1514298   2.008   5.224   2.522 -0.7505  0.2694 -0.5563
  622DG     H1614299   1.973   5.101   2.642 -0.1651 -0.3236 -0.3920
  622DG     C1714300   1.937   4.966   2.256 -0.3409 -0.6680 -0.2474
  622DG     C1814301   2.051   5.034   2.444 -0.3916 -0.1332  0.2727
  622DG     O1914302   1.939   5.060   2.362 -0.6649  0.2792 -0.0716
  622DG     H2014303   2.034   4.961   2.206  0.1725 -2.5194  0.8351
  622DG     H2114304   1.927   4.862   2.285  1.3400 -0.6049  0.6686
  622DG     H2214305   2.142   5.042   2.386 -0.2703 -0.3809  0.4275
  622DG     H2314306   2.044   4.928   2.471  0.2730  0.3910  2.7262
  623DG      C114307   0.158   3.134   4.627  0.4472  0.1118 -0.0712
  623DG      C214308   0.279   3.669   4.398 -0.0815 -0.0538  0.2448
  623DG      H314309   0.248   3.074   4.637  0.8845  0.9354  1.1490
  623DG      H414310   0.189   3.218   4.566  2.8034  0.7594  1.8585
  623DG      H514311   0.088   3.071   4.572 -2.2112 -1.2453  4.3142
  623DG      H614312   0.212   3.744   4.356 -1.1047 -1.7487 -1.3067
  623DG      H714313   0.378   3.714   4.404  0.1491 -0.2635 -1.5532
  623DG      H814314   0.284   3.591   4.322  2.9749 -2.6932  2.8149
  623DG      O914315   0.111   3.162   4.758 -0.2042 -0.7570 -0.2549
  623DG     O1014316   0.234   3.611   4.514 -0.1287 -0.5342  0.1763
  623DG     C1114317  -0.014   3.233   4.763  0.2383  0.1852 -0.3202
  623DG     C1214318   0.300   3.497   4.548  0.6689  0.3762 -0.1436
  623DG     H1314319  -0.057   3.205   4.859  0.8631  0.0099 -0.0863
  623DG     H1414320  -0.089   3.202   4.691 -2.0194  2.3453  0.9496
  623DG     H1514321   0.408   3.499   4.556  0.6304 -0.4747  0.9486
  623DG     H1614322   0.269   3.423   4.473 -1.5216  1.4157 -0.3557
  623DG     C1714323   0.019   3.380   4.769  0.5430  0.2647  0.0029
  623DG     C1814324   0.234   3.455   4.684 -0.6581  0.6616  0.5593
  623DG     O1914325   0.097   3.422   4.659 -0.8272  0.0277 -0.0219
  623DG     H2014326   0.054   3.417   4.865 -0.3775  1.5907 -0.1271
  623DG     H2114327  -0.080   3.424   4.756 -0.6540 -2.1583  0.4666
  623DG     H2214328   0.286   3.371   4.729 -0.0694  0.3712 -0.6121
  623DG     H2314329   0.251   3.539   4.751  0.3973 -1.3685  2.9975
  624DG      C114330   0.636   4.539   0.949  0.6450 -0.1229 -0.1929
  624DG      C214331   0.371   4.504   0.314 -0.2946  0.3593 -0.7175
  624DG      H314332   0.626   4.647   0.933  2.3091 -0.2948 -2.9629
  624DG      H414333   0.730   4.504   0.908  0.9797 -0.8432  1.1371
  624DG      H514334   0.656   4.508   1.051  3.1961  2.5696  0.2740
  624DG      H614335   0.288   4.523   0.246  0.3207  0.2069 -1.5303
  624DG      H714336   0.462   4.536   0.264 -0.1792  0.0328 -0.7225
  624DG      H814337   0.387   4.396   0.320  0.2128  0.4924  1.0767
  624DG      O914338   0.521   4.462   0.905 -0.0115 -0.1066 -0.0612
  624DG     O1014339   0.353   4.552   0.451 -0.7134 -0.1174 -0.2824
  624DG     C1114340   0.400   4.516   0.951  0.6444 -0.5676  0.5507
  624DG     C1214341   0.260   4.481   0.527  0.4987  0.4776 -0.0903
  624DG     H1314342   0.395   4.625   0.943 -0.7344 -0.6021  0.7499
  624DG     H1414343   0.385   4.493   1.056  0.4283  0.6461  0.8045
  624DG     H1514344   0.257   4.373   0.510  0.0333  0.6243 -0.9848
  624DG     H1614345   0.171   4.508   0.471  2.3581  2.2922 -2.3618
  624DG     C1714346   0.280   4.449   0.884  0.6505  0.3493 -0.5298
  624DG     C1814347   0.251   4.538   0.664 -0.8196 -0.5190 -0.3871
  624DG     O1914348   0.297   4.425   0.745 -0.6415 -0.1331  0.1916
  624DG     H2014349   0.194   4.511   0.907  1.3100  0.8344  0.7444
  624DG     H2114350   0.270   4.349   0.927  0.8050  0.2410 -0.7429
  624DG     H2214351   0.312   4.623   0.696 -2.3166 -0.7929  3.8253
  624DG     H2314352   0.149   4.570   0.686 -0.7211 -0.8293  0.5707
  625DG      C114353   0.246   2.090   3.421  0.1046 -0.5039  0.9283
  625DG      C214354   0.499   1.391   3.584  0.6106 -0.2297  0.4824
  625DG      H314355   0.241   2.100   3.529 -2.8315  0.6380  0.7933
  625DG      H414356   0.182   2.153   3.359 -0.0137 -2.1555 -0.7595
  625DG      H514357   0.350   2.113   3.398  0.0439 -1.4877 -0.5337
  625DG      H614358   0.556   1.307   3.545 -3.6491 -2.7297 -1.0619
  625DG      H714359   0.573   1.468   3.606 -0.2709  0.6513  0.4668
  625DG      H814360   0.453   1.351   3.674  0.4371 -2.6126 -0.5941
  625DG      O914361   0.228   1.957   3.376 -0.5071  0.1795 -0.0783
  625DG     O1014362   0.399   1.435   3.489  0.5015 -0.3692 -0.5750
  625DG     C1114363   0.103   1.909   3.422 -0.2964 -0.2311 -0.2255
  625DG     C1214364   0.327   1.550   3.526  0.2962 -0.5149 -0.2589
  625DG     H1314365   0.026   1.966   3.370 -0.5273 -0.5280 -0.2130
  625DG     H1414366   0.084   1.924   3.528  0.5936 -1.2743  0.0933
  625DG     H1514367   0.402   1.627   3.508 -0.7965  0.3927 -1.1065
  625DG     H1614368   0.318   1.558   3.634  0.7103  2.5600 -0.3531
  625DG     C1714369   0.068   1.764   3.398 -0.1892  0.3801 -0.4112
  625DG     C1814370   0.202   1.570   3.440 -0.0702 -0.7079  0.5768
  625DG     O1914371   0.157   1.700   3.478  0.2786  0.2104  0.4320
  625DG     H2014372   0.077   1.745   3.291 -3.1520  0.1678 -0.7183
  625DG     H2114373  -0.029   1.732   3.437 -0.7685  0.2138 -1.9422
  625DG     H2214374   0.212   1.556   3.332 -1.1693 -1.0658  0.5102
  625DG     H2314375   0.124   1.495   3.456 -0.9997 -0.0910 -0.8608
  626DG      C114376   3.005   1.521   0.272  0.7196  0.1425  0.6104
  626DG      C214377   3.340   2.117   0.329 -0.2420 -0.8395 -0.4455
  626DG      H314378   3.085   1.448   0.262 -0.7025 -1.3079 -0.7639
  626DG      H414379   3.007   1.552   0.168  0.6564 -3.4462 -0.5834
  626DG      H514380   2.909   1.473   0.284  0.8367 -0.1508  0.3796
  626DG      H614381   3.430   2.078   0.377 -0.0868  0.2684  0.2085
  626DG      H714382   3.296   2.047   0.258  1.1071 -1.3546 -0.8037
  626DG      H814383   3.376   2.197   0.264  0.0810 -0.0335  0.6965
  626DG      O914384   3.039   1.625   0.365 -0.7670 -0.2847 -0.1387
  626DG     O1014385   3.248   2.165   0.421  0.5930  0.7687  0.0942
  626DG     C1114386   3.168   1.683   0.338 -0.4294  0.2754  0.3511
  626DG     C1214387   3.215   2.083   0.537 -0.2056  0.8653  0.9478
  626DG     H1314388   3.182   1.719   0.236 -0.3548 -1.5683 -0.3381
  626DG     H1414389   3.243   1.604   0.342 -2.2475 -1.5214  0.9503
  626DG     H1514390   3.183   2.155   0.613 -2.8950  0.7034  0.1023
  626DG     H1614391   3.297   2.025   0.579  0.2702  0.1579 -0.8570
  626DG     C1714392   3.194   1.806   0.432  0.1156 -0.8361  0.1538
  626DG     C1814393   3.089   2.005   0.513 -0.1678  0.1881 -0.2695
  626DG     O1914394   3.091   1.905   0.418  0.1287 -0.0457  0.6958
  626DG     H2014395   3.290   1.854   0.412 -1.5382  3.7746  1.8580
  626DG     H2114396   3.201   1.764   0.532 -0.1428  1.7539  1.3463
  626DG     H2214397   3.055   1.959   0.606 -0.7356 -1.2704 -1.1640
  626DG     H2314398   3.009   2.071   0.480  0.0598  1.4401  1.5479
  627DG      C114399   3.038   4.534   0.021  0.1701 -0.4936  0.2216
  627DG      C214400   3.314   4.145  -0.457  0.2694 -0.1155 -0.3831
  627DG      H314401   3.058   4.448   0.084 -0.8983  0.4053  1.8526
  627DG      H414402   2.936   4.521  -0.014  0.2293  0.0897 -0.1877
  627DG      H514403   3.049   4.628   0.076 -2.3204  0.7567 -1.2555
  627DG      H614404   3.356   4.124  -0.556  2.7092 -0.0503  0.5705
  627DG      H714405   3.381   4.084  -0.396 -1.3434 -1.7499 -0.1399
  627DG      H814406   3.215   4.099  -0.458 -0.5204  1.5083  0.5114
  627DG      O914407   3.117   4.536  -0.099 -0.0769  0.0442 -0.5155
  627DG     O1014408   3.300   4.278  -0.409  0.5322 -0.5435  0.3723
  627DG     C1114409   3.247   4.592  -0.076  0.2960 -0.4724 -0.1976
  627DG     C1214410   3.415   4.352  -0.440 -0.2834 -0.4812 -0.0586
  627DG     H1314411   3.302   4.521  -0.013 -0.3931  0.6422  1.7704
  627DG     H1414412   3.240   4.678  -0.009  0.5285  0.1989 -1.0305
  627DG     H1514413   3.444   4.351  -0.546 -0.3479  1.7196 -0.1490
  627DG     H1614414   3.496   4.315  -0.378 -1.4013 -0.0652  1.7166
  627DG     C1714415   3.334   4.623  -0.198 -0.1815  0.0392  0.3279
  627DG     C1814416   3.398   4.505  -0.399 -0.0654 -0.6896  0.0457
  627DG     O1914417   3.319   4.505  -0.284 -0.3068  0.1316 -0.8033
  627DG     H2014418   3.434   4.653  -0.167 -1.0042  1.7896  1.4746
  627DG     H2114419   3.286   4.707  -0.250  3.2601  0.1636 -3.1134
  627DG     H2214420   3.498   4.546  -0.384 -0.2606 -0.2887  0.2836
  627DG     H2314421   3.343   4.554  -0.479 -2.3460 -0.5141  1.6208
  628DG      C114422   0.653   2.908   0.779  0.5924 -0.4648  0.3441
  628DG      C214423   0.828   3.318   1.136 -0.6544  0.1032 -0.2235
  628DG      H314424   0.750   2.862   0.793 -0.9261 -3.5493  1.8331
  628DG      H414425   0.619   2.868   0.684 -1.5040 -1.4914  1.4394
  628DG      H514426   0.584   2.881   0.860 -1.4025 -0.2135 -1.1989
  628DG      H614427   0.756   3.301   1.216  0.9462 -2.9499  0.7327
  628DG      H714428   0.832   3.222   1.084 -2.6146 -0.3131  0.3019
  628DG      H814429   0.929   3.346   1.166 -0.1806 -0.2525 -1.3908
  628DG      O914430   0.663   3.052   0.777  0.1285  0.6638  0.3078
  628DG     O1014431   0.780   3.420   1.051 -0.2639 -0.6232 -0.3549
  628DG     C1114432   0.748   3.100   0.679  0.9740 -0.3391  0.8591
  628DG     C1214433   0.881   3.462   0.963  0.3672  0.3817 -0.0637
  628DG     H1314434   0.708   3.069   0.583  0.9581  0.1662  0.6965
  628DG     H1414435   0.849   3.060   0.686  1.6361  1.1878  0.3816
  628DG     H1514436   0.982   3.424   0.976  0.4810 -0.0169 -1.8289
  628DG     H1614437   0.893   3.570   0.957 -0.3946  0.4391 -0.7388
  628DG     C1714438   0.757   3.252   0.677 -0.2992 -0.4123  0.4514
  628DG     C1814439   0.839   3.434   0.816  0.5605  0.6509  0.5070
  628DG     O1914440   0.833   3.294   0.793  0.2593 -0.3884  0.0831
  628DG     H2014441   0.658   3.296   0.671 -0.0460  0.1354  0.2437
  628DG     H2114442   0.811   3.264   0.583 -1.9165 -1.4302 -0.6761
  628DG     H2214443   0.745   3.487   0.797 -0.4017 -1.3824 -0.8261
  628DG     H2314444   0.910   3.470   0.742  0.6443 -0.5249 -0.0139
  629DG      C114445   2.812   3.351   2.393 -0.1138  0.3168  0.8377
  629DG      C214446   2.857   3.663   3.028 -0.1225  0.1455  1.1076
  629DG      H314447   2.798   3.263   2.456 -0.3602  0.3757  0.8637
  629DG      H414448   2.847   3.319   2.294 -1.3559  1.7273 -0.0998
  629DG      H514449   2.715   3.394   2.369  0.7797  1.7048 -0.4853
  629DG      H614450   2.778   3.738   3.038 -0.3894 -0.3070  2.6814
  629DG      H714451   2.810   3.582   3.084  1.6284  0.4153  3.0617
  629DG      H814452   2.946   3.695   3.082  0.9840  0.0721 -0.5862
  629DG      O914453   2.892   3.440   2.460  0.2846 -0.5111 -0.3633
  629DG     O1014454   2.887   3.644   2.887  0.0196 -0.7103  0.2309
  629DG     C1114455   2.923   3.560   2.394 -0.4640 -0.5439 -0.5211
  629DG     C1214456   2.934   3.767   2.830 -0.0322  0.5314  0.2328
  629DG     H1314457   2.836   3.611   2.354 -1.4780 -2.4610 -0.8973
  629DG     H1414458   2.971   3.526   2.302 -2.0225 -1.0595 -1.1792
  629DG     H1514459   2.998   3.819   2.900  0.0485  0.5836  0.1211
  629DG     H1614460   2.844   3.826   2.812 -0.6075 -0.2772  0.3973
  629DG     C1714461   3.016   3.647   2.485 -0.1939 -0.9347  0.6633
  629DG     C1814462   3.028   3.730   2.707  0.4977 -0.2203 -0.2224
  629DG     O1914463   2.947   3.663   2.608  0.2106  0.0275  0.3399
  629DG     H2014464   3.035   3.744   2.441  1.2097 -1.3513  0.2935
  629DG     H2114465   3.115   3.604   2.499  1.6887  1.8972 -2.5529
  629DG     H2214466   3.084   3.809   2.658  1.5999 -2.3211 -2.6464
  629DG     H2314467   3.100   3.663   2.753 -1.6161 -0.5904  2.8435
  630DG      C114468   2.930   3.127   4.997 -0.0250  0.1273 -0.0665
  630DG      C214469   3.425   2.686   4.854 -0.0403 -0.2593 -0.3286
  630DG      H314470   2.926   3.234   4.974  1.4570 -0.0770 -1.4388
  630DG      H414471   2.999   3.115   5.080 -1.2620 -1.5796  0.7667
  630DG      H514472   2.833   3.082   5.019 -0.9548  2.0997  0.1061
  630DG      H614473   3.420   2.795   4.862  1.1925 -0.1860 -0.3280
  630DG      H714474   3.507   2.659   4.921 -1.0114 -0.2125  0.9087
  630DG      H814475   3.470   2.648   4.762  1.2478  0.5315 -0.0550
  630DG      O914476   2.986   3.078   4.880  0.0583  0.2836 -0.0742
  630DG     O1014477   3.299   2.616   4.877  0.1872 -0.0724 -0.2745
  630DG     C1114478   3.129   3.093   4.858 -0.1361 -0.2113 -0.5982
  630DG     C1214479   3.212   2.630   4.768 -0.1192 -0.3809  0.0772
  630DG     H1314480   3.188   3.063   4.945 -0.3560  0.7629 -0.0989
  630DG     H1414481   3.154   3.194   4.827  1.2915 -1.1567 -2.7802
  630DG     H1514482   3.114   2.599   4.803  1.1242 -4.1538  0.7270
  630DG     H1614483   3.232   2.552   4.694 -1.5938 -1.7692  1.0868
  630DG     C1714484   3.175   3.006   4.737 -0.1273  0.2869 -0.5550
  630DG     C1814485   3.208   2.766   4.700 -0.3557  0.0137  0.2660
  630DG     O1914486   3.162   2.869   4.785  0.6376 -0.1289 -0.1914
  630DG     H2014487   3.276   3.034   4.706  0.7806  0.1585  1.9975
  630DG     H2114488   3.099   3.013   4.660 -0.7108  3.5631  0.1793
  630DG     H2214489   3.307   2.796   4.666  0.4774 -1.9252  0.8312
  630DG     H2314490   3.148   2.763   4.609 -1.7081  0.1690  1.1181
  631DG      C114491   0.078   1.932   0.509  0.3153  0.6440  0.4785
  631DG      C214492   0.505   1.300   0.282 -0.3547 -0.5133  0.4724
  631DG      H314493  -0.001   1.972   0.572  0.2684  1.3525 -0.0194
  631DG      H414494   0.052   1.959   0.407 -2.1414  0.6826  1.0559
  631DG      H514495   0.165   1.991   0.540  1.0721  0.6134 -1.4668
  631DG      H614496   0.487   1.298   0.174  0.8612  0.0551  0.2357
  631DG      H714497   0.607   1.333   0.302 -1.4721  1.9689  2.5928
  631DG      H814498   0.505   1.195   0.312  1.3109 -0.4851  0.6933
  631DG      O914499   0.092   1.788   0.516  0.1336  0.2675  0.0708
  631DG     O1014500   0.402   1.363   0.356 -0.0051  0.1935  0.5329
  631DG     C1114501   0.161   1.751   0.637 -0.3601 -0.1813 -0.4703
  631DG     C1214502   0.424   1.360   0.496 -0.9973  0.2479 -0.2690
  631DG     H1314503   0.093   1.781   0.717  0.7064 -2.1729  1.2810
  631DG     H1414504   0.262   1.793   0.639 -0.1904 -0.5991 -0.3041
  631DG     H1514505   0.507   1.428   0.517 -0.1845 -0.4688 -1.0660
  631DG     H1614506   0.461   1.263   0.532 -1.2651 -0.9183 -2.9217
  631DG     C1714507   0.178   1.597   0.658  0.0460 -0.4036  0.2741
  631DG     C1814508   0.306   1.403   0.580  0.2082 -0.3104 -0.3114
  631DG     O1914509   0.254   1.532   0.551 -0.4405  0.0770  0.4718
  631DG     H2014510   0.082   1.549   0.680  0.8558 -0.9415  3.0099
  631DG     H2114511   0.240   1.603   0.747  1.4323  4.0254 -0.7254
  631DG     H2214512   0.227   1.331   0.560 -0.6851  1.3998 -3.7089
  631DG     H2314513   0.333   1.411   0.685  0.7076  1.8594 -0.5582
  632DG      C114514   5.281   4.628   0.559  0.1071 -1.2277 -0.0089
  632DG      C214515   4.777   4.810   0.135  0.0370 -0.4216  0.0352
  632DG      H314516   5.227   4.539   0.589 -0.2073 -0.8371  0.6062
  632DG      H414517   5.227   4.713   0.601 -0.0664 -1.4377  0.1979
  632DG      H514518   5.384   4.620   0.594  1.2433  2.1336 -2.0616
  632DG      H614519   4.718   4.720   0.119 -1.3264  0.5292 -0.4429
  632DG      H714520   4.749   4.870   0.222 -3.3458  1.0369 -1.8854
  632DG      H814521   4.763   4.875   0.048  0.7414 -0.3087 -0.0030
  632DG      O914522   5.274   4.644   0.420  0.1164  0.1895 -0.1993
  632DG     O1014523   4.907   4.773   0.165 -0.1625 -0.0334  0.0312
  632DG     C1114524   5.353   4.746   0.358 -0.5847  0.0743 -0.0126
  632DG     C1214525   4.977   4.739   0.043 -0.1042  0.0526 -0.6141
  632DG     H1314526   5.458   4.722   0.376  0.0562  3.1760  0.9207
  632DG     H1414527   5.349   4.851   0.387  0.4929  0.6286 -1.7588
  632DG     H1514528   4.935   4.795  -0.039 -0.2296  2.5083  1.0327
  632DG     H1614529   4.977   4.631   0.026  3.6747 -0.7639  2.8063
  632DG     C1714530   5.318   4.730   0.212 -0.0050 -0.3321 -0.3702
  632DG     C1814531   5.128   4.767   0.061 -0.5226 -0.1721  0.7806
  632DG     O1914532   5.177   4.757   0.199 -0.5288  0.0801  0.0507
  632DG     H2014533   5.341   4.631   0.173  0.7270 -0.2538 -0.1558
  632DG     H2114534   5.385   4.789   0.149 -0.4056  1.2681  0.6307
  632DG     H2214535   5.172   4.692  -0.005 -1.0507 -0.5820  0.8883
  632DG     H2314536   5.167   4.854   0.007 -0.6893 -1.5380 -1.7133
  633DG      C114537   5.408   5.391   1.546  0.6420  0.8397 -0.5321
  633DG      C214538   5.799   5.725   2.061 -0.2426  0.2412  0.2031
  633DG      H314539   5.356   5.385   1.451  0.7132 -1.5038 -0.4847
  633DG      H414540   5.353   5.315   1.603 -0.2624  2.6731  1.1556
  633DG      H514541   5.511   5.356   1.534  0.4458  0.6919 -1.9356
  633DG      H614542   5.844   5.627   2.078  0.9669  0.4448 -1.6254
  633DG      H714543   5.864   5.783   1.996 -2.2818 -1.1253 -3.3645
  633DG      H814544   5.789   5.772   2.159  0.2121  0.8049 -0.0170
  633DG      O914545   5.405   5.521   1.605  0.3364 -0.2124 -0.0631
  633DG     O1014546   5.666   5.704   2.010 -0.2295 -0.3574  0.3207
  633DG     C1114547   5.347   5.522   1.736 -0.2266  0.0484 -0.5118
  633DG     C1214548   5.614   5.827   1.970  0.4874  0.0535 -0.6082
  633DG     H1314549   5.395   5.465   1.816 -1.6491  0.8240  0.9766
  633DG     H1414550   5.249   5.477   1.722 -0.8645  1.3966 -0.5812
  633DG     H1514551   5.669   5.866   1.885 -0.6046  0.5111 -1.1303
  633DG     H1614552   5.625   5.920   2.026  3.9672  0.1285 -1.2440
  633DG     C1714553   5.328   5.666   1.786 -0.6533 -0.0694 -0.7815
  633DG     C1814554   5.467   5.807   1.922 -0.3213 -0.1664  0.1204
  633DG     O1914555   5.462   5.716   1.813  0.1118  0.1510 -0.1287
  633DG     H2014556   5.262   5.671   1.873  0.4813 -1.1455  0.1659
  633DG     H2114557   5.282   5.725   1.706  0.9679 -0.1805 -1.8481
  633DG     H2214558   5.415   5.758   2.004 -0.8538  0.7846  0.3629
  633DG     H2314559   5.409   5.898   1.908  0.0790  0.5363  2.4324
  634DG      C114560   4.460   4.737   3.679 -0.6318  0.0799 -0.1336
  634DG      C214561   4.732   3.982   3.460 -0.2050 -0.3603 -0.5590
  634DG      H314562   4.448   4.840   3.711  0.1823  0.8141 -2.0389
  634DG      H414563   4.384   4.674   3.724 -0.3534  0.3617  0.7549
  634DG      H514564   4.452   4.715   3.573 -0.6090 -1.0148  0.0827
  634DG      H614565   4.710   3.902   3.530  1.7412  1.2500  2.0886
  634DG      H714566   4.657   3.968   3.382 -0.7236 -0.5121 -0.0354
  634DG      H814567   4.832   3.954   3.425  0.3771  0.8946  0.0246
  634DG      O914568   4.587   4.679   3.728  0.3856  0.2457  0.2317
  634DG     O1014569   4.724   4.115   3.514  0.3204 -0.1594 -0.7173
  634DG     C1114570   4.576   4.537   3.721 -0.5515 -0.3249  0.8824
  634DG     C1214571   4.783   4.110   3.637 -0.6156 -0.1153  0.0973
  634DG     H1314572   4.523   4.511   3.629 -1.7574  1.6773  0.9614
  634DG     H1414573   4.521   4.487   3.801  1.6218 -2.9064  0.9100
  634DG     H1514574   4.888   4.079   3.635 -0.8782 -1.0745 -2.2928
  634DG     H1614575   4.734   4.048   3.712  1.0089  0.8992  2.1394
  634DG     C1714576   4.719   4.472   3.705  0.1658  0.4476 -0.0536
  634DG     C1814577   4.793   4.256   3.698  0.1230  0.1947 -0.1729
  634DG     O1914578   4.688   4.340   3.680  0.4676 -0.6113 -0.5331
  634DG     H2014579   4.767   4.470   3.803 -0.3353 -3.3877  0.2758
  634DG     H2114580   4.767   4.517   3.618  0.0119 -0.9451 -0.8902
  634DG     H2214581   4.817   4.241   3.803  0.8174  0.4609 -0.2841
  634DG     H2314582   4.884   4.299   3.655  0.8028 -1.2694 -0.2439
  635DG      C114583   0.359   1.812   4.472  0.0897 -0.2068  0.4881
  635DG      C214584   0.145   1.777   3.775 -0.0191 -0.0249  0.7905
  635DG      H314585   0.448   1.871   4.449  0.5635 -0.0711  2.4902
  635DG      H414586   0.407   1.735   4.533  2.1208  0.2775 -0.4119
  635DG      H514587   0.285   1.872   4.525  1.8989  1.9188  0.7668
  635DG      H614588   0.067   1.788   3.699  1.3038 -0.3263 -0.6771
  635DG      H714589   0.221   1.846   3.737 -1.0205 -0.0033 -1.3709
  635DG      H814590   0.189   1.678   3.775 -1.1135 -0.5496 -0.8790
  635DG      O914591   0.307   1.751   4.357  0.3668  0.3654 -0.1491
  635DG     O1014592   0.101   1.815   3.902  0.1442  0.1595  0.2945
  635DG     C1114593   0.204   1.654   4.381  0.0615 -0.4994  0.2088
  635DG     C1214594   0.012   1.720   3.950 -0.2365  0.6997 -1.0242
  635DG     H1314595   0.112   1.704   4.412  1.3175  0.3806  2.8274
  635DG     H1414596   0.220   1.590   4.468  2.2779 -0.3717 -0.0651
  635DG     H1514597  -0.037   1.661   3.872  1.8816 -2.3235 -0.2628
  635DG     H1614598  -0.067   1.772   4.004  1.0190  1.6572 -0.0622
  635DG     C1714599   0.173   1.580   4.262  0.9407 -0.2253 -0.5676
  635DG     C1814600   0.075   1.609   4.039 -0.4130 -0.2275  0.1154
  635DG     O1914601   0.121   1.671   4.163 -0.2052 -0.3456 -0.8069
  635DG     H2014602   0.105   1.499   4.287  1.4596 -0.1169  1.3098
  635DG     H2114603   0.258   1.528   4.217  0.8568  0.0215 -1.0185
  635DG     H2214604  -0.006   1.539   4.059 -1.5389  1.0892  0.2941
  635DG     H2314605   0.152   1.548   3.992  1.3574  1.2573  0.9647
  636DG      C114606   1.844   3.174   0.975  0.7437 -0.0024  0.2333
  636DG      C214607   1.680   3.767   1.162  0.3130 -0.4429  1.0859
  636DG      H314608   1.785   3.236   0.907  0.2104 -1.1778 -0.4146
  636DG      H414609   1.796   3.079   0.995  1.7830 -1.0432 -1.8846
  636DG      H514610   1.941   3.156   0.928 -0.5615  0.2446 -2.8101
  636DG      H614611   1.644   3.858   1.209  0.0657 -0.0245  0.0918
  636DG      H714612   1.668   3.785   1.056  1.1419  1.2215  1.2453
  636DG      H814613   1.619   3.687   1.206 -2.3957  1.6366  1.3212
  636DG      O914614   1.864   3.240   1.102  0.2583  0.2217 -0.4284
  636DG     O1014615   1.823   3.745   1.186  0.5330  0.0176  0.2289
  636DG     C1114616   1.931   3.360   1.094 -0.4660 -0.3838 -0.5127
  636DG     C1214617   1.856   3.699   1.311  0.0421 -0.6280 -0.0041
  636DG     H1314618   1.862   3.424   1.039 -2.6240 -2.9106 -0.9637
  636DG     H1414619   2.027   3.341   1.044  0.3100 -1.5351  1.3326
  636DG     H1514620   1.780   3.626   1.341 -1.0986  0.4708 -0.1358
  636DG     H1614621   1.840   3.781   1.381  0.2115  0.9521 -1.7549
  636DG     C1714622   1.952   3.423   1.240  0.2589  0.6469 -0.9593
  636DG     C1814623   2.000   3.652   1.320 -0.1603 -0.6764 -0.2670
  636DG     O1914624   2.020   3.550   1.219  0.0322  0.0087  0.5082
  636DG     H2014625   2.018   3.358   1.297 -0.0131 -0.5492 -1.9638
  636DG     H2114626   1.857   3.419   1.294  0.2825  1.3678 -0.8583
  636DG     H2214627   2.070   3.731   1.295 -0.9563 -0.3910 -1.6911
  636DG     H2314628   2.022   3.613   1.419  1.1611  1.2760  0.2649
  637DG      C114629   1.600   1.730   4.921 -0.2658  0.0756 -0.1828
  637DG      C214630   1.005   2.258   4.725 -0.6524 -0.1683 -0.0790
  637DG      H314631   1.560   1.635   4.885 -0.9536  0.2086  0.2152
  637DG      H414632   1.677   1.697   4.990  1.2443 -2.5089 -2.8670
  637DG      H514633   1.650   1.792   4.846  0.8293  0.8399  1.1276
  637DG      H614634   1.098   2.310   4.703 -1.1698  1.4054  1.2962
  637DG      H714635   0.999   2.185   4.644  2.8873  1.1076 -1.7210
  637DG      H814636   0.921   2.327   4.722 -1.9161 -1.6613 -2.7664
  637DG      O914637   1.510   1.826   4.966 -0.4611 -0.1281 -0.3461
  637DG     O1014638   1.023   2.191   4.849 -0.1689  0.1294 -0.4081
  637DG     C1114639   1.420   1.788   5.069 -0.2705  0.5426  0.2901
  637DG     C1214640   1.142   2.108   4.862 -0.4841  1.0384  0.0118
  637DG     H1314641   1.469   1.764   5.163  0.8728  1.7301  0.0271
  637DG     H1414642   1.382   1.689   5.046  0.6325 -0.0096  1.0750
  637DG     H1514643   1.235   2.163   4.848  1.3396 -1.9929 -0.7311
  637DG     H1614644   1.125   2.042   4.777 -0.9441  1.9973 -0.6641
  637DG     C1714645   1.303   1.874   5.101 -0.8390  0.2105  0.3576
  637DG     C1814646   1.158   2.024   4.990 -0.2451 -0.4886  0.0498
  637DG     O1914647   1.258   1.921   4.976 -0.1355 -0.2290 -0.0572
  637DG     H2014648   1.350   1.961   5.146  1.5722  0.0181 -1.5971
  637DG     H2114649   1.225   1.814   5.147  0.2826 -0.6590  1.1752
  637DG     H2214650   1.178   2.095   5.070  0.3472 -0.5748 -0.0192
  637DG     H2314651   1.059   1.987   5.018 -0.7837  0.3526 -0.6713
  638DG      C114652   2.361   2.218   5.317  0.4551 -0.4870 -0.1783
  638DG      C214653   3.058   2.255   4.858  0.5397 -0.0909 -0.5565
  638DG      H314654   2.337   2.320   5.287 -2.0225 -0.4634  1.5352
  638DG      H414655   2.303   2.207   5.408 -0.9436 -0.6038 -1.0659
  638DG      H514656   2.331   2.147   5.241  0.8046 -0.2219 -0.5715
  638DG      H614657   3.050   2.180   4.780  0.8528  0.2237 -0.8915
  638DG      H714658   3.050   2.357   4.821  1.9360  0.1445 -0.2616
  638DG      H814659   3.161   2.241   4.893  0.9097  0.7941 -1.2753
  638DG      O914660   2.497   2.211   5.343 -0.0827 -0.3360 -0.6243
  638DG     O1014661   2.984   2.227   4.975  0.2092 -0.4049  0.5030
  638DG     C1114662   2.570   2.243   5.230  0.0462  0.1544 -0.1589
  638DG     C1214663   2.992   2.339   5.065  0.2061 -0.0055  0.4991
  638DG     H1314664   2.529   2.334   5.187 -0.4174 -1.2038 -2.7743
  638DG     H1414665   2.572   2.174   5.146  0.1349  0.1064 -0.1182
  638DG     H1514666   2.950   2.431   5.026  0.1521  1.0377  2.8420
  638DG     H1614667   3.093   2.370   5.091 -0.3264  0.2833  2.3972
  638DG     C1714668   2.706   2.257   5.274  0.1708  0.3293 -0.2212
  638DG     C1814669   2.915   2.315   5.193 -0.0981  0.4911  0.4731
  638DG     O1914670   2.780   2.290   5.162 -0.6405 -0.1412  0.5952
  638DG     H2014671   2.737   2.158   5.309 -0.6358  0.1859  0.1015
  638DG     H2114672   2.715   2.333   5.352  2.1351 -0.5274  0.4502
  638DG     H2214673   2.958   2.239   5.258  1.3599  1.2915  0.5032
  638DG     H2314674   2.899   2.411   5.244  0.3641 -0.0371  1.6477
  639DG      C114675   1.632   0.473   2.213  0.0354 -0.3650  0.3567
  639DG      C214676   1.089   0.175   2.337 -0.2446  0.2038  0.1459
  639DG      H314677   1.644   0.422   2.309 -0.7928  1.5553  1.5507
  639DG      H414678   1.698   0.560   2.211 -0.1085 -0.2061  1.5282
  639DG      H514679   1.668   0.409   2.133 -1.6921 -0.0982 -0.6844
  639DG      H614680   1.138   0.089   2.293  0.3244  0.6137 -0.0314
  639DG      H714681   1.127   0.208   2.434 -0.0404  2.3534 -0.5955
  639DG      H814682   0.982   0.154   2.334 -0.3573  0.8153 -0.4473
  639DG      O914683   1.497   0.499   2.173  0.5598 -0.3300  0.0899
  639DG     O1014684   1.125   0.295   2.266 -0.3679  0.1678  0.0437
  639DG     C1114685   1.467   0.559   2.043  0.4754  0.5719  0.0549
  639DG     C1214686   1.082   0.289   2.129 -0.5714 -0.0589 -0.2893
  639DG     H1314687   1.509   0.496   1.965 -0.0473  0.8303 -0.4395
  639DG     H1414688   1.504   0.661   2.027 -2.5093  1.5112 -1.4738
  639DG     H1514689   0.973   0.286   2.128 -0.5906 -1.5515  1.3504
  639DG     H1614690   1.115   0.205   2.068  0.2567  0.8501 -1.1256
  639DG     C1714691   1.314   0.561   2.030  0.9061 -0.7671 -0.1550
  639DG     C1814692   1.126   0.414   2.056  0.3488 -0.1685 -0.0685
  639DG     O1914693   1.270   0.434   2.066 -0.5093  0.0438 -0.5504
  639DG     H2014694   1.280   0.563   1.927 -1.3903 -2.6343  0.4902
  639DG     H2114695   1.275   0.647   2.085  0.6328 -1.4355  0.7316
  639DG     H2214696   1.099   0.407   1.951  2.0888 -1.8802 -0.4623
  639DG     H2314697   1.077   0.503   2.097 -0.0754 -0.8823  1.0220
  640DG      C114698   1.899   0.841   3.037  0.1834  0.4754 -0.7618
  640DG      C214699   2.384   0.538   3.350  0.3147 -0.2741 -0.6149
  640DG      H314700   1.807   0.900   3.042  1.1830  2.0093  0.7075
  640DG      H414701   1.893   0.738   3.003  2.5466  0.1665 -0.4083
  640DG      H514702   1.955   0.894   2.959  0.5417  0.0642 -0.7863
  640DG      H614703   2.338   0.446   3.314 -2.4211  1.5399 -2.0983
  640DG      H714704   2.449   0.565   3.267 -1.1496  0.9701 -1.4159
  640DG      H814705   2.441   0.508   3.438 -0.9440 -0.7608  0.0608
  640DG      O914706   1.964   0.847   3.154  0.3365 -0.4730  0.2766
  640DG     O1014707   2.291   0.638   3.384  0.7115  0.2879 -0.1648
  640DG     C1114708   2.014   0.975   3.188 -0.5088 -0.0460 -0.7154
  640DG     C1214709   2.352   0.748   3.444  0.8595 -0.1542 -0.1808
  640DG     H1314710   1.932   1.046   3.188  1.6472  2.6462  0.5959
  640DG     H1414711   2.088   1.004   3.113 -1.5287  1.9059 -1.0266
  640DG     H1514712   2.436   0.795   3.394 -0.2230 -0.6925 -2.6914
  640DG     H1614713   2.384   0.725   3.545 -1.1587 -1.9779  0.1427
  640DG     C1714714   2.069   0.962   3.327  0.0491 -0.4253 -0.3442
  640DG     C1814715   2.245   0.854   3.452  0.4078  0.3483  0.5629
  640DG     O1914716   2.186   0.874   3.319 -0.0490 -0.7077  0.0366
  640DG     H2014717   1.997   0.920   3.398 -0.7945  1.5392  0.0177
  640DG     H2114718   2.093   1.059   3.370 -1.0958 -1.0587  1.8598
  640DG     H2214719   2.164   0.829   3.521  0.5180 -1.0066  0.2313
  640DG     H2314720   2.285   0.951   3.483 -1.5658  1.3592  0.1353
  641DG      C114721   2.664   1.611   0.141  0.5379 -0.1927  0.2226
  641DG      C214722   2.631   2.111   0.445  0.6433  0.8627 -0.2919
  641DG      H314723   2.752   1.672   0.163 -0.2652  0.3584  2.0916
  641DG      H414724   2.698   1.573   0.045  2.8006  0.3996  0.7148
  641DG      H514725   2.658   1.533   0.216  0.2922 -0.0269  0.3761
  641DG      H614726   2.698   2.045   0.501 -0.4004  0.4605  0.5263
  641DG      H714727   2.692   2.191   0.405  0.0281  0.8537 -1.2848
  641DG      H814728   2.544   2.145   0.502  1.5254  1.2817  0.8339
  641DG      O914729   2.543   1.678   0.116  0.2765  0.2370 -0.5710
  641DG     O1014730   2.576   2.040   0.328  0.2911  0.5156  0.6926
  641DG     C1114731   2.531   1.772   0.007  1.3903  0.0380 -0.8546
  641DG     C1214732   2.468   2.112   0.269  0.0596 -0.0609 -0.0012
  641DG     H1314733   2.525   1.714  -0.085  0.6722  2.3608 -2.3296
  641DG     H1414734   2.611   1.844   0.015  0.5491  0.9118 -0.0855
  641DG     H1514735   2.492   2.218   0.261 -4.1497  1.0621  0.1590
  641DG     H1614736   2.379   2.107   0.331  0.3943 -0.8361  0.4250
  641DG     C1714737   2.397   1.857   0.021  0.4926 -0.2551  0.7839
  641DG     C1814738   2.447   2.053   0.131 -0.1235 -0.2373 -0.4193
  641DG     O1914739   2.413   1.915   0.144 -0.8352  0.0527  0.3734
  641DG     H2014740   2.316   1.785   0.015  0.6332 -0.3181 -0.8983
  641DG     H2114741   2.388   1.929  -0.061 -1.0788 -0.7180  0.5312
  641DG     H2214742   2.374   2.113   0.079  0.6957  1.6047  0.4504
  641DG     H2314743   2.544   2.064   0.081 -0.5213 -0.4575 -1.2531
  642DG      C114744   1.981   0.788   5.130 -0.3693  0.1915 -0.2738
  642DG      C214745   2.291   1.497   4.847 -0.0426  0.2423 -1.3032
  642DG      H314746   1.883   0.809   5.090 -1.1402  0.3678  1.5930
  642DG      H414747   1.962   0.765   5.235  0.9222 -0.4609 -0.1572
  642DG      H514748   2.027   0.704   5.077 -0.2642  0.7513 -1.0830
  642DG      H614749   2.378   1.498   4.912 -3.0875  2.3923  3.2396
  642DG      H714750   2.312   1.472   4.743  0.2254 -1.6850 -0.8164
  642DG      H814751   2.249   1.597   4.857 -0.0849 -0.0132  2.4403
  642DG      O914752   2.070   0.906   5.142 -0.1553  0.3523  0.2824
  642DG     O1014753   2.206   1.393   4.907 -0.0553  0.4075 -0.2049
  642DG     C1114754   2.021   1.014   5.217  0.2093  0.7897  0.7679
  642DG     C1214755   2.282   1.272   4.925  0.0341  0.5933 -0.6381
  642DG     H1314756   1.983   0.985   5.315 -1.1022  1.3064  0.4257
  642DG     H1414757   1.938   1.067   5.170 -1.7347 -1.5238  1.3573
  642DG     H1514758   2.371   1.294   4.985 -1.4145  0.0153  1.9033
  642DG     H1614759   2.308   1.238   4.825  0.0911  0.7160 -0.6659
  642DG     C1714760   2.140   1.112   5.232  0.0232 -0.2082  0.8141
  642DG     C1814761   2.189   1.169   5.003 -0.0559 -0.1619 -0.1314
  642DG     O1914762   2.141   1.217   5.128 -0.1097  0.5295  0.2077
  642DG     H2014763   2.235   1.059   5.239  0.7401  0.2582 -3.1240
  642DG     H2114764   2.127   1.153   5.332 -1.2825  1.0765  0.1504
  642DG     H2214765   2.097   1.162   4.944  0.5753 -1.7351 -0.9884
  642DG     H2314766   2.238   1.072   5.005  1.1797  0.4313 -0.7551
  643DG      C114767   3.842   5.231   5.029 -0.3481 -0.9791  0.0631
  643DG      C214768   3.233   5.633   4.686  0.8678  0.0660  0.0651
  643DG      H314769   3.903   5.296   4.966 -0.0989 -1.8132 -0.5739
  643DG      H414770   3.901   5.150   5.072  0.5422  0.1958  1.1325
  643DG      H514771   3.796   5.283   5.113 -1.1306  0.7728 -1.3820
  643DG      H614772   3.197   5.698   4.606  0.1230  1.2650  1.3342
  643DG      H714773   3.173   5.544   4.670 -1.1004  1.0305  1.6630
  643DG      H814774   3.215   5.671   4.787  1.8294 -2.5768  1.3197
  643DG      O914775   3.738   5.163   4.951  0.0686 -0.3714  0.0720
  643DG     O1014776   3.368   5.591   4.686 -0.6123 -0.7454  0.4711
  643DG     C1114777   3.620   5.230   4.917 -0.3188  0.3802  0.2050
  643DG     C1214778   3.410   5.510   4.576  0.4026 -0.1534  0.6720
  643DG     H1314779   3.587   5.294   4.999  1.5388 -0.2574  1.5271
  643DG     H1414780   3.539   5.157   4.919 -0.5344  0.6349  2.1578
  643DG     H1514781   3.425   5.575   4.490  0.0969  0.2781  0.9425
  643DG     H1614782   3.335   5.435   4.552  0.2926 -0.0333  0.6433
  643DG     C1714783   3.644   5.304   4.786  0.2842  0.0369 -0.7008
  643DG     C1814784   3.539   5.445   4.615 -0.6541 -0.1388  0.2108
  643DG     O1914785   3.524   5.367   4.734 -0.0282 -0.1292 -0.5021
  643DG     H2014786   3.665   5.228   4.710  0.7861  0.0018 -0.5281
  643DG     H2114787   3.730   5.371   4.794  1.2354 -1.1306 -0.7866
  643DG     H2214788   3.572   5.374   4.539 -1.7909 -0.0905 -0.3468
  643DG     H2314789   3.619   5.516   4.638 -0.9325  0.1855  0.1863
  644DG      C114790   1.605   1.367   5.157 -0.2185 -0.6139  0.0476
  644DG      C214791   2.314   1.739   5.117  0.2865 -0.2831  0.4845
  644DG      H314792   1.533   1.442   5.190  0.9616  0.5054  0.1232
  644DG      H414793   1.663   1.337   5.244 -0.8936 -0.3685  0.5967
  644DG      H514794   1.554   1.291   5.097  0.4156 -1.8786  1.0671
  644DG      H614795   2.407   1.702   5.073  0.1346  1.6120 -1.6134
  644DG      H714796   2.308   1.842   5.082 -0.0457 -0.2313  0.6893
  644DG      H814797   2.322   1.745   5.226  0.1129  3.3585  0.4346
  644DG      O914798   1.701   1.436   5.082 -0.0907 -0.2897  0.0233
  644DG     O1014799   2.201   1.666   5.087  0.1275 -0.0990 -0.0923
  644DG     C1114800   1.794   1.354   5.009  0.0268  0.2506  0.4752
  644DG     C1214801   2.081   1.739   5.056  0.6722  0.2637 -0.0005
  644DG     H1314802   1.753   1.289   4.933 -0.3630  1.6430 -0.5525
  644DG     H1414803   1.861   1.303   5.078 -1.1482  0.0934  1.5195
  644DG     H1514804   2.102   1.838   5.016  1.8096  1.1023  2.4580
  644DG     H1614805   2.030   1.754   5.152 -0.3934 -1.1243 -0.3225
  644DG     C1714806   1.871   1.454   4.929  0.1205 -1.3322  0.6445
  644DG     C1814807   1.986   1.656   4.961  0.4987 -0.5513 -0.8087
  644DG     O1914808   1.946   1.532   5.018  0.2108  0.1878 -0.6374
  644DG     H2014809   1.807   1.521   4.871  1.9735  0.7614  0.8631
  644DG     H2114810   1.948   1.414   4.863 -0.1843 -1.4867  0.3808
  644DG     H2214811   1.893   1.712   4.946 -0.3311 -2.2375 -2.3392
  644DG     H2314812   2.027   1.645   4.861  1.2513  1.0394 -0.7021
  645DG      C114813   0.327   3.821   5.327 -0.4283  0.4541 -0.0675
  645DG      C214814   0.640   4.430   5.615  0.0793 -0.3451  0.3701
  645DG      H314815   0.324   3.826   5.436 -1.8821  1.5621 -0.1264
  645DG      H414816   0.403   3.751   5.292 -0.9278  0.0933 -0.4388
  645DG      H514817   0.230   3.786   5.291 -0.0944 -2.0664  1.2682
  645DG      H614818   0.656   4.538   5.604  1.8497 -0.5068  1.1824
  645DG      H714819   0.651   4.424   5.723  0.3421 -0.5846  0.3290
  645DG      H814820   0.722   4.369   5.579  0.5407 -0.1737  1.1067
  645DG      O914821   0.354   3.947   5.271  0.0108  0.0262  0.4856
  645DG     O1014822   0.527   4.371   5.566 -0.4786  0.0889 -0.1804
  645DG     C1114823   0.247   4.040   5.291 -0.1535 -0.1458  0.1356
  645DG     C1214824   0.503   4.381   5.425 -0.0424 -0.1745  0.1236
  645DG     H1314825   0.148   3.997   5.274 -0.2718  0.2089 -0.0999
  645DG     H1414826   0.260   4.118   5.216 -0.1027  0.0708  0.3697
  645DG     H1514827   0.579   4.314   5.383  0.3968 -0.6946  1.6827
  645DG     H1614828   0.516   4.485   5.395 -0.1909  0.3771  1.9062
  645DG     C1714829   0.248   4.100   5.433 -0.5102 -0.1380 -0.1245
  645DG     C1814830   0.367   4.308   5.391  0.2947 -0.6317  0.1992
  645DG     O1914831   0.370   4.174   5.441  0.0389 -0.0804 -0.1009
  645DG     H2014832   0.245   4.012   5.498 -0.3099 -0.8579 -1.0656
  645DG     H2114833   0.159   4.158   5.455 -1.2936 -1.0385 -0.8226
  645DG     H2214834   0.280   4.364   5.426 -0.0213 -0.5233 -0.7324
  645DG     H2314835   0.357   4.312   5.283  1.3249  1.3841  0.1355
  646DG      C114836   3.691   3.419   1.843  0.5894  0.3743  1.1283
  646DG      C214837   3.389   3.418   2.479 -0.6540  0.0877  0.2424
  646DG      H314838   3.729   3.497   1.777  0.7335 -0.9013 -0.3498
  646DG      H414839   3.717   3.317   1.813 -0.9554  0.6109 -1.2919
  646DG      H514840   3.738   3.427   1.941  1.0433 -1.8447  1.1464
  646DG      H614841   3.442   3.481   2.551  0.4087  0.3803 -0.7701
  646DG      H714842   3.294   3.405   2.530  0.2814  0.9618  2.3606
  646DG      H814843   3.434   3.319   2.471 -1.6402 -0.2233 -2.0572
  646DG      O914844   3.546   3.438   1.840 -0.1258 -0.2285  0.4762
  646DG     O1014845   3.382   3.466   2.345 -0.1385  0.4580  0.3972
  646DG     C1114846   3.520   3.570   1.887 -0.4106 -0.2404  0.2305
  646DG     C1214847   3.305   3.390   2.258  0.8487  0.6310  0.2791
  646DG     H1314848   3.509   3.643   1.806 -0.0016 -0.2608  0.1532
  646DG     H1414849   3.599   3.613   1.949  0.7204  0.7838 -1.8001
  646DG     H1514850   3.207   3.361   2.297  0.1197  0.7923 -1.3481
  646DG     H1614851   3.351   3.293   2.240 -0.4418 -0.1817  1.1542
  646DG     C1714852   3.391   3.559   1.959  0.1370 -0.0964 -0.6781
  646DG     C1814853   3.285   3.470   2.140  0.4506  0.4668  0.5064
  646DG     O1914854   3.408   3.477   2.071  0.1797  0.1598 -0.0076
  646DG     H2014855   3.308   3.519   1.899 -0.4667 -0.1071  0.1498
  646DG     H2114856   3.358   3.655   1.998 -1.0972 -0.7123 -0.1463
  646DG     H2214857   3.209   3.436   2.070 -0.5062  3.0496  0.2053
  646DG     H2314858   3.257   3.569   2.177 -0.6172  0.1384  0.6272
  647DG      C114859   2.548   5.389   1.874  0.3896  0.9230 -0.7884
  647DG      C214860   2.494   5.064   2.449  0.1896  0.5312 -0.4106
  647DG      H314861   2.628   5.459   1.849  1.4826  0.7905  2.0096
  647DG      H414862   2.460   5.408   1.813 -0.4251 -0.4096 -0.0613
  647DG      H514863   2.591   5.291   1.853 -0.5508 -0.0378  1.5054
  647DG      H614864   2.524   4.985   2.380  1.9192  0.8758 -0.0987
  647DG      H714865   2.569   5.067   2.528  2.6814 -0.1219 -2.6294
  647DG      H814866   2.399   5.041   2.498 -0.1341 -2.1358 -2.0621
  647DG      O914867   2.514   5.400   2.008  0.1146 -0.5217 -0.0333
  647DG     O1014868   2.499   5.180   2.373 -0.6770 -0.2750  0.0352
  647DG     C1114869   2.448   5.523   2.048 -0.3126 -0.0005 -0.0995
  647DG     C1214870   2.459   5.296   2.452 -0.3505  0.4201 -0.4355
  647DG     H1314871   2.343   5.523   2.019 -0.7057  1.8492  1.1259
  647DG     H1414872   2.483   5.609   1.990 -1.5211  0.5150 -0.1099
  647DG     H1514873   2.496   5.283   2.554 -0.9790 -0.7915 -0.3338
  647DG     H1614874   2.350   5.294   2.461 -0.3104  0.9742  0.2519
  647DG     C1714875   2.462   5.557   2.194 -0.1147 -0.0332  0.9837
  647DG     C1814876   2.502   5.428   2.391 -0.1971 -0.4528  0.8773
  647DG     O1914877   2.456   5.431   2.258  0.0152  0.2827  0.2868
  647DG     H2014878   2.378   5.618   2.226 -1.8738 -2.3781  1.0966
  647DG     H2114879   2.552   5.617   2.209 -1.2679  2.2936 -0.8115
  647DG     H2214880   2.469   5.515   2.447  3.2528  0.3962  1.8079
  647DG     H2314881   2.610   5.443   2.398 -0.4087  1.8799 -0.1479
  648DG      C114882   5.220   0.967   0.553  0.2007 -0.9655 -0.6988
  648DG      C214883   4.897   1.538   0.415 -0.3468 -0.1238  0.0006
  648DG      H314884   5.302   1.037   0.535  0.9345 -1.5805  0.1632
  648DG      H414885   5.165   0.944   0.462 -1.6562 -0.8027  0.3238
  648DG      H514886   5.258   0.877   0.600  0.2012  0.1403  1.5705
  648DG      H614887   4.812   1.605   0.410 -0.8262 -0.4920  2.0923
  648DG      H714888   4.982   1.597   0.450 -2.0962  1.2366  2.1988
  648DG      H814889   4.907   1.496   0.315 -3.4977 -2.1357  0.3755
  648DG      O914890   5.135   1.027   0.654  0.2708  0.2483  0.0522
  648DG     O1014891   4.893   1.439   0.516  0.0342  0.3008  0.2002
  648DG     C1114892   5.009   0.958   0.667  0.2009 -0.5758 -0.5924
  648DG     C1214893   4.782   1.358   0.522  0.5958 -0.3566  0.1098
  648DG     H1314894   5.029   0.872   0.732 -1.9641 -2.0512 -1.7600
  648DG     H1414895   4.986   0.901   0.577 -1.1138  0.4476 -0.9295
  648DG     H1514896   4.767   1.308   0.427  2.7519  0.7199 -0.8582
  648DG     H1614897   4.693   1.415   0.550  1.1627  0.9558 -0.6631
  648DG     C1714898   4.902   1.058   0.704 -0.1529  0.4787  0.2422
  648DG     C1814899   4.785   1.252   0.633 -0.2563 -0.0892  0.1760
  648DG     O1914900   4.886   1.159   0.599 -0.2010 -0.1285  0.5875
  648DG     H2014901   4.939   1.113   0.791  0.5354 -0.1570  0.3668
  648DG     H2114902   4.803   1.016   0.717  0.4349 -0.9468  0.3342
  648DG     H2214903   4.815   1.306   0.723  0.0406  0.8631 -0.4795
  648DG     H2314904   4.683   1.214   0.642 -0.9912  1.9470  1.1586
  649DG      C114905   0.602   5.071   2.064 -0.8365 -0.5663  0.6078
  649DG      C214906   0.819   4.693   2.652  0.4806  0.0318  0.0856
  649DG      H314907   0.616   5.155   1.996 -0.0551 -3.1015 -2.6484
  649DG      H414908   0.502   5.037   2.038 -1.0569  0.6791 -0.2787
  649DG      H514909   0.675   4.991   2.047 -0.3169 -0.1727  0.9578
  649DG      H614910   0.845   4.720   2.755 -1.6079  0.7155  0.4712
  649DG      H714911   0.762   4.602   2.661 -0.5733  0.7880  1.3911
  649DG      H814912   0.910   4.685   2.592  0.6985  1.7466  0.1249
  649DG      O914913   0.618   5.113   2.198  0.0351  0.1135  0.1760
  649DG     O1014914   0.740   4.806   2.606 -0.1341  0.4782 -0.0215
  649DG     C1114915   0.755   5.143   2.233  0.8870  0.6124  0.4851
  649DG     C1214916   0.795   4.931   2.635  0.2015 -0.1595 -0.4853
  649DG     H1314917   0.770   5.230   2.169 -1.7890 -0.8414 -2.3676
  649DG     H1414918   0.831   5.073   2.199  2.2148  1.6736  1.1641
  649DG     H1514919   0.891   4.960   2.592  0.3415 -0.2107 -0.2137
  649DG     H1614920   0.807   4.948   2.742  0.0165  0.1815 -0.5179
  649DG     C1714921   0.752   5.162   2.377  0.4332 -0.3157 -0.3347
  649DG     C1814922   0.701   5.041   2.587 -0.0689 -0.9274  0.3943
  649DG     O1914923   0.689   5.046   2.440  0.3305 -0.0659 -0.4997
  649DG     H2014924   0.704   5.258   2.395 -3.8348 -2.1089 -1.0066
  649DG     H2114925   0.855   5.175   2.411  1.3078  1.2870 -3.3115
  649DG     H2214926   0.597   5.026   2.617 -0.3929  1.0043  0.3437
  649DG     H2314927   0.736   5.136   2.629  0.5971 -0.9114 -0.1803
  650DG      C114928   3.493   2.984   2.943 -0.2838 -0.7205 -0.2626
  650DG      C214929   3.607   2.542   3.621 -0.3489  1.3149  0.2884
  650DG      H314930   3.457   2.904   2.878 -2.5958  0.1293 -0.1065
  650DG      H414931   3.582   3.031   2.900 -0.4944 -0.3783 -0.3356
  650DG      H514932   3.400   3.041   2.936  0.2081 -0.0900 -2.4975
  650DG      H614933   3.666   2.633   3.609 -0.9373  1.5265 -1.1573
  650DG      H714934   3.542   2.549   3.708 -1.3387 -0.3283 -0.2829
  650DG      H814935   3.673   2.456   3.628 -1.4357  0.5328  1.3482
  650DG      O914936   3.522   2.939   3.068  0.2713  0.1958  0.1491
  650DG     O1014937   3.529   2.533   3.500  0.2996  0.9514  0.2304
  650DG     C1114938   3.648   2.869   3.068  0.1869  0.0671 -0.7450
  650DG     C1214939   3.464   2.650   3.457 -0.2952  0.0492  0.0431
  650DG     H1314940   3.725   2.937   3.028  0.2422  0.9742  0.8088
  650DG     H1414941   3.646   2.781   3.004  4.3945  0.4738 -1.7789
  650DG     H1514942   3.412   2.691   3.544 -2.0157  1.2304 -1.4523
  650DG     H1614943   3.386   2.625   3.385  1.2524 -1.6016 -1.1285
  650DG     C1714944   3.679   2.831   3.207 -0.6725  0.5717 -0.5608
  650DG     C1814945   3.560   2.758   3.396 -0.2935  0.4985 -0.3445
  650DG     O1914946   3.602   2.722   3.261 -0.0841  0.1392 -0.5137
  650DG     H2014947   3.697   2.912   3.277 -1.4940  0.2246  0.0717
  650DG     H2114948   3.775   2.780   3.195 -2.4155 -3.3086  0.3004
  650DG     H2214949   3.492   2.842   3.383 -1.0847 -0.2411 -1.1916
  650DG     H2314950   3.636   2.794   3.465 -0.4247  0.8552 -0.3838
  651PF6-    P114951   0.762   1.033   3.737 -0.1736 -0.4613 -0.0752
  651PF6-    F214952   0.841   1.172   3.700  0.0791  0.1070 -0.4294
  651PF6-    F314953   0.681   0.895   3.770  0.0003 -0.4970  0.0041
  651PF6-    F414954   0.892   0.945   3.725  0.2674 -0.2132 -0.3302
  651PF6-    F514955   0.628   1.118   3.753 -0.1116  0.7920 -0.1538
  651PF6-    F614956   0.730   1.016   3.581 -0.0603 -0.7686  0.2960
  651PF6-    F714957   0.786   1.040   3.896  0.3672 -0.1944  0.0722
  652PF6-    P114958   2.836   3.295   5.421  0.1071 -0.0180  0.1317
  652PF6-    F214959   2.896   3.155   5.488  0.2087  0.0157 -0.3967
  652PF6-    F314960   2.771   3.434   5.361 -0.2536 -0.7929 -0.0259
  652PF6-    F414961   2.707   3.269   5.505 -0.6802 -0.0570 -0.3732
  652PF6-    F514962   2.963   3.324   5.336 -0.0186  0.5080 -0.3678
  652PF6-    F614963   2.778   3.207   5.300 -0.2443  0.3760  0.2127
  652PF6-    F714964   2.893   3.382   5.538 -0.0551  0.5907 -0.1417
  653PF6-    P114965   2.049   1.601   4.474  0.0798 -0.0750 -0.1289
  653PF6-    F214966   2.042   1.478   4.576  0.4540  0.4372  0.2213
  653PF6-    F314967   2.070   1.714   4.369 -0.1144  0.0792 -0.2750
  653PF6-    F414968   1.894   1.621   4.465 -0.1020  0.0964  0.2477
  653PF6-    F514969   2.207   1.585   4.490  0.5673  0.5410 -0.1531
  653PF6-    F614970   2.040   1.497   4.351 -0.6235  0.6094 -0.2711
  653PF6-    F714971   2.054   1.707   4.597 -0.0177  0.1022  0.0339
  654PF6-    P114972   1.314   1.420   2.799 -0.3798  0.3076  0.0660
  654PF6-    F214973   1.307   1.518   2.933 -0.0510  0.3194 -0.1689
  654PF6-    F314974   1.327   1.323   2.665  0.3104 -0.1246  0.2801
  654PF6-    F414975   1.432   1.340   2.870 -0.4152  0.2787  0.0371
  654PF6-    F514976   1.195   1.511   2.730  0.0504 -0.0036 -0.1386
  654PF6-    F614977   1.419   1.516   2.739 -0.2127  0.2510  0.1054
  654PF6-    F714978   1.209   1.322   2.863 -0.0024  0.3083  0.0852
  655PF6-    P114979   4.932   3.663   3.791 -0.2797  0.1187 -0.1627
  655PF6-    F214980   4.938   3.502   3.779 -0.3682  0.3367  0.1747
  655PF6-    F314981   4.930   3.827   3.803  0.0745 -0.2345 -0.1852
  655PF6-    F414982   5.023   3.649   3.925 -0.0164 -0.0102  0.2852
  655PF6-    F514983   4.841   3.673   3.655 -0.4266 -0.2523  0.3996
  655PF6-    F614984   4.796   3.646   3.875 -0.3360  0.2956 -0.7338
  655PF6-    F714985   5.065   3.669   3.699 -0.5168 -0.0411 -0.1621
  656PF6-    P114986   0.592   0.449   0.690 -0.2392  0.0845 -0.1878
  656PF6-    F214987   0.664   0.412   0.829  0.6211  0.3609 -0.1542
  656PF6-    F314988   0.522   0.482   0.550  0.2139 -0.0127  0.6082
  656PF6-    F414989   0.726   0.522   0.644  0.3329 -0.0712  0.2689
  656PF6-    F514990   0.461   0.378   0.741  0.7226  0.3271 -0.1446
  656PF6-    F614991   0.530   0.578   0.758  0.0299 -0.0962 -0.2586
  656PF6-    F714992   0.644   0.308   0.626  0.2274 -0.2045 -0.0374
  657PF6-    P114993   1.470   2.522   2.299  0.0363  0.0057  0.0690
  657PF6-    F214994   1.528   2.377   2.344 -0.0067 -0.4811  0.1560
  657PF6-    F314995   1.408   2.661   2.251  0.0115 -0.2322 -0.0995
  657PF6-    F414996   1.614   2.588   2.316  0.8182 -0.1447  0.0437
  657PF6-    F514997   1.320   2.455   2.270  0.2023 -0.3295 -0.0736
  657PF6-    F614998   1.435   2.555   2.454 -0.0296 -0.4637 -0.5235
  657PF6-    F714999   1.511   2.476   2.153  0.0717  0.1108 -0.3344
  658PF6-    P115000   0.141   4.065   2.798 -0.0209 -0.0363 -0.2202
  658PF6-    F215001   0.254   4.092   2.917  0.0059  0.2631 -0.0681
  658PF6-    F315002   0.030   4.035   2.685  0.0558 -0.0970  0.0622
  658PF6-    F415003   0.257   4.003   2.703 -0.0113  0.4834 -0.4631
  658PF6-    F515004   0.026   4.129   2.893 -0.0562 -0.4272  0.0171
  658PF6-    F615005   0.169   4.213   2.745 -0.0209  0.1564  0.4505
  658PF6-    F715006   0.116   3.919   2.857 -0.0462  0.1556  0.0088
  659PF6-    P115007   5.287   4.549   4.346 -0.2424 -0.5162  0.1145
  659PF6-    F215008   5.347   4.618   4.477 -0.1755  0.4209  0.1711
  659PF6-    F315009   5.231   4.472   4.214  0.6684 -0.2784 -0.2638
  659PF6-    F415010   5.218   4.690   4.299 -0.3890  0.1126  0.3280
  659PF6-    F515011   5.352   4.410   4.384  0.2287 -0.0956  0.3220
  659PF6-    F615012   5.149   4.515   4.428 -0.3045  0.5133 -0.2740
  659PF6-    F715013   5.418   4.591   4.263 -0.5693 -0.0035  0.2453
  660PF6-    P115014   4.504   5.197   3.630 -0.2416 -0.2975  0.2076
  660PF6-    F215015   4.515   5.242   3.476  0.3114  0.4329 -0.3040
  660PF6-    F315016   4.502   5.165   3.790 -0.3124  0.3454  0.1382
  660PF6-    F415017   4.469   5.045   3.597 -0.2139 -0.0918  0.1073
  660PF6-    F515018   4.544   5.348   3.667 -0.5929  0.8168  0.9604
  660PF6-    F615019   4.347   5.236   3.632 -0.4380 -0.2042 -0.3980
  660PF6-    F715020   4.659   5.172   3.635  0.1214 -0.5142 -0.3005
  661PF6-    P115021   4.563   5.333   2.771 -0.2069 -0.0680  0.5915
  661PF6-    F215022   4.719   5.287   2.770  0.3383 -0.4415  0.1775
  661PF6-    F315023   4.408   5.389   2.773 -0.3586  0.3140 -0.4496
  661PF6-    F415024   4.611   5.483   2.730  0.2870 -0.3680 -0.1630
  661PF6-    F515025   4.515   5.183   2.811  0.1792 -0.2594  0.5607
  661PF6-    F615026   4.575   5.370   2.930 -0.1185 -0.3550  0.0184
  661PF6-    F715027   4.551   5.298   2.611  0.1150  0.2418  0.0829
  662PF6-    P115028   1.350   2.799   4.208  0.2125  0.2192 -0.1875
  662PF6-    F215029   1.292   2.664   4.139  0.1706  0.9190  0.1159
  662PF6-    F315030   1.414   2.931   4.280  0.4170 -0.5871 -0.0223
  662PF6-    F415031   1.496   2.728   4.216  0.4738  0.2161  0.1748
  662PF6-    F515032   1.207   2.872   4.193 -0.0337  0.5732  0.4321
  662PF6-    F615033   1.312   2.741   4.356  0.1869 -0.3130 -0.0968
  662PF6-    F715034   1.387   2.856   4.061  0.3469 -0.1822  0.4566
  663PF6-    P115035   4.698   1.575   5.174  0.3897  0.0529 -0.1025
  663PF6-    F215036   4.847   1.562   5.117 -0.3142 -0.4058  0.1439
  663PF6-    F315037   4.547   1.583   5.235  0.2175  0.5832  0.5545
  663PF6-    F415038   4.743   1.701   5.263 -0.1784 -0.4474 -0.6808
  663PF6-    F515039   4.654   1.441   5.088 -0.1189 -0.5455 -0.0827
  663PF6-    F615040   4.740   1.483   5.300 -0.0870 -0.2574 -0.0028
  663PF6-    F715041   4.649   1.661   5.053 -0.5070 -0.2714  0.1447
  664PF6-    P115042   0.994   3.465   3.405 -0.6696  0.4874  0.1418
  664PF6-    F215043   1.137   3.413   3.450  0.2198  0.3500 -0.0126
  664PF6-    F315044   0.851   3.515   3.359 -0.4062 -0.3193 -0.0467
  664PF6-    F415045   0.939   3.436   3.549  0.0187 -0.0429  0.3461
  664PF6-    F515046   1.046   3.488   3.255 -0.5606  0.1304  0.2097
  664PF6-    F615047   0.947   3.322   3.364  0.2926 -0.1971  0.0977
  664PF6-    F715048   1.030   3.612   3.454  0.3122  0.2735 -0.0050
  665PF6-    P115049   2.190   3.060   3.132  0.1655  0.1831  0.3152
  665PF6-    F215050   2.095   3.139   3.027  0.2448 -0.6111  0.0732
  665PF6-    F315051   2.281   2.985   3.242 -0.0833 -0.2457 -0.3130
  665PF6-    F415052   2.306   3.085   3.030  0.5564 -0.6313  0.1090
  665PF6-    F515053   2.062   3.040   3.235 -0.1623  0.0926  0.0108
  665PF6-    F615054   2.156   2.920   3.062  0.0285  0.0362  0.2577
  665PF6-    F715055   2.226   3.198   3.203 -0.9583 -0.1169 -0.0938
  666PF6-    P115056   4.488   1.591   0.886 -0.0991 -0.5925  0.0152
  666PF6-    F215057   4.504   1.542   1.042 -0.2996  0.0675 -0.3189
  666PF6-    F315058   4.470   1.628   0.731 -0.0945 -0.4243  0.3482
  666PF6-    F415059   4.575   1.464   0.837 -0.5252  0.1326  0.1080
  666PF6-    F515060   4.398   1.713   0.940 -0.1233 -0.3057  0.0237
  666PF6-    F615061   4.622   1.681   0.901 -0.0156  0.1415 -0.5476
  666PF6-    F715062   4.358   1.501   0.876  0.1543 -0.3629  0.1406
  667PF6-    P115063   4.830   0.524   3.587 -0.0128  0.1040 -0.4260
  667PF6-    F215064   4.687   0.595   3.603 -0.0600 -0.1521  0.2838
  667PF6-    F315065   4.977   0.457   3.572  0.1533 -0.0677 -0.1488
  667PF6-    F415066   4.863   0.625   3.462  0.2522 -0.0681 -0.3382
  667PF6-    F515067   4.787   0.429   3.714 -0.3273 -0.0788 -0.3043
  667PF6-    F615068   4.771   0.417   3.486 -0.0909  0.0063  0.2081
  667PF6-    F715069   4.892   0.636   3.684  0.3695  0.3156 -0.2599
  668PF6-    P115070   4.907   1.641   4.300  0.1553 -0.2516  0.0902
  668PF6-    F215071   4.964   1.790   4.263 -0.3120  0.4641 -0.3678
  668PF6-    F315072   4.849   1.494   4.338  0.3280  0.0813  0.0188
  668PF6-    F415073   5.013   1.581   4.201  0.6173 -0.4297  0.0358
  668PF6-    F515074   4.813   1.712   4.406 -0.1721  0.4227  0.0539
  668PF6-    F615075   4.794   1.657   4.187 -0.0127  0.5183 -0.0167
  668PF6-    F715076   5.012   1.626   4.420 -0.2018 -0.0815  0.0073
  669PF6-    P115077   0.853   4.191   1.980  0.2133  0.1286  0.4070
  669PF6-    F215078   0.997   4.128   1.940 -0.1272 -0.2833  0.0798
  669PF6-    F315079   0.710   4.253   2.028  0.3843  0.0271  0.0103
  669PF6-    F415080   0.841   4.272   1.839  0.2661  0.6522 -0.1382
  669PF6-    F515081   0.863   4.111   2.116 -0.2724 -0.3317  0.5824
  669PF6-    F615082   0.928   4.314   2.048  0.3679  0.3095  0.2149
  669PF6-    F715083   0.782   4.060   1.916  0.3161  0.2757  0.4660
  670PF6-    P115084   3.836   3.094   4.885  0.0892 -0.0845 -0.0771
  670PF6-    F215085   3.732   3.181   4.971 -0.6533  0.3458 -0.1033
  670PF6-    F315086   3.931   3.004   4.793  0.1986  0.8139 -0.0565
  670PF6-    F415087   3.850   2.985   5.004 -0.2397 -0.3381  0.3631
  670PF6-    F515088   3.815   3.196   4.760 -0.4328 -0.3942 -0.3801
  670PF6-    F615089   3.961   3.178   4.948  0.2056 -0.1401  0.1523
  670PF6-    F715090   3.703   3.016   4.835 -0.0127 -0.3010  0.0545
  671PF6-    P115091   1.452   4.530   3.021 -0.3098 -0.4451  0.2486
  671PF6-    F215092   1.336   4.584   3.109  0.6201 -0.3573  0.7356
  671PF6-    F315093   1.577   4.480   2.938  0.2716  0.2069  0.7885
  671PF6-    F415094   1.530   4.487   3.155  0.4315  0.0116  0.2948
  671PF6-    F515095   1.378   4.580   2.881 -0.0207  0.3289  0.1320
  671PF6-    F615096   1.527   4.678   3.029  0.0453  0.4116 -0.6750
  671PF6-    F715097   1.384   4.384   3.018 -0.8635 -0.4241 -0.1858
  672PF6-    P115098   1.791   0.575   1.782  0.1923 -0.1276 -0.1292
  672PF6-    F215099   1.756   0.625   1.640 -0.0708 -0.2265  0.2455
  672PF6-    F315100   1.832   0.528   1.925 -0.3019  0.2759  0.0147
  672PF6-    F415101   1.670   0.667   1.843 -0.5512  0.5172 -0.0133
  672PF6-    F515102   1.908   0.485   1.726 -0.2032 -0.2359  0.4467
  672PF6-    F615103   1.891   0.703   1.798 -0.0785  0.5320 -0.7651
  672PF6-    F715104   1.690   0.455   1.757  0.3304 -0.0198  0.2645
  673PF6-    P115105   5.403   0.731   1.969  0.2408  0.1302 -0.1947
  673PF6-    F215106   5.436   0.597   2.059 -0.1664 -0.1467  0.5042
  673PF6-    F315107   5.369   0.864   1.883  0.0664  0.1671  0.0032
  673PF6-    F415108   5.254   0.727   2.031  0.0384  0.1831  0.1994
  673PF6-    F515109   5.548   0.740   1.906  0.3629  0.2578  0.2082
  673PF6-    F615110   5.355   0.643   1.845  0.5925 -0.3663 -0.4270
  673PF6-    F715111   5.443   0.818   2.097 -0.0433 -0.4670 -0.7199
  674PF6-    P115112   4.481   1.984   2.285 -0.1681 -0.1829 -0.0915
  674PF6-    F215113   4.512   1.830   2.270 -0.2214  0.1764 -0.5354
  674PF6-    F315114   4.446   2.140   2.300 -0.8028  0.5368 -0.3509
  674PF6-    F415115   4.624   2.022   2.217 -0.0803 -0.2660 -0.3628
  674PF6-    F515116   4.338   1.960   2.348 -0.2921  0.2316 -0.4295
  674PF6-    F615117   4.544   1.985   2.428 -0.0514 -0.0672 -0.0440
  674PF6-    F715118   4.421   1.984   2.138 -0.3031 -0.4718 -0.6351
  675PF6-    P115119   2.653   3.695   0.925 -0.2858 -0.1732 -0.3381
  675PF6-    F215120   2.753   3.598   0.836  0.2963  0.7638 -0.7009
  675PF6-    F315121   2.560   3.790   1.016 -0.0501  0.2337  0.0016
  675PF6-    F415122   2.775   3.729   1.024 -0.3549 -0.3775  0.1903
  675PF6-    F515123   2.520   3.663   0.839  0.4687  0.4373  0.1262
  675PF6-    F615124   2.620   3.575   1.023  0.0831 -0.0993 -0.0734
  675PF6-    F715125   2.691   3.817   0.832  0.2619 -0.1787  0.1201
  676PF6-    P115126   1.330   3.583   0.826 -0.0637 -0.3957  0.0698
  676PF6-    F215127   1.249   3.722   0.833  0.6117 -0.2893 -0.0083
  676PF6-    F315128   1.425   3.446   0.815  0.2468 -0.2112  0.1457
  676PF6-    F415129   1.314   3.573   0.664  0.4895 -0.2636  0.0070
  676PF6-    F515130   1.349   3.576   0.983 -0.0315 -0.1434 -0.1341
  676PF6-    F615131   1.195   3.491   0.839 -0.3772  0.0978  0.0770
  676PF6-    F715132   1.470   3.677   0.812  0.8233 -0.5505  0.2762
  677PF6-    P115133   0.653   2.306   4.430 -0.0432 -0.3119 -0.2375
  677PF6-    F215134   0.777   2.414   4.421 -0.2008  0.1566 -0.2017
  677PF6-    F315135   0.532   2.203   4.433 -0.1684 -0.0307 -0.4143
  677PF6-    F415136   0.744   2.195   4.365  0.2180 -0.1538 -0.1739
  677PF6-    F515137   0.556   2.416   4.483 -0.0306  0.4661  0.2198
  677PF6-    F615138   0.606   2.342   4.281 -0.4260  0.3222 -0.6330
  677PF6-    F715139   0.701   2.267   4.576  0.0445 -0.0319 -0.3432
  678PF6-    P115140   3.206   1.072   2.916 -0.2969 -0.3142  0.0722
  678PF6-    F215141   3.233   0.941   3.007  0.2185  0.1643 -0.2121
  678PF6-    F315142   3.183   1.206   2.828 -0.1671  0.5812  0.7889
  678PF6-    F415143   3.274   0.999   2.791  1.1493 -0.6580  0.9230
  678PF6-    F515144   3.135   1.142   3.038 -0.0533  0.8645 -0.1133
  678PF6-    F615145   3.349   1.127   2.962  0.0872 -0.4306 -0.3270
  678PF6-    F715146   3.067   1.013   2.868 -0.0826  0.2146 -0.1233
  679PF6-    P115147   4.092   4.456   3.821  0.1076  0.0560  0.0796
  679PF6-    F215148   4.033   4.328   3.750  0.0138 -0.2277  0.4348
  679PF6-    F315149   4.154   4.579   3.899  0.2758 -0.1788  0.6676
  679PF6-    F415150   4.123   4.523   3.680 -0.2288  0.3949 -0.2391
  679PF6-    F515151   4.056   4.390   3.967 -0.0815 -0.6606  0.2040
  679PF6-    F615152   4.239   4.392   3.820  0.3472  0.1066  0.0335
  679PF6-    F715153   3.943   4.518   3.828  0.5083 -0.3792 -0.0501
  680PF6-    P115154   0.737   3.595   4.307 -0.1040  0.1973  0.5599
  680PF6-    F215155   0.635   3.713   4.291  0.3200  0.5389 -0.5563
  680PF6-    F315156   0.836   3.469   4.331  0.3601  0.1178 -0.1640
  680PF6-    F415157   0.620   3.489   4.264  0.0373 -0.2837 -0.4270
  680PF6-    F515158   0.853   3.698   4.343 -0.0935 -0.4082 -0.2801
  680PF6-    F615159   0.699   3.586   4.463 -0.0987  0.2025 -0.4757
  680PF6-    F715160   0.773   3.600   4.156 -0.0963  0.0917  0.2972
  681PF6-    P115161   5.497   1.945   0.059  0.1156  0.2107 -0.0230
  681PF6-    F215162   5.510   1.826   0.164 -0.3896  0.3710 -0.2160
  681PF6-    F315163   5.485   2.071  -0.050 -0.3348  0.7070  0.0882
  681PF6-    F415164   5.406   2.024   0.163  0.4048  0.3337 -0.3273
  681PF6-    F515165   5.587   1.864  -0.054  0.0904  0.8514 -0.7267
  681PF6-    F615166   5.365   1.878  -0.010  0.2706  0.1687  0.3134
  681PF6-    F715167   5.631   2.003   0.121 -0.1274 -0.2398  0.2469
  682PF6-    P115168   1.935   0.367   2.600 -0.0926  0.5851  0.0927
  682PF6-    F215169   1.914   0.205   2.614 -0.5640 -0.1919  0.3158
  682PF6-    F315170   1.950   0.528   2.595  0.1109  0.1584  0.6520
  682PF6-    F415171   1.774   0.380   2.610  0.0054 -0.4347 -0.2675
  682PF6-    F515172   2.093   0.350   2.588 -0.8751 -0.2599  0.0226
  682PF6-    F615173   1.919   0.358   2.440  0.3758  0.3162  0.1441
  682PF6-    F715174   1.946   0.372   2.762  0.0481 -0.4352 -0.1851
  683PF6-    P115175   4.530   4.207   1.677  0.1081 -0.1037  0.5472
  683PF6-    F215176   4.631   4.184   1.556 -0.1997 -0.1872 -0.6085
  683PF6-    F315177   4.424   4.222   1.793  0.1644 -0.0988  0.0070
  683PF6-    F415178   4.550   4.052   1.712 -0.3399  0.5648 -0.3172
  683PF6-    F515179   4.516   4.368   1.639 -0.0964  0.4428  0.5369
  683PF6-    F615180   4.409   4.169   1.568  0.4071 -0.1632 -0.2306
  683PF6-    F715181   4.653   4.244   1.774  0.1805  0.2800  0.0622
  684PF6-    P115182   0.026   0.947   4.564 -0.4368 -0.1741 -0.3544
  684PF6-    F215183   0.165   0.999   4.497 -0.6562 -0.2138  0.4706
  684PF6-    F315184  -0.109   0.902   4.637 -0.3352  0.0458 -0.4715
  684PF6-    F415185   0.108   0.875   4.679 -0.0362 -0.1571 -0.1246
  684PF6-    F515186  -0.056   1.019   4.451 -0.0261 -0.5481 -0.0917
  684PF6-    F615187   0.028   0.810   4.478  0.0870 -0.4125 -0.4299
  684PF6-    F715188   0.023   1.071   4.654  0.1861 -0.4078 -0.3305
  685PF6-    P115189   3.714   4.753   1.382  0.2151  0.0993  0.0999
  685PF6-    F215190   3.612   4.815   1.489 -0.5454  0.0355  0.3609
  685PF6-    F315191   3.820   4.700   1.271  0.0603  0.2917  0.3166
  685PF6-    F415192   3.686   4.600   1.431 -0.2236 -0.1221 -0.3035
  685PF6-    F515193   3.742   4.912   1.337  0.5412  0.4404  0.2385
  685PF6-    F615194   3.836   4.764   1.482  0.0008 -0.4575 -0.9251
  685PF6-    F715195   3.596   4.740   1.275 -0.0891  1.1121  0.0057
  686PF6-    P115196   5.451   2.215   2.581  0.0528 -0.6692 -0.2668
  686PF6-    F215197   5.593   2.267   2.533 -0.1227 -0.4550  0.1254
  686PF6-    F315198   5.307   2.153   2.621  0.3252 -0.1193 -0.4216
  686PF6-    F415199   5.490   2.071   2.517  0.0459  0.1640  0.1852
  686PF6-    F515200   5.417   2.358   2.641 -0.4462 -0.5584 -0.1747
  686PF6-    F615201   5.388   2.265   2.434 -0.3546  0.5487  0.0340
  686PF6-    F715202   5.517   2.170   2.722  0.1462  0.8019  0.3500
  687PF6-    P115203   0.195   2.931   4.184  0.3408 -0.0695 -0.4063
  687PF6-    F215204   0.205   2.868   4.334  0.1047 -0.1337 -0.0681
  687PF6-    F315205   0.184   2.995   4.038 -0.2568  0.1547 -0.1907
  687PF6-    F415206   0.241   2.791   4.126 -0.2715  0.5637  0.1505
  687PF6-    F515207   0.144   3.069   4.247 -0.1677 -0.3208 -0.0131
  687PF6-    F615208   0.344   2.986   4.197  0.8183  0.0012  0.0333
  687PF6-    F715209   0.041   2.895   4.179 -0.0238  0.5281 -0.3442
  688PF6-    P115210   2.407   1.454   0.431 -0.2849 -0.1442  0.0298
  688PF6-    F215211   2.559   1.493   0.452 -0.4711 -0.4102  0.5235
  688PF6-    F315212   2.253   1.418   0.415 -0.3985  0.7469  0.6774
  688PF6-    F415213   2.359   1.593   0.494 -0.4417  0.3047  0.1240
  688PF6-    F515214   2.451   1.320   0.368 -0.6720  0.1721  0.1872
  688PF6-    F615215   2.406   1.387   0.573 -0.3508 -0.1921 -0.5451
  688PF6-    F715216   2.403   1.521   0.284  0.0992  0.7674  0.1364
  689PF6-    P115217   5.453   4.519   5.300 -0.2697  0.3907  0.2374
  689PF6-    F215218   5.509   4.381   5.237 -0.1660  0.3995 -0.3993
  689PF6-    F315219   5.400   4.651   5.358 -0.2375 -0.4641 -0.3303
  689PF6-    F415220   5.431   4.578   5.149 -0.4754  0.4438 -0.2535
  689PF6-    F515221   5.475   4.463   5.450  0.0272 -0.0374  0.1952
  689PF6-    F615222   5.605   4.576   5.305  0.0778  0.5887  0.3326
  689PF6-    F715223   5.309   4.455   5.300 -0.1465 -0.4726  0.0880
  690PF6-    P115224   5.088   4.721   1.062  0.0557 -0.0248 -0.2167
  690PF6-    F215225   5.171   4.818   0.961 -0.0571 -0.7594  0.3384
  690PF6-    F315226   5.009   4.620   1.167  0.2910  0.1424  0.6021
  690PF6-    F415227   5.223   4.628   1.069  0.3790  0.9070 -0.1663
  690PF6-    F515228   4.961   4.819   1.057  0.0972 -0.3612 -0.7124
  690PF6-    F615229   5.023   4.635   0.935 -0.4711  0.4614  0.0921
  690PF6-    F715230   5.148   4.805   1.188  0.1074  0.1299  0.2212
  691PF6-    P115231   2.552   5.376   1.396 -0.0537  0.1740 -0.2617
  691PF6-    F215232   2.433   5.418   1.495  0.4116  0.3246 -0.2690
  691PF6-    F315233   2.670   5.341   1.297 -0.0793  0.0811 -0.3498
  691PF6-    F415234   2.598   5.531   1.390 -0.8600  0.2506 -0.5912
  691PF6-    F515235   2.505   5.224   1.400  0.3299  0.0265  0.0240
  691PF6-    F615236   2.456   5.407   1.272 -0.2332  0.7396  0.8747
  691PF6-    F715237   2.645   5.345   1.521  0.1067 -0.3192  0.0223
  692PF6-    P115238   3.205   1.450   1.433 -0.4653  0.3853 -0.0381
  692PF6-    F215239   3.230   1.582   1.519  0.4159 -0.7544  0.5432
  692PF6-    F315240   3.190   1.311   1.353  0.0778  0.1420 -0.8033
  692PF6-    F415241   3.219   1.524   1.297 -0.2175  0.1512 -0.8267
  692PF6-    F515242   3.194   1.368   1.571 -0.2724  0.0831  0.2562
  692PF6-    F615243   3.051   1.475   1.419  0.1054 -0.2881 -0.3679
  692PF6-    F715244   3.362   1.430   1.430 -0.1420  0.0900 -0.1446
  693PF6-    P115245   0.824   2.469   0.952 -0.2018 -0.2418  0.1146
  693PF6-    F215246   0.784   2.362   1.062 -0.3962  0.0966  0.3927
  693PF6-    F315247   0.874   2.577   0.845 -0.0604  0.0891  0.5673
  693PF6-    F415248   0.969   2.466   1.016 -0.2310 -0.4495  0.4958
  693PF6-    F515249   0.676   2.462   0.892  1.0454 -0.6355 -0.6902
  693PF6-    F615250   0.771   2.590   1.049 -0.5998  0.4246 -0.0576
  693PF6-    F715251   0.870   2.358   0.842  0.1895 -0.7932 -0.5923
  694PF6-    P115252   2.411   4.166   5.067 -0.1485 -0.2952 -0.3283
  694PF6-    F215253   2.427   4.323   5.024  0.1358  0.1248 -0.2253
  694PF6-    F315254   2.384   4.014   5.106  0.1070  0.4671 -0.5846
  694PF6-    F415255   2.380   4.210   5.218 -0.1975  0.3679  0.3558
  694PF6-    F515256   2.445   4.123   4.921 -0.0863  0.2105  0.1480
  694PF6-    F615257   2.569   4.157   5.103 -0.0963  0.1703  0.4663
  694PF6-    F715258   2.251   4.176   5.026  0.1678  0.6534 -0.0777
  695PF6-    P115259   5.450   3.647   2.002 -0.4622  0.1041  0.0947
  695PF6-    F215260   5.343   3.762   1.960  0.2935 -0.1893 -0.7440
  695PF6-    F315261   5.555   3.529   2.035  0.1439 -0.6597 -0.0966
  695PF6-    F415262   5.488   3.718   2.144 -0.2285 -0.2881 -0.5442
  695PF6-    F515263   5.419   3.577   1.863  0.1893 -0.3848  0.0417
  695PF6-    F615264   5.565   3.732   1.927 -0.5913  0.0865 -0.4567
  695PF6-    F715265   5.340   3.554   2.080  0.0632 -0.0397 -0.1104
  696PF6-    P115266   1.385   4.463   0.458 -0.4477  0.9760 -0.0719
  696PF6-    F215267   1.400   4.353   0.340 -0.2535  0.2367 -0.4496
  696PF6-    F315268   1.367   4.574   0.565  0.1060  0.6482 -0.3035
  696PF6-    F415269   1.512   4.547   0.401 -0.3566 -0.4172  0.3422
  696PF6-    F515270   1.253   4.393   0.517 -0.2225  0.3123  0.2528
  696PF6-    F615271   1.480   4.375   0.551 -0.0622  0.0134 -0.1173
  696PF6-    F715272   1.294   4.549   0.352  0.1284 -0.1226 -0.3041
  697PF6-    P115273   2.082   0.794   1.011 -0.0858 -0.0216  0.3656
  697PF6-    F215274   1.968   0.897   0.963  0.0999  0.2298 -0.4239
  697PF6-    F315275   2.195   0.687   1.057 -0.3878 -0.3376  0.6936
  697PF6-    F415276   2.020   0.799   1.163 -0.4421 -0.4887 -0.2509
  697PF6-    F515277   2.138   0.787   0.858  0.2505  0.5066 -0.3538
  697PF6-    F615278   2.171   0.922   1.040  0.4668 -0.3123  0.1866
  697PF6-    F715279   1.984   0.675   0.978 -0.6414 -0.2371 -0.3477
  698PF6-    P115280   3.942   1.117   0.247 -0.2327 -0.4315  0.0098
  698PF6-    F215281   3.829   1.227   0.216  0.1244 -0.5365  0.0748
  698PF6-    F315282   4.053   1.005   0.274 -0.0193  0.3056 -0.5329
  698PF6-    F415283   3.845   1.048   0.358  0.3567  0.2553 -0.1638
  698PF6-    F515284   4.046   1.191   0.150 -0.4927 -0.9588 -0.1285
  698PF6-    F615285   3.994   1.212   0.365  0.2612 -0.1842 -0.3958
  698PF6-    F715286   3.883   1.028   0.126  0.4644  0.0623  0.1968
  699PF6-    P115287   1.992   2.023   5.437 -0.0421  0.0891 -0.0709
  699PF6-    F215288   1.906   2.151   5.462  0.4510 -0.3531 -0.3929
  699PF6-    F315289   2.080   1.892   5.412 -0.6582 -0.2020 -0.0789
  699PF6-    F415290   1.909   1.954   5.557 -0.3202 -0.2294  0.4101
  699PF6-    F515291   2.071   2.093   5.317 -0.2738  0.0843  0.4863
  699PF6-    F615292   2.095   2.067   5.543  0.0994 -0.2029 -0.2951
  699PF6-    F715293   1.889   1.976   5.331 -0.2402  0.1043 -0.3898
  700PF6-    P115294   2.550   3.933   2.776 -0.2085 -0.2625  0.2029
  700PF6-    F215295   2.493   4.066   2.829  0.2212  0.1395 -0.2458
  700PF6-    F315296   2.615   3.798   2.721 -0.0245 -0.2296  0.6655
  700PF6-    F415297   2.689   4.011   2.763 -0.0612  0.1502  0.4446
  700PF6-    F515298   2.411   3.859   2.779  0.5137  0.3373 -0.2125
  700PF6-    F615299   2.505   3.988   2.633 -0.0207 -0.1283  0.2929
  700PF6-    F715300   2.583   3.877   2.919 -0.1426 -0.1969 -0.3498
  701PF6-    P115301   2.514   0.515   2.168  0.1188 -0.7013  0.1043
  701PF6-    F215302   2.607   0.450   2.051 -0.0239 -0.2841  0.5421
  701PF6-    F315303   2.427   0.583   2.288 -0.4175  0.5600 -0.2828
  701PF6-    F415304   2.474   0.633   2.068 -0.2507 -0.2104  0.1049
  701PF6-    F515305   2.546   0.390   2.264 -0.0891  0.5617  0.1623
  701PF6-    F615306   2.642   0.594   2.219  0.5503  0.5100  0.3725
  701PF6-    F715307   2.385   0.441   2.113 -0.1520  0.4319 -0.2608
  702PF6-    P115308   4.388   2.930   1.453  0.0245  0.1900 -0.1479
  702PF6-    F215309   4.279   3.030   1.522 -0.1609 -0.6971 -0.1011
  702PF6-    F315310   4.492   2.831   1.385 -0.2694  0.5704  0.0525
  702PF6-    F415311   4.292   2.918   1.330 -0.2748 -0.2698  0.4820
  702PF6-    F515312   4.486   2.939   1.582 -0.1103 -0.1893 -0.3788
  702PF6-    F615313   4.315   2.803   1.520  0.2135 -0.1531  0.2852
  702PF6-    F715314   4.464   3.048   1.394  0.2826 -0.0743  0.4691
  703PF6-    P115315   5.363   3.659   5.366 -0.2219  0.6048 -0.0640
  703PF6-    F215316   5.463   3.591   5.259  0.4260 -0.0254  0.2128
  703PF6-    F315317   5.250   3.728   5.464 -0.1801  0.0524  0.2140
  703PF6-    F415318   5.463   3.634   5.487 -0.0157  0.6813 -0.6140
  703PF6-    F515319   5.261   3.679   5.245  0.0018 -0.0016  0.3747
  703PF6-    F615320   5.295   3.517   5.395 -0.5080 -0.2048  0.0949
  703PF6-    F715321   5.426   3.810   5.339  0.1864 -0.4385  0.0376
  704PF6-    P115322   3.936   1.847   5.242 -0.5486  0.3139  0.0790
  704PF6-    F215323   3.978   1.701   5.190  0.0536  0.6229  0.1626
  704PF6-    F315324   3.887   1.982   5.308 -0.1994  0.2758  0.2543
  704PF6-    F415325   4.092   1.877   5.259 -0.0674  0.2094 -0.4048
  704PF6-    F515326   3.782   1.807   5.213  0.0126  0.2513  0.3076
  704PF6-    F615327   3.922   1.786   5.391 -0.0053  0.1090 -0.3672
  704PF6-    F715328   3.944   1.914   5.097  0.0350  0.3393  0.4945
  705PF6-    P115329   0.959   5.474   2.686 -0.0502 -0.0328 -0.2533
  705PF6-    F215330   1.069   5.469   2.800 -0.0547  0.5239 -0.2434
  705PF6-    F315331   0.840   5.475   2.572  0.3637 -0.3579 -0.2189
  705PF6-    F415332   1.068   5.474   2.574  0.2518  0.0322  0.5856
  705PF6-    F515333   0.847   5.481   2.801 -0.1710  0.5316  0.2472
  705PF6-    F615334   0.959   5.636   2.685  0.1127  0.2212 -0.7611
  705PF6-    F715335   0.951   5.315   2.682 -0.0477 -0.1542 -0.2992
  706PF6-    P115336   1.623   0.103   0.809  0.0465  0.0814  0.3220
  706PF6-    F215337   1.613  -0.055   0.765  0.2420  0.3547  0.0494
  706PF6-    F315338   1.620   0.258   0.860 -0.3116 -0.0307 -0.2925
  706PF6-    F415339   1.705   0.146   0.679  0.1211 -0.3896  0.2067
  706PF6-    F515340   1.538   0.061   0.935 -0.1388 -0.2320  0.2973
  706PF6-    F615341   1.754   0.078   0.904 -0.7302  0.3346 -0.4295
  706PF6-    F715342   1.487   0.126   0.726 -0.0777  0.0118 -0.1909
  707PF6-    P115343   3.232   1.821   4.643  0.0707  0.6526 -0.3308
  707PF6-    F215344   3.185   1.916   4.517 -0.0135  0.4383  0.7762
  707PF6-    F315345   3.270   1.733   4.774  0.0370  0.3518  0.4205
  707PF6-    F415346   3.374   1.885   4.644 -0.5446 -0.8295  0.2044
  707PF6-    F515347   3.093   1.753   4.639  0.7877  0.2109 -0.5525
  707PF6-    F615348   3.284   1.700   4.547  0.1568  0.2016 -0.1077
  707PF6-    F715349   3.184   1.933   4.746 -0.0257  0.5149  0.5389
  708PF6-    P115350   5.440   2.428   1.627  0.1465  0.0337 -0.1091
  708PF6-    F215351   5.459   2.570   1.702  0.0029 -0.2080  0.6519
  708PF6-    F315352   5.423   2.289   1.564  0.1266 -0.1274  0.4080
  708PF6-    F415353   5.462   2.357   1.770 -0.4428 -0.1814  0.6503
  708PF6-    F515354   5.420   2.502   1.486 -1.0335 -0.4781  0.1020
  708PF6-    F615355   5.598   2.428   1.599 -0.1092 -0.4570  0.2826
  708PF6-    F715356   5.279   2.446   1.649 -0.2206  0.3672  0.1434
  709PF6-    P115357   0.132   3.602   0.686  0.0199  0.0020  0.0319
  709PF6-    F215358   0.197   3.462   0.633  0.0895 -0.0708 -0.2967
  709PF6-    F315359   0.077   3.740   0.737 -0.0299 -0.8104  0.3881
  709PF6-    F415360  -0.016   3.544   0.655  0.1187 -0.5095 -0.3535
  709PF6-    F515361   0.273   3.657   0.717  0.3641 -0.4431  0.0503
  709PF6-    F615362   0.147   3.659   0.540  0.0934 -0.0760 -0.5370
  709PF6-    F715363   0.125   3.538   0.832  0.0525 -0.4345  0.0268
  710PF6-    P115364   4.470   3.017   3.280 -0.3010  0.3499 -0.1014
  710PF6-    F215365   4.600   2.937   3.233 -0.1979  0.0389  0.1873
  710PF6-    F315366   4.337   3.092   3.329 -0.0350  0.8248 -0.1346
  710PF6-    F415367   4.388   2.949   3.160 -0.5286 -0.0261 -0.0217
  710PF6-    F515368   4.555   3.073   3.398  1.1727 -0.3382 -0.1628
  710PF6-    F615369   4.508   3.141   3.190 -0.2924  0.2070 -0.0344
  710PF6-    F715370   4.425   2.895   3.374 -0.9835  0.3393 -0.5116
  711PF6-    P115371   0.756   4.780   1.283 -0.2392 -0.3267  0.7210
  711PF6-    F215372   0.673   4.905   1.343  0.2615 -1.0401 -0.0943
  711PF6-    F315373   0.847   4.661   1.219 -0.4427  0.1951 -0.2127
  711PF6-    F415374   0.769   4.716   1.425  0.6735  0.1468  0.0513
  711PF6-    F515375   0.745   4.844   1.140 -0.2058 -0.1441  0.4667
  711PF6-    F615376   0.887   4.864   1.312 -0.5221  0.5720 -0.0939
  711PF6-    F715377   0.620   4.697   1.255 -0.2240  0.1515 -0.1159
  712PF6-    P115378   0.876   2.488   0.102 -0.1574 -0.0978  0.4742
  712PF6-    F215379   0.761   2.538   0.199  0.2054  0.4459 -0.1998
  712PF6-    F315380   0.994   2.437   0.002 -0.2008 -0.2613  0.2802
  712PF6-    F415381   0.984   2.562   0.190 -0.4128  0.2440  0.1716
  712PF6-    F515382   0.756   2.419   0.008  0.0256  0.3414 -0.3394
  712PF6-    F615383   0.854   2.630   0.022  0.0446 -0.2747  0.3200
  712PF6-    F715384   0.895   2.352   0.184  0.4563 -0.0416 -0.2282
  713PF6-    P115385   1.183   1.656   0.404 -0.2930 -0.0939 -0.2098
  713PF6-    F215386   1.182   1.803   0.335 -0.4350 -0.0070 -0.2628
  713PF6-    F315387   1.179   1.517   0.478  0.3833 -0.2128 -0.7082
  713PF6-    F415388   1.021   1.677   0.438  0.4674  0.5624 -0.1388
  713PF6-    F515389   1.340   1.637   0.369 -0.2425 -0.1177  0.0585
  713PF6-    F615390   1.221   1.728   0.540  0.2733  0.0912 -0.4865
  713PF6-    F715391   1.141   1.589   0.266 -0.3512  0.7942 -0.2644
  714PF6-    P115392   2.628   5.023   3.865  0.3111 -0.0663 -0.2444
  714PF6-    F215393   2.738   4.995   3.976 -0.3543 -0.3523 -0.2130
  714PF6-    F315394   2.507   5.053   3.752  0.3186  0.3241  0.2421
  714PF6-    F415395   2.510   5.003   3.970  0.2935 -0.2876  0.1063
  714PF6-    F515396   2.745   5.055   3.761  0.6034  0.2002  0.5065
  714PF6-    F615397   2.627   4.872   3.817  0.4313  0.1575 -0.0667
  714PF6-    F715398   2.626   5.182   3.907  0.4476 -0.0161  0.6995
  715PF6-    P115399   4.831   3.162   0.502  0.6827 -0.2065  0.1837
  715PF6-    F215400   4.727   3.140   0.622 -0.3207  0.4147 -0.0480
  715PF6-    F315401   4.939   3.178   0.381  0.6241 -0.4740  0.0453
  715PF6-    F415402   4.947   3.133   0.600  0.0694  0.5501 -0.1101
  715PF6-    F515403   4.702   3.183   0.404 -0.0087 -0.2066  0.4771
  715PF6-    F615404   4.846   3.316   0.536 -0.6481 -0.6549  0.2580
  715PF6-    F715405   4.816   2.997   0.467 -0.4893 -0.4508 -0.1335
  716PF6-    P115406   3.829   4.298   2.735 -0.0381 -0.4023  0.1801
  716PF6-    F215407   3.808   4.456   2.738 -0.0014 -0.1060 -0.1887
  716PF6-    F315408   3.854   4.141   2.722  0.4603 -0.4150  0.2834
  716PF6-    F415409   3.792   4.285   2.895  0.2396 -0.2327  0.0311
  716PF6-    F515410   3.867   4.312   2.579  0.1405  0.1536  0.2002
  716PF6-    F615411   3.978   4.314   2.769 -0.2982  0.3951  0.3396
  716PF6-    F715412   3.676   4.282   2.698 -0.1836 -0.0840 -0.3271
  717PF6-    P115413   3.337   5.489   1.249 -0.1742 -0.2624  0.0434
  717PF6-    F215414   3.456   5.463   1.354  0.0015 -0.3855 -0.1883
  717PF6-    F315415   3.218   5.522   1.142  0.2401  0.3374  0.2907
  717PF6-    F415416   3.443   5.551   1.146  0.0626  0.1337 -0.2319
  717PF6-    F515417   3.227   5.431   1.356  0.1042 -0.1322 -0.4023
  717PF6-    F615418   3.310   5.632   1.312 -0.6047 -0.3444  0.4880
  717PF6-    F715419   3.354   5.342   1.181  0.1300  0.2135  0.3124
  718PF6-    P115420   3.090   4.439   3.656  0.2355  0.3999  0.7264
  718PF6-    F215421   3.185   4.538   3.744 -0.1663 -0.5345 -0.3498
  718PF6-    F315422   3.000   4.344   3.565 -0.2062  0.2131  0.4161
  718PF6-    F415423   3.191   4.456   3.530  0.4071 -0.0313  0.1896
  718PF6-    F515424   2.993   4.421   3.781  0.1696  0.1466 -0.0128
  718PF6-    F615425   3.002   4.562   3.612  0.1137  0.5346 -0.2095
  718PF6-    F715426   3.180   4.321   3.701 -0.1969 -0.0136  0.0812
  719PF6-    P115427   3.651   4.180   0.330  0.0496 -0.0538  0.4337
  719PF6-    F215428   3.705   4.031   0.286 -0.3412 -0.3384  0.3920
  719PF6-    F315429   3.583   4.319   0.385  0.5180  0.0840 -0.3566
  719PF6-    F415430   3.572   4.093   0.446 -0.1613  0.1420 -0.1794
  719PF6-    F515431   3.732   4.266   0.217 -0.1049 -0.1615  0.0039
  719PF6-    F615432   3.524   4.161   0.232 -0.2733  0.4538 -0.3276
  719PF6-    F715433   3.774   4.195   0.422 -0.2231  0.1130 -0.3246
  720PF6-    P115434   3.769   3.221   1.015  0.2217 -0.5157 -0.1175
  720PF6-    F215435   3.839   3.094   1.088  0.1310  0.1625  0.2982
  720PF6-    F315436   3.691   3.335   0.944 -0.0666 -0.2977  0.3033
  720PF6-    F415437   3.665   3.122   0.944 -0.1252  0.1312  0.7679
  720PF6-    F515438   3.861   3.325   1.084 -0.1567 -0.4232  0.3760
  720PF6-    F615439   3.871   3.217   0.893 -0.1686  0.2832  0.1446
  720PF6-    F715440   3.672   3.236   1.142  0.0680 -0.0428  0.1296
  721PF6-    P115441   4.389   0.836   2.635 -0.3415  0.1723 -0.2205
  721PF6-    F215442   4.305   0.968   2.653 -0.1969  0.0633 -0.2275
  721PF6-    F315443   4.480   0.705   2.609 -0.0916  0.3026 -0.2152
  721PF6-    F415444   4.511   0.926   2.593 -0.2662  0.4905  0.0373
  721PF6-    F515445   4.271   0.745   2.683  0.4656 -0.7787 -0.0405
  721PF6-    F615446   4.338   0.823   2.485  0.6910  0.0268  0.0604
  721PF6-    F715447   4.441   0.840   2.784  0.0302  0.2092  0.0529
  722PF6-    P115448   1.056   1.255   1.193 -0.2912 -0.1047 -0.2563
  722PF6-    F215449   1.105   1.177   1.325  0.2511 -0.2382 -0.2978
  722PF6-    F315450   1.000   1.330   1.066 -0.0241 -0.0287 -0.4496
  722PF6-    F415451   0.959   1.354   1.281 -0.3040 -0.3041  0.0877
  722PF6-    F515452   1.146   1.164   1.099 -0.2088  0.1814 -0.5653
  722PF6-    F615453   0.937   1.148   1.181 -0.1322 -0.0352 -0.1496
  722PF6-    F715454   1.183   1.360   1.196  0.2652 -0.4166 -0.1205
  723PF6-    P115455   1.030   2.173   2.956  0.1500 -0.1343 -0.3504
  723PF6-    F215456   1.063   2.019   2.971 -0.2667  0.2453 -0.4092
  723PF6-    F315457   0.988   2.330   2.945  0.1753 -0.1379  0.2884
  723PF6-    F415458   1.174   2.204   2.893  0.3063 -0.5060  0.5051
  723PF6-    F515459   0.883   2.147   3.012 -0.3740 -0.3226 -0.1833
  723PF6-    F615460   1.086   2.198   3.107  0.1626 -0.4038  0.0612
  723PF6-    F715461   0.973   2.142   2.811 -0.2407  0.1550 -0.0538
  724PF6-    P115462   3.822   1.750   3.938  0.2123 -0.2855 -0.4795
  724PF6-    F215463   3.669   1.802   3.948  0.6938 -0.3278  0.0673
  724PF6-    F315464   3.978   1.701   3.939  0.2100  0.1177  0.0067
  724PF6-    F415465   3.832   1.747   4.101  0.0937  0.3580 -0.9716
  724PF6-    F515466   3.823   1.746   3.770  0.3506 -0.4024 -0.3942
  724PF6-    F615467   3.869   1.906   3.941  0.4428  0.1601 -0.2286
  724PF6-    F715468   3.771   1.596   3.934 -0.5171 -0.2335 -0.4095
  725PF6-    P115469   3.603   0.536   5.189 -0.5485  0.1278  0.0200
  725PF6-    F215470   3.564   0.433   5.310  0.4118 -0.9044  0.1656
  725PF6-    F315471   3.642   0.639   5.066  0.2230  0.2269  0.6399
  725PF6-    F415472   3.528   0.444   5.079 -0.1229 -0.3530 -0.4603
  725PF6-    F515473   3.672   0.633   5.303  0.0415  0.0231  0.2476
  725PF6-    F615474   3.738   0.459   5.170  0.2471 -0.1116  0.8662
  725PF6-    F715475   3.472   0.621   5.216 -0.4005 -0.3689 -0.0059
  726PF6-    P115476   2.422   2.400   0.799  0.4566  0.1816 -0.3348
  726PF6-    F215477   2.543   2.366   0.701 -0.1774 -0.0344  0.0556
  726PF6-    F315478   2.303   2.440   0.902 -0.2162 -0.3887 -0.0532
  726PF6-    F415479   2.347   2.477   0.674  0.2510 -0.1574 -0.5747
  726PF6-    F515480   2.504   2.327   0.924  0.6440 -0.0667 -0.4535
  726PF6-    F615481   2.496   2.540   0.833  0.0996  0.1206  0.1507
  726PF6-    F715482   2.348   2.261   0.762 -0.0036  0.3691 -0.2659
  727PF6-    P115483   5.401   4.881   2.233  0.0552  0.4114 -0.4591
  727PF6-    F215484   5.540   4.934   2.283 -0.4739 -0.1519 -0.1193
  727PF6-    F315485   5.260   4.825   2.168  0.0152 -0.3714 -0.0077
  727PF6-    F415486   5.389   5.020   2.154  0.6653 -0.1522  0.0667
  727PF6-    F515487   5.416   4.741   2.314  0.0010 -0.2533 -0.2284
  727PF6-    F615488   5.323   4.940   2.354  0.0597 -0.3507  0.6470
  727PF6-    F715489   5.477   4.820   2.108  0.1775  0.1842 -0.4183
  728PF6-    P115490   4.424   5.314   4.666  0.1124 -0.1979 -0.3328
  728PF6-    F215491   4.363   5.320   4.518  0.5947 -0.1676 -0.4559
  728PF6-    F315492   4.494   5.312   4.810 -0.5157 -0.0934  0.0290
  728PF6-    F415493   4.547   5.399   4.611  0.1125 -0.2001  0.4197
  728PF6-    F515494   4.300   5.221   4.721  0.3100  0.0762  0.2046
  728PF6-    F615495   4.502   5.182   4.626 -0.8530 -0.6494  0.4893
  728PF6-    F715496   4.350   5.442   4.706 -0.6490 -0.8396 -0.4665
  729PF6-    P115497   1.725   0.504   3.900 -0.0005 -0.3637 -0.1333
  729PF6-    F215498   1.674   0.352   3.905  0.2550  0.3259  0.6737
  729PF6-    F315499   1.778   0.658   3.876  0.2593  0.4762 -0.1095
  729PF6-    F415500   1.619   0.525   3.782  0.5315  0.2986  0.3898
  729PF6-    F515501   1.830   0.480   4.013 -0.0053 -0.0407  0.2370
  729PF6-    F615502   1.831   0.457   3.793 -0.6353 -0.1242 -0.0133
  729PF6-    F715503   1.626   0.557   4.010  0.6476 -0.2055 -0.6397
  730PF6-    P115504   0.011   5.430   3.730  0.3396 -0.0548  0.4516
  730PF6-    F215505  -0.034   5.309   3.629  0.1620  0.1451  0.0146
  730PF6-    F315506   0.052   5.560   3.823  0.6520 -0.3351  0.5835
  730PF6-    F415507   0.029   5.520   3.604 -0.5604 -0.6136  0.5292
  730PF6-    F515508  -0.011   5.339   3.862  0.2085  0.0264 -0.2391
  730PF6-    F615509   0.167   5.383   3.717  0.5858 -0.1910  0.4227
  730PF6-    F715510  -0.145   5.483   3.739  0.3573 -0.0634  0.3134
  731PF6-    P115511   3.001   4.914   4.690 -0.2080 -0.0662  0.0946
  731PF6-    F215512   3.110   4.903   4.568  0.0050  0.5046  0.2296
  731PF6-    F315513   2.891   4.922   4.799 -0.2399 -0.5768 -0.6019
  731PF6-    F415514   3.035   5.067   4.704  0.1981 -0.0910  0.3678
  731PF6-    F515515   2.966   4.761   4.676 -0.1244 -0.5102 -0.7259
  731PF6-    F615516   3.123   4.890   4.801 -0.3379  0.5079 -0.5713
  731PF6-    F715517   2.893   4.950   4.579 -0.2587  0.7715 -0.1594
  732PF6-    P115518   1.049   3.827   5.250  0.2065 -0.0930 -0.1714
  732PF6-    F215519   1.179   3.922   5.260 -0.1819 -0.6832  0.3872
  732PF6-    F315520   0.915   3.741   5.247  0.4371  0.0158 -0.0508
  732PF6-    F415521   1.130   3.728   5.151  0.0861  0.0387  0.1033
  732PF6-    F515522   0.969   3.930   5.341 -0.0873 -0.3820  0.7439
  732PF6-    F615523   1.002   3.902   5.120 -0.5606  0.0535  0.2633
  732PF6-    F715524   1.105   3.751   5.378 -0.3328 -0.3448 -0.2280
  733PF6-    P115525   4.239   1.019   4.708 -0.3524 -0.3873  0.0953
  733PF6-    F215526   4.172   1.054   4.569 -0.8788  0.0387  0.6623
  733PF6-    F315527   4.313   0.992   4.847  0.1315 -0.0124  0.2793
  733PF6-    F415528   4.188   0.872   4.704 -0.2512  0.3852  0.5739
  733PF6-    F515529   4.290   1.172   4.707  0.3016  0.3751  0.6184
  733PF6-    F615530   4.105   1.060   4.779 -1.1338  0.2081 -0.3563
  733PF6-    F715531   4.375   0.984   4.626  0.1676  0.6810  0.0389
  734PF6-    P115532   1.843   1.459   1.481 -0.2136  0.1332  0.3760
  734PF6-    F215533   1.901   1.477   1.330  0.5955 -0.0413 -0.2279
  734PF6-    F315534   1.786   1.446   1.629  0.5388  0.3460 -0.2328
  734PF6-    F415535   1.821   1.616   1.490  0.1304 -0.1625  0.8217
  734PF6-    F515536   1.861   1.297   1.473 -0.0582  0.2011  0.2519
  734PF6-    F615537   1.986   1.472   1.535  0.5935  0.0887 -0.2057
  734PF6-    F715538   1.699   1.442   1.425  0.3977  0.7496  0.2340
  735PF6-    P115539   1.135   1.866   2.018  0.4616  0.1042  0.2156
  735PF6-    F215540   1.023   1.753   2.015  0.3282  0.1652 -0.1514
  735PF6-    F315541   1.248   1.973   2.014  0.1643 -0.1129 -0.6493
  735PF6-    F415542   1.207   1.791   1.894 -0.1291 -0.0952  0.4386
  735PF6-    F515543   1.058   1.938   2.139 -0.4530 -0.0347 -0.2433
  735PF6-    F615544   1.220   1.771   2.123 -0.7244  0.0925  0.5466
  735PF6-    F715545   1.046   1.952   1.914 -0.3024  0.2444  0.5212
  736PF6-    P115546   3.640   3.876   4.759  0.6256 -0.3793 -0.3330
  736PF6-    F215547   3.705   3.906   4.618 -0.2690 -0.3380  0.1743
  736PF6-    F315548   3.572   3.857   4.903 -0.0914 -0.3256  0.1020
  736PF6-    F415549   3.693   3.722   4.757 -0.3809  0.0414 -0.0930
  736PF6-    F515550   3.587   4.022   4.758  0.2609 -0.2844  0.3022
  736PF6-    F615551   3.508   3.828   4.687  0.5327  0.1581  0.0692
  736PF6-    F715552   3.764   3.930   4.845 -0.5333 -0.2484  0.4784
  737PF6-    P115553   1.961   4.746   1.856 -0.1606  0.1724 -0.0914
  737PF6-    F215554   1.955   4.585   1.880 -0.5668  0.2811 -0.0555
  737PF6-    F315555   1.966   4.903   1.836  0.4320 -0.0245 -0.5024
  737PF6-    F415556   1.942   4.733   1.699  0.4886 -0.1790 -0.2396
  737PF6-    F515557   1.999   4.762   2.011  0.1689  0.1315  0.3562
  737PF6-    F615558   2.121   4.734   1.821 -0.1375  0.1360  0.0877
  737PF6-    F715559   1.803   4.754   1.889 -0.0322 -0.1363 -0.1006
  738PF6-    P115560   2.314   5.450   3.199  0.3137  0.4804 -0.1170
  738PF6-    F215561   2.335   5.513   3.346 -0.2945  0.2049  0.2988
  738PF6-    F315562   2.295   5.381   3.048 -0.0236 -0.3491 -0.2949
  738PF6-    F415563   2.182   5.539   3.181  0.5054  0.0135  0.1105
  738PF6-    F515564   2.445   5.360   3.219 -0.1875 -0.4915  0.1667
  738PF6-    F615565   2.224   5.333   3.262 -0.2293  0.3125 -0.0404
  738PF6-    F715566   2.404   5.561   3.127 -0.2037 -0.8025 -0.3946
  739PF6-    P115567   2.835   0.543   3.442  0.3147  0.2557 -0.5064
  739PF6-    F215568   2.716   0.584   3.344  0.0266 -0.3534 -0.2529
  739PF6-    F315569   2.954   0.496   3.538 -0.3094 -0.0441  0.1726
  739PF6-    F415570   2.783   0.635   3.558  0.5168 -0.3267 -0.7245
  739PF6-    F515571   2.894   0.441   3.335  0.3219  0.2189  0.0520
  739PF6-    F615572   2.926   0.663   3.387  0.4994  0.0224  0.1222
  739PF6-    F715573   2.744   0.425   3.503  0.4043 -0.3156  0.2002
  740PF6-    P115574   4.652   0.175   0.595  0.0058  0.3903  0.2053
  740PF6-    F215575   4.698   0.023   0.577 -1.0419 -0.2713 -0.5274
  740PF6-    F315576   4.616   0.329   0.607 -0.0351  0.2333 -0.0220
  740PF6-    F415577   4.702   0.199   0.448 -0.1980 -0.3649 -0.2708
  740PF6-    F515578   4.610   0.139   0.746 -0.1504  0.1155  0.1121
  740PF6-    F615579   4.801   0.207   0.652 -0.6558  0.7398  0.5500
  740PF6-    F715580   4.509   0.139   0.548  0.3438  0.0726 -0.2786
  741PF6-    P115581   2.276   5.372   5.460 -0.6060 -0.3184 -0.2427
  741PF6-    F215582   2.326   5.227   5.418 -0.6412 -0.4515 -0.1092
  741PF6-    F315583   2.227   5.522   5.502  0.3182  0.1791  0.1042
  741PF6-    F415584   2.256   5.317   5.608  0.7073 -0.0174 -0.2598
  741PF6-    F515585   2.303   5.419   5.307 -0.2906 -0.1075 -0.0838
  741PF6-    F615586   2.131   5.330   5.423  0.2032 -0.2465  0.0214
  741PF6-    F715587   2.424   5.412   5.497 -0.0303  0.0294  0.4682
  742PF6-    P115588   4.707   4.087   0.716 -0.5185  0.2677 -0.8006
  742PF6-    F215589   4.708   4.098   0.880  0.0452  0.1435  0.7868
  742PF6-    F315590   4.720   4.086   0.555  0.3502  0.2795 -0.2618
  742PF6-    F415591   4.671   4.239   0.705  0.1603  0.2511 -0.2650
  742PF6-    F515592   4.742   3.927   0.717  0.8260 -0.5699 -0.0659
  742PF6-    F615593   4.548   4.057   0.710  0.0813  0.5669 -0.0223
  742PF6-    F715594   4.861   4.124   0.719 -0.2676 -0.0450  0.9609
  743PF6-    P115595   4.286   2.254   4.626 -0.5312  0.0723  0.0194
  743PF6-    F215596   4.179   2.328   4.711  0.1073 -0.3222 -0.1365
  743PF6-    F315597   4.390   2.179   4.531 -0.1291 -0.8149 -0.6084
  743PF6-    F415598   4.172   2.156   4.568 -0.2016  0.2041  0.5197
  743PF6-    F515599   4.406   2.352   4.674  0.0425 -0.0135  0.3694
  743PF6-    F615600   4.311   2.151   4.744 -0.2507  0.6062 -0.6359
  743PF6-    F715601   4.258   2.357   4.506 -0.5682 -0.0021  0.6590
  744PF6-    P115602   4.686   2.615   4.018  0.0262 -0.4038 -0.3633
  744PF6-    F215603   4.665   2.649   4.169 -0.1879  0.0087 -0.2038
  744PF6-    F315604   4.710   2.578   3.869  0.7065 -0.6294 -0.0053
  744PF6-    F415605   4.604   2.744   3.966 -0.5926 -0.1785 -0.0055
  744PF6-    F515606   4.767   2.478   4.057 -0.0870  0.0261  0.0296
  744PF6-    F615607   4.555   2.531   4.019 -0.1333  0.3903  0.0643
  744PF6-    F715608   4.829   2.695   4.016  0.5601  0.1426  0.1632
  745PF6-    P115609   2.783   4.603   1.815  0.0909 -0.2906 -0.3933
  745PF6-    F215610   2.663   4.499   1.768  0.5281 -0.0559 -0.0417
  745PF6-    F315611   2.905   4.703   1.853 -0.0030  0.0168 -0.4148
  745PF6-    F415612   2.721   4.712   1.709  0.2568  0.2088 -0.0896
  745PF6-    F515613   2.834   4.497   1.923 -0.2645 -0.0266 -0.3422
  745PF6-    F615614   2.869   4.544   1.699  0.6385  0.3133 -0.3106
  745PF6-    F715615   2.689   4.667   1.919 -0.1576 -0.2982  0.4061
  746PF6-    P115616   4.152   5.479   1.850  0.3058  0.4973 -0.1083
  746PF6-    F215617   4.153   5.507   1.696  0.2301 -0.0769 -0.1763
  746PF6-    F315618   4.145   5.441   2.004 -0.2837  0.4177  0.2752
  746PF6-    F415619   4.004   5.548   1.866  0.0076  0.3156  0.3870
  746PF6-    F515620   4.298   5.412   1.840 -0.6611 -0.5801 -0.3497
  746PF6-    F615621   4.214   5.625   1.891 -0.1318 -0.4747 -0.7103
  746PF6-    F715622   4.083   5.336   1.821  0.3712  0.4123  0.0927
  747PF6-    P115623   1.596   3.727   1.636 -0.4305 -0.0839 -0.0442
  747PF6-    F215624   1.743   3.665   1.629  0.0071 -0.0837 -0.2488
  747PF6-    F315625   1.448   3.786   1.642 -0.1727 -0.0081  0.5760
  747PF6-    F415626   1.655   3.876   1.602 -0.3337 -0.8562 -0.1484
  747PF6-    F515627   1.544   3.583   1.669  0.2866 -0.5384  0.4263
  747PF6-    F615628   1.623   3.759   1.791  0.2081  0.1079  0.2801
  747PF6-    F715629   1.581   3.707   1.477  0.5746  1.1432  0.3333
  748PF6-    P115630   3.902   0.171   3.135 -0.0076  0.0652  0.0516
  748PF6-    F215631   3.970   0.259   3.252  0.0626  0.3691 -0.0118
  748PF6-    F315632   3.834   0.076   3.023 -0.4531 -0.2129 -0.0499
  748PF6-    F415633   3.763   0.251   3.146 -0.1260 -0.4676  0.4333
  748PF6-    F515634   4.036   0.089   3.119  0.3604 -0.1160  0.3755
  748PF6-    F615635   3.856   0.065   3.250  0.5490 -0.3849 -0.2336
  748PF6-    F715636   3.951   0.275   3.025 -0.1901 -0.3822 -0.1498
  749PF6-    P115637   1.268   5.114   4.937 -0.0226 -0.2797  0.2049
  749PF6-    F215638   1.213   5.086   5.087 -0.7999 -0.7874 -0.2292
  749PF6-    F315639   1.325   5.140   4.787 -0.1744  0.3885 -0.2478
  749PF6-    F415640   1.420   5.078   4.979  0.3618 -0.3590 -0.0198
  749PF6-    F515641   1.116   5.151   4.887 -0.3130 -0.0227  0.7863
  749PF6-    F615642   1.296   5.270   4.968 -0.5278 -0.0099 -0.5680
  749PF6-    F715643   1.245   4.959   4.907  0.1570  0.3846  0.2100
  750PF6-    P115644   3.444   2.783   4.210 -0.6408  0.3308 -0.0383
  750PF6-    F215645   3.536   2.887   4.278  0.1893 -0.1904  0.5410
  750PF6-    F315646   3.355   2.668   4.144  0.2947  0.1907  0.1025
  750PF6-    F415647   3.574   2.729   4.132 -0.4782  0.4723 -0.2227
  750PF6-    F515648   3.318   2.842   4.290  0.7706 -0.3991  0.4679
  750PF6-    F615649   3.411   2.873   4.090  0.0188 -0.6746  0.0523
  750PF6-    F715650   3.475   2.687   4.335  0.0610 -0.1668  0.8554
  751Na+     N115651   4.928   5.212   3.681 -0.4814  0.1781 -0.0562
  752Na+     N115652   1.881   0.073   1.438  0.0388 -0.4999  0.4369
  753Na+     N115653   2.957   0.376   3.097  0.1869  0.2534 -0.1588
  754Na+     N115654   3.129   4.359   5.245  0.3843 -0.0508 -0.2254
  755Na+     N115655   2.127   0.900   0.478  0.2013 -0.1030 -0.2504
  756Na+     N115656   2.744   3.560   2.687 -0.8744  0.2675  0.1690
  757Na+     N115657   4.250   1.721   0.300  0.1302  0.0249 -0.2872
  758Na+     N115658   5.070   3.717   0.171  0.1360  0.1494 -0.4745
  759Na+     N115659   1.340   0.385   2.297  0.4052 -0.0492 -0.1584
  760Na+     N115660   0.466   0.043   5.397  0.8005  0.1176 -0.1808
  761Na+     N115661   0.821   1.564   1.074  0.7953 -0.0798  0.1305
  762Na+     N115662   0.784   2.380   2.227  0.0371 -0.2887  0.0954
  763Na+     N115663   1.730   4.132   1.576 -0.3311 -0.4906  0.0262
  764Na+     N115664   0.517   4.598   2.514 -0.0872  0.3568  0.0733
  765Na+     N115665   4.207   3.894   0.816 -0.1923 -0.2459 -0.1486
  766Na+     N115666   1.780   5.021   0.038 -0.1173 -0.2741 -0.4830
  767Na+     N115667   4.053   0.347   2.380 -0.3488 -0.1400  0.4649
  768Na+     N115668   4.222   1.551   4.545  0.1045 -0.1413  0.5158
  769Na+     N115669   5.404   2.305   4.191 -0.0489  0.3807 -0.3166
  770Na+     N115670   2.876   2.258   2.508  0.1340  0.1093  0.2854
  771Na+     N115671   3.709   3.217   5.199  0.2252 -0.2608  0.6757
  772Na+     N115672   4.562   1.377   2.486  0.3104  0.6082  0.2712
  773Na+     N115673   3.512   5.316   0.970 -0.1545  0.2145 -0.0146
  774Na+     N115674   2.880   5.096   5.018  0.2220  0.4045  0.1554
  775Na+     N115675   4.589   4.652   4.344 -0.0269  0.1886 -0.0554
  776Na+     N115676   5.035   2.044   1.802  0.0576  0.2184 -0.0687
  777Na+     N115677   2.117   0.672   3.208 -0.1603  0.5632  0.0670
  778Na+     N115678   4.698   2.764   1.193  0.0802 -0.2767  0.4837
  779Na+     N115679   4.010   5.033   3.249  0.2517 -0.1235  0.0970
  780Na+     N115680   1.941   4.076   0.358 -0.4360 -0.2879 -0.5476
  781Na+     N115681   0.976   1.582   2.652 -0.1912 -0.3208  0.1853
  782Na+     N115682   3.702   3.489   4.099 -0.6804 -0.3373  0.2110
  783Na+     N115683   4.067   0.475   4.072 -0.2787 -0.5143 -0.2243
  784Na+     N115684   1.395   2.239   0.571 -0.6371 -0.0427  0.3434
  785Na+     N115685   3.475   1.229   5.175  0.2384  0.5916  0.2659
  786Na+     N115686   5.324   1.628   0.109 -0.0892  0.2416 -0.1364
  787Na+     N115687   2.140   1.444   5.145 -0.3532 -0.2426  0.7085
  788Na+     N115688   5.369   3.353   2.640 -0.2393  0.3902  0.4599
  789Na+     N115689   0.112   3.009   0.419 -0.0816 -0.1717  0.1725
  790Na+     N115690   1.625   2.149   2.391  0.4198  0.1618 -0.2761
  791Na+     N115691   0.152   0.179   3.348  0.2364  0.1610  0.3368
  792Na+     N115692   1.936   3.691   3.108  0.1208  0.0554  0.0364
  793Na+     N115693   5.049   4.670   0.368 -0.1673  0.4052  0.0551
  794Na+     N115694   5.274   4.096   1.009  0.0130 -0.4617 -0.1686
  795Na+     N115695   5.132   4.544   2.891  0.7780 -0.0106 -0.0141
  796Na+     N115696   1.086   1.792   4.442  0.3659 -0.2027  0.4687
  797Na+     N115697   4.651   4.930   1.597  0.4252 -0.4037  0.1351
  798Na+     N115698   3.618   1.469   3.189  0.2012  0.0256  0.2831
  799Na+     N115699   0.546   2.419   5.362  0.4136  0.2771 -0.3635
  800Na+     N115700   2.471   5.210   2.150  0.4478 -0.3561 -0.4561
  801Na+     N115701   2.556   2.739   0.239 -0.4695  0.6619 -0.5022
  802Na+     N115702   1.057   2.387   1.272  0.4870  0.2765  0.2108
  803Na+     N115703   4.270   0.404   0.091  0.3311  0.4094  0.4075
  804Na+     N115704   1.563   2.417   5.324 -0.2467 -0.7776 -0.5465
  805Na+     N115705   0.565   2.902   4.179  0.3193 -0.4514  0.0893
  806Na+     N115706   1.884   5.261   3.715 -0.6278  0.0489  0.3555
  807Na+     N115707   2.803   4.529   2.516 -0.3182  0.4551 -0.0215
  808Na+     N115708   4.234   0.310   3.238 -0.2401 -0.2174  0.3843
  809Na+     N115709   2.269   0.278   4.789  0.5003  0.0010  0.0597
  810Na+     N115710   0.687   0.613   4.433  0.1494 -0.6520  0.5492
  811Na+     N115711   2.047   0.859   1.894  0.0124  0.2472  0.3410
  812Na+     N115712   1.134   2.888   3.411  0.1675  0.2367 -0.5951
  813Na+     N115713   5.050   0.508   2.879 -0.0057  0.4649  0.1183
  814Na+     N115714   5.016   3.244   3.730  0.0397  0.0904  0.3449
  815Na+     N115715   3.023   4.356   4.207  0.0423  0.3245  0.3085
  816Na+     N115716   3.754   3.899   0.074 -0.0601  0.3124 -0.0346
  817Na+     N115717   0.650   3.645   3.232  0.3975  0.1604  0.1152
  818Na+     N115718   3.283   5.395   1.591 -0.0575  0.3796 -0.3758
  819Na+     N115719   2.432   1.195   1.150 -0.3414 -0.1707 -0.0920
  820Na+     N115720   1.382   3.604   4.498  0.4042 -0.2560 -0.3660
  821Na+     N115721   1.627   1.974   3.086  0.1187  0.1008 -0.1493
  822Na+     N115722   4.139   2.431   5.335 -0.2815 -0.2052 -0.3602
  823Na+     N115723   2.918   4.704   1.283  0.0793 -0.3343 -0.0295
  824Na+     N115724   3.370   2.077   4.407  0.3492  0.3565  0.6592
  825Na+     N115725   1.445   0.920   1.236 -0.3267  0.1082  0.1575
  826Na+     N115726   4.608   1.993   3.825 -0.0287  0.2039  0.2855
  827Na+     N115727   4.162   2.821   4.331 -0.6691  0.0550  0.3928
  828Na+     N115728   2.073   2.821   3.763 -0.0100 -0.4941 -0.2006
  829Na+     N115729   4.030   4.536   2.028 -0.1454 -0.4433  0.1781
  830Na+     N115730   4.208   0.968   5.091 -0.0784  0.2601  0.0416
  831Na+     N115731   0.208   4.527   1.691 -0.5188 -0.5427 -0.2015
  832Na+     N115732   2.551   3.093   0.987  0.0198 -0.1203 -0.7719
  833Na+     N115733   5.022   3.388   1.608  0.2370 -0.5738 -0.1990
  834Na+     N115734   4.063   4.091   3.651  0.1231  0.1753 -0.3631
  835Na+     N115735   4.861   0.562   4.419  0.1700  0.3303 -0.3306
  836Na+     N115736   0.294   2.986   1.796 -0.1637 -0.0602 -0.1939
  837Na+     N115737   1.039   3.811   1.381 -0.5121  0.4252  0.3724
  838Na+     N115738   1.351   4.760   2.727 -0.3593 -0.2199  0.1890
  839Na+     N115739   0.873   3.898   0.299  0.3704  0.2402 -0.4238
  840Na+     N115740   1.787   4.936   0.781  0.2045 -0.1920 -0.0070
  841Na+     N115741   0.032   4.061   4.648 -0.1357 -0.0003  0.3075
  842Na+     N115742   2.450   1.796   0.337 -0.2622 -0.2446 -0.2233
  843Na+     N115743   0.932   4.071   4.952  0.4241  0.0134 -0.3911
  844Na+     N115744   3.917   1.668   1.337  0.3416  0.2249  0.0487
  845Na+     N115745   2.868   5.278   3.767 -0.1255  0.0236  0.3993
  846Na+     N115746   4.954   0.365   1.185  0.3011 -0.1342 -0.2665
  847Na+     N115747   5.167   1.590   4.624  0.1620  0.0178 -0.0374
  848Na+     N115748   4.277   3.610   2.345 -0.2934  0.9399  0.2687
  849Na+     N115749   0.949   5.349   0.745  0.2618  0.4082  0.5024
  850Na+     N115750   3.398   0.695   1.443 -0.1509  0.0594 -0.2127
   5.50274   5.50274   5.50274
