DG-PF6-Na           Amber RESP
15750
    1DG      C1    1   3.547   3.319   4.636  0.3303  0.3924  0.0417
    1DG      C2    2   3.255   3.667   4.220  0.1984 -1.1400  0.2458
    1DG      H3    3   3.440   3.325   4.655  0.3896  2.3836 -0.0415
    1DG      H4    4   3.573   3.410   4.690 -1.4527  0.5922  0.6577
    1DG      H5    5   3.585   3.225   4.676  0.7400  0.3310 -0.4817
    1DG      H6    6   3.148   3.659   4.242  0.0293 -0.1906 -0.1714
    1DG      H7    7   3.297   3.728   4.300  0.3665 -1.4357  0.3847
    1DG      H8    8   3.265   3.732   4.133  0.9099  2.2028  2.5829
    1DG      O9    9   3.580   3.338   4.495  0.0482  0.2104  0.3059
    1DG     O10   10   3.322   3.543   4.224  0.5995  0.0224  0.8525
    1DG     C11   11   3.566   3.216   4.427  0.1454  0.6395  0.4796
    1DG     C12   12   3.281   3.454   4.124 -0.7849 -0.6654  0.6017
    1DG     H13   13   3.480   3.161   4.465  1.2421 -0.4674  1.4094
    1DG     H14   14   3.650   3.147   4.437  0.3901  1.1306  1.9865
    1DG     H15   15   3.276   3.505   4.028  0.3720  0.3000  1.0354
    1DG     H16   16   3.182   3.413   4.149 -1.5474  1.8962  2.1962
    1DG     C17   17   3.534   3.232   4.278  0.2302 -0.4910 -0.3455
    1DG     C18   18   3.394   3.346   4.121  0.0101 -0.4939 -0.4496
    1DG     O19   19   3.422   3.321   4.261  0.1099  0.3780  0.6631
    1DG     H20   20   3.519   3.137   4.226  1.2013 -0.7699 -0.1408
    1DG     H21   21   3.618   3.281   4.229 -0.9557  2.6952  0.5829
    1DG     H22   22   3.365   3.264   4.056 -0.7781 -0.3946 -0.2378
    1DG     H23   23   3.479   3.394   4.074 -0.2258 -0.5008 -0.8931
    2DG      C1   24   0.068   0.620   1.571  0.1402  0.6249 -0.0902
    2DG      C2   25  -0.498   0.484   1.278 -0.1434 -0.3033  0.4825
    2DG      H3   26   0.034   0.689   1.493  0.9841  0.9995 -0.1402
    2DG      H4   27   0.176   0.623   1.567  0.2491  0.4692  1.8534
    2DG      H5   28   0.025   0.654   1.665 -1.2509 -2.5517  0.5364
    2DG      H6   29  -0.460   0.491   1.176  0.5604  0.5333  0.7906
    2DG      H7   30  -0.592   0.429   1.274 -0.5455  0.2674  1.6438
    2DG      H8   31  -0.510   0.586   1.315  0.2088 -0.9348  2.3996
    2DG      O9   32   0.004   0.506   1.516  0.7285  0.9607  0.5247
    2DG     O10   33  -0.390   0.426   1.347 -0.0949 -0.3426  0.0534
    2DG     C11   34   0.002   0.400   1.603 -0.9909  0.2209 -0.1986
    2DG     C12   35  -0.359   0.290   1.311 -0.1556 -0.4605 -0.4121
    2DG     H13   36  -0.063   0.415   1.689  0.9062  0.4206  1.2875
    2DG     H14   37   0.107   0.377   1.622 -0.9025  0.8906  0.1491
    2DG     H15   38  -0.334   0.279   1.205 -0.6542 -0.1830 -0.5635
    2DG     H16   39  -0.441   0.222   1.332  1.2175 -1.2339  2.9942
    2DG     C17   40  -0.066   0.283   1.517 -0.6204 -0.3304  0.1998
    2DG     C18   41  -0.243   0.240   1.387  0.0746  0.4616  0.3848
    2DG     O19   42  -0.169   0.340   1.441  0.1671 -0.4948 -0.2979
    2DG     H20   43  -0.094   0.207   1.591 -0.0454 -1.0992 -0.3625
    2DG     H21   44   0.014   0.251   1.451  0.5312  0.2030  1.2966
    2DG     H22   45  -0.276   0.167   1.461 -0.9629 -2.2391 -2.5132
    2DG     H23   46  -0.183   0.185   1.315 -0.6140  0.4739 -0.2137
    3DG      C1   47   1.993   3.045   3.392  0.0551  0.5430  0.1674
    3DG      C2   48   2.089   3.570   3.636  0.5396 -0.1221 -0.2290
    3DG      H3   49   2.007   2.959   3.328 -0.7283  1.5122 -1.3594
    3DG      H4   50   2.060   3.039   3.477  0.3109  0.1216 -0.0626
    3DG      H5   51   2.018   3.131   3.329  0.7206 -0.4539 -0.9677
    3DG      H6   52   2.147   3.506   3.703 -0.8698 -0.5251  0.6559
    3DG      H7   53   2.141   3.664   3.620  1.5703 -0.4114  1.2478
    3DG      H8   54   2.006   3.590   3.704 -0.3022  2.4872 -1.8854
    3DG      O9   55   1.863   3.062   3.440  0.0612 -0.6391  0.1445
    3DG     O10   56   2.060   3.504   3.516  0.4192 -0.4499 -0.1189
    3DG     C11   57   1.853   3.180   3.519  0.4041 -0.9249  0.4107
    3DG     C12   58   1.958   3.574   3.443  0.2669  0.9596  0.2477
    3DG     H13   59   1.942   3.183   3.582  2.6026 -4.4086 -2.1652
    3DG     H14   60   1.771   3.163   3.587  1.7007 -1.4061  1.9185
    3DG     H15   61   1.996   3.672   3.414 -0.1392  1.8336  2.4872
    3DG     H16   62   1.872   3.606   3.501  0.3061  3.0507 -0.7420
    3DG     C17   63   1.824   3.315   3.452 -0.4896 -0.1087 -0.1393
    3DG     C18   64   1.920   3.493   3.322  0.5920  0.0450  0.5781
    3DG     O19   65   1.924   3.355   3.358  0.0966 -0.0088  0.1863
    3DG     H20   66   1.818   3.392   3.529  4.1644 -0.3255  0.7544
    3DG     H21   67   1.722   3.323   3.414 -0.6235  0.8611  0.3978
    3DG     H22   68   1.832   3.529   3.268 -0.2471 -1.0248  1.2054
    3DG     H23   69   1.999   3.505   3.247 -0.3826 -1.8200 -0.8314
    4DG      C1   70   2.993   0.797   3.107  0.9529 -0.5093  0.0699
    4DG      C2   71   3.648   0.484   2.775  0.4821  0.0537 -0.1028
    4DG      H3   72   2.961   0.901   3.106  0.5222 -0.5621 -3.4943
    4DG      H4   73   3.061   0.784   3.191 -0.4007  1.2913  1.5232
    4DG      H5   74   2.912   0.728   3.131 -0.2952  0.7191 -0.4947
    4DG      H6   75   3.685   0.485   2.672 -2.6185 -1.0660 -1.3328
    4DG      H7   76   3.720   0.496   2.857 -0.0336 -0.9726  0.5206
    4DG      H8   77   3.603   0.385   2.779 -0.2454  0.3923  0.1967
    4DG      O9   78   3.052   0.775   2.977 -0.2184 -0.7327  0.9532
    4DG     O10   79   3.555   0.595   2.781 -0.0139  0.1347 -0.1743
    4DG     C11   80   3.146   0.880   2.942 -0.5383  0.9942 -0.1360
    4DG     C12   81   3.465   0.603   2.675 -0.1325 -0.2835 -0.0999
    4DG     H13   82   3.221   0.870   3.020  0.1082  0.5310 -0.8048
    4DG     H14   83   3.087   0.972   2.945 -2.6182 -0.2755  1.9817
    4DG     H15   84   3.398   0.518   2.685  1.4363 -1.8471 -1.8744
    4DG     H16   85   3.522   0.609   2.582 -0.5224  0.1294 -0.3171
    4DG     C17   86   3.213   0.861   2.805  0.3401  0.4931  0.1560
    4DG     C18   87   3.381   0.732   2.688  0.7293 -0.2242 -0.6369
    4DG     O19   88   3.312   0.766   2.813  0.7213 -0.3197 -0.1090
    4DG     H20   89   3.257   0.953   2.766 -0.7268 -0.0601 -2.6400
    4DG     H21   90   3.133   0.837   2.735  0.1020 -0.4073  0.7216
    4DG     H22   91   3.441   0.823   2.678 -1.1986  1.1075 -0.6226
    4DG     H23   92   3.311   0.738   2.605  0.4859 -1.1739 -0.5093
    5DG      C1   93   2.160   4.186   5.378 -0.9816 -0.0507 -0.2849
    5DG      C2   94   2.270   3.865   5.996  0.4325  0.7178  0.4677
    5DG      H3   95   2.185   4.283   5.422  0.4616 -0.3974 -0.2964
    5DG      H4   96   2.051   4.181   5.389 -0.9920  0.4508 -0.1250
    5DG      H5   97   2.187   4.197   5.273  0.8623  0.9064  0.2436
    5DG      H6   98   2.221   3.960   6.019  0.0606  0.4272  0.8927
    5DG      H7   99   2.190   3.796   6.022 -1.2581  1.7614 -1.6706
    5DG      H8  100   2.350   3.841   6.065  2.2591 -1.2961 -2.1491
    5DG      O9  101   2.241   4.091   5.457  0.0810 -0.2208 -0.1595
    5DG     O10  102   2.312   3.862   5.861 -0.0508  0.8717  0.3979
    5DG     C11  103   2.240   3.966   5.389 -0.6520 -0.2557  0.5303
    5DG     C12  104   2.336   3.737   5.796  0.0331 -0.1216  0.0237
    5DG     H13  105   2.273   3.977   5.286 -1.2117  0.5142  0.4251
    5DG     H14  106   2.140   3.927   5.370 -1.9173  0.2707  4.9042
    5DG     H15  107   2.247   3.676   5.782 -1.1698  1.4123  0.6990
    5DG     H16  108   2.414   3.677   5.842  0.7083 -0.9069 -2.0063
    5DG     C17  109   2.330   3.858   5.454  0.9130  0.7996 -0.0882
    5DG     C18  110   2.395   3.763   5.659  0.4815  0.0128  0.5366
    5DG     O19  111   2.299   3.843   5.594 -0.1721 -0.6888  0.0093
    5DG     H20  112   2.437   3.873   5.437  0.8785  2.6938  1.0805
    5DG     H21  113   2.303   3.767   5.400  2.5864  0.7103 -0.8237
    5DG     H22  114   2.498   3.800   5.661  0.8472 -0.9076 -0.2825
    5DG     H23  115   2.405   3.667   5.609  2.0447  0.1063  0.6287
    6DG      C1  116   0.908   2.306   4.870  0.7005 -0.5908  0.0487
    6DG      C2  117   1.248   2.905   4.506 -0.2016 -0.0973 -1.4489
    6DG      H3  118   0.966   2.220   4.905 -1.7225 -2.2489  0.2522
    6DG      H4  119   0.826   2.281   4.802  1.0504 -0.7450 -0.3249
    6DG      H5  120   0.859   2.347   4.958  0.9379  2.1060 -0.9933
    6DG      H6  121   1.259   2.997   4.565 -1.0137 -0.7941 -0.1592
    6DG      H7  122   1.301   2.905   4.412  2.0811  0.6563 -0.2391
    6DG      H8  123   1.142   2.909   4.481 -0.4970  2.9428 -0.2229
    6DG      O9  124   1.000   2.403   4.818  0.4150  0.6144 -0.3472
    6DG     O10  125   1.262   2.790   4.584 -0.3985 -0.3246 -0.0435
    6DG     C11  126   0.945   2.518   4.750  0.3829  0.2153 -0.0087
    6DG     C12  127   1.216   2.678   4.519  0.5667  0.6775  0.3444
    6DG     H13  128   0.853   2.547   4.800  1.8877  2.6454  1.5253
    6DG     H14  129   0.913   2.485   4.651 -0.7329  0.4374  0.2663
    6DG     H15  130   1.264   2.649   4.426 -2.0438 -1.3488 -0.5057
    6DG     H16  131   1.111   2.693   4.492  0.9854  2.8560 -0.2672
    6DG     C17  132   1.031   2.643   4.754 -0.1873  0.6302 -0.4187
    6DG     C18  133   1.202   2.561   4.616  0.0727  0.1687 -0.1513
    6DG     O19  134   1.161   2.599   4.742  0.2296 -0.5393  0.2343
    6DG     H20  135   1.029   2.694   4.851  0.0982  2.4206 -1.3110
    6DG     H21  136   1.010   2.718   4.678  2.0719  0.9735 -0.7673
    6DG     H22  137   1.135   2.487   4.571  1.1663 -0.6027 -0.5465
    6DG     H23  138   1.294   2.504   4.631 -0.8832 -1.4951 -0.3922
    7DG      C1  139   3.951   1.282   3.623  0.3461  0.2699  0.0805
    7DG      C2  140   3.401   0.947   3.372  0.1586 -0.0789  0.1717
    7DG      H3  141   3.986   1.183   3.651  1.4722  0.5959 -0.1443
    7DG      H4  142   3.969   1.339   3.714 -0.1588 -2.3934  1.9692
    7DG      H5  143   4.001   1.319   3.534 -1.4276  2.0596 -0.2603
    7DG      H6  144   3.473   0.871   3.345  0.7035  0.5637 -0.2144
    7DG      H7  145   3.318   0.882   3.400  2.1291 -1.9064  2.0693
    7DG      H8  146   3.381   0.993   3.275  3.2107 -0.0624 -0.5356
    7DG      O9  147   3.816   1.264   3.608  0.1317  0.3341 -0.1918
    7DG     O10  148   3.448   1.039   3.479  0.1270  0.9585 -0.3602
    7DG     C11  149   3.747   1.379   3.584  0.3401 -0.1404  0.2924
    7DG     C12  150   3.348   1.133   3.516 -0.3809  0.3944 -0.8672
    7DG     H13  151   3.745   1.404   3.478  1.5187  1.4228  0.5964
    7DG     H14  152   3.789   1.464   3.637  0.8094  0.5275 -1.0985
    7DG     H15  153   3.269   1.070   3.556  0.0214  0.4237  0.0049
    7DG     H16  154   3.308   1.193   3.435 -0.2738  2.9486  0.8508
    7DG     C17  155   3.596   1.378   3.624  0.0449  0.2230 -0.0453
    7DG     C18  156   3.420   1.217   3.624 -0.8098 -0.8147 -0.7060
    7DG     O19  157   3.539   1.259   3.565  0.6839 -0.4852  0.2570
    7DG     H20  158   3.543   1.460   3.577 -1.0698 -0.0176  0.7324
    7DG     H21  159   3.572   1.390   3.730 -0.7724  1.2984 -0.3392
    7DG     H22  160   3.356   1.303   3.644  1.0627  0.5241 -0.1567
    7DG     H23  161   3.443   1.177   3.723  0.4981  1.7053  0.1063
    8DG      C1  162   5.090   4.238   2.097  0.3813 -0.4995 -0.1415
    8DG      C2  163   4.590   4.570   2.059 -0.7855  0.6023 -0.0774
    8DG      H3  164   5.104   4.140   2.051 -2.4176 -1.2201  0.3085
    8DG      H4  165   5.009   4.232   2.170  0.9272 -0.4856  0.4743
    8DG      H5  166   5.183   4.255   2.151  0.5309  0.3914 -0.6595
    8DG      H6  167   4.539   4.477   2.033  2.0562 -1.5702  1.5274
    8DG      H7  168   4.603   4.561   2.167 -0.2786 -1.9879 -0.2823
    8DG      H8  169   4.516   4.649   2.049 -0.4473  1.1916  1.6110
    8DG      O9  170   5.077   4.340   1.999 -0.0182  0.2939 -0.4021
    8DG     O10  171   4.708   4.611   1.996  0.0924  0.3095 -0.4363
    8DG     C11  172   5.061   4.463   2.059  0.6010 -0.0430  0.7837
    8DG     C12  173   4.748   4.746   2.009  0.4176  0.6111 -0.0778
    8DG     H13  174   5.148   4.498   2.115  0.2378  0.6517  0.9308
    8DG     H14  175   4.973   4.460   2.123  0.3286 -0.9046  0.3732
    8DG     H15  176   4.741   4.777   2.113  0.9267  0.0764  0.1222
    8DG     H16  177   4.684   4.811   1.949 -1.4532 -1.6333 -0.6864
    8DG     C17  178   5.025   4.573   1.956  0.7769 -0.8677  0.0051
    8DG     C18  179   4.893   4.772   1.966 -0.0467  0.8639  0.5785
    8DG     O19  180   4.988   4.690   2.026 -0.2139  0.2093  0.8420
    8DG     H20  181   4.947   4.541   1.887  0.6937 -0.0189 -0.3119
    8DG     H21  182   5.110   4.604   1.895  1.7216  1.0022  2.1149
    8DG     H22  183   4.901   4.774   1.857  1.7785  1.3590  0.6874
    8DG     H23  184   4.919   4.875   1.990 -0.5895  1.4878 -1.3020
    9DG      C1  185   2.559   2.408   4.487  0.1349 -0.3378 -0.7272
    9DG      C2  186   2.811   2.279   3.933 -0.7970  0.3301 -0.2531
    9DG      H3  187   2.590   2.372   4.585 -0.4338  1.0067 -0.0248
    9DG      H4  188   2.593   2.507   4.459 -0.5739  1.5332  4.0200
    9DG      H5  189   2.602   2.350   4.405 -0.2931  0.8300 -1.8028
    9DG      H6  190   2.857   2.181   3.923 -2.1120 -0.1678 -1.8313
    9DG      H7  191   2.762   2.294   3.837 -1.5092 -0.8632 -0.0969
    9DG      H8  192   2.894   2.348   3.950  0.1863 -1.1033  1.0167
    9DG      O9  193   2.415   2.418   4.501 -0.0535  0.4863 -0.3869
    9DG     O10  194   2.715   2.297   4.034  0.0389  0.5218 -0.5991
    9DG     C11  195   2.346   2.432   4.377 -0.0268  0.2022  0.4370
    9DG     C12  196   2.607   2.206   4.016  0.1680 -0.5693  0.4123
    9DG     H13  197   2.363   2.528   4.328 -0.0577  1.1612  2.2439
    9DG     H14  198   2.239   2.430   4.397 -0.3555  0.3855 -1.1325
    9DG     H15  199   2.642   2.109   3.981 -0.0996 -0.5156 -0.0091
    9DG     H16  200   2.549   2.248   3.933  1.5860 -2.6355 -1.7626
    9DG     C17  201   2.361   2.313   4.287 -0.8535  0.4625  0.0825
    9DG     C18  202   2.517   2.198   4.138  0.3865  0.1846  0.7460
    9DG     O19  203   2.473   2.323   4.197 -0.6615 -0.3448 -0.4731
    9DG     H20  204   2.266   2.295   4.239 -0.0772  1.4605 -1.9343
    9DG     H21  205   2.373   2.223   4.348 -1.1809 -0.8479 -1.7300
    9DG     H22  206   2.431   2.145   4.097  1.1496  1.0408 -2.2534
    9DG     H23  207   2.572   2.137   4.209  1.7322  0.5129  0.0243
   10DG      C1  208   0.985   1.602   2.488  0.2593  0.0004 -0.0234
   10DG      C2  209   0.294   2.141   2.577 -0.4023 -0.2986  0.4239
   10DG      H3  210   0.987   1.576   2.383 -1.2960  0.2176 -0.1356
   10DG      H4  211   0.912   1.531   2.528 -0.0311  1.5627  2.4725
   10DG      H5  212   1.081   1.601   2.539  1.0099  2.5423 -1.1951
   10DG      H6  213   0.260   2.081   2.492  1.9435 -1.7757  0.4278
   10DG      H7  214   0.249   2.120   2.674 -0.4548  0.7500  0.6382
   10DG      H8  215   0.273   2.247   2.562 -0.3186 -0.3660 -0.1850
   10DG      O9  216   0.924   1.725   2.488  0.0970  0.4702  0.2410
   10DG     O10  217   0.430   2.137   2.572 -0.1624  0.4030  0.8602
   10DG     C11  218   0.895   1.762   2.621  0.1490 -0.3607  1.2079
   10DG     C12  219   0.482   2.005   2.575  0.3967  0.3802 -0.0179
   10DG     H13  220   0.993   1.788   2.663  1.3231 -0.3202 -1.3800
   10DG     H14  221   0.837   1.686   2.673  0.5176 -0.9166  0.8191
   10DG     H15  222   0.453   1.951   2.485  0.1180  1.2230 -0.4469
   10DG     H16  223   0.446   1.956   2.666 -1.4797  0.2407 -0.8007
   10DG     C17  224   0.833   1.899   2.635  0.6514  0.0678 -0.4254
   10DG     C18  225   0.633   2.013   2.572  0.3088 -0.1492  0.6729
   10DG     O19  226   0.697   1.888   2.599  0.4875 -0.1348 -0.3573
   10DG     H20  227   0.876   1.973   2.568 -1.7811  2.2644  0.2914
   10DG     H21  228   0.848   1.940   2.735 -1.6914  3.6397 -1.3451
   10DG     H22  229   0.681   2.046   2.480  0.4141 -0.3733  0.6460
   10DG     H23  230   0.665   2.076   2.654 -1.7887  1.6765  0.1805
   11DG      C1  231   0.200   4.449   2.632 -0.6209 -0.5002 -0.4979
   11DG      C2  232   0.525   4.894   2.356 -0.3402  0.9750  0.2905
   11DG      H3  233   0.150   4.472   2.538  0.5699  2.9971 -0.3948
   11DG      H4  234   0.125   4.422   2.706 -0.8931 -1.6929 -1.1736
   11DG      H5  235   0.259   4.360   2.607 -0.4775  0.0571 -2.2985
   11DG      H6  236   0.615   4.944   2.320  0.6065 -1.6480 -1.2938
   11DG      H7  237   0.489   4.850   2.263 -2.3840  0.1286  1.4309
   11DG      H8  238   0.456   4.973   2.384 -0.0167  1.2286  0.3845
   11DG      O9  239   0.293   4.553   2.651 -0.2098  0.3505 -0.2689
   11DG     O10  240   0.552   4.782   2.443 -0.9790 -0.4156  0.0446
   11DG     C11  241   0.369   4.530   2.770  1.0132 -0.5583 -0.0795
   11DG     C12  242   0.622   4.821   2.560 -0.0899  0.3304  0.1042
   11DG     H13  243   0.407   4.428   2.769  2.5550 -0.0083 -0.5038
   11DG     H14  244   0.305   4.556   2.854  0.6720 -2.7160  0.3885
   11DG     H15  245   0.561   4.866   2.640 -0.7249 -0.5007  0.0953
   11DG     H16  246   0.715   4.876   2.545 -0.0091  1.0248  2.5521
   11DG     C17  247   0.500   4.618   2.770 -0.0613 -0.0479 -0.4734
   11DG     C18  248   0.676   4.692   2.624 -0.4486 -0.4543 -0.5859
   11DG     O19  249   0.558   4.604   2.644 -0.2945 -0.3601  0.0299
   11DG     H20  250   0.572   4.587   2.846 -0.5833  2.4908  1.1992
   11DG     H21  251   0.477   4.724   2.782 -1.6091 -0.2161 -1.6405
   11DG     H22  252   0.740   4.647   2.548  0.6834 -0.3083  0.2559
   11DG     H23  253   0.733   4.714   2.714 -0.8008  0.9999 -0.6832
   12DG      C1  254   0.722   5.159   2.537 -0.1576 -0.0683 -0.5301
   12DG      C2  255   0.300   5.118   3.309 -0.2174 -0.1482  0.0470
   12DG      H3  256   0.773   5.073   2.493  0.0760 -0.4897  0.5290
   12DG      H4  257   0.796   5.238   2.543  0.1245 -0.3160 -0.7380
   12DG      H5  258   0.644   5.194   2.470  0.3813 -1.3433 -1.8815
   12DG      H6  259   0.282   5.225   3.308 -0.2322 -0.1509 -1.5799
   12DG      H7  260   0.220   5.062   3.262 -0.2712  0.4458 -0.5680
   12DG      H8  261   0.303   5.077   3.410 -0.0941 -1.0291 -0.3082
   12DG      O9  262   0.680   5.137   2.671  0.2242  0.6959 -0.2848
   12DG     O10  263   0.436   5.088   3.260 -0.1623 -0.2021  0.1961
   12DG     C11  264   0.767   5.068   2.762 -0.0492 -0.4419  0.5449
   12DG     C12  265   0.449   5.082   3.121 -0.4378 -0.3753  0.4175
   12DG     H13  266   0.868   5.103   2.736 -1.0321  0.4382 -2.5820
   12DG     H14  267   0.764   4.962   2.739  0.2770 -0.0414 -1.6380
   12DG     H15  268   0.404   5.168   3.073  0.4578 -0.5713 -0.8052
   12DG     H16  269   0.394   4.990   3.100 -0.4159 -0.2168 -0.3243
   12DG     C17  270   0.746   5.095   2.909  0.5929  0.2061 -0.0360
   12DG     C18  271   0.595   5.085   3.087  0.0312 -0.0105  0.0890
   12DG     O19  272   0.614   5.051   2.949 -0.1041 -0.0635  0.6713
   12DG     H20  273   0.770   5.200   2.924  0.2276 -0.0492  2.7161
   12DG     H21  274   0.816   5.036   2.968  1.0781 -0.1559 -0.9455
   12DG     H22  275   0.625   5.188   3.105 -0.0062 -0.1117  0.7464
   12DG     H23  276   0.665   5.025   3.144 -0.2959  0.3703  0.9095
   13DG      C1  277   4.591   2.701   4.778 -0.1231 -0.3506 -0.1076
   13DG      C2  278   5.112   2.552   5.046  0.2579 -0.0032 -0.1024
   13DG      H3  279   4.512   2.762   4.733  0.8104  0.3939 -0.7727
   13DG      H4  280   4.563   2.627   4.853 -0.8359  0.9555  0.9627
   13DG      H5  281   4.628   2.643   4.694 -0.6544  1.4712 -1.6756
   13DG      H6  282   5.022   2.537   5.106 -0.4164  1.9048 -0.5644
   13DG      H7  283   5.130   2.460   4.990  2.6386  0.6550 -0.5114
   13DG      H8  284   5.197   2.554   5.114  0.5387 -0.9472 -0.3981
   13DG      O9  285   4.689   2.795   4.827 -0.1617 -0.4087  0.2259
   13DG     O10  286   5.100   2.673   4.971  0.0181  0.4037 -0.2618
   13DG     C11  287   4.648   2.848   4.947  0.0572  0.0786  0.3980
   13DG     C12  288   5.076   2.790   5.051 -0.6901  0.0326 -0.3344
   13DG     H13  289   4.545   2.857   4.981  0.9829  1.8460  3.0487
   13DG     H14  290   4.697   2.945   4.944  1.3922 -0.6011 -0.3834
   13DG     H15  291   5.146   2.863   5.010 -1.0049  1.4996  1.6197
   13DG     H16  292   5.089   2.779   5.158 -0.8311  1.4632 -0.1582
   13DG     C17  293   4.705   2.779   5.072 -0.2649  0.2567  0.6659
   13DG     C18  294   4.933   2.845   5.044 -0.0778  0.6315 -0.2088
   13DG     O19  295   4.841   2.740   5.063  0.4071  0.5249 -0.1899
   13DG     H20  296   4.660   2.682   5.091  0.9152 -0.0758  1.9646
   13DG     H21  297   4.685   2.846   5.156  2.5239  3.4055 -0.9449
   13DG     H22  298   4.915   2.926   5.115  0.7818  0.2410  0.4860
   13DG     H23  299   4.929   2.891   4.946  4.4704 -0.7426 -1.3014
   14DG      C1  300   4.978   4.051   1.711 -0.1941  0.3029 -0.1658
   14DG      C2  301   4.708   3.326   1.922 -0.2760  0.1231  0.2560
   14DG      H3  302   5.064   4.059   1.644  1.0677 -0.1058  1.3378
   14DG      H4  303   4.983   4.139   1.775  0.5366 -0.4866  0.8916
   14DG      H5  304   4.892   4.061   1.645  0.4524  0.3365 -1.0319
   14DG      H6  305   4.731   3.222   1.945  0.6608  0.2556 -0.0324
   14DG      H7  306   4.689   3.387   2.011  0.4203  0.5191  0.1470
   14DG      H8  307   4.626   3.333   1.851  0.1509 -1.7639 -0.4798
   14DG      O9  308   4.988   3.931   1.794 -0.4288 -0.3265  0.9822
   14DG     O10  309   4.816   3.368   1.837 -0.2203  0.8628  0.5425
   14DG     C11  310   4.858   3.888   1.825 -0.6814  0.2259 -0.2430
   14DG     C12  311   4.935   3.399   1.911  0.2206 -0.4354  0.1269
   14DG     H13  312   4.804   3.854   1.737  0.5659 -0.6170 -0.7234
   14DG     H14  313   4.801   3.970   1.867 -0.8246 -0.5135  1.0683
   14DG     H15  314   5.018   3.402   1.841  1.0401  0.5570  1.0989
   14DG     H16  315   4.960   3.322   1.984 -0.9438 -0.6120  0.3637
   14DG     C17  316   4.867   3.770   1.927 -0.5504  0.8321 -0.0907
   14DG     C18  317   4.932   3.546   1.970 -0.2639  0.5059  0.0871
   14DG     O19  318   4.888   3.636   1.870  0.1210  0.3282 -0.1429
   14DG     H20  319   4.775   3.771   1.986 -0.1406 -0.3793  0.6211
   14DG     H21  320   4.942   3.787   2.004  0.4010  0.0674 -0.8184
   14DG     H22  321   4.861   3.545   2.053 -0.7570 -0.4625 -0.3336
   14DG     H23  322   5.033   3.564   2.005 -0.2032 -1.9390  1.3724
   15DG      C1  323   2.108   3.517   4.649 -0.8640  0.0269 -0.0192
   15DG      C2  324   1.572   3.110   4.400  0.1269 -0.3929 -0.3206
   15DG      H3  325   2.113   3.423   4.704 -2.4935 -1.0317 -1.5677
   15DG      H4  326   2.151   3.599   4.707 -2.3759  1.9456 -1.4653
   15DG      H5  327   2.174   3.486   4.569  0.3696 -1.9398  1.6671
   15DG      H6  328   1.594   3.032   4.474  1.0513  0.7287  0.6196
   15DG      H7  329   1.468   3.115   4.370  0.1397 -0.2656 -0.3415
   15DG      H8  330   1.620   3.073   4.309  0.6363 -0.2414 -0.1216
   15DG      O9  331   1.978   3.560   4.602  0.0216  0.4753  0.5633
   15DG     O10  332   1.625   3.235   4.437  0.4119  0.0983 -0.0625
   15DG     C11  333   1.890   3.617   4.695 -0.1976  0.0168  0.1750
   15DG     C12  334   1.570   3.285   4.558  0.3708  0.2363 -1.1109
   15DG     H13  335   1.912   3.723   4.702 -1.2512  0.2835 -0.2514
   15DG     H14  336   1.913   3.565   4.788 -0.4479 -0.5801 -0.0902
   15DG     H15  337   1.605   3.225   4.642  1.4538  0.2124 -1.5583
   15DG     H16  338   1.462   3.274   4.569  0.5515  0.4939  1.4971
   15DG     C17  339   1.743   3.603   4.649  0.4971 -0.3253 -0.4517
   15DG     C18  340   1.594   3.431   4.584 -0.1603 -0.0232  0.7039
   15DG     O19  341   1.729   3.477   4.585  0.8441 -0.3837  0.4431
   15DG     H20  342   1.728   3.687   4.582 -0.4017 -1.2209 -1.4016
   15DG     H21  343   1.685   3.625   4.738  0.8428  0.3098 -0.3747
   15DG     H22  344   1.545   3.493   4.509  0.9436  0.2257  0.1649
   15DG     H23  345   1.548   3.452   4.681 -0.9223 -1.7123  0.7425
   16DG      C1  346   4.442   4.018   3.953 -0.2633 -0.1340  0.4971
   16DG      C2  347   3.929   4.147   3.499 -0.1391  0.0863 -0.2243
   16DG      H3  348   4.467   4.125   3.948  1.2608 -0.4749  0.1820
   16DG      H4  349   4.495   3.975   3.867  0.2274 -1.4243  1.4219
   16DG      H5  350   4.495   3.977   4.038  1.1232  1.1710  0.3227
   16DG      H6  351   3.932   4.057   3.438  1.9868  0.1861 -0.3349
   16DG      H7  352   3.863   4.217   3.448 -0.6164 -1.4853 -1.8739
   16DG      H8  353   4.026   4.196   3.488  0.1065 -0.1575  0.7941
   16DG      O9  354   4.308   3.989   3.949 -0.2937  0.6910  0.7647
   16DG     O10  355   3.900   4.118   3.634  0.2503  0.5386  0.2125
   16DG     C11  356   4.224   4.059   4.042  0.0834  0.1090 -0.1933
   16DG     C12  357   3.935   3.990   3.660 -0.6193 -0.3310 -0.0810
   16DG     H13  358   4.253   4.164   4.042  0.4035  0.0252 -0.9683
   16DG     H14  359   4.238   4.025   4.145  0.2881 -1.0389 -0.5922
   16DG     H15  360   4.032   3.962   3.620  0.5342  1.9216  0.9530
   16DG     H16  361   3.851   3.930   3.624 -0.0142  0.3286 -2.7820
   16DG     C17  362   4.074   4.036   4.008  0.1436  0.1419  0.6370
   16DG     C18  363   3.952   3.964   3.803  0.3822  0.1403 -0.3507
   16DG     O19  364   4.056   4.046   3.861  0.3679  0.3686 -0.5415
   16DG     H20  365   4.011   4.115   4.050  1.6593  2.4117 -1.1208
   16DG     H21  366   4.043   3.936   4.040  0.9789 -0.7684 -1.2231
   16DG     H22  367   3.861   3.990   3.856 -1.1812 -2.2641 -1.6469
   16DG     H23  368   3.955   3.857   3.824 -2.0229 -0.5284 -2.7880
   17DG      C1  369   3.936   2.893   1.072  0.5166 -1.0308  0.3837
   17DG      C2  370   3.935   2.508   1.505 -0.3097 -1.1560  0.9711
   17DG      H3  371   3.994   2.983   1.052 -0.4090  0.1150  2.5325
   17DG      H4  372   3.831   2.910   1.047  1.1781 -0.7132 -2.5152
   17DG      H5  373   3.967   2.810   1.008 -0.9324  0.6449 -2.7253
   17DG      H6  374   3.855   2.579   1.526 -1.1661 -2.1077  1.0069
   17DG      H7  375   3.907   2.461   1.411 -0.8273  1.9182 -0.5473
   17DG      H8  376   3.946   2.440   1.589  2.6315 -1.1494  0.6967
   17DG      O9  377   3.951   2.861   1.212  0.2040  0.3499 -0.4904
   17DG     O10  378   4.063   2.580   1.488  0.0948  0.6263 -0.1715
   17DG     C11  379   3.916   2.974   1.299 -0.6747  0.0446  0.1518
   17DG     C12  380   4.082   2.654   1.609  0.5767 -0.5119 -0.1542
   17DG     H13  381   3.826   3.020   1.259 -0.6486 -0.2073 -0.1998
   17DG     H14  382   3.997   3.047   1.292 -1.2213  0.4849 -2.8632
   17DG     H15  383   4.179   2.703   1.601  0.7807 -0.7042  1.0076
   17DG     H16  384   4.079   2.593   1.699  0.6195 -0.5191 -0.1580
   17DG     C17  385   3.887   2.921   1.439  0.0364 -0.0446  0.7064
   17DG     C18  386   3.996   2.782   1.611  0.7691 -1.2123 -0.7449
   17DG     O19  387   3.995   2.833   1.479 -0.0346 -0.0712  0.6355
   17DG     H20  388   3.792   2.870   1.460 -1.5228  2.0642 -0.8174
   17DG     H21  389   3.875   3.003   1.510  0.1776  1.6581 -1.1398
   17DG     H22  390   3.897   2.747   1.640  0.2431  1.1267  0.5374
   17DG     H23  391   4.022   2.860   1.682 -2.5655  0.9042 -1.6054
   18DG      C1  392   0.181   5.214   3.626 -0.2352  0.5985  0.0445
   18DG      C2  393   0.232   5.332   4.393  0.1401  0.1694  0.4786
   18DG      H3  394   0.196   5.263   3.529  0.8357  0.7325  0.2704
   18DG      H4  395   0.089   5.157   3.611  0.9565 -0.7646 -2.9656
   18DG      H5  396   0.264   5.144   3.633  0.0577  0.7889 -1.2287
   18DG      H6  397   0.279   5.260   4.326 -0.2204  1.2509 -0.9886
   18DG      H7  398   0.242   5.424   4.335 -0.4672 -0.4253 -0.6096
   18DG      H8  399   0.291   5.345   4.483 -2.0495  1.9273  1.7730
   18DG      O9  400   0.174   5.316   3.725  0.0325 -0.1647  0.3483
   18DG     O10  401   0.097   5.305   4.419  0.3834 -0.3934  0.2968
   18DG     C11  402   0.135   5.266   3.857  1.0795  0.4376  0.7306
   18DG     C12  403   0.023   5.251   4.309 -0.7875  0.0399  0.3636
   18DG     H13  404   0.175   5.171   3.893  0.9436  0.0219 -0.1729
   18DG     H14  405   0.027   5.254   3.859  1.1300 -0.0979  0.4793
   18DG     H15  406  -0.080   5.248   4.343 -0.3935  2.0716  1.9380
   18DG     H16  407   0.051   5.146   4.297  2.6759  0.6693  1.7218
   18DG     C17  408   0.164   5.364   3.971  0.6387 -0.7806  0.1840
   18DG     C18  409   0.032   5.327   4.173 -0.0450 -0.1469  0.8006
   18DG     O19  410   0.148   5.292   4.096 -0.1331 -0.3316 -0.1954
   18DG     H20  411   0.091   5.444   3.963 -0.3243 -1.6762 -0.2293
   18DG     H21  412   0.263   5.405   3.951  0.0185  0.0087 -1.4510
   18DG     H22  413  -0.049   5.281   4.115  0.0661 -0.4405  0.8757
   18DG     H23  414   0.032   5.434   4.190 -1.0416 -0.0515  0.3099
   19DG      C1  415   0.869   0.513   1.716 -0.5439  0.2373  0.4639
   19DG      C2  416   1.186   0.829   2.233 -0.3583 -0.2322  0.0209
   19DG      H3  417   0.761   0.531   1.714 -0.7378 -0.8302  0.6499
   19DG      H4  418   0.903   0.448   1.636 -0.0669  2.4550 -1.2448
   19DG      H5  419   0.903   0.609   1.676 -0.3490 -0.4321 -1.0398
   19DG      H6  420   1.225   0.817   2.334  1.2507  1.6639 -0.3178
   19DG      H7  421   1.265   0.851   2.161 -1.2062  0.1697 -0.8169
   19DG      H8  422   1.118   0.914   2.238  1.3729  1.1165  3.3659
   19DG      O9  423   0.912   0.510   1.853 -0.2175  0.1854  0.2101
   19DG     O10  424   1.116   0.711   2.194  0.1804 -0.1858 -0.1057
   19DG     C11  425   0.818   0.444   1.936 -0.7374 -0.4586  0.6759
   19DG     C12  426   1.017   0.674   2.294 -0.1229  0.7172 -0.0561
   19DG     H13  427   0.786   0.349   1.893  2.3145 -0.3064 -2.3096
   19DG     H14  428   0.731   0.509   1.952 -0.4814 -0.4221  2.0462
   19DG     H15  429   0.938   0.750   2.300 -0.7332  0.0442  0.7060
   19DG     H16  430   1.055   0.660   2.395  0.1236 -3.5820 -0.5513
   19DG     C17  431   0.882   0.418   2.072  0.7838  1.0412 -0.2467
   19DG     C18  432   0.951   0.540   2.255 -0.7459 -0.2087 -0.2362
   19DG     O19  433   0.917   0.544   2.119 -0.0516  0.3941  0.1158
   19DG     H20  434   0.964   0.348   2.062 -0.3382 -0.9174  2.7552
   19DG     H21  435   0.798   0.377   2.128  2.4309 -1.6123  0.4360
   19DG     H22  436   1.026   0.463   2.274  2.8761  2.9670 -0.2693
   19DG     H23  437   0.868   0.519   2.322  1.2544 -0.9843  2.1849
   20DG      C1  438   2.097   2.277   1.136  0.0270  0.0850 -0.1833
   20DG      C2  439   1.315   2.503   0.809 -0.1774 -0.4896  0.0572
   20DG      H3  440   2.115   2.279   1.028  0.7304 -0.7906 -0.0984
   20DG      H4  441   2.150   2.189   1.174 -2.2778 -0.6936  1.4747
   20DG      H5  442   2.145   2.364   1.179 -0.7775  0.6941 -0.4841
   20DG      H6  443   1.364   2.569   0.737  0.4265 -0.0811  0.8165
   20DG      H7  444   1.278   2.411   0.766 -1.7631  0.5124 -0.8094
   20DG      H8  445   1.231   2.550   0.860  0.9579  0.5555  1.0736
   20DG      O9  446   1.965   2.265   1.175 -0.6677 -0.1190  0.0112
   20DG     O10  447   1.410   2.472   0.909 -0.4778  0.3439  0.1558
   20DG     C11  448   1.879   2.360   1.119  0.1499  0.4514 -0.5770
   20DG     C12  449   1.526   2.418   0.848  0.2392 -0.1676 -0.6795
   20DG     H13  450   1.895   2.366   1.011 -1.7123 -1.3786 -1.0326
   20DG     H14  451   1.921   2.453   1.155  2.6779 -0.1161 -1.8183
   20DG     H15  452   1.583   2.497   0.799 -0.7855  1.2700  0.3661
   20DG     H16  453   1.507   2.340   0.775  1.3078 -0.6484 -0.4619
   20DG     C17  454   1.731   2.322   1.143 -0.1481 -0.0431  0.4269
   20DG     C18  455   1.619   2.349   0.941 -0.2355  0.1731 -0.1310
   20DG     O19  456   1.646   2.409   1.065  0.5778  0.2165 -0.2542
   20DG     H20  457   1.706   2.352   1.245  0.9464 -0.9391  0.9850
   20DG     H21  458   1.712   2.215   1.132  0.6642 -0.1452 -0.0387
   20DG     H22  459   1.573   2.252   0.964  1.6848 -0.6269  0.5724
   20DG     H23  460   1.711   2.323   0.889  0.3953 -0.4627  1.2491
   21DG      C1  461   1.125   0.582   5.261 -0.0816 -0.3696 -0.3956
   21DG      C2  462   1.264   0.618   4.585  0.6376 -0.2783  0.3244
   21DG      H3  463   1.119   0.474   5.280  0.5290 -0.0092  2.2647
   21DG      H4  464   1.070   0.633   5.339  2.4769 -1.0596  2.0402
   21DG      H5  465   1.229   0.611   5.276 -0.5917  0.0647  3.2229
   21DG      H6  466   1.241   0.520   4.543 -0.6401 -0.7663  2.0498
   21DG      H7  467   1.256   0.685   4.499 -0.8165 -1.9840 -0.9314
   21DG      H8  468   1.364   0.634   4.627  0.0667 -0.5315  1.8215
   21DG      O9  469   1.072   0.627   5.133 -0.6462 -0.3819  0.1669
   21DG     O10  470   1.170   0.649   4.686 -0.0507  0.3329  0.5251
   21DG     C11  471   0.940   0.597   5.094  0.6000  1.1430 -0.2286
   21DG     C12  472   1.041   0.648   4.633  0.0409 -0.9802 -0.1330
   21DG     H13  473   0.872   0.615   5.177 -1.3877  0.3982 -1.6259
   21DG     H14  474   0.925   0.490   5.086 -0.8015  1.3579 -0.7424
   21DG     H15  475   1.014   0.547   4.602 -0.1804 -0.9063 -0.1799
   21DG     H16  476   1.024   0.716   4.549  0.3298 -0.3721  0.2981
   21DG     C17  477   0.890   0.659   4.966 -0.2945 -0.5300  0.2310
   21DG     C18  478   0.943   0.691   4.742  0.3892 -0.3150  0.2788
   21DG     O19  479   0.969   0.616   4.856  0.0852 -0.5603 -0.8511
   21DG     H20  480   0.915   0.765   4.974 -0.3956 -0.5518  0.8705
   21DG     H21  481   0.784   0.642   4.946 -0.1107 -2.6479  0.8551
   21DG     H22  482   0.955   0.799   4.754 -0.8028 -0.1850  0.4365
   21DG     H23  483   0.842   0.679   4.703  0.0587  1.4483  0.5070
   22DG      C1  484   3.246   3.056   4.815 -0.1533 -0.1414  0.6050
   22DG      C2  485   3.982   2.709   4.976  0.2574  0.3914  0.1330
   22DG      H3  486   3.321   3.090   4.743 -0.5463  0.0226  0.2714
   22DG      H4  487   3.260   3.111   4.908 -0.0906  0.7592  0.0740
   22DG      H5  488   3.145   3.069   4.776  0.1938  0.2775 -0.1830
   22DG      H6  489   3.935   2.625   5.028 -1.4385  0.7784 -0.7116
   22DG      H7  490   4.071   2.689   4.917 -0.1275  2.3714 -1.2262
   22DG      H8  491   4.004   2.784   5.052 -0.7447 -0.5443  1.4058
   22DG      O9  492   3.262   2.919   4.827  0.7351 -0.1386  0.5863
   22DG     O10  493   3.894   2.778   4.888 -0.5507  0.3923 -0.0686
   22DG     C11  494   3.389   2.874   4.881  0.0910 -0.2240 -0.6412
   22DG     C12  495   3.829   2.695   4.794 -0.5567 -0.1605 -0.7365
   22DG     H13  496   3.377   2.782   4.938  2.8197 -0.1107  0.2946
   22DG     H14  497   3.434   2.946   4.949 -1.2981 -1.2269  1.4420
   22DG     H15  498   3.794   2.605   4.843  0.4099  0.8310  1.9393
   22DG     H16  499   3.908   2.671   4.723  0.3086  0.8084 -0.1376
   22DG     C17  500   3.492   2.858   4.770  0.3156 -0.5193  0.0747
   22DG     C18  501   3.710   2.763   4.721  0.0548 -0.4135  0.1030
   22DG     O19  502   3.606   2.798   4.818 -0.1526  0.1362 -0.7184
   22DG     H20  503   3.503   2.950   4.713 -0.5200 -1.3735 -1.5561
   22DG     H21  504   3.447   2.783   4.704 -0.6781 -2.0817  2.3774
   22DG     H22  505   3.751   2.851   4.672 -0.1719 -0.1979  0.2994
   22DG     H23  506   3.665   2.700   4.644  0.6246 -0.4888 -0.1678
   23DG      C1  507   2.329   3.683   1.353  0.3039  0.5430 -0.0042
   23DG      C2  508   2.457   3.814   1.961  0.1584  0.4613  0.5662
   23DG      H3  509   2.235   3.726   1.388  0.6339  2.9076 -1.7968
   23DG      H4  510   2.330   3.579   1.387  1.4877  0.9936  1.4358
   23DG      H5  511   2.321   3.686   1.245 -2.0660  1.2914  0.1269
   23DG      H6  512   2.369   3.878   1.956  0.6882  1.1238 -0.9001
   23DG      H7  513   2.427   3.709   1.958  0.9487  0.1121  2.9538
   23DG      H8  514   2.518   3.816   2.051  2.1135 -0.3555 -0.6647
   23DG      O9  515   2.431   3.740   1.427  0.0176  0.0850  0.6858
   23DG     O10  516   2.538   3.845   1.850  0.1521 -0.0907 -0.1345
   23DG     C11  517   2.567   3.699   1.401  0.3486 -0.3245  0.2925
   23DG     C12  518   2.676   3.801   1.849 -0.0618 -0.0382 -0.3525
   23DG     H13  519   2.593   3.716   1.296 -0.8133 -0.2040  0.0101
   23DG     H14  520   2.565   3.591   1.418 -2.2396 -0.2545  0.7556
   23DG     H15  521   2.686   3.696   1.877  0.8907 -0.0242 -0.6053
   23DG     H16  522   2.737   3.860   1.917  1.1864 -0.8762 -0.7157
   23DG     C17  523   2.660   3.772   1.490 -0.4648  0.2029  0.1782
   23DG     C18  524   2.728   3.823   1.709  0.5235 -0.0061  0.1153
   23DG     O19  525   2.626   3.769   1.626 -0.0357 -0.2566  0.2972
   23DG     H20  526   2.672   3.873   1.449  0.5124 -0.2067 -0.5926
   23DG     H21  527   2.751   3.715   1.472 -1.4744 -0.8514 -1.8665
   23DG     H22  528   2.757   3.925   1.686 -2.4478  1.1976  1.2217
   23DG     H23  529   2.819   3.764   1.706 -2.1156 -4.5049 -2.0901
   24DG      C1  530   1.525   0.992   2.926  0.3657 -0.0592  0.0744
   24DG      C2  531   1.353   0.542   2.344  0.1495  0.0707  1.1244
   24DG      H3  532   1.471   1.077   2.970  2.0631  0.2073  1.7553
   24DG      H4  533   1.502   0.972   2.821 -0.1508 -1.2425  0.3972
   24DG      H5  534   1.633   1.000   2.923  0.3997 -0.6389 -0.5206
   24DG      H6  535   1.287   0.474   2.291 -0.8245  1.6293  0.2732
   24DG      H7  536   1.372   0.628   2.280  2.6707 -0.0325  1.6069
   24DG      H8  537   1.447   0.488   2.356  0.0802 -0.5087 -0.6914
   24DG      O9  538   1.494   0.871   2.986 -0.5263 -0.0821  0.8756
   24DG     O10  539   1.301   0.577   2.468  0.6482 -0.5097  0.0977
   24DG     C11  540   1.351   0.840   3.000  0.4660  0.1668  0.6997
   24DG     C12  541   1.379   0.673   2.543 -0.0207  0.0584  0.5316
   24DG     H13  542   1.296   0.912   3.061  0.4216  1.3986 -0.7356
   24DG     H14  543   1.331   0.742   3.042 -2.0843 -0.5329 -1.7984
   24DG     H15  544   1.427   0.742   2.474  1.1237 -1.4833 -0.2807
   24DG     H16  545   1.466   0.621   2.583  0.5997  0.9344  0.3591
   24DG     C17  546   1.283   0.836   2.857 -0.2135  0.2515  0.1570
   24DG     C18  547   1.285   0.728   2.646  0.8062 -0.7896 -0.1653
   24DG     O19  548   1.357   0.763   2.763  0.1802 -0.1055 -0.2239
   24DG     H20  549   1.282   0.931   2.804  0.4696  0.4039  0.4140
   24DG     H21  550   1.181   0.798   2.865  0.1950 -0.6776  1.2483
   24DG     H22  551   1.227   0.810   2.604  0.4014 -0.8881  0.1954
   24DG     H23  552   1.220   0.648   2.680  2.9803 -2.4895  0.2581
   25DG      C1  553   3.731   3.388   0.468 -0.0910 -0.5051  0.0410
   25DG      C2  554   4.369   3.555   0.611 -0.4576  0.5586  0.4609
   25DG      H3  555   3.634   3.362   0.510 -0.0533 -0.4861  0.1407
   25DG      H4  556   3.715   3.420   0.365  0.4656 -3.3614 -1.0357
   25DG      H5  557   3.771   3.479   0.513  1.7680 -0.6102 -1.2805
   25DG      H6  558   4.324   3.639   0.663 -0.2953  1.5738 -0.9594
   25DG      H7  559   4.473   3.544   0.642  0.1030 -0.3968 -1.5419
   25DG      H8  560   4.370   3.574   0.503  0.2681 -0.1511  0.3321
   25DG      O9  561   3.823   3.277   0.480 -0.7842 -0.1626  0.1932
   25DG     O10  562   4.285   3.452   0.650 -0.8031  0.0656  0.4213
   25DG     C11  563   3.843   3.218   0.607  0.1405 -0.1637 -0.4672
   25DG     C12  564   4.307   3.338   0.564  0.2605 -0.1104 -0.6542
   25DG     H13  565   3.766   3.147   0.636 -1.1836  1.1671 -0.6078
   25DG     H14  566   3.830   3.287   0.690  0.0332 -0.2429 -0.4168
   25DG     H15  567   4.407   3.298   0.578 -0.8573 -2.6074  0.9449
   25DG     H16  568   4.302   3.370   0.459 -1.3303  2.5245  0.1164
   25DG     C17  569   3.987   3.165   0.628 -0.2101 -0.8377 -0.4060
   25DG     C18  570   4.216   3.226   0.606 -0.1319  0.1706  0.4600
   25DG     O19  571   4.081   3.262   0.596  0.2040  0.3604 -0.3093
   25DG     H20  572   3.993   3.090   0.549 -0.1221  1.1906 -2.4604
   25DG     H21  573   4.005   3.121   0.726  0.1296  0.8956  0.3443
   25DG     H22  574   4.232   3.137   0.546 -0.0248 -2.1144  3.5834
   25DG     H23  575   4.239   3.215   0.712 -1.4698  0.5491  0.8057
   26DG      C1  576   3.549   2.844   3.538 -0.1132 -0.0374 -0.1588
   26DG      C2  577   3.551   3.464   3.227  0.3077 -0.3519 -0.0599
   26DG      H3  578   3.471   2.779   3.578  0.9709 -0.4544  1.3893
   26DG      H4  579   3.561   2.934   3.598 -0.0958 -1.4466  2.0807
   26DG      H5  580   3.638   2.784   3.556 -1.0095 -1.9855 -1.8283
   26DG      H6  581   3.495   3.531   3.161 -0.9700 -0.1277  1.1897
   26DG      H7  582   3.518   3.453   3.330  0.9542 -1.5156  0.0398
   26DG      H8  583   3.646   3.516   3.212 -1.3724  2.1377 -3.4708
   26DG      O9  584   3.559   2.873   3.403 -0.6953  0.7160  0.3564
   26DG     O10  585   3.551   3.337   3.168  0.7900  0.0774  0.0112
   26DG     C11  586   3.428   2.894   3.352  0.1022  0.0153 -0.3537
   26DG     C12  587   3.629   3.230   3.221 -0.2151 -0.3562 -0.0732
   26DG     H13  588   3.374   2.972   3.406 -0.3876 -0.2562 -0.4385
   26DG     H14  589   3.364   2.806   3.356 -1.4900  1.0112 -2.1822
   26DG     H15  590   3.612   3.223   3.329 -1.0175 -2.5143 -0.2895
   26DG     H16  591   3.731   3.258   3.196  0.2616 -0.1310  1.9113
   26DG     C17  592   3.425   2.924   3.205 -0.0016 -0.0246 -0.2718
   26DG     C18  593   3.597   3.093   3.159  0.3611 -1.0536 -0.4061
   26DG     O19  594   3.458   3.062   3.172 -0.6608  0.0706 -0.1020
   26DG     H20  595   3.320   2.912   3.180 -1.1763 -0.8564  4.1662
   26DG     H21  596   3.484   2.855   3.144 -1.6958 -1.3119 -0.5069
   26DG     H22  597   3.594   3.104   3.051 -1.0688  0.9822 -0.2306
   26DG     H23  598   3.658   3.013   3.201 -0.5293 -1.1558  0.7548
   27DG      C1  599   2.060   0.332   4.118  0.3204  0.3200 -0.4067
   27DG      C2  600   1.862   0.859   3.721 -0.3319 -0.4020 -0.7438
   27DG      H3  601   2.087   0.229   4.096 -0.1802  0.5652 -2.3739
   27DG      H4  602   1.952   0.327   4.134  0.6999  0.4250  3.0342
   27DG      H5  603   2.094   0.364   4.217 -0.0843 -1.3167  0.3025
   27DG      H6  604   1.896   0.960   3.743 -2.5432  0.2340 -0.0754
   27DG      H7  605   1.824   0.859   3.619  0.2380 -1.1590 -0.9653
   27DG      H8  606   1.771   0.839   3.777 -0.0680 -0.4566 -0.3290
   27DG      O9  607   2.092   0.427   4.017  0.3198 -0.1727  0.5101
   27DG     O10  608   1.956   0.752   3.738  0.5572 -0.5662  0.2402
   27DG     C11  609   2.213   0.497   4.054 -0.1405 -0.6257 -0.3303
   27DG     C12  610   2.088   0.782   3.693  0.3388  0.7084 -1.0352
   27DG     H13  611   2.283   0.421   4.090  2.1120  1.7523  0.6856
   27DG     H14  612   2.212   0.574   4.131  1.5727  0.3914 -1.2536
   27DG     H15  613   2.116   0.884   3.720 -1.9070  1.6287 -1.9962
   27DG     H16  614   2.097   0.787   3.585  1.4852  1.5904 -0.9254
   27DG     C17  615   2.273   0.562   3.931  0.2449  0.0377  0.9281
   27DG     C18  616   2.197   0.687   3.737 -0.2364  0.2617 -0.7193
   27DG     O19  617   2.166   0.634   3.863  0.0154 -0.0533  0.2894
   27DG     H20  618   2.321   0.487   3.867  0.6104  1.0922 -0.0672
   27DG     H21  619   2.351   0.632   3.960  0.3260  0.6266 -0.5967
   27DG     H22  620   2.201   0.593   3.682 -0.7987  0.0414 -0.3938
   27DG     H23  621   2.292   0.740   3.733 -0.8987  1.6644  0.9961
   28DG      C1  622   0.883   2.632   5.331  0.2123 -0.4466  0.2224
   28DG      C2  623   0.559   2.062   5.269  0.7608  1.0328 -0.2131
   28DG      H3  624   0.869   2.691   5.240  0.7210 -0.1263  0.3438
   28DG      H4  625   0.958   2.670   5.401 -0.6784 -0.1595  1.0449
   28DG      H5  626   0.788   2.642   5.384 -0.0935  1.6974 -0.6334
   28DG      H6  627   0.550   1.983   5.344  2.4626  0.8145 -0.2111
   28DG      H7  628   0.490   2.143   5.293  0.0579  0.3294  0.2021
   28DG      H8  629   0.542   2.022   5.169  2.0905  1.6726 -0.7145
   28DG      O9  630   0.903   2.498   5.300  0.7026  0.5049  0.1437
   28DG     O10  631   0.680   2.127   5.271  0.2539  0.1377 -0.3232
   28DG     C11  632   1.014   2.482   5.217 -0.5016  0.6290  0.2261
   28DG     C12  633   0.787   2.047   5.221 -0.0272  0.3805 -0.1716
   28DG     H13  634   1.101   2.533   5.259 -0.0971 -0.2659  0.5147
   28DG     H14  635   0.998   2.533   5.123 -0.2522  1.6004  0.7023
   28DG     H15  636   0.772   2.012   5.119 -0.1165 -0.4137  0.1095
   28DG     H16  637   0.792   1.964   5.292  1.1970 -0.7797 -1.5385
   28DG     C17  638   1.038   2.330   5.200  0.0620  0.7026 -0.1804
   28DG     C18  639   0.928   2.118   5.230 -0.5395 -0.6506  0.0903
   28DG     O19  640   0.914   2.261   5.208  0.4527  0.7463  0.5179
   28DG     H20  641   1.089   2.311   5.294 -0.9610  1.3744  0.5286
   28DG     H21  642   1.091   2.302   5.108  1.6373 -0.0241  0.8947
   28DG     H22  643   0.976   2.106   5.328  0.0317  0.2702 -0.0601
   28DG     H23  644   0.993   2.067   5.159 -0.7457  1.2080 -1.5263
   29DG      C1  645   0.183   1.335   0.533 -0.1147  0.2341  0.2369
   29DG      C2  646   0.130   1.779   0.046 -0.8043 -0.8996  0.1910
   29DG      H3  647   0.238   1.260   0.590 -0.2761 -0.9377 -1.0959
   29DG      H4  648   0.120   1.273   0.470 -1.3431  0.2022  1.4460
   29DG      H5  649   0.126   1.383   0.613  4.1770  1.4354  2.8990
   29DG      H6  650   0.072   1.695   0.007 -1.3825 -0.2372 -0.4183
   29DG      H7  651   0.068   1.832   0.118  1.0069  0.3143  0.9307
   29DG      H8  652   0.158   1.838  -0.042  1.5259 -0.4811  1.1382
   29DG      O9  653   0.269   1.421   0.453 -0.9809 -0.2452 -0.0009
   29DG     O10  654   0.241   1.726   0.107 -0.0602 -0.3309 -0.8141
   29DG     C11  655   0.344   1.507   0.533  0.2667 -0.5292 -0.3483
   29DG     C12  656   0.299   1.825   0.187  0.0626 -0.3975 -0.1356
   29DG     H13  657   0.403   1.440   0.596  0.8494 -1.0727 -1.4457
   29DG     H14  658   0.279   1.573   0.590 -2.9126 -2.7103 -1.1969
   29DG     H15  659   0.219   1.860   0.252 -0.6868 -2.3027  0.0386
   29DG     H16  660   0.344   1.907   0.131  0.3215 -0.2064  0.3389
   29DG     C17  661   0.443   1.586   0.445  0.0476 -0.2701 -0.5410
   29DG     C18  662   0.412   1.756   0.267 -0.5291 -0.5724  0.8393
   29DG     O19  663   0.360   1.644   0.336  0.1370  0.4899 -0.2221
   29DG     H20  664   0.521   1.522   0.403 -0.0014 -1.0231  0.4908
   29DG     H21  665   0.479   1.669   0.506 -1.2262 -0.7730  0.9405
   29DG     H22  666   0.488   1.731   0.192  0.9973 -0.8958  2.4310
   29DG     H23  667   0.462   1.828   0.331 -1.3736  0.2858  0.5559
   30DG      C1  668   2.363   4.412   0.195  0.5685 -0.1437  0.5143
   30DG      C2  669   1.991   3.862   0.125  0.2895 -0.1955  0.1617
   30DG      H3  670   2.371   4.409   0.087  1.5127  0.1087  0.5659
   30DG      H4  671   2.450   4.359   0.234  1.1958  0.5155  0.0366
   30DG      H5  672   2.384   4.517   0.218 -0.7411  0.5840 -1.4027
   30DG      H6  673   2.070   3.787   0.122  0.2896 -0.1791 -0.5296
   30DG      H7  674   1.904   3.796   0.134 -0.7382  1.1671  0.5035
   30DG      H8  675   1.991   3.919   0.032  0.6630 -0.3785  0.0469
   30DG      O9  676   2.238   4.371   0.255 -0.0953 -0.1542 -0.4128
   30DG     O10  677   2.017   3.941   0.238 -0.1623 -0.4619  0.0389
   30DG     C11  678   2.253   4.325   0.389  0.1502  0.5037 -0.1769
   30DG     C12  679   1.916   4.033   0.270 -0.3042 -0.6049  0.0281
   30DG     H13  680   2.304   4.395   0.455 -3.5901  3.4856 -0.1330
   30DG     H14  681   2.308   4.231   0.395  1.5751  0.9128 -3.9079
   30DG     H15  682   1.821   3.986   0.296 -0.2949 -0.3500  0.5422
   30DG     H16  683   1.904   4.096   0.182  2.0547  3.0176  2.0503
   30DG     C17  684   2.111   4.288   0.432  0.2638 -0.4068  0.1227
   30DG     C18  685   1.956   4.119   0.386 -0.0739  0.3982 -0.6524
   30DG     O19  686   2.080   4.180   0.346  0.1197 -0.1546 -0.8386
   30DG     H20  687   2.040   4.370   0.420 -0.5701 -1.0251  0.7332
   30DG     H21  688   2.107   4.257   0.537  0.8340 -1.0660 -0.0455
   30DG     H22  689   1.874   4.187   0.412  1.3922  2.8301 -2.0324
   30DG     H23  690   1.973   4.051   0.470  0.3091  0.6831 -0.4950
   31DG      C1  691   2.017   0.631   1.895 -0.1812  0.3105  0.0115
   31DG      C2  692   2.582   1.007   1.689  0.0024  0.1990  0.4162
   31DG      H3  693   1.969   0.688   1.974 -1.1274 -1.7244  0.9836
   31DG      H4  694   2.023   0.530   1.937 -1.9065 -0.1141 -0.6951
   31DG      H5  695   1.961   0.623   1.802  0.9166  0.8924 -0.7327
   31DG      H6  696   2.560   0.960   1.592  0.1649  0.8798  0.0448
   31DG      H7  697   2.538   1.106   1.694  0.8547  0.5990  0.1664
   31DG      H8  698   2.691   1.016   1.685  0.0201  2.8633  3.3568
   31DG      O9  699   2.150   0.676   1.863 -0.4263  0.5161  0.0562
   31DG     O10  700   2.541   0.929   1.802 -0.5205 -0.4466  0.5466
   31DG     C11  701   2.237   0.574   1.806 -0.4811 -0.1201 -0.2267
   31DG     C12  702   2.605   0.801   1.805  0.5609  0.5321  0.0356
   31DG     H13  703   2.198   0.530   1.714 -2.2372 -1.4603  1.0922
   31DG     H14  704   2.241   0.486   1.871 -0.6311 -1.8572 -2.4551
   31DG     H15  705   2.712   0.810   1.823  1.0345 -1.4855 -1.3465
   31DG     H16  706   2.610   0.749   1.709 -0.2667 -2.4356  1.4712
   31DG     C17  707   2.373   0.636   1.779 -0.0856  0.0450 -0.9275
   31DG     C18  708   2.552   0.707   1.913 -0.1216 -0.3438  0.5264
   31DG     O19  709   2.415   0.683   1.910 -0.1023 -0.2926  0.0168
   31DG     H20  710   2.363   0.714   1.704  0.5837  0.7693 -0.2803
   31DG     H21  711   2.442   0.558   1.747 -1.2670 -1.9058  0.9972
   31DG     H22  712   2.608   0.614   1.909  3.8729  1.8716 -0.0931
   31DG     H23  713   2.572   0.746   2.013  1.9067  1.6475 -0.5744
   32DG      C1  714   5.331   5.129   4.856 -0.0374 -0.0938  0.1118
   32DG      C2  715   5.504   4.765   4.999 -1.0240 -0.0064 -0.7185
   32DG      H3  716   5.303   5.134   4.961 -0.6991  1.7273 -0.1141
   32DG      H4  717   5.272   5.210   4.814  0.8713 -0.4257 -1.8939
   32DG      H5  718   5.439   5.140   4.849 -0.1845  0.2904 -2.0412
   32DG      H6  719   5.500   4.656   5.004  1.5338 -0.1510 -0.5265
   32DG      H7  720   5.473   4.795   5.099  0.7783  0.1705 -0.1657
   32DG      H8  721   5.443   4.817   4.926  0.7041  0.1166 -2.1499
   32DG      O9  722   5.294   5.013   4.779  0.6990 -0.2583  0.1129
   32DG     O10  723   5.640   4.798   4.985 -0.7916 -0.0639 -0.4441
   32DG     C11  724   5.337   5.027   4.639  1.1429  0.0705 -1.0747
   32DG     C12  725   5.689   4.776   4.856  0.3915 -0.1981 -0.1145
   32DG     H13  726   5.313   5.117   4.584  1.1318  1.9201  1.7226
   32DG     H14  727   5.295   4.946   4.580  2.5086  0.4300 -2.6029
   32DG     H15  728   5.660   4.675   4.827  3.6836 -1.7268  1.3023
   32DG     H16  729   5.798   4.768   4.867  0.6060  1.4227 -0.7874
   32DG     C17  730   5.488   5.006   4.631 -0.3790 -0.4292 -0.5085
   32DG     C18  731   5.660   4.887   4.756  0.6351  0.1782 -0.2362
   32DG     O19  732   5.521   4.907   4.727 -0.0562  0.1937  0.3882
   32DG     H20  733   5.537   5.097   4.666 -1.2510 -0.1688  0.0814
   32DG     H21  734   5.519   4.974   4.532 -0.5962 -2.5394  0.0587
   32DG     H22  735   5.706   4.972   4.806  0.7378 -0.1169  0.1788
   32DG     H23  736   5.725   4.879   4.669  1.5771 -2.7781  0.6121
   33DG      C1  737   3.331   3.449   0.304  0.7950 -0.4049 -0.3972
   33DG      C2  738   3.199   3.189   0.722  0.0924  0.8409  0.1704
   33DG      H3  739   3.336   3.531   0.232 -2.2416  0.4676  0.2254
   33DG      H4  740   3.343   3.361   0.240 -0.6913 -1.0045  0.0942
   33DG      H5  741   3.421   3.460   0.364 -0.3093 -1.0022  1.4520
   33DG      H6  742   3.252   3.253   0.792  1.7728  0.6210 -0.8692
   33DG      H7  743   3.261   3.101   0.707  0.9132  1.3294  0.6752
   33DG      H8  744   3.196   3.219   0.617 -0.5712  2.0119  0.5040
   33DG      O9  745   3.215   3.440   0.382  0.1478  0.0334  0.5678
   33DG     O10  746   3.072   3.160   0.768 -0.3044 -0.0293 -1.0696
   33DG     C11  747   3.218   3.534   0.490 -0.0587 -0.1479 -0.0589
   33DG     C12  748   2.991   3.270   0.830  0.7917 -0.1587 -0.0996
   33DG     H13  749   3.222   3.639   0.458 -0.6910 -0.5156 -1.4374
   33DG     H14  750   3.304   3.525   0.557 -0.0640  0.5216  0.0434
   33DG     H15  751   3.034   3.321   0.916 -0.7177 -1.8269  1.7305
   33DG     H16  752   2.893   3.240   0.865  0.1954  1.8992  0.1129
   33DG     C17  753   3.082   3.523   0.564 -0.5748 -0.2170 -0.2147
   33DG     C18  754   2.968   3.375   0.721 -0.1509 -0.1669 -0.5997
   33DG     O19  755   3.091   3.434   0.675 -0.2719  0.8408  0.5700
   33DG     H20  756   3.011   3.506   0.484 -0.2456 -3.5846  0.0773
   33DG     H21  757   3.062   3.623   0.604  2.1184  0.0077  0.8115
   33DG     H22  758   2.911   3.331   0.639 -1.5392 -0.5866  0.5585
   33DG     H23  759   2.907   3.452   0.768  0.6887  1.3718 -1.9190
   34DG      C1  760   5.409   2.273   1.289  0.3063 -0.2328  0.0346
   34DG      C2  761   5.156   2.447   0.736  0.6108 -0.6039 -0.2505
   34DG      H3  762   5.345   2.188   1.263  1.0391 -1.2554  1.4742
   34DG      H4  763   5.400   2.294   1.395 -2.8262 -0.6575 -0.0328
   34DG      H5  764   5.505   2.244   1.247 -1.3059 -1.3790 -3.3233
   34DG      H6  765   5.231   2.464   0.659 -1.2028 -2.2800 -2.5283
   34DG      H7  766   5.198   2.406   0.828  2.0029 -0.3044 -0.7259
   34DG      H8  767   5.088   2.374   0.691 -1.3770  1.5042 -0.8929
   34DG      O9  768   5.370   2.395   1.225  0.1605  0.0787 -0.1934
   34DG     O10  769   5.088   2.568   0.758 -0.4096 -0.6664 -0.1923
   34DG     C11  770   5.232   2.440   1.243  0.3829  0.0025 -0.4124
   34DG     C12  771   5.175   2.672   0.821  1.0800  0.8332  0.3253
   34DG     H13  772   5.217   2.449   1.350  2.0534 -3.9406  0.3266
   34DG     H14  773   5.155   2.366   1.221 -0.1252  0.1856  0.6825
   34DG     H15  774   5.142   2.760   0.765 -0.2742  0.0061 -0.2409
   34DG     H16  775   5.274   2.670   0.777  0.1868  0.5732 -1.8174
   34DG     C17  776   5.204   2.577   1.175  0.2162 -0.3524 -0.7697
   34DG     C18  777   5.174   2.683   0.968 -0.2115 -0.0580 -0.3885
   34DG     O19  778   5.223   2.564   1.043 -0.3712 -0.6430 -0.2843
   34DG     H20  779   5.256   2.667   1.209  0.7151 -0.4725 -1.2018
   34DG     H21  780   5.104   2.605   1.208  0.8196  0.4428  0.4553
   34DG     H22  781   5.236   2.765   1.003 -1.1314  0.5634 -0.1798
   34DG     H23  782   5.072   2.706   0.997 -0.5486  2.0163 -2.8691
   35DG      C1  783   2.152   1.288   3.572  0.1251 -0.5460  0.5067
   35DG      C2  784   2.625   0.893   3.115 -0.1500 -0.2040  0.2456
   35DG      H3  785   2.072   1.222   3.606  0.4755 -1.6089 -0.6424
   35DG      H4  786   2.112   1.339   3.484  0.6255 -2.2702 -0.7794
   35DG      H5  787   2.171   1.364   3.648 -0.1997 -0.9356  0.9853
   35DG      H6  788   2.553   0.814   3.096 -0.6070 -0.0400  1.2441
   35DG      H7  789   2.577   0.982   3.074  0.1685 -0.7086 -1.2943
   35DG      H8  790   2.720   0.882   3.063 -0.6922  0.7717 -1.0078
   35DG      O9  791   2.270   1.218   3.566 -0.5425  0.1151 -0.6203
   35DG     O10  792   2.623   0.909   3.256 -0.3405  0.3284 -0.1313
   35DG     C11  793   2.384   1.287   3.517 -0.2614 -0.0649  0.0782
   35DG     C12  794   2.717   1.001   3.307 -0.2130  0.2459 -0.1203
   35DG     H13  795   2.394   1.372   3.584 -0.4204  1.6327 -1.9355
   35DG     H14  796   2.368   1.325   3.416 -2.0634  0.7383  0.6409
   35DG     H15  797   2.740   1.088   3.246  2.2948  0.1825  0.6176
   35DG     H16  798   2.813   0.955   3.330 -0.7574 -0.3571  1.0142
   35DG     C17  799   2.508   1.199   3.541  0.1990 -0.4832  0.4434
   35DG     C18  800   2.668   1.071   3.436  0.4324  0.3318  0.5910
   35DG     O19  801   2.545   1.134   3.421  0.1590  0.4415  0.1750
   35DG     H20  802   2.504   1.131   3.626  0.7829 -0.7418  0.2670
   35DG     H21  803   2.584   1.273   3.565 -1.1839  1.3978 -0.6992
   35DG     H22  804   2.666   0.996   3.516  0.3764  0.2618  0.5248
   35DG     H23  805   2.741   1.148   3.461  0.7148  0.5097 -0.7268
   36DG      C1  806   2.898   3.379   2.825 -0.3442 -0.7144  0.2961
   36DG      C2  807   2.676   2.964   2.347 -0.0594  0.9459 -0.1757
   36DG      H3  808   2.896   3.486   2.846  2.3468 -0.0764 -2.0048
   36DG      H4  809   3.000   3.343   2.836  1.0161  2.0187 -2.0197
   36DG      H5  810   2.825   3.334   2.892  0.2461 -0.1031  1.3674
   36DG      H6  811   2.675   2.933   2.243 -0.2231 -2.4344  0.7346
   36DG      H7  812   2.637   2.880   2.404  1.2264  0.7721  0.4842
   36DG      H8  813   2.611   3.052   2.354  1.8988  2.6836 -2.1385
   36DG      O9  814   2.864   3.362   2.690  0.1337  0.0484  0.5894
   36DG     O10  815   2.803   3.004   2.389  0.4749  0.3727 -0.2677
   36DG     C11  816   2.933   3.447   2.606 -0.1095  0.3640  0.1557
   36DG     C12  817   2.860   3.094   2.286 -0.2110  0.1550 -0.1368
   36DG     H13  818   3.041   3.448   2.618 -0.2302 -0.5529  1.5819
   36DG     H14  819   2.893   3.547   2.623 -0.9340  0.2244 -0.8624
   36DG     H15  820   2.810   3.083   2.190  1.0438 -0.5148 -0.7346
   36DG     H16  821   2.968   3.078   2.280 -0.0540  1.6293 -3.4193
   36DG     C17  822   2.890   3.411   2.457 -0.2124 -0.7141 -0.1549
   36DG     C18  823   2.826   3.239   2.313 -0.1281  0.2235 -0.0152
   36DG     O19  824   2.893   3.274   2.429  0.0461 -0.2901 -0.3186
   36DG     H20  825   2.943   3.471   2.384 -1.9405 -1.1519 -1.8522
   36DG     H21  826   2.782   3.431   2.454 -0.1660  0.0977  1.7541
   36DG     H22  827   2.856   3.298   2.226 -0.7926  2.0630  0.9552
   36DG     H23  828   2.724   3.276   2.324  0.4603  2.1931 -0.7298
   37DG      C1  829   4.677   2.262   4.610 -0.1514  0.1059 -0.1375
   37DG      C2  830   4.313   2.599   5.137  0.0215  0.0455  0.0036
   37DG      H3  831   4.687   2.216   4.512  0.9124 -0.5353  0.2485
   37DG      H4  832   4.745   2.214   4.680  0.2655  0.0632 -0.5727
   37DG      H5  833   4.697   2.369   4.600 -0.1576  0.2816  1.4226
   37DG      H6  834   4.289   2.515   5.201 -0.8946 -0.1982 -0.6307
   37DG      H7  835   4.408   2.642   5.169 -0.8157  1.3967  0.7498
   37DG      H8  836   4.238   2.675   5.155 -0.8731 -1.0171  0.8811
   37DG      O9  837   4.538   2.244   4.643  0.7909 -0.7102 -0.1585
   37DG     O10  838   4.296   2.551   5.003  0.0906  0.8184  0.1047
   37DG     C11  839   4.447   2.328   4.566 -0.5683  0.1381 -0.0969
   37DG     C12  840   4.242   2.418   4.974  0.1466 -0.3274 -0.6692
   37DG     H13  841   4.441   2.284   4.466 -0.0257 -2.1735  0.8199
   37DG     H14  842   4.491   2.428   4.564 -0.4227  0.0687 -0.4821
   37DG     H15  843   4.153   2.414   5.037  0.7974  1.6468  0.4919
   37DG     H16  844   4.307   2.342   5.017  0.8988 -0.0382 -1.2846
   37DG     C17  845   4.312   2.340   4.628  0.1110  0.2459 -0.0070
   37DG     C18  846   4.216   2.393   4.831 -0.0618 -0.1280  0.8101
   37DG     O19  847   4.340   2.372   4.765  0.3674 -0.2149 -0.8362
   37DG     H20  848   4.256   2.246   4.624  1.6375 -0.6376 -1.9181
   37DG     H21  849   4.237   2.406   4.583 -1.5390 -0.1347  1.9925
   37DG     H22  850   4.159   2.302   4.813 -1.7361  1.0931 -0.4014
   37DG     H23  851   4.156   2.479   4.802 -0.1062 -0.2965  0.4047
   38DG      C1  852   0.384   3.608   3.918  0.5795  0.5169 -0.4532
   38DG      C2  853  -0.419   3.593   3.503 -0.3722  0.2071 -0.1999
   38DG      H3  854   0.338   3.572   4.010  1.7491 -0.8115 -0.3437
   38DG      H4  855   0.383   3.716   3.928 -1.8895  0.5126  0.0975
   38DG      H5  856   0.486   3.570   3.912  1.0192  1.2354  1.7064
   38DG      H6  857  -0.488   3.541   3.569 -1.7259  4.7044  2.3820
   38DG      H7  858  -0.425   3.696   3.536  1.8182 -0.6735  3.4221
   38DG      H8  859  -0.450   3.590   3.398  0.0388 -0.0725 -0.3158
   38DG      O9  860   0.325   3.548   3.803  0.1796  0.2988  0.8501
   38DG     O10  861  -0.289   3.542   3.531 -0.0005 -0.3687 -0.4940
   38DG     C11  862   0.183   3.570   3.799 -0.6207  0.4248  0.3040
   38DG     C12  863  -0.185   3.609   3.467  0.1479  0.1758 -0.6268
   38DG     H13  864   0.158   3.675   3.813  0.4186  0.6481  0.5427
   38DG     H14  865   0.146   3.504   3.877  1.0218 -1.5585 -0.4895
   38DG     H15  866  -0.172   3.710   3.505 -0.5742 -0.0078  0.1387
   38DG     H16  867  -0.201   3.630   3.361 -0.6957 -1.6084 -0.8960
   38DG     C17  868   0.128   3.527   3.664 -0.5269  0.0413  0.5540
   38DG     C18  869  -0.050   3.539   3.499  0.5452  0.0733  0.3158
   38DG     O19  870  -0.004   3.574   3.629  0.3967  0.3909 -0.0023
   38DG     H20  871   0.148   3.424   3.634  2.2248  0.3820  0.9289
   38DG     H21  872   0.194   3.578   3.593 -0.7518  1.1550  1.1253
   38DG     H22  873  -0.058   3.433   3.474  0.5470  0.7769 -3.2647
   38DG     H23  874   0.024   3.567   3.424  0.8253 -1.4961 -0.0289
   39DG      C1  875   4.757   3.883   3.584 -0.4021 -0.0597 -0.2190
   39DG      C2  876   4.512   4.363   3.475  0.0938 -0.5545  0.0627
   39DG      H3  877   4.736   3.868   3.690  0.1708 -0.8803 -0.2088
   39DG      H4  878   4.848   3.824   3.569 -1.5364 -1.5322 -1.7475
   39DG      H5  879   4.673   3.840   3.529 -0.3355 -2.5073  1.4347
   39DG      H6  880   4.429   4.303   3.513 -1.0844  0.2644 -1.1026
   39DG      H7  881   4.591   4.352   3.548 -1.4066  0.0367  1.8551
   39DG      H8  882   4.493   4.470   3.472  3.2134  0.1231  0.9114
   39DG      O9  883   4.772   4.014   3.535  0.3072 -0.0630 -0.3252
   39DG     O10  884   4.564   4.317   3.348  0.2872  0.5234 -0.4241
   39DG     C11  885   4.878   4.081   3.611 -0.4049 -0.1979  0.0255
   39DG     C12  886   4.677   4.396   3.306 -0.2503  0.8641 -0.4354
   39DG     H13  887   4.972   4.034   3.582 -1.9137 -2.3415 -1.6372
   39DG     H14  888   4.866   4.061   3.717  1.0798 -0.5159  0.1566
   39DG     H15  889   4.660   4.504   3.305 -1.5681  0.6737 -0.9867
   39DG     H16  890   4.703   4.363   3.206  0.4052  0.4310 -0.1261
   39DG     C17  891   4.866   4.224   3.565  0.8089 -0.3825  0.3309
   39DG     C18  892   4.807   4.375   3.392  1.0983  0.7545 -0.0265
   39DG     O19  893   4.805   4.237   3.433  0.0136 -0.3948 -0.3385
   39DG     H20  894   4.966   4.265   3.554  1.4635 -1.6562  1.2087
   39DG     H21  895   4.816   4.281   3.643  1.3978  0.3836  0.1618
   39DG     H22  896   4.903   4.383   3.340  1.2770 -0.9242 -0.0115
   39DG     H23  897   4.799   4.447   3.473 -1.4212  1.4288 -0.8063
   40DG      C1  898   3.610   3.812   2.042  0.8531  0.6511  0.1475
   40DG      C2  899   3.881   3.231   1.726  0.1174 -0.2408 -0.5042
   40DG      H3  900   3.669   3.757   1.969 -0.5800 -1.2556  0.3566
   40DG      H4  901   3.669   3.828   2.132  0.3417 -2.4458  1.1452
   40DG      H5  902   3.588   3.913   2.006 -0.3597  0.5130  0.4508
   40DG      H6  903   3.892   3.132   1.681 -2.1873  0.1044 -1.9898
   40DG      H7  904   3.900   3.306   1.649  1.1305 -0.1217 -0.1501
   40DG      H8  905   3.954   3.255   1.803 -0.5585 -1.1631  0.4546
   40DG      O9  906   3.483   3.757   2.070 -0.2454  0.3144 -0.3826
   40DG     O10  907   3.758   3.250   1.790  0.4058 -0.6869  0.2658
   40DG     C11  908   3.409   3.722   1.954  0.3766  0.0534  0.0571
   40DG     C12  909   3.721   3.393   1.805 -0.2445 -0.0663 -0.2776
   40DG     H13  910   3.440   3.774   1.864 -1.3764 -3.1310 -2.6224
   40DG     H14  911   3.306   3.747   1.982  0.0899  0.1015 -0.9991
   40DG     H15  912   3.713   3.432   1.704  1.7460  0.0625 -0.4200
   40DG     H16  913   3.788   3.459   1.861 -0.4396 -0.9311  1.0229
   40DG     C17  914   3.430   3.566   1.931  0.0555  0.1573 -0.4725
   40DG     C18  915   3.591   3.403   1.876 -0.2099 -0.4347  0.0596
   40DG     O19  916   3.550   3.536   1.870 -0.2188  0.0800 -0.1299
   40DG     H20  917   3.344   3.530   1.874  0.5315  0.5993 -1.4897
   40DG     H21  918   3.420   3.509   2.023  0.1350  1.1838  0.1826
   40DG     H22  919   3.519   3.340   1.823 -0.4372  0.1155 -0.2973
   40DG     H23  920   3.609   3.377   1.980 -1.5040  1.8810  0.9493
   41DG      C1  921   2.626   3.884   0.904  0.2650 -0.1349 -0.3300
   41DG      C2  922   2.694   3.538   0.122 -0.9359 -0.0111 -0.0843
   41DG      H3  923   2.541   3.817   0.895  0.3793 -0.3598  0.2325
   41DG      H4  924   2.606   3.980   0.856  1.1779  0.3445  0.2149
   41DG      H5  925   2.635   3.896   1.013 -0.8699 -1.8301 -0.0238
   41DG      H6  926   2.675   3.434   0.099  0.1029 -0.5006  1.1233
   41DG      H7  927   2.659   3.593   0.035  0.1708  1.5613  0.4200
   41DG      H8  928   2.802   3.549   0.115 -0.8380 -1.0982 -0.3927
   41DG      O9  929   2.748   3.832   0.853  0.1121  0.4794  0.0876
   41DG     O10  930   2.647   3.578   0.254 -0.0849 -0.5727 -0.1293
   41DG     C11  931   2.752   3.809   0.714  1.4460  0.0100 -0.3901
   41DG     C12  932   2.682   3.484   0.359  0.0294  0.4150  0.0244
   41DG     H13  933   2.854   3.786   0.683  1.1504  3.2249 -4.6086
   41DG     H14  934   2.720   3.900   0.663 -0.6845  0.3334  1.3644
   41DG     H15  935   2.790   3.474   0.356 -0.0344 -0.2638 -0.3289
   41DG     H16  936   2.630   3.390   0.342  1.3555 -0.1473 -1.0957
   41DG     C17  937   2.666   3.685   0.674 -0.4515 -0.9504 -0.6715
   41DG     C18  938   2.635   3.526   0.502  0.1531  0.3899 -0.5691
   41DG     O19  939   2.683   3.655   0.536  0.1627  0.0345  0.0473
   41DG     H20  940   2.559   3.701   0.686  0.0284  2.8601 -0.4782
   41DG     H21  941   2.713   3.605   0.731 -0.1265 -1.0801 -1.1070
   41DG     H22  942   2.527   3.514   0.514  0.3843 -1.4704  0.0235
   41DG     H23  943   2.677   3.459   0.576  1.2962  1.2568 -0.4095
   42DG      C1  944   4.379   1.606   0.928  0.6519 -0.3407 -0.6947
   42DG      C2  945   4.477   2.281   0.838 -0.1037  0.1333  0.0754
   42DG      H3  946   4.276   1.573   0.927  0.2926  0.7190 -0.3675
   42DG      H4  947   4.437   1.546   0.999 -1.8048 -2.0086  0.0108
   42DG      H5  948   4.426   1.579   0.834 -1.1966 -0.2397 -1.6740
   42DG      H6  949   4.407   2.256   0.758 -0.1977 -2.7363  0.9426
   42DG      H7  950   4.472   2.377   0.889  1.5319 -0.5441  1.6003
   42DG      H8  951   4.571   2.271   0.784  1.0181  2.3365  1.4943
   42DG      O9  952   4.388   1.744   0.958 -0.3484 -0.1289  0.0510
   42DG     O10  953   4.466   2.179   0.931 -0.2820 -0.0434 -0.2408
   42DG     C11  954   4.351   1.772   1.094 -0.6279 -0.3248  0.3134
   42DG     C12  955   4.565   2.179   1.034 -0.3111  0.0601 -0.4578
   42DG     H13  956   4.393   1.698   1.162  0.1031 -1.5746 -1.4114
   42DG     H14  957   4.243   1.758   1.094 -0.6844  0.0906  0.2281
   42DG     H15  958   4.582   2.279   1.074  0.7102 -0.0786 -0.5180
   42DG     H16  959   4.662   2.154   0.993  0.3207  2.6483 -0.7444
   42DG     C17  960   4.376   1.915   1.127 -0.5818 -0.3906 -1.1572
   42DG     C18  961   4.529   2.087   1.147 -0.4551 -0.5885 -0.1423
   42DG     O19  962   4.512   1.959   1.105  0.8552 -0.1898 -0.0387
   42DG     H20  963   4.347   1.928   1.231 -0.2588  1.1407 -1.2376
   42DG     H21  964   4.311   1.973   1.062  0.9202  2.5187 -0.2370
   42DG     H22  965   4.613   2.082   1.216 -0.0913  0.6985 -0.4522
   42DG     H23  966   4.454   2.132   1.211  1.1391  2.2139 -0.0794
   43DG      C1  967   0.629   0.931   4.750  0.1716  0.1520 -0.1265
   43DG      C2  968   0.348   0.159   4.766  0.2944 -0.6653  0.3016
   43DG      H3  969   0.660   1.022   4.698 -0.3618 -0.9804 -2.6126
   43DG      H4  970   0.721   0.876   4.770  1.5714  3.0938  2.4667
   43DG      H5  971   0.582   0.953   4.846 -0.2286 -0.3873 -0.1935
   43DG      H6  972   0.429   0.138   4.835  0.2189 -0.2628  0.5159
   43DG      H7  973   0.275   0.215   4.825 -0.4434 -0.8600 -0.4029
   43DG      H8  974   0.305   0.063   4.738 -1.8512  0.2535  0.2209
   43DG      O9  975   0.539   0.855   4.675 -0.4413  0.2219 -0.0781
   43DG     O10  976   0.407   0.242   4.670 -0.0471 -0.0094  0.4333
   43DG     C11  977   0.503   0.724   4.718 -0.2394  0.0594 -0.2225
   43DG     C12  978   0.310   0.307   4.586  0.4071  0.0927  0.6427
   43DG     H13  979   0.422   0.730   4.791 -0.4187 -0.2100 -0.3936
   43DG     H14  980   0.584   0.673   4.769 -1.3739 -0.3487  1.2550
   43DG     H15  981   0.230   0.362   4.635 -0.1771  0.1348 -0.3337
   43DG     H16  982   0.260   0.243   4.513 -0.6275  0.7706  0.7372
   43DG     C17  983   0.465   0.647   4.592  0.2277  0.7250  0.3234
   43DG     C18  984   0.382   0.427   4.521 -0.3096  0.3341  0.9372
   43DG     O19  985   0.434   0.512   4.624  0.0181 -0.3548  1.0105
   43DG     H20  986   0.542   0.655   4.515 -1.1184  0.7318 -1.0706
   43DG     H21  987   0.374   0.686   4.547 -0.1368  1.1210  1.3609
   43DG     H22  988   0.475   0.396   4.472  0.7146 -0.1518  3.0652
   43DG     H23  989   0.315   0.472   4.448  2.0803  0.1694 -1.5532
   44DG      C1  990   2.889   3.730   3.144  0.4675 -0.2206  0.2102
   44DG      C2  991   2.968   3.047   3.416 -0.0747 -0.6473  0.0468
   44DG      H3  992   2.841   3.711   3.240 -0.6289  0.1141 -0.2593
   44DG      H4  993   2.812   3.740   3.067 -1.0409  0.1058  1.6947
   44DG      H5  994   2.936   3.828   3.156 -2.3647  1.0286  2.2930
   44DG      H6  995   2.878   3.009   3.368 -0.7060  0.8021  0.0018
   44DG      H7  996   3.045   2.972   3.434 -0.5708 -1.7722 -2.1765
   44DG      H8  997   2.938   3.089   3.512  0.4060  2.0077 -0.8615
   44DG      O9  998   2.977   3.619   3.124  0.3189 -0.0081  0.3658
   44DG     O10  999   3.028   3.159   3.346  0.3736  0.1581  0.2255
   44DG     C11 1000   3.068   3.606   3.234  0.5123 -0.4300 -0.3152
   44DG     C12 1001   3.057   3.145   3.210  0.7872 -0.3515 -0.3920
   44DG     H13 1002   3.022   3.568   3.325  1.8221 -0.0251  0.5512
   44DG     H14 1003   3.122   3.697   3.261 -2.0922  0.6341  1.8522
   44DG     H15 1004   2.958   3.147   3.162 -0.3917  2.1602  1.8823
   44DG     H16 1005   3.099   3.048   3.185  1.7714  0.0859 -0.4770
   44DG     C17 1006   3.163   3.491   3.195  0.3708 -0.7325  0.3777
   44DG     C18 1007   3.140   3.261   3.151 -0.6290 -0.0319 -0.4166
   44DG     O19 1008   3.082   3.375   3.201  0.3779  0.1313  0.0442
   44DG     H20 1009   3.237   3.484   3.275  0.7340 -0.0913  0.1074
   44DG     H21 1010   3.206   3.511   3.097  0.3388  0.9463  0.6756
   44DG     H22 1011   3.245   3.246   3.176 -0.4000  0.0742 -1.2712
   44DG     H23 1012   3.125   3.249   3.043 -1.0120  0.6650 -0.4479
   45DG      C1 1013   3.809   2.547   1.128  0.3807  0.7001 -0.6929
   45DG      C2 1014   4.503   2.796   1.377 -0.4884 -0.4095  0.3064
   45DG      H3 1015   3.744   2.540   1.215 -0.3408  2.0067 -1.1120
   45DG      H4 1016   3.776   2.473   1.054  1.2807  0.7467 -1.1661
   45DG      H5 1017   3.780   2.644   1.089 -0.4743  0.8409  0.2701
   45DG      H6 1018   4.456   2.786   1.475  0.1198  0.9135  0.7518
   45DG      H7 1019   4.609   2.768   1.384  0.3868  1.9973 -1.9181
   45DG      H8 1020   4.492   2.894   1.333  1.4465 -0.9452 -1.5667
   45DG      O9 1021   3.938   2.529   1.167 -0.3263 -0.6548 -0.2198
   45DG     O10 1022   4.424   2.722   1.291  0.3273 -0.3017  0.5889
   45DG     C11 1023   4.024   2.494   1.059 -0.2423 -0.3344  0.4918
   45DG     C12 1024   4.420   2.578   1.328  0.0677 -0.4414 -0.1234
   45DG     H13 1025   4.038   2.582   0.996 -2.0408 -0.9038 -0.7892
   45DG     H14 1026   3.981   2.424   0.987 -0.4836  0.0918  0.2184
   45DG     H15 1027   4.360   2.574   1.419  0.7315  1.8455  0.4919
   45DG     H16 1028   4.520   2.544   1.354  1.0450  1.7201 -0.8084
   45DG     C17 1029   4.161   2.440   1.111 -0.1993  0.4429 -0.1327
   45DG     C18 1030   4.356   2.488   1.220 -0.3553 -0.2631  0.1848
   45DG     O19 1031   4.223   2.536   1.195 -0.3272  0.4646  1.0674
   45DG     H20 1032   4.228   2.397   1.036 -1.3327 -0.1941 -0.8164
   45DG     H21 1033   4.138   2.359   1.180 -1.3199  0.1114 -0.8565
   45DG     H22 1034   4.418   2.484   1.131 -1.1905 -0.8341 -0.3848
   45DG     H23 1035   4.358   2.385   1.257 -0.1731 -0.3158  0.0264
   46DG      C1 1036   2.037   2.756   0.102 -0.0741  0.1757 -0.0796
   46DG      C2 1037   1.280   2.496   0.443  0.4179  0.0643 -0.4177
   46DG      H3 1038   2.005   2.680   0.031 -2.5452 -0.0292  1.1442
   46DG      H4 1039   2.144   2.772   0.098  0.0759 -0.7995 -0.3820
   46DG      H5 1040   1.991   2.847   0.065  0.1057  0.8331  1.2646
   46DG      H6 1041   1.269   2.394   0.406  1.6186 -0.2482  0.0364
   46DG      H7 1042   1.216   2.512   0.529 -1.2697  0.5571 -1.7151
   46DG      H8 1043   1.253   2.575   0.373  0.9579 -0.7271 -1.5673
   46DG      O9 1044   1.988   2.727   0.233 -0.5254  0.3750  0.1020
   46DG     O10 1045   1.420   2.525   0.474 -0.7858  0.4180 -0.1188
   46DG     C11 1046   1.852   2.694   0.244 -0.5182 -0.5449  0.2684
   46DG     C12 1047   1.492   2.516   0.355 -0.0100 -0.4528 -0.3397
   46DG     H13 1048   1.843   2.598   0.193 -1.3278 -0.3049 -0.0411
   46DG     H14 1049   1.790   2.775   0.207 -2.3512 -2.1391 -0.2633
   46DG     H15 1050   1.463   2.590   0.280 -0.1119  0.4597  0.5638
   46DG     H16 1051   1.466   2.417   0.319  0.7632 -0.4215 -1.0043
   46DG     C17 1052   1.815   2.681   0.388  0.6430  0.0041  0.7779
   46DG     C18 1053   1.642   2.527   0.372  0.5658  0.0370 -0.1676
   46DG     O19 1054   1.677   2.661   0.397  0.3945  0.0076  0.0363
   46DG     H20 1055   1.832   2.775   0.439 -1.5650  1.4819 -1.0051
   46DG     H21 1056   1.862   2.595   0.435  2.4546 -0.1928 -1.2080
   46DG     H22 1057   1.679   2.469   0.457 -3.4533  0.1749  1.9558
   46DG     H23 1058   1.683   2.478   0.284  0.0593 -0.3289 -0.2070
   47DG      C1 1059   2.134   1.839   5.466 -0.1022 -0.4816  0.2280
   47DG      C2 1060   2.605   2.014   5.941 -0.1653  0.3270  0.8325
   47DG      H3 1061   2.078   1.795   5.548  0.4003 -0.9747  0.3113
   47DG      H4 1062   2.155   1.757   5.397 -0.0540 -0.1463 -0.1622
   47DG      H5 1063   2.063   1.904   5.415 -1.5228 -1.2482  1.1708
   47DG      H6 1064   2.705   2.050   5.966  0.4256  0.8914 -1.9701
   47DG      H7 1065   2.520   2.072   5.978 -1.6792  0.3629 -2.3168
   47DG      H8 1066   2.605   1.913   5.981  2.0662  0.3860  1.1249
   47DG      O9 1067   2.255   1.908   5.502 -0.8603  0.7053  0.0898
   47DG     O10 1068   2.585   2.020   5.802  0.0158 -0.6232 -0.3039
   47DG     C11 1069   2.305   1.994   5.402  0.3161  0.0488 -0.0775
   47DG     C12 1070   2.608   2.153   5.747 -0.4206  0.5433  0.1592
   47DG     H13 1071   2.241   2.080   5.381  1.6275  1.0376 -0.1962
   47DG     H14 1072   2.307   1.940   5.307 -0.8842  0.3018 -0.2657
   47DG     H15 1073   2.711   2.185   5.760 -0.5392  0.1400  2.8116
   47DG     H16 1074   2.545   2.218   5.807  0.5461  0.6746  1.0619
   47DG     C17 1075   2.445   2.052   5.432  0.0076 -0.4828  1.0603
   47DG     C18 1076   2.583   2.154   5.595 -0.1605 -0.1290 -0.6615
   47DG     O19 1077   2.467   2.086   5.565  0.1285  0.0573  0.1711
   47DG     H20 1078   2.479   2.131   5.365 -2.4303 -1.3911 -1.4337
   47DG     H21 1079   2.521   1.975   5.418  1.9977  1.7508 -1.7818
   47DG     H22 1080   2.560   2.256   5.568 -1.0670 -0.9288 -3.1767
   47DG     H23 1081   2.672   2.132   5.537 -0.4941  1.3015 -1.7590
   48DG      C1 1082   0.160   4.790   2.463 -0.3927  0.9309 -0.2234
   48DG      C2 1083   0.734   4.580   2.264 -0.6545  0.2724  0.0326
   48DG      H3 1084   0.229   4.824   2.541 -0.9463 -0.2717  0.8220
   48DG      H4 1085   0.059   4.776   2.501 -0.4651  1.4884 -0.2016
   48DG      H5 1086   0.146   4.879   2.402 -1.9518  2.5141  2.2534
   48DG      H6 1087   0.801   4.544   2.186  1.0263 -1.8702  2.3213
   48DG      H7 1088   0.736   4.689   2.261  0.2623  0.2667  0.1822
   48DG      H8 1089   0.781   4.553   2.358 -0.4773  0.3251 -0.0399
   48DG      O9 1090   0.217   4.687   2.387  0.4036 -0.0956  0.1175
   48DG     O10 1091   0.616   4.511   2.250 -0.1603  0.2560  0.2301
   48DG     C11 1092   0.164   4.677   2.256 -0.1176 -0.4811 -0.7329
   48DG     C12 1093   0.570   4.501   2.118 -0.2742  0.0280 -0.5794
   48DG     H13 1094   0.206   4.756   2.194  1.5168 -0.1859  0.6580
   48DG     H14 1095   0.056   4.682   2.237 -0.0050 -0.9928 -1.5371
   48DG     H15 1096   0.624   4.422   2.066 -0.4397 -0.0167 -0.6855
   48DG     H16 1097   0.579   4.594   2.062  2.2815 -1.0177 -2.0776
   48DG     C17 1098   0.219   4.556   2.193 -0.0718 -0.1839 -0.1530
   48DG     C18 1099   0.422   4.469   2.122 -0.0427  0.0457  0.4566
   48DG     O19 1100   0.359   4.568   2.196 -0.0680 -0.5870  0.2383
   48DG     H20 1101   0.181   4.543   2.091  0.0018 -0.4916 -0.1433
   48DG     H21 1102   0.186   4.465   2.243 -0.0295  0.0606  0.3151
   48DG     H22 1103   0.378   4.463   2.023  1.0495 -0.3402 -0.0209
   48DG     H23 1104   0.406   4.374   2.173 -0.5297 -0.2243 -0.1871
   49DG      C1 1105   2.275   0.630   5.277 -0.2087  0.4360  0.4049
   49DG      C2 1106   2.923   0.721   5.356  0.7078 -0.2032  0.6012
   49DG      H3 1107   2.168   0.652   5.268 -0.7976  0.0930  4.7761
   49DG      H4 1108   2.279   0.560   5.361 -3.2534 -0.1528  0.2103
   49DG      H5 1109   2.327   0.590   5.189 -0.8308  1.5332 -0.4921
   49DG      H6 1110   2.913   0.680   5.457 -1.5231 -0.1645  0.4524
   49DG      H7 1111   2.930   0.638   5.286 -2.8294 -0.3980  0.2627
   49DG      H8 1112   3.014   0.780   5.351  0.1070  0.9356  2.0658
   49DG      O9 1113   2.347   0.752   5.301  0.2843 -0.0808 -0.0673
   49DG     O10 1114   2.811   0.804   5.325  0.2574 -0.3353 -0.0749
   49DG     C11 1115   2.350   0.834   5.183  0.0317  0.5496  0.4939
   49DG     C12 1116   2.813   0.851   5.188  0.2320 -0.4885  0.0325
   49DG     H13 1117   2.254   0.883   5.167  0.0084  0.6103  0.8236
   49DG     H14 1118   2.354   0.769   5.095 -1.5847  2.4332 -1.0715
   49DG     H15 1119   2.795   0.759   5.133 -1.0829  0.0700 -0.5231
   49DG     H16 1120   2.913   0.885   5.160 -0.6586  1.5958 -0.8591
   49DG     C17 1121   2.455   0.944   5.192  1.0509 -0.6197  0.0639
   49DG     C18 1122   2.694   0.942   5.148 -0.4305  0.1788 -0.6958
   49DG     O19 1123   2.580   0.887   5.215 -0.3411 -0.0011 -0.1487
   49DG     H20 1124   2.444   1.005   5.282  2.6050  3.9389 -2.5026
   49DG     H21 1125   2.442   1.014   5.109  0.8223 -0.3461  0.3260
   49DG     H22 1126   2.706   1.041   5.192 -0.0602 -0.2145  0.1166
   49DG     H23 1127   2.688   0.943   5.039  0.6114 -0.9269 -0.7746
   50DG      C1 1128   3.716   3.436   2.902 -0.6314  0.4207  0.3694
   50DG      C2 1129   3.297   3.326   2.395  0.2140  0.7221  0.1907
   50DG      H3 1130   3.714   3.535   2.948  0.0406  0.8914 -0.5843
   50DG      H4 1131   3.817   3.398   2.916 -1.3621 -1.4081  0.9776
   50DG      H5 1132   3.643   3.371   2.951 -0.1172 -0.6452 -0.2456
   50DG      H6 1133   3.228   3.360   2.318 -0.9716  0.3528  1.0612
   50DG      H7 1134   3.347   3.236   2.359  0.1702  1.2109 -1.1693
   50DG      H8 1135   3.230   3.313   2.479  0.6817 -0.9543  0.3252
   50DG      O9 1136   3.687   3.454   2.764  0.1852  0.1286 -0.2478
   50DG     O10 1137   3.388   3.428   2.435  0.0206  0.5188  0.2898
   50DG     C11 1138   3.788   3.532   2.693 -0.6545  0.2242  0.4565
   50DG     C12 1139   3.463   3.484   2.328  0.1952 -0.5431  0.6836
   50DG     H13 1140   3.851   3.446   2.666 -1.2793 -0.0515 -0.1663
   50DG     H14 1141   3.844   3.606   2.749 -1.0667  0.2467  0.8450
   50DG     H15 1142   3.404   3.541   2.256  0.4552 -2.1620 -0.8825
   50DG     H16 1143   3.513   3.405   2.272 -0.6898 -1.6358  1.3976
   50DG     C17 1144   3.717   3.598   2.569 -0.6537  0.3818  0.3030
   50DG     C18 1145   3.558   3.582   2.391 -0.0087 -0.1173  0.1920
   50DG     O19 1146   3.615   3.516   2.506 -0.7977 -0.1985 -0.2602
   50DG     H20 1147   3.798   3.607   2.497 -0.5419 -1.4082  0.1460
   50DG     H21 1148   3.694   3.701   2.596 -0.1911  0.2099  1.4323
   50DG     H22 1149   3.634   3.612   2.318 -0.9413 -2.1244 -1.7051
   50DG     H23 1150   3.503   3.668   2.430  0.3922  0.1033  0.2757
   51DG      C1 1151   3.681   0.212   0.783  0.0318 -0.1553  0.1146
   51DG      C2 1152   3.338  -0.361   0.522  0.8802  0.4192  0.4442
   51DG      H3 1153   3.586   0.251   0.820  0.9045  0.8810  1.2993
   51DG      H4 1154   3.722   0.287   0.716 -1.0354  0.5753  0.2537
   51DG      H5 1155   3.746   0.201   0.869  0.6799  1.4539 -0.1463
   51DG      H6 1156   3.247  -0.306   0.545 -0.9117 -1.9964 -0.4641
   51DG      H7 1157   3.312  -0.383   0.419  1.8447  0.6464  0.1349
   51DG      H8 1158   3.347  -0.453   0.580  1.2935 -0.0121 -0.2836
   51DG      O9 1159   3.678   0.085   0.715 -0.5842 -0.0166  0.2904
   51DG     O10 1160   3.455  -0.289   0.557  0.1030  0.4162  0.0313
   51DG     C11 1161   3.805   0.043   0.663 -0.2396 -0.0198 -0.0398
   51DG     C12 1162   3.566  -0.341   0.482  0.5724 -0.3221 -0.2444
   51DG     H13 1163   3.883   0.070   0.734 -0.3669  1.3083 -0.3627
   51DG     H14 1164   3.825   0.089   0.566  0.6190  0.6706  0.4480
   51DG     H15 1165   3.569  -0.317   0.376  0.9021  2.7841  0.3899
   51DG     H16 1166   3.567  -0.449   0.502 -1.8620 -0.1981  1.0030
   51DG     C17 1167   3.804  -0.112   0.639  0.2850 -0.3071  0.0556
   51DG     C18 1168   3.686  -0.284   0.554 -0.2698  0.1548 -0.6779
   51DG     O19 1169   3.696  -0.148   0.557 -0.6167 -0.2591  0.3243
   51DG     H20 1170   3.797  -0.151   0.741 -0.3299 -0.9278 -0.2171
   51DG     H21 1171   3.901  -0.142   0.599  0.2126 -0.6203  0.1115
   51DG     H22 1172   3.678  -0.327   0.654 -1.2651 -1.1637 -1.2813
   51DG     H23 1173   3.770  -0.333   0.507  1.0763  2.6648 -1.0470
   52DG      C1 1174   4.295   1.800   4.563 -0.0925  0.2014  0.0712
   52DG      C2 1175   3.869   2.437   4.380  0.0076 -0.0166  0.5772
   52DG      H3 1176   4.299   1.848   4.661 -1.0816 -0.6842  0.5715
   52DG      H4 1177   4.356   1.711   4.555 -1.5534 -0.9342  1.0607
   52DG      H5 1178   4.200   1.752   4.541  2.5520 -4.5215 -2.5615
   52DG      H6 1179   3.841   2.474   4.281  2.4517 -2.4718 -1.2205
   52DG      H7 1180   3.810   2.490   4.454 -1.1384 -3.1911  2.0859
   52DG      H8 1181   3.976   2.457   4.388  0.4177 -0.5407 -2.4262
   52DG      O9 1182   4.332   1.890   4.461 -0.1616 -0.2085  0.2685
   52DG     O10 1183   3.842   2.298   4.388 -0.2994 -0.1164 -0.0277
   52DG     C11 1184   4.252   2.012   4.459 -0.0021  0.1332  0.6019
   52DG     C12 1185   3.861   2.232   4.266 -0.0624 -0.0214  1.1531
   52DG     H13 1186   4.314   2.092   4.419  1.2716  0.0090  2.2250
   52DG     H14 1187   4.237   2.056   4.558 -0.3541  0.8172  0.2462
   52DG     H15 1188   3.926   2.280   4.193  0.7252 -2.1286  0.3615
   52DG     H16 1189   3.764   2.231   4.217  1.1509 -1.8448 -1.4594
   52DG     C17 1190   4.127   1.988   4.369 -0.0617  0.0895 -1.1993
   52DG     C18 1191   3.929   2.097   4.281  0.3988  0.0091  0.2249
   52DG     O19 1192   4.053   2.115   4.352  0.2474  0.5058  0.3870
   52DG     H20 1193   4.060   1.915   4.414  0.3058 -0.8331 -2.1140
   52DG     H21 1194   4.157   1.955   4.270  0.2108 -0.5181 -0.9195
   52DG     H22 1195   3.858   2.046   4.347  1.1068 -1.9764 -0.4712
   52DG     H23 1196   3.936   2.046   4.185  0.1440  0.1912  0.1084
   53DG      C1 1197   0.158   4.961   2.808 -0.6570 -0.8325 -0.1700
   53DG      C2 1198  -0.431   4.452   3.080 -0.1548  0.0492 -0.6448
   53DG      H3 1199   0.140   5.064   2.775  1.2787  0.4110  2.2715
   53DG      H4 1200   0.107   4.894   2.739  0.3545  1.1355 -2.9685
   53DG      H5 1201   0.266   4.948   2.803 -0.5038  0.2333  0.0338
   53DG      H6 1202  -0.473   4.507   2.996  1.0469 -0.2012 -1.4283
   53DG      H7 1203  -0.421   4.353   3.036  1.0493  0.2155 -0.7618
   53DG      H8 1204  -0.516   4.454   3.149 -0.4882  1.7834 -1.0699
   53DG      O9 1205   0.112   4.947   2.948  0.0195 -0.4848 -0.0926
   53DG     O10 1206  -0.308   4.505   3.123  0.0148 -0.0186  0.0587
   53DG     C11 1207   0.113   4.807   2.992 -0.1880 -0.1121 -0.5158
   53DG     C12 1208  -0.317   4.644   3.129 -0.1419  0.5117 -0.6059
   53DG     H13 1209   0.217   4.781   3.014 -0.3289  0.6670  1.2268
   53DG     H14 1210   0.071   4.745   2.912 -0.0834  0.6426 -1.1748
   53DG     H15 1211  -0.400   4.680   3.190 -0.7929 -1.2709 -0.4011
   53DG     H16 1212  -0.332   4.687   3.030  0.7843  0.2639 -0.8670
   53DG     C17 1213   0.025   4.800   3.114 -0.3707  0.4056 -0.6622
   53DG     C18 1214  -0.187   4.704   3.194 -0.5083 -0.7511  0.5708
   53DG     O19 1215  -0.107   4.755   3.081 -0.1316  0.8280 -0.2787
   53DG     H20 1216   0.016   4.895   3.166 -0.9605 -1.4080  2.8848
   53DG     H21 1217   0.075   4.733   3.185  1.8398  0.8621 -1.6832
   53DG     H22 1218  -0.224   4.786   3.255  1.0117  1.3991 -1.2663
   53DG     H23 1219  -0.136   4.631   3.257 -1.1057  0.8458  3.0185
   54DG      C1 1220   4.922   5.036   5.324  0.5276  0.1155 -0.5900
   54DG      C2 1221   4.428   4.775   5.077  0.1948 -0.0221  0.6465
   54DG      H3 1222   4.912   5.070   5.221  0.8787 -0.2214 -0.7388
   54DG      H4 1223   4.960   4.934   5.317 -0.0525 -0.0904 -0.7864
   54DG      H5 1224   4.998   5.097   5.373  0.6881  1.2473 -2.1585
   54DG      H6 1225   4.371   4.686   5.047  2.7601 -1.1970 -1.0556
   54DG      H7 1226   4.366   4.863   5.064  2.5640  1.6186 -0.1460
   54DG      H8 1227   4.519   4.768   5.017 -0.9399 -2.0064 -0.9793
   54DG      O9 1228   4.785   5.028   5.379 -0.5056  0.0196 -0.1844
   54DG     O10 1229   4.471   4.764   5.214  0.1509  0.1854 -0.0378
   54DG     C11 1230   4.722   5.151   5.375  0.5515 -0.5893 -0.2574
   54DG     C12 1231   4.369   4.800   5.308  1.2534 -0.2197  0.0264
   54DG     H13 1232   4.726   5.206   5.281 -2.0014  0.7325  0.3226
   54DG     H14 1233   4.769   5.221   5.445 -0.1993 -0.1338 -0.2035
   54DG     H15 1234   4.386   4.741   5.398 -1.5999 -0.5638  0.4533
   54DG     H16 1235   4.263   4.785   5.284  1.0271 -1.0270  1.3877
   54DG     C17 1236   4.574   5.112   5.407 -0.0276  0.0396 -0.0137
   54DG     C18 1237   4.403   4.949   5.360 -0.1526  0.0078 -0.1593
   54DG     O19 1238   4.539   4.994   5.339  0.7095 -0.2494  0.1653
   54DG     H20 1239   4.501   5.184   5.371  0.0456  1.2003  1.9717
   54DG     H21 1240   4.565   5.106   5.516 -0.2039  0.9871  0.0325
   54DG     H22 1241   4.335   5.016   5.308  0.2275  0.5386  0.0170
   54DG     H23 1242   4.383   4.946   5.467  0.9346 -3.1319  0.0374
   55DG      C1 1243   2.554   5.081   0.619  0.7670  0.1406  0.4933
   55DG      C2 1244   3.066   5.542   0.271  0.5076 -0.2509 -0.3331
   55DG      H3 1245   2.574   5.013   0.702  1.7060  1.6033  1.5328
   55DG      H4 1246   2.454   5.071   0.575  1.7587  0.9839 -2.1286
   55DG      H5 1247   2.558   5.180   0.665 -1.1778 -0.4248  2.0732
   55DG      H6 1248   3.082   5.613   0.352 -2.1734 -1.2843  1.2426
   55DG      H7 1249   3.134   5.571   0.192 -0.3752 -1.6500 -1.6681
   55DG      H8 1250   2.968   5.572   0.232  1.2979  0.8754 -1.5331
   55DG      O9 1251   2.645   5.062   0.517  0.4079  0.2027 -0.5398
   55DG     O10 1252   3.064   5.410   0.316  0.4689 -0.1216 -0.2814
   55DG     C11 1253   2.780   5.083   0.557 -0.8138  0.5975  0.5234
   55DG     C12 1254   3.031   5.318   0.216  0.0073 -0.3182 -0.3571
   55DG     H13 1255   2.806   5.007   0.630 -1.3005 -0.2742 -0.1833
   55DG     H14 1256   2.809   5.177   0.603  0.7578  0.0351  0.7555
   55DG     H15 1257   3.114   5.309   0.146  2.3078 -2.3826  2.3929
   55DG     H16 1258   2.942   5.350   0.162  0.9070  0.3694 -1.4832
   55DG     C17 1259   2.881   5.053   0.441  0.6365 -0.0919 -0.6478
   55DG     C18 1260   3.002   5.173   0.275 -0.2135 -0.1012 -0.3634
   55DG     O19 1261   2.888   5.177   0.364 -0.1524 -0.0973 -0.2852
   55DG     H20 1262   2.862   4.963   0.383  1.5584 -1.8189  1.6025
   55DG     H21 1263   2.976   5.039   0.492  1.2676  1.5723 -1.2720
   55DG     H22 1264   2.964   5.114   0.191 -1.9813  2.1684 -1.2828
   55DG     H23 1265   3.081   5.119   0.326 -0.0977  0.3673 -0.0414
   56DG      C1 1266   3.243   2.951   2.419  0.0217  0.5021 -0.2034
   56DG      C2 1267   3.044   2.250   2.105 -0.3819  0.7075 -0.2756
   56DG      H3 1268   3.139   2.980   2.431 -0.0502  0.3516 -0.4582
   56DG      H4 1269   3.273   2.929   2.317  2.6379 -2.5297  1.0048
   56DG      H5 1270   3.306   3.035   2.449 -0.3060  1.0585 -1.0528
   56DG      H6 1271   3.134   2.250   2.042 -0.7677 -1.1041 -0.9003
   56DG      H7 1272   3.070   2.180   2.184 -3.0075  1.4523  1.3736
   56DG      H8 1273   2.959   2.213   2.048  1.0057 -2.8710 -0.2700
   56DG      O9 1274   3.268   2.831   2.489  0.1586  0.1429 -0.1484
   56DG     O10 1275   3.022   2.390   2.144  0.4964  0.1863  0.6190
   56DG     C11 1276   3.224   2.707   2.422  0.6595 -0.8365 -0.0138
   56DG     C12 1277   2.920   2.409   2.240 -0.3503  0.1426  0.0494
   56DG     H13 1278   3.250   2.638   2.503 -1.6645 -0.1999  1.3655
   56DG     H14 1279   3.284   2.685   2.334  0.9747 -0.9758  0.2354
   56DG     H15 1280   2.947   2.342   2.322 -0.0941 -0.9881 -0.9312
   56DG     H16 1281   2.824   2.378   2.198 -0.3029  1.5383 -1.1524
   56DG     C17 1282   3.069   2.692   2.410 -0.3142 -0.5392  0.5820
   56DG     C18 1283   2.924   2.551   2.281 -0.3465 -0.1126  0.4827
   56DG     O19 1284   3.048   2.569   2.341 -0.3689  0.5693  0.0896
   56DG     H20 1285   3.038   2.781   2.356  0.5100 -1.3941 -1.4057
   56DG     H21 1286   3.012   2.696   2.502  0.3363 -4.5508  1.3594
   56DG     H22 1287   2.909   2.615   2.194  1.5705 -1.1890 -0.7124
   56DG     H23 1288   2.845   2.580   2.351  1.2187  0.9342  1.9038
   57DG      C1 1289   2.528   5.193   4.859  1.1415 -0.8514 -0.5753
   57DG      C2 1290   2.037   5.249   5.338 -1.1450  0.8116  0.5762
   57DG      H3 1291   2.595   5.240   4.786  1.8824 -0.9272  0.0441
   57DG      H4 1292   2.481   5.102   4.822 -0.5448 -0.1830 -0.1297
   57DG      H5 1293   2.607   5.167   4.930 -0.4186 -0.7848  1.2493
   57DG      H6 1294   1.974   5.321   5.390 -1.5237  1.4312 -0.7004
   57DG      H7 1295   1.987   5.161   5.297  1.7790 -1.4060  1.3624
   57DG      H8 1296   2.116   5.211   5.403  0.9469 -0.9128 -2.7066
   57DG      O9 1297   2.433   5.291   4.920  0.8676  0.5536  0.1742
   57DG     O10 1298   2.104   5.315   5.234 -0.0515  0.7770 -0.0830
   57DG     C11 1299   2.337   5.329   4.820 -0.2060  0.1752  0.6230
   57DG     C12 1300   2.016   5.334   5.127  0.3771  0.2059  0.3979
   57DG     H13 1301   2.278   5.239   4.801 -0.1668  0.2283  0.2299
   57DG     H14 1302   2.395   5.359   4.732 -1.8414  0.8597 -0.2599
   57DG     H15 1303   1.958   5.424   5.140 -0.1144  0.0921 -0.8505
   57DG     H16 1304   1.940   5.256   5.121 -0.2561  0.9081 -1.1086
   57DG     C17 1305   2.247   5.441   4.859 -0.3985  0.4124  0.2633
   57DG     C18 1306   2.087   5.337   4.994  0.3523  0.3522 -0.1405
   57DG     O19 1307   2.192   5.436   4.984  0.2343  0.4264 -0.6440
   57DG     H20 1308   2.171   5.449   4.781  0.6301 -0.1459 -0.8261
   57DG     H21 1309   2.296   5.539   4.857  1.0982 -0.1383  3.5930
   57DG     H22 1310   2.130   5.237   4.990 -1.6365 -0.5955  0.8102
   57DG     H23 1311   2.014   5.344   4.914 -1.2896  1.2621  1.3524
   58DG      C1 1312   0.803   4.503   1.227  0.8985 -0.5012 -0.1283
   58DG      C2 1313   1.296   4.507   1.633  0.0795 -0.1483  0.5383
   58DG      H3 1314   0.747   4.504   1.133 -0.6932 -0.3663  0.7913
   58DG      H4 1315   0.818   4.602   1.270 -2.3302  0.7641 -1.5460
   58DG      H5 1316   0.739   4.444   1.292 -2.2230  0.4862 -2.0500
   58DG      H6 1317   1.364   4.451   1.697  2.5402  1.9477 -0.0809
   58DG      H7 1318   1.338   4.606   1.612 -1.8981  0.7736  0.6807
   58DG      H8 1319   1.203   4.523   1.688  0.0857 -0.6370  0.6941
   58DG      O9 1320   0.935   4.452   1.223 -0.1117  0.5126 -0.2420
   58DG     O10 1321   1.279   4.437   1.512  0.2656 -0.2163  0.0504
   58DG     C11 1322   0.930   4.311   1.181  0.1311 -0.9430 -0.0056
   58DG     C12 1323   1.225   4.307   1.537  0.5221 -0.2582  0.0449
   58DG     H13 1324   0.906   4.301   1.075 -0.6689  1.2733 -0.0786
   58DG     H14 1325   0.855   4.254   1.236  0.0140 -2.1128 -1.2888
   58DG     H15 1326   1.128   4.328   1.581  0.8612  1.1121  0.2060
   58DG     H16 1327   1.285   4.245   1.603 -0.9082 -0.7156  0.9395
   58DG     C17 1328   1.059   4.246   1.219 -0.5337  0.4553  0.3617
   58DG     C18 1329   1.212   4.229   1.395 -0.1198 -0.3155 -0.0646
   58DG     O19 1330   1.104   4.309   1.336 -0.1460 -0.1835  0.6709
   58DG     H20 1331   1.134   4.266   1.142 -0.6391  0.3073  0.2184
   58DG     H21 1332   1.039   4.139   1.221  0.2558  0.2231 -1.7367
   58DG     H22 1333   1.301   4.245   1.334 -2.0745  2.6518 -2.4335
   58DG     H23 1334   1.178   4.128   1.419 -3.4899  0.5607 -0.6247
   59DG      C1 1335   0.913   2.964   1.314 -0.0869  0.4827 -0.3347
   59DG      C2 1336   1.055   3.770   1.283 -0.6402  0.5721  0.3479
   59DG      H3 1337   0.824   2.902   1.323 -0.0338  0.1310 -1.8726
   59DG      H4 1338   1.008   2.918   1.341 -2.2615 -2.3234  3.2926
   59DG      H5 1339   0.923   2.969   1.205  1.8279  2.1313 -0.1484
   59DG      H6 1340   1.005   3.860   1.248  1.1978  1.4735 -0.0439
   59DG      H7 1341   1.119   3.800   1.366  0.0806  0.3217 -0.1094
   59DG      H8 1342   1.121   3.744   1.200  1.1985 -0.6851  2.0863
   59DG      O9 1343   0.897   3.100   1.356  0.1064  0.5428  0.3593
   59DG     O10 1344   0.974   3.656   1.326  0.2675 -0.1123  0.5136
   59DG     C11 1345   0.805   3.165   1.267 -0.4768 -0.3102  0.7422
   59DG     C12 1346   1.051   3.550   1.364  0.0870  0.0578 -0.4700
   59DG     H13 1347   0.711   3.110   1.265 -1.0048  0.5445 -1.7080
   59DG     H14 1348   0.842   3.157   1.165 -0.9984 -0.8466  0.5884
   59DG     H15 1349   1.108   3.562   1.457 -1.3183 -1.7539  0.7042
   59DG     H16 1350   1.127   3.517   1.293  1.5007 -1.1317  1.5053
   59DG     C17 1351   0.777   3.311   1.306  0.2672  0.5426 -0.4396
   59DG     C18 1352   0.961   3.430   1.390 -0.1690 -0.0966 -0.4031
   59DG     O19 1353   0.883   3.402   1.282  0.7314  0.7268  0.0546
   59DG     H20 1354   0.759   3.314   1.414  0.3443  0.5275 -0.4261
   59DG     H21 1355   0.682   3.351   1.272 -0.0820 -0.1065 -0.2432
   59DG     H22 1356   1.030   3.350   1.417 -1.0745 -0.2816  1.5310
   59DG     H23 1357   0.896   3.442   1.477  0.1405 -2.9663  0.3248
   60DG      C1 1358   3.522   3.760   2.884 -0.5579 -0.6283 -0.3684
   60DG      C2 1359   2.972   4.119   2.671  0.2494 -0.0514 -0.3706
   60DG      H3 1360   3.557   3.744   2.986  0.0257  1.8830 -0.1172
   60DG      H4 1361   3.526   3.867   2.867  2.8701 -0.5279  0.3916
   60DG      H5 1362   3.583   3.716   2.805 -0.5687 -0.9447 -0.2028
   60DG      H6 1363   3.016   4.039   2.612 -3.3473 -1.6610 -1.1651
   60DG      H7 1364   2.873   4.142   2.630 -0.0959 -1.7191 -0.5339
   60DG      H8 1365   3.037   4.202   2.643 -0.3912  0.3286 -0.7616
   60DG      O9 1366   3.388   3.709   2.867  0.0114 -0.1199  0.3419
   60DG     O10 1367   2.975   4.114   2.812 -0.1397 -0.0043 -0.2178
   60DG     C11 1368   3.287   3.780   2.928 -0.8476  0.3594  0.6125
   60DG     C12 1369   2.893   4.008   2.859  0.0210  0.0764  0.2123
   60DG     H13 1370   3.315   3.886   2.928 -0.4344  0.3660 -2.9029
   60DG     H14 1371   3.274   3.734   3.026 -0.2790 -3.2178 -0.8453
   60DG     H15 1372   2.792   4.016   2.818 -0.0998 -0.8419  0.3154
   60DG     H16 1373   2.886   4.030   2.965  1.9291  1.6846  0.0485
   60DG     C17 1374   3.159   3.774   2.856  0.6788  0.1246  0.2228
   60DG     C18 1375   2.944   3.869   2.835  0.3226 -0.5324  0.7740
   60DG     O19 1376   3.066   3.872   2.908  0.2814  0.2092  0.3658
   60DG     H20 1377   3.105   3.680   2.846  0.4371  0.4683 -2.3500
   60DG     H21 1378   3.174   3.803   2.752 -0.7425 -0.0429 -0.0482
   60DG     H22 1379   2.880   3.793   2.880  0.8649 -2.0552 -0.9331
   60DG     H23 1380   2.957   3.840   2.731  2.9639  1.5279  0.4099
   61DG      C1 1381   1.137   0.199   3.168 -0.1588  0.4291  0.7342
   61DG      C2 1382   1.271  -0.279   2.874 -0.3360  0.9999 -0.2873
   61DG      H3 1383   1.035   0.167   3.193  0.1442 -0.5612  0.7336
   61DG      H4 1384   1.142   0.307   3.181  4.5906  0.2399  2.1274
   61DG      H5 1385   1.197   0.167   3.253  0.9829  0.0232 -0.2101
   61DG      H6 1386   1.328  -0.366   2.907 -1.1251  0.4519 -0.3555
   61DG      H7 1387   1.320  -0.191   2.917  3.4650  0.2181 -2.4769
   61DG      H8 1388   1.174  -0.281   2.923  0.3472  2.2515  1.2292
   61DG      O9 1389   1.187   0.146   3.052 -0.3989 -0.1836  0.6994
   61DG     O10 1390   1.282  -0.268   2.731  0.4436  0.0780  0.0251
   61DG     C11 1391   1.131   0.213   2.936 -0.2707 -0.1200  0.1097
   61DG     C12 1392   1.192  -0.181   2.663  0.9598 -0.1456  0.4677
   61DG     H13 1393   1.141   0.321   2.943  1.9174 -0.2325 -0.5580
   61DG     H14 1394   1.025   0.190   2.936 -0.8765  2.1813  2.8439
   61DG     H15 1395   1.091  -0.216   2.681  0.4621 -0.6080 -2.6397
   61DG     H16 1396   1.197  -0.192   2.554  1.2071  0.9145  0.3595
   61DG     C17 1397   1.182   0.163   2.805  0.5927 -0.8292 -0.1336
   61DG     C18 1398   1.227  -0.033   2.676  0.0506 -0.1591  0.0927
   61DG     O19 1399   1.191   0.018   2.802 -0.0087 -0.7858 -0.1475
   61DG     H20 1400   1.285   0.196   2.791  0.4364 -0.6363 -0.8886
   61DG     H21 1401   1.128   0.220   2.729  1.4888 -1.4686 -1.2800
   61DG     H22 1402   1.328  -0.001   2.651  0.3320  0.1470  1.5478
   61DG     H23 1403   1.156   0.014   2.607 -1.4348  2.3406  3.0485
   62DG      C1 1404   0.693   3.444   4.204  0.0649  0.0763 -0.7364
   62DG      C2 1405   1.137   3.940   3.996 -0.7649 -0.2598 -0.1537
   62DG      H3 1406   0.733   3.492   4.293 -0.0355  0.5998 -0.9708
   62DG      H4 1407   0.760   3.363   4.174 -1.2114 -1.3580  0.1305
   62DG      H5 1408   0.601   3.402   4.245 -0.1438 -0.3922 -1.6536
   62DG      H6 1409   1.171   4.001   4.079  0.3767  0.1385 -0.8946
   62DG      H7 1410   1.085   3.853   4.036  1.9263 -1.2201  1.4796
   62DG      H8 1411   1.217   3.916   3.927  1.5304  0.2215  2.2026
   62DG      O9 1412   0.668   3.540   4.104 -0.2405 -0.9882 -0.2376
   62DG     O10 1413   1.048   4.025   3.932  0.0412 -0.0757 -0.6531
   62DG     C11 1414   0.774   3.642   4.100  0.5915 -0.1904  0.0068
   62DG     C12 1415   0.924   4.073   3.985 -0.2152 -0.0349  0.0775
   62DG     H13 1416   0.867   3.602   4.061  2.1204  2.5674  0.6250
   62DG     H14 1417   0.797   3.677   4.200  1.2982  3.5595 -1.3194
   62DG     H15 1418   0.895   4.167   3.937 -1.5308 -0.2728  0.3547
   62DG     H16 1419   0.929   4.085   4.093  0.9276 -1.5804  0.2183
   62DG     C17 1420   0.723   3.760   4.023 -0.1564 -0.1901  0.3205
   62DG     C18 1421   0.821   3.963   3.952 -0.1156  0.6200  0.0952
   62DG     O19 1422   0.825   3.857   4.047  0.2722  0.8669  0.5052
   62DG     H20 1423   0.632   3.805   4.065  0.2296 -0.6172  1.6925
   62DG     H21 1424   0.704   3.738   3.918 -0.7959  1.7892 -0.0250
   62DG     H22 1425   0.724   4.011   3.960 -0.2859  0.1383  0.9672
   62DG     H23 1426   0.842   3.929   3.850 -1.5047  1.6699 -0.5706
   63DG      C1 1427   0.889   2.744   2.736  0.4530 -0.1546 -0.1728
   63DG      C2 1428   1.227   3.044   3.308  0.3603  0.3612  0.5607
   63DG      H3 1429   0.784   2.727   2.759  0.5311  0.4337  0.6450
   63DG      H4 1430   0.953   2.675   2.790  1.1488  1.2575  0.8701
   63DG      H5 1431   0.913   2.721   2.632  1.3861 -0.3174  0.0692
   63DG      H6 1432   1.254   2.943   3.339 -0.2819  0.0362  0.0648
   63DG      H7 1433   1.310   3.109   3.334  1.8265 -1.5576  0.9607
   63DG      H8 1434   1.140   3.081   3.361  0.9307 -0.5882  2.2182
   63DG      O9 1435   0.935   2.874   2.780  0.1390  0.0302 -0.0504
   63DG     O10 1436   1.205   3.037   3.169 -0.3787  0.3006  0.1593
   63DG     C11 1437   1.067   2.912   2.739  0.4481  0.9160 -0.5033
   63DG     C12 1438   1.150   3.159   3.123 -0.3431  0.9390 -0.5770
   63DG     H13 1439   1.083   2.910   2.631 -0.5758 -0.8620 -0.6677
   63DG     H14 1440   1.142   2.844   2.779  0.9616  1.2412 -0.8955
   63DG     H15 1441   1.200   3.239   3.178  0.1949 -1.7148  3.2200
   63DG     H16 1442   1.043   3.158   3.144 -0.0622  2.0741  1.1828
   63DG     C17 1443   1.097   3.058   2.774  0.0642 -0.0504  0.4146
   63DG     C18 1444   1.158   3.167   2.975 -0.5043 -0.1618  0.3284
   63DG     O19 1445   1.096   3.054   2.914  0.5048  0.4497  0.0990
   63DG     H20 1446   1.027   3.134   2.739 -0.3010  0.0609  1.3613
   63DG     H21 1447   1.199   3.082   2.745  0.1472  1.6550  1.9065
   63DG     H22 1448   1.114   3.259   2.939 -1.5210 -0.4631  0.7664
   63DG     H23 1449   1.264   3.171   2.948 -0.3621 -0.9192  0.7248
   64DG      C1 1450   5.461   1.475   1.607 -0.0090 -0.1109 -0.0096
   64DG      C2 1451   6.035   1.119   1.886  0.3341 -0.4587  0.2296
   64DG      H3 1452   5.437   1.572   1.563  2.3696  0.9090  0.7908
   64DG      H4 1453   5.381   1.447   1.675  1.1000  1.8518  2.2292
   64DG      H5 1454   5.458   1.410   1.519  0.0036  0.3751 -0.3698
   64DG      H6 1455   6.015   1.080   1.785  0.0131 -2.1480  0.9037
   64DG      H7 1456   6.142   1.115   1.905  0.4975  1.9614  0.1321
   64DG      H8 1457   5.984   1.055   1.958  0.4885 -2.4083 -1.2904
   64DG      O9 1458   5.581   1.476   1.679  0.3230 -0.0043  0.2837
   64DG     O10 1459   5.978   1.251   1.903  0.4345  0.1680  0.1443
   64DG     C11 1460   5.579   1.544   1.800 -0.4742 -0.3965 -0.1584
   64DG     C12 1461   6.010   1.338   1.795 -0.2376  0.1993 -0.6853
   64DG     H13 1462   5.516   1.489   1.870  2.4294 -1.4531  1.8346
   64DG     H14 1463   5.537   1.644   1.785 -2.6613 -1.3961 -1.0683
   64DG     H15 1464   5.965   1.312   1.699  0.6626  0.3381 -1.1544
   64DG     H16 1465   6.118   1.354   1.790 -0.4443  2.9545  1.3464
   64DG     C17 1466   5.725   1.566   1.852  0.3692  0.5314  0.2974
   64DG     C18 1467   5.950   1.476   1.831 -0.2985 -0.3251  0.5849
   64DG     O19 1468   5.814   1.456   1.834  0.8636  0.6560  0.3835
   64DG     H20 1469   5.728   1.601   1.955  0.8450  1.3377  0.0137
   64DG     H21 1470   5.761   1.654   1.800 -2.2275  2.5610  1.7225
   64DG     H22 1471   5.977   1.503   1.933 -2.6425 -0.4000  1.2838
   64DG     H23 1472   5.980   1.554   1.761  1.0491  1.4616  2.9887
   65DG      C1 1473   0.722   2.406   1.953 -0.0322 -0.3864 -0.2529
   65DG      C2 1474   1.257   2.017   1.821 -1.0000  0.6068 -0.1220
   65DG      H3 1475   0.614   2.417   1.941  0.1034 -0.8127 -2.3178
   65DG      H4 1476   0.779   2.498   1.967 -0.4069 -0.0759 -0.7277
   65DG      H5 1477   0.738   2.343   2.040 -0.5632  0.7130  0.6574
   65DG      H6 1478   1.286   1.954   1.737 -0.1885  0.7034  0.0749
   65DG      H7 1479   1.345   2.080   1.839  0.1219 -1.5065  2.6058
   65DG      H8 1480   1.255   1.958   1.913 -4.3614  1.2144  0.3281
   65DG      O9 1481   0.765   2.317   1.854  0.0656  0.0414 -0.3188
   65DG     O10 1482   1.134   2.077   1.800  0.0614 -0.2665  0.1266
   65DG     C11 1483   0.772   2.379   1.727 -0.1230 -0.3020  0.4277
   65DG     C12 1484   1.153   2.153   1.676  0.0824  0.6080 -0.0481
   65DG     H13 1485   0.857   2.445   1.742  0.3325 -0.8514  0.3331
   65DG     H14 1486   0.680   2.436   1.712  0.4138  0.5185  0.1942
   65DG     H15 1487   1.155   2.084   1.591  2.4715 -1.0793  1.2729
   65DG     H16 1488   1.248   2.205   1.665 -0.2676  1.4898  0.9683
   65DG     C17 1489   0.800   2.283   1.616 -0.0795 -0.1561 -0.7063
   65DG     C18 1490   1.028   2.252   1.663  0.0209  0.4752  0.0097
   65DG     O19 1491   0.902   2.188   1.666  0.1801 -0.4588  0.4841
   65DG     H20 1492   0.835   2.338   1.529  1.3004 -0.4455 -0.3590
   65DG     H21 1493   0.720   2.217   1.586  1.1582 -2.4499  0.7571
   65DG     H22 1494   1.043   2.323   1.745 -1.5678  3.3773 -2.0529
   65DG     H23 1495   1.056   2.294   1.567 -0.2673 -0.8987 -0.6974
   66DG      C1 1496   2.681   2.740   0.755 -0.3012  0.1304  0.3924
   66DG      C2 1497   2.166   2.723   1.232  0.5139  0.6863 -0.9200
   66DG      H3 1498   2.730   2.785   0.669  0.4613 -1.9278 -0.3126
   66DG      H4 1499   2.620   2.659   0.717  0.3201 -0.1635  0.0127
   66DG      H5 1500   2.765   2.702   0.814  0.2779  1.0953  0.2154
   66DG      H6 1501   2.251   2.766   1.287 -1.6516  1.5659  1.9824
   66DG      H7 1502   2.068   2.748   1.272  0.2140  0.8859 -1.7741
   66DG      H8 1503   2.173   2.615   1.234  0.0173  0.5765  3.1623
   66DG      O9 1504   2.595   2.824   0.828 -0.2593  0.0079 -0.3204
   66DG     O10 1505   2.157   2.761   1.093 -0.9865 -0.2708  0.2204
   66DG     C11 1506   2.533   2.744   0.920 -0.4605  0.3849  0.2926
   66DG     C12 1507   2.152   2.902   1.077 -0.4652 -0.9427  0.8501
   66DG     H13 1508   2.609   2.681   0.965  1.0990  2.1389  0.2353
   66DG     H14 1509   2.452   2.689   0.870 -0.0210  0.0325 -0.0376
   66DG     H15 1510   2.077   2.945   1.143 -0.5504 -0.1327  0.2450
   66DG     H16 1511   2.117   2.930   0.977  0.5480  0.8915  0.9491
   66DG     C17 1512   2.462   2.819   1.032  0.0628  0.3833  0.0826
   66DG     C18 1513   2.287   2.971   1.081  0.1872  0.4228 -0.3826
   66DG     O19 1514   2.373   2.915   0.979  0.2470  0.1564  0.0225
   66DG     H20 1515   2.532   2.870   1.098 -0.6985  1.1332  0.3149
   66DG     H21 1516   2.402   2.750   1.091  0.5320 -0.3745 -0.3070
   66DG     H22 1517   2.280   3.079   1.068 -0.3708  0.3041 -1.1287
   66DG     H23 1518   2.318   2.977   1.185 -3.3735  2.3385  0.7508
   67DG      C1 1519   3.078   2.772   0.059 -0.8557  0.1592  0.5385
   67DG      C2 1520   2.718   3.107  -0.426  0.0485 -0.2273  0.4848
   67DG      H3 1521   3.016   2.809   0.141  2.2858  1.3742  2.5535
   67DG      H4 1522   3.157   2.846   0.067 -0.0377 -0.6925  0.4431
   67DG      H5 1523   3.125   2.682   0.100 -0.4199 -0.2339 -0.7945
   67DG      H6 1524   2.663   3.052  -0.503  1.7692 -1.3992  0.0425
   67DG      H7 1525   2.653   3.116  -0.339 -1.8326  1.5506 -0.9828
   67DG      H8 1526   2.746   3.206  -0.462 -0.0307 -1.0625 -2.1282
   67DG      O9 1527   3.012   2.767  -0.067 -0.1644  0.6548  0.0908
   67DG     O10 1528   2.838   3.042  -0.387 -0.6484 -0.0016  0.1480
   67DG     C11 1529   3.102   2.708  -0.169 -0.3005  0.4192  0.1305
   67DG     C12 1530   2.916   3.007  -0.495  0.6043  0.0365  0.4367
   67DG     H13 1531   3.125   2.604  -0.146 -0.8225  0.2066 -0.2865
   67DG     H14 1532   3.198   2.759  -0.176  0.5777 -1.1319  0.5727
   67DG     H15 1533   3.003   3.072  -0.485 -0.4505  1.3822  1.1300
   67DG     H16 1534   2.869   3.008  -0.593 -0.5122 -2.4501  0.8670
   67DG     C17 1535   3.027   2.716  -0.303  0.0727 -0.5156 -0.2942
   67DG     C18 1536   2.964   2.860  -0.473 -0.4053  0.5929  0.4323
   67DG     O19 1537   3.010   2.849  -0.344 -0.1154 -0.0478  0.1907
   67DG     H20 1538   2.935   2.659  -0.298 -0.0511 -0.3468 -0.6040
   67DG     H21 1539   3.078   2.652  -0.375 -1.0011 -2.0598  0.2718
   67DG     H22 1540   2.882   2.789  -0.478 -0.1594  0.3653 -0.7324
   67DG     H23 1541   3.037   2.828  -0.547  0.3318  3.0163  0.0139
   68DG      C1 1542   0.314   3.220   4.495 -0.5980 -0.5636 -0.8419
   68DG      C2 1543  -0.120   3.346   4.002 -0.7040 -0.0807  0.5002
   68DG      H3 1544   0.289   3.159   4.408 -2.0105  0.8013 -1.4395
   68DG      H4 1545   0.255   3.178   4.577  0.3047  0.4146  0.3535
   68DG      H5 1546   0.417   3.225   4.528 -0.3714  0.4999 -1.6594
   68DG      H6 1547  -0.180   3.275   4.059  0.6746 -0.6917  1.2433
   68DG      H7 1548  -0.171   3.425   3.947  0.2048 -0.5126 -1.0242
   68DG      H8 1549  -0.085   3.287   3.918  0.3539  1.8433 -0.4607
   68DG      O9 1550   0.274   3.352   4.460  0.4252 -0.1194 -0.2868
   68DG     O10 1551  -0.012   3.393   4.080  1.0702 -0.6486  0.4084
   68DG     C11 1552   0.354   3.418   4.365  0.8741 -0.0434  0.6797
   68DG     C12 1553  -0.055   3.467   4.187 -0.4764  0.6332 -0.2929
   68DG     H13 1554   0.378   3.352   4.281  0.6568  0.3163  0.3326
   68DG     H14 1555   0.450   3.458   4.399  0.8195  3.7063 -2.7946
   68DG     H15 1556  -0.139   3.424   4.242  0.2588 -0.8057 -0.2484
   68DG     H16 1557  -0.078   3.572   4.166 -0.9834  1.0217  1.8820
   68DG     C17 1558   0.283   3.538   4.313  0.2502  1.0365  1.2625
   68DG     C18 1559   0.061   3.459   4.293  0.0190 -0.6742  0.0595
   68DG     O19 1560   0.171   3.511   4.227 -0.0479 -0.0392  0.4336
   68DG     H20 1561   0.350   3.596   4.250  0.2323 -2.0802 -2.0114
   68DG     H21 1562   0.258   3.598   4.400  0.9828  1.4485  1.1935
   68DG     H22 1563   0.035   3.526   4.374 -2.2096 -0.6221 -0.6372
   68DG     H23 1564   0.077   3.359   4.334  4.2693 -1.1552 -2.1046
   69DG      C1 1565   1.737   1.430   4.961  0.5357 -0.2604 -0.4346
   69DG      C2 1566   2.460   1.878   5.022 -0.6808  0.4131 -0.2112
   69DG      H3 1567   1.645   1.450   4.906  0.3740 -1.2733 -0.5633
   69DG      H4 1568   1.716   1.374   5.053  0.8770 -1.0261 -0.8155
   69DG      H5 1569   1.784   1.361   4.891 -2.7246 -0.9667 -2.1072
   69DG      H6 1570   2.518   1.970   5.026  0.9870 -0.6461  1.6512
   69DG      H7 1571   2.475   1.834   5.120  2.3485 -0.3662 -0.9134
   69DG      H8 1572   2.512   1.810   4.954  0.3726 -1.9398  2.7575
   69DG      O9 1573   1.810   1.546   4.965 -0.5508  0.1124  0.3799
   69DG     O10 1574   2.322   1.914   4.984 -0.2449  0.1816 -0.6723
   69DG     C11 1575   1.862   1.589   4.830  0.7775  0.1092 -0.6096
   69DG     C12 1576   2.235   1.800   4.989 -0.0803  0.5338 -0.4381
   69DG     H13 1577   1.787   1.596   4.752  0.6476  2.7519 -0.3528
   69DG     H14 1578   1.941   1.521   4.798 -0.4958 -1.9816  0.4749
   69DG     H15 1579   2.220   1.773   5.093  0.2026 -0.2471 -0.5965
   69DG     H16 1580   2.269   1.708   4.942 -1.4610  0.6925 -1.8426
   69DG     C17 1581   1.914   1.730   4.836  0.0751  0.6514  1.3295
   69DG     C18 1582   2.102   1.837   4.911  0.2754  0.3632  0.1211
   69DG     O19 1583   2.031   1.722   4.907 -0.1067  0.6800 -0.3918
   69DG     H20 1584   1.846   1.800   4.886  1.3607  1.6863  1.6828
   69DG     H21 1585   1.923   1.769   4.734  1.8578 -1.7442  0.4928
   69DG     H22 1586   2.049   1.921   4.954 -1.8450 -0.8079 -0.0787
   69DG     H23 1587   2.125   1.865   4.808 -0.1193 -0.2832 -0.1462
   70DG      C1 1588   3.115   0.669   1.900 -0.4280  0.0574 -0.0894
   70DG      C2 1589   3.414   0.112   1.805 -0.4317  0.3237  0.1099
   70DG      H3 1590   3.181   0.704   1.820  0.1761  0.3384  0.5246
   70DG      H4 1591   3.146   0.726   1.988 -1.4643  0.5893 -0.0609
   70DG      H5 1592   3.015   0.703   1.875 -0.4486  0.3443  0.3861
   70DG      H6 1593   3.470   0.111   1.899 -0.8820 -0.5112  0.3829
   70DG      H7 1594   3.419   0.029   1.735 -0.4992  0.0275  0.4517
   70DG      H8 1595   3.453   0.197   1.749  0.6656  0.9680  1.7735
   70DG      O9 1596   3.122   0.527   1.911 -0.2790 -0.3858  0.1742
   70DG     O10 1597   3.281   0.143   1.827  0.2355  0.0819 -0.1466
   70DG     C11 1598   3.035   0.487   2.016 -0.1175 -0.7530  0.8641
   70DG     C12 1599   3.216   0.073   1.931  0.4624  0.1461  0.7154
   70DG     H13 1600   2.959   0.564   2.031  0.8671  0.0986  1.6404
   70DG     H14 1601   3.096   0.487   2.106 -1.3372 -0.0290  1.7246
   70DG     H15 1602   3.279   0.087   2.019 -1.0042  2.3980  1.4896
   70DG     H16 1603   3.211  -0.034   1.911 -1.1573 -0.2472  2.9198
   70DG     C17 1604   2.970   0.351   2.000 -0.0676  0.6390 -0.4946
   70DG     C18 1605   3.084   0.137   1.970  0.6493  0.8729  0.1202
   70DG     O19 1606   3.090   0.278   1.964 -0.5370  0.0097  0.1164
   70DG     H20 1607   2.896   0.343   1.920 -0.4885 -1.2031  0.0188
   70DG     H21 1608   2.924   0.311   2.090  2.6474 -0.1138  0.6496
   70DG     H22 1609   2.999   0.105   1.911  0.6880 -0.1639  0.6015
   70DG     H23 1610   3.049   0.103   2.068  1.4847  2.9701  1.2210
   71DG      C1 1611   1.742   5.056   3.258 -0.2070 -0.0155  0.8362
   71DG      C2 1612   1.714   5.598   2.833  0.2538 -0.5672 -0.5634
   71DG      H3 1613   1.776   5.131   3.331  1.3507  0.0582  0.0799
   71DG      H4 1614   1.798   4.963   3.264  1.4003  0.8170 -0.4094
   71DG      H5 1615   1.640   5.038   3.290 -0.7895  1.1961 -0.2290
   71DG      H6 1616   1.698   5.636   2.732 -3.7534 -3.2078 -1.1308
   71DG      H7 1617   1.639   5.644   2.897  0.2333  0.7345 -1.4824
   71DG      H8 1618   1.809   5.627   2.877 -0.3865 -0.3859  0.7583
   71DG      O9 1619   1.735   5.112   3.124  0.0143  0.7410  1.1621
   71DG     O10 1620   1.711   5.458   2.842  0.0675 -0.0613 -0.2150
   71DG     C11 1621   1.695   5.007   3.037  0.2025 -0.8742 -0.0576
   71DG     C12 1622   1.592   5.398   2.797 -0.9687 -0.2497 -0.3039
   71DG     H13 1623   1.598   4.966   3.065 -0.3746  0.6119  0.2000
   71DG     H14 1624   1.770   4.928   3.034 -0.5879 -1.6275 -2.0228
   71DG     H15 1625   1.557   5.445   2.705 -0.8541  0.5320  0.0476
   71DG     H16 1626   1.510   5.416   2.865 -1.1799  1.4927 -0.9598
   71DG     C17 1627   1.694   5.060   2.892  0.1647 -0.4087  0.0285
   71DG     C18 1628   1.618   5.248   2.773 -0.1937 -0.2487  0.9667
   71DG     O19 1629   1.639   5.192   2.900  0.1877 -0.0671  0.5144
   71DG     H20 1630   1.642   4.984   2.834  1.7859 -1.4407 -0.1565
   71DG     H21 1631   1.796   5.061   2.853  1.1970 -0.1858  2.5456
   71DG     H22 1632   1.533   5.204   2.719 -0.8113  1.4867  0.4751
   71DG     H23 1633   1.705   5.226   2.711 -0.2665  0.2895  0.6722
   72DG      C1 1634   0.744   1.976   4.212 -0.2448 -0.3827  0.6089
   72DG      C2 1635   1.014   1.330   4.153  0.0806  0.4204  0.1348
   72DG      H3 1636   0.713   2.043   4.292 -1.9392 -2.2396  1.6126
   72DG      H4 1637   0.648   1.925   4.202 -1.2632  1.2301  1.7211
   72DG      H5 1638   0.768   2.030   4.120 -1.3257 -0.6470  0.1540
   72DG      H6 1639   0.914   1.304   4.189  0.4843 -0.1392  0.8585
   72DG      H7 1640   0.995   1.360   4.050 -1.1845  0.1973  0.2860
   72DG      H8 1641   1.083   1.248   4.167  0.6572  0.7062 -0.9445
   72DG      O9 1642   0.857   1.908   4.263  0.2974 -0.7760 -0.2027
   72DG     O10 1643   1.052   1.448   4.231  0.1225  0.4612 -0.4455
   72DG     C11 1644   0.818   1.848   4.382  0.4555  0.0780  0.1094
   72DG     C12 1645   1.065   1.430   4.371  0.1539 -0.3583 -0.2842
   72DG     H13 1646   0.752   1.765   4.358 -3.8893  2.9247  1.0740
   72DG     H14 1647   0.780   1.917   4.458  0.5593  0.5977 -0.3086
   72DG     H15 1648   1.136   1.352   4.396  1.2017  0.5085 -0.4856
   72DG     H16 1649   0.968   1.387   4.395  0.1230 -0.6514 -0.9255
   72DG     C17 1650   0.939   1.779   4.454  0.1163 -0.1940 -0.4316
   72DG     C18 1651   1.056   1.568   4.449  0.0709  0.5938  0.4854
   72DG     O19 1652   0.971   1.659   4.380  0.6648 -0.1484 -0.2585
   72DG     H20 1653   0.922   1.758   4.559  0.1875 -0.3892 -0.4600
   72DG     H21 1654   1.031   1.836   4.442  0.2580  0.2901  2.4054
   72DG     H22 1655   1.016   1.548   4.548  4.1117 -2.9909  1.6566
   72DG     H23 1656   1.157   1.609   4.457  0.7203 -0.9837  0.6544
   73DG      C1 1657   4.078   1.097   4.837  0.4184 -0.5580 -0.0370
   73DG      C2 1658   4.605   1.453   5.159  0.5760 -0.1947 -0.3214
   73DG      H3 1659   4.028   1.193   4.826 -0.3748 -0.7953  1.2578
   73DG      H4 1660   4.019   1.016   4.880  2.5018 -1.3965  1.4687
   73DG      H5 1661   4.106   1.068   4.736  2.2130  1.8168 -0.3048
   73DG      H6 1662   4.637   1.522   5.081  1.1640  1.0481  0.9557
   73DG      H7 1663   4.527   1.490   5.226 -0.4379 -0.1897 -1.4711
   73DG      H8 1664   4.694   1.431   5.217  0.2373  0.3103  0.4157
   73DG      O9 1665   4.200   1.103   4.923 -0.2368  0.5567  0.8570
   73DG     O10 1666   4.551   1.344   5.095  0.3929  0.2247  0.3232
   73DG     C11 1667   4.284   0.990   4.899  0.1439  0.6653  0.2621
   73DG     C12 1668   4.636   1.266   5.010 -0.4406 -0.2469  0.2693
   73DG     H13 1669   4.328   0.998   4.800 -1.3940 -2.3724 -0.7772
   73DG     H14 1670   4.225   0.899   4.896 -0.2901  0.8650  1.7366
   73DG     H15 1671   4.737   1.270   5.049 -0.4352  1.8836  0.1527
   73DG     H16 1672   4.635   1.315   4.912 -2.0697 -0.3874  0.1807
   73DG     C17 1673   4.404   0.986   4.994  0.2413 -0.0748  0.6575
   73DG     C18 1674   4.596   1.119   5.004 -0.2135 -0.2369 -0.0849
   73DG     O19 1675   4.452   1.114   5.004 -0.2935 -0.3906  0.1261
   73DG     H20 1676   4.480   0.914   4.962 -0.7190 -0.9862  0.4080
   73DG     H21 1677   4.370   0.954   5.092 -0.3223 -2.6125 -0.2767
   73DG     H22 1678   4.650   1.079   4.918  0.7956 -1.6444  1.1524
   73DG     H23 1679   4.639   1.067   5.090  0.5483  2.3696  1.2381
   74DG      C1 1680   3.296   2.790   4.473 -0.2655 -0.2060  0.0582
   74DG      C2 1681   3.195   2.135   4.600  0.5277  0.8420  0.0184
   74DG      H3 1682   3.238   2.831   4.390  1.8248  1.4279 -0.6770
   74DG      H4 1683   3.385   2.756   4.420  1.3334  1.8138  1.3051
   74DG      H5 1684   3.318   2.883   4.525 -1.2812  0.7925 -1.2312
   74DG      H6 1685   3.255   2.126   4.509 -1.5622 -5.1003 -1.2248
   74DG      H7 1686   3.251   2.081   4.676 -0.4286  1.0187  0.8634
   74DG      H8 1687   3.098   2.087   4.587  0.5526  0.5094  1.0050
   74DG      O9 1688   3.234   2.695   4.547 -0.0133  0.0293 -0.1634
   74DG     O10 1689   3.188   2.273   4.638  0.1825 -0.3089 -0.2745
   74DG     C11 1690   3.106   2.739   4.600  0.1748  0.9129 -0.4425
   74DG     C12 1691   3.088   2.287   4.737  0.3375  0.1496  0.2852
   74DG     H13 1692   3.034   2.729   4.518  0.2267  2.0390 -0.6300
   74DG     H14 1693   3.107   2.837   4.646 -1.8302  0.2880  1.1160
   74DG     H15 1694   3.087   2.211   4.816  0.9920 -1.0649 -0.8290
   74DG     H16 1695   2.993   2.274   4.685  0.7284 -1.6450 -0.0787
   74DG     C17 1696   3.069   2.646   4.722  0.4605 -0.5324 -0.5597
   74DG     C18 1697   3.099   2.426   4.791 -0.1380  0.2630  0.3021
   74DG     O19 1698   3.070   2.511   4.689 -0.6260 -0.1281 -0.0971
   74DG     H20 1699   2.971   2.665   4.765  0.6451 -0.3517 -0.2171
   74DG     H21 1700   3.146   2.666   4.796 -0.2553 -0.4283  0.1639
   74DG     H22 1701   3.029   2.444   4.872 -1.1926 -0.6236 -0.3869
   74DG     H23 1702   3.199   2.438   4.833  0.0314 -2.3088  0.8255
   75DG      C1 1703   4.148   3.508   1.859 -0.0834  0.2919 -0.2319
   75DG      C2 1704   4.527   3.603   2.369 -0.4006  0.4010 -0.4678
   75DG      H3 1705   4.161   3.522   1.752 -0.7750  2.6357 -0.0546
   75DG      H4 1706   4.045   3.533   1.885  0.5944  1.2156  1.7162
   75DG      H5 1707   4.174   3.406   1.887  2.7458  0.7517 -0.8834
   75DG      H6 1708   4.576   3.607   2.272 -1.1893 -0.2970 -0.9116
   75DG      H7 1709   4.588   3.631   2.455 -0.3664 -0.0521 -0.3383
   75DG      H8 1710   4.495   3.499   2.380 -0.9225  0.7948  3.1487
   75DG      O9 1711   4.221   3.608   1.933 -0.3870 -0.1930  0.3791
   75DG     O10 1712   4.408   3.681   2.372  0.7058 -0.8733  0.3764
   75DG     C11 1713   4.361   3.597   1.911  1.0837 -0.0798 -0.6435
   75DG     C12 1714   4.429   3.819   2.337 -0.5917  0.1342  0.1299
   75DG     H13 1715   4.383   3.601   1.804  1.2414 -0.3616 -0.6230
   75DG     H14 1716   4.405   3.505   1.951 -1.9367 -0.6421  1.7175
   75DG     H15 1717   4.515   3.856   2.392 -0.0458 -0.1278 -0.5279
   75DG     H16 1718   4.345   3.880   2.371  0.8061  1.2295  1.7799
   75DG     C17 1719   4.416   3.726   1.972 -0.1287  0.4185  0.2690
   75DG     C18 1720   4.447   3.835   2.186 -0.3024 -0.1663 -0.6640
   75DG     O19 1721   4.391   3.729   2.111 -0.7972  0.4851 -0.0175
   75DG     H20 1722   4.375   3.815   1.923  1.1016  0.1327 -1.3750
   75DG     H21 1723   4.524   3.712   1.964 -0.1389  0.9697 -1.1302
   75DG     H22 1724   4.407   3.933   2.158  0.3211  0.0797 -0.7299
   75DG     H23 1725   4.555   3.831   2.170 -0.1196  0.5694  0.3327
   76DG      C1 1726   0.526   5.343   0.669  0.2178  0.4557  0.5729
   76DG      C2 1727   0.888   4.850   1.057 -0.0758 -0.1235 -0.4945
   76DG      H3 1728   0.603   5.359   0.745  1.6167  0.6911 -0.8470
   76DG      H4 1729   0.449   5.420   0.668  0.7155  1.0771 -3.3315
   76DG      H5 1730   0.571   5.349   0.570  3.9765 -3.7450  1.7128
   76DG      H6 1731   0.956   4.922   1.011  0.5030  0.6327  1.4252
   76DG      H7 1732   0.890   4.847   1.166  1.4795  0.2100 -0.4777
   76DG      H8 1733   0.913   4.750   1.023 -1.2242 -0.7825  0.5471
   76DG      O9 1734   0.478   5.211   0.676  0.3208  0.0376 -0.0893
   76DG     O10 1735   0.750   4.860   1.032 -0.2320 -0.8048  0.2332
   76DG     C11 1736   0.430   5.169   0.803 -0.7110  0.4733 -0.1977
   76DG     C12 1737   0.707   4.848   0.895 -0.3915 -0.3485  0.7313
   76DG     H13 1738   0.335   5.209   0.838  0.5984  2.4846  1.3352
   76DG     H14 1739   0.507   5.171   0.881 -0.5632 -1.1294 -0.2706
   76DG     H15 1740   0.725   4.752   0.848  0.9115  0.3153 -0.1593
   76DG     H16 1741   0.759   4.929   0.844 -0.1356 -0.6685  0.4887
   76DG     C17 1742   0.404   5.014   0.778  0.3347 -0.1661 -0.2899
   76DG     C18 1743   0.554   4.889   0.901  0.5245  0.2937 -0.1007
   76DG     O19 1744   0.523   4.944   0.774 -0.0017 -0.0920 -0.2880
   76DG     H20 1745   0.355   5.000   0.682 -0.1626 -0.4735  0.0043
   76DG     H21 1746   0.327   4.983   0.849  1.1941  1.7517  1.5921
   76DG     H22 1747   0.480   4.815   0.930  0.0997  0.8271  0.2044
   76DG     H23 1748   0.548   4.971   0.973  0.4114 -0.0634  0.2973
   77DG      C1 1749   1.922   0.188   0.662  0.5115 -0.0657  0.4265
   77DG      C2 1750   1.156   0.186   0.957 -0.4523 -0.3338 -0.6607
   77DG      H3 1751   1.946   0.152   0.562  3.4565  1.2558  0.5515
   77DG      H4 1752   1.931   0.098   0.723 -1.2513 -0.1487  0.6260
   77DG      H5 1753   1.991   0.261   0.705  0.9993 -1.6631  2.5281
   77DG      H6 1754   1.192   0.240   1.044 -0.4510 -1.4435  0.0510
   77DG      H7 1755   1.059   0.228   0.930 -0.4981  0.0376  0.0720
   77DG      H8 1756   1.148   0.083   0.993 -0.6617  0.0949  0.5561
   77DG      O9 1757   1.784   0.230   0.676  0.4232 -0.4337  0.6807
   77DG     O10 1758   1.247   0.186   0.850 -0.0917 -0.2524  0.2507
   77DG     C11 1759   1.735   0.247   0.807 -0.1330  0.2625 -0.1619
   77DG     C12 1760   1.296   0.317   0.827 -0.2418 -0.0623  0.2442
   77DG     H13 1761   1.798   0.298   0.880  0.2644 -0.9361  0.3657
   77DG     H14 1762   1.718   0.147   0.848 -0.9172  0.5102  0.1443
   77DG     H15 1763   1.337   0.378   0.908 -1.3862 -0.4653  1.1709
   77DG     H16 1764   1.212   0.371   0.782  1.5669  0.1888 -3.0955
   77DG     C17 1765   1.603   0.317   0.808 -0.2114  0.4930 -0.4096
   77DG     C18 1766   1.391   0.316   0.709  0.2930 -0.4156 -0.1427
   77DG     O19 1767   1.506   0.241   0.732 -0.0242  0.3633 -0.1567
   77DG     H20 1768   1.618   0.418   0.769 -0.3420  1.9156  2.9302
   77DG     H21 1769   1.574   0.352   0.907  0.8120 -0.9974  0.4624
   77DG     H22 1770   1.330   0.266   0.633 -0.7309  1.9031 -0.9216
   77DG     H23 1771   1.402   0.412   0.660 -2.8103 -0.5432 -1.2726
   78DG      C1 1772   0.549   3.680   0.609  0.2095 -0.1166 -0.3044
   78DG      C2 1773   1.149   3.761   0.694  0.5720 -0.6195  0.3420
   78DG      H3 1774   0.523   3.596   0.674 -1.0001  1.2481  1.0334
   78DG      H4 1775   0.458   3.704   0.554  1.3160  0.2133 -2.0799
   78DG      H5 1776   0.571   3.764   0.674  0.5688 -0.0460 -0.5126
   78DG      H6 1777   1.124   3.686   0.769  0.1451 -0.7757  0.0502
   78DG      H7 1778   1.256   3.765   0.672 -0.1519 -0.4718 -4.0894
   78DG      H8 1779   1.101   3.850   0.735  0.3693 -0.7462  0.3840
   78DG      O9 1780   0.656   3.652   0.514  0.1695  0.0300 -0.2245
   78DG     O10 1781   1.090   3.729   0.573  0.1190  0.2629 -0.0100
   78DG     C11 1782   0.664   3.750   0.410  0.3085  0.4907 -1.1530
   78DG     C12 1783   1.121   3.819   0.468 -0.3831  0.2873 -0.5750
   78DG     H13 1784   0.655   3.854   0.440  2.3424  0.5483 -0.6066
   78DG     H14 1785   0.590   3.738   0.330  0.2319  0.6478 -1.1060
   78DG     H15 1786   1.226   3.820   0.439 -0.4099  1.8550 -0.6723
   78DG     H16 1787   1.102   3.918   0.508 -2.3993 -0.2521 -0.1085
   78DG     C17 1788   0.794   3.743   0.333 -0.2250  0.1283 -0.0332
   78DG     C18 1789   1.028   3.789   0.353  0.4452  0.0307  0.3201
   78DG     O19 1790   0.905   3.781   0.421 -0.6334 -0.0530  0.2594
   78DG     H20 1791   0.787   3.807   0.245  0.8483  0.0415 -0.1993
   78DG     H21 1792   0.801   3.643   0.292 -3.2580  0.6090 -2.0422
   78DG     H22 1793   1.031   3.872   0.282 -2.0417 -1.0138 -1.1163
   78DG     H23 1794   1.051   3.698   0.298  0.8910  0.3053  0.0432
   79DG      C1 1795   5.167   0.125   1.799 -0.8189 -0.2923 -0.1325
   79DG      C2 1796   4.622  -0.338   1.738 -0.1484  0.5648  0.2092
   79DG      H3 1797   5.184   0.141   1.905 -0.6101  0.2100 -0.2394
   79DG      H4 1798   5.075   0.181   1.778 -1.0808 -0.6392  0.0865
   79DG      H5 1799   5.253   0.176   1.756  0.0486 -2.0289 -0.5527
   79DG      H6 1800   4.602  -0.344   1.631 -0.7988 -1.8399  0.3944
   79DG      H7 1801   4.605  -0.436   1.784  1.3806  0.2430  0.1338
   79DG      H8 1802   4.552  -0.267   1.782 -0.4473 -0.8041  2.1117
   79DG      O9 1803   5.150  -0.010   1.752  0.0551  0.3964 -0.3936
   79DG     O10 1804   4.752  -0.294   1.762  0.4378 -0.1008 -0.5345
   79DG     C11 1805   5.226  -0.103   1.820  0.3534  0.1772  0.4180
   79DG     C12 1806   4.849  -0.380   1.712 -0.0571  0.1050  0.3060
   79DG     H13 1807   5.221  -0.086   1.928 -0.5727 -0.0102  0.4083
   79DG     H14 1808   5.330  -0.084   1.793 -0.4533  0.0495 -3.2500
   79DG     H15 1809   4.855  -0.360   1.605  0.3401  3.5818  0.8671
   79DG     H16 1810   4.815  -0.482   1.728 -0.8932  0.4832  1.0401
   79DG     C17 1811   5.173  -0.240   1.787  0.0355  0.2714 -0.1664
   79DG     C18 1812   4.980  -0.370   1.793  0.4877  0.7140  0.5406
   79DG     O19 1813   5.033  -0.241   1.779 -0.0511 -0.4764 -0.3429
   79DG     H20 1814   5.216  -0.310   1.859 -3.3145  0.7975  2.5543
   79DG     H21 1815   5.206  -0.257   1.684  0.4306 -0.4046  0.0598
   79DG     H22 1816   4.973  -0.392   1.900 -1.6409  1.0572  0.5165
   79DG     H23 1817   5.045  -0.448   1.754 -1.6957 -0.2776 -1.3323
   80DG      C1 1818   4.364   3.668   5.123  0.5530 -0.5713 -0.2368
   80DG      C2 1819   4.273   2.960   5.056  0.3750  0.4457  0.2053
   80DG      H3 1820   4.333   3.739   5.046  1.1149 -0.7935 -0.6798
   80DG      H4 1821   4.438   3.712   5.189 -0.7742 -0.0645  0.9677
   80DG      H5 1822   4.280   3.651   5.190  1.4678 -0.5552  0.9464
   80DG      H6 1823   4.317   2.878   4.999 -1.9307  0.5685 -1.9713
   80DG      H7 1824   4.285   2.942   5.162 -0.5221  1.9130  0.5736
   80DG      H8 1825   4.168   2.957   5.025  0.2105 -0.4622  0.8274
   80DG      O9 1826   4.411   3.541   5.071 -0.1809 -0.1848 -0.4448
   80DG     O10 1827   4.340   3.082   5.025  0.4212  0.3031  0.0005
   80DG     C11 1828   4.509   3.560   4.972 -0.3192 -0.6524  0.7422
   80DG     C12 1829   4.351   3.105   4.891  0.3717  0.1947 -0.3980
   80DG     H13 1830   4.587   3.625   5.013 -1.2259  1.5800 -0.8697
   80DG     H14 1831   4.469   3.622   4.892  4.4965  2.4442  0.3086
   80DG     H15 1832   4.255   3.133   4.848 -1.1928  2.7822  4.2044
   80DG     H16 1833   4.382   3.009   4.847  3.2202 -0.2297  2.2079
   80DG     C17 1834   4.553   3.417   4.925  0.3862 -0.0539  0.2955
   80DG     C18 1835   4.462   3.204   4.856  0.2130  0.5247  0.3225
   80DG     O19 1836   4.441   3.329   4.905  0.1049 -0.6644  0.3692
   80DG     H20 1837   4.613   3.367   5.001  0.4928  0.6393  0.6778
   80DG     H21 1838   4.614   3.416   4.835  0.2302 -0.3617  0.1933
   80DG     H22 1839   4.556   3.163   4.893  0.7137 -1.1211 -2.4758
   80DG     H23 1840   4.484   3.208   4.750 -0.3567 -2.0397  0.0386
   81DG      C1 1841   3.340   3.070   0.224 -0.5466  0.4659  1.1342
   81DG      C2 1842   3.822   2.434   0.297 -0.0215  0.4513  0.0742
   81DG      H3 1843   3.256   3.107   0.165 -1.4759 -0.8985  1.5564
   81DG      H4 1844   3.420   3.142   0.241  1.0004 -1.0634  0.6130
   81DG      H5 1845   3.299   3.046   0.322 -2.1910 -0.3691  0.2691
   81DG      H6 1846   3.855   2.362   0.223 -0.6896 -0.9086  1.0491
   81DG      H7 1847   3.903   2.500   0.328  1.6164 -1.9052  1.1190
   81DG      H8 1848   3.802   2.381   0.390  3.5577 -0.2538  0.5944
   81DG      O9 1849   3.394   2.950   0.157 -0.0652 -0.5393  0.2718
   81DG     O10 1850   3.713   2.505   0.248  0.2402  0.3950  0.3561
   81DG     C11 1851   3.485   2.991   0.057  0.0805  0.6705 -0.3127
   81DG     C12 1852   3.754   2.583   0.130  0.4560 -0.3237  0.0729
   81DG     H13 1853   3.563   3.044   0.111  1.4286 -0.2553 -1.2966
   81DG     H14 1854   3.446   3.056  -0.022  1.9934 -0.1898 -2.0644
   81DG     H15 1855   3.818   2.529   0.060  0.7044 -0.3348  0.3080
   81DG     H16 1856   3.822   2.656   0.172  0.9426 -1.0371  0.5302
   81DG     C17 1857   3.553   2.861  -0.006 -0.2406  0.1190 -0.3542
   81DG     C18 1858   3.659   2.660   0.038 -0.5108  0.3508  0.4315
   81DG     O19 1859   3.600   2.774   0.098 -0.1693  0.1613 -0.0152
   81DG     H20 1860   3.637   2.881  -0.073  3.1625 -0.5057  3.3231
   81DG     H21 1861   3.473   2.805  -0.054  0.8683  0.2302 -2.4640
   81DG     H22 1862   3.720   2.690  -0.047  0.0434  0.8498  0.9966
   81DG     H23 1863   3.575   2.605  -0.004 -0.3120  1.3262 -1.3148
   82DG      C1 1864   4.831   3.073   2.423  0.5180 -0.4390 -0.3203
   82DG      C2 1865   5.207   3.857   2.202 -1.0863 -0.2441  0.1615
   82DG      H3 1866   4.932   3.034   2.414  2.0312  3.0401 -0.3522
   82DG      H4 1867   4.782   3.071   2.326  0.5011 -0.9272 -0.2996
   82DG      H5 1868   4.781   2.998   2.484 -1.0952 -0.7868 -1.9766
   82DG      H6 1869   5.158   3.843   2.106 -1.6026  0.6404  0.2815
   82DG      H7 1870   5.201   3.958   2.243  2.9791  0.0304  0.4857
   82DG      H8 1871   5.315   3.850   2.186 -0.8481  3.7082 -1.0141
   82DG      O9 1872   4.834   3.206   2.480  0.3207  0.1997 -0.1829
   82DG     O10 1873   5.176   3.761   2.308 -0.3049  0.6337  0.1317
   82DG     C11 1874   4.883   3.306   2.391  0.4638  0.8411 -0.5190
   82DG     C12 1875   5.184   3.623   2.275 -0.4713  0.7529  0.6618
   82DG     H13 1876   4.799   3.324   2.324 -0.0778  1.3334  0.2790
   82DG     H14 1877   4.962   3.259   2.333 -0.3739 -0.1172 -0.9090
   82DG     H15 1878   5.287   3.599   2.252 -1.1930 -1.7872 -0.3260
   82DG     H16 1879   5.138   3.607   2.177  0.4909 -2.2696  0.6091
   82DG     C17 1880   4.918   3.426   2.465 -0.6542  0.0472 -0.2148
   82DG     C18 1881   5.118   3.525   2.372 -0.2228 -0.5004  0.6741
   82DG     O19 1882   4.974   3.525   2.373 -0.2323  0.1707 -0.2908
   82DG     H20 1883   4.992   3.392   2.539  0.8882 -1.7977 -2.4676
   82DG     H21 1884   4.830   3.468   2.513 -1.7264 -1.5748 -0.6788
   82DG     H22 1885   5.147   3.426   2.335 -1.6558 -1.0593  0.9935
   82DG     H23 1886   5.151   3.525   2.476 -2.1018  0.3948  1.3052
   83DG      C1 1887   1.629   2.939   0.600  0.4114 -0.2328 -0.4102
   83DG      C2 1888   1.822   2.793   0.957 -0.6599 -0.7844  0.2936
   83DG      H3 1889   1.717   2.887   0.641 -1.7067 -2.7002  1.3487
   83DG      H4 1890   1.655   3.039   0.567  3.0300  0.4566  3.0805
   83DG      H5 1891   1.600   2.884   0.511  2.4420 -3.0787  0.5311
   83DG      H6 1892   1.892   2.793   1.040 -2.8009 -0.1015  2.1984
   83DG      H7 1893   1.805   2.696   0.910 -1.0634 -0.4465 -0.2719
   83DG      H8 1894   1.868   2.858   0.882 -0.4117 -0.4062  0.7721
   83DG      O9 1895   1.525   2.968   0.693  0.6375 -0.1982  0.3257
   83DG     O10 1896   1.690   2.836   0.992 -0.0432  0.1763 -0.1426
   83DG     C11 1897   1.449   2.854   0.729 -0.6384  0.4225 -0.1756
   83DG     C12 1898   1.595   2.737   1.007 -0.0849 -0.6212 -0.0747
   83DG     H13 1899   1.515   2.768   0.739 -3.0496 -1.5015  0.2077
   83DG     H14 1900   1.387   2.820   0.645 -0.3549  2.3743 -1.2212
   83DG     H15 1901   1.621   2.660   1.080  2.3593  0.5956  0.4644
   83DG     H16 1902   1.571   2.689   0.912  0.8733 -0.3534 -0.4684
   83DG     C17 1903   1.368   2.883   0.850  0.1921  0.5055 -0.0930
   83DG     C18 1904   1.469   2.801   1.055 -0.1799  0.3384  0.2224
   83DG     O19 1905   1.442   2.908   0.965  0.5571 -0.0047 -1.0810
   83DG     H20 1906   1.299   2.800   0.864 -0.9488  1.4459  0.1310
   83DG     H21 1907   1.305   2.969   0.824 -0.2620  1.1785  2.8525
   83DG     H22 1908   1.385   2.732   1.055 -1.2421  1.6028  0.2825
   83DG     H23 1909   1.473   2.844   1.155 -0.0023 -1.7783  1.1937
   84DG      C1 1910   1.052   4.720   5.213  0.0630 -0.4222  0.7000
   84DG      C2 1911   0.669   5.371   4.988 -0.0810 -1.0963 -0.3322
   84DG      H3 1912   1.046   4.697   5.319 -0.5290  1.5443  1.1193
   84DG      H4 1913   1.115   4.809   5.211 -1.1017  0.4526  2.0362
   84DG      H5 1914   1.100   4.639   5.157  0.8901  0.2974  0.3397
   84DG      H6 1915   0.652   5.398   5.092  2.1260  0.8163 -0.3842
   84DG      H7 1916   0.728   5.445   4.934  0.3605 -2.6795 -2.1459
   84DG      H8 1917   0.571   5.358   4.941 -0.8922  3.6446 -0.4361
   84DG      O9 1918   0.926   4.752   5.160  0.1323  0.6624 -0.1015
   84DG     O10 1919   0.743   5.252   4.985  0.1384 -0.1439 -0.5437
   84DG     C11 1920   0.915   4.776   5.020 -0.3514  0.5367 -0.2215
   84DG     C12 1921   0.871   5.267   5.050 -0.1302 -0.3763 -0.3995
   84DG     H13 1922   0.809   4.778   4.994 -0.2893  0.7984 -0.4572
   84DG     H14 1923   0.964   4.705   4.954  0.5838  1.3710 -0.4579
   84DG     H15 1924   0.858   5.274   5.158 -0.9244 -5.4199  0.0795
   84DG     H16 1925   0.922   5.355   5.010 -0.5761  1.2190  2.3291
   84DG     C17 1926   0.973   4.917   4.989  0.3104 -0.4626  0.4401
   84DG     C18 1927   0.963   5.152   5.017  0.1137 -0.3373  0.4244
   84DG     O19 1928   0.909   5.023   5.053 -0.4086  0.6586  0.3804
   84DG     H20 1929   0.961   4.933   4.882 -1.9367  0.0522  0.7098
   84DG     H21 1930   1.081   4.921   4.998  0.2489 -0.4089  1.2409
   84DG     H22 1931   0.968   5.145   4.908  0.9413 -0.3043  0.4574
   84DG     H23 1932   1.063   5.172   5.055 -0.3455  1.0991  0.9482
   85DG      C1 1933   1.750   2.795   4.661 -0.8464  0.9091  0.8883
   85DG      C2 1934   2.358   3.189   4.917 -0.6631  0.3830  0.0483
   85DG      H3 1935   1.777   2.704   4.715 -1.4634 -0.8318 -1.5775
   85DG      H4 1936   1.823   2.807   4.581  1.5214 -5.3038  1.5257
   85DG      H5 1937   1.648   2.774   4.627 -0.4325  0.1502  0.1012
   85DG      H6 1938   2.357   3.089   4.962 -0.6866  0.4529  0.2046
   85DG      H7 1939   2.401   3.173   4.818  0.9211 -0.5343  0.8306
   85DG      H8 1940   2.407   3.260   4.985 -0.8384  1.4991 -0.9647
   85DG      O9 1941   1.750   2.903   4.749  0.2338 -0.1620  0.2948
   85DG     O10 1942   2.228   3.245   4.899  0.4173  0.0071 -0.6016
   85DG     C11 1943   1.871   2.925   4.818  0.0430 -0.0750 -0.2305
   85DG     C12 1944   2.155   3.251   5.018  0.3620  0.1052  0.5448
   85DG     H13 1945   1.959   2.935   4.755  0.9036 -0.1926  0.9127
   85DG     H14 1946   1.892   2.844   4.889  0.0986  2.2001  2.5277
   85DG     H15 1947   2.171   3.347   5.068  1.0651 -0.2946  1.0995
   85DG     H16 1948   2.199   3.177   5.084  0.2466 -0.4650 -0.0090
   85DG     C17 1949   1.866   3.066   4.881 -0.1274 -0.5817  0.3988
   85DG     C18 1950   2.004   3.226   5.000 -0.3536  0.0455  0.4204
   85DG     O19 1951   1.997   3.110   4.919  0.0397 -0.2450  0.1519
   85DG     H20 1952   1.796   3.068   4.965  0.7954 -0.9219  1.1960
   85DG     H21 1953   1.833   3.149   4.818  1.7496  0.1985  0.3803
   85DG     H22 1954   1.946   3.229   5.091 -1.3869 -1.9906 -0.1162
   85DG     H23 1955   1.966   3.307   4.937  0.8930  1.4057  1.3587
   86DG      C1 1956   5.310   2.587   4.270  0.4603 -0.2858  0.4063
   86DG      C2 1957   5.967   2.879   4.445  0.1290 -0.2747  0.2695
   86DG      H3 1958   5.205   2.614   4.271 -0.1654 -2.2224 -1.9144
   86DG      H4 1959   5.363   2.642   4.348  0.4472  0.0123  0.2069
   86DG      H5 1960   5.323   2.479   4.283  1.0671 -0.3391 -0.4833
   86DG      H6 1961   5.998   2.777   4.422 -0.4291 -0.6842  1.2548
   86DG      H7 1962   5.998   2.955   4.373 -2.1463  1.5334  1.0895
   86DG      H8 1963   6.004   2.901   4.545  1.6268  0.9325 -0.5169
   86DG      O9 1964   5.363   2.624   4.139 -0.3646  0.3646  0.3499
   86DG     O10 1965   5.823   2.885   4.452  0.4061 -0.6357  0.2176
   86DG     C11 1966   5.344   2.759   4.102 -1.0589 -0.1693  0.2730
   86DG     C12 1967   5.765   2.856   4.322  0.3984 -0.2454  0.8887
   86DG     H13 1968   5.237   2.771   4.115 -1.5228 -0.0018 -2.9208
   86DG     H14 1969   5.361   2.769   3.995 -0.4232  0.1247  0.3932
   86DG     H15 1970   5.759   2.749   4.304 -1.0362 -0.0996  0.4247
   86DG     H16 1971   5.825   2.891   4.238  1.0902 -3.6033 -0.1760
   86DG     C17 1972   5.415   2.860   4.198  0.4077 -1.0652  0.5592
   86DG     C18 1973   5.623   2.915   4.308  0.3633  0.5702 -0.2913
   86DG     O19 1974   5.550   2.820   4.226 -0.6859  0.4197  0.0069
   86DG     H20 1975   5.363   2.856   4.294  1.6826 -0.0466  1.3169
   86DG     H21 1976   5.402   2.960   4.157 -1.4792 -0.6788  1.9990
   86DG     H22 1977   5.574   2.921   4.405  2.4505 -1.1982  0.9419
   86DG     H23 1978   5.622   3.013   4.260 -0.3049  1.2358  1.0182
   87DG      C1 1979   1.963   4.215   1.463  0.8389 -0.4299 -0.6715
   87DG      C2 1980   2.106   3.473   1.200 -0.5907 -0.2017  0.2404
   87DG      H3 1981   2.070   4.237   1.463  1.6457 -3.8065 -1.5472
   87DG      H4 1982   1.927   4.213   1.565  0.0016 -1.4064 -0.9764
   87DG      H5 1983   1.912   4.293   1.405 -0.0178  0.4926  1.2437
   87DG      H6 1984   2.052   3.389   1.156 -0.2113 -0.8165  0.9019
   87DG      H7 1985   2.194   3.481   1.136 -1.0448  0.6848 -0.2860
   87DG      H8 1986   2.141   3.433   1.296 -0.5540 -0.0287  0.2987
   87DG      O9 1987   1.935   4.090   1.413  0.5327  0.4529  0.1756
   87DG     O10 1988   2.041   3.599   1.206  0.5877  0.3372 -0.7037
   87DG     C11 1989   1.971   4.071   1.275  0.5612 -0.3394 -0.4226
   87DG     C12 1990   1.913   3.594   1.269  0.4748  0.2039 -0.5388
   87DG     H13 1991   2.075   4.046   1.293 -0.2296 -1.3546  4.0120
   87DG     H14 1992   1.970   4.159   1.212  1.1954 -1.1663 -1.6250
   87DG     H15 1993   1.932   3.567   1.373 -0.3422  0.9660 -0.1713
   87DG     H16 1994   1.861   3.514   1.216 -1.8491  1.0351  0.3808
   87DG     C17 1995   1.895   3.948   1.220  0.2682  0.4384 -0.5799
   87DG     C18 1996   1.846   3.725   1.265 -0.7824  1.0353  0.2078
   87DG     O19 1997   1.935   3.824   1.290 -0.3946 -0.6594  0.0110
   87DG     H20 1998   1.925   3.936   1.116  1.4995  1.0747 -0.3171
   87DG     H21 1999   1.786   3.960   1.225  0.2058 -0.3414  0.1533
   87DG     H22 2000   1.798   3.729   1.168  0.4647 -1.1635 -0.5771
   87DG     H23 2001   1.767   3.733   1.340 -1.2575  0.5474 -0.2258
   88DG      C1 2002   4.777   0.757   2.122  0.2031 -0.3180  0.3267
   88DG      C2 2003   4.706   0.835   1.551 -0.0060  0.0634  0.0463
   88DG      H3 2004   4.863   0.772   2.056 -0.6373 -0.1397 -0.7524
   88DG      H4 2005   4.737   0.657   2.101  0.2971  0.0396 -1.7643
   88DG      H5 2006   4.831   0.759   2.217  0.6429 -0.5258  0.0835
   88DG      H6 2007   4.722   0.727   1.545  0.1633  0.0814  0.1670
   88DG      H7 2008   4.599   0.844   1.531  0.0643 -2.5324 -2.1564
   88DG      H8 2009   4.755   0.875   1.462 -1.5038  2.0435  0.0555
   88DG      O9 2010   4.669   0.851   2.103  0.0444 -0.1525 -0.1432
   88DG     O10 2011   4.747   0.886   1.680  0.2419  0.3807  0.2349
   88DG     C11 2012   4.716   0.988   2.114 -0.1979  0.3482  0.3783
   88DG     C12 2013   4.750   1.026   1.674  0.7145 -0.4140  0.3764
   88DG     H13 2014   4.821   0.993   2.089 -0.0314  0.0382  0.9990
   88DG     H14 2015   4.705   1.034   2.212 -0.1860 -0.3709  0.7183
   88DG     H15 2016   4.665   1.072   1.624 -1.1537 -0.3129  3.3877
   88DG     H16 2017   4.835   1.066   1.618 -1.3678  1.7705 -1.4790
   88DG     C17 2018   4.625   1.072   2.013  0.1192  0.3366  0.2682
   88DG     C18 2019   4.756   1.076   1.817  0.0345  0.4411 -0.7318
   88DG     O19 2020   4.634   1.036   1.875 -0.3244 -0.2819 -0.5404
   88DG     H20 2021   4.641   1.180   2.016 -0.7588  0.5078 -0.6477
   88DG     H21 2022   4.524   1.047   2.046  0.5731 -2.4903 -0.2440
   88DG     H22 2023   4.839   1.023   1.863  0.2023  0.3586 -1.1202
   88DG     H23 2024   4.773   1.184   1.817 -0.9551  0.6108  0.2792
   89DG      C1 2025   1.476   1.187   4.623 -0.7737  0.0996 -0.3686
   89DG      C2 2026   0.881   1.084   4.916  0.5503  0.1151 -0.2048
   89DG      H3 2027   1.531   1.239   4.702  2.2094 -1.2794 -1.3573
   89DG      H4 2028   1.396   1.250   4.583 -1.1483 -0.1381  0.0022
   89DG      H5 2029   1.543   1.158   4.542 -2.5787 -1.0422 -1.5264
   89DG      H6 2030   0.840   0.998   4.969 -0.7363  0.6438 -0.2984
   89DG      H7 2031   0.957   1.135   4.975 -0.2470 -0.4013  1.3421
   89DG      H8 2032   0.792   1.144   4.898  0.5054  0.2553  0.4546
   89DG      O9 2033   1.435   1.066   4.689  0.4693  0.1829  0.0366
   89DG     O10 2034   0.938   1.036   4.797 -0.5658  0.0157 -0.3419
   89DG     C11 2035   1.379   0.976   4.596  0.2201  0.1442  0.3572
   89DG     C12 2036   0.954   1.143   4.709 -0.4477  0.3742  0.5561
   89DG     H13 2037   1.360   0.885   4.653  0.2133  0.5730  1.0444
   89DG     H14 2038   1.450   0.951   4.516 -2.0750 -0.9277 -1.4796
   89DG     H15 2039   1.011   1.229   4.745 -1.3634  0.8113  0.9930
   89DG     H16 2040   0.858   1.180   4.672 -0.4481 -1.0471 -1.0022
   89DG     C17 2041   1.245   1.017   4.532  0.0414  0.6163 -0.5283
   89DG     C18 2042   1.033   1.082   4.592 -0.1247 -0.6619 -0.7009
   89DG     O19 2043   1.167   1.071   4.633 -0.0946  0.1282 -0.0199
   89DG     H20 2044   1.203   0.922   4.497 -0.0935  0.6690 -0.5071
   89DG     H21 2045   1.270   1.074   4.442 -0.1673  1.2083 -0.2087
   89DG     H22 2046   0.984   0.987   4.570 -2.0878  0.4512 -1.4461
   89DG     H23 2047   1.030   1.148   4.505 -1.2274  2.6189  1.6204
   90DG      C1 2048   1.691   2.957   5.489  0.2242 -0.4273  0.0395
   90DG      C2 2049   1.825   3.336   5.396 -0.1862 -0.1016  0.0126
   90DG      H3 2050   1.674   3.062   5.466  0.2119 -0.2989  0.6107
   90DG      H4 2051   1.635   2.885   5.430 -0.6108  1.2137 -1.2608
   90DG      H5 2052   1.793   2.922   5.478  0.5606  1.0815 -2.2265
   90DG      H6 2053   1.864   3.438   5.395 -1.7111  0.5727  2.2254
   90DG      H7 2054   1.903   3.268   5.428 -0.3599 -0.4584 -0.3106
   90DG      H8 2055   1.809   3.310   5.291  1.5462  1.7242 -0.7828
   90DG      O9 2056   1.650   2.947   5.623  0.0256 -0.9644  0.2004
   90DG     O10 2057   1.709   3.325   5.481 -0.0665  0.1132 -0.6332
   90DG     C11 2058   1.509   2.977   5.636  0.5928  0.3329  0.3702
   90DG     C12 2059   1.594   3.372   5.413  0.5473 -0.1358 -0.0356
   90DG     H13 2060   1.472   2.920   5.721  1.3701 -0.7914 -0.0147
   90DG     H14 2061   1.451   2.923   5.560 -0.1788 -2.2527  2.6092
   90DG     H15 2062   1.578   3.349   5.308 -4.6925  2.8679 -0.2084
   90DG     H16 2063   1.598   3.480   5.406  1.2754 -0.1953 -0.5924
   90DG     C17 2064   1.484   3.131   5.636 -0.0274 -0.6697 -0.0821
   90DG     C18 2065   1.468   3.325   5.492 -0.2422  0.3217  0.1160
   90DG     O19 2066   1.473   3.184   5.506 -0.0524  0.7527  0.1070
   90DG     H20 2067   1.564   3.179   5.692 -2.5407  2.2381  1.3346
   90DG     H21 2068   1.391   3.141   5.692  0.1164 -2.9835  0.6607
   90DG     H22 2069   1.467   3.374   5.589  0.0203 -2.5194  1.6435
   90DG     H23 2070   1.378   3.351   5.436  0.1221 -1.3540 -1.3252
   91DG      C1 2071   3.512   0.794   3.745  0.2326 -0.2078  0.3495
   91DG      C2 2072   4.184   0.755   3.333 -0.7514  0.6340  0.8898
   91DG      H3 2073   3.482   0.792   3.850 -0.1346 -0.4552  0.2409
   91DG      H4 2074   3.438   0.755   3.675  0.5011 -0.7951  0.3925
   91DG      H5 2075   3.522   0.900   3.720 -0.1171 -0.0591  0.8369
   91DG      H6 2076   4.149   0.691   3.253 -1.3105  2.0987 -0.0808
   91DG      H7 2077   4.154   0.855   3.302 -2.7645 -0.6045 -1.4596
   91DG      H8 2078   4.293   0.756   3.337 -0.6997 -0.4452  0.0269
   91DG      O9 2079   3.637   0.729   3.738 -0.2068  0.6356  0.5974
   91DG     O10 2080   4.119   0.710   3.459 -0.0766  0.5380  0.1726
   91DG     C11 2081   3.686   0.728   3.600 -0.6931 -0.6802  0.3570
   91DG     C12 2082   4.122   0.804   3.558  0.1378  0.1460  0.2197
   91DG     H13 2083   3.691   0.824   3.550  0.6549 -1.2855 -0.7215
   91DG     H14 2084   3.635   0.656   3.537  0.6440 -2.4371  1.2063
   91DG     H15 2085   4.068   0.895   3.534  1.8145  0.4836 -2.7373
   91DG     H16 2086   4.226   0.827   3.580  0.2884 -0.3739  0.0783
   91DG     C17 2087   3.829   0.682   3.608  0.0432 -0.1652  0.0015
   91DG     C18 2088   4.042   0.762   3.687 -0.7252  0.2615 -0.4538
   91DG     O19 2089   3.901   0.784   3.674 -0.4197  0.1451 -0.2607
   91DG     H20 2090   3.872   0.652   3.512  1.2511 -2.0152  1.0668
   91DG     H21 2091   3.826   0.592   3.669 -0.9616  1.3973  2.4358
   91DG     H22 2092   4.053   0.655   3.703 -1.3798  0.0960 -1.0950
   91DG     H23 2093   4.085   0.812   3.774 -2.0331 -0.6398  0.7350
   92DG      C1 2094   0.380   3.915   3.745 -0.4181  0.1591  0.1972
   92DG      C2 2095   0.608   3.753   4.452  0.0708  0.0198  0.6691
   92DG      H3 2096   0.311   3.838   3.712 -0.9457  1.4546 -1.9174
   92DG      H4 2097   0.484   3.882   3.750 -0.8844 -1.3611  0.3282
   92DG      H5 2098   0.381   3.997   3.673 -1.2534 -0.7476 -0.8771
   92DG      H6 2099   0.534   3.673   4.448  1.2188 -1.0628  0.5176
   92DG      H7 2100   0.706   3.708   4.436  0.4039  1.2161 -0.8400
   92DG      H8 2101   0.595   3.809   4.544  0.1141 -0.6583  1.0979
   92DG      O9 2102   0.355   3.965   3.876  0.2117 -0.4398 -0.2544
   92DG     O10 2103   0.573   3.848   4.344 -0.1277 -0.1238 -0.0170
   92DG     C11 2104   0.430   4.076   3.914  0.5793 -0.4627 -0.1505
   92DG     C12 2105   0.435   3.887   4.345  0.2568  0.6626  0.1773
   92DG     H13 2106   0.404   4.159   3.848  0.8978  0.9635  1.4459
   92DG     H14 2107   0.534   4.045   3.920  0.3649 -1.0886  0.3300
   92DG     H15 2108   0.399   3.892   4.447  0.2319 -1.3843  0.2986
   92DG     H16 2109   0.389   3.807   4.288 -0.7163  1.2167  0.1649
   92DG     C17 2110   0.385   4.112   4.059  0.0294 -1.3030 -0.0429
   92DG     C18 2111   0.416   4.021   4.283  0.0779 -0.0277  0.3750
   92DG     O19 2112   0.407   3.998   4.142 -0.3113 -0.2277 -0.5701
   92DG     H20 2113   0.278   4.132   4.065  0.3934  0.3977  1.4309
   92DG     H21 2114   0.437   4.195   4.106  1.5508 -2.1998 -0.0642
   92DG     H22 2115   0.325   4.074   4.311  0.0158  0.3046 -0.4359
   92DG     H23 2116   0.501   4.083   4.312 -1.0921  1.6978  0.2755
   93DG      C1 2117   4.328   3.966   5.332  0.1588  0.0749 -0.3294
   93DG      C2 2118   3.724   3.708   5.173  0.5333 -0.3207 -0.5031
   93DG      H3 2119   4.240   3.903   5.338  0.2883  0.0169  2.0957
   93DG      H4 2120   4.315   4.022   5.425 -0.8481 -0.1120 -0.3522
   93DG      H5 2121   4.424   3.918   5.309  1.0328  1.4351  0.3572
   93DG      H6 2122   3.638   3.752   5.223  1.3236  0.8985 -0.1684
   93DG      H7 2123   3.696   3.609   5.138  1.1410 -0.6877  0.0077
   93DG      H8 2124   3.805   3.706   5.246  1.7103  2.3029 -1.6031
   93DG      O9 2125   4.323   4.076   5.242  0.2730 -0.3875  0.2395
   93DG     O10 2126   3.757   3.778   5.050 -0.3531 -0.0096  0.0427
   93DG     C11 2127   4.193   4.130   5.210 -0.1304  0.0212  0.0380
   93DG     C12 2128   3.852   3.879   5.069  0.5093 -0.1625 -0.5747
   93DG     H13 2129   4.203   4.230   5.167  1.5400  0.5839  1.6208
   93DG     H14 2130   4.141   4.147   5.304  0.6703 -0.3551  0.5575
   93DG     H15 2131   3.829   3.951   5.148  3.5612 -1.1753  1.3978
   93DG     H16 2132   3.845   3.938   4.977  0.4355  1.3344  0.3517
   93DG     C17 2133   4.125   4.039   5.106  1.1428 -0.0695  0.1499
   93DG     C18 2134   4.000   3.830   5.080  0.0277 -0.0742 -0.3517
   93DG     O19 2135   4.069   3.927   5.167 -0.4807  0.8469 -0.7317
   93DG     H20 2136   4.184   4.014   5.018 -0.4193  1.0707 -1.3189
   93DG     H21 2137   4.048   4.105   5.065  3.8648  3.0590 -0.3779
   93DG     H22 2138   3.999   3.732   5.127  0.5126 -0.2034 -0.6039
   93DG     H23 2139   4.053   3.818   4.986  0.2100 -0.2234 -0.2298
   94DG      C1 2140   3.615   0.245   3.147 -0.3155  0.2237 -0.3565
   94DG      C2 2141   3.563  -0.131   2.533  1.2582  0.3117  0.2777
   94DG      H3 2142   3.575   0.276   3.243  0.8807  2.6726 -0.5828
   94DG      H4 2143   3.697   0.313   3.127 -0.2073  0.1724 -0.0792
   94DG      H5 2144   3.658   0.147   3.169  0.1510  0.1134 -1.6716
   94DG      H6 2145   3.523  -0.216   2.478  1.9054  0.4952 -0.4994
   94DG      H7 2146   3.618  -0.079   2.455 -0.9333  1.2716 -0.7304
   94DG      H8 2147   3.641  -0.169   2.599  1.9496 -1.4810 -1.4792
   94DG      O9 2148   3.525   0.240   3.038 -0.2049 -0.2317  0.4101
   94DG     O10 2149   3.461  -0.065   2.599 -0.4475 -0.5593 -0.1525
   94DG     C11 2150   3.427   0.140   3.040 -0.2435  0.4472 -0.3266
   94DG     C12 2151   3.477   0.073   2.573 -0.1036  0.3538  0.4361
   94DG     H13 2152   3.365   0.157   3.128  0.3407  0.9092 -0.0000
   94DG     H14 2153   3.472   0.041   3.049  2.0348  1.4893  0.5080
   94DG     H15 2154   3.465   0.080   2.465  3.4127 -0.8259 -0.1781
   94DG     H16 2155   3.577   0.102   2.603  0.0119 -1.0913  1.5750
   94DG     C17 2156   3.348   0.155   2.908  0.0859 -0.1433 -0.2712
   94DG     C18 2157   3.382   0.140   2.675  0.7065 -0.1019  0.5029
   94DG     O19 2158   3.429   0.106   2.804  0.5868  0.6185 -0.3299
   94DG     H20 2159   3.315   0.258   2.893  2.5355  0.9599  1.1844
   94DG     H21 2160   3.251   0.106   2.918  0.5330 -1.7009 -2.7312
   94DG     H22 2161   3.383   0.248   2.659 -1.3520 -0.2103 -0.6969
   94DG     H23 2162   3.276   0.122   2.659  0.3317  1.7335  0.7308
   95DG      C1 2163   3.720   5.279   4.877  0.5560 -0.0627 -0.1177
   95DG      C2 2164   3.869   5.308   5.744 -0.5327 -0.0638  0.0729
   95DG      H3 2165   3.800   5.354   4.881 -0.3073  0.8822 -0.0201
   95DG      H4 2166   3.657   5.301   4.792 -0.1730 -0.5889  0.2798
   95DG      H5 2167   3.748   5.177   4.853  0.8872  0.5255 -2.4730
   95DG      H6 2168   3.811   5.300   5.835  0.4130  0.2395  0.7213
   95DG      H7 2169   3.950   5.235   5.743  1.1053  1.6439 -1.4995
   95DG      H8 2170   3.918   5.406   5.741 -0.2571 -0.0640  2.7652
   95DG      O9 2171   3.630   5.289   4.990  0.3330 -0.0213 -1.3158
   95DG     O10 2172   3.783   5.305   5.630  0.1856  0.6914  0.3730
   95DG     C11 2173   3.709   5.259   5.106 -0.3700  0.1656 -0.0952
   95DG     C12 2174   3.730   5.173   5.592  0.2104 -0.1053  0.1141
   95DG     H13 2175   3.781   5.337   5.132 -0.2950 -0.0669  0.4156
   95DG     H14 2176   3.767   5.168   5.087 -2.9188 -1.7538  0.6769
   95DG     H15 2177   3.678   5.125   5.674 -0.4953  0.6034  0.0961
   95DG     H16 2178   3.819   5.115   5.568  2.2553  1.7128  2.7013
   95DG     C17 2179   3.629   5.214   5.235  1.1998 -0.2180  1.1126
   95DG     C18 2180   3.645   5.195   5.472 -0.3109 -0.1931  0.5732
   95DG     O19 2181   3.717   5.221   5.349 -0.1849 -0.4785  0.5486
   95DG     H20 2182   3.585   5.116   5.220  0.3399  0.2623  0.4029
   95DG     H21 2183   3.547   5.278   5.269  0.2021 -1.0704  0.3882
   95DG     H22 2184   3.593   5.101   5.453  0.4109 -0.6133  0.6324
   95DG     H23 2185   3.570   5.272   5.491 -1.7298 -1.1988 -0.6997
   96DG      C1 2186   4.217   1.122   3.876 -0.4149  0.0038 -0.3719
   96DG      C2 2187   4.797   0.769   4.003  0.1496 -0.3011  0.0551
   96DG      H3 2188   4.225   1.094   3.771 -1.0609 -1.2843 -0.0989
   96DG      H4 2189   4.251   1.225   3.886  2.5859 -0.5369 -3.2577
   96DG      H5 2190   4.110   1.131   3.895 -0.1313  3.6239  0.1970
   96DG      H6 2191   4.795   0.702   3.917  3.0221  2.6334 -2.5684
   96DG      H7 2192   4.815   0.865   3.955 -2.4196  1.0228  1.5052
   96DG      H8 2193   4.884   0.743   4.062  0.0719 -2.0264 -0.5303
   96DG      O9 2194   4.275   1.030   3.965 -0.6544  0.7400  0.0864
   96DG     O10 2195   4.671   0.765   4.068  0.0805  0.0085  0.1160
   96DG     C11 2196   4.273   1.066   4.101  0.0912  0.0181 -0.2176
   96DG     C12 2197   4.676   0.818   4.206  0.4874 -1.0163  0.4223
   96DG     H13 2198   4.169   1.083   4.127  0.4006 -0.0721  1.1344
   96DG     H14 2199   4.321   1.161   4.123  0.7722  0.0914 -1.8845
   96DG     H15 2200   4.724   0.915   4.220 -1.4379 -0.1482  1.3501
   96DG     H16 2201   4.711   0.748   4.281  0.5941 -1.0633  0.3291
   96DG     C17 2202   4.330   0.951   4.179  0.1638  0.1040 -0.5292
   96DG     C18 2203   4.532   0.841   4.242 -0.3421 -0.2940 -0.6105
   96DG     O19 2204   4.467   0.934   4.149 -0.4901  0.0106 -0.2664
   96DG     H20 2205   4.276   0.860   4.155 -0.2807  0.3719 -0.5574
   96DG     H21 2206   4.312   0.974   4.284  2.0583  0.8341 -0.3129
   96DG     H22 2207   4.486   0.742   4.237  1.1906 -1.2729  2.1467
   96DG     H23 2208   4.522   0.879   4.344 -1.8060 -0.6569 -0.5871
   97DG      C1 2209   1.669   4.706   4.374  0.0117 -0.2922  0.0016
   97DG      C2 2210   2.112   4.899   5.052 -0.6060  0.2476  0.2346
   97DG      H3 2211   1.609   4.622   4.340 -1.3352  0.0677  1.3964
   97DG      H4 2212   1.770   4.716   4.333  0.5750  0.7024  1.5327
   97DG      H5 2213   1.616   4.791   4.332  0.7901  0.7838  1.1182
   97DG      H6 2214   2.117   5.008   5.061  1.4856  0.2779 -0.5895
   97DG      H7 2215   2.104   4.858   5.152  0.1376 -2.0992 -0.6166
   97DG      H8 2216   2.206   4.861   5.012 -0.7461  0.9193 -0.7919
   97DG      O9 2217   1.669   4.716   4.516 -0.5447 -0.6849  0.7075
   97DG     O10 2218   1.993   4.872   4.973  0.0878 -0.1932  0.9794
   97DG     C11 2219   1.730   4.828   4.578  0.4569 -0.2339  0.1721
   97DG     C12 2220   1.885   4.958   5.009 -0.0544 -0.4945  0.1207
   97DG     H13 2221   1.669   4.910   4.539 -1.1572 -0.4812  2.0263
   97DG     H14 2222   1.835   4.840   4.552  0.4302 -0.1891  0.0852
   97DG     H15 2223   1.922   5.056   4.977 -0.5720 -0.3588 -0.0788
   97DG     H16 2224   1.866   4.969   5.116 -2.2679  4.2736 -0.4740
   97DG     C17 2225   1.717   4.821   4.726  0.8827 -0.5106  0.1979
   97DG     C18 2226   1.745   4.926   4.938 -0.8683  0.4113  0.2292
   97DG     O19 2227   1.752   4.936   4.793  0.1539 -0.5935 -0.2283
   97DG     H20 2228   1.781   4.740   4.760  1.2714 -0.2770  0.0332
   97DG     H21 2229   1.614   4.790   4.744  0.9703 -0.4715  0.7920
   97DG     H22 2230   1.688   4.842   4.976  0.3921 -2.1693 -3.0630
   97DG     H23 2231   1.675   5.008   4.957 -1.8528 -0.4541  0.4564
   98DG      C1 2232   2.823   5.356   2.370 -0.4226  0.3450  0.3131
   98DG      C2 2233   2.127   5.322   2.759 -0.0856 -0.9226  0.1910
   98DG      H3 2234   2.801   5.365   2.264  1.8992 -0.3744 -0.2907
   98DG      H4 2235   2.852   5.252   2.391 -3.4866 -0.3742  1.5100
   98DG      H5 2236   2.918   5.405   2.391  0.5263 -0.6136 -1.5636
   98DG      H6 2237   2.147   5.232   2.817  0.3532 -2.6758 -2.5330
   98DG      H7 2238   2.111   5.408   2.825 -1.2225  0.9757 -2.3990
   98DG      H8 2239   2.034   5.313   2.703 -0.6172  0.4872  0.7907
   98DG      O9 2240   2.711   5.392   2.446 -0.3602  0.1270  0.0606
   98DG     O10 2241   2.235   5.343   2.668 -0.0394  0.3969 -0.3215
   98DG     C11 2242   2.608   5.304   2.426 -1.1043  0.5375 -0.0634
   98DG     C12 2243   2.233   5.478   2.606 -0.5293 -0.0878  0.0814
   98DG     H13 2244   2.641   5.204   2.454 -0.2158  1.2888  1.7014
   98DG     H14 2245   2.581   5.323   2.322 -1.5798  0.0072 -0.0396
   98DG     H15 2246   2.260   5.557   2.677 -2.8116  0.9513 -0.1297
   98DG     H16 2247   2.130   5.512   2.593  0.4072  2.9782 -0.1631
   98DG     C17 2248   2.492   5.347   2.515  0.5916 -0.1813  0.8276
   98DG     C18 2249   2.304   5.490   2.470 -0.5530  0.2026 -0.0212
   98DG     O19 2250   2.448   5.482   2.486  1.1176 -0.5543 -0.7639
   98DG     H20 2251   2.517   5.341   2.621  2.8911  1.9263  0.5095
   98DG     H21 2252   2.413   5.273   2.504 -1.3908  1.9632 -0.5794
   98DG     H22 2253   2.268   5.420   2.394  0.3518  0.3473 -0.5985
   98DG     H23 2254   2.277   5.591   2.441 -0.8829 -0.1236 -0.8941
   99DG      C1 2255   5.056   0.974   0.423  0.1651 -0.1654 -0.0103
   99DG      C2 2256   5.005   1.286   1.032  0.2139 -0.3795  0.4249
   99DG      H3 2257   5.051   0.875   0.378  2.5895 -0.8328  0.9820
   99DG      H4 2258   5.109   1.044   0.358  0.7276  0.2888  0.9071
   99DG      H5 2259   4.956   1.017   0.430 -0.2639 -0.8742 -1.4415
   99DG      H6 2260   5.035   1.372   0.972 -0.2718 -1.9770 -2.2635
   99DG      H7 2261   4.899   1.303   1.052 -0.0887  0.1022 -1.4157
   99DG      H8 2262   5.068   1.299   1.120 -0.1841  1.5047  0.4781
   99DG      O9 2263   5.126   0.956   0.549 -0.0989 -0.2844  0.4415
   99DG     O10 2264   5.020   1.163   0.964  0.0961 -0.1884 -0.2146
   99DG     C11 2265   5.096   0.839   0.616 -0.0449  0.0778  0.6222
   99DG     C12 2266   5.077   1.055   1.037 -0.2177 -0.1503  0.6193
   99DG     H13 2267   5.109   0.751   0.552  0.2787  0.0534  0.7211
   99DG     H14 2268   4.990   0.846   0.639 -0.1514  1.2352 -0.1284
   99DG     H15 2269   5.034   1.050   1.136 -1.8904  0.9051 -0.0054
   99DG     H16 2270   5.180   1.087   1.053 -0.1268 -0.2054  0.1755
   99DG     C17 2271   5.178   0.825   0.747 -0.2604  0.0605  0.3076
   99DG     C18 2272   5.090   0.924   0.956  0.1591 -0.2860 -0.2771
   99DG     O19 2273   5.146   0.942   0.823 -0.4594 -0.0807  0.5279
   99DG     H20 2274   5.286   0.821   0.728 -0.4760  1.6806 -1.4997
   99DG     H21 2275   5.140   0.732   0.789  1.4753 -1.6787 -1.6752
   99DG     H22 2276   5.148   0.853   1.015  1.2968 -0.8982 -2.0622
   99DG     H23 2277   4.995   0.880   0.927 -0.9540  0.3913  2.0266
  100DG      C1 2278   4.016   1.698   0.857 -0.5446 -0.1906  0.3960
  100DG      C2 2279   4.382   1.741   1.508 -0.2827 -0.5186  0.6240
  100DG      H3 2280   3.926   1.661   0.808  0.0863 -2.8367  1.1027
  100DG      H4 2281   4.106   1.665   0.804 -0.1740  0.3186  0.7007
  100DG      H5 2282   4.022   1.806   0.845 -2.0269 -0.0607  0.6401
  100DG      H6 2283   4.379   1.790   1.605 -0.4076  0.5324  0.1006
  100DG      H7 2284   4.464   1.669   1.510  0.6304  0.4260 -0.7637
  100DG      H8 2285   4.405   1.808   1.425  0.1593 -1.4109  0.0090
  100DG      O9 2286   4.024   1.668   0.997 -0.5840  0.3718 -0.3655
  100DG     O10 2287   4.263   1.682   1.459 -0.1753 -0.8154 -0.1271
  100DG     C11 2288   3.911   1.709   1.063 -0.1830 -0.4805 -0.1379
  100DG     C12 2289   4.146   1.748   1.490  0.3944 -0.5237 -0.4016
  100DG     H13 2290   3.822   1.688   1.004  1.2496 -3.3415 -1.4577
  100DG     H14 2291   3.923   1.817   1.057 -0.3054 -0.5600 -3.5672
  100DG     H15 2292   4.152   1.851   1.456 -1.0884  0.0051  0.8264
  100DG     H16 2293   4.127   1.736   1.597 -1.4204 -1.5520 -0.8023
  100DG     C17 2294   3.913   1.672   1.217 -0.0459 -0.6238  0.4705
  100DG     C18 2295   4.025   1.686   1.421  0.2845 -0.3159  0.3427
  100DG     O19 2296   4.035   1.700   1.278  0.3781 -0.3144 -0.4251
  100DG     H20 2297   3.868   1.573   1.225  0.2119 -0.6970  1.0849
  100DG     H21 2298   3.834   1.735   1.258 -0.8777  0.3402 -2.3837
  100DG     H22 2299   4.005   1.584   1.453 -1.5844 -0.2698 -0.5063
  100DG     H23 2300   3.942   1.751   1.452  0.5269  0.3535 -0.3774
  101DG      C1 2301   4.590   0.089   3.797  0.4708 -0.3620  0.1689
  101DG      C2 2302   4.331   0.386   3.112  0.2867  0.3126  0.0512
  101DG      H3 2303   4.697   0.080   3.782  0.3360 -4.1975  0.5819
  101DG      H4 2304   4.552  -0.011   3.779  2.0027 -0.9895  0.2564
  101DG      H5 2305   4.572   0.104   3.904 -0.5424  0.7365 -0.1413
  101DG      H6 2306   4.237   0.419   3.070  0.4937  1.5644  0.5102
  101DG      H7 2307   4.405   0.460   3.082  1.2036  0.1991  1.8813
  101DG      H8 2308   4.358   0.286   3.077 -1.1752 -0.6646  1.5789
  101DG      O9 2309   4.538   0.188   3.710 -0.5647  0.8189  0.3112
  101DG     O10 2310   4.323   0.390   3.254 -0.1125 -0.1145 -0.1970
  101DG     C11 2311   4.402   0.202   3.709  1.1431  0.2636  0.1590
  101DG     C12 2312   4.430   0.472   3.312  0.1058  0.2496 -0.2989
  101DG     H13 2313   4.360   0.203   3.809 -1.0635 -2.6698 -0.5989
  101DG     H14 2314   4.352   0.112   3.672 -0.4354  0.7247  1.0377
  101DG     H15 2315   4.427   0.573   3.270 -1.5011  0.3960  0.1244
  101DG     H16 2316   4.531   0.440   3.285  0.3784  0.4829  0.4128
  101DG     C17 2317   4.359   0.336   3.645  0.1263  0.0959 -0.2796
  101DG     C18 2318   4.417   0.484   3.463  0.4322 -0.1568 -0.0903
  101DG     O19 2319   4.422   0.351   3.517  0.5443 -0.9937 -0.1736
  101DG     H20 2320   4.371   0.422   3.711  0.1413  0.3008 -0.5484
  101DG     H21 2321   4.251   0.337   3.629  0.0908  1.8772 -0.1449
  101DG     H22 2322   4.493   0.542   3.515 -0.9962  1.8246 -0.1237
  101DG     H23 2323   4.326   0.539   3.484 -0.0538 -0.8086 -0.4417
  102DG      C1 2324   0.413   2.269   1.713 -0.5632  0.3730 -0.2403
  102DG      C2 2325   0.510   2.922   1.534  0.1088  0.5413  0.1613
  102DG      H3 2326   0.305   2.288   1.713 -0.5535  0.5168  1.0877
  102DG      H4 2327   0.443   2.312   1.808 -3.5068 -0.2439  1.0949
  102DG      H5 2328   0.449   2.166   1.719  2.4315  1.3251 -0.4777
  102DG      H6 2329   0.532   2.997   1.459  0.8454 -0.6750 -0.8906
  102DG      H7 2330   0.407   2.938   1.566  0.5821  1.8337  1.1068
  102DG      H8 2331   0.575   2.952   1.617 -0.1429  0.1380  0.5119
  102DG      O9 2332   0.473   2.346   1.613  0.3808 -0.2270  0.2860
  102DG     O10 2333   0.545   2.799   1.478 -0.6582  0.2398  0.5980
  102DG     C11 2334   0.459   2.306   1.472 -0.1299 -0.4010  0.3279
  102DG     C12 2335   0.464   2.773   1.367  0.1094  0.2413  0.6216
  102DG     H13 2336   0.357   2.285   1.441 -0.0092 -0.0184 -0.3496
  102DG     H14 2337   0.502   2.206   1.461 -1.9122 -1.0263 -1.5785
  102DG     H15 2338   0.468   2.851   1.290 -1.7086  0.8879  1.1246
  102DG     H16 2339   0.356   2.774   1.385 -0.4291  0.7213 -2.1727
  102DG     C17 2340   0.521   2.412   1.374  0.4584  0.0091 -0.5451
  102DG     C18 2341   0.501   2.633   1.319 -0.0823 -0.3166  0.1970
  102DG     O19 2342   0.483   2.539   1.421 -0.6093  0.3571  0.6276
  102DG     H20 2343   0.483   2.397   1.273 -0.9987 -2.2390  0.2614
  102DG     H21 2344   0.629   2.399   1.374  0.5584  0.8059 -0.7703
  102DG     H22 2345   0.446   2.603   1.230 -2.2631 -0.7131  1.6013
  102DG     H23 2346   0.607   2.641   1.294  0.0395  1.4202  1.1022
  103DG      C1 2347   2.809   2.398   5.005  0.5865  0.1723  0.3436
  103DG      C2 2348   3.364   2.420   5.469 -0.3953  0.1720 -0.1570
  103DG      H3 2349   2.861   2.493   5.001 -1.5582  1.3884 -0.0018
  103DG      H4 2350   2.727   2.391   5.076  0.9007 -0.9628  0.6205
  103DG      H5 2351   2.764   2.381   4.907 -1.3020 -2.9660  1.5682
  103DG      H6 2352   3.311   2.440   5.376  1.4783  0.1410 -1.2917
  103DG      H7 2353   3.361   2.501   5.542 -2.0791 -0.4075  0.4486
  103DG      H8 2354   3.466   2.397   5.438  0.5098  3.0134  0.4546
  103DG      O9 2355   2.892   2.293   5.048  0.3838  0.4576 -0.5271
  103DG     O10 2356   3.314   2.312   5.542  0.3765  0.6593 -0.7202
  103DG     C11 2357   2.967   2.317   5.167  0.8592 -0.8910  0.9095
  103DG     C12 2358   3.317   2.187   5.475 -0.0325 -0.0372 -0.2019
  103DG     H13 2359   2.891   2.333   5.242 -0.9676  0.1101 -1.0380
  103DG     H14 2360   3.024   2.409   5.155  1.5268 -1.4666 -0.7891
  103DG     H15 2361   3.337   2.117   5.557 -2.7569  0.9812  1.4534
  103DG     H16 2362   3.405   2.177   5.410  0.8361  1.1567  0.7628
  103DG     C17 2363   3.055   2.194   5.201  0.0055  0.1767 -0.2687
  103DG     C18 2364   3.191   2.143   5.397  0.4911  0.2923  0.2483
  103DG     O19 2365   3.168   2.230   5.286  0.2343 -0.2980 -0.4680
  103DG     H20 2366   3.086   2.134   5.115  1.1324  1.2993 -0.6958
  103DG     H21 2367   2.988   2.132   5.260 -0.2218  0.8528  0.2029
  103DG     H22 2368   3.202   2.041   5.361  0.9962 -0.1213  1.5152
  103DG     H23 2369   3.106   2.150   5.464  0.7946  2.3159  0.5094
  104DG      C1 2370   1.436   3.215   5.033 -0.0984  0.3030  0.2514
  104DG      C2 2371   1.391   3.743   4.596 -0.9381 -0.0392  0.3431
  104DG      H3 2372   1.327   3.212   5.025 -0.1036  1.1186 -0.1695
  104DG      H4 2373   1.467   3.174   5.129 -2.7663 -3.5207 -0.2687
  104DG      H5 2374   1.470   3.169   4.940 -1.4804  3.2815 -1.9167
  104DG      H6 2375   1.298   3.796   4.617 -1.5047 -0.6079 -0.6937
  104DG      H7 2376   1.411   3.764   4.491 -1.8432 -1.6101 -0.1758
  104DG      H8 2377   1.365   3.638   4.599 -0.6723 -0.0895  1.5845
  104DG      O9 2378   1.462   3.348   5.033  1.0247 -0.3161  0.0388
  104DG     O10 2379   1.484   3.772   4.700  0.3752 -0.2185  0.3132
  104DG     C11 2380   1.599   3.382   5.022  0.4806 -0.3537  0.2622
  104DG     C12 2381   1.416   3.771   4.831 -0.1589 -0.4847 -0.3170
  104DG     H13 2382   1.623   3.360   4.918  0.4990  0.2178  0.1406
  104DG     H14 2383   1.662   3.332   5.095  0.3759  1.5083  1.7107
  104DG     H15 2384   1.329   3.706   4.835 -0.8386  0.2210 -2.3659
  104DG     H16 2385   1.380   3.873   4.829  0.6541 -0.1740  0.1597
  104DG     C17 2386   1.605   3.532   5.040 -0.1926 -0.1203 -0.1202
  104DG     C18 2387   1.519   3.739   4.937 -0.0419  0.0873 -0.1909
  104DG     O19 2388   1.529   3.594   4.931 -0.1819 -0.6491 -0.0875
  104DG     H20 2389   1.706   3.571   5.048 -1.0541  2.6560 -1.3515
  104DG     H21 2390   1.564   3.559   5.137  2.4276  1.0478  0.7393
  104DG     H22 2391   1.617   3.785   4.925  0.2497 -1.0697 -2.9246
  104DG     H23 2392   1.484   3.760   5.038 -1.1315  0.7768 -0.7004
  105DG      C1 2393   4.098   1.142   0.533 -0.7250  0.1497 -0.2495
  105DG      C2 2394   4.482   0.737  -0.038  0.5590  0.2474  0.2949
  105DG      H3 2395   4.094   1.250   0.547  0.8832  0.0848  1.1178
  105DG      H4 2396   4.061   1.110   0.631 -0.2182 -1.6879 -0.6050
  105DG      H5 2397   4.021   1.110   0.463  1.6683 -2.6813 -1.8522
  105DG      H6 2398   4.509   0.830  -0.087 -1.1580  0.3162 -0.6114
  105DG      H7 2399   4.565   0.666  -0.043 -0.7028 -1.3214  0.6041
  105DG      H8 2400   4.393   0.697  -0.089 -1.2643  1.6182  2.2431
  105DG      O9 2401   4.231   1.094   0.497 -0.0479  0.0374 -0.3533
  105DG     O10 2402   4.448   0.765   0.098  0.4262  0.1200 -0.2061
  105DG     C11 2403   4.276   1.129   0.369 -0.3688  1.0105  0.8128
  105DG     C12 2404   4.549   0.841   0.158  0.1903 -0.1195 -0.0334
  105DG     H13 2405   4.272   1.238   0.357  0.6662  1.3011  2.7441
  105DG     H14 2406   4.207   1.081   0.300  1.1286  1.9734 -1.4860
  105DG     H15 2407   4.554   0.941   0.113  1.4799 -0.6243 -1.0865
  105DG     H16 2408   4.641   0.784   0.146  0.1561  0.2199 -2.3476
  105DG     C17 2409   4.425   1.080   0.363  0.7814  0.6053  0.2706
  105DG     C18 2410   4.526   0.866   0.307 -0.0629 -0.3872 -0.3945
  105DG     O19 2411   4.412   0.942   0.327  0.3647  0.4457 -0.4874
  105DG     H20 2412   4.493   1.084   0.448  2.4626 -1.6496 -0.8481
  105DG     H21 2413   4.462   1.120   0.269 -1.2343  1.6551 -0.1333
  105DG     H22 2414   4.506   0.769   0.353 -2.8372  0.2270 -0.0950
  105DG     H23 2415   4.609   0.912   0.360 -1.7942  0.6095  1.6180
  106DG      C1 2416   3.908   4.824   2.145 -0.0425  0.4332  0.0154
  106DG      C2 2417   3.365   4.417   2.360 -0.0968  0.2822 -1.0177
  106DG      H3 2418   3.969   4.736   2.124  1.6599  1.5567  0.1109
  106DG      H4 2419   3.972   4.912   2.137 -0.6362  0.9813  1.0178
  106DG      H5 2420   3.836   4.823   2.064 -0.3428  1.5529  0.2505
  106DG      H6 2421   3.380   4.314   2.328  0.9920  1.1919 -3.7184
  106DG      H7 2422   3.318   4.427   2.458  1.0529 -0.3477 -0.3899
  106DG      H8 2423   3.300   4.475   2.294 -1.0097 -1.1791 -1.4470
  106DG      O9 2424   3.831   4.798   2.257  0.4607 -0.7795  0.1657
  106DG     O10 2425   3.489   4.486   2.358 -0.4660 -0.0480 -0.1451
  106DG     C11 2426   3.913   4.761   2.363  0.1943  0.5864 -0.7004
  106DG     C12 2427   3.579   4.442   2.452 -0.7464 -0.5100  0.3870
  106DG     H13 2428   3.981   4.842   2.390 -0.9967  1.0516  1.1009
  106DG     H14 2429   3.962   4.668   2.338 -2.2357 -0.3201 -2.4781
  106DG     H15 2430   3.651   4.381   2.397  2.1181  2.9958 -0.1507
  106DG     H16 2431   3.546   4.373   2.529  2.0836 -2.8838 -0.3480
  106DG     C17 2432   3.811   4.732   2.474  0.0222  0.2905 -0.3121
  106DG     C18 2433   3.655   4.564   2.522  0.2136  0.5623  0.0634
  106DG     O19 2434   3.714   4.645   2.422 -0.2195 -0.3511  0.0165
  106DG     H20 2435   3.769   4.826   2.509 -0.9904 -0.2362 -0.0789
  106DG     H21 2436   3.875   4.682   2.547 -0.4206  0.1649 -0.0111
  106DG     H22 2437   3.585   4.630   2.574  0.4651  0.3083  0.7342
  106DG     H23 2438   3.727   4.517   2.588  0.1955  0.6539  0.1482
  107DG      C1 2439   0.316   2.059   0.552 -0.1217 -0.4920 -0.8651
  107DG      C2 2440   0.024   2.441   0.968 -0.0365 -0.3505  0.4670
  107DG      H3 2441   0.219   2.083   0.509 -0.1596  0.2785 -0.3622
  107DG      H4 2442   0.345   1.958   0.524  0.6662 -0.4783 -0.1680
  107DG      H5 2443   0.386   2.136   0.519 -0.3519  0.7295  1.3353
  107DG      H6 2444   0.011   2.519   1.043 -0.1883  2.2273 -2.0606
  107DG      H7 2445  -0.038   2.473   0.885  0.4036  1.3703  0.7630
  107DG      H8 2446  -0.018   2.343   0.992 -0.6065 -0.1691  0.2374
  107DG      O9 2447   0.309   2.079   0.692 -0.0294 -0.1938  0.0718
  107DG     O10 2448   0.158   2.439   0.935 -0.2748 -0.2687 -0.7973
  107DG     C11 2449   0.431   2.071   0.764 -0.2823  0.4994 -0.2994
  107DG     C12 2450   0.246   2.408   1.046 -0.5594 -0.3654  0.4601
  107DG     H13 2451   0.502   2.147   0.731 -2.2441  1.6778 -1.9654
  107DG     H14 2452   0.474   1.971   0.751  2.1516  1.2710  1.1634
  107DG     H15 2453   0.213   2.450   1.140 -0.1886  2.9572 -0.7727
  107DG     H16 2454   0.338   2.464   1.028 -0.3885 -0.4303  1.1117
  107DG     C17 2455   0.415   2.095   0.913 -0.5510  0.5556  0.0211
  107DG     C18 2456   0.299   2.260   1.055 -0.8461  0.6084  0.2292
  107DG     O19 2457   0.354   2.227   0.927  0.6771 -0.2441 -0.4209
  107DG     H20 2458   0.509   2.084   0.968  0.3754  0.2491 -1.5528
  107DG     H21 2459   0.355   2.020   0.962 -1.3605 -0.1586 -1.9555
  107DG     H22 2460   0.370   2.258   1.138  1.8350  0.5669 -1.9182
  107DG     H23 2461   0.219   2.190   1.076  0.5718 -1.0593  0.2953
  108DG      C1 2462   0.049   2.670   3.300 -0.0287 -0.3460 -0.4096
  108DG      C2 2463  -0.485   2.568   2.959  0.5460  0.3689  0.1576
  108DG      H3 2464   0.069   2.754   3.233  2.6295  0.2416  1.0078
  108DG      H4 2465   0.145   2.653   3.348 -0.1825  1.4292  0.5995
  108DG      H5 2466  -0.016   2.715   3.374  0.7285  2.0974 -1.1343
  108DG      H6 2467  -0.552   2.490   2.924 -2.0562  2.4621  0.1612
  108DG      H7 2468  -0.532   2.598   3.053 -2.3957 -3.4520  0.1546
  108DG      H8 2469  -0.487   2.650   2.888 -1.0275  0.9326  0.8093
  108DG      O9 2470   0.017   2.546   3.239 -0.0763  0.4464 -0.0734
  108DG     O10 2471  -0.355   2.516   2.978  0.3855  0.1036  0.6518
  108DG     C11 2472   0.092   2.526   3.120  0.7717 -0.3884 -0.3312
  108DG     C12 2473  -0.309   2.422   2.883 -0.1922 -0.1076 -0.0506
  108DG     H13 2474   0.199   2.515   3.140  0.9579 -0.5507 -1.3394
  108DG     H14 2475   0.096   2.615   3.057  0.2590 -0.1309 -0.0033
  108DG     H15 2476  -0.289   2.473   2.789 -1.0089 -0.0356 -0.1908
  108DG     H16 2477  -0.392   2.355   2.862  0.3165  0.3680 -4.5117
  108DG     C17 2478   0.030   2.411   3.046  0.6462 -0.0411 -0.1878
  108DG     C18 2479  -0.184   2.356   2.944 -0.6716  0.0037 -0.1048
  108DG     O19 2480  -0.099   2.457   2.998  0.0670 -0.0248  0.5554
  108DG     H20 2481   0.015   2.319   3.102  0.4904  0.2796  0.3063
  108DG     H21 2482   0.095   2.388   2.962  2.5573  2.2212  0.5509
  108DG     H22 2483  -0.211   2.285   3.022 -0.1973 -0.1561 -0.0861
  108DG     H23 2484  -0.137   2.290   2.872  0.5483  0.8507 -0.1083
  109DG      C1 2485   4.266   2.661   0.765  0.3376 -0.9330  1.0875
  109DG      C2 2486   3.499   2.989   0.628 -0.0745 -0.1421 -0.3689
  109DG      H3 2487   4.324   2.728   0.702 -2.0928  1.8674  1.5978
  109DG      H4 2488   4.336   2.584   0.794  0.1609 -1.0953  1.0862
  109DG      H5 2489   4.244   2.716   0.857  1.0536  1.9017 -0.3117
  109DG      H6 2490   3.405   2.947   0.593  0.1908 -0.0686 -1.1838
  109DG      H7 2491   3.478   3.013   0.732 -2.2834  1.4225 -1.1185
  109DG      H8 2492   3.525   3.083   0.580  0.5857  1.0128  2.0820
  109DG      O9 2493   4.146   2.624   0.706  0.0360  0.8976  0.2695
  109DG     O10 2494   3.597   2.893   0.597  0.3361  0.3644  0.0586
  109DG     C11 2495   4.050   2.730   0.668  0.0134  0.2985  0.2565
  109DG     C12 2496   3.641   2.886   0.461 -0.4314 -0.7877 -0.1560
  109DG     H13 2497   4.103   2.818   0.634  1.7241  0.2593  2.5291
  109DG     H14 2498   4.005   2.759   0.763 -0.2270 -1.0488  0.5760
  109DG     H15 2499   3.686   2.980   0.430 -2.0028  0.1349  0.2628
  109DG     H16 2500   3.561   2.852   0.395 -1.5415 -1.1310  1.3175
  109DG     C17 2501   3.939   2.680   0.577  0.4961  0.6490 -0.2494
  109DG     C18 2502   3.748   2.775   0.458  0.0198 -0.1018  0.1587
  109DG     O19 2503   3.850   2.792   0.556  0.3563  1.0126 -0.7217
  109DG     H20 2504   3.887   2.591   0.612  1.9491 -0.0821  0.1421
  109DG     H21 2505   3.985   2.648   0.483  0.9640  0.7358 -0.0540
  109DG     H22 2506   3.705   2.675   0.462  0.2535 -0.2085  0.0653
  109DG     H23 2507   3.814   2.785   0.372  0.1775  0.8393  0.3880
  110DG      C1 2508   0.452   0.928   3.061  0.3946 -0.9109 -0.6884
  110DG      C2 2509   0.079   0.464   3.543  0.1006  0.1115  0.2128
  110DG      H3 2510   0.346   0.935   3.036  0.2860 -0.8310 -0.2093
  110DG      H4 2511   0.506   0.942   2.967 -0.2853  2.0517 -0.7502
  110DG      H5 2512   0.481   1.003   3.134  0.3669 -1.6133  0.0494
  110DG      H6 2513   0.112   0.543   3.611  1.1850 -0.2158  0.0752
  110DG      H7 2514  -0.029   0.470   3.529  0.1284 -1.7020 -1.1129
  110DG      H8 2515   0.090   0.375   3.604 -2.0846  1.7569  3.3263
  110DG      O9 2516   0.474   0.808   3.128 -0.8106  0.6516 -0.0610
  110DG     O10 2517   0.124   0.471   3.409  0.3035  0.5326  0.1891
  110DG     C11 2518   0.439   0.692   3.050 -0.9278 -0.3734 -0.2404
  110DG     C12 2519   0.259   0.523   3.401 -0.5097  0.2246  0.0616
  110DG     H13 2520   0.491   0.699   2.954 -0.7223 -1.6786 -0.2431
  110DG     H14 2521   0.332   0.702   3.032 -1.2292  0.8696  1.9053
  110DG     H15 2522   0.314   0.463   3.473 -2.1505 -0.2551  0.9680
  110DG     H16 2523   0.265   0.630   3.420 -1.2512  0.6155 -1.6400
  110DG     C17 2524   0.476   0.565   3.127  0.0441  0.0657  0.0487
  110DG     C18 2525   0.292   0.501   3.256  0.0282  0.0218 -0.2414
  110DG     O19 2526   0.419   0.554   3.251  0.7311  0.1852 -0.4843
  110DG     H20 2527   0.583   0.580   3.140  0.3590 -1.4290 -0.6208
  110DG     H21 2528   0.442   0.476   3.074 -1.2879  0.9459 -0.6445
  110DG     H22 2529   0.274   0.398   3.228  0.1528 -0.3963  1.1509
  110DG     H23 2530   0.227   0.566   3.197  0.5851  0.5539 -0.2833
  111DG      C1 2531   1.428   5.138   0.547 -0.3663 -0.0647 -0.3424
  111DG      C2 2532   1.009   5.192   1.189  0.4211 -0.1833 -0.2880
  111DG      H3 2533   1.342   5.164   0.485  0.2287 -0.1126 -1.1852
  111DG      H4 2534   1.451   5.033   0.527  0.4509  0.2710 -1.1963
  111DG      H5 2535   1.510   5.201   0.514 -0.5898  0.2093 -0.3752
  111DG      H6 2536   0.913   5.142   1.204  1.7120 -3.8487 -2.8627
  111DG      H7 2537   1.062   5.210   1.282 -1.0096  1.1636  0.2979
  111DG      H8 2538   0.990   5.291   1.150 -2.7983 -0.0399  1.3089
  111DG      O9 2539   1.396   5.171   0.683 -0.1504  0.0531 -0.7232
  111DG     O10 2540   1.066   5.113   1.082 -0.4864  0.3436 -0.4732
  111DG     C11 2541   1.365   5.307   0.699 -0.3503 -0.3585  0.0691
  111DG     C12 2542   1.207   5.107   1.083  0.0948 -0.4667 -0.2470
  111DG     H13 2543   1.270   5.334   0.652 -0.3894  0.5477  0.6605
  111DG     H14 2544   1.435   5.373   0.648  1.8233 -1.8775  0.9512
  111DG     H15 2545   1.240   5.030   1.013  1.0496 -1.7910  1.5716
  111DG     H16 2546   1.236   5.076   1.183 -0.5118 -1.5582 -0.4009
  111DG     C17 2547   1.349   5.341   0.847  0.3415  0.1245  0.5002
  111DG     C18 2548   1.263   5.243   1.042 -0.3007 -0.0454  0.6668
  111DG     O19 2549   1.263   5.237   0.901 -0.3888 -0.3406  0.2270
  111DG     H20 2550   1.304   5.440   0.856  1.3137  0.6790 -0.6374
  111DG     H21 2551   1.446   5.354   0.895 -0.4512  2.1254  1.6997
  111DG     H22 2552   1.207   5.326   1.083 -1.3096 -0.7073  0.6545
  111DG     H23 2553   1.367   5.244   1.076  0.6204  1.6275 -1.8711
  112DG      C1 2554   2.083   5.493   1.694 -0.0787 -0.6653  0.0322
  112DG      C2 2555   1.990   5.060   1.381  0.0373  0.4943  0.2095
  112DG      H3 2556   2.003   5.558   1.661 -1.0913 -2.1962 -0.6275
  112DG      H4 2557   2.160   5.548   1.749  1.1586 -1.8429 -0.4748
  112DG      H5 2558   2.047   5.423   1.769  2.2569 -0.6288  1.3018
  112DG      H6 2559   1.949   4.987   1.450  1.5229  1.6905  2.4572
  112DG      H7 2560   1.985   5.148   1.444 -2.5294 -0.1224  0.9720
  112DG      H8 2561   1.931   5.066   1.289  1.6805 -1.7797 -1.1089
  112DG      O9 2562   2.147   5.420   1.599  0.4759 -0.7557 -0.0772
  112DG     O10 2563   2.131   5.017   1.356  0.4333 -0.4216 -0.0148
  112DG     C11 2564   2.237   5.491   1.521  0.4446  0.1013  0.7791
  112DG     C12 2565   2.187   5.090   1.246  0.2269  0.0139 -0.6047
  112DG     H13 2566   2.321   5.524   1.582  0.8859 -1.7112  1.1821
  112DG     H14 2567   2.193   5.581   1.477 -0.5856 -0.6932  0.1387
  112DG     H15 2568   2.107   5.130   1.184  2.0128  2.2545 -1.6402
  112DG     H16 2569   2.250   5.023   1.188 -0.1479 -0.1873 -0.7811
  112DG     C17 2570   2.292   5.419   1.399 -0.1500 -0.1285 -0.7028
  112DG     C18 2571   2.274   5.208   1.286 -0.2208 -0.2026 -0.7454
  112DG     O19 2572   2.215   5.299   1.372  0.1283 -0.0710 -0.2507
  112DG     H20 2573   2.391   5.388   1.431 -0.6222 -0.0976  0.8673
  112DG     H21 2574   2.299   5.481   1.310  1.3887  0.6430 -0.0758
  112DG     H22 2575   2.365   5.175   1.337  0.1636  3.2126  1.0154
  112DG     H23 2576   2.294   5.252   1.188 -3.1935  1.7724 -0.5865
  113DG      C1 2577   5.410   4.958   1.985  0.0383 -0.6291  0.2322
  113DG      C2 2578   5.483   5.395   1.543  0.0544  0.0093  0.7665
  113DG      H3 2579   5.371   5.057   2.011  0.3195 -0.6456  0.7245
  113DG      H4 2580   5.339   4.880   2.012  0.2494 -1.1335 -0.6478
  113DG      H5 2581   5.437   4.950   1.880  2.3937  0.7262  0.6786
  113DG      H6 2582   5.556   5.414   1.464  1.4044 -0.8984  1.7411
  113DG      H7 2583   5.411   5.328   1.496 -2.9793  1.0821  3.5024
  113DG      H8 2584   5.435   5.489   1.569 -0.9986 -0.3999  0.3514
  113DG      O9 2585   5.527   4.915   2.048 -0.4763 -0.7390 -0.5562
  113DG     O10 2586   5.536   5.333   1.662  0.0546  0.0619  0.1435
  113DG     C11 2587   5.615   5.024   2.080 -0.4772 -0.4126 -0.1619
  113DG     C12 2588   5.574   5.206   1.635 -1.0711  0.0716  0.4307
  113DG     H13 2589   5.685   4.988   2.155 -0.4848  0.6338  0.3792
  113DG     H14 2590   5.562   5.104   2.133  0.8089 -0.2259  0.8769
  113DG     H15 2591   5.631   5.202   1.541 -1.3348  2.2969  0.1380
  113DG     H16 2592   5.490   5.138   1.622 -0.5744 -0.4306 -0.2898
  113DG     C17 2593   5.692   5.079   1.963 -0.5620 -0.2222  0.4377
  113DG     C18 2594   5.679   5.160   1.741  0.2893 -0.0229  0.2624
  113DG     O19 2595   5.621   5.153   1.865 -0.1263 -0.4016 -0.3113
  113DG     H20 2596   5.735   4.994   1.910 -0.0876  1.2832 -1.7301
  113DG     H21 2597   5.778   5.134   2.000  0.4643 -0.6660 -1.1657
  113DG     H22 2598   5.728   5.065   1.717  2.9881  1.0738  1.0655
  113DG     H23 2599   5.771   5.216   1.753  0.9236 -0.8645 -0.5105
  114DG      C1 2600   2.889   5.002   4.584  0.2280  0.0832 -0.2398
  114DG      C2 2601   2.298   4.939   4.615 -0.0783  0.7033 -0.3184
  114DG      H3 2602   2.899   5.007   4.476  0.6062 -4.2905 -0.5795
  114DG      H4 2603   2.988   4.979   4.623  0.4368  0.7591 -0.3578
  114DG      H5 2604   2.866   5.103   4.618  1.0141  1.1565 -2.7084
  114DG      H6 2605   2.367   4.920   4.532  0.8317  3.4144 -0.3001
  114DG      H7 2606   2.220   4.977   4.548  0.6696 -1.8705 -2.8660
  114DG      H8 2607   2.337   5.009   4.689 -1.1994 -0.3237  1.2941
  114DG      O9 2608   2.782   4.912   4.621 -0.5338 -0.2508  1.0770
  114DG     O10 2609   2.249   4.819   4.672 -0.7691 -0.5620  0.1240
  114DG     C11 2610   2.823   4.779   4.642 -0.1521  0.4126 -0.4550
  114DG     C12 2611   2.344   4.762   4.758 -0.1595 -0.1198  0.6352
  114DG     H13 2612   2.872   4.769   4.738  3.2325  0.1018 -2.0644
  114DG     H14 2613   2.898   4.745   4.570  2.0004  3.7527  0.0008
  114DG     H15 2614   2.292   4.700   4.831  0.8221 -0.3720  1.1454
  114DG     H16 2615   2.397   4.840   4.813  0.1484  3.1971 -3.8037
  114DG     C17 2616   2.698   4.684   4.635 -0.1417 -0.1779 -0.1745
  114DG     C18 2617   2.453   4.678   4.689 -0.2500  0.4501 -0.0411
  114DG     O19 2618   2.585   4.744   4.692  0.3517 -0.3014 -0.1089
  114DG     H20 2619   2.724   4.584   4.671  0.6398 -0.4355 -1.4239
  114DG     H21 2620   2.676   4.669   4.530 -0.9828 -0.8816  0.0852
  114DG     H22 2621   2.453   4.580   4.737  0.7149  0.2168 -0.4894
  114DG     H23 2622   2.432   4.656   4.584  3.7041  0.6611 -1.0605
  115DG      C1 2623   4.035   5.096   4.224 -0.3392 -0.6104  0.0536
  115DG      C2 2624   4.412   4.438   4.182  0.5008 -0.6141  0.4145
  115DG      H3 2625   4.038   5.176   4.150  1.3355  0.5579  1.3244
  115DG      H4 2626   4.032   5.154   4.316 -0.0900 -0.8941  0.2418
  115DG      H5 2627   3.939   5.044   4.213 -1.0738  0.9263 -1.0024
  115DG      H6 2628   4.494   4.370   4.203  1.3271  0.3304  0.3290
  115DG      H7 2629   4.329   4.385   4.136  1.4332 -1.1402 -0.7021
  115DG      H8 2630   4.447   4.508   4.106  0.0674 -0.6327  0.1978
  115DG      O9 2631   4.150   5.011   4.206  0.4444 -0.1976  0.0194
  115DG     O10 2632   4.373   4.519   4.297  0.7693  0.3528  0.2262
  115DG     C11 2633   4.148   4.898   4.292  1.2814  0.8543  0.0564
  115DG     C12 2634   4.466   4.610   4.346  0.3862 -0.5300  1.0456
  115DG     H13 2635   4.099   4.817   4.238  2.5770 -0.2180  0.4175
  115DG     H14 2636   4.097   4.914   4.387 -0.8961  2.8566 -1.3299
  115DG     H15 2637   4.560   4.554   4.352  0.1995 -1.4960 -2.7435
  115DG     H16 2638   4.445   4.648   4.446 -0.6315  0.3515  0.5211
  115DG     C17 2639   4.285   4.852   4.333  0.5140  0.6808  0.0675
  115DG     C18 2640   4.479   4.727   4.255 -0.0145  0.1251 -0.0232
  115DG     O19 2641   4.355   4.790   4.223  0.0641  0.3738  0.2216
  115DG     H20 2642   4.277   4.775   4.410  1.7774  0.1120 -0.3390
  115DG     H21 2643   4.351   4.931   4.369  1.1905 -0.1470  0.6981
  115DG     H22 2644   4.549   4.793   4.305  1.8807 -1.7498 -0.0718
  115DG     H23 2645   4.528   4.694   4.163  0.2497 -1.1513  0.5639
  116DG      C1 2646   1.204   0.630   0.118  0.6294  0.5979 -0.6473
  116DG      C2 2647   1.871   0.701  -0.400 -0.2746  0.1182  0.4513
  116DG      H3 2648   1.143   0.714   0.086 -0.5158 -0.4805 -1.4127
  116DG      H4 2649   1.241   0.640   0.220  1.2842  1.5363 -0.9613
  116DG      H5 2650   1.131   0.552   0.141 -0.3860  2.0058  1.2722
  116DG      H6 2651   1.953   0.741  -0.341 -0.1100  1.9407 -0.9541
  116DG      H7 2652   1.914   0.611  -0.444 -0.9761  0.9778 -2.1230
  116DG      H8 2653   1.844   0.768  -0.481  1.7684 -1.7445 -1.9245
  116DG      O9 2654   1.311   0.602   0.030 -0.6558  0.1049  0.0016
  116DG     O10 2655   1.757   0.665  -0.322  0.0532 -0.0351 -0.0568
  116DG     C11 2656   1.399   0.719   0.027  0.7544  0.6995  0.6444
  116DG     C12 2657   1.788   0.579  -0.219 -0.3842 -0.6303  0.1428
  116DG     H13 2658   1.381   0.782   0.113 -3.8950  1.6374 -0.7595
  116DG     H14 2659   1.377   0.780  -0.061  1.5224 -1.9563 -1.5671
  116DG     H15 2660   1.895   0.569  -0.205 -0.4815 -0.3625  1.1555
  116DG     H16 2661   1.746   0.480  -0.237  1.3618 -1.3511 -0.1085
  116DG     C17 2662   1.547   0.685   0.033  0.1591  0.4540  0.0032
  116DG     C18 2663   1.739   0.637  -0.083  0.4938 -0.5559  0.3912
  116DG     O19 2664   1.602   0.646  -0.093 -0.7111 -0.1215 -0.2716
  116DG     H20 2665   1.559   0.598   0.098  2.2710 -0.3876 -1.3706
  116DG     H21 2666   1.606   0.762   0.082  0.4579  0.2376 -0.0114
  116DG     H22 2667   1.756   0.569   0.001 -2.7174 -0.4448  1.2741
  116DG     H23 2668   1.779   0.736  -0.057  0.2875 -0.1582 -0.7721
  117DG      C1 2669   3.118   5.223   3.168  0.1611 -0.2717  0.1884
  117DG      C2 2670   3.660   5.029   3.271  0.2321  0.0960 -0.1034
  117DG      H3 2671   3.017   5.183   3.178  0.0563 -0.0830 -0.1171
  117DG      H4 2672   3.119   5.328   3.199  0.4407 -0.6912  1.6635
  117DG      H5 2673   3.182   5.165   3.235  1.1569 -0.2487 -0.7235
  117DG      H6 2674   3.677   4.924   3.247  2.0402  0.7571 -2.0077
  117DG      H7 2675   3.760   5.059   3.301  0.8010 -1.9964  0.2902
  117DG      H8 2676   3.606   5.027   3.366  1.9011 -0.2454  0.8781
  117DG      O9 2677   3.166   5.197   3.041 -0.1292  0.0533 -0.4066
  117DG     O10 2678   3.580   5.100   3.180  0.5245 -0.3472  0.3008
  117DG     C11 2679   3.262   5.293   3.000  0.1503 -0.6141 -0.2978
  117DG     C12 2680   3.656   5.143   3.070 -0.8305 -0.1047  0.1427
  117DG     H13 2681   3.316   5.336   3.084 -1.5147  1.0506 -0.0146
  117DG     H14 2682   3.202   5.381   2.977 -1.5403 -0.8341  2.7958
  117DG     H15 2683   3.693   5.056   3.017 -1.6070  0.4314 -1.3472
  117DG     H16 2684   3.744   5.194   3.106 -1.1794 -0.7825  2.0641
  117DG     C17 2685   3.357   5.258   2.880  0.8001  0.2973  0.0407
  117DG     C18 2686   3.569   5.231   2.975 -0.9363  0.3487  0.3531
  117DG     O19 2687   3.445   5.166   2.933  0.3239  0.5665 -0.2839
  117DG     H20 2688   3.403   5.351   2.847 -0.6167  0.7573 -0.7455
  117DG     H21 2689   3.298   5.219   2.797  0.6104  1.7010 -0.5035
  117DG     H22 2690   3.547   5.328   3.020  1.5895  1.6597 -1.0359
  117DG     H23 2691   3.623   5.256   2.884 -1.5382 -3.8799 -1.4325
  118DG      C1 2692   3.951   5.112   0.890 -0.0166 -0.0263 -0.7000
  118DG      C2 2693   3.786   4.399   1.227 -0.7777 -0.8432 -1.2097
  118DG      H3 2694   3.842   5.114   0.888 -0.1767  3.7882  1.9639
  118DG      H4 2695   3.988   5.172   0.807  3.1151 -0.0611  0.5456
  118DG      H5 2696   3.995   5.144   0.985  0.8608 -0.3970 -0.9734
  118DG      H6 2697   3.691   4.348   1.245 -0.8506 -0.2677  0.1411
  118DG      H7 2698   3.863   4.344   1.175  0.2722  0.4573 -1.0831
  118DG      H8 2699   3.825   4.408   1.328  0.2422 -0.2921 -1.6323
  118DG      O9 2700   3.984   4.972   0.869 -0.0378  0.0216 -0.4830
  118DG     O10 2701   3.771   4.517   1.148 -0.1237  0.1048 -0.1012
  118DG     C11 2702   3.947   4.882   0.977  0.5679  0.2772 -0.0015
  118DG     C12 2703   3.650   4.593   1.163 -0.0929 -0.5234  0.3203
  118DG     H13 2704   3.992   4.935   1.061  0.9874  0.2950 -0.2300
  118DG     H14 2705   3.999   4.787   0.963  3.0373  1.4747  0.4326
  118DG     H15 2706   3.648   4.632   1.264 -0.7521  1.8093 -0.5188
  118DG     H16 2707   3.564   4.528   1.148 -0.5022  0.1404 -0.3218
  118DG     C17 2708   3.801   4.852   0.966  0.7205  0.2137 -0.5566
  118DG     C18 2709   3.648   4.702   1.059 -0.3601  0.7147 -0.4299
  118DG     O19 2710   3.783   4.749   1.057 -0.4423 -0.5002  0.8316
  118DG     H20 2711   3.765   4.820   0.868  0.6975 -1.7110  0.0386
  118DG     H21 2712   3.746   4.940   1.002  1.2603  0.5939 -0.6456
  118DG     H22 2713   3.620   4.663   0.961 -0.6371 -1.5699  0.5053
  118DG     H23 2714   3.570   4.772   1.088  2.3723  3.0970  1.7987
  119DG      C1 2715   5.271   3.904   3.067  0.5646 -0.9439 -0.2495
  119DG      C2 2716   5.643   4.244   3.691 -0.0332  0.1350  0.2405
  119DG      H3 2717   5.353   3.955   3.016 -0.4373  0.7516 -0.2359
  119DG      H4 2718   5.189   3.887   2.998  1.1662  1.3241 -1.6314
  119DG      H5 2719   5.315   3.806   3.089 -0.6996 -1.7461 -1.1988
  119DG      H6 2720   5.735   4.271   3.638  0.2437  2.1762  1.6241
  119DG      H7 2721   5.621   4.313   3.773 -0.9798 -0.8164  0.8086
  119DG      H8 2722   5.666   4.154   3.748 -1.5586  0.2383  1.0823
  119DG      O9 2723   5.248   3.981   3.193  0.5384 -0.0075  0.6999
  119DG     O10 2724   5.529   4.227   3.607  0.1017  0.4350  0.5572
  119DG     C11 2725   5.225   4.122   3.172 -0.1859  0.0301 -0.6546
  119DG     C12 2726   5.502   4.337   3.529 -0.1612  0.5353  0.4035
  119DG     H13 2727   5.132   4.136   3.118 -0.3402  1.7173 -0.0024
  119DG     H14 2728   5.300   4.166   3.107 -1.7176  0.2376 -2.3243
  119DG     H15 2729   5.567   4.364   3.446 -0.1562  0.3108  0.3359
  119DG     H16 2730   5.501   4.422   3.598 -3.3736  1.9543 -1.1479
  119DG     C17 2731   5.230   4.197   3.312 -0.7158 -0.9203  0.7395
  119DG     C18 2732   5.369   4.333   3.449 -0.9185 -0.3495 -0.3539
  119DG     O19 2733   5.367   4.225   3.356  0.4080  0.1988  0.0540
  119DG     H20 2734   5.161   4.160   3.387 -2.8364  0.3107 -0.4937
  119DG     H21 2735   5.186   4.292   3.280 -3.4394 -2.0617  0.8522
  119DG     H22 2736   5.281   4.333   3.513  0.6835  1.3384  2.0126
  119DG     H23 2737   5.359   4.420   3.384  0.2588  0.7345  0.8506
  120DG      C1 2738   0.843   4.024   4.417 -0.5241  0.1109  0.6532
  120DG      C2 2739   1.209   4.121   4.929 -0.0940  0.2859 -0.5158
  120DG      H3 2740   0.838   3.915   4.425  3.2893 -0.1443  1.3212
  120DG      H4 2741   0.805   4.056   4.320 -0.9549 -1.3202  0.3237
  120DG      H5 2742   0.773   4.070   4.487 -1.7987  1.8446 -1.5954
  120DG      H6 2743   1.266   4.038   4.972 -0.0292  0.8841  0.5666
  120DG      H7 2744   1.254   4.210   4.972  1.6175 -0.7888  0.0325
  120DG      H8 2745   1.104   4.114   4.956  0.1409  2.7194  1.2702
  120DG      O9 2746   0.969   4.079   4.455  0.1507  0.1287 -0.3688
  120DG     O10 2747   1.218   4.122   4.799 -0.1200  0.8869  0.5167
  120DG     C11 2748   1.078   4.017   4.379 -0.0228 -0.5094  0.0416
  120DG     C12 2749   1.348   4.145   4.747 -0.0668 -0.2185  0.4805
  120DG     H13 2750   1.057   3.997   4.274  0.0068  1.9472 -0.4866
  120DG     H14 2751   1.094   3.914   4.411 -1.7208 -1.1892 -1.1331
  120DG     H15 2752   1.427   4.081   4.786  0.3181 -0.8398 -1.2493
  120DG     H16 2753   1.369   4.248   4.779 -1.0261  0.1863 -0.1640
  120DG     C17 2754   1.209   4.095   4.409 -0.2609 -0.8485  0.1623
  120DG     C18 2755   1.341   4.152   4.593 -0.1658 -0.2273 -0.2629
  120DG     O19 2756   1.231   4.075   4.543 -0.3585 -0.1789 -0.5007
  120DG     H20 2757   1.187   4.197   4.377 -0.2278  0.2139  3.2035
  120DG     H21 2758   1.289   4.058   4.345  0.2429 -1.0326  0.8886
  120DG     H22 2759   1.340   4.260   4.580  2.0722  0.2642  2.6192
  120DG     H23 2760   1.433   4.119   4.545 -0.9754  0.3662 -2.3337
  121DG      C1 2761   5.473   2.103   3.272 -0.0713  0.6770  0.0060
  121DG      C2 2762   5.676   1.657   3.771  0.4341  0.1094  0.0909
  121DG      H3 2763   5.365   2.100   3.275 -0.1174 -0.4130 -1.5284
  121DG      H4 2764   5.504   2.138   3.173  0.1263  0.4535 -0.0138
  121DG      H5 2765   5.504   2.168   3.354  0.3320 -0.5718  0.8894
  121DG      H6 2766   5.693   1.692   3.873 -0.8929 -0.0386  0.3892
  121DG      H7 2767   5.571   1.628   3.770  0.1702  1.0141 -1.5232
  121DG      H8 2768   5.736   1.567   3.760 -0.0439 -0.2258  0.1898
  121DG      O9 2769   5.528   1.968   3.293 -0.1988  0.4218  0.2376
  121DG     O10 2770   5.701   1.777   3.680 -0.3432  0.5512  0.1483
  121DG     C11 2771   5.661   1.943   3.246 -0.5339 -0.4763 -0.4116
  121DG     C12 2772   5.831   1.829   3.688  0.7771  0.1257 -0.1851
  121DG     H13 2773   5.679   2.006   3.159 -0.2258 -1.2659 -0.9269
  121DG     H14 2774   5.686   1.843   3.212  1.1230  0.4501 -2.1237
  121DG     H15 2775   5.899   1.748   3.663  0.8296  0.4142 -1.0098
  121DG     H16 2776   5.850   1.856   3.792 -0.3959 -0.1034  0.0960
  121DG     C17 2777   5.766   1.980   3.353 -0.2999  0.1640 -0.5680
  121DG     C18 2778   5.830   1.940   3.587  0.4511 -0.2413  0.4069
  121DG     O19 2779   5.758   1.897   3.462 -0.0281  0.5981 -0.3460
  121DG     H20 2780   5.753   2.082   3.388  4.1255  1.1758 -1.2917
  121DG     H21 2781   5.866   1.970   3.312 -0.6503 -0.6302 -1.2517
  121DG     H22 2782   5.785   2.033   3.623  3.1400  0.9853  0.8637
  121DG     H23 2783   5.935   1.964   3.571  0.1823  0.1192 -1.0361
  122DG      C1 2784   3.463   4.392   2.014 -0.0390 -0.5836  0.7979
  122DG      C2 2785   3.380   4.825   2.459 -0.3876 -0.8587  0.5374
  122DG      H3 2786   3.502   4.333   2.097 -0.0947 -0.2393  1.0723
  122DG      H4 2787   3.543   4.386   1.939  0.1409 -2.7558  1.0888
  122DG      H5 2788   3.377   4.343   1.968  0.0636  0.4771 -0.5926
  122DG      H6 2789   3.392   4.917   2.517 -0.6714 -1.1324  1.0417
  122DG      H7 2790   3.273   4.823   2.442 -0.4946  0.8092  0.8444
  122DG      H8 2791   3.396   4.742   2.529 -0.3581  1.5771  3.6566
  122DG      O9 2792   3.444   4.524   2.058 -0.2833 -0.0250 -0.0071
  122DG     O10 2793   3.468   4.826   2.350 -0.0922  0.4281 -0.1221
  122DG     C11 2794   3.396   4.613   1.957  0.2324 -0.7518  0.4927
  122DG     C12 2795   3.448   4.936   2.259  0.7829 -0.4347  0.2413
  122DG     H13 2796   3.296   4.598   1.917  1.0019 -0.1388 -1.8334
  122DG     H14 2797   3.456   4.608   1.866  1.0672 -1.1518  1.0500
  122DG     H15 2798   3.468   5.030   2.311  1.3785 -0.2229 -0.3594
  122DG     H16 2799   3.346   4.937   2.221  1.0706 -1.6040 -0.6219
  122DG     C17 2800   3.386   4.757   2.023  0.3843  0.0344 -0.1112
  122DG     C18 2801   3.535   4.911   2.131  0.4980 -0.7179 -0.3140
  122DG     O19 2802   3.512   4.787   2.068 -0.8599 -0.6485 -0.5687
  122DG     H20 2803   3.306   4.769   2.096 -0.3935 -1.2447 -0.7105
  122DG     H21 2804   3.365   4.822   1.938  0.1889  1.8543  1.2642
  122DG     H22 2805   3.540   4.987   2.053 -0.3085 -2.0473 -1.7098
  122DG     H23 2806   3.639   4.903   2.161  0.9640  0.9862 -1.3131
  123DG      C1 2807   0.167   3.828   3.185  0.4623 -0.3850 -0.0695
  123DG      C2 2808   0.698   4.202   3.609 -0.1563 -0.1143  0.3895
  123DG      H3 2809   0.097   3.890   3.127  1.3860 -0.0027 -0.7984
  123DG      H4 2810   0.097   3.777   3.252  1.6975  0.8545  2.2802
  123DG      H5 2811   0.213   3.751   3.124  0.2300 -0.2110 -0.4733
  123DG      H6 2812   0.788   4.159   3.564  0.5836 -0.2852  1.9691
  123DG      H7 2813   0.723   4.297   3.656  0.6672  0.0735 -0.4071
  123DG      H8 2814   0.697   4.134   3.694  1.0866 -0.2721  0.2982
  123DG      O9 2815   0.258   3.916   3.252 -0.1926 -0.2744 -0.6379
  123DG     O10 2816   0.574   4.198   3.546 -0.1856 -0.2608  0.4346
  123DG     C11 2817   0.202   4.035   3.307  0.7772 -0.1912 -0.7177
  123DG     C12 2818   0.600   4.255   3.416  0.2166 -0.5014 -0.1258
  123DG     H13 2819   0.110   4.018   3.363  0.3202 -1.8925 -1.9218
  123DG     H14 2820   0.164   4.107   3.235 -1.9785  0.3936  1.1426
  123DG     H15 2821   0.659   4.189   3.353 -0.8069 -1.1077 -0.4505
  123DG     H16 2822   0.663   4.345   3.416 -1.1906  0.5318 -1.1436
  123DG     C17 2823   0.303   4.115   3.392  0.6261  0.0307 -0.9476
  123DG     C18 2824   0.463   4.290   3.349 -0.2666 -0.4570 -0.5684
  123DG     O19 2825   0.412   4.159   3.313 -0.6935 -0.1868  0.3283
  123DG     H20 2826   0.348   4.053   3.469  0.9218  2.7452  1.1904
  123DG     H21 2827   0.239   4.195   3.431 -0.6571 -0.3629 -2.1335
  123DG     H22 2828   0.400   4.346   3.418 -0.5940 -0.6013 -0.7485
  123DG     H23 2829   0.482   4.344   3.257 -1.6282  1.3251  0.1252
  124DG      C1 2830   0.224   0.919   3.312  0.7618  0.3776  0.0581
  124DG      C2 2831   0.149   1.275   2.709 -0.0892 -0.2634  0.8898
  124DG      H3 2832   0.166   0.936   3.402  1.2406 -1.1396  0.6939
  124DG      H4 2833   0.284   1.002   3.274  2.2580 -1.1022 -0.9620
  124DG      H5 2834   0.277   0.825   3.329  0.4218  0.5718  2.4616
  124DG      H6 2835   0.103   1.358   2.763  0.8239 -0.6254  2.2847
  124DG      H7 2836   0.222   1.317   2.639  0.3733 -2.1451  0.1676
  124DG      H8 2837   0.073   1.225   2.648 -0.0243  0.8095 -0.1132
  124DG      O9 2838   0.128   0.894   3.205 -0.1031  0.0025 -0.4170
  124DG     O10 2839   0.222   1.187   2.797  0.0512 -0.0734  0.6473
  124DG     C11 2840   0.025   0.988   3.180  0.2833 -0.0849  0.1208
  124DG     C12 2841   0.287   1.266   2.899 -0.2166  0.9712  0.6572
  124DG     H13 2842  -0.039   0.987   3.268 -1.6829  2.6469 -1.1065
  124DG     H14 2843  -0.037   0.947   3.100  1.9419 -2.6113  0.0312
  124DG     H15 2844   0.311   1.369   2.871 -1.2079  1.0738  0.1344
  124DG     H16 2845   0.376   1.211   2.928  0.5720  1.2259 -1.1365
  124DG     C17 2846   0.070   1.127   3.157  0.1723  0.0804 -0.1499
  124DG     C18 2847   0.199   1.266   3.022  0.0899 -0.7169  0.0367
  124DG     O19 2848   0.160   1.134   3.047 -0.3184  0.0339 -0.8994
  124DG     H20 2849   0.114   1.163   3.249 -1.1955 -0.7072  0.8582
  124DG     H21 2850  -0.021   1.187   3.148  0.0631 -0.3072 -2.2230
  124DG     H22 2851   0.249   1.302   3.112 -1.1446 -1.1189  0.9060
  124DG     H23 2852   0.104   1.317   3.008  0.1105 -1.2604 -2.6342
  125DG      C1 2853   4.687   1.757   3.178 -0.1385  0.2354 -0.1444
  125DG      C2 2854   4.255   2.036   2.791  0.0934 -0.5400 -0.2985
  125DG      H3 2855   4.731   1.849   3.139 -0.1104  1.7153  3.0112
  125DG      H4 2856   4.767   1.695   3.220 -0.3360  0.2735  0.2942
  125DG      H5 2857   4.631   1.793   3.264  0.0362  0.7669 -0.2518
  125DG      H6 2858   4.301   2.134   2.804  0.9754 -0.8310 -1.0558
  125DG      H7 2859   4.304   1.982   2.710  0.1517 -2.1118  0.7426
  125DG      H8 2860   4.150   2.052   2.769  0.1805 -0.2765 -0.5318
  125DG      O9 2861   4.607   1.691   3.075 -0.6526  0.2176 -0.3337
  125DG     O10 2862   4.256   1.966   2.914 -0.6096 -0.0674 -0.0201
  125DG     C11 2863   4.520   1.584   3.118  0.3344  0.8202 -0.3356
  125DG     C12 2864   4.168   1.857   2.925 -0.3092  0.9309 -0.5930
  125DG     H13 2865   4.560   1.536   3.208 -3.1038 -3.9709 -1.0045
  125DG     H14 2866   4.512   1.503   3.046 -4.7895  0.2261  0.5281
  125DG     H15 2867   4.169   1.795   2.836 -0.0045  1.8506 -1.2426
  125DG     H16 2868   4.065   1.890   2.937 -0.7396 -0.7506  0.7205
  125DG     C17 2869   4.380   1.637   3.146 -0.3334 -0.2090 -0.2314
  125DG     C18 2870   4.194   1.767   3.044 -0.7596 -0.1087 -0.4542
  125DG     O19 2871   4.335   1.715   3.034  0.2209 -0.0581  0.0328
  125DG     H20 2872   4.396   1.703   3.231  0.6703 -0.0691 -0.5175
  125DG     H21 2873   4.305   1.565   3.180 -1.2142 -0.0327 -1.6932
  125DG     H22 2874   4.184   1.832   3.131 -3.5954  0.6330 -1.2341
  125DG     H23 2875   4.131   1.679   3.055 -0.7114 -0.1321 -0.3577
  126DG      C1 2876   3.587   1.622   1.582 -0.4487 -0.0299  0.1396
  126DG      C2 2877   3.518   0.982   1.803 -0.7354 -0.0728 -0.6512
  126DG      H3 2878   3.675   1.599   1.521  2.7094  3.4471  2.9686
  126DG      H4 2879   3.584   1.730   1.571  1.2477  0.0579  0.3321
  126DG      H5 2880   3.493   1.586   1.539 -0.2404 -1.3483  0.7348
  126DG      H6 2881   3.607   0.961   1.742  2.6211  2.1419  3.0190
  126DG      H7 2882   3.566   0.960   1.898 -2.3195 -1.2327 -0.0787
  126DG      H8 2883   3.443   0.904   1.790  0.3371 -1.2408 -0.0330
  126DG      O9 2884   3.617   1.564   1.712 -0.2161  0.1126  0.1868
  126DG     O10 2885   3.481   1.121   1.784  0.4328 -0.0193  0.1352
  126DG     C11 2886   3.525   1.609   1.810 -0.0808 -0.1476 -0.2783
  126DG     C12 2887   3.374   1.170   1.866  0.2879 -0.3549  0.4681
  126DG     H13 2888   3.501   1.710   1.775 -0.0631 -0.2147 -0.4893
  126DG     H14 2889   3.567   1.617   1.910  0.3550 -0.1702 -0.4567
  126DG     H15 2890   3.421   1.172   1.964  0.0775 -0.3684  0.5693
  126DG     H16 2891   3.293   1.098   1.862  1.9618 -2.3398  0.3353
  126DG     C17 2892   3.404   1.524   1.809  0.1422  0.0836  0.3452
  126DG     C18 2893   3.322   1.304   1.821 -0.0184  0.7894 -0.2271
  126DG     O19 2894   3.432   1.388   1.809 -0.0047 -0.3380  0.1598
  126DG     H20 2895   3.360   1.546   1.712  1.1562 -0.0562 -0.1642
  126DG     H21 2896   3.338   1.548   1.892 -0.4297 -1.8621  0.5034
  126DG     H22 2897   3.276   1.301   1.722 -1.8817  0.1861  0.6140
  126DG     H23 2898   3.243   1.345   1.885 -1.3185  0.2227 -1.4195
  127DG      C1 2899   2.230   5.169   2.163  0.1426  0.4437 -0.6641
  127DG      C2 2900   1.643   5.461   2.352 -0.2893 -0.2916  0.1668
  127DG      H3 2901   2.243   5.080   2.224 -0.5342  0.5579 -0.3445
  127DG      H4 2902   2.305   5.232   2.210  0.0630  1.4315 -1.8172
  127DG      H5 2903   2.272   5.128   2.071  0.6998  1.2494 -0.7774
  127DG      H6 2904   1.568   5.537   2.329  0.1504  1.2965  3.4214
  127DG      H7 2905   1.672   5.405   2.264  1.8918  1.1318 -0.0763
  127DG      H8 2906   1.595   5.392   2.422  2.2966 -2.0374  0.3548
  127DG      O9 2907   2.102   5.224   2.146  0.4267 -0.3463 -0.0732
  127DG     O10 2908   1.752   5.523   2.406  0.2467 -0.5719 -0.1884
  127DG     C11 2909   2.104   5.354   2.076 -0.0460  0.0119  0.3807
  127DG     C12 2910   1.852   5.431   2.439 -0.3461  0.3149 -0.3168
  127DG     H13 2911   2.135   5.345   1.972  1.3292  2.0806  0.5714
  127DG     H14 2912   2.178   5.425   2.111  0.2365  1.0604 -2.1427
  127DG     H15 2913   1.821   5.354   2.510  0.1669  0.6598  0.2956
  127DG     H16 2914   1.935   5.487   2.484 -0.0639  0.1649 -0.6416
  127DG     C17 2915   1.969   5.428   2.095 -1.0504  0.0931  0.4442
  127DG     C18 2916   1.923   5.365   2.321 -0.5277  0.1181  0.3992
  127DG     O19 2917   1.948   5.469   2.228 -0.3075  0.8398  0.2484
  127DG     H20 2918   1.886   5.363   2.066 -1.9950  2.1300 -1.7394
  127DG     H21 2919   1.983   5.517   2.034  0.0284  0.8303  1.7258
  127DG     H22 2920   2.018   5.320   2.353  0.3861  0.8551 -1.1748
  127DG     H23 2921   1.865   5.279   2.288  0.0989 -0.5747  1.0565
  128DG      C1 2922   4.694   2.477   3.804  0.2050 -0.4624  0.3098
  128DG      C2 2923   4.247   2.599   4.270  0.1434  0.2468 -0.1914
  128DG      H3 2924   4.674   2.582   3.784 -1.3907 -0.6521  0.7465
  128DG      H4 2925   4.735   2.433   3.713  2.4757 -0.6784  1.3628
  128DG      H5 2926   4.781   2.475   3.870  0.6425 -2.9086 -0.2237
  128DG      H6 2927   4.323   2.608   4.348 -0.7435 -0.1367  0.7359
  128DG      H7 2928   4.228   2.697   4.225 -0.7788  0.5143  0.7600
  128DG      H8 2929   4.154   2.567   4.317  0.0885  0.3118 -0.2536
  128DG      O9 2930   4.584   2.420   3.866  0.1450 -0.2136 -0.4411
  128DG     O10 2931   4.277   2.501   4.160  0.2784  0.0637  0.1638
  128DG     C11 2932   4.599   2.278   3.894 -0.5147 -0.0540 -0.2453
  128DG     C12 2933   4.260   2.369   4.210  0.0877  0.0344  0.6100
  128DG     H13 2934   4.686   2.251   3.954 -1.0320 -2.2372 -0.4112
  128DG     H14 2935   4.620   2.227   3.801  0.5287  2.3087 -1.4107
  128DG     H15 2936   4.156   2.340   4.222 -0.1159 -0.2899 -1.5492
  128DG     H16 2937   4.314   2.359   4.304  0.9589  0.7092  0.1942
  128DG     C17 2938   4.482   2.205   3.965 -0.2996 -0.1697  0.2695
  128DG     C18 2939   4.307   2.273   4.104  0.1770 -0.0577  0.7182
  128DG     O19 2940   4.443   2.288   4.063  0.6159  0.0044 -0.3695
  128DG     H20 2941   4.518   2.114   4.012 -2.7091 -1.2534  0.1213
  128DG     H21 2942   4.412   2.182   3.884  3.0883 -0.1402 -2.9863
  128DG     H22 2943   4.296   2.171   4.140 -1.2082  0.0549  0.6727
  128DG     H23 2944   4.231   2.275   4.026  0.9449 -3.3201 -0.2470
  129DG      C1 2945   4.315   5.303   3.575  0.6145  0.4264  0.2071
  129DG      C2 2946   4.693   4.996   4.047  0.4628 -0.1929  0.6323
  129DG      H3 2947   4.274   5.401   3.553  0.3975  0.9095  2.4930
  129DG      H4 2948   4.238   5.231   3.546  0.5824  0.0137  1.2532
  129DG      H5 2949   4.411   5.282   3.528  1.7776 -0.0997  2.6383
  129DG      H6 2950   4.754   4.960   3.964  0.5283  0.0151  0.5911
  129DG      H7 2951   4.746   5.064   4.113 -1.2476  0.8423  1.0018
  129DG      H8 2952   4.664   4.903   4.097  0.0274 -1.1335 -1.2890
  129DG      O9 2953   4.333   5.298   3.712  0.2928  0.7988  0.3752
  129DG     O10 2954   4.582   5.063   4.006  0.1425  0.5599 -0.2176
  129DG     C11 2955   4.218   5.329   3.784 -0.0852 -0.7061 -0.2924
  129DG     C12 2956   4.502   5.103   4.118 -0.6039  0.0602  0.0427
  129DG     H13 2957   4.149   5.247   3.764  0.1452 -1.1896  0.7826
  129DG     H14 2958   4.184   5.427   3.750 -0.9952 -0.7071  0.5690
  129DG     H15 2959   4.540   5.117   4.219 -3.2560 -2.8073  1.5960
  129DG     H16 2960   4.433   5.023   4.140  0.9784 -1.5264 -0.5103
  129DG     C17 2961   4.255   5.324   3.934  0.2478  0.1068  0.2565
  129DG     C18 2962   4.426   5.229   4.075 -0.1626 -0.4653 -0.2569
  129DG     O19 2963   4.342   5.217   3.962 -0.1664  0.3545  0.0777
  129DG     H20 2964   4.160   5.313   3.986 -0.2215 -2.1755 -0.9972
  129DG     H21 2965   4.312   5.410   3.971  2.7559 -1.6445  0.6690
  129DG     H22 2966   4.359   5.267   4.152 -2.5668 -2.0043 -1.4824
  129DG     H23 2967   4.491   5.315   4.056 -0.7473 -0.2548 -1.3677
  130DG      C1 2968   1.333   5.003   5.323 -0.0604 -0.1105 -1.0907
  130DG      C2 2969   1.020   5.367   5.826  0.4383 -0.6825 -0.1725
  130DG      H3 2970   1.271   5.027   5.237 -0.4501  0.1050 -0.7530
  130DG      H4 2971   1.300   4.904   5.354 -2.9628  1.3654  0.8983
  130DG      H5 2972   1.433   4.993   5.280  0.9385 -0.3232  1.1516
  130DG      H6 2973   1.077   5.321   5.907 -0.6969 -3.8571 -1.0251
  130DG      H7 2974   0.984   5.467   5.850  0.0746 -0.7808 -0.3013
  130DG      H8 2975   0.936   5.300   5.809 -0.2208  0.3642 -1.2288
  130DG      O9 2976   1.319   5.093   5.430 -0.0904  0.2228  0.1173
  130DG     O10 2977   1.096   5.346   5.707  0.1145 -0.0758 -0.1279
  130DG     C11 2978   1.372   5.036   5.547  0.4137 -0.5078 -0.0821
  130DG     C12 2979   1.224   5.415   5.707 -0.2196  0.1474  0.0821
  130DG     H13 2980   1.479   5.024   5.560  0.2194 -0.1455  2.6370
  130DG     H14 2981   1.317   4.945   5.572  0.4725 -0.6349 -0.4217
  130DG     H15 2982   1.266   5.435   5.805 -0.5785 -2.6215  0.8800
  130DG     H16 2983   1.216   5.512   5.659  1.7756  0.0255 -0.6179
  130DG     C17 2984   1.326   5.115   5.670 -0.2124  0.4131  0.1154
  130DG     C18 2985   1.321   5.352   5.608 -0.2096  0.3208  0.5793
  130DG     O19 2986   1.392   5.241   5.667 -0.3180 -0.5795 -0.1310
  130DG     H20 2987   1.353   5.071   5.766 -0.6127  1.9378  0.9576
  130DG     H21 2988   1.219   5.131   5.674 -0.6154 -1.8103 -0.6460
  130DG     H22 2989   1.273   5.311   5.519  1.2946  1.6097 -0.9064
  130DG     H23 2990   1.395   5.428   5.580 -0.5853  0.9102  1.1580
  131DG      C1 2991   1.914   5.421   3.647  0.0983  0.0886 -0.0551
  131DG      C2 2992   1.408   5.906   3.368 -0.2551 -0.1311  0.7171
  131DG      H3 2993   1.924   5.428   3.755 -0.7250  0.0996  0.0287
  131DG      H4 2994   1.974   5.495   3.594 -0.6705  0.0658 -1.0036
  131DG      H5 2995   1.958   5.329   3.608  0.5506  0.5102 -0.5648
  131DG      H6 2996   1.471   5.928   3.282  0.6235 -1.7039  0.9291
  131DG      H7 2997   1.304   5.905   3.335  0.1500 -0.3436 -0.5855
  131DG      H8 2998   1.435   5.972   3.451 -0.6483  0.2367  0.5584
  131DG      O9 2999   1.780   5.440   3.595  0.5021 -0.1479 -0.6642
  131DG     O10 3000   1.445   5.770   3.407  0.0346 -0.8817  0.1220
  131DG     C11 3001   1.687   5.360   3.666  0.5099  0.2586 -0.2588
  131DG     C12 3002   1.382   5.734   3.529 -0.4385  0.3609 -0.0359
  131DG     H13 3003   1.683   5.374   3.774 -3.2811 -0.6537 -0.1378
  131DG     H14 3004   1.704   5.253   3.655 -0.3916  0.2247 -1.4771
  131DG     H15 3005   1.278   5.766   3.525  0.0332  2.1674  1.1085
  131DG     H16 3006   1.432   5.790   3.608  1.6847  0.5287 -1.4228
  131DG     C17 3007   1.550   5.397   3.610  0.0526 -0.0771 -0.0709
  131DG     C18 3008   1.391   5.581   3.560  0.5575  0.0571  0.2329
  131DG     O19 3009   1.524   5.538   3.598  0.4547 -0.2013 -0.1173
  131DG     H20 3010   1.474   5.358   3.678  1.8780 -2.2134  0.8263
  131DG     H21 3011   1.533   5.352   3.512  1.3323  3.1062 -1.8994
  131DG     H22 3012   1.313   5.543   3.625 -1.6937  0.2869 -2.1734
  131DG     H23 3013   1.362   5.517   3.476  2.1832 -1.8269  1.0214
  132DG      C1 3014   5.347   0.681   1.135 -0.9735 -0.4519 -0.1714
  132DG      C2 3015   5.101   0.481   1.665  0.3061 -0.1084 -0.3132
  132DG      H3 3016   5.311   0.579   1.125  0.7679 -1.0224 -1.0763
  132DG      H4 3017   5.451   0.671   1.165 -1.3349 -1.6468  0.7277
  132DG      H5 3018   5.341   0.731   1.038  0.8865  0.7504  0.2862
  132DG      H6 3019   5.190   0.456   1.721  0.5221  3.4501  1.1935
  132DG      H7 3020   5.020   0.471   1.738  0.4092 -1.0035 -0.3112
  132DG      H8 3021   5.093   0.387   1.609  2.3413 -2.4169  2.9366
  132DG      O9 3022   5.271   0.732   1.239  0.2437 -0.4674 -0.1286
  132DG     O10 3023   5.090   0.599   1.592  0.7787 -0.5176 -0.1816
  132DG     C11 3024   5.306   0.865   1.275 -0.4156 -0.0212  0.1007
  132DG     C12 3025   5.117   0.710   1.677 -0.0888  0.2669  0.1312
  132DG     H13 3026   5.287   0.921   1.183  0.1240  0.0789  0.0456
  132DG     H14 3027   5.412   0.867   1.299  0.0215 -1.2145 -1.5146
  132DG     H15 3028   5.213   0.705   1.728  1.9346  1.4033 -3.2296
  132DG     H16 3029   5.046   0.719   1.760  0.1536  2.8097  0.1478
  132DG     C17 3030   5.212   0.910   1.392  0.1175  0.2411  0.4791
  132DG     C18 3031   5.114   0.834   1.592 -0.0557  0.5145  0.1779
  132DG     O19 3032   5.208   0.808   1.484 -0.0352 -0.1972 -0.0182
  132DG     H20 3033   5.114   0.935   1.353 -0.1744  1.5005  1.9315
  132DG     H21 3034   5.253   1.000   1.438 -0.3264  0.7783 -0.1671
  132DG     H22 3035   5.014   0.861   1.558 -0.4730  2.6701  2.7526
  132DG     H23 3036   5.140   0.920   1.654 -1.1063  0.2300  1.0642
  133DG      C1 3037   0.116   4.744   5.491  0.7040 -0.1176 -0.5005
  133DG      C2 3038   0.519   5.150   5.355 -0.2160 -0.1755  0.1599
  133DG      H3 3039   0.164   4.669   5.555  1.7842  0.5363 -0.5197
  133DG      H4 3040   0.020   4.703   5.461 -0.7205  0.0811  3.3012
  133DG      H5 3041   0.081   4.830   5.547  0.2518  1.4480 -3.0229
  133DG      H6 3042   0.470   5.199   5.439  1.4033 -1.3010  1.8313
  133DG      H7 3043   0.584   5.222   5.306  0.8591 -1.3087 -0.1385
  133DG      H8 3044   0.446   5.108   5.285 -1.1865  1.0219  0.4203
  133DG      O9 3045   0.207   4.798   5.393  0.1776  0.1156  0.1680
  133DG     O10 3046   0.591   5.045   5.413 -0.0101 -0.1487 -0.3727
  133DG     C11 3047   0.241   4.709   5.288  0.7210 -0.1130 -0.5619
  133DG     C12 3048   0.659   4.958   5.325  0.1923  0.1573 -0.6400
  133DG     H13 3049   0.157   4.688   5.223 -1.1400 -2.1051  2.2401
  133DG     H14 3050   0.278   4.614   5.324 -0.0201 -0.3566 -0.4235
  133DG     H15 3051   0.724   4.891   5.381  0.1132  0.6893  0.1098
  133DG     H16 3052   0.737   5.008   5.267 -0.9636  1.9947 -0.6968
  133DG     C17 3053   0.358   4.776   5.209 -0.2883  0.0938 -0.9660
  133DG     C18 3054   0.572   4.880   5.225 -0.4964  0.4412  0.7549
  133DG     O19 3055   0.467   4.821   5.292  0.0742  0.1839 -0.1171
  133DG     H20 3056   0.320   4.872   5.174 -0.2846  0.5616  0.2778
  133DG     H21 3057   0.396   4.713   5.128  0.4835 -1.4442  0.5453
  133DG     H22 3058   0.532   4.948   5.149  0.5923  0.5234  0.2404
  133DG     H23 3059   0.630   4.804   5.173 -2.1915  0.1478 -0.8113
  134DG      C1 3060   1.474   1.039   2.320  0.3224  0.2031 -0.2840
  134DG      C2 3061   0.990   1.336   1.819 -0.5749 -0.0759  0.5473
  134DG      H3 3062   1.479   0.946   2.263 -0.7859 -1.2689  1.8591
  134DG      H4 3063   1.509   1.034   2.423 -0.1043 -2.1784 -0.1903
  134DG      H5 3064   1.543   1.102   2.265 -2.0468  2.5323 -0.7622
  134DG      H6 3065   1.004   1.437   1.781  1.0630 -0.4097  0.2192
  134DG      H7 3066   1.026   1.262   1.748 -1.0380  1.2445 -1.1360
  134DG      H8 3067   0.885   1.310   1.831 -1.0806  2.2748  1.9325
  134DG      O9 3068   1.343   1.093   2.312  0.4515  0.3304 -0.1040
  134DG     O10 3069   1.045   1.321   1.949  0.0652  0.0287  0.1820
  134DG     C11 3070   1.320   1.215   2.382 -0.9716  0.4034  0.5759
  134DG     C12 3071   1.180   1.360   1.967  0.9265 -0.4691  0.0780
  134DG     H13 3072   1.398   1.288   2.359 -0.0237 -0.7383  0.0427
  134DG     H14 3073   1.310   1.200   2.490 -0.4633 -1.5500  0.3879
  134DG     H15 3074   1.211   1.454   1.920  0.0607  0.7536  1.8077
  134DG     H16 3075   1.243   1.280   1.930  1.0528 -0.4021  0.1462
  134DG     C17 3076   1.177   1.256   2.327  0.6009 -0.1778 -0.6763
  134DG     C18 3077   1.203   1.375   2.114  0.2854 -0.1038  0.1059
  134DG     O19 3078   1.165   1.252   2.181 -0.1554 -0.6300  0.1782
  134DG     H20 3079   1.141   1.352   2.365  1.2207  0.1739 -0.9568
  134DG     H21 3080   1.108   1.184   2.369  1.4736  0.0429  1.2376
  134DG     H22 3081   1.307   1.401   2.136  0.4878 -1.6795  1.1248
  134DG     H23 3082   1.144   1.463   2.139  2.2744  1.9164 -1.7932
  135DG      C1 3083   3.353   0.817   1.335 -0.2779 -0.0158 -1.3251
  135DG      C2 3084   3.889   0.354   1.627  0.6973 -0.2359 -0.2224
  135DG      H3 3085   3.363   0.894   1.412 -1.8323  1.6373 -2.6696
  135DG      H4 3086   3.276   0.744   1.359  0.3061 -0.5348 -1.0270
  135DG      H5 3087   3.316   0.876   1.251  0.0233  0.8314 -0.8708
  135DG      H6 3088   3.967   0.279   1.616 -1.7737 -3.1010  0.3874
  135DG      H7 3089   3.915   0.444   1.682  0.2083 -1.1431  1.5518
  135DG      H8 3090   3.817   0.301   1.689  0.9054  1.1489  1.2820
  135DG      O9 3091   3.481   0.758   1.310 -0.0115  0.0884 -0.3145
  135DG     O10 3092   3.821   0.381   1.507 -0.5863 -0.3526 -0.4572
  135DG     C11 3093   3.479   0.671   1.197  0.1910  0.2160  0.7619
  135DG     C12 3094   3.879   0.479   1.426  0.0892 -0.3922  0.1795
  135DG     H13 3095   3.446   0.723   1.107  0.6831 -0.4425  0.1957
  135DG     H14 3096   3.422   0.579   1.208  1.4994 -0.8174 -0.6801
  135DG     H15 3097   3.981   0.445   1.404  0.8047  0.5454  1.8282
  135DG     H16 3098   3.883   0.578   1.471 -1.2715 -0.4911  0.5572
  135DG     C17 3099   3.629   0.619   1.181 -0.4497 -0.0115 -0.4305
  135DG     C18 3100   3.797   0.488   1.298 -0.0762 -0.5635 -0.2746
  135DG     O19 3101   3.677   0.559   1.305 -0.3795  0.1463 -0.1244
  135DG     H20 3102   3.699   0.702   1.169 -1.7411  1.6415  2.3930
  135DG     H21 3103   3.631   0.559   1.090 -0.6005  1.2731 -1.3206
  135DG     H22 3104   3.859   0.553   1.236  0.1801  0.2106  0.7719
  135DG     H23 3105   3.790   0.393   1.244  1.8320 -0.0496 -1.5102
  136DG      C1 3106   1.086   0.181   0.527 -0.2618 -0.1745 -0.2016
  136DG      C2 3107   1.054   0.588   0.933  0.7145  0.0602  0.6782
  136DG      H3 3108   1.176   0.121   0.528  0.9188  1.5216  0.4863
  136DG      H4 3109   1.008   0.113   0.562  0.0636 -0.7962 -0.6765
  136DG      H5 3110   1.102   0.260   0.601  0.3806 -0.7709  0.3169
  136DG      H6 3111   0.959   0.592   0.986 -0.2267  0.7149 -0.9869
  136DG      H7 3112   1.132   0.528   0.981  0.3895  0.6792  2.0574
  136DG      H8 3113   1.094   0.689   0.936 -2.7918  1.5650  1.2184
  136DG      O9 3114   1.082   0.231   0.395 -0.7754 -0.0148  0.5727
  136DG     O10 3115   1.042   0.555   0.803 -0.4322  0.2905  0.5315
  136DG     C11 3116   0.954   0.293   0.377 -0.7258  0.0418  0.5425
  136DG     C12 3117   0.937   0.616   0.731  0.7326 -0.2990  0.0931
  136DG     H13 3118   0.873   0.246   0.432 -0.3271  0.7711  1.8006
  136DG     H14 3119   0.931   0.284   0.271 -1.8457  1.2904  0.6463
  136DG     H15 3120   0.929   0.723   0.745 -1.4523 -0.5304  1.1153
  136DG     H16 3121   0.841   0.570   0.758  0.2576  0.5086 -0.1918
  136DG     C17 3122   0.954   0.445   0.407  0.5114 -0.3454  0.5637
  136DG     C18 3123   0.957   0.604   0.580 -0.2823  0.2796 -0.2556
  136DG     O19 3124   0.960   0.467   0.547 -0.3430 -0.0405 -0.1149
  136DG     H20 3125   0.870   0.497   0.359  0.9204 -2.6486 -3.0518
  136DG     H21 3126   1.040   0.497   0.365  0.2920 -0.2481  0.2302
  136DG     H22 3127   0.876   0.652   0.525 -0.6437 -1.1580 -1.0236
  136DG     H23 3128   1.044   0.656   0.543  0.5388 -1.3186 -0.6479
  137DG      C1 3129   2.133   3.287   3.085 -0.3978 -0.0299 -0.3018
  137DG      C2 3130   2.593   3.715   2.768  0.0067 -0.0517 -0.4044
  137DG      H3 3131   2.162   3.343   3.173  0.1904  0.2539 -0.6760
  137DG      H4 3132   2.193   3.196   3.084 -1.1739 -0.5709  0.1247
  137DG      H5 3133   2.031   3.252   3.101 -0.1058 -0.6727  0.1969
  137DG      H6 3134   2.645   3.624   2.796 -0.9126 -0.3847  0.3065
  137DG      H7 3135   2.619   3.745   2.667 -0.4017 -1.4587 -0.9477
  137DG      H8 3136   2.633   3.784   2.842  1.1134  0.3253 -1.3208
  137DG      O9 3137   2.147   3.356   2.967 -0.3805  0.1182  0.0536
  137DG     O10 3138   2.454   3.685   2.783  0.4906  0.4689 -0.1436
  137DG     C11 3139   2.047   3.454   2.950  0.4423  0.5784  0.8953
  137DG     C12 3140   2.352   3.781   2.784 -0.4264 -0.1881  0.6475
  137DG     H13 3141   2.043   3.518   3.039 -1.6994  0.3595  1.0120
  137DG     H14 3142   1.948   3.410   2.942 -0.0622  1.9549 -1.4278
  137DG     H15 3143   2.382   3.856   2.711  0.4308 -0.7938  0.3654
  137DG     H16 3144   2.351   3.836   2.878  1.2533  0.4390  0.3417
  137DG     C17 3145   2.081   3.537   2.829 -0.0624  0.1721 -0.2589
  137DG     C18 3146   2.223   3.718   2.762  0.0399 -0.1742  0.8534
  137DG     O19 3147   2.215   3.600   2.846 -0.3159 -0.1198  1.0418
  137DG     H20 3148   2.014   3.624   2.826  0.3133  0.5861  2.0810
  137DG     H21 3149   2.068   3.482   2.735 -2.6931  0.3594 -0.0914
  137DG     H22 3150   2.144   3.787   2.791 -2.3712 -3.5173  3.1504
  137DG     H23 3151   2.199   3.693   2.658 -1.6669 -2.2854  1.6644
  138DG      C1 3152   2.758   0.455   3.248  0.4991 -0.1782 -0.7994
  138DG      C2 3153   3.372  -0.034   3.403 -0.0789  0.6001 -0.2262
  138DG      H3 3154   2.758   0.550   3.194  1.9754 -0.1698 -0.8210
  138DG      H4 3155   2.813   0.462   3.342 -2.0874  1.5031  0.7174
  138DG      H5 3156   2.660   0.426   3.284  2.0980 -1.4723  3.0931
  138DG      H6 3157   3.413   0.047   3.464 -1.4144  2.4133 -1.6041
  138DG      H7 3158   3.329  -0.114   3.464 -0.0526 -1.2888 -2.5313
  138DG      H8 3159   3.459  -0.070   3.347 -1.0274 -3.9427  0.8180
  138DG      O9 3160   2.831   0.350   3.183  0.1052 -0.1234  0.6443
  138DG     O10 3161   3.273   0.017   3.317  0.2964 -0.2984  0.1117
  138DG     C11 3162   2.953   0.393   3.126 -0.2238 -0.9538  0.6444
  138DG     C12 3163   3.162   0.079   3.381 -1.0991 -0.2637 -0.5462
  138DG     H13 3164   2.994   0.463   3.199 -0.5074 -1.0665  0.9128
  138DG     H14 3165   2.920   0.453   3.041 -0.8565 -2.0460  0.0922
  138DG     H15 3166   3.204   0.154   3.449  0.4742  0.4333 -2.1761
  138DG     H16 3167   3.122   0.009   3.453 -2.9469  2.4665  1.2638
  138DG     C17 3168   3.045   0.279   3.088 -0.3108 -0.4571  0.6162
  138DG     C18 3169   3.063   0.142   3.281 -0.1247  0.6011 -0.0045
  138DG     O19 3170   3.126   0.233   3.196 -0.2604 -0.1411  0.1297
  138DG     H20 3171   3.116   0.315   3.013 -1.0325 -1.8622 -0.8052
  138DG     H21 3172   2.995   0.198   3.034 -1.1297  1.3018 -1.4175
  138DG     H22 3173   3.030   0.055   3.225  0.3658  0.9979 -0.9359
  138DG     H23 3174   2.982   0.188   3.338  0.2943  1.2224  0.1044
  139DG      C1 3175   0.553   5.147   1.628  0.0267 -0.1826  0.4657
  139DG      C2 3176  -0.033   4.739   1.708 -0.8878  0.0341  0.1050
  139DG      H3 3177   0.502   5.243   1.621 -0.3158 -0.4800 -1.6257
  139DG      H4 3178   0.558   5.098   1.531  1.3837  1.0712 -0.1308
  139DG      H5 3179   0.653   5.169   1.664  1.0939 -0.1461 -2.2678
  139DG      H6 3180  -0.045   4.658   1.637 -2.0790  2.6471 -2.9455
  139DG      H7 3181  -0.067   4.698   1.803  1.3407 -2.9803 -0.2555
  139DG      H8 3182  -0.077   4.823   1.653  3.7753  2.9345  0.2419
  139DG      O9 3183   0.500   5.053   1.715  0.0402  0.8788  0.3544
  139DG     O10 3184   0.108   4.756   1.726  0.3525 -0.1912  0.1923
  139DG     C11 3185   0.569   4.929   1.718 -0.2186  0.4307 -0.0254
  139DG     C12 3186   0.181   4.658   1.790  0.9655  0.1199  0.3808
  139DG     H13 3187   0.674   4.939   1.746  0.5099 -0.4015 -2.2737
  139DG     H14 3188   0.564   4.878   1.622  2.0874 -0.9808  0.5436
  139DG     H15 3189   0.203   4.581   1.716  1.7207  1.9050 -1.3467
  139DG     H16 3190   0.113   4.613   1.863 -0.0124 -1.2174 -1.2699
  139DG     C17 3191   0.499   4.839   1.825  0.3962 -0.0196  0.1315
  139DG     C18 3192   0.302   4.715   1.863  0.1837  0.3924  0.2992
  139DG     O19 3193   0.378   4.788   1.771 -0.1019 -0.0989  0.6621
  139DG     H20 3194   0.481   4.897   1.916  0.0158  1.3129 -0.7588
  139DG     H21 3195   0.570   4.761   1.852  1.1425  0.5006 -0.2639
  139DG     H22 3196   0.264   4.780   1.942 -1.1500  1.4101 -1.1311
  139DG     H23 3197   0.365   4.642   1.915  1.5428  1.2250 -0.1541
  140DG      C1 3198   0.721   1.104   2.227  0.1330  0.5518  0.1833
  140DG      C2 3199   0.438   1.560   2.537 -0.0085 -0.3207  0.8663
  140DG      H3 3200   0.785   1.087   2.314 -1.6896  1.5822  1.8344
  140DG      H4 3201   0.760   1.049   2.142 -1.0131  1.0891 -0.7291
  140DG      H5 3202   0.622   1.061   2.241 -0.0275  0.7367 -0.3554
  140DG      H6 3203   0.504   1.513   2.610 -0.3700  0.5563  1.7698
  140DG      H7 3204   0.412   1.662   2.563  2.6878  1.2635 -1.9356
  140DG      H8 3205   0.350   1.495   2.541 -0.3112  0.0641  0.5424
  140DG      O9 3206   0.688   1.233   2.192 -0.3097  0.1544 -0.4946
  140DG     O10 3207   0.487   1.559   2.400  0.1543  0.0296 -0.0765
  140DG     C11 3208   0.801   1.308   2.155 -0.9443 -0.2265 -0.3353
  140DG     C12 3209   0.572   1.665   2.375  0.3280  0.6571  0.0133
  140DG     H13 3210   0.848   1.278   2.062  0.9559  2.4723 -0.3633
  140DG     H14 3211   0.868   1.309   2.242 -0.7583 -1.8625 -0.4370
  140DG     H15 3212   0.645   1.669   2.456  0.2712 -0.2925  0.1301
  140DG     H16 3213   0.515   1.757   2.368 -0.4776  0.1101 -0.9290
  140DG     C17 3214   0.760   1.454   2.135 -0.2704  0.8745  0.7104
  140DG     C18 3215   0.649   1.632   2.245  1.2107  0.2844  1.0491
  140DG     O19 3216   0.700   1.496   2.258  0.3436  0.4323 -0.2660
  140DG     H20 3217   0.682   1.460   2.059 -2.5016 -0.9637  2.6916
  140DG     H21 3218   0.851   1.512   2.120  0.0963 -0.1417 -1.3334
  140DG     H22 3219   0.587   1.635   2.156  1.4667  1.5514  0.8866
  140DG     H23 3220   0.730   1.705   2.239  0.3079  1.2108 -0.4121
  141DG      C1 3221   2.997   1.224   3.245  0.5215  0.0641  0.1327
  141DG      C2 3222   2.483   1.700   3.724  0.3741 -0.2806  0.2311
  141DG      H3 3223   2.944   1.130   3.257  1.0571 -0.1252  1.0907
  141DG      H4 3224   3.085   1.223   3.310 -0.9338  1.9926  2.2866
  141DG      H5 3225   3.026   1.223   3.140  0.8357  1.0447  0.2002
  141DG      H6 3226   2.408   1.771   3.756 -0.8456 -1.6991  0.6272
  141DG      H7 3227   2.424   1.609   3.714 -0.6435  0.5523 -1.9208
  141DG      H8 3228   2.565   1.694   3.796  1.0283  0.1816 -0.4533
  141DG      O9 3229   2.908   1.325   3.281 -0.2775 -0.2845 -0.3497
  141DG     O10 3230   2.535   1.736   3.595 -0.6607 -0.2694  0.5392
  141DG     C11 3231   2.961   1.454   3.270 -0.1435  0.2285  0.3372
  141DG     C12 3232   2.629   1.636   3.554 -0.3574  0.1361  0.1600
  141DG     H13 3233   3.011   1.478   3.176  1.1629  1.2691  1.2654
  141DG     H14 3234   3.044   1.459   3.341  1.5314  1.5116 -1.6196
  141DG     H15 3235   2.585   1.538   3.574  1.8383 -1.3746 -1.7945
  141DG     H16 3236   2.718   1.648   3.616 -1.2309 -0.2726  1.5409
  141DG     C17 3237   2.854   1.557   3.279  0.7052 -0.0761 -0.5194
  141DG     C18 3238   2.683   1.641   3.411  0.6025 -0.6217  0.3150
  141DG     O19 3239   2.786   1.546   3.401 -0.1920  0.2134  0.0144
  141DG     H20 3240   2.787   1.551   3.194 -1.4516 -0.4955  1.1207
  141DG     H21 3241   2.903   1.654   3.276  1.7937 -0.6355 -2.0094
  141DG     H22 3242   2.614   1.645   3.327  1.4280  1.0059 -0.3513
  141DG     H23 3243   2.726   1.741   3.400 -0.3645 -0.1640  0.6572
  142DG      C1 3244   2.721   4.144   4.213  0.2925 -0.0754  0.2337
  142DG      C2 3245   3.219   4.322   4.444 -0.5019 -0.0194 -0.2609
  142DG      H3 3246   2.718   4.232   4.149 -0.2902 -0.8221 -0.7881
  142DG      H4 3247   2.715   4.188   4.313 -1.6639  0.0750  0.0890
  142DG      H5 3248   2.622   4.101   4.193 -1.0889  1.9018  2.3005
  142DG      H6 3249   3.142   4.328   4.521 -0.2434  1.6882 -0.0836
  142DG      H7 3250   3.315   4.324   4.497 -1.0703 -4.2714  1.3257
  142DG      H8 3251   3.207   4.404   4.373 -1.5773  0.3572  0.3293
  142DG      O9 3252   2.829   4.067   4.180 -0.1426 -0.0127  0.5803
  142DG     O10 3253   3.221   4.202   4.371 -0.0414  0.1946  0.3145
  142DG     C11 3254   2.836   3.948   4.255 -0.1321 -0.0960  0.5141
  142DG     C12 3255   3.237   4.076   4.446 -0.0057  0.4557 -0.0831
  142DG     H13 3256   2.906   3.885   4.201 -1.8428 -2.8659  1.3072
  142DG     H14 3257   2.743   3.891   4.254 -1.3646  1.8354 -1.4871
  142DG     H15 3258   3.308   4.091   4.527 -0.5999  2.3015  0.1454
  142DG     H16 3259   3.282   4.001   4.382  0.0126 -0.7660  1.3167
  142DG     C17 3260   2.907   3.951   4.392  0.3356 -0.1626  0.9824
  142DG     C18 3261   3.097   4.033   4.493 -0.5005  0.2851  0.1840
  142DG     O19 3262   3.020   4.027   4.379 -0.1203  0.1261  0.7219
  142DG     H20 3263   2.925   3.846   4.415 -0.2685 -0.9713 -1.8808
  142DG     H21 3264   2.842   4.007   4.459 -1.5434 -0.7759 -0.2726
  142DG     H22 3265   3.113   3.939   4.545  1.5624  0.3349 -0.2527
  142DG     H23 3266   3.062   4.108   4.564  3.0783  2.8589 -0.4925
  143DG      C1 3267   2.509   1.891   2.070 -0.4122  0.3027  0.6832
  143DG      C2 3268   2.699   2.736   1.985  0.9155 -0.1734  0.3903
  143DG      H3 3269   2.608   1.867   2.108  0.2151  2.0867  0.3050
  143DG      H4 3270   2.449   1.801   2.056  1.8416 -1.1343 -0.1477
  143DG      H5 3271   2.455   1.953   2.142  0.7230  1.4956  0.5479
  143DG      H6 3272   2.781   2.736   2.057  1.7801 -1.7999 -0.5449
  143DG      H7 3273   2.733   2.798   1.902  0.5558 -2.0829 -1.2458
  143DG      H8 3274   2.616   2.786   2.034  0.4007  0.5354 -1.1377
  143DG      O9 3275   2.548   1.965   1.951  0.7585 -0.3329 -0.4419
  143DG     O10 3276   2.660   2.611   1.946  0.6372  0.4241  0.3285
  143DG     C11 3277   2.586   2.099   1.986 -0.0682  0.9879 -0.4287
  143DG     C12 3278   2.746   2.540   1.861  0.3115 -1.1057 -0.6627
  143DG     H13 3279   2.668   2.087   2.057 -0.7784 -1.9402  0.0360
  143DG     H14 3280   2.505   2.145   2.044 -0.8151 -1.4417  0.5880
  143DG     H15 3281   2.836   2.531   1.922 -0.8021 -2.4188  0.8765
  143DG     H16 3282   2.769   2.601   1.774 -1.0320 -0.6529 -0.7164
  143DG     C17 3283   2.626   2.185   1.865  0.3657 -0.1470 -0.0846
  143DG     C18 3284   2.712   2.395   1.815 -0.4407 -0.0913  0.2356
  143DG     O19 3285   2.678   2.306   1.920  0.2433  0.1015  0.0356
  143DG     H20 3286   2.538   2.203   1.804 -0.4923 -2.2832  0.3983
  143DG     H21 3287   2.706   2.141   1.806 -0.9734 -1.0199 -1.3186
  143DG     H22 3288   2.627   2.403   1.747  0.1886  4.4648 -0.3425
  143DG     H23 3289   2.802   2.353   1.770  0.1654  1.6346 -0.2395
  144DG      C1 3290   0.457   2.494   0.588  0.5553 -1.2907 -0.1688
  144DG      C2 3291  -0.030   2.083   0.866 -0.4600  0.4426  0.2756
  144DG      H3 3292   0.479   2.464   0.690  0.8914  1.3612  0.6164
  144DG      H4 3293   0.468   2.602   0.596  2.4331 -1.5441  1.6748
  144DG      H5 3294   0.532   2.447   0.524  1.7348 -2.6582  2.0965
  144DG      H6 3295   0.057   2.018   0.856 -1.3160 -0.7474  0.3122
  144DG      H7 3296  -0.038   2.123   0.967  0.0675  0.3335  0.3625
  144DG      H8 3297  -0.123   2.027   0.858  0.2896 -0.6996 -0.8326
  144DG      O9 3298   0.321   2.443   0.587 -0.0993 -0.0496  0.8104
  144DG     O10 3299  -0.014   2.181   0.764  0.0121  0.5034  0.0428
  144DG     C11 3300   0.256   2.444   0.462 -0.3286 -0.0912 -0.0738
  144DG     C12 3301  -0.045   2.126   0.633 -0.3680  0.5530 -0.6697
  144DG     H13 3302   0.305   2.376   0.393 -0.3222 -0.2607  0.0963
  144DG     H14 3303   0.260   2.541   0.414 -0.2298  0.4707  1.0333
  144DG     H15 3304  -0.139   2.072   0.626  0.8422 -1.7298 -0.2157
  144DG     H16 3305   0.031   2.054   0.601  0.1751  1.0698 -0.5551
  144DG     C17 3306   0.100   2.430   0.480 -0.6411  0.0557 -0.9702
  144DG     C18 3307  -0.045   2.233   0.525 -0.2734 -0.3333 -0.3961
  144DG     O19 3308   0.088   2.299   0.535  0.1381  0.1887  0.2046
  144DG     H20 3309   0.037   2.433   0.391 -1.8582 -1.3601 -0.2010
  144DG     H21 3310   0.053   2.501   0.548  0.0487 -0.8182  0.4712
  144DG     H22 3311  -0.057   2.186   0.428 -1.5847 -0.1840 -0.3229
  144DG     H23 3312  -0.128   2.298   0.551 -0.5550 -1.7316  2.5943
  145DG      C1 3313   1.946   3.021   1.394 -0.5439 -0.2622 -0.5917
  145DG      C2 3314   1.859   2.994   2.081 -0.1404  0.0998  0.0079
  145DG      H3 3315   1.854   2.994   1.447 -1.0476  0.1550 -1.2290
  145DG      H4 3316   1.948   2.965   1.301  3.0082 -1.0131 -0.1835
  145DG      H5 3317   1.941   3.128   1.375  0.2274 -0.1969 -0.4537
  145DG      H6 3318   1.767   3.034   2.037 -0.7487 -2.4657 -1.2679
  145DG      H7 3319   1.823   2.903   2.129  1.8555 -0.9905 -0.4308
  145DG      H8 3320   1.896   3.071   2.149 -1.7668  2.1926 -1.3431
  145DG      O9 3321   2.047   2.986   1.487  0.4472 -0.1228  0.3777
  145DG     O10 3322   1.952   2.944   1.989 -0.8074  0.3169 -0.0078
  145DG     C11 3323   2.165   3.062   1.484 -0.0495  0.0030 -0.1556
  145DG     C12 3324   2.006   3.050   1.908 -0.1859 -0.9148 -0.2047
  145DG     H13 3325   2.152   3.169   1.471  1.9351  0.0194 -2.8733
  145DG     H14 3326   2.222   3.019   1.402  0.3156  0.6131 -0.2213
  145DG     H15 3327   2.081   3.102   1.968  0.8057 -0.9078 -1.4193
  145DG     H16 3328   1.931   3.124   1.883  0.5058  0.1571  0.7757
  145DG     C17 3329   2.240   3.041   1.622 -0.0024  0.2122  0.7739
  145DG     C18 3330   2.081   2.990   1.789 -0.6016 -0.2763 -0.2582
  145DG     O19 3331   2.160   3.100   1.728 -0.2351  0.0579  0.0194
  145DG     H20 3332   2.328   3.106   1.621 -0.6450  1.2031  3.1706
  145DG     H21 3333   2.279   2.941   1.640  0.4351  0.0847 -0.7008
  145DG     H22 3334   2.147   2.916   1.833 -0.7910 -0.4305 -0.2304
  145DG     H23 3335   2.007   2.938   1.727 -0.0694 -0.3933 -0.8073
  146DG      C1 3336   3.209   3.307   1.595  0.1500  0.1809  0.1885
  146DG      C2 3337   3.013   3.709   0.974 -0.5462  0.8640 -0.4663
  146DG      H3 3338   3.290   3.380   1.597  0.2020  0.1233  1.2771
  146DG      H4 3339   3.233   3.210   1.638  0.8882  0.2659 -0.0185
  146DG      H5 3340   3.143   3.352   1.669  0.1674  0.9223 -0.2391
  146DG      H6 3341   3.071   3.797   0.947  1.0957  0.0605  0.3080
  146DG      H7 3342   2.999   3.666   0.875 -0.4298  0.4485 -0.3081
  146DG      H8 3343   2.916   3.740   1.011 -0.8038  0.7973 -1.0725
  146DG      O9 3344   3.130   3.309   1.474  0.0384  0.3112  0.0040
  146DG     O10 3345   3.074   3.631   1.082  0.4161  0.2458 -0.0200
  146DG     C11 3346   3.188   3.242   1.365  0.0335 -0.0691 -0.0133
  146DG     C12 3347   3.192   3.581   1.034  0.0239 -0.1198 -0.0426
  146DG     H13 3348   3.111   3.203   1.298  2.5352 -1.2228 -2.4282
  146DG     H14 3349   3.236   3.148   1.392  0.2940 -0.3628 -1.3971
  146DG     H15 3350   3.248   3.649   0.970  0.0712 -1.5542 -1.6045
  146DG     H16 3351   3.169   3.488   0.983  0.1123  1.0988 -2.4254
  146DG     C17 3352   3.279   3.346   1.293 -0.4502 -0.1980  0.1807
  146DG     C18 3353   3.271   3.549   1.163  0.0017  0.1143  0.0848
  146DG     O19 3354   3.201   3.461   1.249 -0.0825  0.3063 -0.2626
  146DG     H20 3355   3.329   3.301   1.207 -0.5536 -0.7140  0.3832
  146DG     H21 3356   3.348   3.388   1.366 -1.3729 -0.3390  1.1560
  146DG     H22 3357   3.376   3.523   1.147  0.2016 -0.3338  1.9213
  146DG     H23 3358   3.281   3.644   1.215  0.0205  0.4813 -0.5784
  147DG      C1 3359   5.330   3.576   1.397  0.1193  0.6151  0.8804
  147DG      C2 3360   5.764   3.711   0.906 -0.0421  0.2437 -0.5030
  147DG      H3 3361   5.331   3.468   1.380  2.1224  0.9379 -1.6630
  147DG      H4 3362   5.253   3.632   1.344 -2.7001  0.3074  4.2830
  147DG      H5 3363   5.290   3.583   1.498 -2.1795  0.4882  0.0444
  147DG      H6 3364   5.863   3.715   0.860  0.7108  0.8500  1.1083
  147DG      H7 3365   5.717   3.619   0.871 -1.3823  0.0489  1.6437
  147DG      H8 3366   5.714   3.797   0.861 -0.5294  0.3344  0.2001
  147DG      O9 3367   5.466   3.629   1.387 -0.0031 -0.0417 -0.0124
  147DG     O10 3368   5.776   3.705   1.052 -0.1051 -0.2096  0.2838
  147DG     C11 3369   5.560   3.566   1.477  0.1971  0.5277 -0.0825
  147DG     C12 3370   5.852   3.601   1.105  0.0504 -0.6949 -0.4962
  147DG     H13 3371   5.561   3.457   1.473  0.5666  0.3198  3.0362
  147DG     H14 3372   5.533   3.601   1.576  3.0225  0.6704  0.7196
  147DG     H15 3373   5.959   3.603   1.081  0.0703 -2.3482 -0.6605
  147DG     H16 3374   5.826   3.502   1.068  0.0298 -1.7848  2.1815
  147DG     C17 3375   5.695   3.622   1.444 -0.9832  0.1627  0.5343
  147DG     C18 3376   5.834   3.623   1.256  0.1082  0.4549  0.5655
  147DG     O19 3377   5.701   3.610   1.303 -0.1984 -0.9375  0.2467
  147DG     H20 3378   5.770   3.565   1.500 -1.0319 -1.7397 -1.2216
  147DG     H21 3379   5.689   3.728   1.469 -1.3605  0.0451  0.9626
  147DG     H22 3380   5.896   3.546   1.303  1.0904  0.6650 -0.3408
  147DG     H23 3381   5.877   3.714   1.298 -3.4353  2.6698 -0.1990
  148DG      C1 3382   4.982   4.209   0.426 -0.4957 -0.0038 -0.0952
  148DG      C2 3383   4.873   4.877   0.774  0.9295 -0.1124 -0.1189
  148DG      H3 3384   4.918   4.176   0.509 -1.0894 -1.8177 -1.2235
  148DG      H4 3385   5.068   4.142   0.430 -0.0904  0.4190 -1.3846
  148DG      H5 3386   4.927   4.195   0.333 -0.7014  0.3846 -0.0363
  148DG      H6 3387   4.932   4.954   0.724  0.0635  0.6528  0.0092
  148DG      H7 3388   4.789   4.933   0.814  0.9862 -0.1014 -0.0168
  148DG      H8 3389   4.929   4.836   0.858 -0.7747  1.3786  1.8556
  148DG      O9 3390   5.041   4.342   0.437  0.9352  0.6144 -0.6207
  148DG     O10 3391   4.840   4.793   0.670  0.3744  0.2693 -0.0721
  148DG     C11 3392   4.953   4.446   0.397 -0.0303  0.0205  0.0734
  148DG     C12 3393   4.738   4.691   0.697  0.0048 -0.7028  0.8565
  148DG     H13 3394   4.896   4.418   0.308  1.2692 -0.7639 -0.5364
  148DG     H14 3395   5.005   4.537   0.369 -0.7231 -0.2305 -2.2431
  148DG     H15 3396   4.656   4.741   0.748 -1.1844  0.5815 -2.1267
  148DG     H16 3397   4.780   4.618   0.766 -0.3050 -2.2260 -0.5221
  148DG     C17 3398   4.844   4.477   0.506  0.0273 -0.4190 -0.3577
  148DG     C18 3399   4.678   4.643   0.565  0.1392  0.1172 -0.0295
  148DG     O19 3400   4.780   4.597   0.470 -1.0857  0.5414  0.3911
  148DG     H20 3401   4.892   4.491   0.603 -0.3808  1.0261 -0.3374
  148DG     H21 3402   4.769   4.397   0.510  0.1844 -0.5364  0.6771
  148DG     H22 3403   4.606   4.565   0.591  0.0925  0.6745  1.6326
  148DG     H23 3404   4.620   4.729   0.533 -1.1333 -0.0588  1.7100
  149DG      C1 3405   0.510   3.745   3.431  0.2630 -0.0466 -0.2837
  149DG      C2 3406   0.616   4.244   2.977 -0.6211 -0.3805 -0.6351
  149DG      H3 3407   0.463   3.839   3.459  0.4821  0.5286 -1.7332
  149DG      H4 3408   0.531   3.693   3.524  0.9567 -0.4748 -0.6705
  149DG      H5 3409   0.449   3.680   3.368  2.3700 -1.7124 -0.7116
  149DG      H6 3410   0.686   4.288   2.906  0.4994 -0.4443  0.3836
  149DG      H7 3411   0.556   4.177   2.915 -0.0535  1.2079 -3.0481
  149DG      H8 3412   0.561   4.331   3.011 -0.4996 -0.3144 -0.6080
  149DG      O9 3413   0.635   3.767   3.369  0.1816  0.1626  0.2486
  149DG     O10 3414   0.675   4.169   3.080  0.3617  0.6883  0.0859
  149DG     C11 3415   0.704   3.862   3.446 -0.0351 -0.2720  0.4962
  149DG     C12 3416   0.791   4.106   3.042 -0.0519  0.1070 -0.5014
  149DG     H13 3417   0.745   3.839   3.544 -0.8682  0.3948  1.0137
  149DG     H14 3418   0.649   3.955   3.457 -0.9147 -0.5398 -1.2652
  149DG     H15 3419   0.863   4.174   2.996 -0.0219  0.9108  0.7036
  149DG     H16 3420   0.784   4.021   2.974  1.8271 -0.0250 -0.5926
  149DG     C17 3421   0.820   3.910   3.355  0.6372  0.0320  0.0638
  149DG     C18 3422   0.859   4.052   3.168 -0.0490  0.0271 -0.9508
  149DG     O19 3423   0.765   3.964   3.229 -0.2729 -0.5721  0.3337
  149DG     H20 3424   0.889   3.827   3.344  1.8806  1.1138 -0.6414
  149DG     H21 3425   0.880   3.991   3.397  0.5791  0.5537 -0.8242
  149DG     H22 3426   0.951   3.996   3.151  0.5407  0.0508  1.7408
  149DG     H23 3427   0.888   4.137   3.228 -0.7373 -0.3494 -0.0646
  150DG      C1 3428   4.025   4.249   4.847 -0.1711  0.1370  0.0789
  150DG      C2 3429   4.149   3.684   4.225 -0.4936  0.3435  0.0199
  150DG      H3 3430   4.026   4.323   4.766 -3.6827  0.9483  0.5999
  150DG      H4 3431   4.127   4.220   4.873 -0.0018 -0.0461 -0.7408
  150DG      H5 3432   3.980   4.297   4.933 -3.2812  0.7622 -1.7593
  150DG      H6 3433   4.253   3.710   4.206  0.2718 -1.9572  0.7873
  150DG      H7 3434   4.148   3.588   4.275 -1.6337  0.8563  1.0383
  150DG      H8 3435   4.094   3.688   4.131 -0.4374 -1.0943 -0.0869
  150DG      O9 3436   3.970   4.124   4.808 -0.1383 -0.1236 -0.2040
  150DG     O10 3437   4.089   3.769   4.320  0.3060 -0.3723 -0.2762
  150DG     C11 3438   4.029   4.060   4.696 -0.9782  0.2116 -0.0126
  150DG     C12 3439   3.951   3.755   4.323  0.0981 -0.1607 -0.3115
  150DG     H13 3440   4.129   4.038   4.734 -0.9058  1.2802  0.4602
  150DG     H14 3441   4.038   4.136   4.618 -0.4502  0.0371 -0.1259
  150DG     H15 3442   3.929   3.657   4.366  1.8161 -1.1358 -1.4805
  150DG     H16 3443   3.895   3.758   4.230 -0.3322  0.0738 -0.0461
  150DG     C17 3444   3.939   3.939   4.641 -0.6667 -0.9302 -0.0187
  150DG     C18 3445   3.897   3.869   4.416 -0.1402 -0.3956 -0.4053
  150DG     O19 3446   3.997   3.890   4.519 -0.2123 -0.2319  0.4189
  150DG     H20 3447   3.835   3.970   4.630 -0.5599  0.2652  1.8179
  150DG     H21 3448   3.925   3.870   4.724 -0.2087  0.2778  1.1031
  150DG     H22 3449   3.883   3.956   4.352 -1.7771  0.1240  0.5942
  150DG     H23 3450   3.804   3.839   4.463 -0.6181  2.0429  0.3152
  151DG      C1 3451   5.183   0.822   4.333 -0.1923 -0.6579  0.4864
  151DG      C2 3452   4.863   0.652   4.995 -0.3107 -0.1614  0.1245
  151DG      H3 3453   5.120   0.908   4.311  1.3662  0.3872 -0.1025
  151DG      H4 3454   5.148   0.737   4.275  1.2859 -0.6370 -0.4803
  151DG      H5 3455   5.280   0.841   4.286 -1.4922  0.6429 -1.8340
  151DG      H6 3456   4.799   0.739   4.983  0.5181  0.4262 -0.1184
  151DG      H7 3457   4.813   0.568   4.947 -0.6652 -0.2299  0.6162
  151DG      H8 3458   4.858   0.611   5.096  1.4972 -2.1778 -0.4990
  151DG      O9 3459   5.194   0.824   4.478  0.2005  0.1958  0.3273
  151DG     O10 3460   4.989   0.674   4.928  0.9533 -0.0887  0.3830
  151DG     C11 3461   5.209   0.691   4.536 -0.6670 -0.4996 -0.1878
  151DG     C12 3462   5.065   0.787   4.947  0.1574 -0.6106 -1.1047
  151DG     H13 3463   5.316   0.672   4.529 -0.3801  1.1339 -0.6399
  151DG     H14 3464   5.162   0.609   4.481 -1.0309 -0.3401 -0.1182
  151DG     H15 3465   5.058   0.814   5.052  0.9575  0.1055 -1.2279
  151DG     H16 3466   5.025   0.861   4.878 -3.3793 -0.1495  1.2153
  151DG     C17 3467   5.159   0.692   4.681  0.4376  0.5481 -0.5458
  151DG     C18 3468   5.207   0.768   4.901  0.2019 -0.0711  0.3648
  151DG     O19 3469   5.213   0.799   4.762  0.1990 -0.2127 -0.1031
  151DG     H20 3470   5.163   0.597   4.733  1.7715 -0.2895 -2.0780
  151DG     H21 3471   5.052   0.702   4.666  0.6676  2.0959 -1.5253
  151DG     H22 3472   5.282   0.833   4.946 -1.1693  0.0622  2.6598
  151DG     H23 3473   5.245   0.671   4.930 -1.1615 -0.9940 -0.8149
  152DG      C1 3474   4.413   0.769   3.805  0.4801 -0.0281 -0.1217
  152DG      C2 3475   4.523   1.342   4.060  0.1065  0.7456 -0.4784
  152DG      H3 3476   4.379   0.691   3.737 -0.2475 -0.2254  0.4532
  152DG      H4 3477   4.356   0.859   3.782  1.0642  0.0445 -1.3648
  152DG      H5 3478   4.394   0.749   3.911 -0.3000  0.7376 -0.0996
  152DG      H6 3479   4.468   1.293   4.141 -0.7360 -0.3503 -1.6701
  152DG      H7 3480   4.620   1.356   4.106 -0.7249  0.4625  1.4684
  152DG      H8 3481   4.470   1.434   4.035 -3.9795 -0.7752  1.5931
  152DG      O9 3482   4.549   0.811   3.801  0.1948  0.6119 -0.0262
  152DG     O10 3483   4.534   1.252   3.952 -0.8584  0.0552 -0.2433
  152DG     C11 3484   4.602   0.863   3.679 -0.4077  0.6663 -1.0382
  152DG     C12 3485   4.578   1.316   3.837 -0.7710  0.7496  0.3326
  152DG     H13 3486   4.598   0.784   3.604 -0.1645 -2.3195  1.8835
  152DG     H14 3487   4.709   0.881   3.691 -0.5953 -0.0878  3.2628
  152DG     H15 3488   4.685   1.318   3.853 -0.9644  0.7283  1.7416
  152DG     H16 3489   4.551   1.422   3.831 -0.1976  0.8623 -0.4927
  152DG     C17 3490   4.544   0.999   3.635  0.1267  0.3596  0.0217
  152DG     C18 3491   4.552   1.230   3.713 -0.4259 -0.5044 -0.0075
  152DG     O19 3492   4.584   1.094   3.737 -0.3300 -0.1842  0.4693
  152DG     H20 3493   4.439   0.996   3.608  0.6016  1.0539 -2.0678
  152DG     H21 3494   4.591   1.027   3.540 -0.6653  0.1397 -0.4400
  152DG     H22 3495   4.447   1.245   3.686  0.3553  0.9931 -2.5249
  152DG     H23 3496   4.599   1.265   3.621  1.0693  1.3238  1.3909
  153DG      C1 3497   3.976   4.710   4.979  0.2298  0.2464  0.5195
  153DG      C2 3498   4.394   4.105   4.838 -0.3151  0.7074  0.1187
  153DG      H3 3499   3.973   4.713   5.088  3.6000 -3.0736  0.9139
  153DG      H4 3500   3.909   4.632   4.945 -0.5232  0.7829  0.7378
  153DG      H5 3501   3.932   4.804   4.945  0.6550  0.3436  0.2235
  153DG      H6 3502   4.333   4.019   4.810 -0.1511 -0.0753  2.0401
  153DG      H7 3503   4.496   4.081   4.806 -0.5438  0.8998 -0.8081
  153DG      H8 3504   4.384   4.126   4.944 -1.0594 -0.9939  0.4188
  153DG      O9 3505   4.103   4.697   4.928 -0.1675  0.1049 -0.1038
  153DG     O10 3506   4.349   4.213   4.765  0.2182  0.4341  0.9571
  153DG     C11 3507   4.105   4.681   4.788 -0.2258 -0.2181 -0.8472
  153DG     C12 3508   4.444   4.317   4.782  0.3339  0.6666  0.9188
  153DG     H13 3509   4.077   4.778   4.745 -1.2939 -0.3780 -0.5157
  153DG     H14 3510   4.029   4.609   4.759 -0.9307  0.9082 -1.8901
  153DG     H15 3511   4.540   4.279   4.748  0.2106 -1.2524  2.5140
  153DG     H16 3512   4.452   4.342   4.888 -0.8662 -4.0228  2.3596
  153DG     C17 3513   4.234   4.623   4.736 -0.2155  0.3358  0.3812
  153DG     C18 3514   4.388   4.443   4.707 -0.9298  0.3871  0.3518
  153DG     O19 3515   4.272   4.491   4.779  0.4975 -0.5232 -0.0320
  153DG     H20 3516   4.319   4.683   4.767  2.0961 -3.6284  2.5270
  153DG     H21 3517   4.237   4.631   4.627  1.9647 -0.4579  0.3317
  153DG     H22 3518   4.465   4.521   4.700  0.5700 -0.6601  3.4486
  153DG     H23 3519   4.355   4.421   4.606 -1.0043  0.6397  0.3193
  154DG      C1 3520   2.505   2.759   4.988  0.4587 -0.2565  0.0167
  154DG      C2 3521   2.138   2.243   5.092  0.6415 -0.2337 -0.0134
  154DG      H3 3522   2.518   2.760   5.097  0.4489 -1.1644  0.0292
  154DG      H4 3523   2.533   2.854   4.943  2.1104 -1.6002 -1.9529
  154DG      H5 3524   2.566   2.675   4.958 -2.6725 -3.5525  2.0486
  154DG      H6 3525   2.128   2.141   5.057  0.5131  0.4986 -2.2287
  154DG      H7 3526   2.185   2.245   5.191 -0.1602 -1.7506  0.4348
  154DG      H8 3527   2.040   2.287   5.111  1.0691  0.7033  0.1119
  154DG      O9 3528   2.366   2.741   4.964  0.3132 -0.2470  0.1112
  154DG     O10 3529   2.202   2.327   4.999  1.0693  0.4777 -0.1579
  154DG     C11 3530   2.335   2.726   4.826  0.3450 -0.0747  0.5901
  154DG     C12 3531   2.325   2.277   4.950 -0.6926 -0.5820 -0.3484
  154DG     H13 3532   2.356   2.811   4.760 -0.5011  1.8270  2.6330
  154DG     H14 3533   2.227   2.721   4.837  0.4480  0.3030  2.0419
  154DG     H15 3534   2.305   2.176   4.914 -0.1320 -1.0288  0.5583
  154DG     H16 3535   2.397   2.274   5.032 -0.1418  2.3357 -0.6265
  154DG     C17 3536   2.380   2.593   4.758 -0.8891 -0.5233  0.3634
  154DG     C18 3537   2.353   2.364   4.830  0.4213  0.0834 -0.4553
  154DG     O19 3538   2.345   2.500   4.858  0.5503 -0.1905  0.2725
  154DG     H20 3539   2.487   2.586   4.738 -1.0054 -0.7209 -0.2071
  154DG     H21 3540   2.331   2.581   4.661 -0.5960 -1.3430  0.3111
  154DG     H22 3541   2.446   2.333   4.781  0.7820  1.0404 -0.3989
  154DG     H23 3542   2.278   2.342   4.753 -0.3086  0.5681  0.1060
  155DG      C1 3543   5.365   1.305   0.349 -0.2254 -0.2333 -0.3465
  155DG      C2 3544   5.955   1.310   0.186  0.2868  0.3650  0.3098
  155DG      H3 3545   5.256   1.311   0.350 -0.3461 -2.0729  0.6241
  155DG      H4 3546   5.393   1.364   0.436 -1.9911 -0.3285  0.3314
  155DG      H5 3547   5.393   1.206   0.384 -0.2398 -0.2368 -0.3450
  155DG      H6 3548   5.948   1.242   0.271  1.0582 -1.6799 -1.1697
  155DG      H7 3549   6.048   1.281   0.136  0.0298 -0.5452  0.3341
  155DG      H8 3550   5.963   1.414   0.218 -1.3425  0.5871  0.0451
  155DG      O9 3551   5.444   1.355   0.245  0.4962  0.5384 -0.0893
  155DG     O10 3552   5.836   1.301   0.107 -0.4865  0.3388  0.2499
  155DG     C11 3553   5.412   1.297   0.117  0.4634 -0.2563  0.4353
  155DG     C12 3554   5.844   1.383   0.001  0.8571 -0.1976  0.2247
  155DG     H13 3555   5.306   1.292   0.095  0.6882 -2.1983 -0.3831
  155DG     H14 3556   5.438   1.191   0.114  1.8696  0.0821 -0.1769
  155DG     H15 3557   5.914   1.349  -0.076  1.7289  1.4494  0.2387
  155DG     H16 3558   5.886   1.482   0.018  2.5812 -0.6310 -1.1080
  155DG     C17 3559   5.479   1.380   0.003 -0.0095 -0.5101  0.3690
  155DG     C18 3560   5.705   1.378  -0.061 -0.3086 -0.0599 -0.4339
  155DG     O19 3561   5.612   1.420   0.028  0.3922 -0.8967 -0.3469
  155DG     H20 3562   5.427   1.471  -0.026 -2.1013 -1.7005  0.2345
  155DG     H21 3563   5.471   1.315  -0.084 -1.8744 -1.5800  1.2879
  155DG     H22 3564   5.692   1.450  -0.142  1.7397 -1.1296 -1.8017
  155DG     H23 3565   5.678   1.284  -0.110  1.4402 -0.8037 -0.0462
  156DG      C1 3566   0.609   1.895   2.977  0.1424  0.5107 -0.6048
  156DG      C2 3567   0.606   1.132   3.366 -0.5519 -0.2029  0.2512
  156DG      H3 3568   0.593   1.928   3.080 -2.1256 -2.0390 -0.0148
  156DG      H4 3569   0.512   1.911   2.930 -0.9335  1.5518  1.7844
  156DG      H5 3570   0.666   1.966   2.917  0.4593  0.9195  0.1537
  156DG      H6 3571   0.502   1.121   3.334 -0.7802  1.9756  0.1408
  156DG      H7 3572   0.648   1.031   3.372 -0.0038  0.0577  0.8519
  156DG      H8 3573   0.615   1.178   3.464 -0.4223 -1.7379  0.9968
  156DG      O9 3574   0.665   1.770   2.975 -0.3477  0.2792 -0.2288
  156DG     O10 3575   0.677   1.199   3.256  0.2691  0.4097  0.0442
  156DG     C11 3576   0.601   1.672   2.895  0.4245  0.4655 -0.3666
  156DG     C12 3577   0.618   1.316   3.215 -0.4570 -0.8249  0.5657
  156DG     H13 3578   0.608   1.722   2.798  2.0093  1.6215  0.3052
  156DG     H14 3579   0.493   1.659   2.908  0.4425  1.5949  1.1286
  156DG     H15 3580   0.619   1.382   3.301  0.8321 -2.1270  1.5839
  156DG     H16 3581   0.512   1.296   3.196 -1.2653  1.4152  2.2734
  156DG     C17 3582   0.665   1.539   2.924 -0.2580 -0.0729  0.5606
  156DG     C18 3583   0.690   1.386   3.091  0.7299 -0.0122  0.5394
  156DG     O19 3584   0.619   1.500   3.052  0.1547  0.0146 -0.8540
  156DG     H20 3585   0.773   1.547   2.911 -0.1658 -2.6510 -0.8492
  156DG     H21 3586   0.637   1.463   2.851  1.3224 -0.8229  0.6903
  156DG     H22 3587   0.795   1.411   3.108  1.2653 -1.7290 -0.0457
  156DG     H23 3588   0.687   1.316   3.007  1.0333 -1.5613  1.7849
  157DG      C1 3589   4.757   0.986   0.756 -0.3599  0.1959 -0.4093
  157DG      C2 3590   5.335   1.343   0.751 -0.4986 -0.4746  0.6922
  157DG      H3 3591   4.697   0.923   0.691 -0.1999  0.4324 -0.7920
  157DG      H4 3592   4.707   1.018   0.847  0.1822  0.6531 -0.2666
  157DG      H5 3593   4.842   0.925   0.787 -1.4609 -0.8767  0.6020
  157DG      H6 3594   5.398   1.258   0.725 -0.2594  0.2095 -1.1434
  157DG      H7 3595   5.376   1.440   0.722 -1.3150 -1.0411 -2.8934
  157DG      H8 3596   5.328   1.349   0.860  0.0222  1.6400  0.6617
  157DG      O9 3597   4.811   1.097   0.675  0.2755 -0.1877 -0.2345
  157DG     O10 3598   5.214   1.345   0.675 -0.1515  0.3769 -0.2806
  157DG     C11 3599   4.725   1.218   0.658 -0.3958 -0.0681  0.2963
  157DG     C12 3600   5.139   1.461   0.660 -0.2155 -0.3449 -0.9636
  157DG     H13 3601   4.692   1.251   0.757 -0.2748  1.1215 -0.0497
  157DG     H14 3602   4.635   1.188   0.606 -0.7194  0.1594  0.7188
  157DG     H15 3603   5.201   1.540   0.617 -1.0501  0.9805  0.1658
  157DG     H16 3604   5.118   1.504   0.758 -0.1825 -1.8013 -0.2935
  157DG     C17 3605   4.796   1.330   0.586 -0.2856  0.0780  0.4607
  157DG     C18 3606   5.014   1.449   0.571  0.1542  0.8235  0.1464
  157DG     O19 3607   4.921   1.368   0.646  0.4409  0.5108  0.3830
  157DG     H20 3608   4.728   1.414   0.582 -0.2797  0.0293 -1.9569
  157DG     H21 3609   4.823   1.292   0.487  0.7492  0.6222  0.5173
  157DG     H22 3610   4.964   1.540   0.538 -1.7434 -0.7558 -1.6410
  157DG     H23 3611   5.031   1.409   0.471 -1.2260  4.5204 -1.7328
  158DG      C1 3612   1.567   4.179   1.540 -0.1145 -0.0455  0.0248
  158DG      C2 3613   0.898   4.096   1.614 -0.8720 -0.0326 -0.2223
  158DG      H3 3614   1.538   4.277   1.577 -0.0383  0.5159 -1.3373
  158DG      H4 3615   1.553   4.175   1.432 -1.8004  0.1840  0.2023
  158DG      H5 3616   1.673   4.165   1.561 -0.3484  0.1152  1.4343
  158DG      H6 3617   0.793   4.072   1.631 -1.2311  1.4444 -0.1910
  158DG      H7 3618   0.913   4.197   1.654  0.5161 -1.2033  2.4222
  158DG      H8 3619   0.917   4.110   1.508  0.7095  1.2469  0.1999
  158DG      O9 3620   1.482   4.092   1.601  0.2413 -0.4148 -0.0813
  158DG     O10 3621   0.981   4.008   1.697 -0.6950  0.1169  0.5604
  158DG     C11 3622   1.464   3.974   1.524  0.5060  0.4400  0.0165
  158DG     C12 3623   1.006   3.879   1.644  0.1681  0.0964  0.8222
  158DG     H13 3624   1.561   3.933   1.496  0.6281  1.3320 -0.9092
  158DG     H14 3625   1.426   3.992   1.423  3.0252 -1.2517 -1.3765
  158DG     H15 3626   0.989   3.895   1.538  1.7809  1.0676  0.6653
  158DG     H16 3627   0.942   3.798   1.678 -0.1590 -0.6408 -1.3921
  158DG     C17 3628   1.378   3.880   1.600  0.5759  0.1294 -0.1334
  158DG     C18 3629   1.156   3.835   1.659 -0.3708  0.0704 -0.9933
  158DG     O19 3630   1.244   3.930   1.604  0.5669  0.0363  0.0085
  158DG     H20 3631   1.427   3.871   1.696  1.8217  2.5982 -0.4601
  158DG     H21 3632   1.374   3.781   1.554  1.7329  0.1174 -0.2482
  158DG     H22 3633   1.183   3.810   1.762 -1.6370 -0.3764 -0.7608
  158DG     H23 3634   1.155   3.748   1.594  0.4697  1.0102 -2.3308
  159DG      C1 3635   3.487   0.138   5.390  0.2386 -0.5756  0.2463
  159DG      C2 3636   4.129   0.337   5.027  0.2111 -0.1630  0.8854
  159DG      H3 3637   3.455   0.046   5.440  2.4088 -1.4474  0.1310
  159DG      H4 3638   3.473   0.120   5.284  2.4089 -0.3337 -0.1316
  159DG      H5 3639   3.442   0.231   5.424 -0.2714 -0.5981 -0.3458
  159DG      H6 3640   4.102   0.274   4.942  1.3286  0.8611 -0.2772
  159DG      H7 3641   4.098   0.435   4.992  1.1675 -0.0689  0.2578
  159DG      H8 3642   4.235   0.353   5.045  0.5422  0.1910 -1.1536
  159DG      O9 3643   3.623   0.146   5.422 -0.0119 -0.0227 -0.3073
  159DG     O10 3644   4.083   0.305   5.154 -0.1957 -0.0151  0.0213
  159DG     C11 3645   3.693   0.029   5.375 -0.4118 -0.1182 -0.4150
  159DG     C12 3646   4.128   0.184   5.214 -0.7459  0.1698  0.1262
  159DG     H13 3647   3.670   0.001   5.273  0.3783 -0.7689 -0.4262
  159DG     H14 3648   3.651  -0.058   5.427 -0.6672  0.5564  0.5261
  159DG     H15 3649   4.230   0.184   5.250 -1.4720 -2.1325  2.4892
  159DG     H16 3650   4.130   0.095   5.151  1.7188  0.7588 -0.7278
  159DG     C17 3651   3.846   0.030   5.394 -0.4980  0.0886 -0.1196
  159DG     C18 3652   4.042   0.156   5.337  0.3117 -0.8864 -0.7463
  159DG     O19 3653   3.913   0.117   5.303  0.4048  0.0094  0.2224
  159DG     H20 3654   3.892  -0.064   5.366 -0.0593  0.1634  0.3460
  159DG     H21 3655   3.870   0.050   5.498 -2.4240 -0.8608  0.5654
  159DG     H22 3656   4.087   0.076   5.396  1.3619 -1.7329 -2.6199
  159DG     H23 3657   4.046   0.243   5.403  0.0965 -0.3908 -1.3745
  160DG      C1 3658   4.076   0.729   1.206 -0.4464  0.2204  0.0987
  160DG      C2 3659   4.326   0.516   0.606 -0.0395  0.1173 -0.2262
  160DG      H3 3660   4.116   0.636   1.247 -0.7652  0.1500  0.2570
  160DG      H4 3661   3.972   0.718   1.175 -0.4193 -0.2489  0.1700
  160DG      H5 3662   4.077   0.807   1.282  0.7487 -0.1992  0.5463
  160DG      H6 3663   4.228   0.536   0.562 -0.9261 -0.6658  1.3054
  160DG      H7 3664   4.402   0.517   0.528 -1.4342  1.6569 -1.6658
  160DG      H8 3665   4.332   0.418   0.653 -2.5083 -0.8456 -1.7177
  160DG      O9 3666   4.160   0.754   1.091 -0.1035  0.0401 -0.5056
  160DG     O10 3667   4.349   0.617   0.699 -0.0668  0.1910  0.3894
  160DG     C11 3668   4.281   0.832   1.111  0.0861 -0.3030  0.0070
  160DG     C12 3669   4.347   0.754   0.651 -0.2124 -0.0206  0.1439
  160DG     H13 3670   4.364   0.777   1.154  0.0143  0.6082  1.3773
  160DG     H14 3671   4.258   0.911   1.182  0.0237 -0.6988  0.4347
  160DG     H15 3672   4.246   0.788   0.630  0.0604  1.0325  0.4637
  160DG     H16 3673   4.406   0.761   0.560  1.0422  0.0766  0.9352
  160DG     C17 3674   4.337   0.907   0.993 -0.0502  0.4006  0.1078
  160DG     C18 3675   4.397   0.847   0.763 -0.2724  0.3677 -0.5933
  160DG     O19 3676   4.317   0.831   0.878 -0.4699 -0.6162 -0.2960
  160DG     H20 3677   4.441   0.936   1.003 -0.4531  2.2396 -0.4772
  160DG     H21 3678   4.289   1.002   0.970  1.2975  0.9968 -0.3565
  160DG     H22 3679   4.500   0.820   0.786 -0.5261  1.3493  2.1934
  160DG     H23 3680   4.392   0.950   0.728  0.4619  0.5292 -0.2463
  161DG      C1 3681   5.164   5.376   3.399 -0.8240  0.3802 -0.4633
  161DG      C2 3682   5.338   5.760   2.957 -0.1969  0.6175 -0.7387
  161DG      H3 3683   5.077   5.330   3.352  0.0059  0.1380 -1.8257
  161DG      H4 3684   5.132   5.468   3.449 -1.6410 -0.2023  0.1082
  161DG      H5 3685   5.195   5.314   3.483 -0.1337  2.7851  1.1666
  161DG      H6 3686   5.253   5.715   2.907  1.4866 -1.9772 -1.4810
  161DG      H7 3687   5.371   5.846   2.899 -0.1106 -0.3376 -2.1569
  161DG      H8 3688   5.415   5.683   2.959  0.8611  1.5448  3.0590
  161DG      O9 3689   5.265   5.412   3.303  0.2011  0.3754 -0.4407
  161DG     O10 3690   5.300   5.785   3.099 -0.0317  0.5184  0.1485
  161DG     C11 3691   5.388   5.425   3.381 -0.4385  0.3865 -0.0879
  161DG     C12 3692   5.409   5.816   3.179  0.3562  0.4761  0.2555
  161DG     H13 3693   5.417   5.337   3.438 -2.6119  0.6391  1.5575
  161DG     H14 3694   5.378   5.504   3.456 -0.7898 -0.9308  1.3265
  161DG     H15 3695   5.390   5.904   3.240  5.2961  1.5075  0.7408
  161DG     H16 3696   5.503   5.810   3.124  0.9825 -0.0439  1.3508
  161DG     C17 3697   5.502   5.476   3.295 -0.0724 -0.3281 -0.6084
  161DG     C18 3698   5.421   5.716   3.294  0.1966  0.0700  0.3860
  161DG     O19 3699   5.464   5.592   3.223 -0.4139  0.0928 -0.0706
  161DG     H20 3700   5.523   5.405   3.215 -0.1437  1.0340 -1.8728
  161DG     H21 3701   5.600   5.485   3.343 -0.0608 -0.5389 -0.5926
  161DG     H22 3702   5.491   5.754   3.368  0.3462  1.7028 -0.5568
  161DG     H23 3703   5.319   5.696   3.327 -0.0712 -1.0067 -0.9806
  162DG      C1 3704   0.423   2.622   1.856 -0.3209  0.2556  0.1091
  162DG      C2 3705  -0.205   3.056   1.396  0.1743 -0.9266  0.3152
  162DG      H3 3706   0.505   2.690   1.877  0.0038  0.5594 -2.0117
  162DG      H4 3707   0.422   2.590   1.752  1.1719 -0.0407  0.1689
  162DG      H5 3708   0.433   2.536   1.924 -2.0417  0.2461  0.3990
  162DG      H6 3709  -0.309   3.022   1.393  0.1609 -1.1257  2.0248
  162DG      H7 3710  -0.217   3.162   1.376 -0.2965 -1.2169 -1.0263
  162DG      H8 3711  -0.147   3.002   1.322 -0.3422  0.1567 -0.9102
  162DG      O9 3712   0.304   2.695   1.874  0.0991 -0.1140 -0.1289
  162DG     O10 3713  -0.148   3.027   1.523  0.3682  0.0187 -0.5374
  162DG     C11 3714   0.242   2.752   1.760 -0.0481  0.0852  0.3317
  162DG     C12 3715  -0.038   3.097   1.575  0.3876 -0.5678  0.9179
  162DG     H13 3716   0.182   2.668   1.725  0.2276  0.2788 -0.6459
  162DG     H14 3717   0.317   2.778   1.685  0.7008 -2.3348  0.1624
  162DG     H15 3718  -0.061   3.202   1.594 -0.7824 -0.9157  1.4729
  162DG     H16 3719   0.043   3.087   1.503 -0.3096 -2.0441  0.2942
  162DG     C17 3720   0.154   2.870   1.806 -0.3763  0.1767  0.1462
  162DG     C18 3721   0.015   3.043   1.713 -0.2098 -0.4584  0.1028
  162DG     O19 3722   0.090   2.920   1.690  0.0723 -0.9200  0.2281
  162DG     H20 3723   0.213   2.938   1.867 -0.6958  1.3048 -0.7617
  162DG     H21 3724   0.073   2.841   1.874  0.7202 -0.1463  1.3501
  162DG     H22 3725   0.074   3.123   1.757 -0.0950  0.7135 -2.0096
  162DG     H23 3726  -0.055   3.022   1.794  2.4166 -0.0279  2.6285
  163DG      C1 3727   4.423   1.621   2.646  0.2457  0.0281 -0.0194
  163DG      C2 3728   4.479   2.135   3.100  0.0770  0.2349  0.1957
  163DG      H3 3729   4.372   1.582   2.735 -1.0281  0.2915 -0.6217
  163DG      H4 3730   4.474   1.534   2.603  0.6243  0.1238  0.2297
  163DG      H5 3731   4.347   1.648   2.574 -0.4625  0.1964  0.7721
  163DG      H6 3732   4.426   2.064   3.165  1.7159 -0.3381  0.9836
  163DG      H7 3733   4.531   2.204   3.166 -0.6813 -1.0566  2.2620
  163DG      H8 3734   4.404   2.196   3.051  0.6058  0.9324  0.2318
  163DG      O9 3735   4.502   1.727   2.693 -0.6232 -0.3477  0.0508
  163DG     O10 3736   4.554   2.068   3.000 -0.3212 -0.0335  0.9065
  163DG     C11 3737   4.570   1.801   2.588 -0.0160 -0.2204 -0.4531
  163DG     C12 3738   4.602   2.165   2.901 -0.0025  0.1923 -0.0509
  163DG     H13 3739   4.493   1.853   2.530 -1.3286 -1.1614  0.3997
  163DG     H14 3740   4.623   1.738   2.516 -0.8485  0.9780 -2.1684
  163DG     H15 3741   4.673   2.235   2.944  0.7905 -0.5187 -0.1635
  163DG     H16 3742   4.528   2.227   2.852 -0.1309  0.5365  0.5711
  163DG     C17 3743   4.675   1.905   2.646 -0.5034 -0.4503 -0.1960
  163DG     C18 3744   4.690   2.078   2.805  0.0093  0.3534 -0.7500
  163DG     O19 3745   4.607   1.980   2.750 -0.1914  0.2756  0.5841
  163DG     H20 3746   4.690   1.969   2.559 -2.4278 -0.9057 -0.9205
  163DG     H21 3747   4.766   1.854   2.675 -0.2529 -0.9752 -1.7954
  163DG     H22 3748   4.719   2.145   2.723 -0.9368  0.9029 -0.6554
  163DG     H23 3749   4.771   2.037   2.865  1.0090  1.8510 -1.0094
  164DG      C1 3750   0.052   3.451   2.400 -0.5171 -0.2694  0.0903
  164DG      C2 3751   0.600   3.722   2.475 -0.0666 -0.7730  0.6028
  164DG      H3 3752  -0.012   3.400   2.328 -1.6798  0.5527  0.5017
  164DG      H4 3753  -0.020   3.496   2.469 -1.2683 -2.2544  0.6598
  164DG      H5 3754   0.119   3.379   2.446 -1.8244 -1.3118  0.4277
  164DG      H6 3755   0.705   3.742   2.451  0.1571 -1.5403  0.9287
  164DG      H7 3756   0.550   3.795   2.539 -1.8122 -3.5454  2.6463
  164DG      H8 3757   0.603   3.637   2.543  1.8607 -3.0428 -2.0952
  164DG      O9 3758   0.139   3.545   2.342 -0.3484  0.0971  0.6635
  164DG     O10 3759   0.509   3.700   2.368 -0.2237 -0.1542 -0.2283
  164DG     C11 3760   0.076   3.648   2.262 -0.4242 -0.1277  0.4896
  164DG     C12 3761   0.476   3.819   2.303 -0.0301  0.4495 -0.5325
  164DG     H13 3762  -0.008   3.693   2.315  1.0976  1.7386  1.4326
  164DG     H14 3763   0.043   3.605   2.168 -0.5339  1.5957 -0.2923
  164DG     H15 3764   0.562   3.882   2.283  1.8526 -2.2106 -1.4457
  164DG     H16 3765   0.411   3.883   2.362 -1.0730 -1.3501  0.3654
  164DG     C17 3766   0.190   3.744   2.236  0.5464 -0.1288 -0.7297
  164DG     C18 3767   0.410   3.794   2.172  0.7550 -0.1691 -0.3526
  164DG     O19 3768   0.308   3.694   2.178  0.7593  0.3567 -0.7103
  164DG     H20 3769   0.211   3.792   2.332  1.0507  1.9164 -1.8235
  164DG     H21 3770   0.143   3.822   2.177 -1.6088 -0.2307  0.7275
  164DG     H22 3771   0.384   3.885   2.118 -1.8280 -1.0241 -0.6868
  164DG     H23 3772   0.490   3.741   2.120 -0.3601 -1.6196 -0.6383
  165DG      C1 3773   1.446   5.163   1.477  0.5867 -0.7813 -0.8446
  165DG      C2 3774   1.599   4.660   0.879  0.6193  0.4067  0.1460
  165DG      H3 3775   1.385   5.253   1.475  0.8133 -0.4957  1.7020
  165DG      H4 3776   1.516   5.187   1.557 -0.5563  3.4592 -0.9153
  165DG      H5 3777   1.386   5.078   1.511 -0.9662  0.5274 -0.1933
  165DG      H6 3778   1.602   4.577   0.950  0.8797 -0.5801 -0.9873
  165DG      H7 3779   1.498   4.646   0.842  0.1221 -1.5036  2.0311
  165DG      H8 3780   1.681   4.653   0.808  1.4196 -0.4603  1.1186
  165DG      O9 3781   1.494   5.140   1.346  0.0495 -0.4231 -0.3267
  165DG     O10 3782   1.613   4.785   0.950  0.4864  0.4628  0.1463
  165DG     C11 3783   1.589   5.038   1.330  0.2008 -0.7148 -0.3771
  165DG     C12 3784   1.564   4.896   0.871  0.3273  0.0852  0.1012
  165DG     H13 3785   1.558   4.936   1.350 -1.3447 -0.2237 -0.1282
  165DG     H14 3786   1.678   5.056   1.392 -0.0054 -1.5682  0.1838
  165DG     H15 3787   1.459   4.894   0.839  0.4420 -3.3001 -0.4188
  165DG     H16 3788   1.631   4.904   0.785  0.6135  2.8806  0.4864
  165DG     C17 3789   1.630   5.035   1.184  0.1302 -0.3100 -0.0239
  165DG     C18 3790   1.599   5.017   0.962 -0.0630  0.5148 -0.1898
  165DG     O19 3791   1.538   4.997   1.091 -0.4393  0.0129  0.8734
  165DG     H20 3792   1.717   4.970   1.172 -0.4027 -1.2939  1.2388
  165DG     H21 3793   1.658   5.138   1.162 -0.0095  0.2172  2.0779
  165DG     H22 3794   1.707   5.010   0.962 -0.0214  0.9882 -1.6629
  165DG     H23 3795   1.556   5.107   0.918 -0.5938  0.9141  1.0793
  166DG      C1 3796   0.653   2.921   5.306 -0.4648 -0.6966 -0.4882
  166DG      C2 3797   1.051   2.870   5.899  0.2821 -0.3171 -0.1528
  166DG      H3 3798   0.740   2.934   5.242 -0.2099 -1.0373 -0.2142
  166DG      H4 3799   0.607   3.019   5.294  1.7433  0.5952  0.7492
  166DG      H5 3800   0.598   2.848   5.248  3.3430 -2.1695 -2.6244
  166DG      H6 3801   1.127   2.821   5.839 -0.8425 -0.6795 -1.3383
  166DG      H7 3802   1.044   2.971   5.858  0.8204  0.4528  1.5762
  166DG      H8 3803   1.072   2.873   6.006 -0.7393 -2.1638  0.1350
  166DG      O9 3804   0.685   2.890   5.445  0.3070  0.2440  0.3540
  166DG     O10 3805   0.946   2.787   5.854  0.1717  0.1819 -0.0500
  166DG     C11 3806   0.572   2.886   5.527 -0.6654 -0.2879  0.2700
  166DG     C12 3807   0.825   2.807   5.929  0.0764  0.6641 -0.0744
  166DG     H13 3808   0.528   2.786   5.527 -1.5869  0.0773 -1.3262
  166DG     H14 3809   0.491   2.945   5.485 -0.3015  0.2616  0.3333
  166DG     H15 3810   0.844   2.850   6.027 -0.2051  0.6033  0.0087
  166DG     H16 3811   0.770   2.713   5.938  1.3448 -0.0307  0.7857
  166DG     C17 3812   0.598   2.933   5.669 -0.2551  0.5716 -0.4848
  166DG     C18 3813   0.730   2.903   5.857 -0.5553 -0.5337  0.4338
  166DG     O19 3814   0.690   2.845   5.731 -0.2106 -0.2263 -0.0435
  166DG     H20 3815   0.505   2.955   5.722  1.6047  0.6328  2.9731
  166DG     H21 3816   0.638   3.033   5.657  0.4153  0.3579 -0.0570
  166DG     H22 3817   0.637   2.912   5.912 -1.1805  0.8677 -0.7834
  166DG     H23 3818   0.786   2.996   5.849  3.9018 -2.5052  3.9111
  167DG      C1 3819   1.923   1.400   1.368  0.0991  0.0920  0.0528
  167DG      C2 3820   2.007   0.744   1.430  0.3899  0.0696  0.0890
  167DG      H3 3821   1.948   1.498   1.329  0.5803  0.1481  0.4999
  167DG      H4 3822   1.868   1.412   1.461  0.2209 -0.6893  0.2324
  167DG      H5 3823   1.855   1.372   1.287  0.6441  1.3344 -0.8676
  167DG      H6 3824   2.100   0.724   1.376  1.8267  1.5035  1.9100
  167DG      H7 3825   1.980   0.660   1.494  1.8546  0.0242  0.6962
  167DG      H8 3826   1.929   0.753   1.354  0.6012 -1.3866 -0.3363
  167DG      O9 3827   2.023   1.298   1.374  0.1174 -0.0957 -0.0924
  167DG     O10 3828   2.012   0.873   1.501  0.0116  0.4429  0.0877
  167DG     C11 3829   2.144   1.326   1.439 -0.3055 -0.3954 -0.0490
  167DG     C12 3830   2.132   0.890   1.570 -0.2526 -0.3911 -0.0619
  167DG     H13 3831   2.176   1.430   1.439  2.1430 -1.0788  0.6476
  167DG     H14 3832   2.218   1.279   1.374  0.3556 -0.0427  0.4400
  167DG     H15 3833   2.216   0.898   1.500  0.3131  1.5340  0.7564
  167DG     H16 3834   2.150   0.804   1.634 -1.6318 -1.5937 -1.2256
  167DG     C17 3835   2.151   1.261   1.577  0.0774 -0.0576  0.9044
  167DG     C18 3836   2.146   1.032   1.645  0.2359 -0.2866 -0.3259
  167DG     O19 3837   2.113   1.129   1.547  0.6133  0.0033  0.1262
  167DG     H20 3838   2.077   1.297   1.649  0.2623 -1.1794  1.6755
  167DG     H21 3839   2.248   1.274   1.623  0.5256 -0.9394  0.2436
  167DG     H22 3840   2.078   1.037   1.730  1.8201  0.3212  0.9599
  167DG     H23 3841   2.244   1.056   1.685  1.0531 -2.0091 -1.1716
  168DG      C1 3842   1.832   1.024   5.391 -1.1241 -0.1582  0.2459
  168DG      C2 3843   2.648   1.088   5.521  0.0276 -0.1154  0.0092
  168DG      H3 3844   1.743   1.048   5.449  0.4758  1.2188  2.2792
  168DG      H4 3845   1.813   0.932   5.336 -0.8331 -0.3965  0.5381
  168DG      H5 3846   1.855   1.100   5.317 -0.5167 -0.1379  0.4476
  168DG      H6 3847   2.712   1.010   5.480  2.5560  1.0803  1.3899
  168DG      H7 3848   2.649   1.179   5.461  1.4847  0.3683  0.7207
  168DG      H8 3849   2.683   1.119   5.620  1.2973 -0.2182 -0.3826
  168DG      O9 3850   1.947   1.014   5.481 -0.2466  0.0779  0.2902
  168DG     O10 3851   2.504   1.066   5.537 -0.1245 -0.3079 -0.4506
  168DG     C11 3852   2.059   0.967   5.411  0.0777 -0.4592 -0.4850
  168DG     C12 3853   2.435   1.164   5.622  0.2104 -0.2403  0.3888
  168DG     H13 3854   2.079   1.021   5.318 -2.3855 -1.6579 -1.8060
  168DG     H14 3855   2.033   0.865   5.387  2.1752 -1.5330  1.3714
  168DG     H15 3856   2.434   1.264   5.577 -2.6177 -0.3022  0.1600
  168DG     H16 3857   2.495   1.188   5.711 -0.4615  1.2943  0.4581
  168DG     C17 3858   2.175   0.962   5.508  0.2504  0.3709  0.4407
  168DG     C18 3859   2.297   1.104   5.659  0.4195  0.7352 -0.4704
  168DG     O19 3860   2.224   1.089   5.532 -0.1999 -0.2945  0.0957
  168DG     H20 3861   2.257   0.895   5.482  1.1416  1.6514 -0.1066
  168DG     H21 3862   2.128   0.931   5.602 -1.9914  2.5842  0.1510
  168DG     H22 3863   2.318   1.013   5.714 -0.7833 -0.7378 -2.2928
  168DG     H23 3864   2.242   1.162   5.733 -0.3444  0.4334 -0.7867
  169DG      C1 3865   1.481   5.048   4.374  0.1273 -0.1355 -0.2842
  169DG      C2 3866   1.412   5.738   4.449 -0.4631  0.4602 -0.1340
  169DG      H3 3867   1.417   5.060   4.287 -0.2759 -1.0398 -0.1189
  169DG      H4 3868   1.422   4.976   4.431 -0.7586  0.7086 -0.1241
  169DG      H5 3869   1.576   5.006   4.339 -0.2969 -2.3146  0.9712
  169DG      H6 3870   1.342   5.798   4.507 -1.1957 -1.0864  0.6392
  169DG      H7 3871   1.508   5.765   4.493  1.2897  0.5572 -3.6943
  169DG      H8 3872   1.406   5.773   4.346  1.3137 -0.3801 -0.5762
  169DG      O9 3873   1.499   5.148   4.473  0.2177 -0.2416 -0.1404
  169DG     O10 3874   1.404   5.593   4.467  0.1010  0.2952 -0.1680
  169DG     C11 3875   1.523   5.276   4.413 -0.1781 -0.4540  0.1826
  169DG     C12 3876   1.266   5.548   4.474  0.6958  0.4868  0.2096
  169DG     H13 3877   1.620   5.280   4.362 -0.4213  1.4510 -0.2173
  169DG     H14 3878   1.530   5.343   4.498  0.1007 -1.4200  0.9421
  169DG     H15 3879   1.230   5.577   4.376  2.2426 -0.1800 -0.5763
  169DG     H16 3880   1.214   5.598   4.557  0.4944 -1.3330  1.2316
  169DG     C17 3881   1.419   5.336   4.317  0.1184  0.2094 -0.5359
  169DG     C18 3882   1.261   5.397   4.498  0.0533 -0.0126  0.1999
  169DG     O19 3883   1.291   5.330   4.375  0.3314  0.4521 -0.5483
  169DG     H20 3884   1.408   5.280   4.223  0.8676  0.1934 -0.6237
  169DG     H21 3885   1.443   5.436   4.281  0.0357  1.0955  1.7093
  169DG     H22 3886   1.322   5.358   4.579 -1.6890 -2.3516  0.4875
  169DG     H23 3887   1.156   5.373   4.516  0.1932  1.0597  2.8842
  170DG      C1 3888   0.134   4.392   0.735  0.2672 -0.1283  0.3358
  170DG      C2 3889  -0.313   4.677   1.124  0.6779 -0.4283 -0.2433
  170DG      H3 3890   0.212   4.459   0.771  0.6900 -1.8840  3.0007
  170DG      H4 3891   0.176   4.364   0.639  0.5309 -0.5671  0.5744
  170DG      H5 3892   0.111   4.300   0.790 -0.9465 -1.2673 -1.9173
  170DG      H6 3893  -0.413   4.714   1.150  0.5614 -0.5113 -0.5619
  170DG      H7 3894  -0.295   4.598   1.197  0.4993 -1.6397 -1.4667
  170DG      H8 3895  -0.249   4.764   1.140 -0.6116  0.6744 -0.8413
  170DG      O9 3896  -0.002   4.455   0.700 -0.6921  0.0236 -0.4848
  170DG     O10 3897  -0.296   4.636   0.992 -0.3154  0.0452 -0.6834
  170DG     C11 3898  -0.086   4.371   0.627 -0.6818  0.1837 -0.0998
  170DG     C12 3899  -0.393   4.540   0.958  0.2251 -0.5637 -0.3240
  170DG     H13 3900  -0.073   4.268   0.661  0.0885  0.4102  0.2981
  170DG     H14 3901  -0.056   4.372   0.522 -0.2142 -0.5599  0.0225
  170DG     H15 3902  -0.493   4.579   0.981  1.3168  0.7068  2.8751
  170DG     H16 3903  -0.386   4.446   1.012  2.4450  0.7613  1.9172
  170DG     C17 3904  -0.238   4.404   0.652  0.3715  0.0705  0.5228
  170DG     C18 3905  -0.387   4.517   0.809 -0.5011 -0.1950 -0.0374
  170DG     O19 3906  -0.259   4.464   0.783  0.1415 -0.1780  0.2717
  170DG     H20 3907  -0.292   4.310   0.639  1.8843 -0.5859 -1.7326
  170DG     H21 3908  -0.267   4.482   0.582  0.8455  1.3567  1.7155
  170DG     H22 3909  -0.467   4.445   0.793  0.6747 -2.1318  2.1007
  170DG     H23 3910  -0.413   4.604   0.748  1.0166  0.7080  0.5309
  171DG      C1 3911   2.136   4.929   2.781 -0.0617 -0.0769 -0.0169
  171DG      C2 3912   2.662   5.111   2.157 -0.2414  0.1140  0.0699
  171DG      H3 3913   2.045   4.930   2.841  0.6465  2.7745  1.1834
  171DG      H4 3914   2.198   4.990   2.846  0.5408 -1.9564  1.2609
  171DG      H5 3915   2.159   4.823   2.779 -1.9873 -0.5962  1.5804
  171DG      H6 3916   2.741   5.127   2.230 -0.8673  1.1795  0.5410
  171DG      H7 3917   2.706   5.039   2.089  1.5961 -1.3624  2.6544
  171DG      H8 3918   2.651   5.211   2.114  0.9452 -0.1330 -0.8635
  171DG      O9 3919   2.100   4.996   2.658 -0.3088  0.7818 -0.3916
  171DG     O10 3920   2.548   5.060   2.224 -0.5288 -0.3208  0.1512
  171DG     C11 3921   2.218   5.025   2.588 -0.4640  0.4559  0.4011
  171DG     C12 3922   2.575   4.943   2.290 -0.3370 -0.2005 -0.0354
  171DG     H13 3923   2.291   5.075   2.652 -2.4134  1.2918  2.0874
  171DG     H14 3924   2.185   5.078   2.499  0.0415 -0.9196 -0.6359
  171DG     H15 3925   2.651   4.961   2.367  0.7727 -1.5401 -0.7748
  171DG     H16 3926   2.619   4.871   2.221 -1.6873  1.3744 -2.7022
  171DG     C17 3927   2.293   4.904   2.530 -0.3540 -0.6487  0.8492
  171DG     C18 3928   2.446   4.879   2.345  0.0739 -0.3127  0.2267
  171DG     O19 3929   2.387   4.965   2.443 -0.3280  0.0274  0.6461
  171DG     H20 3930   2.232   4.839   2.469  2.3741  0.3292 -3.3175
  171DG     H21 3931   2.351   4.855   2.610  0.7727  0.0529  0.4908
  171DG     H22 3932   2.380   4.865   2.259  0.0166  1.8018 -0.1319
  171DG     H23 3933   2.468   4.778   2.378 -0.5807 -0.4933  0.1313
  172DG      C1 3934   1.877   4.336   4.314 -0.1918 -0.2520 -0.3875
  172DG      C2 3935   2.223   4.001   4.667  0.2601 -0.8645 -0.4464
  172DG      H3 3936   1.785   4.290   4.350  0.4042  0.3935  2.1558
  172DG      H4 3937   1.926   4.266   4.247 -0.8486  0.0339 -1.1769
  172DG      H5 3938   1.855   4.425   4.255  0.6956 -0.7358 -1.4921
  172DG      H6 3939   2.268   3.935   4.592  0.5604  0.3959 -1.4020
  172DG      H7 3940   2.289   4.010   4.753 -0.9522  0.0828  0.4089
  172DG      H8 3941   2.135   3.949   4.705 -0.5019  1.2655  0.8774
  172DG      O9 3942   1.949   4.365   4.437 -0.0728 -0.3345 -0.1366
  172DG     O10 3943   2.205   4.132   4.606 -0.8346 -0.5020 -0.2599
  172DG     C11 3944   2.038   4.470   4.418 -0.0962 -0.4743  0.3052
  172DG     C12 3945   2.330   4.201   4.604  0.4034 -0.1222  0.2208
  172DG     H13 3946   1.996   4.565   4.387  0.2040 -0.1661  0.8151
  172DG     H14 3947   2.098   4.441   4.332 -1.1141  0.6860 -0.8397
  172DG     H15 3948   2.416   4.148   4.564  2.0030  2.9922 -0.8091
  172DG     H16 3949   2.353   4.217   4.709 -3.3501  0.0144  1.1740
  172DG     C17 3950   2.128   4.499   4.547  0.0562  0.5114  0.5529
  172DG     C18 3951   2.305   4.340   4.540 -0.2040  0.3426 -0.3499
  172DG     O19 3952   2.193   4.382   4.603 -0.0622  0.5659 -0.4329
  172DG     H20 3953   2.070   4.553   4.622 -1.5802 -0.1203 -0.2170
  172DG     H21 3954   2.204   4.568   4.508  0.1216 -0.5297 -1.2918
  172DG     H22 3955   2.389   4.409   4.547 -0.5893  1.0446 -2.0326
  172DG     H23 3956   2.289   4.325   4.433  1.0459  1.4884 -0.7253
  173DG      C1 3957   3.730   2.025   0.084  0.6782  0.4763 -0.0960
  173DG      C2 3958   3.265   1.657   0.072  0.5769 -0.3269  0.9219
  173DG      H3 3959   3.822   1.975   0.054  0.4469  0.1240 -0.2245
  173DG      H4 3960   3.701   2.092   0.003 -1.3947  0.1528  0.3377
  173DG      H5 3961   3.670   1.934   0.090 -0.3887  1.1244 -0.6391
  173DG      H6 3962   3.235   1.567   0.126  1.3398 -0.5649  0.9541
  173DG      H7 3963   3.182   1.674   0.003  0.3303 -2.5276  0.5808
  173DG      H8 3964   3.357   1.637   0.017 -0.2879 -1.4627 -0.1861
  173DG      O9 3965   3.749   2.092   0.202 -0.3823  0.0350 -0.3385
  173DG     O10 3966   3.288   1.763   0.159  0.5222  0.4245  0.2357
  173DG     C11 3967   3.634   2.155   0.251  0.7314 -0.7623 -0.2855
  173DG     C12 3968   3.376   1.738   0.268 -0.1054 -0.3282  0.5071
  173DG     H13 3969   3.585   2.211   0.172  3.1506  0.8948 -0.7394
  173DG     H14 3970   3.666   2.233   0.320  2.7698 -1.9764  0.2323
  173DG     H15 3971   3.474   1.693   0.251 -0.6030 -1.8049  1.4359
  173DG     H16 3972   3.333   1.670   0.341  1.0234  0.5120  2.0141
  173DG     C17 3973   3.538   2.064   0.331  0.0618  0.5498  0.4049
  173DG     C18 3974   3.404   1.871   0.345 -0.5832 -0.3384  0.3120
  173DG     O19 3975   3.485   1.951   0.263  0.0588 -0.8933  0.2865
  173DG     H20 3976   3.467   2.138   0.368  0.5702  2.4493 -2.1313
  173DG     H21 3977   3.589   2.027   0.419 -0.4253  1.7145  1.1963
  173DG     H22 3978   3.314   1.920   0.382 -1.5911 -1.4282 -0.6401
  173DG     H23 3979   3.455   1.853   0.440  0.1060  1.0453  0.2393
  174DG      C1 3980   3.017   2.522   0.776 -0.3679  1.1455 -0.3362
  174DG      C2 3981   3.670   2.313   0.670 -0.2040 -0.3332  0.4850
  174DG      H3 3982   3.001   2.442   0.704  1.4288  0.0727  0.3968
  174DG      H4 3983   2.950   2.608   0.764  0.1413  1.4092 -1.3694
  174DG      H5 3984   3.020   2.481   0.877 -0.3915 -0.7953 -1.0817
  174DG      H6 3985   3.640   2.277   0.572  1.0193  1.2383 -0.5086
  174DG      H7 3986   3.763   2.357   0.634 -1.7738  0.9892 -2.3268
  174DG      H8 3987   3.677   2.233   0.744 -1.4750  0.9026  2.0132
  174DG      O9 3988   3.149   2.563   0.754  0.3928 -0.2086 -0.3451
  174DG     O10 3989   3.580   2.413   0.710 -0.1718  0.2241 -0.9393
  174DG     C11 3990   3.195   2.679   0.835  0.1609 -0.4630  0.1553
  174DG     C12 3991   3.633   2.509   0.805 -0.6363  0.1588 -0.0668
  174DG     H13 3992   3.198   2.647   0.939 -0.2183  2.5069  1.1608
  174DG     H14 3993   3.118   2.754   0.818 -0.6610 -1.1849  0.6077
  174DG     H15 3994   3.737   2.534   0.782 -0.9943  1.1110 -0.7172
  174DG     H16 3995   3.630   2.467   0.906  0.6063 -0.2406 -0.1826
  174DG     C17 3996   3.334   2.724   0.784  0.1526  0.0015 -0.1434
  174DG     C18 3997   3.554   2.640   0.789 -0.0849 -0.2838  0.4523
  174DG     O19 3998   3.427   2.618   0.823 -0.0810  0.1438 -0.3054
  174DG     H20 3999   3.370   2.814   0.834 -2.3413  1.3677 -0.6349
  174DG     H21 4000   3.332   2.731   0.675  0.6579 -1.4934 -0.2748
  174DG     H22 4001   3.593   2.717   0.855  2.2001  0.2589 -1.3980
  174DG     H23 4002   3.565   2.680   0.688  0.1449  0.1873  0.6597
  175DG      C1 4003   3.250   1.900   1.008  1.3038  0.0885 -0.0804
  175DG      C2 4004   2.744   1.948   1.496  0.4537  0.1204 -0.0190
  175DG      H3 4005   3.313   1.829   0.955  1.3308  0.1873 -0.1813
  175DG      H4 4006   3.321   1.971   1.051  0.9820  0.8299 -0.7473
  175DG      H5 4007   3.190   1.948   0.931  0.2137  0.9929  1.2809
  175DG      H6 4008   2.790   2.040   1.531  0.3539  0.4329 -0.6864
  175DG      H7 4009   2.687   1.988   1.412 -3.4283  0.9865  2.7257
  175DG      H8 4010   2.673   1.904   1.566 -0.3070  0.1599 -0.7468
  175DG      O9 4011   3.166   1.823   1.108 -0.2986 -0.5885 -0.2800
  175DG     O10 4012   2.841   1.867   1.454  0.0992  0.5030  0.0182
  175DG     C11 4013   3.110   1.697   1.069 -0.4803  1.0276 -0.2700
  175DG     C12 4014   2.786   1.748   1.400  0.0230 -0.2633  0.1242
  175DG     H13 4015   3.194   1.637   1.034  0.0852 -0.3277  3.0475
  175DG     H14 4016   3.032   1.707   0.993 -0.3865 -0.8194 -0.6594
  175DG     H15 4017   2.720   1.771   1.316  3.3412  0.1090 -2.5766
  175DG     H16 4018   2.728   1.687   1.469 -1.3612  0.5814 -0.2569
  175DG     C17 4019   3.055   1.613   1.185  0.1023  0.7886  0.2662
  175DG     C18 4020   2.893   1.648   1.350  0.1602 -0.8764  0.1135
  175DG     O19 4021   2.948   1.695   1.230  0.0080  0.0264 -0.5561
  175DG     H20 4022   3.129   1.596   1.264 -0.2482  0.9921  0.6399
  175DG     H21 4023   3.028   1.514   1.149  2.6906 -0.1470  0.6224
  175DG     H22 4024   2.970   1.638   1.427 -0.4710  1.8918  1.2314
  175DG     H23 4025   2.857   1.549   1.322 -0.3189 -0.3955 -1.0066
  176DG      C1 4026   5.445   2.074   3.643  0.6643 -0.3249  0.6425
  176DG      C2 4027   5.532   1.544   3.289  0.3562 -0.4325 -0.4253
  176DG      H3 4028   5.490   2.044   3.737  1.4637  0.7715  0.6367
  176DG      H4 4029   5.367   2.148   3.662 -0.0695 -0.5764 -1.1568
  176DG      H5 4030   5.521   2.112   3.573 -3.1204 -0.9891 -4.4281
  176DG      H6 4031   5.598   1.615   3.241  2.3956 -0.1779  2.5251
  176DG      H7 4032   5.554   1.447   3.243  3.5374  0.6053 -1.2951
  176DG      H8 4033   5.433   1.586   3.268  0.5250  0.5806  0.7205
  176DG      O9 4034   5.375   1.961   3.592  0.0177  0.4848 -0.0727
  176DG     O10 4035   5.546   1.553   3.427 -0.1426  0.4459 -0.4906
  176DG     C11 4036   5.273   1.908   3.688 -0.0444  0.1513  0.9033
  176DG     C12 4037   5.459   1.484   3.511  0.8080  0.6350  0.3826
  176DG     H13 4038   5.186   1.973   3.688  0.8081  1.3557 -0.7725
  176DG     H14 4039   5.318   1.892   3.786 -1.1568  1.7106  1.7023
  176DG     H15 4040   5.500   1.461   3.609  0.3768 -0.8844  0.2265
  176DG     H16 4041   5.438   1.387   3.466 -0.9860 -0.5596  3.4436
  176DG     C17 4042   5.235   1.766   3.633  0.1765 -0.3340 -0.0871
  176DG     C18 4043   5.326   1.570   3.531 -0.0049 -0.3923 -0.2158
  176DG     O19 4044   5.351   1.698   3.597  0.1782 -0.0959  0.0387
  176DG     H20 4045   5.168   1.784   3.549 -1.2745 -1.1064  0.8725
  176DG     H21 4046   5.178   1.704   3.702  0.2260 -0.2526  0.0270
  176DG     H22 4047   5.292   1.591   3.429  1.6147  1.2641 -0.4555
  176DG     H23 4048   5.245   1.516   3.580  0.6628  0.4590  1.9350
  177DG      C1 4049   5.348   3.556   4.888 -0.0133 -0.0733  0.1641
  177DG      C2 4050   5.945   3.288   5.087 -0.0840  0.1358  0.7774
  177DG      H3 4051   5.302   3.458   4.897 -0.2061 -0.1063 -1.1355
  177DG      H4 4052   5.359   3.571   4.781 -0.0958 -1.8072 -0.1140
  177DG      H5 4053   5.271   3.625   4.923 -0.5714 -0.6733  0.1362
  177DG      H6 4054   6.017   3.273   5.167 -0.5451 -0.6388  1.0531
  177DG      H7 4055   5.917   3.187   5.058  2.0605 -0.5822  1.0224
  177DG      H8 4056   5.993   3.328   4.997 -0.4034 -1.2445 -0.0439
  177DG      O9 4057   5.462   3.557   4.977 -0.4856 -0.0109 -0.6481
  177DG     O10 4058   5.836   3.361   5.131 -0.1676 -0.2198  0.3951
  177DG     C11 4059   5.519   3.682   5.012  0.1777  0.1565  0.2857
  177DG     C12 4060   5.877   3.480   5.201 -0.2828 -0.2765  0.5177
  177DG     H13 4061   5.444   3.739   5.066  0.0012  0.7133 -0.5353
  177DG     H14 4062   5.537   3.750   4.929 -2.1094  0.6696  0.1450
  177DG     H15 4063   5.936   3.546   5.137  0.4024 -2.3009 -1.0420
  177DG     H16 4064   5.934   3.454   5.291 -0.6080  0.8965  1.0820
  177DG     C17 4065   5.654   3.660   5.089  0.0853  0.2043  0.0107
  177DG     C18 4066   5.754   3.551   5.260  0.1034 -0.0858 -0.0306
  177DG     O19 4067   5.639   3.551   5.181 -0.5489  0.1899 -0.2361
  177DG     H20 4068   5.696   3.752   5.130  1.9229  0.1006 -1.5227
  177DG     H21 4069   5.720   3.625   5.010 -1.1645 -0.7619 -0.6475
  177DG     H22 4070   5.727   3.485   5.343  0.9727 -0.9695 -0.4258
  177DG     H23 4071   5.784   3.647   5.304  0.0928  0.3080 -0.8778
  178DG      C1 4072   1.788   0.663   0.709  0.0929  0.7437 -0.2741
  178DG      C2 4073   1.205   0.971   0.301 -0.0243  0.6512 -0.4325
  178DG      H3 4074   1.835   0.565   0.703 -0.0071  0.6780 -0.0161
  178DG      H4 4075   1.742   0.686   0.806 -0.3077 -0.0405 -0.2726
  178DG      H5 4076   1.874   0.731   0.714 -0.1235  1.0780 -0.9900
  178DG      H6 4077   1.231   1.067   0.345  1.0654 -0.4705  1.5619
  178DG      H7 4078   1.170   0.999   0.202 -0.7523  3.4379  0.5181
  178DG      H8 4079   1.124   0.924   0.357  2.0669  0.2232  2.5164
  178DG      O9 4080   1.699   0.674   0.599 -0.2137  0.5439  0.2416
  178DG     O10 4081   1.307   0.878   0.304 -0.5103  0.7286  0.2246
  178DG     C11 4082   1.764   0.681   0.469  0.7774 -0.3762  1.0412
  178DG     C12 4083   1.330   0.835   0.433  0.0435  0.6188  0.3739
  178DG     H13 4084   1.841   0.606   0.456  2.8914  1.8529  0.0537
  178DG     H14 4085   1.801   0.783   0.457 -0.5964  0.0068 -0.3904
  178DG     H15 4086   1.241   0.790   0.477 -1.7445  1.3392 -2.2456
  178DG     H16 4087   1.359   0.917   0.499 -1.9795  2.6744 -1.1049
  178DG     C17 4088   1.654   0.662   0.360 -0.1249 -0.1930 -0.5117
  178DG     C18 4089   1.436   0.725   0.436  0.2448  0.2730  0.4417
  178DG     O19 4090   1.549   0.766   0.361 -0.1941  0.3888  0.1280
  178DG     H20 4091   1.623   0.558   0.370 -0.7177  0.1949  2.6529
  178DG     H21 4092   1.704   0.681   0.265  0.7309 -0.0635 -0.0460
  178DG     H22 4093   1.461   0.692   0.537  0.4311 -2.3513 -0.3754
  178DG     H23 4094   1.402   0.640   0.377 -1.4309  1.1759  0.0519
  179DG      C1 4095   2.925   1.755   3.964  0.0620  0.2398  0.0156
  179DG      C2 4096   3.538   1.923   4.447 -0.2567 -0.3743 -0.1953
  179DG      H3 4097   2.924   1.647   3.947  0.9024  0.3393 -0.7258
  179DG      H4 4098   2.868   1.804   3.885 -1.5897 -0.5811  0.6656
  179DG      H5 4099   2.865   1.770   4.054 -3.1766 -0.2266 -1.9181
  179DG      H6 4100   3.555   1.815   4.451  0.0022 -0.4692 -2.4981
  179DG      H7 4101   3.624   1.987   4.463  0.0620 -0.0574 -2.7937
  179DG      H8 4102   3.473   1.940   4.533  0.5193 -0.6352  0.4558
  179DG      O9 4103   3.065   1.794   3.969 -0.2108  0.0794 -0.0436
  179DG     O10 4104   3.466   1.952   4.325  0.3788  0.4305  0.4000
  179DG     C11 4105   3.079   1.929   4.011 -0.2875  0.6088  0.4103
  179DG     C12 4106   3.533   1.913   4.213 -0.7303 -1.0072 -0.0115
  179DG     H13 4107   3.061   1.943   4.117  0.3606  2.1566  0.3338
  179DG     H14 4108   3.012   1.991   3.953  0.2471  2.1704  1.4108
  179DG     H15 4109   3.553   1.806   4.204 -1.2071 -1.1083  0.1024
  179DG     H16 4110   3.631   1.959   4.201 -0.7734 -0.3493  1.8298
  179DG     C17 4111   3.223   1.977   3.994 -0.2036  0.1306 -0.4111
  179DG     C18 4112   3.452   1.954   4.084 -0.3825  0.0248  0.5579
  179DG     O19 4113   3.317   1.909   4.084 -0.1728  0.0057 -0.0786
  179DG     H20 4114   3.234   2.086   3.998  0.1334  0.0663  0.9455
  179DG     H21 4115   3.254   1.942   3.895  0.7566 -3.6571  1.0836
  179DG     H22 4116   3.457   2.061   4.063 -1.1179 -0.3506 -1.7994
  179DG     H23 4117   3.498   1.908   3.997 -2.0212 -0.3983 -0.1163
  180DG      C1 4118   2.018   1.759   2.076 -0.2161 -0.1018 -0.6505
  180DG      C2 4119   2.004   2.405   2.406  0.9868  0.3131  0.2046
  180DG      H3 4120   2.096   1.691   2.109  0.7328  0.7310 -1.1224
  180DG      H4 4121   1.980   1.718   1.983 -0.0995  0.5202 -0.9778
  180DG      H5 4122   1.930   1.753   2.140 -0.4491 -0.4931 -1.0086
  180DG      H6 4123   2.025   2.512   2.413  1.7470  0.1653  0.2996
  180DG      H7 4124   1.901   2.391   2.437  0.2841  3.5878 -0.2277
  180DG      H8 4125   2.067   2.340   2.467 -1.0986 -1.6236  0.4109
  180DG      O9 4126   2.077   1.884   2.046 -0.1248  0.0044  0.3963
  180DG     O10 4127   2.023   2.357   2.273  0.4196 -0.4444 -0.2452
  180DG     C11 4128   2.127   1.953   2.158  0.2237 -0.0537  0.2473
  180DG     C12 4129   2.160   2.370   2.229  0.1871 -0.2134  0.2347
  180DG     H13 4130   2.191   1.880   2.208 -0.0825 -0.7863 -0.4136
  180DG     H14 4131   2.050   1.984   2.229 -0.5752 -0.0580 -0.5996
  180DG     H15 4132   2.225   2.316   2.297 -0.2281 -2.2004 -0.8469
  180DG     H16 4133   2.189   2.475   2.231 -1.2693  0.2176  2.2721
  180DG     C17 4134   2.204   2.087   2.114  0.0857  0.6156  0.3137
  180DG     C18 4135   2.166   2.312   2.093  1.1608 -0.0182 -0.3065
  180DG     O19 4136   2.103   2.182   2.079 -0.2065  0.1463 -0.0560
  180DG     H20 4137   2.267   2.078   2.025  0.4723 -1.3855  0.7453
  180DG     H21 4138   2.258   2.122   2.202  0.6882  1.0328 -0.2125
  180DG     H22 4139   2.110   2.382   2.030  1.3115  0.9853  0.6419
  180DG     H23 4140   2.267   2.321   2.055  0.5949  1.0904 -1.6432
  181DG      C1 4141   0.638   3.326   0.323  0.1759  0.3825 -0.1892
  181DG      C2 4142   0.297   3.049  -0.194 -0.3001  0.2815  0.2364
  181DG      H3 4143   0.583   3.380   0.246  0.2938  0.0340 -0.5243
  181DG      H4 4144   0.719   3.283   0.263 -0.4436  0.0540 -0.8053
  181DG      H5 4145   0.680   3.387   0.403  1.9384 -0.0243 -0.7555
  181DG      H6 4146   0.260   3.122  -0.266  1.9827  1.1544 -0.1254
  181DG      H7 4147   0.374   2.998  -0.253  1.1272  1.1729  1.2819
  181DG      H8 4148   0.208   2.988  -0.178 -0.9645  0.9777 -0.6402
  181DG      O9 4149   0.543   3.229   0.355 -0.4620  0.1569  0.4487
  181DG     O10 4150   0.359   3.127  -0.084  0.2514 -0.6018 -0.0362
  181DG     C11 4151   0.419   3.269   0.417  0.3077  0.5309 -0.3073
  181DG     C12 4152   0.265   3.171   0.007 -0.1415 -0.4056  0.0878
  181DG     H13 4153   0.437   3.335   0.502  2.4375  2.2626 -1.9866
  181DG     H14 4154   0.369   3.177   0.449  0.9162 -0.5724 -2.3696
  181DG     H15 4155   0.193   3.104   0.054  1.6515 -1.8724  0.8396
  181DG     H16 4156   0.213   3.257  -0.036  1.5766  0.2055 -0.8859
  181DG     C17 4157   0.328   3.343   0.326 -0.5510  0.2699 -0.0208
  181DG     C18 4158   0.350   3.231   0.118 -0.6500 -0.4750  0.5093
  181DG     O19 4159   0.271   3.267   0.224 -0.0471  0.4261  0.1653
  181DG     H20 4160   0.363   3.431   0.272 -1.6794  0.3412 -0.6848
  181DG     H21 4161   0.240   3.373   0.383  0.8846 -0.6132  2.8354
  181DG     H22 4162   0.433   3.165   0.145 -0.4309  0.0862  1.2383
  181DG     H23 4163   0.401   3.314   0.069  1.1041 -0.9939  1.3620
  182DG      C1 4164   1.144   1.774   0.826 -0.4725 -0.1153 -0.2758
  182DG      C2 4165   1.602   1.667   0.295 -0.2510  0.5241  0.1367
  182DG      H3 4166   1.061   1.707   0.846 -0.5544  0.2858  0.8002
  182DG      H4 4167   1.097   1.844   0.756 -0.1272 -1.4100 -1.8702
  182DG      H5 4168   1.160   1.835   0.915 -1.1894 -1.4180  0.7778
  182DG      H6 4169   1.640   1.600   0.217 -0.6127  2.1873 -1.5461
  182DG      H7 4170   1.510   1.708   0.253 -0.6480  1.1719  1.5789
  182DG      H8 4171   1.674   1.748   0.304  0.0511  0.2038  0.6346
  182DG      O9 4172   1.266   1.726   0.767 -0.5395 -0.0213 -0.5729
  182DG     O10 4173   1.574   1.599   0.412  0.0054 -0.0967 -0.1434
  182DG     C11 4174   1.307   1.593   0.802  0.0374 -0.0362  0.2127
  182DG     C12 4175   1.676   1.614   0.506 -0.6080 -0.0509  0.5649
  182DG     H13 4176   1.250   1.526   0.736  1.2467  1.1460 -2.1537
  182DG     H14 4177   1.284   1.567   0.905  0.3211 -0.6521  0.1253
  182DG     H15 4178   1.686   1.717   0.542 -1.5204  0.0040  0.6768
  182DG     H16 4179   1.778   1.585   0.481 -0.6629  0.8069 -0.7555
  182DG     C17 4180   1.455   1.568   0.793  0.4123 -0.0316 -0.3257
  182DG     C18 4181   1.633   1.533   0.629  1.1286  0.5816  0.1864
  182DG     O19 4182   1.507   1.591   0.657  0.0803 -0.4320 -0.0592
  182DG     H20 4183   1.479   1.472   0.839 -2.3736 -0.6100  0.0862
  182DG     H21 4184   1.507   1.637   0.859  1.0780  1.6957 -2.5266
  182DG     H22 4185   1.617   1.427   0.610 -2.2564  1.2230 -1.1835
  182DG     H23 4186   1.697   1.536   0.718 -0.4633 -0.2713  1.4181
  183DG      C1 4187   1.938   4.530   0.688 -0.3982  0.1041  0.6500
  183DG      C2 4188   2.362   4.015   1.203  0.2497 -0.3504  0.5259
  183DG      H3 4189   2.024   4.525   0.621  0.7566 -2.4099  2.1748
  183DG      H4 4190   1.873   4.616   0.674  2.3305  2.8626  3.3423
  183DG      H5 4191   1.876   4.440   0.681  2.4107 -2.0577  1.4757
  183DG      H6 4192   2.334   3.924   1.149  1.9209  0.0065 -1.0424
  183DG      H7 4193   2.464   4.044   1.180 -0.4504  0.5355 -1.7847
  183DG      H8 4194   2.344   3.999   1.309  0.2772 -2.2099  0.2896
  183DG      O9 4195   1.999   4.551   0.816 -0.1372 -0.0477  0.1485
  183DG     O10 4196   2.274   4.116   1.158 -0.2059 -0.0509 -0.3019
  183DG     C11 4197   2.107   4.470   0.846 -0.0844 -0.0119 -0.3266
  183DG     C12 4198   2.322   4.240   1.200 -0.1967 -0.5171  0.1391
  183DG     H13 4199   2.204   4.498   0.806 -0.0106 -0.4166 -0.4424
  183DG     H14 4200   2.084   4.367   0.819 -0.8644  0.4942 -1.7180
  183DG     H15 4201   2.425   4.266   1.175 -0.0857 -2.0746 -1.2011
  183DG     H16 4202   2.327   4.238   1.309  1.9763 -2.2385  0.0662
  183DG     C17 4203   2.119   4.471   1.001 -0.0346  0.1839  0.0810
  183DG     C18 4204   2.220   4.347   1.178  0.0327  0.4038 -0.4884
  183DG     O19 4205   2.217   4.369   1.039 -0.0844 -0.5561 -0.0747
  183DG     H20 4206   2.024   4.444   1.045 -0.1144  0.7838  0.2827
  183DG     H21 4207   2.158   4.565   1.040 -0.5353  0.0527  0.9114
  183DG     H22 4208   2.126   4.309   1.217 -0.2245 -0.5564 -1.9506
  183DG     H23 4209   2.247   4.435   1.237 -0.3737  0.0267  0.2747
  184DG      C1 4210   2.733   4.408   3.868 -0.1577 -0.5485  0.0273
  184DG      C2 4211   3.402   4.975   3.843 -0.0692  0.0589  0.4255
  184DG      H3 4212   2.693   4.432   3.966 -0.9018 -0.9077 -0.1860
  184DG      H4 4213   2.785   4.313   3.857  1.4796  0.4482 -1.6549
  184DG      H5 4214   2.648   4.420   3.801 -0.0470  1.5882  0.1749
  184DG      H6 4215   3.441   5.064   3.793 -0.5078 -1.1039 -2.2139
  184DG      H7 4216   3.411   4.966   3.951 -1.6570 -1.0314  0.4846
  184DG      H8 4217   3.473   4.898   3.813 -0.0430 -0.1927  1.1223
  184DG      O9 4218   2.830   4.512   3.844 -0.2920 -0.4562 -0.2575
  184DG     O10 4219   3.273   4.940   3.789  0.4546  0.8783  0.1201
  184DG     C11 4220   2.773   4.637   3.849  0.4701  0.1733 -0.2988
  184DG     C12 4221   3.199   4.861   3.871  0.5892 -0.3049 -0.2301
  184DG     H13 4222   2.760   4.682   3.948  1.2756  2.1062 -1.0469
  184DG     H14 4223   2.677   4.650   3.799  0.4892  1.0244 -0.1185
  184DG     H15 4224   3.155   4.936   3.936  0.3085 -0.0056 -0.7573
  184DG     H16 4225   3.246   4.781   3.928 -0.7017 -1.2472 -0.4505
  184DG     C17 4226   2.864   4.742   3.782 -0.4994 -0.3622 -0.3908
  184DG     C18 4227   3.097   4.798   3.780  0.4057  0.1801 -0.5026
  184DG     O19 4228   2.988   4.754   3.853  0.0574 -0.1831  0.4074
  184DG     H20 4229   2.828   4.844   3.788 -0.0338  0.0866 -3.5824
  184DG     H21 4230   2.889   4.722   3.678 -0.3107  0.9491 -0.6158
  184DG     H22 4231   3.065   4.860   3.696  0.8050 -0.2089 -0.9483
  184DG     H23 4232   3.151   4.717   3.731 -2.2298 -0.9498 -1.7694
  185DG      C1 4233   5.138   4.813   0.471  0.2499  0.2290 -0.5252
  185DG      C2 4234   5.474   5.159   0.713  0.2000 -0.1322  0.1966
  185DG      H3 4235   5.124   4.715   0.518 -1.2474  1.4975  1.8484
  185DG      H4 4236   5.061   4.835   0.397  1.3340  0.1522 -1.7116
  185DG      H5 4237   5.117   4.878   0.556 -2.5833 -1.2867  0.0741
  185DG      H6 4238   5.475   5.123   0.816  1.0211  3.7339  1.7239
  185DG      H7 4239   5.452   5.266   0.705  2.2000  0.2820 -0.3948
  185DG      H8 4240   5.407   5.095   0.656 -0.0846 -1.4665  1.9509
  185DG      O9 4241   5.267   4.836   0.426  0.2521  0.1680  0.4296
  185DG     O10 4242   5.608   5.137   0.675 -0.0821 -0.0352  0.6083
  185DG     C11 4243   5.284   4.948   0.342 -0.1503  0.3226  1.2125
  185DG     C12 4244   5.637   5.196   0.545  0.1180  0.1021 -0.2806
  185DG     H13 4245   5.228   5.032   0.382 -0.6263  1.3390 -1.4183
  185DG     H14 4246   5.242   4.935   0.242  0.7707  1.3807  0.6626
  185DG     H15 4247   5.745   5.210   0.538  0.3575 -0.3598  1.8221
  185DG     H16 4248   5.593   5.293   0.524 -0.4802 -0.5031 -1.9984
  185DG     C17 4249   5.427   4.990   0.324  0.4593 -0.3591 -0.0058
  185DG     C18 4250   5.601   5.103   0.436  0.7245  0.1307  0.7269
  185DG     O19 4251   5.463   5.073   0.436 -0.9589  0.1586  0.0313
  185DG     H20 4252   5.437   5.055   0.237 -2.1350  0.8560  0.5105
  185DG     H21 4253   5.495   4.905   0.320 -0.1170 -0.7883 -2.3568
  185DG     H22 4254   5.627   5.149   0.341 -0.3784 -2.5711 -1.0377
  185DG     H23 4255   5.666   5.015   0.437  2.0646  1.0557 -0.6907
  186DG      C1 4256   3.980   3.213   4.719  0.6443  0.9035 -0.8168
  186DG      C2 4257   3.313   3.458   4.974 -0.0398  0.7010  0.5296
  186DG      H3 4258   3.987   3.143   4.636 -0.4211 -3.3298  2.3112
  186DG      H4 4259   4.056   3.193   4.795 -0.9123  0.9611  0.8156
  186DG      H5 4260   4.004   3.312   4.680  0.6271  0.2165 -2.6441
  186DG      H6 4261   3.305   3.512   5.069  2.2376  0.8789  0.6770
  186DG      H7 4262   3.359   3.525   4.902 -0.1516  1.3014  1.0062
  186DG      H8 4263   3.216   3.431   4.933  0.4322 -1.8144  0.9043
  186DG      O9 4264   3.857   3.214   4.784 -0.1036 -0.0061  0.0893
  186DG     O10 4265   3.378   3.330   4.993 -0.2153 -0.1482  0.2089
  186DG     C11 4266   3.809   3.085   4.825  0.0968 -0.7079  0.1708
  186DG     C12 4267   3.495   3.347   5.069 -0.2838 -0.0312 -1.1438
  186DG     H13 4268   3.894   3.016   4.830 -0.8865 -1.9551  0.3571
  186DG     H14 4269   3.743   3.037   4.752  3.1407 -2.9677 -1.3187
  186DG     H15 4270   3.471   3.373   5.172 -2.0075 -1.3180 -1.1748
  186DG     H16 4271   3.549   3.433   5.030  0.2477 -0.3464 -1.1136
  186DG     C17 4272   3.740   3.094   4.956  0.6185 -0.2622 -0.0702
  186DG     C18 4273   3.589   3.227   5.077  0.5878  0.7960 -0.1435
  186DG     O19 4274   3.654   3.207   4.954  0.7321  0.0899  0.2200
  186DG     H20 4275   3.810   3.105   5.039  1.3645 -1.8717 -0.4583
  186DG     H21 4276   3.684   3.004   4.985  1.1095 -0.2918  0.8233
  186DG     H22 4277   3.660   3.243   5.157  0.8026 -2.2800  0.4105
  186DG     H23 4278   3.531   3.139   5.106 -1.8128  2.9385  2.1512
  187DG      C1 4279   1.874   3.793   2.556 -0.3148  0.3696 -0.5416
  187DG      C2 4280   1.704   3.233   3.125 -0.1220  0.0219 -0.1069
  187DG      H3 4281   1.817   3.794   2.463 -1.6194 -3.0201  0.0696
  187DG      H4 4282   1.976   3.756   2.543  0.6887  3.6549 -3.5864
  187DG      H5 4283   1.875   3.898   2.585 -5.7529  0.3325  0.8420
  187DG      H6 4284   1.779   3.180   3.182 -0.4688 -1.1758 -0.7233
  187DG      H7 4285   1.613   3.208   3.180  0.6868  0.3251  1.4102
  187DG      H8 4286   1.686   3.180   3.031 -3.3074  1.2328 -0.3103
  187DG      O9 4287   1.800   3.723   2.648 -0.7363  0.6435 -0.3299
  187DG     O10 4288   1.743   3.364   3.098 -0.6558  0.0909  0.2700
  187DG     C11 4289   1.763   3.590   2.626  0.4154  0.7013  0.6703
  187DG     C12 4290   1.638   3.442   3.047 -0.1278 -0.8090  0.1084
  187DG     H13 4291   1.853   3.532   2.607 -0.4361 -0.0233 -1.4401
  187DG     H14 4292   1.717   3.578   2.529 -1.0194  1.1225  1.2764
  187DG     H15 4293   1.592   3.478   3.139  0.2598 -0.1063  0.0353
  187DG     H16 4294   1.557   3.390   2.995 -0.2356 -0.5558  0.0198
  187DG     C17 4295   1.685   3.529   2.743 -0.0542  0.1305  0.1689
  187DG     C18 4296   1.695   3.579   2.980  0.3205 -0.5117 -0.0257
  187DG     O19 4297   1.765   3.551   2.863 -0.1962 -0.0116  0.3139
  187DG     H20 4298   1.675   3.422   2.728 -0.7127  0.3462 -1.0736
  187DG     H21 4299   1.585   3.573   2.751 -0.4263 -0.9637  2.0565
  187DG     H22 4300   1.613   3.649   2.962 -1.2478 -1.1442  3.6762
  187DG     H23 4301   1.756   3.619   3.060 -0.7531  2.6911 -0.6713
  188DG      C1 4302   5.502   0.961   0.429 -0.2233  0.0812  0.1088
  188DG      C2 4303   5.898   0.428   0.081  0.9337 -0.5106  0.3461
  188DG      H3 4304   5.415   0.986   0.490 -1.5009 -2.6978 -0.4417
  188DG      H4 4305   5.499   1.025   0.340 -4.1719 -0.3797 -0.3053
  188DG      H5 4306   5.590   0.976   0.491  0.9715  1.2376 -1.7784
  188DG      H6 4307   5.996   0.418   0.128  0.5677  0.0739  1.2708
  188DG      H7 4308   5.886   0.322   0.056  0.7749 -0.4904  0.3384
  188DG      H8 4309   5.899   0.492  -0.007 -2.8329  0.0615  0.5412
  188DG      O9 4310   5.502   0.818   0.391 -0.0155 -0.1960 -0.8106
  188DG     O10 4311   5.785   0.479   0.161 -0.2450 -0.4050 -0.1069
  188DG     C11 4312   5.398   0.787   0.299  0.2634 -0.7611  0.2036
  188DG     C12 4313   5.663   0.461   0.096 -0.5524 -0.0788  0.2020
  188DG     H13 4314   5.409   0.850   0.211 -0.1153 -2.5944 -1.2258
  188DG     H14 4315   5.300   0.809   0.342  1.8612  1.6212  2.9280
  188DG     H15 4316   5.658   0.365   0.044  1.3090 -0.9364  1.4909
  188DG     H16 4317   5.649   0.533   0.015  1.3279 -0.5144 -0.5853
  188DG     C17 4318   5.399   0.643   0.260 -0.3400 -0.2556  0.1326
  188DG     C18 4319   5.546   0.471   0.190 -0.1793  0.1222  0.0395
  188DG     O19 4320   5.539   0.606   0.230  0.1234  0.4397  0.0589
  188DG     H20 4321   5.334   0.623   0.175 -0.9861 -3.4156  1.2332
  188DG     H21 4322   5.360   0.579   0.339 -1.3511 -0.4899 -0.5304
  188DG     H22 4323   5.459   0.450   0.128  2.5897 -1.5334 -3.6205
  188DG     H23 4324   5.543   0.395   0.269  3.1705  1.5543  1.7630
  189DG      C1 4325   2.770   0.232   2.771 -0.3569  0.5218  0.0560
  189DG      C2 4326   2.773   0.710   2.350  0.5393 -0.3712 -0.3018
  189DG      H3 4327   2.846   0.156   2.789 -1.4036 -0.6959 -0.5711
  189DG      H4 4328   2.687   0.186   2.824 -0.8957 -1.6666 -2.4889
  189DG      H5 4329   2.798   0.327   2.817 -1.8225  1.0221 -0.0344
  189DG      H6 4330   2.724   0.790   2.406 -1.2741 -1.2208 -0.6097
  189DG      H7 4331   2.865   0.683   2.401 -0.1447 -2.5926 -0.1624
  189DG      H8 4332   2.793   0.763   2.257 -1.8231  0.3623 -0.4676
  189DG      O9 4333   2.737   0.259   2.638  0.2290 -0.6385 -0.7533
  189DG     O10 4334   2.695   0.594   2.335 -0.4383 -0.3328 -0.4059
  189DG     C11 4335   2.717   0.146   2.558 -0.7569 -0.1489 -0.4167
  189DG     C12 4336   2.743   0.502   2.234 -0.3184  0.3046 -0.5962
  189DG     H13 4337   2.633   0.085   2.593 -1.3587  0.5617 -0.5763
  189DG     H14 4338   2.802   0.078   2.559 -1.3422 -1.0349  2.6912
  189DG     H15 4339   2.851   0.498   2.245 -0.1494 -0.5701 -2.3452
  189DG     H16 4340   2.731   0.542   2.133 -0.3352  1.0217 -0.3184
  189DG     C17 4341   2.667   0.200   2.421  0.5996 -0.4392 -0.2562
  189DG     C18 4342   2.684   0.364   2.254  0.0501  0.1418 -0.7376
  189DG     O19 4343   2.736   0.313   2.377 -0.2087 -0.1122  0.5215
  189DG     H20 4344   2.558   0.213   2.428  0.6591 -0.1474  0.2112
  189DG     H21 4345   2.671   0.118   2.350 -0.9573 -1.1166  0.3727
  189DG     H22 4346   2.579   0.387   2.276  0.8552  0.9015  2.9732
  189DG     H23 4347   2.703   0.308   2.163  1.0479 -0.0769 -0.4017
  190DG      C1 4348   2.727   4.559   0.311  0.2928  0.6601  0.2223
  190DG      C2 4349   2.687   4.861  -0.486 -0.4248  0.0804 -0.8978
  190DG      H3 4350   2.717   4.457   0.274 -1.0007  0.4313  1.1293
  190DG      H4 4351   2.726   4.555   0.420 -1.1479 -0.1611  0.2028
  190DG      H5 4352   2.823   4.601   0.280  0.0064  0.7762 -0.5408
  190DG      H6 4353   2.683   4.763  -0.534 -1.3543 -0.1887 -0.2870
  190DG      H7 4354   2.591   4.905  -0.512 -1.4089 -0.8235  0.9888
  190DG      H8 4355   2.771   4.915  -0.529  0.9343  0.0930  1.5732
  190DG      O9 4356   2.633   4.648   0.258 -0.0222 -0.1540  0.3498
  190DG     O10 4357   2.698   4.857  -0.342  0.1528 -0.4045  0.2807
  190DG     C11 4358   2.628   4.646   0.118  0.0054 -0.3631  0.0007
  190DG     C12 4359   2.818   4.792  -0.301  0.3609 -0.2676 -0.6198
  190DG     H13 4360   2.531   4.690   0.096  0.0163 -0.9416 -1.2815
  190DG     H14 4361   2.619   4.542   0.086 -0.4452  0.1339 -1.5984
  190DG     H15 4362   2.909   4.828  -0.349 -0.0325  0.5882 -0.7299
  190DG     H16 4363   2.804   4.689  -0.334  0.9170 -0.1303 -1.3196
  190DG     C17 4364   2.744   4.722   0.046 -0.4862  0.0229 -0.2052
  190DG     C18 4365   2.830   4.802  -0.153  0.1416  0.0236 -0.1364
  190DG     O19 4366   2.721   4.737  -0.089 -0.3343  0.4825 -0.1088
  190DG     H20 4367   2.829   4.654   0.059 -0.3720 -0.1740 -1.8328
  190DG     H21 4368   2.764   4.820   0.089 -1.4115  0.9906 -1.8802
  190DG     H22 4369   2.914   4.746  -0.114 -0.5602  0.2492  1.7924
  190DG     H23 4370   2.842   4.905  -0.121 -0.2385  0.3110 -0.8907
  191DG      C1 4371   2.413   1.767   1.335 -0.5151 -0.2871 -0.1576
  191DG      C2 4372   2.238   1.726   0.697 -0.3812 -1.0646  0.1507
  191DG      H3 4373   2.431   1.661   1.319  1.2600  0.2022 -1.8008
  191DG      H4 4374   2.304   1.775   1.340 -0.5456 -1.1915  1.0595
  191DG      H5 4375   2.464   1.796   1.427  0.7472 -0.8639 -0.6508
  191DG      H6 4376   2.256   1.619   0.708  1.3867 -1.4321 -4.1789
  191DG      H7 4377   2.133   1.754   0.706 -0.1436 -0.4095  1.0413
  191DG      H8 4378   2.272   1.758   0.598 -1.5047 -1.1102 -0.2705
  191DG      O9 4379   2.463   1.848   1.225  0.0860 -0.1672  0.5723
  191DG     O10 4380   2.320   1.801   0.788 -0.2839 -0.6163  0.2047
  191DG     C11 4381   2.420   1.982   1.230 -0.1506 -0.0812 -0.7027
  191DG     C12 4382   2.302   1.947   0.766 -0.4741  0.4679  0.0982
  191DG     H13 4383   2.473   2.031   1.312 -3.5530  1.4588  0.7653
  191DG     H14 4384   2.313   1.984   1.249 -0.0302  2.4042  0.0944
  191DG     H15 4385   2.198   1.980   0.775  0.4216  3.4520  0.3479
  191DG     H16 4386   2.338   1.955   0.664 -0.3942  0.1322  0.0992
  191DG     C17 4387   2.452   2.042   1.093 -0.6777 -0.3247 -0.2280
  191DG     C18 4388   2.399   2.024   0.862  0.0042 -0.1610 -0.3294
  191DG     O19 4389   2.375   1.971   0.993  0.1578 -0.5429 -0.0249
  191DG     H20 4390   2.558   2.033   1.071 -1.3134 -2.8218 -2.8675
  191DG     H21 4391   2.427   2.148   1.089  0.5465  0.0246  0.9261
  191DG     H22 4392   2.503   2.002   0.835 -0.0151 -1.1505  0.3307
  191DG     H23 4393   2.380   2.131   0.853 -1.8778 -0.5147 -1.0733
  192DG      C1 4394   2.965   2.996   1.478 -0.4476 -0.4384  1.0965
  192DG      C2 4395   2.409   3.307   1.336  0.4343  0.1484  0.2965
  192DG      H3 4396   3.017   3.068   1.541  1.3664 -1.3377  0.7143
  192DG      H4 4397   2.893   3.050   1.418  2.9079  0.8173 -2.1977
  192DG      H5 4398   3.035   2.952   1.407 -1.1418 -0.6950  0.5681
  192DG      H6 4399   2.397   3.315   1.228  1.4233  0.2325  0.1908
  192DG      H7 4400   2.312   3.322   1.384  0.4027 -0.0717  0.3028
  192DG      H8 4401   2.485   3.380   1.364  0.0240 -0.0889  2.2008
  192DG      O9 4402   2.927   2.889   1.561  0.0419  0.4062 -0.3951
  192DG     O10 4403   2.448   3.171   1.367 -0.0198  0.0612 -0.2710
  192DG     C11 4404   2.823   2.800   1.509  0.2166 -0.7406  0.4741
  192DG     C12 4405   2.559   3.114   1.292  0.6676  0.4586  0.3590
  192DG     H13 4406   2.824   2.699   1.550  0.9448 -0.1456  2.0033
  192DG     H14 4407   2.828   2.779   1.402  1.2593  2.0685 -0.1117
  192DG     H15 4408   2.652   3.171   1.291  0.6499  0.4903  0.4531
  192DG     H16 4409   2.524   3.102   1.190  0.1898  0.9036  0.4649
  192DG     C17 4410   2.680   2.855   1.543 -0.4816 -0.3963 -0.2040
  192DG     C18 4411   2.598   2.979   1.350 -0.3028  0.1959 -0.0836
  192DG     O19 4412   2.660   2.990   1.484  0.1077  0.4327 -0.3143
  192DG     H20 4413   2.675   2.854   1.652  0.4944  0.8717 -0.1276
  192DG     H21 4414   2.607   2.784   1.504 -0.3004 -1.2879  1.0244
  192DG     H22 4415   2.511   2.915   1.353 -1.5159  1.7845 -0.1537
  192DG     H23 4416   2.667   2.923   1.286 -0.9371  0.8572 -1.3974
  193DG      C1 4417   3.017   5.393   4.663  0.0933  0.1370  0.4328
  193DG      C2 4418   3.462   5.048   4.904 -0.0381 -0.2269  0.4539
  193DG      H3 4419   3.003   5.496   4.695  1.1361  0.6752 -0.7444
  193DG      H4 4420   2.942   5.373   4.587  1.4120 -1.3771 -0.5406
  193DG      H5 4421   3.116   5.373   4.621 -0.0461 -1.9513  0.9584
  193DG      H6 4422   3.493   4.949   4.872 -0.7302 -0.1190 -0.5846
  193DG      H7 4423   3.507   5.117   4.831 -1.6756 -0.9273 -1.2972
  193DG      H8 4424   3.508   5.064   5.002  2.0701 -1.3732 -0.2827
  193DG      O9 4425   3.020   5.303   4.770  0.3806  0.1809 -0.3485
  193DG     O10 4426   3.320   5.066   4.897  0.2071  0.3783  0.6311
  193DG     C11 4427   2.923   5.313   4.869  0.6293 -0.3082 -0.1539
  193DG     C12 4428   3.254   5.007   5.010 -0.4796 -0.0193  0.1708
  193DG     H13 4429   2.836   5.318   4.803  0.8485 -1.0154 -0.5104
  193DG     H14 4430   2.922   5.397   4.939  0.5793  0.2967 -0.8773
  193DG     H15 4431   3.268   5.062   5.103 -2.9932  0.9969  0.0222
  193DG     H16 4432   3.296   4.909   5.031 -1.1652 -0.2069  0.6942
  193DG     C17 4433   2.928   5.173   4.936  0.3712 -0.5682  0.5487
  193DG     C18 4434   3.103   5.006   4.974  0.3428 -0.2784  0.3516
  193DG     O19 4435   3.054   5.142   4.978  0.0738 -0.0316  0.1582
  193DG     H20 4436   2.886   5.103   4.864 -0.0670 -2.1209  2.2670
  193DG     H21 4437   2.858   5.165   5.019 -1.1620 -1.2141 -0.7694
  193DG     H22 4438   3.098   4.952   4.880 -0.6786 -1.0447  0.8351
  193DG     H23 4439   3.048   4.948   5.048 -1.5221  0.9990  0.0396
  194DG      C1 4440   1.586   4.688   5.434 -0.2031 -0.0260  0.2334
  194DG      C2 4441   2.244   4.919   5.777 -0.1869 -0.4090 -0.5059
  194DG      H3 4442   1.620   4.762   5.361  1.1488  0.0098  0.8540
  194DG      H4 4443   1.489   4.714   5.475 -0.5915 -2.6780  1.1684
  194DG      H5 4444   1.592   4.599   5.372  1.2191  0.2438 -0.0515
  194DG      H6 4445   2.338   4.889   5.824  0.2548  0.3551 -0.8698
  194DG      H7 4446   2.264   5.018   5.736 -1.9305  0.4066  0.5079
  194DG      H8 4447   2.174   4.926   5.860  0.4615 -1.4663  0.1462
  194DG      O9 4448   1.672   4.672   5.549  0.5796  0.4808  0.4963
  194DG     O10 4449   2.205   4.823   5.682 -0.0188  0.7308 -0.3239
  194DG     C11 4450   1.704   4.799   5.592 -0.3052 -0.0488  0.3787
  194DG     C12 4451   2.163   4.698   5.730 -0.0157 -1.5223 -0.3921
  194DG     H13 4452   1.627   4.866   5.630  0.8816 -0.2830  3.5503
  194DG     H14 4453   1.756   4.843   5.507 -2.5073  0.0513 -0.9964
  194DG     H15 4454   2.216   4.671   5.821  1.0180 -0.7162 -0.7320
  194DG     H16 4455   2.196   4.626   5.655  1.9082 -0.0844 -1.0075
  194DG     C17 4456   1.807   4.775   5.703 -0.4449 -0.4893  0.6752
  194DG     C18 4457   2.017   4.689   5.765 -0.1970  0.3980  0.6074
  194DG     O19 4458   1.941   4.747   5.656  0.6785  0.6320  0.0586
  194DG     H20 4459   1.758   4.695   5.758 -0.8486 -1.0664 -0.4955
  194DG     H21 4460   1.801   4.865   5.764  1.0249 -0.2075  0.4288
  194DG     H22 4461   1.980   4.586   5.774  0.5879  0.1208  0.7672
  194DG     H23 4462   1.992   4.742   5.857 -1.6298  0.7807  0.0367
  195DG      C1 4463   1.812   0.722   2.200  0.1079  0.1235  0.4009
  195DG      C2 4464   1.751   0.440   1.603 -0.1270  0.2402 -0.2167
  195DG      H3 4465   1.770   0.773   2.287 -0.4222  0.9767 -0.3440
  195DG      H4 4466   1.912   0.762   2.183  0.4015  0.6062  2.8776
  195DG      H5 4467   1.818   0.622   2.244  2.8029  0.4317  0.8564
  195DG      H6 4468   1.669   0.382   1.646 -1.3987  2.7356  0.9415
  195DG      H7 4469   1.742   0.454   1.495  1.1826 -0.5882 -0.4676
  195DG      H8 4470   1.838   0.375   1.615  0.4442  1.0895  0.3362
  195DG      O9 4471   1.708   0.732   2.098  0.1339 -0.0464 -0.6627
  195DG     O10 4472   1.764   0.559   1.676 -0.6061  0.3559  0.2029
  195DG     C11 4473   1.697   0.868   2.061 -0.3248 -1.0960  0.0936
  195DG     C12 4474   1.695   0.663   1.611 -0.6397  1.0373 -0.3653
  195DG     H13 4475   1.742   0.943   2.126  0.0022 -0.0189 -1.3298
  195DG     H14 4476   1.592   0.895   2.047  0.1237  0.8648  0.2918
  195DG     H15 4477   1.587   0.650   1.618 -0.4345  0.1238  1.9696
  195DG     H16 4478   1.724   0.676   1.507  1.5304 -1.4892 -0.1698
  195DG     C17 4479   1.747   0.878   1.913  0.2727  0.2541  0.3808
  195DG     C18 4480   1.715   0.793   1.691 -1.0506 -0.4055 -0.2247
  195DG     O19 4481   1.682   0.778   1.828  0.4984 -0.6098 -0.4160
  195DG     H20 4482   1.856   0.882   1.903  0.3710  1.5532  1.7040
  195DG     H21 4483   1.720   0.976   1.873  1.1412  0.3563  0.0230
  195DG     H22 4484   1.822   0.807   1.684 -1.1613 -0.1911 -1.9293
  195DG     H23 4485   1.688   0.886   1.640  0.4978  0.0227 -0.2962
  196DG      C1 4486   4.533   2.337   3.438  0.0135  0.8713  0.2893
  196DG      C2 4487   3.838   2.577   3.527  0.9327  0.1351 -0.0744
  196DG      H3 4488   4.601   2.370   3.360  0.6631  0.3812  0.6377
  196DG      H4 4489   4.534   2.229   3.452  2.4642  1.0771  2.5174
  196DG      H5 4490   4.584   2.372   3.528 -0.7870  1.2294  0.6113
  196DG      H6 4491   3.857   2.624   3.624  1.6111  1.3387 -0.7628
  196DG      H7 4492   3.749   2.621   3.483 -0.8053 -0.6788  2.3771
  196DG      H8 4493   3.822   2.470   3.538 -2.3680  0.2643 -2.3279
  196DG      O9 4494   4.406   2.400   3.422  0.0696  0.7755  0.2280
  196DG     O10 4495   3.957   2.601   3.464 -0.4031  1.0492 -0.1006
  196DG     C11 4496   4.410   2.538   3.445  0.0968  0.0757 -0.4299
  196DG     C12 4497   3.957   2.600   3.318 -1.0775 -0.2510 -0.3256
  196DG     H13 4498   4.468   2.592   3.370  0.9237 -1.0409 -0.6174
  196DG     H14 4499   4.446   2.563   3.545 -2.0408  1.1441  0.1324
  196DG     H15 4500   3.889   2.675   3.279 -1.1050  0.6574  1.3768
  196DG     H16 4501   3.931   2.503   3.275 -0.7667  0.1993 -1.5696
  196DG     C17 4502   4.269   2.604   3.433 -0.2348  0.6529 -0.1638
  196DG     C18 4503   4.096   2.647   3.266 -0.1198  0.2875 -0.1523
  196DG     O19 4504   4.208   2.573   3.310 -0.0756  0.5428 -0.3208
  196DG     H20 4505   4.274   2.711   3.449  0.2275  0.4326  1.3149
  196DG     H21 4506   4.202   2.567   3.511  2.3430 -1.6949  1.1299
  196DG     H22 4507   4.085   2.639   3.158 -0.6630 -2.0690  0.0271
  196DG     H23 4508   4.122   2.751   3.284 -0.9753  0.3824  0.6207
  197DG      C1 4509   3.204   3.157   5.315  0.4684  0.1697 -0.0200
  197DG      C2 4510   2.578   2.915   5.384 -0.0943 -0.5951 -0.1974
  197DG      H3 4511   3.261   3.113   5.397  0.5606 -1.5471 -0.9580
  197DG      H4 4512   3.249   3.249   5.276 -1.1368  0.9294 -0.1723
  197DG      H5 4513   3.214   3.090   5.229 -1.3935 -0.2291  0.0321
  197DG      H6 4514   2.575   2.851   5.296 -2.3358 -2.1857  0.9519
  197DG      H7 4515   2.499   2.881   5.450 -0.7018 -0.0034 -0.6069
  197DG      H8 4516   2.554   3.019   5.363 -0.2227 -0.6454 -0.2969
  197DG      O9 4517   3.062   3.170   5.357  0.4791 -0.0224 -0.2270
  197DG     O10 4518   2.702   2.903   5.444 -0.1388  0.3746 -0.6507
  197DG     C11 4519   3.046   3.264   5.458  0.3743 -0.0074  0.0888
  197DG     C12 4520   2.708   2.961   5.575  0.3402 -0.1797 -1.2200
  197DG     H13 4521   3.058   3.362   5.413  1.7935 -0.7642 -1.2692
  197DG     H14 4522   3.128   3.258   5.530  0.4865  1.7187  0.1350
  197DG     H15 4523   2.784   2.903   5.627 -1.9173 -0.4860  2.0143
  197DG     H16 4524   2.610   2.944   5.618  0.5196 -2.4972 -1.6174
  197DG     C17 4525   2.906   3.252   5.515 -0.4513  0.6094 -0.0853
  197DG     C18 4526   2.738   3.111   5.574 -0.1757  0.6599 -0.6040
  197DG     O19 4527   2.873   3.114   5.531  0.1524  0.0296  0.0167
  197DG     H20 4528   2.839   3.295   5.440 -0.1509 -1.3278 -1.5424
  197DG     H21 4529   2.887   3.313   5.603  0.3004 -0.5360  0.8927
  197DG     H22 4530   2.660   3.153   5.511 -1.2190  0.7849  0.7142
  197DG     H23 4531   2.729   3.169   5.666  0.2255 -0.6741  0.3070
  198DG      C1 4532   4.664   3.989   5.095 -0.0546 -0.5945 -0.2519
  198DG      C2 4533   4.733   4.476   4.561 -0.4497 -0.4758  0.3828
  198DG      H3 4534   4.563   4.030   5.109 -0.0060 -0.0113 -1.4749
  198DG      H4 4535   4.704   4.020   5.191  0.9430  0.4615 -0.9793
  198DG      H5 4536   4.642   3.883   5.099  1.0084 -0.7846  1.2085
  198DG      H6 4537   4.778   4.524   4.474  0.3981  0.0812  1.1167
  198DG      H7 4538   4.626   4.469   4.538 -0.1502 -0.3950 -1.1631
  198DG      H8 4539   4.748   4.544   4.645  2.0063 -2.6086  1.8123
  198DG      O9 4540   4.715   4.040   4.967 -0.0815 -0.0256  0.3368
  198DG     O10 4541   4.789   4.350   4.588  0.4362  0.4240  0.3867
  198DG     C11 4542   4.844   3.990   4.942  0.5487 -0.2185 -0.2406
  198DG     C12 4543   4.922   4.357   4.628 -0.1627  0.2223  0.3587
  198DG     H13 4544   4.835   3.881   4.947 -2.4035 -0.1200 -1.4403
  198DG     H14 4545   4.912   4.012   5.025  0.3572 -1.2862  0.2131
  198DG     H15 4546   4.949   4.413   4.718 -0.3378  1.4808 -0.3476
  198DG     H16 4547   4.974   4.385   4.536 -0.8615 -1.3928 -0.5597
  198DG     C17 4548   4.883   4.025   4.797 -0.2640 -0.0449 -0.5358
  198DG     C18 4549   4.964   4.214   4.665  0.0637  0.8299  0.3185
  198DG     O19 4550   4.895   4.166   4.783  0.0586 -0.2177  0.6551
  198DG     H20 4551   4.814   3.989   4.721 -0.0800  0.6665 -1.0438
  198DG     H21 4552   4.979   3.979   4.774  0.0509  0.1547  0.3309
  198DG     H22 4553   4.951   4.145   4.582 -1.6651  0.2226  1.0397
  198DG     H23 4554   5.070   4.199   4.688 -0.1487 -2.0119 -0.1237
  199DG      C1 4555   4.042   2.854   3.751  0.2626  0.9118 -0.1289
  199DG      C2 4556   3.851   3.593   3.652 -0.0599  0.2822 -0.0815
  199DG      H3 4557   4.144   2.848   3.788  0.2935  3.4969  0.3698
  199DG      H4 4558   4.029   2.764   3.691  1.1692  1.2118 -0.7892
  199DG      H5 4559   3.974   2.841   3.835 -1.0058 -1.0919 -1.3817
  199DG      H6 4560   3.876   3.660   3.569 -1.2242 -1.8015 -2.2405
  199DG      H7 4561   3.742   3.594   3.659 -0.0590  2.3818  0.3362
  199DG      H8 4562   3.895   3.623   3.747  0.6918 -2.5321  0.5435
  199DG      O9 4563   4.025   2.959   3.654  0.1407  0.2359  0.3584
  199DG     O10 4564   3.900   3.468   3.614 -0.8053  0.1734 -0.1552
  199DG     C11 4565   3.893   2.988   3.619  0.5599 -0.7906 -0.4394
  199DG     C12 4566   3.858   3.409   3.484 -0.6492 -0.3412  0.0103
  199DG     H13 4567   3.850   3.026   3.712  1.1142 -3.7226  1.1260
  199DG     H14 4568   3.835   2.902   3.588  0.9329 -0.5991 -1.7004
  199DG     H15 4569   3.843   3.484   3.406  0.1045 -0.2678 -0.0660
  199DG     H16 4570   3.763   3.358   3.497 -0.7318 -0.5302 -1.2997
  199DG     C17 4571   3.895   3.094   3.501  0.2665 -0.4009  0.1028
  199DG     C18 4572   3.965   3.312   3.442  0.5944  0.7753  0.6327
  199DG     O19 4573   3.980   3.203   3.534 -0.2225 -0.4470 -0.0294
  199DG     H20 4574   3.791   3.127   3.506  0.7733  1.2793 -0.0584
  199DG     H21 4575   3.918   3.047   3.405 -0.8064  0.5183 -0.6326
  199DG     H22 4576   3.933   3.286   3.341  0.3811  1.2322  0.5779
  199DG     H23 4577   4.064   3.352   3.421  0.8245  0.0240  0.2648
  200DG      C1 4578   2.468   4.157   2.782  0.5774 -0.2727 -0.4654
  200DG      C2 4579   2.944   3.981   3.488 -0.0145  0.3732  0.0299
  200DG      H3 4580   2.558   4.192   2.731  1.6592 -1.1063  0.8082
  200DG      H4 4581   2.429   4.252   2.817  0.6157 -0.6686  0.7000
  200DG      H5 4582   2.398   4.109   2.714  0.4091 -1.3476  0.4366
  200DG      H6 4583   2.935   3.950   3.592  1.3472 -0.2790 -0.0139
  200DG      H7 4584   3.026   3.920   3.448 -0.4530  1.2317 -2.3743
  200DG      H8 4585   2.993   4.077   3.505  1.5234 -0.7509  2.5113
  200DG      O9 4586   2.475   4.073   2.899  0.3905 -0.4870 -0.1975
  200DG     O10 4587   2.838   3.993   3.403 -0.3540 -0.4859  1.0127
  200DG     C11 4588   2.570   4.120   2.999  0.3781 -0.0277 -0.3872
  200DG     C12 4589   2.741   4.092   3.444 -0.4525  0.1153  1.0572
  200DG     H13 4590   2.552   4.228   3.004 -1.2705 -0.3287  1.5375
  200DG     H14 4591   2.674   4.116   2.966  0.3723 -1.2594 -0.2885
  200DG     H15 4592   2.777   4.194   3.445 -0.0167 -0.0280  0.5266
  200DG     H16 4593   2.720   4.071   3.549 -2.0315 -0.0922  0.7285
  200DG     C17 4594   2.542   4.057   3.137 -0.3755  0.5576  0.1328
  200DG     C18 4595   2.612   4.072   3.361 -0.1870  0.2922 -0.3152
  200DG     O19 4596   2.633   4.112   3.226  0.0844  0.4043 -0.4340
  200DG     H20 4597   2.526   3.951   3.155  0.7378  0.4330  0.4281
  200DG     H21 4598   2.446   4.097   3.172 -1.2592 -1.4532  0.1561
  200DG     H22 4599   2.592   3.965   3.368 -0.4805  0.0525 -3.3671
  200DG     H23 4600   2.521   4.109   3.409  0.5805  0.2755  1.1862
  201DG      C1 4601   5.314   1.691   0.854  0.3450  0.1363  0.2925
  201DG      C2 4602   5.513   1.047   0.916  0.3459  0.4043 -0.6103
  201DG      H3 4603   5.396   1.761   0.869 -0.6679  1.6219 -0.9307
  201DG      H4 4604   5.227   1.752   0.876  0.1454 -0.0588  0.0433
  201DG      H5 4605   5.322   1.662   0.750  1.0292  0.3702  0.2760
  201DG      H6 4606   5.620   1.059   0.903  0.9071 -1.2508  1.6618
  201DG      H7 4607   5.502   0.951   0.967 -1.4154  0.3488 -1.0466
  201DG      H8 4608   5.460   1.039   0.822 -0.7733 -1.0088  0.1028
  201DG      O9 4609   5.324   1.586   0.946  0.0874  0.3767 -0.3722
  201DG     O10 4610   5.451   1.152   0.995 -0.3972 -0.2567 -0.3225
  201DG     C11 4611   5.354   1.636   1.079 -0.2612 -0.4038 -0.0905
  201DG     C12 4612   5.504   1.174   1.126  0.4203  0.2240 -0.4971
  201DG     H13 4613   5.280   1.709   1.113  0.4583 -0.1547  1.0283
  201DG     H14 4614   5.455   1.676   1.086 -0.3497 -0.3299  1.0673
  201DG     H15 4615   5.612   1.188   1.133  0.1739  2.0577  0.5580
  201DG     H16 4616   5.491   1.080   1.180 -0.0359  0.7842  0.3959
  201DG     C17 4617   5.349   1.512   1.164 -0.0722  0.1082 -0.0345
  201DG     C18 4618   5.421   1.288   1.191  0.3549  0.2863 -0.1286
  201DG     O19 4619   5.426   1.403   1.104  0.6612  0.0485  0.2540
  201DG     H20 4620   5.246   1.478   1.165  0.2303 -0.8571 -0.0388
  201DG     H21 4621   5.389   1.537   1.262 -0.6048 -0.5643  0.3548
  201DG     H22 4622   5.317   1.256   1.199  0.6881 -0.5386  1.2385
  201DG     H23 4623   5.451   1.305   1.294  0.6792 -3.0862  0.4419
  202DG      C1 4624   2.235   0.967   4.009 -0.1964 -0.2435  0.4253
  202DG      C2 4625   1.755   0.825   4.492  0.1891  0.2764  0.2741
  202DG      H3 4626   2.312   1.029   3.965 -0.6198 -1.2248 -1.8181
  202DG      H4 4627   2.175   0.919   3.931  0.6245  0.8067 -0.8941
  202DG      H5 4628   2.280   0.878   4.053  3.4215  0.5554 -1.2839
  202DG      H6 4629   1.752   0.816   4.601  1.7652 -0.9700  0.2445
  202DG      H7 4630   1.670   0.886   4.462 -0.2144 -0.6705 -0.5424
  202DG      H8 4631   1.755   0.731   4.438  1.3449 -0.0397  0.7815
  202DG      O9 4632   2.158   1.037   4.093  0.0494 -0.3345 -0.3167
  202DG     O10 4633   1.860   0.914   4.449  0.2756 -0.2103 -0.4454
  202DG     C11 4634   2.218   1.050   4.219 -0.4884 -0.8956  0.5477
  202DG     C12 4635   1.860   1.041   4.511  0.3261 -0.2510  0.1425
  202DG     H13 4636   2.317   1.095   4.206 -0.6887 -0.7640 -0.7065
  202DG     H14 4637   2.222   0.952   4.265  0.1064 -1.9293 -1.5669
  202DG     H15 4638   1.840   1.036   4.618  1.4620 -0.9004  0.3387
  202DG     H16 4639   1.774   1.098   4.476 -1.4633 -3.3071 -0.8586
  202DG     C17 4640   2.143   1.144   4.316 -0.1540 -0.1940 -0.7888
  202DG     C18 4641   1.992   1.091   4.494  0.6626  0.5108 -0.3422
  202DG     O19 4642   2.030   1.069   4.362 -0.1423  0.0465 -0.1124
  202DG     H20 4643   2.125   1.244   4.278  3.2430  1.0381  0.5349
  202DG     H21 4644   2.207   1.167   4.401 -0.1794  0.0983 -0.8501
  202DG     H22 4645   1.986   1.199   4.506 -0.6861  0.3495  0.5697
  202DG     H23 4646   2.052   1.041   4.570 -0.3106  0.2645  0.2795
  203DG      C1 4647   0.325   0.021   5.415  0.2816  0.7166 -0.9104
  203DG      C2 4648   0.919   0.196   4.852  0.7222 -0.3377  0.9423
  203DG      H3 4649   0.395  -0.062   5.408 -0.0257  0.4561 -0.9387
  203DG      H4 4650   0.240  -0.023   5.362 -0.1539  0.1643  0.2135
  203DG      H5 4651   0.298   0.024   5.520  0.4936 -1.9340 -0.7224
  203DG      H6 4652   0.894   0.192   4.746 -0.4601 -1.3806  1.2313
  203DG      H7 4653   0.991   0.277   4.857  1.1213 -0.5854 -0.3826
  203DG      H8 4654   0.981   0.113   4.885 -0.6503 -1.2575  1.2802
  203DG      O9 4655   0.370   0.145   5.358  0.4069  0.4910  0.4504
  203DG     O10 4656   0.807   0.209   4.945  0.2375  0.6616  0.0121
  203DG     C11 4657   0.405   0.119   5.220  0.3520 -0.0835 -0.3241
  203DG     C12 4658   0.702   0.283   4.895 -0.0044  0.2012  0.2998
  203DG     H13 4659   0.315   0.106   5.160  0.7811 -0.7122 -0.8496
  203DG     H14 4660   0.480   0.040   5.213  0.3140 -0.0169 -1.8848
  203DG     H15 4661   0.647   0.225   4.820 -1.4816 -0.2881  1.6952
  203DG     H16 4662   0.733   0.366   4.832 -1.1851  0.1577 -0.3606
  203DG     C17 4663   0.469   0.245   5.170  0.4384  0.5055 -0.3798
  203DG     C18 4664   0.584   0.321   4.984 -0.0537 -0.0837 -0.5845
  203DG     O19 4665   0.518   0.206   5.046  0.0429 -0.0811  0.6791
  203DG     H20 4666   0.556   0.268   5.232  0.2732 -0.6184  0.2943
  203DG     H21 4667   0.396   0.326   5.158 -1.9722 -1.8632 -3.2173
  203DG     H22 4668   0.634   0.380   5.061 -0.7573 -0.0213 -0.1665
  203DG     H23 4669   0.520   0.397   4.940 -0.4895  1.1309  1.9360
  204DG      C1 4670   2.677   0.727   4.012  0.1363  0.3545 -0.0600
  204DG      C2 4671   2.155   0.738   4.475 -0.6316  0.2754 -0.0783
  204DG      H3 4672   2.673   0.828   4.052  2.0056 -0.0545  1.2756
  204DG      H4 4673   2.604   0.723   3.931 -2.1225 -0.5393  1.9134
  204DG      H5 4674   2.773   0.727   3.959  0.8708  3.5564  1.0406
  204DG      H6 4675   2.129   0.834   4.430  1.2472  0.9579  0.2278
  204DG      H7 4676   2.077   0.667   4.448  0.7429 -1.8515  1.3119
  204DG      H8 4677   2.165   0.748   4.583  2.9100  3.2196 -0.4922
  204DG      O9 4678   2.656   0.621   4.108  0.0786 -0.4381 -0.4184
  204DG     O10 4679   2.279   0.693   4.426 -0.0410  0.2135  0.1822
  204DG     C11 4680   2.723   0.646   4.230  0.8047 -0.0262 -0.9458
  204DG     C12 4681   2.302   0.560   4.457  0.4567 -0.3843 -0.6882
  204DG     H13 4682   2.722   0.749   4.265 -2.9006 -0.7113  1.6028
  204DG     H14 4683   2.829   0.626   4.217  0.8759  0.0968 -0.5560
  204DG     H15 4684   2.258   0.497   4.379 -0.0565 -0.5407 -0.2744
  204DG     H16 4685   2.270   0.530   4.556  1.6708 -0.1527 -0.2068
  204DG     C17 4686   2.669   0.563   4.337  0.2241  0.5015  0.1846
  204DG     C18 4687   2.454   0.528   4.443 -0.7323  0.5744 -0.3302
  204DG     O19 4688   2.531   0.595   4.345 -0.3701 -0.2079  0.0923
  204DG     H20 4689   2.722   0.572   4.432  0.1886  2.4506  0.0601
  204DG     H21 4690   2.683   0.458   4.314 -1.3449  0.3638 -0.3008
  204DG     H22 4691   2.503   0.554   4.537 -0.8852 -0.5283  0.0666
  204DG     H23 4692   2.463   0.420   4.437 -3.4307  0.1182  1.7417
  205DG      C1 4693   1.928   4.891   2.326 -0.3066  0.0126 -0.0620
  205DG      C2 4694   1.713   4.130   2.309  0.2925 -0.4528 -0.4356
  205DG      H3 4695   1.925   4.925   2.223  1.2732 -0.5974 -0.3456
  205DG      H4 4696   2.023   4.846   2.355 -1.0843 -2.1343 -0.6209
  205DG      H5 4697   1.920   4.976   2.393  0.3050  1.0014 -1.2100
  205DG      H6 4698   1.788   4.092   2.380  1.6212  2.1034 -0.3770
  205DG      H7 4699   1.623   4.077   2.340  0.0756 -0.0132 -0.3109
  205DG      H8 4700   1.736   4.114   2.204  1.0808  1.0087 -0.5004
  205DG      O9 4701   1.819   4.805   2.351 -0.0449  0.0525  0.2169
  205DG     O10 4702   1.684   4.268   2.320 -0.5479 -0.6445 -0.0371
  205DG     C11 4703   1.807   4.770   2.485 -0.0455  0.5750 -0.5303
  205DG     C12 4704   1.798   4.353   2.298 -0.2574 -0.2545 -0.0549
  205DG     H13 4705   1.772   4.862   2.531 -0.6990  0.3169 -0.5041
  205DG     H14 4706   1.895   4.731   2.536 -0.3727  0.4171 -0.0820
  205DG     H15 4707   1.828   4.353   2.193  1.4343  0.9007  0.3975
  205DG     H16 4708   1.885   4.329   2.358  0.3195 -0.8610 -1.1101
  205DG     C17 4709   1.699   4.653   2.502  0.2790  0.0582  0.5756
  205DG     C18 4710   1.774   4.505   2.321 -0.3503  0.5313 -0.3878
  205DG     O19 4711   1.757   4.523   2.458 -0.1758 -0.5811 -0.0758
  205DG     H20 4712   1.610   4.654   2.439  2.0735  1.2403 -2.1461
  205DG     H21 4713   1.672   4.641   2.607  1.2991 -4.0352  0.5688
  205DG     H22 4714   1.860   4.557   2.278  1.7795 -0.6043  2.1453
  205DG     H23 4715   1.683   4.526   2.265  0.5073 -1.5452 -2.8225
  206DG      C1 4716   4.808   1.531   4.501 -0.6128 -0.7648  0.0963
  206DG      C2 4717   5.267   1.459   5.265 -0.5141  0.1035  0.8725
  206DG      H3 4718   4.722   1.599   4.495 -0.6443 -0.9285 -2.9092
  206DG      H4 4719   4.758   1.438   4.528 -1.8729  0.2204  1.3324
  206DG      H5 4720   4.865   1.533   4.408 -1.5813  0.2330 -0.5086
  206DG      H6 4721   5.213   1.407   5.344  1.4710 -2.0733  0.9227
  206DG      H7 4722   5.345   1.389   5.236 -0.5112  0.1095  0.8668
  206DG      H8 4723   5.309   1.552   5.303 -3.7364  2.3752 -0.5985
  206DG      O9 4724   4.892   1.559   4.612  0.3162 -0.1040 -0.4671
  206DG     O10 4725   5.181   1.484   5.151 -0.0095  0.3084 -0.1085
  206DG     C11 4726   4.846   1.505   4.733  0.2617  0.9346  0.4450
  206DG     C12 4727   5.039   1.496   5.168  0.5528  0.1272 -0.2974
  206DG     H13 4728   4.852   1.396   4.741  1.3713  0.8110 -1.3641
  206DG     H14 4729   4.746   1.546   4.746  0.1165  0.8458 -0.3281
  206DG     H15 4730   5.022   1.550   5.261 -0.1573 -2.2965  1.0376
  206DG     H16 4731   5.003   1.396   5.191  1.4189 -0.5489 -1.7443
  206DG     C17 4732   4.935   1.568   4.835 -0.2934 -0.5123  0.3710
  206DG     C18 4733   4.953   1.572   5.069  0.0908  0.0652 -1.0103
  206DG     O19 4734   4.928   1.494   4.952 -0.3078  0.4628  0.3260
  206DG     H20 4735   4.920   1.676   4.840 -0.3653 -0.4575 -0.8034
  206DG     H21 4736   5.036   1.558   4.796 -0.1265  2.2468 -0.1409
  206DG     H22 4737   4.857   1.596   5.115  0.1797  1.8191 -1.6471
  206DG     H23 4738   4.997   1.672   5.064 -1.3782  0.7818 -0.1912
  207DG      C1 4739   0.042   0.781   2.276 -0.6603 -0.3131  0.2147
  207DG      C2 4740  -0.501   1.257   2.091 -1.5002 -0.3812  0.0128
  207DG      H3 4741   0.109   0.798   2.360 -1.2927 -0.7392  0.8192
  207DG      H4 4742   0.060   0.676   2.251  0.9736  0.2433 -1.1214
  207DG      H5 4743  -0.063   0.791   2.304 -0.3450  1.2358  0.9331
  207DG      H6 4744  -0.526   1.293   2.191 -0.0173  0.5154  0.0921
  207DG      H7 4745  -0.470   1.351   2.046 -0.3506 -1.0739 -0.6932
  207DG      H8 4746  -0.590   1.218   2.043 -1.9247  1.8301 -1.1556
  207DG      O9 4747   0.066   0.866   2.163 -0.4507  0.6221 -0.2790
  207DG     O10 4748  -0.397   1.166   2.090  0.1444 -0.1925  0.0728
  207DG     C11 4749  -0.017   0.826   2.054 -0.4356  0.6088 -0.0824
  207DG     C12 4750  -0.380   1.113   1.964 -0.3743  0.1608 -0.0910
  207DG     H13 4751  -0.107   0.770   2.082  0.1789 -0.7222 -0.6963
  207DG     H14 4752   0.041   0.748   2.005 -0.4801  0.3517  0.2708
  207DG     H15 4753  -0.411   1.184   1.887 -3.7502 -1.1640 -0.1475
  207DG     H16 4754  -0.444   1.026   1.952 -0.4466 -0.0289  1.4609
  207DG     C17 4755  -0.068   0.930   1.957  0.4319 -0.3983 -0.2401
  207DG     C18 4756  -0.239   1.096   1.929 -0.7063 -0.2729 -0.4117
  207DG     O19 4757  -0.160   1.021   2.018  0.3545 -0.4059 -0.2588
  207DG     H20 4758  -0.120   0.878   1.877  1.5632 -1.0317 -0.5794
  207DG     H21 4759   0.019   0.980   1.913 -0.8396  3.0135  0.8470
  207DG     H22 4760  -0.237   1.047   1.832 -1.2645  1.5736 -1.3977
  207DG     H23 4761  -0.181   1.187   1.912  1.7885 -1.8300 -0.8368
  208DG      C1 4762   1.054   1.759   5.371 -0.5315  0.1554  0.4485
  208DG      C2 4763   1.377   2.363   4.891 -0.5501 -0.1383  0.8524
  208DG      H3 4764   0.965   1.737   5.311  0.8574  1.3243 -2.2508
  208DG      H4 4765   1.022   1.831   5.445 -1.9728  2.4149 -2.1647
  208DG      H5 4766   1.078   1.671   5.430  0.4262 -1.7508 -2.5673
  208DG      H6 4767   1.407   2.467   4.904  0.0398 -0.3284  1.0071
  208DG      H7 4768   1.377   2.316   4.793 -1.6328 -1.0740  1.2640
  208DG      H8 4769   1.272   2.384   4.915 -0.5009  2.9154 -1.1101
  208DG      O9 4770   1.163   1.797   5.289  0.3304  0.0712 -0.0075
  208DG     O10 4771   1.428   2.271   4.984  0.3603  0.6769  0.0419
  208DG     C11 4772   1.269   1.850   5.370  0.1058  0.7362 -0.0465
  208DG     C12 4773   1.353   2.144   4.993  0.6640  0.9901 -0.6396
  208DG     H13 4774   1.317   1.781   5.438  1.3000  0.7055 -0.8850
  208DG     H14 4775   1.224   1.923   5.437  0.9503 -0.0088  1.3718
  208DG     H15 4776   1.364   2.090   4.900 -1.5079 -1.3119  0.3089
  208DG     H16 4777   1.245   2.160   4.994 -0.3902 -4.0698 -2.5854
  208DG     C17 4778   1.386   1.911   5.283 -0.4322  0.0238  0.1478
  208DG     C18 4779   1.411   2.058   5.107 -0.1339 -0.4142  0.1645
  208DG     O19 4780   1.315   1.983   5.180 -0.4155 -0.0640 -0.1621
  208DG     H20 4781   1.447   1.834   5.238  0.7647  2.2794 -2.3482
  208DG     H21 4782   1.443   1.981   5.344 -0.1271 -0.9898  1.0537
  208DG     H22 4783   1.486   1.988   5.071 -0.8042  0.0724 -2.3813
  208DG     H23 4784   1.464   2.129   5.170  1.7879 -0.9703 -0.7351
  209DG      C1 4785   0.806   0.414   4.410  0.2465  0.2729  0.1273
  209DG      C2 4786   1.421   0.136   3.928  0.2307  0.3309  0.1802
  209DG      H3 4787   0.716   0.391   4.353  0.6572 -1.5585  0.1620
  209DG      H4 4788   0.785   0.503   4.470 -0.2906 -0.0326  0.4018
  209DG      H5 4789   0.838   0.328   4.468  1.4253  0.2706 -0.5071
  209DG      H6 4790   1.339   0.065   3.911  0.1161  0.3040  0.8197
  209DG      H7 4791   1.444   0.171   3.828  0.7166 -1.1311 -0.2542
  209DG      H8 4792   1.503   0.073   3.963 -1.7509 -1.3329  2.2054
  209DG      O9 4793   0.918   0.434   4.326 -0.2671 -0.0456 -0.2679
  209DG     O10 4794   1.379   0.222   4.029 -0.6424 -0.0311 -0.0390
  209DG     C11 4795   0.899   0.532   4.228 -0.0658  0.2794  0.7620
  209DG     C12 4796   1.240   0.262   4.015  0.5310  1.3875 -1.0401
  209DG     H13 4797   0.860   0.617   4.285 -2.3447 -0.6603  0.6831
  209DG     H14 4798   0.827   0.500   4.153  0.1358 -0.1689  0.7536
  209DG     H15 4799   1.178   0.183   4.056  0.2875  2.1599  0.1310
  209DG     H16 4800   1.213   0.294   3.915 -0.0767 -0.1089 -1.3770
  209DG     C17 4801   1.035   0.547   4.155  0.2120 -0.0953  0.8070
  209DG     C18 4802   1.211   0.375   4.112  0.9035 -0.5884 -0.4180
  209DG     O19 4803   1.076   0.425   4.087 -1.3448 -0.0928  0.0066
  209DG     H20 4804   1.111   0.575   4.227 -2.3780 -0.5195  3.9160
  209DG     H21 4805   1.038   0.622   4.076 -1.3037 -0.5136  0.3197
  209DG     H22 4806   1.221   0.342   4.215  1.2301  1.6942  0.3410
  209DG     H23 4807   1.267   0.466   4.089 -1.3146  0.5665 -1.5630
  210DG      C1 4808   5.185   2.449   5.414 -0.2222  0.0122 -0.1556
  210DG      C2 4809   4.615   2.319   4.943 -0.1979  0.5667  0.0435
  210DG      H3 4810   5.160   2.555   5.414 -0.1369  0.0725 -1.8581
  210DG      H4 4811   5.256   2.441   5.331  1.3791  1.6596  0.9651
  210DG      H5 4812   5.237   2.411   5.502 -0.6777  1.0784  0.5888
  210DG      H6 4813   4.558   2.233   4.908 -0.3067  0.5053  0.3677
  210DG      H7 4814   4.555   2.351   5.028  0.6805 -2.0027  1.7687
  210DG      H8 4815   4.644   2.392   4.868  0.0842  0.2045 -0.2027
  210DG      O9 4816   5.076   2.371   5.370 -0.5830  0.4959  0.0725
  210DG     O10 4817   4.743   2.273   4.989  0.4835 -0.0313 -0.5375
  210DG     C11 4818   4.957   2.402   5.443 -0.1079 -0.1928  0.5505
  210DG     C12 4819   4.823   2.372   5.046 -0.8372 -0.7034  0.7088
  210DG     H13 4820   4.938   2.505   5.414 -0.5387  0.3163  2.5257
  210DG     H14 4821   4.973   2.401   5.551  0.0812 -0.6816  0.5209
  210DG     H15 4822   4.807   2.467   4.994  2.4731 -0.1043  0.5642
  210DG     H16 4823   4.924   2.333   5.034 -0.3553  0.5738  0.3862
  210DG     C17 4824   4.843   2.310   5.402  0.7133 -0.3957  0.5668
  210DG     C18 4825   4.782   2.403   5.192 -0.3604 -0.2321  0.6896
  210DG     O19 4826   4.837   2.295   5.263 -0.3926  0.2765  0.2141
  210DG     H20 4827   4.747   2.348   5.437  0.9132 -0.6179  1.3742
  210DG     H21 4828   4.862   2.209   5.437  1.8565 -0.6043 -0.5930
  210DG     H22 4829   4.827   2.499   5.217 -0.5488  0.2831 -0.8565
  210DG     H23 4830   4.674   2.411   5.203 -0.3184  1.1414  0.2335
  211DG      C1 4831   4.847   2.828   3.726 -1.4982 -0.1182 -0.6579
  211DG      C2 4832   4.212   3.031   3.200 -0.3405 -0.6250  0.1919
  211DG      H3 4833   4.869   2.735   3.779 -0.7286  0.4816  0.1094
  211DG      H4 4834   4.895   2.908   3.783 -0.8826 -1.5365  0.8970
  211DG      H5 4835   4.878   2.824   3.622 -2.2599  1.1682 -0.9621
  211DG      H6 4836   4.239   3.076   3.105 -3.0141  0.6590 -0.0559
  211DG      H7 4837   4.157   2.937   3.195  0.4946 -1.2111  1.3171
  211DG      H8 4838   4.151   3.108   3.248  0.4913  1.0654 -1.3493
  211DG      O9 4839   4.709   2.866   3.725 -0.4151 -0.2455 -0.8340
  211DG     O10 4840   4.332   3.002   3.268 -0.2474 -0.0787 -0.3676
  211DG     C11 4841   4.629   2.819   3.618 -0.4813 -0.4259 -0.3339
  211DG     C12 4842   4.423   2.911   3.207 -0.4645 -0.2085  0.4643
  211DG     H13 4843   4.523   2.804   3.638 -0.6057 -1.2522 -1.4673
  211DG     H14 4844   4.664   2.724   3.575  1.8231  0.7547 -1.2219
  211DG     H15 4845   4.445   2.962   3.114 -0.1900  1.6561  1.5114
  211DG     H16 4846   4.382   2.811   3.193 -0.7875  0.0600 -0.5772
  211DG     C17 4847   4.636   2.914   3.512 -0.3469 -0.1398 -0.2730
  211DG     C18 4848   4.562   2.922   3.285  0.2165 -0.0267 -0.2979
  211DG     O19 4849   4.547   2.865   3.414  0.4566 -0.4239  0.8250
  211DG     H20 4850   4.735   2.935   3.472  0.9096  0.0558  2.6952
  211DG     H21 4851   4.602   3.011   3.550  0.4495  0.0078  0.0706
  211DG     H22 4852   4.652   2.882   3.239 -0.0774 -1.5002  0.3744
  211DG     H23 4853   4.571   3.031   3.296 -1.2106  0.1274 -0.4634
  212DG      C1 4854   4.275   4.852   3.903  0.6471 -0.2144  0.8871
  212DG      C2 4855   4.753   5.277   3.712  0.1719  1.1821 -0.4607
  212DG      H3 4856   4.285   4.747   3.930 -2.2852 -0.2948  2.1130
  212DG      H4 4857   4.167   4.869   3.911  0.3641 -1.5604  0.1004
  212DG      H5 4858   4.312   4.905   3.991  0.4787  1.5614 -0.0690
  212DG      H6 4859   4.712   5.332   3.797 -0.8341  2.5285 -1.7721
  212DG      H7 4860   4.831   5.215   3.756 -0.3675  1.1035  0.3923
  212DG      H8 4861   4.792   5.357   3.648 -0.3699  1.6165 -0.2582
  212DG      O9 4862   4.333   4.902   3.782  0.3200  0.0940  0.2676
  212DG     O10 4863   4.648   5.198   3.656  0.2932 -0.0833  0.2168
  212DG     C11 4864   4.367   4.800   3.699 -0.2053 -0.5621  0.9644
  212DG     C12 4865   4.683   5.122   3.541 -0.2779 -0.5362  0.2193
  212DG     H13 4866   4.278   4.742   3.674 -0.1387 -0.1024 -0.4091
  212DG     H14 4867   4.443   4.734   3.742 -1.2744 -1.3979  1.6215
  212DG     H15 4868   4.771   5.063   3.562 -0.8839 -1.4446  0.2622
  212DG     H16 4869   4.705   5.197   3.464  0.5031 -1.2115 -0.2243
  212DG     C17 4870   4.416   4.868   3.569  0.2403 -0.3817  0.4675
  212DG     C18 4871   4.574   5.027   3.484  0.7149  0.3313 -0.3411
  212DG     O19 4872   4.511   4.974   3.597  0.7532  0.1938 -0.0808
  212DG     H20 4873   4.342   4.898   3.495  1.8755  2.0771 -0.3361
  212DG     H21 4874   4.475   4.794   3.516  1.5719  1.1491 -0.2988
  212DG     H22 4875   4.508   5.083   3.418  0.3733  1.1296  0.6537
  212DG     H23 4876   4.624   4.947   3.430  0.7880  0.2890 -0.2112
  213DG      C1 4877   3.520   4.779   3.558 -0.4887 -0.5676  0.4252
  213DG      C2 4878   3.270   4.070   3.616 -0.0860 -0.2285  0.5144
  213DG      H3 4879   3.583   4.842   3.621 -1.1464  0.5255  0.0231
  213DG      H4 4880   3.423   4.829   3.555  0.6075  1.7206 -2.6754
  213DG      H5 4881   3.568   4.778   3.460  0.0596  0.2110  0.6717
  213DG      H6 4882   3.166   4.076   3.645  0.1003 -2.0462  1.7060
  213DG      H7 4883   3.280   4.059   3.508  0.1008 -0.5035  0.5591
  213DG      H8 4884   3.311   3.973   3.644  2.3520 -0.0445 -1.9306
  213DG      O9 4885   3.522   4.648   3.615  0.3518  0.2775 -0.1697
  213DG     O10 4886   3.335   4.188   3.671  0.6718 -0.2021 -0.1848
  213DG     C11 4887   3.650   4.585   3.614  0.6324 -0.5960 -0.2446
  213DG     C12 4888   3.476   4.155   3.668  0.2748  0.0209 -0.0925
  213DG     H13 4889   3.730   4.657   3.630 -0.2110  0.7889 -1.8610
  213DG     H14 4890   3.666   4.549   3.512 -1.7377  2.3085 -1.8156
  213DG     H15 4891   3.508   4.157   3.564  1.1574  0.5951  0.1824
  213DG     H16 4892   3.490   4.053   3.704 -0.7315 -0.8255 -1.9557
  213DG     C17 4893   3.650   4.470   3.713 -0.2309  0.4787  0.9116
  213DG     C18 4894   3.563   4.258   3.745  0.3587  1.0207 -0.0686
  213DG     O19 4895   3.569   4.366   3.654 -0.2578  0.0206 -0.5215
  213DG     H20 4896   3.601   4.499   3.806 -2.5307 -0.5087  0.0860
  213DG     H21 4897   3.754   4.438   3.724 -0.6202 -0.8366  0.9982
  213DG     H22 4898   3.517   4.294   3.837 -2.0109 -0.4708 -0.5731
  213DG     H23 4899   3.662   4.213   3.754  0.8941  2.0761 -0.5368
  214DG      C1 4900   0.957   1.850   3.116 -0.2535 -0.9937 -0.2259
  214DG      C2 4901   1.137   1.686   3.668  0.0744 -0.4860 -0.2952
  214DG      H3 4902   0.997   1.950   3.098  0.4389 -0.8408  1.8479
  214DG      H4 4903   0.878   1.855   3.191 -2.8087 -1.1961 -2.7289
  214DG      H5 4904   0.917   1.815   3.021 -0.3125  2.1682 -1.5161
  214DG      H6 4905   1.166   1.790   3.684 -2.4869  0.2084  0.3954
  214DG      H7 4906   1.086   1.679   3.572  1.1569  0.1752 -0.9343
  214DG      H8 4907   1.070   1.661   3.751 -2.2417 -0.0975 -1.9349
  214DG      O9 4908   1.072   1.774   3.151 -0.5126  0.6251  0.6148
  214DG     O10 4909   1.257   1.610   3.675  0.0485  0.5048  0.0062
  214DG     C11 4910   1.055   1.631   3.161  0.0420 -0.1423 -0.3936
  214DG     C12 4911   1.335   1.623   3.562 -0.2688 -0.3414 -0.4471
  214DG     H13 4912   1.063   1.599   3.057 -1.2704  0.3134 -0.6426
  214DG     H14 4913   0.960   1.597   3.202  0.3828 -1.5725 -0.7153
  214DG     H15 4914   1.440   1.595   3.574  0.1466  1.6288  1.0563
  214DG     H16 4915   1.337   1.731   3.544  0.8162 -0.0750  1.0998
  214DG     C17 4916   1.157   1.565   3.241  0.4708 -0.1712  0.4880
  214DG     C18 4917   1.284   1.543   3.439  0.0702  0.1078 -0.0856
  214DG     O19 4918   1.181   1.613   3.369  0.2322  0.1561 -0.2815
  214DG     H20 4919   1.246   1.563   3.179 -0.4960  0.1360 -0.9611
  214DG     H21 4920   1.111   1.466   3.245 -2.1948  0.9459 -0.3163
  214DG     H22 4921   1.368   1.535   3.369 -0.1781  2.4538 -0.7435
  214DG     H23 4922   1.270   1.438   3.463 -0.0155  0.1338 -0.0241
  215DG      C1 4923   1.702   5.126   2.038 -0.3077 -0.2277 -0.0977
  215DG      C2 4924   2.504   5.179   1.834  0.2110 -0.4645  0.3612
  215DG      H3 4925   1.673   5.223   1.998  0.1032 -0.0659 -0.0128
  215DG      H4 4926   1.761   5.136   2.129 -0.9776  0.1999  0.3003
  215DG      H5 4927   1.618   5.065   2.073  0.4613 -0.2458  1.8886
  215DG      H6 4928   2.485   5.286   1.835 -0.5181 -0.5902  0.9542
  215DG      H7 4929   2.521   5.164   1.941 -2.8887  0.2386  1.0460
  215DG      H8 4930   2.602   5.164   1.789 -0.0655 -0.8391 -0.1319
  215DG      O9 4931   1.769   5.051   1.937  0.0318 -0.2202  0.9885
  215DG     O10 4932   2.401   5.094   1.793  0.0405  0.0934 -0.4719
  215DG     C11 4933   1.881   5.128   1.883  0.0831 -0.0541 -0.0503
  215DG     C12 4934   2.308   5.159   1.709 -0.4378  0.0707 -0.2571
  215DG     H13 4935   1.954   5.134   1.964 -0.2172 -0.4024  0.2520
  215DG     H14 4936   1.859   5.231   1.857  1.5216  0.0720 -0.8768
  215DG     H15 4937   2.357   5.171   1.613  1.8636  0.2091  0.8623
  215DG     H16 4938   2.268   5.254   1.744  1.8135  1.3491 -0.9158
  215DG     C17 4939   1.961   5.056   1.771 -0.0858  0.2895 -0.5322
  215DG     C18 4940   2.181   5.076   1.682 -0.3761  0.1569 -0.2948
  215DG     O19 4941   2.099   5.094   1.790  0.2337 -0.0530 -0.2948
  215DG     H20 4942   1.923   5.066   1.670  0.4700 -1.2884 -0.9293
  215DG     H21 4943   1.948   4.948   1.781  1.8811  0.0731 -0.0136
  215DG     H22 4944   2.141   5.127   1.594 -2.6088  0.8115  1.0240
  215DG     H23 4945   2.203   4.973   1.653 -0.7187  0.3951 -1.4540
  216DG      C1 4946   5.149   3.131   0.512  0.2314 -0.3275 -0.3515
  216DG      C2 4947   4.507   2.992   0.387 -0.7174  0.0125 -0.3143
  216DG      H3 4948   5.144   3.070   0.602  1.8898  1.1453  0.8044
  216DG      H4 4949   5.191   3.222   0.554 -0.9881 -0.3589  1.0031
  216DG      H5 4950   5.218   3.087   0.439  0.9133  0.2453 -0.0607
  216DG      H6 4951   4.408   3.037   0.371  0.0700  2.3008  0.7766
  216DG      H7 4952   4.520   2.901   0.329 -2.3163 -0.3509 -0.1640
  216DG      H8 4953   4.506   2.968   0.493 -1.7953  1.2458 -0.0124
  216DG      O9 4954   5.024   3.160   0.455  0.3838 -0.2480  0.6014
  216DG     O10 4955   4.605   3.095   0.376 -0.1188  0.3777  0.5275
  216DG     C11 4956   5.038   3.252   0.346  0.2970 -1.2342 -0.0292
  216DG     C12 4957   4.586   3.157   0.247 -0.5312  0.0362  0.2337
  216DG     H13 4958   5.081   3.213   0.253  4.1326 -2.3153  2.0062
  216DG     H14 4959   5.108   3.330   0.374  0.3018 -0.0819 -2.9085
  216DG     H15 4960   4.484   3.192   0.235 -0.3907 -0.1417 -1.8201
  216DG     H16 4961   4.625   3.088   0.172 -1.9608 -0.7423  0.1692
  216DG     C17 4962   4.903   3.331   0.323  0.1993 -0.0937 -0.4410
  216DG     C18 4963   4.682   3.278   0.246 -0.3853  0.0804 -0.5224
  216DG     O19 4964   4.806   3.235   0.291  0.1505  0.0669 -0.6530
  216DG     H20 4965   4.917   3.398   0.238 -1.5005 -2.0835 -2.4361
  216DG     H21 4966   4.869   3.381   0.414 -0.7414 -0.5718 -0.5155
  216DG     H22 4967   4.686   3.319   0.145 -0.6187  1.0281 -0.1589
  216DG     H23 4968   4.650   3.363   0.306 -2.1926  0.4954 -1.9819
  217DG      C1 4969   3.349   2.160   1.832 -1.1474  0.7482 -0.2453
  217DG      C2 4970   2.860   1.844   2.362  0.8928 -0.2754 -0.0105
  217DG      H3 4971   3.328   2.259   1.874 -1.5397  1.3769 -1.8680
  217DG      H4 4972   3.366   2.182   1.727 -1.9829  0.8989 -0.3491
  217DG      H5 4973   3.450   2.130   1.862 -0.5687  2.2583 -0.5583
  217DG      H6 4974   2.883   1.738   2.371 -1.8278 -0.9444 -0.0881
  217DG      H7 4975   2.947   1.891   2.407  0.3603  0.1510  0.6013
  217DG      H8 4976   2.773   1.869   2.423  0.0490 -0.1619 -1.2313
  217DG      O9 4977   3.252   2.062   1.868 -0.0955  1.0939 -0.1531
  217DG     O10 4978   2.849   1.878   2.226  0.0327  0.5082  0.3853
  217DG     C11 4979   3.123   2.082   1.807 -0.2240 -0.2921 -0.3326
  217DG     C12 4980   2.943   1.797   2.152 -0.2945  0.1921  0.5855
  217DG     H13 4981   3.127   2.079   1.698 -0.5442  1.0799 -0.3983
  217DG     H14 4982   3.074   2.178   1.821 -0.8452 -0.4733 -1.1659
  217DG     H15 4983   2.913   1.692   2.159 -1.8757  0.5204 -0.6155
  217DG     H16 4984   3.048   1.813   2.175 -0.1889  1.0222 -0.4035
  217DG     C17 4985   3.027   1.964   1.842  0.2489 -0.3038  0.0615
  217DG     C18 4986   2.925   1.840   2.007 -0.0196 -0.2122  1.0475
  217DG     O19 4987   3.000   1.954   1.980 -0.7476 -0.2932 -0.4832
  217DG     H20 4988   3.081   1.875   1.811 -0.2011 -0.6627  0.2986
  217DG     H21 4989   2.927   1.968   1.799  0.3695 -1.4795 -0.3600
  217DG     H22 4990   2.944   1.755   1.941 -1.1314 -0.5042  1.0891
  217DG     H23 4991   2.818   1.853   1.988  0.4962  0.9702 -1.6306
  218DG      C1 4992   4.663   2.602   0.912  0.0044  0.2112  0.2008
  218DG      C2 4993   4.759   2.491   1.540 -0.9226  0.4353 -0.1303
  218DG      H3 4994   4.685   2.700   0.953  1.7424  0.2872 -0.8108
  218DG      H4 4995   4.555   2.611   0.916 -0.3417 -2.5805 -0.6150
  218DG      H5 4996   4.682   2.594   0.805 -0.1545 -0.2659  0.2051
  218DG      H6 4997   4.835   2.524   1.469 -0.1814  1.8733  1.2477
  218DG      H7 4998   4.702   2.579   1.571 -0.9373  0.2628  0.3476
  218DG      H8 4999   4.804   2.457   1.634  1.0764  1.2514 -0.7406
  218DG      O9 5000   4.693   2.491   1.001 -0.6225 -0.5065 -0.3274
  218DG     O10 5001   4.668   2.399   1.478  0.0695 -0.4299  0.1051
  218DG     C11 5002   4.829   2.491   1.033  0.2323  0.2602  0.0546
  218DG     C12 5003   4.720   2.270   1.458 -0.2117  0.1349 -0.6698
  218DG     H13 5004   4.852   2.589   1.074  3.1286  0.4742 -1.8593
  218DG     H14 5005   4.888   2.475   0.943  2.0518 -0.5625  1.3502
  218DG     H15 5006   4.641   2.196   1.449 -1.0511  1.1210 -1.8120
  218DG     H16 5007   4.776   2.241   1.546 -0.1973  0.0169 -0.7179
  218DG     C17 5008   4.868   2.372   1.133  0.5877  0.1358 -0.6062
  218DG     C18 5009   4.819   2.260   1.334 -0.4401  0.2600  0.3217
  218DG     O19 5010   4.770   2.335   1.229 -0.2504 -0.0655 -0.0599
  218DG     H20 5011   4.963   2.407   1.175  1.0211 -0.5862 -0.9679
  218DG     H21 5012   4.893   2.288   1.068  0.6020 -0.4775  0.1726
  218DG     H22 5013   4.908   2.317   1.362 -0.5711  1.5256 -1.6876
  218DG     H23 5014   4.860   2.160   1.321  1.8979  0.9028  2.0671
  219DG      C1 5015   1.795   3.976   5.254 -0.7532 -0.0019  0.1437
  219DG      C2 5016   1.664   4.383   4.622  0.1092 -0.5281  0.1858
  219DG      H3 5017   1.776   3.952   5.359  1.5638  0.6219  0.7747
  219DG      H4 5018   1.902   3.998   5.247 -0.5444 -1.3046 -1.2269
  219DG      H5 5019   1.763   3.896   5.188  0.7234  1.1043 -2.0237
  219DG      H6 5020   1.624   4.482   4.601  1.8428  0.4204  1.1561
  219DG      H7 5021   1.772   4.376   4.635  0.1653  1.2559  0.8512
  219DG      H8 5022   1.631   4.316   4.543 -0.0914 -1.5683  1.1263
  219DG      O9 5023   1.729   4.092   5.213 -0.2288  0.0209  0.3069
  219DG     O10 5024   1.605   4.343   4.740  0.7445  0.1162  0.1119
  219DG     C11 5025   1.591   4.076   5.196 -0.1207 -0.7398  0.0742
  219DG     C12 5026   1.641   4.426   4.849  0.4248  0.7124 -0.5343
  219DG     H13 5027   1.547   4.067   5.295 -1.7762 -0.7594 -0.6299
  219DG     H14 5028   1.563   3.988   5.137  1.8824 -1.5012  0.2050
  219DG     H15 5029   1.623   4.533   4.839 -3.3887  0.4211  1.3311
  219DG     H16 5030   1.745   4.404   4.875  0.6886  1.3338 -1.0466
  219DG     C17 5031   1.538   4.209   5.137  0.4723 -0.5436 -0.3845
  219DG     C18 5032   1.559   4.382   4.974  0.4858 -0.4523  0.5405
  219DG     O19 5033   1.577   4.244   5.001  0.2515  0.1627  0.4633
  219DG     H20 5034   1.579   4.288   5.201  0.8133  1.3915 -2.8430
  219DG     H21 5035   1.429   4.207   5.139  0.4273  0.7681  1.0165
  219DG     H22 5036   1.597   4.441   5.057 -0.1328  0.8378 -0.0621
  219DG     H23 5037   1.453   4.399   4.958  0.5547  1.0804  1.4647
  220DG      C1 5038   2.209   1.346   1.997 -0.2504  0.3031  0.4009
  220DG      C2 5039   2.703   1.449   2.475  0.2428  0.1676  0.2843
  220DG      H3 5040   2.208   1.396   1.900 -0.7608 -0.8021 -0.1723
  220DG      H4 5041   2.135   1.397   2.059 -1.5686 -0.6212 -0.3584
  220DG      H5 5042   2.170   1.245   1.982 -1.5322  0.9194 -0.7184
  220DG      H6 5043   2.620   1.511   2.509 -0.4020 -0.5887  0.1118
  220DG      H7 5044   2.740   1.384   2.555 -0.4658 -0.8864 -0.2171
  220DG      H8 5045   2.788   1.509   2.440 -0.0454  0.0897 -0.5736
  220DG      O9 5046   2.349   1.355   2.038 -0.7467  0.5698  0.4174
  220DG     O10 5047   2.656   1.360   2.376  0.6089  0.7686  0.1081
  220DG     C11 5048   2.431   1.298   1.937  0.3749  0.1205 -0.0240
  220DG     C12 5049   2.753   1.287   2.306  0.5659  0.5867  0.1382
  220DG     H13 5050   2.415   1.342   1.838 -1.0836 -0.8034 -0.2234
  220DG     H14 5051   2.414   1.190   1.935 -0.7195  0.2917 -1.1765
  220DG     H15 5052   2.753   1.181   2.333  0.5158  0.8390  1.1427
  220DG     H16 5053   2.853   1.312   2.342  0.3579  1.1757  0.3144
  220DG     C17 5054   2.585   1.305   1.970  0.6298  0.2962 -0.0954
  220DG     C18 5055   2.738   1.311   2.156 -0.1840 -0.0952  0.3662
  220DG     O19 5056   2.609   1.270   2.106  0.1677  0.3162 -0.2521
  220DG     H20 5057   2.622   1.405   1.943  1.7007 -0.5491 -1.9706
  220DG     H21 5058   2.647   1.235   1.914 -2.9524 -2.2481 -1.2487
  220DG     H22 5059   2.760   1.416   2.134 -1.3962  0.2129  0.5686
  220DG     H23 5060   2.805   1.246   2.101  1.0364  1.8017 -0.4952
  221DG      C1 5061   4.242   4.358   2.974  0.4410 -0.2288 -0.0073
  221DG      C2 5062   4.527   4.972   2.819 -0.4435 -0.1403 -0.5537
  221DG      H3 5063   4.230   4.359   2.865 -1.3998  3.5442  0.0933
  221DG      H4 5064   4.151   4.323   3.021 -0.3119  1.1026 -0.4284
  221DG      H5 5065   4.321   4.290   3.006  0.8659 -0.4036 -1.3641
  221DG      H6 5066   4.635   4.980   2.820 -0.2289 -0.4764  4.2557
  221DG      H7 5067   4.479   4.964   2.721  2.1546  0.1006 -1.9202
  221DG      H8 5068   4.503   5.073   2.855  1.9013  0.2225  0.1842
  221DG      O9 5069   4.265   4.498   3.021 -0.0156 -0.2109 -0.4266
  221DG     O10 5070   4.480   4.884   2.923 -0.1097  0.3222  0.2240
  221DG     C11 5071   4.253   4.511   3.162 -0.1272  0.2343  0.0837
  221DG     C12 5072   4.558   4.876   3.044  0.1828  0.0925  0.4972
  221DG     H13 5073   4.319   4.437   3.208 -0.1684 -1.5694 -2.5265
  221DG     H14 5074   4.155   4.491   3.205 -1.5096  2.6329 -1.6887
  221DG     H15 5075   4.582   4.979   3.071 -0.9148  0.1752  1.2174
  221DG     H16 5076   4.651   4.824   3.019 -0.6029 -1.0203 -0.1403
  221DG     C17 5077   4.307   4.650   3.201 -0.0455  0.1289  0.7609
  221DG     C18 5078   4.482   4.802   3.159  0.3620  0.4295 -0.2948
  221DG     O19 5079   4.420   4.683   3.115 -0.0300 -0.1300 -0.1838
  221DG     H20 5080   4.322   4.660   3.309 -1.1689  3.0074  0.7298
  221DG     H21 5081   4.238   4.731   3.177  2.2420  2.1185  0.5192
  221DG     H22 5082   4.558   4.786   3.236  2.6982  2.6218 -1.9925
  221DG     H23 5083   4.407   4.878   3.180 -1.0701 -0.8861 -0.4878
  222DG      C1 5084   5.255   0.225   4.544 -0.7456 -0.0875  0.3135
  222DG      C2 5085   5.569   0.286   5.139  0.0302  0.6107  0.1276
  222DG      H3 5086   5.221   0.162   4.462 -1.4754 -0.1848  0.6787
  222DG      H4 5087   5.333   0.288   4.502 -0.4377 -1.0374 -0.5968
  222DG      H5 5088   5.170   0.284   4.577 -1.3348 -0.3910 -0.6158
  222DG      H6 5089   5.462   0.298   5.154  0.1121  1.7730 -0.0987
  222DG      H7 5090   5.610   0.262   5.237  1.9976  0.4083 -0.6835
  222DG      H8 5091   5.604   0.384   5.104  0.9738 -0.0974 -1.0073
  222DG      O9 5092   5.312   0.138   4.646  0.1861 -0.2266 -0.4822
  222DG     O10 5093   5.591   0.186   5.037 -0.7462  0.3988 -0.2552
  222DG     C11 5094   5.430   0.071   4.599  0.4026 -0.0978 -0.2589
  222DG     C12 5095   5.527   0.065   5.067 -0.0898 -0.0569  0.4353
  222DG     H13 5096   5.504   0.148   4.578  1.6820 -0.2581  3.0441
  222DG     H14 5097   5.409   0.015   4.508 -0.8410  0.5278 -0.3888
  222DG     H15 5098   5.427   0.087   5.105 -1.1142  0.3788 -2.3101
  222DG     H16 5099   5.585   0.014   5.144  1.1246 -0.8319 -0.9451
  222DG     C17 5100   5.476  -0.021   4.710 -0.3431 -0.4389  0.0122
  222DG     C18 5101   5.522  -0.022   4.944 -0.3170  0.6499  0.7143
  222DG     O19 5102   5.457   0.038   4.838 -1.0275  0.0212 -0.2225
  222DG     H20 5103   5.582  -0.038   4.692  0.3472  0.8635  2.3906
  222DG     H21 5104   5.425  -0.118   4.706 -0.4135 -0.4392  0.8066
  222DG     H22 5105   5.629  -0.037   4.928 -0.0804  1.1030  1.7806
  222DG     H23 5106   5.472  -0.115   4.970  1.8026 -1.0705 -0.9580
  223DG      C1 5107   4.117   4.047   2.848 -0.1062  0.6898 -0.5769
  223DG      C2 5108   3.893   4.779   3.020  0.1597 -0.3780  0.0548
  223DG      H3 5109   4.073   3.948   2.858  0.4925  0.4725 -0.0345
  223DG      H4 5110   4.207   4.041   2.910  0.3629 -3.1732 -1.3938
  223DG      H5 5111   4.141   4.049   2.741  3.0905  1.1171  0.0359
  223DG      H6 5112   3.994   4.779   3.060  0.0190  1.0519  0.4640
  223DG      H7 5113   3.906   4.817   2.919 -1.8468 -1.7862 -0.8131
  223DG      H8 5114   3.818   4.835   3.076 -1.2104 -0.7638 -1.2997
  223DG      O9 5115   4.011   4.143   2.879  0.7286 -0.3057  0.3190
  223DG     O10 5116   3.850   4.641   2.997 -0.2246 -0.1603 -0.0915
  223DG     C11 5117   3.948   4.123   3.008 -0.4426  0.6039  0.5200
  223DG     C12 5118   3.941   4.567   2.919  0.5247 -0.0734 -0.3258
  223DG     H13 5119   4.024   4.123   3.086  0.4662 -0.1230 -0.3252
  223DG     H14 5120   3.896   4.027   3.010 -0.9486  0.8092 -1.2287
  223DG     H15 5121   4.040   4.566   2.965  0.3571 -1.2448  0.0476
  223DG     H16 5122   3.958   4.625   2.829 -1.3375  1.7423  0.4150
  223DG     C17 5123   3.840   4.231   3.019  0.2145 -0.5458  0.1422
  223DG     C18 5124   3.879   4.432   2.899 -0.7321  0.7167  0.5696
  223DG     O19 5125   3.898   4.363   3.019  0.1108 -0.1204 -0.3176
  223DG     H20 5126   3.780   4.224   3.110 -0.0024  0.1377  0.0633
  223DG     H21 5127   3.782   4.216   2.928 -0.1269  2.7353 -0.3368
  223DG     H22 5128   3.777   4.456   2.869 -0.6402 -1.2166 -1.5749
  223DG     H23 5129   3.939   4.384   2.822  0.3370  0.4157  1.5734
  224DG      C1 5130   0.867   5.204   0.625  0.4159  0.0703 -0.1696
  224DG      C2 5131   0.527   5.672   0.956  0.4803 -0.2367 -0.1266
  224DG      H3 5132   0.759   5.201   0.614  0.5360  1.9707 -2.7815
  224DG      H4 5133   0.898   5.128   0.698  1.1834 -0.3874 -0.9509
  224DG      H5 5134   0.919   5.184   0.531 -1.7813 -2.9416 -0.9121
  224DG      H6 5135   0.445   5.606   0.986 -2.4517  1.8512 -2.8672
  224DG      H7 5136   0.608   5.647   1.025  1.1317 -1.0547 -1.1500
  224DG      H8 5137   0.487   5.773   0.958  3.4724  1.0646 -0.6257
  224DG      O9 5138   0.907   5.324   0.677  0.2647 -0.2202  0.1387
  224DG     O10 5139   0.543   5.649   0.813  0.4820 -0.3293 -0.3148
  224DG     C11 5140   0.898   5.340   0.815 -0.0394 -0.2820  0.4830
  224DG     C12 5141   0.640   5.743   0.757  0.9997 -0.0882  0.0606
  224DG     H13 5142   0.976   5.286   0.868 -1.2128 -1.3737  1.1635
  224DG     H14 5143   0.807   5.301   0.860  0.5623 -0.7053  1.3547
  224DG     H15 5144   0.621   5.831   0.818  0.0374 -0.7654  0.7652
  224DG     H16 5145   0.618   5.771   0.654  0.7646  2.6998  0.7723
  224DG     C17 5146   0.913   5.494   0.832  0.0213 -0.2522 -0.7174
  224DG     C18 5147   0.785   5.696   0.786 -0.1929  0.3514 -0.2008
  224DG     O19 5148   0.793   5.558   0.780  0.0909  0.3976 -0.1628
  224DG     H20 5149   1.006   5.534   0.792  0.0287  1.1656  0.6069
  224DG     H21 5150   0.918   5.509   0.940 -1.5278  1.3738 -0.8280
  224DG     H22 5151   0.864   5.740   0.724  2.6877  1.0292  3.6168
  224DG     H23 5152   0.815   5.717   0.888  1.1204  0.9376 -0.6799
  225DG      C1 5153   4.871   3.064   3.130  0.1482 -0.0794  0.6086
  225DG      C2 5154   5.117   3.127   3.606 -0.7799  0.2872 -0.0121
  225DG      H3 5155   4.905   3.064   3.234  0.7462  0.8324  0.4174
  225DG      H4 5156   4.950   3.109   3.070 -0.2033  0.3244  0.4481
  225DG      H5 5157   4.849   2.959   3.109 -2.2273  0.4913 -0.1155
  225DG      H6 5158   5.202   3.111   3.540  1.5192 -0.4208  2.9210
  225DG      H7 5159   5.148   3.207   3.673  0.1543  0.6879 -0.8956
  225DG      H8 5160   5.096   3.029   3.649 -0.1531 -0.6348 -1.7172
  225DG      O9 5161   4.757   3.146   3.106 -0.3938  0.0018  0.2908
  225DG     O10 5162   5.010   3.163   3.532 -0.3056  0.0893  0.3144
  225DG     C11 5163   4.780   3.286   3.139 -0.2239 -0.4577  0.2660
  225DG     C12 5164   4.883   3.169   3.597 -0.2122  0.0158  0.2970
  225DG     H13 5165   4.717   3.350   3.077  3.2191  1.3556 -1.6376
  225DG     H14 5166   4.880   3.319   3.112 -0.3925 -0.2700 -0.1454
  225DG     H15 5167   4.901   3.221   3.692  1.0626 -1.1471  0.7289
  225DG     H16 5168   4.849   3.073   3.634  1.2796 -0.8375 -0.4394
  225DG     C17 5169   4.758   3.322   3.285  0.3861  0.0402 -0.0524
  225DG     C18 5170   4.790   3.261   3.511  0.3968 -0.4377 -0.1283
  225DG     O19 5171   4.815   3.230   3.373 -0.2275  0.1735 -0.5168
  225DG     H20 5172   4.654   3.343   3.310  0.8230  1.2815  0.7736
  225DG     H21 5173   4.806   3.419   3.299 -1.1016  0.8532 -0.4016
  225DG     H22 5174   4.683   3.246   3.524 -0.3137  3.5712 -0.1093
  225DG     H23 5175   4.826   3.362   3.526 -0.1937 -0.3396  0.6966
  226DG      C1 5176   1.751   4.108   3.151  0.1519  0.2309 -0.4640
  226DG      C2 5177   1.700   3.600   3.776 -1.1436 -0.3329  0.8033
  226DG      H3 5178   1.755   4.104   3.042  1.3606 -0.9601 -0.4085
  226DG      H4 5179   1.850   4.093   3.194  1.9013  3.3509 -3.0255
  226DG      H5 5180   1.737   4.214   3.173 -0.4149  0.1101 -0.2173
  226DG      H6 5181   1.671   3.681   3.843 -1.0275  0.9833 -0.6806
  226DG      H7 5182   1.630   3.522   3.809 -0.9094 -0.0771  1.9707
  226DG      H8 5183   1.799   3.556   3.788 -1.4880 -1.4676 -0.2979
  226DG      O9 5184   1.660   4.026   3.218  0.0293  0.5457 -0.1038
  226DG     O10 5185   1.678   3.628   3.643  0.6699  0.6336 -0.2212
  226DG     C11 5186   1.675   3.890   3.191  0.1928  0.3829  0.4411
  226DG     C12 5187   1.546   3.688   3.625  0.1979 -0.1835 -0.1789
  226DG     H13 5188   1.775   3.853   3.216  0.8278  1.6098 -0.1552
  226DG     H14 5189   1.655   3.876   3.084  1.9860 -0.5544  0.1804
  226DG     H15 5190   1.553   3.788   3.669  4.2758 -1.1512  1.9205
  226DG     H16 5191   1.477   3.620   3.674  0.2340  1.6600  2.6381
  226DG     C17 5192   1.576   3.799   3.265  0.1920 -0.2056  0.4716
  226DG     C18 5193   1.517   3.702   3.471  0.3510 -0.3619 -0.4284
  226DG     O19 5194   1.618   3.774   3.400  1.3965  0.3077  0.1610
  226DG     H20 5195   1.556   3.707   3.210 -0.7082  0.5128 -0.4295
  226DG     H21 5196   1.487   3.861   3.270 -0.6494 -1.1695 -1.4871
  226DG     H22 5197   1.516   3.601   3.432  1.1111 -0.2633 -0.7182
  226DG     H23 5198   1.419   3.744   3.450  0.4315  0.0960  0.0734
  227DG      C1 5199   4.804   4.692   3.696  0.2333  0.3213 -0.3511
  227DG      C2 5200   4.093   4.509   3.526 -0.3294 -0.4173  0.7612
  227DG      H3 5201   4.790   4.780   3.758  0.6449 -0.2900  0.6180
  227DG      H4 5202   4.840   4.722   3.597  1.4372  0.0534 -0.0079
  227DG      H5 5203   4.887   4.631   3.731 -0.1670 -0.7622 -1.2293
  227DG      H6 5204   4.015   4.434   3.512  1.3486 -2.5578  2.2475
  227DG      H7 5205   4.052   4.579   3.599 -1.3728 -0.1234 -0.0919
  227DG      H8 5206   4.103   4.551   3.426  0.4380 -1.2149  0.4830
  227DG      O9 5207   4.687   4.613   3.688  0.2983  0.3004  0.2271
  227DG     O10 5208   4.219   4.459   3.566  0.6845  0.2004  0.4914
  227DG     C11 5209   4.665   4.550   3.817 -0.0875 -0.2883  0.1166
  227DG     C12 5210   4.207   4.434   3.711 -0.2312 -0.9532  0.2011
  227DG     H13 5211   4.632   4.628   3.884  0.4274  0.6101 -0.6505
  227DG     H14 5212   4.757   4.500   3.848  1.9994  2.1128 -1.7918
  227DG     H15 5213   4.137   4.356   3.742 -1.3487  0.6046  1.7474
  227DG     H16 5214   4.189   4.525   3.768 -1.0982 -2.4061  2.3860
  227DG     C17 5215   4.565   4.437   3.824  0.4676 -0.0612  0.0418
  227DG     C18 5216   4.343   4.382   3.760  0.5560 -0.0422 -0.5622
  227DG     O19 5217   4.447   4.476   3.752  0.1662 -0.1623  0.3319
  227DG     H20 5218   4.539   4.405   3.924  0.5349  0.0859  0.1073
  227DG     H21 5219   4.611   4.358   3.765 -1.0755 -0.0263 -1.2696
  227DG     H22 5220   4.322   4.354   3.863 -2.6740  1.1769 -0.8023
  227DG     H23 5221   4.366   4.288   3.710 -0.3766 -0.0429 -0.9971
  228DG      C1 5222   1.311   3.089   0.452 -0.5494 -0.1980  0.6579
  228DG      C2 5223   1.122   3.462   0.066  0.1017 -0.2030  0.4894
  228DG      H3 5224   1.262   3.056   0.360 -1.2025  2.0220  0.1435
  228DG      H4 5225   1.251   3.055   0.537 -1.0585 -2.9870 -0.6904
  228DG      H5 5226   1.409   3.041   0.457 -0.4629 -0.5665 -2.3990
  228DG      H6 5227   1.165   3.462  -0.034 -0.3642 -1.8798  0.2459
  228DG      H7 5228   1.063   3.371   0.079  1.6722 -1.2995  0.1667
  228DG      H8 5229   1.047   3.538   0.087  1.0766  0.0911  3.4440
  228DG      O9 5230   1.323   3.233   0.457 -0.5640 -0.0461 -0.1962
  228DG     O10 5231   1.225   3.456   0.171  0.5159 -0.0774  0.1630
  228DG     C11 5232   1.454   3.275   0.502 -1.0051 -1.2443  0.4668
  228DG     C12 5233   1.297   3.573   0.184 -0.4475  0.0801  0.1875
  228DG     H13 5234   1.541   3.226   0.458  0.0769  0.0760  1.0911
  228DG     H14 5235   1.462   3.256   0.609 -0.6709 -1.9306  0.3260
  228DG     H15 5236   1.232   3.656   0.156 -0.6829 -0.8298 -2.2608
  228DG     H16 5237   1.376   3.590   0.111 -2.6410  3.1682 -1.7123
  228DG     C17 5238   1.452   3.427   0.483 -0.5813  0.6390 -0.2740
  228DG     C18 5239   1.347   3.575   0.326 -0.0004 -0.3054  0.5410
  228DG     O19 5240   1.417   3.449   0.346 -0.1981 -0.0940 -0.2794
  228DG     H20 5241   1.544   3.479   0.512 -0.8294  1.3525 -0.7212
  228DG     H21 5242   1.380   3.467   0.554 -2.4153 -0.7233 -1.2732
  228DG     H22 5243   1.411   3.663   0.335  0.7872 -0.8097 -0.0049
  228DG     H23 5244   1.256   3.578   0.386 -0.1387  0.6199  0.2966
  229DG      C1 5245   0.559   1.916   1.394 -0.2866 -0.1684  0.2086
  229DG      C2 5246   1.263   2.153   0.965  0.2585  0.8082 -0.2549
  229DG      H3 5247   0.521   1.864   1.306  1.6419 -1.8085  0.2735
  229DG      H4 5248   0.478   1.949   1.460  0.8399  1.1793  0.9830
  229DG      H5 5249   0.632   1.851   1.442  1.0705  0.0156 -1.5234
  229DG      H6 5250   1.323   2.063   0.974 -0.6616  0.1446 -0.6072
  229DG      H7 5251   1.194   2.147   0.881 -1.0111  0.3909  0.7799
  229DG      H8 5252   1.338   2.232   0.963  0.1535  0.9210  0.0317
  229DG      O9 5253   0.634   2.029   1.366  0.2314 -0.4356  0.2488
  229DG     O10 5254   1.188   2.157   1.075  0.0524  0.0092 -0.0597
  229DG     C11 5255   0.749   2.002   1.279 -0.3987  1.1699  0.2982
  229DG     C12 5256   1.094   2.259   1.081  0.5992  0.5938  0.3143
  229DG     H13 5257   0.708   2.017   1.179 -0.0657  0.4740  0.0517
  229DG     H14 5258   0.783   1.900   1.298 -0.3399  1.2462  0.6024
  229DG     H15 5259   1.022   2.254   0.999 -1.3558 -0.7711  2.0088
  229DG     H16 5260   1.139   2.358   1.071  0.8435  0.4892  0.3961
  229DG     C17 5261   0.839   2.120   1.311  0.0322  1.0237 -0.1634
  229DG     C18 5262   0.999   2.250   1.203  0.0941  0.1588 -0.6358
  229DG     O19 5263   0.943   2.125   1.216  0.7529  0.6111 -0.4288
  229DG     H20 5264   0.882   2.100   1.408  0.1878  0.7820 -0.2830
  229DG     H21 5265   0.782   2.212   1.327  0.3482  0.9684  1.3912
  229DG     H22 5266   1.061   2.283   1.287 -1.6683  0.8407  0.4456
  229DG     H23 5267   0.915   2.319   1.196  0.3157  0.5208  0.1992
  230DG      C1 5268   3.826   2.176   3.933  0.1832  0.3187 -0.2169
  230DG      C2 5269   4.172   2.511   3.837  0.3995  0.5820 -0.5155
  230DG      H3 5270   3.887   2.258   3.970  0.7466  0.2067 -0.8909
  230DG      H4 5271   3.835   2.178   3.825  0.6794  1.2689 -0.1640
  230DG      H5 5272   3.865   2.081   3.969  0.8885  0.0548 -1.6151
  230DG      H6 5273   4.200   2.409   3.811 -1.2075  0.3679 -1.5454
  230DG      H7 5274   4.213   2.568   3.754  0.1311  0.3329 -0.8193
  230DG      H8 5275   4.225   2.529   3.931  2.8526 -0.4852 -1.6120
  230DG      O9 5276   3.688   2.187   3.968  0.6069 -0.4026 -0.2865
  230DG     O10 5277   4.036   2.518   3.841 -0.2020 -0.3220  0.2599
  230DG     C11 5278   3.619   2.295   3.907 -0.0052 -0.3218 -0.0001
  230DG     C12 5279   3.989   2.552   3.969  0.3242 -0.2564  0.4754
  230DG     H13 5280   3.513   2.273   3.922  0.2828 -1.6009  0.2445
  230DG     H14 5281   3.618   2.299   3.798 -2.2213  3.5637 -0.0140
  230DG     H15 5282   4.041   2.643   4.000  0.2695  0.5997 -1.7736
  230DG     H16 5283   4.007   2.472   4.041  1.1057  0.9801  1.7027
  230DG     C17 5284   3.656   2.430   3.962 -0.1818 -0.7316 -0.1004
  230DG     C18 5285   3.842   2.587   3.967 -0.5921  0.6286  0.0166
  230DG     O19 5286   3.784   2.472   3.907  0.1924 -0.0799  0.2707
  230DG     H20 5287   3.672   2.424   4.070  0.0785  0.8944 -0.0240
  230DG     H21 5288   3.575   2.500   3.945  1.3894  0.7138 -2.1103
  230DG     H22 5289   3.805   2.596   4.070  0.4225  0.5087  0.4020
  230DG     H23 5290   3.827   2.684   3.920  0.4718  1.3746  1.1595
  231DG      C1 5291   2.376   0.313   2.646 -0.6400 -0.1953  0.0084
  231DG      C2 5292   3.004   0.596   2.672  0.4023  0.0819  0.1213
  231DG      H3 5293   2.428   0.217   2.642  0.0252  0.1413  0.3789
  231DG      H4 5294   2.293   0.307   2.577 -1.1173  1.1034  0.4392
  231DG      H5 5295   2.332   0.335   2.743 -1.4628 -3.4231  0.4631
  231DG      H6 5296   3.017   0.498   2.627  0.1627  0.1014  0.0051
  231DG      H7 5297   3.026   0.670   2.596 -0.6403  1.0517  0.7268
  231DG      H8 5298   3.064   0.596   2.763 -2.4102 -0.4236  2.1465
  231DG      O9 5299   2.461   0.418   2.600 -0.6954 -0.0956 -0.9953
  231DG     O10 5300   2.863   0.603   2.694  0.1477 -0.1881 -0.2685
  231DG     C11 5301   2.402   0.546   2.609  0.4767 -0.3842 -0.1781
  231DG     C12 5302   2.821   0.729   2.744 -0.2819  0.0892  0.1747
  231DG     H13 5303   2.293   0.540   2.611  0.5555 -2.3272  0.3569
  231DG     H14 5304   2.434   0.603   2.522 -0.0182 -0.2846 -0.2960
  231DG     H15 5305   2.816   0.792   2.655 -1.6439  0.0231  0.1867
  231DG     H16 5306   2.887   0.771   2.820 -1.7109  1.0345  0.9372
  231DG     C17 5307   2.459   0.616   2.729 -0.6398  0.2201  0.3886
  231DG     C18 5308   2.673   0.715   2.799 -0.0397  0.2234  0.4363
  231DG     O19 5309   2.600   0.646   2.697  0.3261  0.0459 -1.1268
  231DG     H20 5310   2.465   0.561   2.822 -1.9659  1.6081  1.3499
  231DG     H21 5311   2.403   0.708   2.749  3.3854  3.0536 -0.0366
  231DG     H22 5312   2.668   0.648   2.884 -1.1482 -1.2625 -0.7461
  231DG     H23 5313   2.642   0.817   2.821  0.1903  0.7300 -1.4014
  232DG      C1 5314   5.234   0.666   3.957 -0.3740  0.3370 -0.1526
  232DG      C2 5315   4.830   0.395   4.557 -0.3137  0.2960 -0.5943
  232DG      H3 5316   5.272   0.768   3.952 -0.8354  0.4930 -0.5479
  232DG      H4 5317   5.296   0.589   3.911  0.2722  1.2556 -0.8321
  232DG      H5 5318   5.244   0.628   4.059  1.3215 -1.2910 -0.8672
  232DG      H6 5319   4.723   0.403   4.541 -0.6566  1.0599  1.7641
  232DG      H7 5320   4.844   0.313   4.628 -1.0832  1.7841  1.3548
  232DG      H8 5321   4.876   0.481   4.605  1.1899  0.3214 -1.9728
  232DG      O9 5322   5.097   0.669   3.915  0.1980  0.5107  0.8470
  232DG     O10 5323   4.895   0.362   4.434  0.2740  0.6815  0.7402
  232DG     C11 5324   5.053   0.539   3.878 -0.1039 -0.3316  0.5889
  232DG     C12 5325   4.900   0.466   4.334  0.1886 -0.3620 -0.1368
  232DG     H13 5326   5.108   0.498   3.794 -1.6297 -2.0819  0.3818
  232DG     H14 5327   4.951   0.552   3.843 -0.5242 -0.4674  1.7266
  232DG     H15 5328   4.969   0.544   4.369 -0.4873  0.8954 -1.4835
  232DG     H16 5329   4.799   0.496   4.306 -0.3860 -2.5572 -0.5847
  232DG     C17 5330   5.043   0.430   3.993 -0.1648  0.1387 -0.1057
  232DG     C18 5331   4.966   0.394   4.215  0.0383  0.5592  0.1881
  232DG     O19 5332   4.972   0.485   4.106 -0.1540 -0.9780  0.0803
  232DG     H20 5333   5.141   0.398   4.027 -1.6830 -1.7937  2.9100
  232DG     H21 5334   5.000   0.339   3.952  1.7262 -0.9041  0.1247
  232DG     H22 5335   5.068   0.362   4.234  0.2618 -0.1791 -1.9445
  232DG     H23 5336   4.908   0.308   4.183 -0.5908  1.3184 -0.7997
  233DG      C1 5337   0.993   2.836   3.121  0.0883 -0.0366 -0.1117
  233DG      C2 5338   0.405   2.996   2.990 -0.6335 -0.5724  0.2344
  233DG      H3 5339   0.994   2.827   3.229 -0.0952 -1.1289 -0.1917
  233DG      H4 5340   0.990   2.943   3.097 -1.7326 -0.0978 -0.2383
  233DG      H5 5341   1.090   2.803   3.083  1.4844  0.7257  2.5479
  233DG      H6 5342   0.367   3.059   3.070  1.2653  0.8657  0.0568
  233DG      H7 5343   0.462   3.063   2.926 -0.3774 -1.1001 -0.1033
  233DG      H8 5344   0.307   2.987   2.943 -0.5366 -0.2608 -0.0271
  233DG      O9 5345   0.883   2.773   3.061  0.1895 -0.5670 -0.3622
  233DG     O10 5346   0.489   2.882   3.023 -0.0783  0.0068 -0.3924
  233DG     C11 5347   0.870   2.637   3.090 -0.3911  1.1379 -0.1819
  233DG     C12 5348   0.425   2.781   3.093  0.0423 -0.2827  1.1362
  233DG     H13 5349   0.895   2.606   3.191  0.6507  1.1429 -0.4304
  233DG     H14 5350   0.938   2.589   3.019  0.9600 -0.0123  1.7984
  233DG     H15 5351   0.326   2.753   3.058  0.4240 -0.1261 -0.1006
  233DG     H16 5352   0.411   2.805   3.199 -0.3040 -0.5119  1.1443
  233DG     C17 5353   0.733   2.589   3.050 -0.3843  0.1780  0.6092
  233DG     C18 5354   0.511   2.656   3.062 -0.2498 -0.0062 -0.9277
  233DG     O19 5355   0.645   2.684   3.104 -0.1229 -0.4743 -0.3389
  233DG     H20 5356   0.707   2.489   3.086  0.2673 -0.1284  0.2490
  233DG     H21 5357   0.731   2.588   2.941  5.2558 -0.3845  0.2284
  233DG     H22 5358   0.479   2.563   3.109  2.3186  0.6038  2.3582
  233DG     H23 5359   0.506   2.643   2.954 -1.4276  0.5946 -0.9608
  234DG      C1 5360   1.598   2.232   2.658 -0.2451  0.1037 -0.1261
  234DG      C2 5361   2.193   2.011   3.011  0.0363  0.6807 -0.2956
  234DG      H3 5362   1.534   2.320   2.667 -0.5876 -0.3586  3.3629
  234DG      H4 5363   1.532   2.147   2.640 -0.7534  0.7382 -1.3828
  234DG      H5 5364   1.661   2.255   2.572  1.5301  0.5982  1.2659
  234DG      H6 5365   2.256   2.087   2.967  0.3559  0.5229 -0.1124
  234DG      H7 5366   2.235   1.990   3.109  0.3915  1.0909 -0.3571
  234DG      H8 5367   2.196   1.917   2.956  1.4459 -0.9078  2.2873
  234DG      O9 5368   1.679   2.217   2.777 -0.0971  0.3398  0.2823
  234DG     O10 5369   2.050   2.039   3.022 -0.4742 -0.0086  0.1013
  234DG     C11 5370   1.803   2.293   2.786  0.0527  0.2118  0.1540
  234DG     C12 5371   2.023   2.128   3.128 -0.4966 -0.4651  0.1483
  234DG     H13 5372   1.770   2.395   2.768 -1.1203 -0.1145  0.3957
  234DG     H14 5373   1.881   2.274   2.712  2.2281 -1.1269  2.6283
  234DG     H15 5374   2.093   2.211   3.122 -0.1510 -0.5901  2.0553
  234DG     H16 5375   2.058   2.084   3.221  0.3853 -0.2066 -0.0597
  234DG     C17 5376   1.870   2.290   2.928  0.3175  0.1336  0.2152
  234DG     C18 5377   1.876   2.164   3.130 -0.8043 -0.1196  0.4396
  234DG     O19 5378   1.826   2.174   2.996 -0.1953 -0.3942 -0.4987
  234DG     H20 5379   1.836   2.379   2.981 -1.8073 -1.3614  1.5079
  234DG     H21 5380   1.977   2.302   2.941  0.3096  0.5550 -0.0903
  234DG     H22 5381   1.812   2.088   3.175  0.3583 -1.4460 -0.0919
  234DG     H23 5382   1.861   2.254   3.190  2.9303 -0.2612  1.8516
  235DG      C1 5383   4.099   2.115   1.050  0.7002  0.4000 -0.3757
  235DG      C2 5384   4.439   2.430   1.718  0.0716  0.0297 -0.2097
  235DG      H3 5385   4.039   2.204   1.030  1.1495  0.3112 -2.3565
  235DG      H4 5386   4.058   2.016   1.033 -1.2656  0.6356  2.3310
  235DG      H5 5387   4.187   2.124   0.986 -0.3414  1.2048 -1.7540
  235DG      H6 5388   4.462   2.495   1.634 -1.9457  0.8567 -0.1711
  235DG      H7 5389   4.341   2.466   1.749 -0.0573 -0.8265  0.4199
  235DG      H8 5390   4.518   2.444   1.792  1.1574  0.4894 -1.4157
  235DG      O9 5391   4.151   2.134   1.178  0.3730 -0.2716  0.3831
  235DG     O10 5392   4.433   2.293   1.681 -0.2721  0.3278 -0.0023
  235DG     C11 5393   4.075   2.099   1.290 -0.2476  0.2272 -0.6690
  235DG     C12 5394   4.349   2.262   1.579 -0.0787 -0.7438  0.2143
  235DG     H13 5395   4.050   1.993   1.283  0.9226 -0.0162 -1.3012
  235DG     H14 5396   3.973   2.137   1.288 -0.8929 -1.3835 -0.5034
  235DG     H15 5397   4.384   2.303   1.485 -0.5680 -2.3558 -0.7150
  235DG     H16 5398   4.251   2.305   1.602 -0.3326 -1.4026  0.3982
  235DG     C17 5399   4.138   2.122   1.425  0.3467  0.1337 -0.0051
  235DG     C18 5400   4.342   2.106   1.556  0.7192 -0.3596  0.4849
  235DG     O19 5401   4.276   2.082   1.431  0.1799 -0.6694 -0.2685
  235DG     H20 5402   4.091   2.053   1.495  0.3264 -1.9187 -1.9065
  235DG     H21 5403   4.123   2.224   1.459  0.6676 -0.1576  1.0412
  235DG     H22 5404   4.442   2.062   1.561  0.6145 -0.5186  1.2524
  235DG     H23 5405   4.288   2.056   1.636 -0.0194 -0.8257 -0.2842
  236DG      C1 5406   3.313   3.432   2.788  0.4942  0.4806 -0.2342
  236DG      C2 5407   3.758   3.167   2.379 -0.3647 -0.2452  0.1905
  236DG      H3 5408   3.375   3.453   2.875  0.2293  0.6433 -0.0815
  236DG      H4 5409   3.208   3.427   2.816  0.1245  2.1831 -1.1984
  236DG      H5 5410   3.316   3.515   2.718  1.9711  1.8727  1.4120
  236DG      H6 5411   3.693   3.179   2.292  0.0544 -0.1620 -0.1107
  236DG      H7 5412   3.821   3.256   2.381 -0.8889  0.2782 -2.6840
  236DG      H8 5413   3.828   3.090   2.349  1.9817  1.0063  2.1312
  236DG      O9 5414   3.333   3.308   2.726 -0.1338 -0.2853 -0.1412
  236DG     O10 5415   3.691   3.130   2.499 -0.0549 -0.1421  0.3540
  236DG     C11 5416   3.361   3.211   2.831 -0.0413  0.3245 -0.1417
  236DG     C12 5417   3.605   3.018   2.483 -0.4257 -0.3622  0.3738
  236DG     H13 5418   3.281   3.194   2.903  1.3586  0.1866  1.4339
  236DG     H14 5419   3.447   3.241   2.890  1.8901 -0.1341 -2.5778
  236DG     H15 5420   3.640   2.930   2.430  0.7975 -1.0978  2.3115
  236DG     H16 5421   3.516   3.049   2.427 -1.5549 -2.3508  0.9902
  236DG     C17 5422   3.406   3.070   2.772  0.4385 -0.0198 -0.4900
  236DG     C18 5423   3.563   2.974   2.618 -0.3627 -0.4306 -0.2119
  236DG     O19 5424   3.502   3.094   2.671 -0.4492 -0.7022 -0.0920
  236DG     H20 5425   3.315   3.018   2.740  1.3651 -1.5630 -0.7644
  236DG     H21 5426   3.443   3.009   2.854  0.7468  0.6213 -0.1451
  236DG     H22 5427   3.495   2.890   2.602  1.0766 -1.5339 -0.6940
  236DG     H23 5428   3.644   2.931   2.676  0.1201  0.9389  0.1810
  237DG      C1 5429   0.677   5.110   4.650 -0.1292  1.0091  0.5972
  237DG      C2 5430   0.432   5.568   4.156 -0.5992 -0.2232  0.5144
  237DG      H3 5431   0.767   5.074   4.700 -0.0310 -0.5747 -0.6433
  237DG      H4 5432   0.674   5.081   4.545  0.8432  0.5454  0.6921
  237DG      H5 5433   0.595   5.063   4.705 -1.1789 -0.2655 -1.9098
  237DG      H6 5434   0.467   5.661   4.111 -1.1809 -0.8688 -1.3730
  237DG      H7 5435   0.440   5.495   4.076 -1.8430 -1.5500  1.5372
  237DG      H8 5436   0.324   5.577   4.167 -0.4953  2.2702 -0.0242
  237DG      O9 5437   0.676   5.258   4.665 -0.1944 -0.6062  0.0615
  237DG     O10 5438   0.501   5.518   4.270 -0.3082  0.4477 -0.3819
  237DG     C11 5439   0.796   5.317   4.617  0.5626 -0.1228 -0.1001
  237DG     C12 5440   0.493   5.589   4.395  0.3486  1.1154  0.0396
  237DG     H13 5441   0.821   5.288   4.515 -1.1882  1.8814 -1.1760
  237DG     H14 5442   0.876   5.269   4.673 -0.0787 -1.9169 -0.6410
  237DG     H15 5443   0.389   5.588   4.426  0.8030 -0.5180  1.7204
  237DG     H16 5444   0.537   5.687   4.376  2.8180 -0.1458 -1.2941
  237DG     C17 5445   0.779   5.465   4.609  0.0554 -0.1770  0.6928
  237DG     C18 5446   0.567   5.517   4.510  0.1179 -0.1422 -0.0328
  237DG     O19 5447   0.710   5.511   4.492 -0.4448 -0.4197  0.0165
  237DG     H20 5448   0.878   5.508   4.597 -0.6368  1.8477  1.7588
  237DG     H21 5449   0.742   5.511   4.700  1.0080  1.0147  0.5007
  237DG     H22 5450   0.545   5.568   4.604  1.7180  0.2798  0.1319
  237DG     H23 5451   0.518   5.420   4.509  0.3341 -0.2510 -0.1909
  238DG      C1 5452   1.014   3.791   2.410 -0.2017  0.2062  0.4811
  238DG      C2 5453   1.295   4.166   1.888  0.1711  0.5026 -0.2765
  238DG      H3 5454   1.113   3.753   2.434 -0.8575 -1.6636  0.4176
  238DG      H4 5455   0.998   3.741   2.315 -1.8701  1.7591 -0.1223
  238DG      H5 5456   0.940   3.762   2.485  1.1995 -1.1589  1.3888
  238DG      H6 5457   1.400   4.141   1.902  0.3409  0.9127 -0.8083
  238DG      H7 5458   1.247   4.087   1.830 -0.8353  1.0481 -0.2119
  238DG      H8 5459   1.291   4.249   1.817  0.4549  1.3807  0.7076
  238DG      O9 5460   1.019   3.940   2.394 -0.1620 -0.1158 -0.0745
  238DG     O10 5461   1.208   4.192   2.007 -0.3820  0.3283  0.6510
  238DG     C11 5462   0.896   3.992   2.349 -0.3578 -0.6711  0.9028
  238DG     C12 5463   1.078   4.235   1.975  0.3537 -0.2006 -0.4963
  238DG     H13 5464   0.831   4.012   2.434 -1.8840  1.5722 -0.6948
  238DG     H14 5465   0.843   3.919   2.288  0.6774  0.7980 -1.9178
  238DG     H15 5466   1.028   4.158   1.915 -0.8560 -0.0106  0.2443
  238DG     H16 5467   1.078   4.326   1.914 -2.3119  0.4748  0.3734
  238DG     C17 5468   0.908   4.133   2.282 -0.4580  0.1874 -0.1631
  238DG     C18 5469   0.991   4.260   2.103  0.1744 -0.0667 -0.0606
  238DG     O19 5470   0.970   4.132   2.158  0.3860 -0.2150 -0.3033
  238DG     H20 5471   0.967   4.200   2.344  0.6925  0.4542 -1.4880
  238DG     H21 5472   0.812   4.184   2.269 -0.7102 -0.2238  0.0527
  238DG     H22 5473   1.031   4.333   2.174 -0.5827  1.8152 -1.4903
  238DG     H23 5474   0.893   4.299   2.073 -0.4659 -1.2569  0.4296
  239DG      C1 5475   1.939   4.154   1.913 -1.1907 -0.2881 -0.0651
  239DG      C2 5476   2.539   4.417   1.747  0.3490  0.5459 -0.2725
  239DG      H3 5477   1.912   4.246   1.860 -0.3400  0.3779  0.6316
  239DG      H4 5478   1.878   4.154   2.003 -0.4977  1.0258  0.4281
  239DG      H5 5479   1.907   4.062   1.864  0.4913 -1.3083  0.6739
  239DG      H6 5480   2.528   4.460   1.648 -2.1137 -1.7224 -1.0996
  239DG      H7 5481   2.465   4.473   1.804  0.5380  2.2081 -1.5774
  239DG      H8 5482   2.636   4.449   1.785 -0.3901  1.3275  1.0018
  239DG      O9 5483   2.071   4.122   1.942 -0.0486 -0.5772 -0.4663
  239DG     O10 5484   2.537   4.271   1.757 -0.0099 -0.1956 -0.3775
  239DG     C11 5485   2.130   4.215   2.032  0.8590  0.1327 -0.0559
  239DG     C12 5486   2.603   4.229   1.877 -0.0365  0.0123 -0.0631
  239DG     H13 5487   2.079   4.210   2.128 -0.8180  1.6341 -0.8177
  239DG     H14 5488   2.107   4.313   1.989 -1.4534 -0.0879  0.5486
  239DG     H15 5489   2.698   4.276   1.906  0.1387  0.7642 -1.7026
  239DG     H16 5490   2.627   4.123   1.868 -3.7803 -0.9247 -0.7269
  239DG     C17 5491   2.278   4.177   2.060 -0.4682  0.2026 -0.6653
  239DG     C18 5492   2.496   4.245   1.991 -0.1332  0.8932  0.4034
  239DG     O19 5493   2.365   4.196   1.955  0.2776  0.1585  0.0216
  239DG     H20 5494   2.278   4.075   2.098 -0.3243  0.9824  1.6189
  239DG     H21 5495   2.300   4.230   2.153 -2.6471  0.5235 -0.2859
  239DG     H22 5496   2.531   4.180   2.071 -2.5822 -3.1918 -1.5405
  239DG     H23 5497   2.495   4.351   2.018  0.2437  0.1703  3.7274
  240DG      C1 5498   3.994   3.087   0.221 -0.5330 -0.2067  0.0195
  240DG      C2 5499   4.248   2.416   0.147 -0.5286 -0.2320 -0.1842
  240DG      H3 5500   4.015   3.141   0.313 -1.4097 -1.4460  0.9865
  240DG      H4 5501   3.908   3.024   0.245 -2.2537  1.3982 -1.6447
  240DG      H5 5502   3.988   3.153   0.134 -0.3985 -0.6853 -0.3623
  240DG      H6 5503   4.185   2.408   0.059 -0.9449  0.5824  0.0401
  240DG      H7 5504   4.336   2.475   0.124 -0.5885 -1.1343 -3.1168
  240DG      H8 5505   4.284   2.313   0.160 -0.1575 -0.4707 -2.6951
  240DG      O9 5506   4.104   3.009   0.193 -0.0929  0.0078 -0.0511
  240DG     O10 5507   4.171   2.484   0.248 -0.4952 -0.1017  0.0368
  240DG     C11 5508   4.105   2.901   0.286 -0.0893  0.8768 -0.8145
  240DG     C12 5509   4.248   2.500   0.367  0.1318 -0.1922  0.3395
  240DG     H13 5510   4.005   2.857   0.285 -0.5200  1.7551  0.8270
  240DG     H14 5511   4.119   2.947   0.383  1.9878  0.4382 -0.8513
  240DG     H15 5512   4.310   2.414   0.394  0.0261 -0.1353  0.7775
  240DG     H16 5513   4.183   2.503   0.454 -0.4975  0.9161 -0.1549
  240DG     C17 5514   4.216   2.804   0.251  0.1242 -0.2765 -0.4914
  240DG     C18 5515   4.335   2.629   0.364  0.3517 -0.3907 -0.0749
  240DG     O19 5516   4.257   2.747   0.370  0.5464 -0.1262 -0.0052
  240DG     H20 5517   4.299   2.862   0.212 -0.2016  1.0805  0.7481
  240DG     H21 5518   4.188   2.723   0.183 -0.0570 -1.6743  1.1760
  240DG     H22 5519   4.391   2.631   0.457  1.8626 -0.1291 -0.9601
  240DG     H23 5520   4.408   2.629   0.283 -0.5627 -2.1268 -0.9724
  241DG      C1 5521   0.781   3.414   4.810 -0.2923 -0.2932  0.2068
  241DG      C2 5522   0.432   3.902   5.027 -0.2770  0.0353  0.3130
  241DG      H3 5523   0.836   3.495   4.859 -0.7315  0.1401 -0.0073
  241DG      H4 5524   0.821   3.400   4.710  1.4180 -1.5565  1.0171
  241DG      H5 5525   0.809   3.327   4.870  1.5534 -0.0331 -0.2055
  241DG      H6 5526   0.440   3.851   5.123 -1.6148 -0.2383  0.3001
  241DG      H7 5527   0.530   3.928   4.988 -1.2885  1.8296 -1.1918
  241DG      H8 5528   0.362   3.985   5.020 -0.6340 -0.4073 -3.1287
  241DG      O9 5529   0.637   3.428   4.821 -0.8589  0.4215  0.0671
  241DG     O10 5530   0.387   3.809   4.930  0.0960 -0.1047 -0.6871
  241DG     C11 5531   0.591   3.531   4.730 -0.1987  0.0057 -0.4014
  241DG     C12 5532   0.372   3.854   4.800 -0.4406  0.0565  0.9858
  241DG     H13 5533   0.608   3.503   4.627  1.5734 -0.7675  0.0612
  241DG     H14 5534   0.640   3.629   4.735  2.8242 -1.4358  2.4646
  241DG     H15 5535   0.459   3.899   4.753 -1.8009 -0.7774 -2.6745
  241DG     H16 5536   0.301   3.937   4.802 -0.2798  0.3423 -1.5626
  241DG     C17 5537   0.446   3.558   4.759  0.1657  0.8412  0.4424
  241DG     C18 5538   0.312   3.742   4.721  0.0754 -0.0837  0.4555
  241DG     O19 5539   0.417   3.667   4.671 -0.0811 -0.1404 -0.3219
  241DG     H20 5540   0.442   3.589   4.863  3.0806  2.4272  0.1842
  241DG     H21 5541   0.389   3.467   4.737  1.2328  0.2373  0.1324
  241DG     H22 5542   0.244   3.679   4.779 -0.8811 -0.0613 -0.5989
  241DG     H23 5543   0.273   3.776   4.625 -1.3033 -0.2083  0.9530
  242DG      C1 5544   3.738   1.247   4.696 -0.5005  0.5490  0.3832
  242DG      C2 5545   3.853   0.557   4.736 -0.6187 -0.0058 -0.4559
  242DG      H3 5546   3.808   1.250   4.613  0.0070 -0.6559  0.7481
  242DG      H4 5547   3.765   1.329   4.764 -2.3016  0.7090  0.9509
  242DG      H5 5548   3.637   1.260   4.660 -1.1016 -0.8915  1.4483
  242DG      H6 5549   3.802   0.478   4.792 -0.3897 -0.8766 -1.4259
  242DG      H7 5550   3.808   0.554   4.637 -3.6824 -1.7210  0.8446
  242DG      H8 5551   3.958   0.527   4.737 -0.3006  1.0927 -0.0924
  242DG      O9 5552   3.745   1.119   4.767 -0.2043 -0.1781  0.0097
  242DG     O10 5553   3.835   0.686   4.797 -0.0577  0.0934  0.7334
  242DG     C11 5554   3.670   1.135   4.888  0.5608  0.0214 -0.9167
  242DG     C12 5555   3.800   0.673   4.933 -0.4828 -0.1629  0.6011
  242DG     H13 5556   3.567   1.109   4.861  0.5943  2.0326 -3.3335
  242DG     H14 5557   3.687   1.231   4.935  1.0811 -0.3303 -0.3748
  242DG     H15 5558   3.867   0.604   4.984  0.3919  0.5697  0.4808
  242DG     H16 5559   3.705   0.624   4.950 -0.5170 -0.4333 -0.2994
  242DG     C17 5560   3.706   1.031   4.994  0.1328  0.1475  0.2019
  242DG     C18 5561   3.799   0.812   5.004 -0.2995 -0.1593  0.1733
  242DG     O19 5562   3.715   0.902   4.937 -0.2326  0.7924 -0.5453
  242DG     H20 5563   3.637   1.021   5.078  0.8132  0.9915  0.8843
  242DG     H21 5564   3.803   1.058   5.034  1.2673 -1.3022 -1.4568
  242DG     H22 5565   3.775   0.799   5.110  1.5919 -2.4613  0.3978
  242DG     H23 5566   3.901   0.849   4.996 -1.7259  4.4454  0.2532
  243DG      C1 5567   3.580   1.852   4.827  0.3474  0.1600  0.2792
  243DG      C2 5568   3.581   2.646   5.174  0.2911 -0.2261 -0.0547
  243DG      H3 5569   3.514   1.768   4.805  1.2497  0.0689 -2.5740
  243DG      H4 5570   3.681   1.815   4.846  1.3528  2.8404  0.6208
  243DG      H5 5571   3.589   1.902   4.730 -0.4440  0.5407  0.3925
  243DG      H6 5572   3.540   2.711   5.096  2.7828 -0.1700 -1.4380
  243DG      H7 5573   3.572   2.708   5.263  1.1006 -1.5056  0.9553
  243DG      H8 5574   3.688   2.631   5.157  0.5251 -0.7075  1.6862
  243DG      O9 5575   3.536   1.943   4.921 -0.0078 -0.0970  0.3254
  243DG     O10 5576   3.500   2.537   5.183  0.3622  0.5024  0.2447
  243DG     C11 5577   3.411   2.016   4.888  0.2555  0.0533  0.8226
  243DG     C12 5578   3.508   2.453   5.066  0.0665  0.5715  0.8068
  243DG     H13 5579   3.328   1.953   4.855  1.8523 -2.4124  1.2478
  243DG     H14 5580   3.438   2.074   4.800  0.6985 -1.6162 -0.1959
  243DG     H15 5581   3.609   2.418   5.048 -0.3392 -0.4704  0.5158
  243DG     H16 5582   3.471   2.510   4.980  0.8643 -4.1345 -3.0772
  243DG     C17 5583   3.365   2.122   4.987 -0.2296  0.2181 -0.2910
  243DG     C18 5584   3.411   2.328   5.092  0.2443 -0.5599 -0.0383
  243DG     O19 5585   3.459   2.225   4.997  0.6405  0.0991 -0.3166
  243DG     H20 5586   3.361   2.078   5.087  1.1331  2.9820  1.1035
  243DG     H21 5587   3.267   2.157   4.957  0.1248 -0.1294 -1.9267
  243DG     H22 5588   3.423   2.303   5.197  0.6942 -2.4575 -0.5118
  243DG     H23 5589   3.307   2.358   5.083  0.5268  1.3566  2.2450
  244DG      C1 5590   3.477   2.498   3.437 -0.6134  0.0566  0.2331
  244DG      C2 5591   3.081   1.956   3.169  0.3095 -0.6143 -1.0727
  244DG      H3 5592   3.382   2.542   3.471 -2.0040 -1.6092 -1.2921
  244DG      H4 5593   3.535   2.582   3.400 -1.4607  0.1737 -0.8979
  244DG      H5 5594   3.530   2.454   3.522 -2.8748 -0.3723  1.5090
  244DG      H6 5595   3.094   1.848   3.166 -0.4998 -1.0372  3.3102
  244DG      H7 5596   3.028   1.982   3.261  1.0291  1.7885 -1.2656
  244DG      H8 5597   3.018   1.985   3.085 -0.6025  0.7979  0.0565
  244DG      O9 5598   3.464   2.396   3.333  0.0460 -0.1758 -0.4999
  244DG     O10 5599   3.201   2.032   3.174 -0.1968  0.0489 -0.2385
  244DG     C11 5600   3.427   2.453   3.207 -0.6607 -0.1913 -1.0136
  244DG     C12 5601   3.285   2.007   3.064  0.1372  0.0385 -0.0814
  244DG     H13 5602   3.490   2.538   3.181 -0.7838 -0.5508 -2.5916
  244DG     H14 5603   3.323   2.486   3.211 -0.1637  1.3492  2.1763
  244DG     H15 5604   3.224   2.015   2.975  0.2555  0.3196 -0.1386
  244DG     H16 5605   3.334   1.910   3.081  2.5927  1.5634  2.4924
  244DG     C17 5606   3.457   2.342   3.101  0.5090  0.0635  0.1253
  244DG     C18 5607   3.388   2.115   3.059  0.3184  0.5875 -0.5343
  244DG     O19 5608   3.357   2.238   3.121  0.2967 -0.1035  0.1697
  244DG     H20 5609   3.558   2.311   3.125  0.1206 -1.1260  0.2895
  244DG     H21 5610   3.454   2.376   2.997  0.8853 -0.6420 -0.1190
  244DG     H22 5611   3.475   2.074   3.110  1.0952  4.3499  1.5255
  244DG     H23 5612   3.414   2.135   2.955  0.9737 -2.2972 -1.0337
  245DG      C1 5613   1.863   3.827   0.691 -0.1353 -0.8526  0.2829
  245DG      C2 5614   1.826   3.162   0.272  0.4997 -0.1363 -0.0860
  245DG      H3 5615   1.907   3.844   0.790 -0.1615 -3.0152  0.7090
  245DG      H4 5616   1.861   3.923   0.639 -1.9626 -1.5766 -1.0821
  245DG      H5 5617   1.925   3.771   0.621 -1.4520  0.6200 -2.1916
  245DG      H6 5618   1.842   3.129   0.169  1.5637  0.6740 -0.2023
  245DG      H7 5619   1.918   3.129   0.321  0.4188  0.9710  0.8441
  245DG      H8 5620   1.741   3.113   0.317 -0.0361  0.9034  0.0682
  245DG      O9 5621   1.731   3.772   0.697  0.1270 -0.8658  0.4269
  245DG     O10 5622   1.822   3.299   0.268  0.3195 -0.6185  0.6505
  245DG     C11 5623   1.662   3.776   0.574  0.3576 -0.5556  0.2966
  245DG     C12 5624   1.828   3.373   0.392 -0.8074  0.7049  0.1037
  245DG     H13 5625   1.642   3.883   0.575  1.6011 -0.3046  0.1449
  245DG     H14 5626   1.572   3.716   0.586  0.0537 -0.3304 -0.7903
  245DG     H15 5627   1.927   3.363   0.438 -1.3913  1.0532  1.4821
  245DG     H16 5628   1.750   3.331   0.456 -2.1080  0.0414 -1.8211
  245DG     C17 5629   1.734   3.718   0.451 -0.1620  0.1704  0.4048
  245DG     C18 5630   1.812   3.518   0.368 -0.0320  0.0353  0.3434
  245DG     O19 5631   1.775   3.584   0.487  0.1669 -0.0200  0.3018
  245DG     H20 5632   1.824   3.758   0.405 -0.3796 -1.3178 -1.4473
  245DG     H21 5633   1.653   3.725   0.379  0.6992 -0.5894 -0.6706
  245DG     H22 5634   1.909   3.554   0.332  0.4442 -0.7734  0.7926
  245DG     H23 5635   1.742   3.530   0.285  0.0146  2.5639  0.5895
  246DG      C1 5636   3.895   1.803   1.831  0.0722 -0.1459  0.6132
  246DG      C2 5637   4.150   1.829   2.196  0.0371  0.2722  0.0698
  246DG      H3 5638   3.828   1.720   1.853 -1.8132  0.3469 -2.6788
  246DG      H4 5639   3.979   1.818   1.899 -0.3904  1.1099  0.9279
  246DG      H5 5640   3.936   1.774   1.734 -0.4280 -1.1677  0.6958
  246DG      H6 5641   4.245   1.776   2.191  0.2067  0.5308  0.5159
  246DG      H7 5642   4.136   1.849   2.302 -0.3871 -2.1691  0.5395
  246DG      H8 5643   4.080   1.757   2.153  0.9393 -0.5646 -0.0243
  246DG      O9 5644   3.816   1.920   1.833 -0.2437 -0.4899 -0.6503
  246DG     O10 5645   4.166   1.956   2.132 -0.0615 -0.1936  0.3255
  246DG     C11 5646   3.878   2.036   1.786 -0.2128 -0.0015  0.1197
  246DG     C12 5647   4.263   1.968   2.025  0.8765  0.4299 -0.5230
  246DG     H13 5648   3.794   2.106   1.787 -0.0738  0.1679  0.6145
  246DG     H14 5649   3.916   2.026   1.684  0.3173  0.0756  0.3025
  246DG     H15 5650   4.263   1.871   1.975  0.6576  1.0101 -1.6808
  246DG     H16 5651   4.357   1.985   2.078  1.4348 -1.7142 -0.7247
  246DG     C17 5652   3.991   2.088   1.882  0.0538  0.0135 -0.6152
  246DG     C18 5653   4.223   2.065   1.918 -0.0492  0.4570  0.1950
  246DG     O19 5654   4.112   2.023   1.846 -0.0251 -0.0879  0.1844
  246DG     H20 5655   3.973   2.078   1.989  1.3533 -3.1556 -0.5742
  246DG     H21 5656   3.997   2.195   1.866  0.9562 -0.1876 -1.6752
  246DG     H22 5657   4.222   2.166   1.959  0.5072  1.0791 -1.2337
  246DG     H23 5658   4.304   2.061   1.845 -0.5374 -0.9376 -0.2861
  247DG      C1 5659   1.131   0.625   1.333 -0.1035  0.2514  0.5710
  247DG      C2 5660   1.459   0.094   1.056 -0.2075  0.8286 -0.3809
  247DG      H3 5661   1.087   0.697   1.401 -1.2263 -0.4909  0.6647
  247DG      H4 5662   1.056   0.549   1.308 -0.4211  0.9589 -0.7420
  247DG      H5 5663   1.153   0.688   1.247 -2.3596  0.9892  0.4709
  247DG      H6 5664   1.547   0.030   1.061 -1.4174 -0.9655 -0.8887
  247DG      H7 5665   1.377   0.022   1.054 -0.0467  0.6586 -1.6019
  247DG      H8 5666   1.457   0.144   0.960 -0.3751 -0.3541 -1.0112
  247DG      O9 5667   1.244   0.562   1.393  0.1388  0.1270  0.3483
  247DG     O10 5668   1.451   0.178   1.165 -0.4458  0.4900 -0.5656
  247DG     C11 5669   1.222   0.476   1.504 -0.0631 -0.2544 -0.0893
  247DG     C12 5670   1.443   0.100   1.286 -0.0599 -0.5003  0.0326
  247DG     H13 5671   1.130   0.418   1.493 -1.4197  1.5088  1.4068
  247DG     H14 5672   1.197   0.526   1.597 -0.4013  0.1620 -0.4037
  247DG     H15 5673   1.540   0.051   1.296  1.2407  1.3680 -2.4261
  247DG     H16 5674   1.367   0.023   1.299  0.8401 -1.5009 -0.4872
  247DG     C17 5675   1.333   0.373   1.523 -0.1116 -0.9334 -0.2102
  247DG     C18 5676   1.438   0.199   1.408 -0.2467 -0.1259  0.2715
  247DG     O19 5677   1.318   0.281   1.411 -0.1416  0.9412 -0.0255
  247DG     H20 5678   1.339   0.323   1.620 -0.1550  0.3446  0.4734
  247DG     H21 5679   1.431   0.421   1.514  0.5172 -1.8277  1.4568
  247DG     H22 5680   1.459   0.144   1.500  1.3041 -0.4904 -0.2746
  247DG     H23 5681   1.526   0.263   1.397 -2.4128  2.7609 -1.5035
  248DG      C1 5682   1.476   0.218   5.388  0.4356 -0.2698  1.0140
  248DG      C2 5683   2.082   0.558   5.788  0.1782  0.1382  0.7431
  248DG      H3 5684   1.437   0.148   5.462  1.1859  0.2474  1.9191
  248DG      H4 5685   1.439   0.179   5.293  1.4764  1.9669 -0.3666
  248DG      H5 5686   1.438   0.320   5.395 -0.1752 -0.3311 -0.7983
  248DG      H6 5687   2.109   0.469   5.843 -0.2989 -0.0174  0.7308
  248DG      H7 5688   2.175   0.606   5.757 -0.0603  1.5868  2.1189
  248DG      H8 5689   2.025   0.633   5.844 -1.1224  1.4604 -2.1163
  248DG      O9 5690   1.619   0.201   5.389  0.3605 -0.0480 -0.0682
  248DG     O10 5691   2.021   0.504   5.670 -0.4682  0.4446 -0.0261
  248DG     C11 5692   1.677   0.214   5.523  0.3757  0.0712  0.6126
  248DG     C12 5693   2.095   0.400   5.600  1.2026 -0.0936 -0.0212
  248DG     H13 5694   1.637   0.126   5.574  0.5768 -0.7955 -0.6805
  248DG     H14 5695   1.632   0.308   5.555 -2.0234 -0.6469 -0.4525
  248DG     H15 5696   2.092   0.306   5.654  0.3114 -0.4129 -0.6001
  248DG     H16 5697   2.196   0.431   5.575  1.5323 -0.1265  1.2089
  248DG     C17 5698   1.829   0.221   5.510  0.1099 -0.1682  0.2591
  248DG     C18 5699   2.021   0.366   5.463 -0.7198 -0.5123  0.2541
  248DG     O19 5700   1.876   0.355   5.485 -0.1893 -0.2348 -0.3154
  248DG     H20 5701   1.869   0.158   5.431 -0.6491 -0.1848 -0.1185
  248DG     H21 5702   1.859   0.182   5.608  2.5450 -0.4289 -0.5026
  248DG     H22 5703   2.044   0.453   5.402 -1.8127 -0.0242  0.5061
  248DG     H23 5704   2.070   0.287   5.406 -0.0600  0.3731 -0.4335
  249DG      C1 5705   1.880   1.701   2.414  0.0710  0.5092  0.0794
  249DG      C2 5706   1.783   1.087   2.625  0.0368 -0.0867  0.1117
  249DG      H3 5707   1.977   1.673   2.373  0.9054 -1.1227  2.9071
  249DG      H4 5708   1.909   1.727   2.516  0.3477  0.8606 -0.0868
  249DG      H5 5709   1.838   1.783   2.356 -0.5205  0.2311  0.0980
  249DG      H6 5710   1.766   1.113   2.521 -2.1886 -0.1603  0.4005
  249DG      H7 5711   1.891   1.071   2.632  0.1667  0.9489  0.7185
  249DG      H8 5712   1.731   0.994   2.649 -1.8635  0.5865 -1.1760
  249DG      O9 5713   1.797   1.589   2.425  0.1481 -0.3944  0.4991
  249DG     O10 5714   1.750   1.201   2.703 -0.3382  0.6594 -0.1157
  249DG     C11 5715   1.781   1.503   2.306 -0.4309 -0.5050  0.2283
  249DG     C12 5716   1.622   1.252   2.663 -0.2295  0.1584 -0.6491
  249DG     H13 5717   1.874   1.448   2.289 -0.8001 -1.3958  1.0070
  249DG     H14 5718   1.760   1.568   2.221 -1.4065  0.5314  1.2343
  249DG     H15 5719   1.588   1.312   2.748  0.9049  0.4903 -0.4198
  249DG     H16 5720   1.543   1.179   2.644  0.3745 -0.1098 -2.2494
  249DG     C17 5721   1.651   1.415   2.340 -0.3967  0.1890 -0.2877
  249DG     C18 5722   1.617   1.368   2.562 -0.1945 -0.3149 -0.2670
  249DG     O19 5723   1.685   1.327   2.448  0.2243  0.4051 -0.1177
  249DG     H20 5724   1.621   1.353   2.256 -0.9758 -0.7210  0.5631
  249DG     H21 5725   1.561   1.473   2.362 -0.1267  0.1247  1.0907
  249DG     H22 5726   1.517   1.405   2.542  0.5803  0.9751 -2.1264
  249DG     H23 5727   1.666   1.459   2.598  1.1029 -1.6225  1.4410
  250DG      C1 5728   3.566   2.119   3.477  0.3733  0.3549  0.5244
  250DG      C2 5729   2.989   2.343   3.227  0.2842 -0.5291 -0.1473
  250DG      H3 5730   3.575   2.223   3.508 -1.8382  0.5306  0.7290
  250DG      H4 5731   3.591   2.123   3.371 -1.2820 -0.7910  0.0459
  250DG      H5 5732   3.645   2.061   3.524  2.3636  1.1918 -1.6106
  250DG      H6 5733   2.899   2.404   3.239  0.1428 -0.5774 -0.9256
  250DG      H7 5734   3.058   2.411   3.177 -0.5214  0.9986  0.7281
  250DG      H8 5735   2.961   2.258   3.165 -0.7969  1.3787 -2.3893
  250DG      O9 5736   3.436   2.065   3.484  0.1392  0.3748  0.2118
  250DG     O10 5737   3.056   2.298   3.344 -0.0983 -0.3235 -0.1683
  250DG     C11 5738   3.387   2.066   3.621 -0.0780 -0.0938  0.3266
  250DG     C12 5739   2.970   2.216   3.420  0.1341  0.3661 -0.1290
  250DG     H13 5740   3.416   2.162   3.664  2.6212  0.5232 -2.5447
  250DG     H14 5741   3.437   1.990   3.681 -0.4698 -0.9983 -0.4635
  250DG     H15 5742   2.942   2.129   3.362 -0.1293  0.4060 -0.0627
  250DG     H16 5743   2.876   2.263   3.449  1.0962  2.2610  0.1040
  250DG     C17 5744   3.236   2.049   3.629 -0.5024  0.5304  0.3841
  250DG     C18 5745   3.030   2.163   3.553 -0.9575 -0.4815 -0.6383
  250DG     O19 5746   3.167   2.115   3.524 -0.3245  0.3540  0.5421
  250DG     H20 5747   3.191   2.079   3.724 -3.2127 -0.9289 -0.3155
  250DG     H21 5748   3.217   1.943   3.608  0.1476  0.3635  0.6177
  250DG     H22 5749   3.037   2.251   3.616  0.3252 -0.9717 -0.0469
  250DG     H23 5750   2.974   2.101   3.624  0.4824  1.4977  2.4599
  251DG      C1 5751   2.292   2.020   1.589  0.0372  0.2981 -0.0097
  251DG      C2 5752   2.492   1.279   1.461  0.2416 -0.0190 -0.5032
  251DG      H3 5753   2.266   2.065   1.493 -2.7433 -0.0776  0.4959
  251DG      H4 5754   2.401   2.013   1.596  0.0416  0.8235  0.5443
  251DG      H5 5755   2.250   2.086   1.665 -1.7194 -2.5706  1.6604
  251DG      H6 5756   2.480   1.312   1.358 -0.6360  0.7016 -0.1895
  251DG      H7 5757   2.595   1.254   1.487  0.5502  2.1812  0.6278
  251DG      H8 5758   2.425   1.193   1.471 -1.5260  1.2684 -0.7996
  251DG      O9 5759   2.250   1.884   1.599  0.0724 -0.1211 -0.2062
  251DG     O10 5760   2.439   1.371   1.550  0.1201 -0.1571  0.2040
  251DG     C11 5761   2.267   1.824   1.718 -0.0891  0.0749 -0.9782
  251DG     C12 5762   2.517   1.487   1.573 -0.2437  0.0119  0.2759
  251DG     H13 5763   2.198   1.870   1.788 -1.3894 -1.7048 -1.0368
  251DG     H14 5764   2.366   1.831   1.763 -0.9448  1.3069  0.8205
  251DG     H15 5765   2.545   1.523   1.474 -2.8165  1.8474  0.1282
  251DG     H16 5766   2.610   1.462   1.624 -0.0806  1.2367  0.6023
  251DG     C17 5767   2.226   1.678   1.706  0.0376 -0.8272 -0.3684
  251DG     C18 5768   2.448   1.600   1.657 -0.0819 -0.2814 -0.9166
  251DG     O19 5769   2.307   1.608   1.619  1.2453 -0.0812  0.1911
  251DG     H20 5770   2.120   1.671   1.682  0.0424  0.9613 -1.0300
  251DG     H21 5771   2.242   1.630   1.803  0.3210 -1.5469 -0.7673
  251DG     H22 5772   2.462   1.573   1.761 -2.7959 -0.8839 -0.6446
  251DG     H23 5773   2.501   1.694   1.639  0.0687 -0.7621 -3.4880
  252DG      C1 5774   2.921   4.189   0.470 -0.3459  0.0699 -1.3032
  252DG      C2 5775   2.524   4.344  -0.200 -0.0502  0.1811  0.3592
  252DG      H3 5776   3.007   4.168   0.533 -1.0568 -1.8768 -0.9302
  252DG      H4 5777   2.846   4.116   0.501 -0.7433  0.7355 -0.6741
  252DG      H5 5778   2.871   4.282   0.496 -0.0705 -0.1152 -0.0436
  252DG      H6 5779   2.509   4.300  -0.299  1.8512  1.0195 -0.3473
  252DG      H7 5780   2.439   4.319  -0.136 -0.1124  1.0119  0.6071
  252DG      H8 5781   2.526   4.453  -0.203 -0.8771  0.1901 -1.3291
  252DG      O9 5782   2.941   4.178   0.334  0.4579  0.2537  0.1162
  252DG     O10 5783   2.632   4.283  -0.147  0.2089 -0.0635 -0.5841
  252DG     C11 5784   2.992   4.294   0.267  0.3264 -0.8819  0.4022
  252DG     C12 5785   2.758   4.346  -0.162 -0.7060 -0.1432 -0.7649
  252DG     H13 5786   3.095   4.303   0.303 -0.3878  0.6023  2.2953
  252DG     H14 5787   2.934   4.382   0.294 -0.9916 -2.4368  2.9676
  252DG     H15 5788   2.742   4.441  -0.112 -0.4495  0.1330 -1.2056
  252DG     H16 5789   2.780   4.359  -0.268  2.4652 -3.9252 -0.8042
  252DG     C17 5790   3.001   4.281   0.114  0.4030 -0.8928  0.0546
  252DG     C18 5791   2.883   4.271  -0.094  0.5652  0.2477  0.1456
  252DG     O19 5792   2.872   4.288   0.047  0.0906  0.2401  0.1661
  252DG     H20 5793   3.046   4.184   0.096  3.4123  0.5111 -0.6031
  252DG     H21 5794   3.064   4.355   0.064 -0.9325 -0.7788 -1.5470
  252DG     H22 5795   2.895   4.168  -0.129 -0.4287  0.1454  0.0769
  252DG     H23 5796   2.971   4.318  -0.138  0.2404  1.2884  0.5996
  253DG      C1 5797   1.761   2.108   2.346  0.5115  0.3053  0.0538
  253DG      C2 5798   1.457   2.432   1.711 -0.8098 -0.0947  0.3742
  253DG      H3 5799   1.739   2.214   2.327  0.5689  0.0948 -1.2967
  253DG      H4 5800   1.850   2.110   2.408 -0.6103  0.0823  1.7402
  253DG      H5 5801   1.678   2.054   2.391  0.9491 -1.2256 -0.8929
  253DG      H6 5802   1.368   2.485   1.677 -1.0858 -0.6269  0.2622
  253DG      H7 5803   1.544   2.490   1.681 -0.8756 -0.7312 -1.1065
  253DG      H8 5804   1.461   2.339   1.655  2.6743 -0.6622  1.3277
  253DG      O9 5805   1.797   2.037   2.233  0.7763  0.3220  0.1635
  253DG     O10 5806   1.435   2.404   1.853 -0.0794 -0.2701  0.9657
  253DG     C11 5807   1.690   1.972   2.163 -0.5644 -0.0625 -0.4118
  253DG     C12 5808   1.528   2.317   1.901  0.2608 -0.1314 -0.3470
  253DG     H13 5809   1.650   1.896   2.230 -0.9272  0.0496 -0.4998
  253DG     H14 5810   1.733   1.920   2.077  0.5818 -0.8860  0.6199
  253DG     H15 5811   1.623   2.370   1.891 -0.2213  1.1639  1.4118
  253DG     H16 5812   1.527   2.224   1.844 -0.4699  0.7236 -1.7945
  253DG     C17 5813   1.567   2.071   2.128 -0.8296 -0.2153  0.3986
  253DG     C18 5814   1.515   2.281   2.042  0.3568 -0.2369  0.0732
  253DG     O19 5815   1.618   2.198   2.078 -0.1987  0.3985  0.7688
  253DG     H20 5816   1.506   2.085   2.217 -0.7557  0.8903  0.2941
  253DG     H21 5817   1.503   2.014   2.061  0.9055 -0.3579 -1.2111
  253DG     H22 5818   1.524   2.373   2.101 -0.5789  1.2008 -1.9124
  253DG     H23 5819   1.412   2.246   2.048 -0.3038  1.5436 -0.2910
  254DG      C1 5820   2.600   3.152   0.848  0.1439 -1.1218 -0.1011
  254DG      C2 5821   2.778   3.374   1.511  0.0376 -0.1110  0.2809
  254DG      H3 5822   2.678   3.076   0.842  1.7040  0.4244 -0.5110
  254DG      H4 5823   2.582   3.192   0.748 -0.3011 -0.0290  0.4007
  254DG      H5 5824   2.505   3.107   0.874 -0.3749  0.2818  0.5654
  254DG      H6 5825   2.885   3.361   1.526  0.1406  1.7240  1.5373
  254DG      H7 5826   2.736   3.430   1.595 -2.8664 -1.7083  0.0007
  254DG      H8 5827   2.728   3.277   1.511 -0.9883  0.3377 -2.5451
  254DG      O9 5828   2.645   3.267   0.927 -0.1186  0.2455  0.1623
  254DG     O10 5829   2.753   3.440   1.391  0.0977  0.1702  0.0130
  254DG     C11 5830   2.545   3.368   0.931 -0.3295  0.1918 -0.3077
  254DG     C12 5831   2.843   3.405   1.282  0.0450  0.1557  0.1417
  254DG     H13 5832   2.448   3.344   0.973  0.4502 -0.6752  1.0457
  254DG     H14 5833   2.517   3.400   0.830 -1.4067  0.6248  0.1159
  254DG     H15 5834   2.843   3.300   1.255 -0.2563 -0.7228  3.1896
  254DG     H16 5835   2.948   3.419   1.307  0.1345 -0.8187  0.3345
  254DG     C17 5836   2.605   3.483   1.014 -0.1841 -0.4313  0.4128
  254DG     C18 5837   2.802   3.483   1.169 -0.3334 -0.1823  0.5719
  254DG     O19 5838   2.670   3.429   1.131  0.1771 -0.5272 -0.4907
  254DG     H20 5839   2.524   3.549   1.043  0.0891 -0.0305  0.2685
  254DG     H21 5840   2.672   3.536   0.946 -0.5082  0.5320  0.8328
  254DG     H22 5841   2.820   3.590   1.175  2.2781 -0.3308 -2.5503
  254DG     H23 5842   2.878   3.455   1.097  1.4129  0.8700  1.9364
  255DG      C1 5843   4.655   0.820   2.801  0.3239  0.6794 -0.0035
  255DG      C2 5844   3.922   0.579   2.480 -0.2379 -0.0457 -0.1808
  255DG      H3 5845   4.624   0.876   2.713 -2.1991  0.6627  0.8169
  255DG      H4 5846   4.730   0.747   2.768 -2.0558 -1.0296 -2.0127
  255DG      H5 5847   4.687   0.889   2.879  2.0325 -0.8215  0.7244
  255DG      H6 5848   3.862   0.670   2.470 -2.7977 -1.8357 -2.8538
  255DG      H7 5849   3.977   0.569   2.387  0.1525  0.1933  0.0231
  255DG      H8 5850   3.846   0.502   2.495  0.3658 -0.4005  1.1735
  255DG      O9 5851   4.542   0.748   2.847  0.0763 -0.1176 -0.8345
  255DG     O10 5852   3.996   0.581   2.602  0.0782 -0.0881 -0.0190
  255DG     C11 5853   4.455   0.703   2.741 -0.4498 -0.3985  0.1083
  255DG     C12 5854   4.079   0.474   2.609 -0.3291  0.1834  0.7197
  255DG     H13 5855   4.504   0.643   2.664 -1.7765  2.0283 -2.8465
  255DG     H14 5856   4.404   0.786   2.692 -0.8264 -0.5267  0.2841
  255DG     H15 5857   4.135   0.483   2.516 -1.4991 -1.6252 -0.2291
  255DG     H16 5858   4.031   0.376   2.603  2.5173 -1.3629  0.8805
  255DG     C17 5859   4.350   0.620   2.808  0.0463  1.3443  0.3688
  255DG     C18 5860   4.169   0.484   2.732 -0.1363  0.1298  0.2339
  255DG     O19 5861   4.254   0.602   2.712  0.0226  0.4614  0.3073
  255DG     H20 5862   4.313   0.673   2.895  2.0726  0.3853  1.8770
  255DG     H21 5863   4.388   0.522   2.835 -1.2392  1.2273  1.8734
  255DG     H22 5864   4.100   0.499   2.815 -2.1426 -0.8915 -1.1768
  255DG     H23 5865   4.221   0.390   2.754 -1.2857 -0.9311 -1.3584
  256DG      C1 5866   3.192   4.329   4.856  0.5219  0.2872 -0.4339
  256DG      C2 5867   3.376   4.264   5.542 -0.0848 -0.4567  0.5275
  256DG      H3 5868   3.294   4.322   4.818  1.0232  3.5343  0.0146
  256DG      H4 5869   3.127   4.368   4.778 -0.6625 -2.3698 -0.8962
  256DG      H5 5870   3.168   4.225   4.881  3.1841 -1.0034 -2.6954
  256DG      H6 5871   3.316   4.178   5.572  1.0887 -1.2664  0.6036
  256DG      H7 5872   3.468   4.233   5.493  2.2419  2.5698  2.5838
  256DG      H8 5873   3.397   4.321   5.633  1.1751  0.5020 -0.3340
  256DG      O9 5874   3.204   4.420   4.961  0.2166  0.3589 -0.3398
  256DG     O10 5875   3.297   4.359   5.471  0.3050  0.7081  0.6676
  256DG     C11 5876   3.086   4.443   5.024  0.2834 -0.7846  0.1163
  256DG     C12 5877   3.364   4.478   5.420  0.3570  0.2800 -0.1134
  256DG     H13 5878   3.055   4.348   5.067 -0.5814 -0.6003 -0.0983
  256DG     H14 5879   3.008   4.483   4.959  1.3600  0.2165 -0.6017
  256DG     H15 5880   3.443   4.449   5.350 -0.8634 -1.6008 -0.7766
  256DG     H16 5881   3.394   4.538   5.507 -0.1248  2.7013 -1.5212
  256DG     C17 5882   3.127   4.553   5.127  0.3250  0.7523  0.5545
  256DG     C18 5883   3.267   4.562   5.332  0.7700 -0.4011  0.1481
  256DG     O19 5884   3.222   4.492   5.212  0.0575  0.3433 -0.1627
  256DG     H20 5885   3.033   4.579   5.175 -0.6138  0.2820 -0.9604
  256DG     H21 5886   3.172   4.639   5.076  0.6476 -1.0682 -2.5154
  256DG     H22 5887   3.177   4.594   5.386 -0.3713 -0.7932 -1.4629
  256DG     H23 5888   3.313   4.656   5.302 -1.0520  0.6782  0.5612
  257DG      C1 5889   4.601   0.030   5.243 -0.8581  0.2161 -0.1598
  257DG      C2 5890   4.678   0.498   5.912 -0.1359  0.1980  0.2895
  257DG      H3 5891   4.708   0.042   5.228 -0.0654 -4.3072  0.5835
  257DG      H4 5892   4.557   0.079   5.156  2.0332  1.8440 -0.8185
  257DG      H5 5893   4.588  -0.078   5.242 -1.2034  0.2443  0.3640
  257DG      H6 5894   4.783   0.526   5.917  0.0197 -0.6503  3.0718
  257DG      H7 5895   4.632   0.546   5.998 -0.2320 -0.0912  0.3984
  257DG      H8 5896   4.670   0.393   5.941 -2.7990  0.8137  2.0781
  257DG      O9 5897   4.543   0.076   5.363 -0.6842 -0.1966  0.1438
  257DG     O10 5898   4.609   0.544   5.794 -0.1322 -0.3190 -0.6370
  257DG     C11 5899   4.606   0.020   5.477 -0.8183  0.0418  0.2359
  257DG     C12 5900   4.647   0.455   5.684 -0.1625 -0.0337  0.4611
  257DG     H13 5901   4.714   0.036   5.489 -0.8135  1.1371 -1.0740
  257DG     H14 5902   4.585  -0.086   5.493  1.0118 -0.5905 -1.1506
  257DG     H15 5903   4.754   0.434   5.686 -0.0145  0.6607 -0.1198
  257DG     H16 5904   4.630   0.510   5.592  0.7350 -0.6467 -0.0820
  257DG     C17 5905   4.549   0.111   5.586  0.1888 -0.1098 -0.6270
  257DG     C18 5906   4.563   0.323   5.687  0.2831  0.0819  0.1016
  257DG     O19 5907   4.624   0.230   5.591  0.2261 -0.9917 -0.2867
  257DG     H20 5908   4.549   0.060   5.682 -0.7456  0.8887 -0.0690
  257DG     H21 5909   4.445   0.137   5.565 -0.5670 -3.3403 -1.4435
  257DG     H22 5910   4.558   0.277   5.785 -1.2187 -0.3411 -0.1511
  257DG     H23 5911   4.461   0.345   5.656  0.4629 -0.8039 -1.1731
  258DG      C1 5912   1.288   4.641   0.209  0.3014 -0.4910  0.2442
  258DG      C2 5913   1.149   4.942   0.764  0.7312 -0.1203 -0.2498
  258DG      H3 5914   1.304   4.733   0.154 -1.4290  0.2276  0.8838
  258DG      H4 5915   1.192   4.598   0.183 -0.8373  2.4917 -0.8310
  258DG      H5 5916   1.374   4.580   0.180  0.0296 -0.6941 -0.1400
  258DG      H6 5917   1.154   4.990   0.666 -2.1114  0.2869 -0.2918
  258DG      H7 5918   1.063   4.981   0.820  0.5743 -1.5449  0.5358
  258DG      H8 5919   1.237   4.979   0.817 -1.0413  1.4788  1.8193
  258DG      O9 5920   1.290   4.667   0.350 -0.6072  0.0795 -0.0011
  258DG     O10 5921   1.153   4.802   0.761 -0.2548  0.1772 -0.3361
  258DG     C11 5922   1.299   4.552   0.425  0.4041  0.5942  0.0278
  258DG     C12 5923   1.031   4.740   0.741 -0.8920  0.9330  0.5614
  258DG     H13 5924   1.399   4.509   0.425 -0.0475 -0.4839 -0.6274
  258DG     H14 5925   1.241   4.481   0.366 -1.9892  1.4242  1.2537
  258DG     H15 5926   0.969   4.803   0.677 -0.0554  1.9982  0.7627
  258DG     H16 5927   0.981   4.739   0.838 -1.4714 -0.9042  0.2846
  258DG     C17 5928   1.248   4.572   0.569  0.0246 -0.3016 -0.5417
  258DG     C18 5929   1.033   4.599   0.679 -0.1056 -0.1461 -0.0745
  258DG     O19 5930   1.112   4.586   0.556 -0.7952  0.1349 -0.7072
  258DG     H20 5931   1.292   4.657   0.622 -0.1552 -1.4487  1.5671
  258DG     H21 5932   1.274   4.486   0.631  2.7807  0.2958 -0.7022
  258DG     H22 5933   1.069   4.527   0.753  2.0511  0.3185 -0.5932
  258DG     H23 5934   0.935   4.563   0.647 -0.3192 -0.5306  0.9849
  259DG      C1 5935   1.724   1.979   0.070 -0.3970  0.4938  0.1021
  259DG      C2 5936   1.261   2.635   0.056 -0.3886 -0.1033 -0.2265
  259DG      H3 5937   1.736   1.960   0.177  0.9883 -0.3857 -0.1775
  259DG      H4 5938   1.813   2.021   0.023  1.0229 -2.5536 -0.1784
  259DG      H5 5939   1.704   1.883   0.022 -0.5544  1.2918 -1.4652
  259DG      H6 5940   1.366   2.658   0.071 -0.6611  0.1834  1.4322
  259DG      H7 5941   1.229   2.648  -0.048 -0.8945  0.7065  0.0267
  259DG      H8 5942   1.208   2.694   0.130 -0.2736  0.7464 -0.8110
  259DG      O9 5943   1.607   2.057   0.062  0.6415 -0.5671 -0.6392
  259DG     O10 5944   1.230   2.501   0.092  1.0012 -0.3909  0.3047
  259DG     C11 5945   1.490   2.005   0.133  0.1779  0.6811 -0.2071
  259DG     C12 5946   1.310   2.398   0.041  0.5495 -0.4861 -0.7614
  259DG     H13 5947   1.516   1.958   0.228  0.8257  0.0987 -0.6615
  259DG     H14 5948   1.446   1.919   0.084  0.8643 -1.6896  2.9781
  259DG     H15 5949   1.409   2.396   0.087 -0.2179  0.6222  1.0211
  259DG     H16 5950   1.324   2.402  -0.067 -0.3006  0.7931 -0.8388
  259DG     C17 5951   1.389   2.117   0.164  0.3095 -0.1800 -0.5961
  259DG     C18 5952   1.236   2.269   0.071 -0.2916  0.6695  0.0343
  259DG     O19 5953   1.315   2.152   0.052  0.0081  0.4362 -0.0705
  259DG     H20 5954   1.452   2.193   0.209 -1.2055  0.7195  0.0613
  259DG     H21 5955   1.310   2.094   0.235 -0.0879  1.6605 -0.3952
  259DG     H22 5956   1.212   2.271   0.177  3.1972 -1.2837  1.0214
  259DG     H23 5957   1.146   2.263   0.009 -2.0843 -0.8120  2.5690
  260DG      C1 5958   2.204   3.766   3.110  0.0907  0.6815 -0.1414
  260DG      C2 5959   2.488   3.135   3.014  0.3457 -0.6460 -0.6539
  260DG      H3 5960   2.141   3.742   3.195 -0.7808 -0.7208 -1.1355
  260DG      H4 5961   2.143   3.767   3.020  0.4232  0.2398 -0.3781
  260DG      H5 5962   2.266   3.856   3.105  1.4826 -0.2971 -3.0034
  260DG      H6 5963   2.526   3.052   3.074 -0.2285  0.7175  1.7080
  260DG      H7 5964   2.388   3.110   2.979 -0.1179  0.0228  0.1466
  260DG      H8 5965   2.557   3.143   2.930  1.0294  1.4791  0.0478
  260DG      O9 5966   2.309   3.664   3.105  0.7528 -0.5488 -0.3188
  260DG     O10 5967   2.489   3.249   3.102  0.1342  0.0772 -0.2097
  260DG     C11 5968   2.388   3.668   3.223 -0.0593  0.1121 -0.0235
  260DG     C12 5969   2.618   3.275   3.148  0.3794 -0.3165  0.3271
  260DG     H13 5970   2.345   3.599   3.296  1.3926 -0.4831  0.2884
  260DG     H14 5971   2.379   3.768   3.267 -0.8120  0.1126 -0.1708
  260DG     H15 5972   2.695   3.273   3.071  0.6129 -1.5460  0.5713
  260DG     H16 5973   2.650   3.195   3.216  3.7061  0.0106 -0.6589
  260DG     C17 5974   2.537   3.642   3.187 -0.2653 -0.8555  0.0139
  260DG     C18 5975   2.614   3.411   3.223  0.8195 -0.4591 -0.6291
  260DG     O19 5976   2.561   3.514   3.136 -0.8867  0.0885 -0.2802
  260DG     H20 5977   2.596   3.664   3.275  0.3911 -0.1078 -0.6013
  260DG     H21 5978   2.570   3.714   3.112 -0.6579  0.4220  1.0266
  260DG     H22 5979   2.547   3.399   3.308 -0.6054 -0.3265 -1.7077
  260DG     H23 5980   2.709   3.441   3.268 -0.6686  2.3560  0.9028
  261DG      C1 5981   2.020   2.387   5.436 -0.2016  0.9053  0.0537
  261DG      C2 5982   1.567   2.861   5.109 -0.6006  0.3484 -0.8120
  261DG      H3 5983   2.036   2.298   5.497 -1.2481  0.6987  0.0601
  261DG      H4 5984   2.066   2.467   5.493  0.1410  2.3936 -2.1725
  261DG      H5 5985   2.075   2.374   5.343 -1.2624 -1.2516 -0.3453
  261DG      H6 5986   1.556   2.952   5.168  0.6156  0.5716 -0.8975
  261DG      H7 5987   1.647   2.883   5.038 -1.0992  1.2039 -1.1203
  261DG      H8 5988   1.472   2.862   5.057 -0.7550 -1.4490 -0.6147
  261DG      O9 5989   1.887   2.421   5.406 -0.2026  0.0384  0.0467
  261DG     O10 5990   1.584   2.742   5.193  0.6172  0.0971  0.0600
  261DG     C11 5991   1.813   2.310   5.348  0.0489  0.7618 -0.1158
  261DG     C12 5992   1.524   2.628   5.131 -0.0848  0.3368 -0.5491
  261DG     H13 5993   1.841   2.216   5.395  2.6822  0.8370 -1.3607
  261DG     H14 5994   1.851   2.309   5.246 -0.5087  3.4968 -0.4263
  261DG     H15 5995   1.564   2.602   5.033  0.7971 -0.8174  0.0882
  261DG     H16 5996   1.420   2.653   5.112 -0.2402  0.4624  0.4193
  261DG     C17 5997   1.660   2.338   5.346  0.1597  0.0247 -1.2162
  261DG     C18 5998   1.537   2.507   5.235  0.1499 -0.2060  0.5743
  261DG     O19 5999   1.666   2.453   5.260 -0.9094  0.3942  0.0128
  261DG     H20 6000   1.618   2.350   5.446  0.6906 -1.4648 -0.7899
  261DG     H21 6001   1.606   2.256   5.299  0.1480 -1.8963  1.8646
  261DG     H22 6002   1.495   2.539   5.331  1.3518  0.5567  0.8726
  261DG     H23 6003   1.476   2.421   5.206  1.2894 -0.2561 -1.8582
  262DG      C1 6004   5.346   4.355   1.537  0.0621  0.0721 -0.0619
  262DG      C2 6005   5.636   4.057   0.970  0.4271  0.5322 -0.0691
  262DG      H3 6006   5.333   4.344   1.644 -0.0556 -1.4115 -0.2181
  262DG      H4 6007   5.254   4.355   1.480 -0.6173 -0.4544  1.0122
  262DG      H5 6008   5.394   4.449   1.506  0.0666 -0.8289 -3.1109
  262DG      H6 6009   5.716   4.015   0.910  0.0012 -1.6856  0.8047
  262DG      H7 6010   5.545   4.027   0.917 -0.4946  2.6439  0.2260
  262DG      H8 6011   5.649   4.165   0.971 -0.4005  0.6420 -0.2583
  262DG      O9 6012   5.424   4.248   1.492  0.3592  0.0516  0.2768
  262DG     O10 6013   5.634   4.005   1.104  0.6663 -0.2135  0.4077
  262DG     C11 6014   5.548   4.230   1.562 -0.1382 -0.4310 -0.0753
  262DG     C12 6015   5.755   4.011   1.184 -0.9159  0.4921 -0.1165
  262DG     H13 6016   5.533   4.228   1.670  0.6587  0.8469  0.0812
  262DG     H14 6017   5.618   4.310   1.538 -0.3685  0.5607  2.2636
  262DG     H15 6018   5.805   4.104   1.154 -0.1674  0.1264 -0.0223
  262DG     H16 6019   5.814   3.926   1.152 -0.2108  0.9101  0.0331
  262DG     C17 6020   5.623   4.103   1.521  0.9029 -0.3336 -0.2549
  262DG     C18 6021   5.720   4.001   1.330 -0.2072 -0.1895 -0.1295
  262DG     O19 6022   5.643   4.108   1.380  0.2611 -0.1177  0.5675
  262DG     H20 6023   5.569   4.018   1.563  0.4928  0.5139  0.9930
  262DG     H21 6024   5.717   4.097   1.576  0.8134 -0.0063 -0.0576
  262DG     H22 6025   5.670   3.905   1.343  1.9429 -1.3607 -0.1544
  262DG     H23 6026   5.821   4.000   1.370  0.3632 -0.6479 -1.5142
  263DG      C1 6027   0.100   2.817   1.133  0.1411  0.5299 -0.3069
  263DG      C2 6028   0.677   2.377   0.986 -1.0337  0.0034 -0.7892
  263DG      H3 6029   0.027   2.735   1.128  0.0765  0.6437 -1.6435
  263DG      H4 6030   0.043   2.909   1.120  2.0291  1.9426  0.9034
  263DG      H5 6031   0.130   2.828   1.237  0.3565 -2.1385  0.0005
  263DG      H6 6032   0.656   2.278   0.948 -1.5889 -0.9871  1.9035
  263DG      H7 6033   0.785   2.393   0.987 -1.2474  1.8850 -1.8476
  263DG      H8 6034   0.648   2.376   1.091 -1.0504  0.9711 -0.7745
  263DG      O9 6035   0.215   2.803   1.060  0.4393  0.1365  0.0903
  263DG     O10 6036   0.616   2.476   0.901 -0.4022 -0.1060 -0.1234
  263DG     C11 6037   0.184   2.789   0.923 -0.3405 -0.2646  0.2263
  263DG     C12 6038   0.641   2.603   0.957  0.5470 -0.9908 -0.3078
  263DG     H13 6039   0.110   2.854   0.876  1.2337  1.1987 -0.3342
  263DG     H14 6040   0.139   2.690   0.913  1.9952 -1.4476  0.5388
  263DG     H15 6041   0.745   2.632   0.945  0.3177 -0.9275 -2.4717
  263DG     H16 6042   0.621   2.601   1.065  1.3308  0.1837 -0.1185
  263DG     C17 6043   0.323   2.779   0.860 -0.0638  0.7505  0.2068
  263DG     C18 6044   0.560   2.710   0.893 -0.0089  0.3075 -0.8435
  263DG     O19 6045   0.421   2.696   0.930 -0.0544  0.3239  0.0321
  263DG     H20 6046   0.355   2.883   0.859 -0.4475  0.8690  0.3101
  263DG     H21 6047   0.318   2.751   0.754 -1.6156  0.2326  0.4001
  263DG     H22 6048   0.589   2.810   0.926 -0.3250 -0.1006  0.7691
  263DG     H23 6049   0.569   2.717   0.784 -0.1663  0.0590 -0.8728
  264DG      C1 6050   5.155   4.211   5.228 -0.4962  0.2033  0.1021
  264DG      C2 6051   5.385   4.556   5.747 -1.0189 -0.3233 -0.3967
  264DG      H3 6052   5.084   4.151   5.171 -1.4614 -1.1440  2.5905
  264DG      H4 6053   5.256   4.170   5.229 -0.3414  0.5608 -0.1938
  264DG      H5 6054   5.164   4.316   5.200  0.1030 -0.2013 -1.3310
  264DG      H6 6055   5.487   4.534   5.778 -1.4029 -0.5884  0.7510
  264DG      H7 6056   5.387   4.650   5.693  0.9692 -0.5201 -0.7407
  264DG      H8 6057   5.326   4.578   5.836 -2.5669  0.5422 -1.5990
  264DG      O9 6058   5.135   4.194   5.365  0.7410 -0.1742 -0.8249
  264DG     O10 6059   5.343   4.457   5.665  0.1293  0.4960 -0.2820
  264DG     C11 6060   5.010   4.235   5.416 -0.6771  0.3597  0.2758
  264DG     C12 6061   5.328   4.326   5.735 -0.0313 -0.7010 -0.5837
  264DG     H13 6062   4.951   4.157   5.368  0.6006 -0.5141  0.0841
  264DG     H14 6063   4.972   4.331   5.381  1.1420  1.4539  1.2057
  264DG     H15 6064   5.284   4.347   5.832  0.2566  1.5503 -0.8944
  264DG     H16 6065   5.426   4.280   5.751  0.3609  0.8355  2.0072
  264DG     C17 6066   5.010   4.226   5.568  0.4555  0.4719 -0.3543
  264DG     C18 6067   5.238   4.241   5.647 -0.1720 -0.5929 -0.0053
  264DG     O19 6068   5.117   4.311   5.614  0.3784  0.2437  0.1249
  264DG     H20 6069   5.026   4.128   5.613 -0.0907  0.6844  0.3271
  264DG     H21 6070   4.913   4.268   5.599  0.4519  3.4716 -3.7742
  264DG     H22 6071   5.284   4.215   5.552 -2.1283  0.6711 -1.3675
  264DG     H23 6072   5.228   4.147   5.701 -0.2842 -0.3609  0.3832
  265DG      C1 6073   0.499   1.661   4.403 -0.2459 -0.6417 -0.4444
  265DG      C2 6074   0.767   2.281   4.497 -0.4602 -0.0206 -0.5046
  265DG      H3 6075   0.412   1.596   4.392  0.4457 -1.6049 -0.3915
  265DG      H4 6076   0.558   1.655   4.495  0.1713 -1.0354 -0.7345
  265DG      H5 6077   0.557   1.635   4.314 -1.1650 -2.6344 -0.5172
  265DG      H6 6078   0.779   2.387   4.475  0.0339  0.2798  1.1237
  265DG      H7 6079   0.824   2.280   4.589  1.5863 -0.1934 -1.7004
  265DG      H8 6080   0.809   2.202   4.434 -2.8466 -1.7782 -0.0323
  265DG      O9 6081   0.455   1.802   4.377  0.2665 -0.3980  0.0089
  265DG     O10 6082   0.623   2.266   4.501 -0.7214  0.4603 -0.4782
  265DG     C11 6083   0.385   1.855   4.492  0.2309  0.2664 -0.1364
  265DG     C12 6084   0.556   2.286   4.382 -0.6020  0.1805 -0.0766
  265DG     H13 6085   0.449   1.873   4.578  2.1449 -0.3694 -1.3619
  265DG     H14 6086   0.310   1.781   4.520  1.9628 -1.9916 -1.1800
  265DG     H15 6087   0.613   2.244   4.299  1.0840  1.2013  0.5210
  265DG     H16 6088   0.541   2.392   4.360  0.6206  0.3755 -0.0528
  265DG     C17 6089   0.333   1.995   4.448 -1.0669  0.2177 -0.1924
  265DG     C18 6090   0.426   2.217   4.398  0.2998  0.3339  0.0433
  265DG     O19 6091   0.447   2.075   4.409 -0.4084 -0.0062 -0.9508
  265DG     H20 6092   0.293   2.037   4.541  0.1021  0.4812  0.2117
  265DG     H21 6093   0.258   1.997   4.369  1.1728 -0.1283 -2.4493
  265DG     H22 6094   0.377   2.248   4.490 -0.5000 -0.3980 -0.1267
  265DG     H23 6095   0.364   2.244   4.313 -0.7450  0.7409  0.9106
  266DG      C1 6096   4.760   0.101   0.422  0.4240  0.1975  0.6443
  266DG      C2 6097   4.800  -0.522   0.397 -0.4545 -0.2365  0.2011
  266DG      H3 6098   4.757   0.196   0.369  0.0372 -0.2729 -0.1940
  266DG      H4 6099   4.813   0.116   0.516  2.2791  1.3223 -0.5102
  266DG      H5 6100   4.655   0.081   0.443 -0.3725  0.2968 -2.7451
  266DG      H6 6101   4.709  -0.467   0.374 -0.4452 -1.6030 -3.8617
  266DG      H7 6102   4.785  -0.623   0.358  0.0565 -0.2841  0.1135
  266DG      H8 6103   4.822  -0.538   0.503 -0.4155  0.7583  0.3526
  266DG      O9 6104   4.822   0.010   0.326  0.3875  0.7813 -0.5816
  266DG     O10 6105   4.921  -0.453   0.351 -0.4019 -0.7021 -0.3070
  266DG     C11 6106   4.946   0.046   0.271  1.0403 -0.7947  0.9896
  266DG     C12 6107   4.936  -0.431   0.213  0.3640  0.2356  0.3723
  266DG     H13 6108   5.028   0.057   0.342  1.0413 -1.3053  1.0716
  266DG     H14 6109   4.938   0.134   0.207  0.0090 -0.6567  1.2883
  266DG     H15 6110   4.839  -0.408   0.168  1.6131  1.2834 -1.9764
  266DG     H16 6111   4.978  -0.512   0.153  0.0358  0.6481 -0.4310
  266DG     C17 6112   4.993  -0.069   0.180  0.5961 -0.1617  0.2212
  266DG     C18 6113   5.017  -0.309   0.179 -0.0660 -0.1817  0.5229
  266DG     O19 6114   4.963  -0.195   0.244 -0.7453 -0.2385  0.3279
  266DG     H20 6115   5.100  -0.068   0.162  0.7308 -0.3602  0.9736
  266DG     H21 6116   4.952  -0.060   0.079  0.7534  0.6722  0.2247
  266DG     H22 6117   5.124  -0.325   0.195  0.2012  0.6984 -0.2829
  266DG     H23 6118   5.009  -0.308   0.070 -0.8827 -0.3031  0.5765
  267DG      C1 6119   4.880   2.852   0.296  0.0082 -0.1967 -0.0441
  267DG      C2 6120   4.649   3.302   0.767 -0.6509 -0.4197 -0.0996
  267DG      H3 6121   4.845   2.931   0.229 -2.4301 -1.0667  0.0835
  267DG      H4 6122   4.824   2.760   0.275  1.2009 -0.6050 -1.5906
  267DG      H5 6123   4.981   2.816   0.278 -0.0666 -0.0354 -0.7937
  267DG      H6 6124   4.574   3.292   0.846 -1.1947 -3.8409 -0.8675
  267DG      H7 6125   4.739   3.342   0.814  0.0095 -2.4349  0.4762
  267DG      H8 6126   4.623   3.381   0.697 -0.7027 -1.4535 -1.2931
  267DG      O9 6127   4.869   2.881   0.435  0.2024  0.4630  0.8008
  267DG     O10 6128   4.672   3.169   0.721  0.1514  0.0920 -0.7128
  267DG     C11 6129   4.925   2.791   0.526  0.1992 -0.2175  0.4664
  267DG     C12 6130   4.718   3.096   0.830 -0.0117  0.2057 -0.0677
  267DG     H13 6131   5.025   2.831   0.542 -0.8748  3.2697 -0.5000
  267DG     H14 6132   4.918   2.693   0.479  0.5846 -0.2668  0.5052
  267DG     H15 6133   4.666   3.104   0.925 -1.4800 -1.7064 -0.6419
  267DG     H16 6134   4.819   3.133   0.847  0.4985 -1.1700  0.0672
  267DG     C17 6135   4.833   2.795   0.645  0.2297 -0.4743 -0.1813
  267DG     C18 6136   4.726   2.945   0.792 -0.2184  0.4915  1.0152
  267DG     O19 6137   4.819   2.935   0.682 -0.2254  0.3836 -0.5577
  267DG     H20 6138   4.880   2.732   0.720  1.1559  1.1010  0.6201
  267DG     H21 6139   4.735   2.759   0.615  1.1264 -1.2241 -2.4671
  267DG     H22 6140   4.753   2.890   0.882 -0.4342  0.9146  1.3418
  267DG     H23 6141   4.626   2.910   0.765 -0.9813  1.4536  2.4522
  268DG      C1 6142   1.939   5.180   0.190 -0.7392  0.0136 -0.0877
  268DG      C2 6143   1.332   5.807   0.194  0.3441 -0.2494 -0.3217
  268DG      H3 6144   1.906   5.158   0.089  0.4171 -1.3317 -0.1964
  268DG      H4 6145   1.979   5.084   0.223 -2.2852 -1.5666 -2.5179
  268DG      H5 6146   2.022   5.250   0.181  0.9212 -1.9638 -0.7012
  268DG      H6 6147   1.280   5.868   0.269  1.1793  1.2143 -0.8885
  268DG      H7 6148   1.401   5.876   0.146  0.6972  1.0998  1.9885
  268DG      H8 6149   1.267   5.775   0.112  1.9916  0.5484 -2.0238
  268DG      O9 6150   1.828   5.217   0.267 -0.2347  0.6415  0.2254
  268DG     O10 6151   1.390   5.697   0.251  0.3368 -0.1340  0.4383
  268DG     C11 6152   1.752   5.331   0.220 -0.7793 -0.0422  0.7769
  268DG     C12 6153   1.488   5.714   0.350 -0.3038 -0.2544 -0.2247
  268DG     H13 6154   1.700   5.303   0.129 -0.0155 -1.3551  0.7169
  268DG     H14 6155   1.822   5.413   0.203 -1.4546  0.1179 -1.5059
  268DG     H15 6156   1.438   5.758   0.437 -2.1286  0.9771 -1.8038
  268DG     H16 6157   1.567   5.781   0.317 -0.6452 -0.5919 -1.8241
  268DG     C17 6158   1.661   5.384   0.326 -0.1565  0.5154  0.4846
  268DG     C18 6159   1.550   5.574   0.389  0.1922  0.4960  0.1521
  268DG     O19 6160   1.610   5.506   0.284  0.2465 -0.1496  0.1094
  268DG     H20 6161   1.708   5.398   0.423 -1.3943 -1.4630  1.4598
  268DG     H21 6162   1.569   5.325   0.333 -2.0705  3.1207 -0.8124
  268DG     H22 6163   1.629   5.583   0.464  0.0586 -1.5414  0.5771
  268DG     H23 6164   1.468   5.517   0.433 -0.9619  1.3824 -0.8071
  269DG      C1 6165   4.044   3.852   2.087  0.4733 -0.5042 -0.2212
  269DG      C2 6166   4.031   3.218   2.581  0.0870  0.2843 -1.0286
  269DG      H3 6167   3.941   3.822   2.069  0.5722 -0.5922 -0.6546
  269DG      H4 6168   4.108   3.820   2.005 -0.6568 -1.7405 -0.6653
  269DG      H5 6169   4.038   3.961   2.092 -1.9208 -0.5344 -1.1744
  269DG      H6 6170   4.109   3.197   2.653  0.5637 -0.4715 -1.7429
  269DG      H7 6171   3.935   3.182   2.616 -0.1110  1.5299 -0.2400
  269DG      H8 6172   4.052   3.153   2.496 -1.3903 -1.6447  0.0148
  269DG      O9 6173   4.093   3.804   2.215  0.2317  0.0523  0.0506
  269DG     O10 6174   4.022   3.355   2.557 -0.8916 -0.2473  0.2884
  269DG     C11 6175   4.009   3.833   2.328 -0.3717  0.1784  0.3753
  269DG     C12 6176   4.154   3.421   2.554  0.1582  0.2441  0.0556
  269DG     H13 6177   3.908   3.795   2.314  0.3038 -1.0528 -1.6573
  269DG     H14 6178   3.993   3.939   2.342 -0.1035  0.1747  0.7489
  269DG     H15 6179   4.205   3.398   2.460 -0.6425  2.4132 -0.9718
  269DG     H16 6180   4.209   3.388   2.642  0.3571  0.0563 -0.1391
  269DG     C17 6181   4.065   3.763   2.456  0.1397 -0.6611 -0.2359
  269DG     C18 6182   4.146   3.575   2.561  0.0904 -0.3160  0.1136
  269DG     O19 6183   4.091   3.626   2.441 -0.2275 -0.6512 -0.0629
  269DG     H20 6184   3.991   3.772   2.535  1.7655 -1.2011  1.4177
  269DG     H21 6185   4.156   3.815   2.486 -0.3856  1.9723 -2.7683
  269DG     H22 6186   4.079   3.605   2.642  0.2517 -0.5008  0.3165
  269DG     H23 6187   4.238   3.625   2.588  0.6229 -2.5775  2.9519
  270DG      C1 6188   5.311   3.846   1.667 -0.1868  0.5219 -0.3766
  270DG      C2 6189   5.980   4.148   1.691  0.3683 -0.4618 -0.0031
  270DG      H3 6190   5.275   3.846   1.564 -1.3068  2.0122 -0.0146
  270DG      H4 6191   5.284   3.944   1.706 -2.3461  0.6945 -2.0868
  270DG      H5 6192   5.259   3.773   1.729  1.5773  1.0665  1.8455
  270DG      H6 6193   5.964   4.254   1.711 -0.4042 -0.2925 -1.4461
  270DG      H7 6194   6.087   4.141   1.714 -0.2137  1.7362  4.6457
  270DG      H8 6195   5.967   4.134   1.584  0.9372  2.4656 -0.5328
  270DG      O9 6196   5.452   3.830   1.691  0.3580  0.7080  0.2099
  270DG     O10 6197   5.905   4.052   1.767  0.7031 -0.8378 -0.0643
  270DG     C11 6198   5.481   3.826   1.833  0.3942 -0.3490  0.4937
  270DG     C12 6199   5.926   3.920   1.718 -0.3385 -0.0559 -0.5662
  270DG     H13 6200   5.403   3.770   1.885 -1.6545  0.9583 -1.0224
  270DG     H14 6201   5.477   3.928   1.872 -1.4667 -0.2446  0.1277
  270DG     H15 6202   6.033   3.898   1.718 -0.7757 -2.5396 -1.9230
  270DG     H16 6203   5.901   3.907   1.613  0.3832 -3.1792 -0.4505
  270DG     C17 6204   5.627   3.770   1.844  0.1335  0.4125  0.8228
  270DG     C18 6205   5.845   3.827   1.807 -0.2582  0.7962  0.4192
  270DG     O19 6206   5.711   3.865   1.785  0.2782 -0.3469  0.1256
  270DG     H20 6207   5.626   3.673   1.795  0.3286  1.9370 -2.5229
  270DG     H21 6208   5.654   3.759   1.949 -0.0509  0.9536  0.9322
  270DG     H22 6209   5.870   3.724   1.782  1.3725  0.6940  2.2358
  270DG     H23 6210   5.873   3.842   1.911  0.2707 -0.1658  0.4292
  271DG      C1 6211   4.107   1.532   1.965 -0.1443 -0.2131  0.1228
  271DG      C2 6212   3.844   1.173   2.484 -0.1711  0.0559 -0.2876
  271DG      H3 6213   4.004   1.548   1.935  0.4682  1.8700 -1.1175
  271DG      H4 6214   4.148   1.457   1.898 -0.6442 -1.2477  0.9546
  271DG      H5 6215   4.154   1.626   1.936 -2.1528  1.0144  0.6554
  271DG      H6 6216   3.876   1.069   2.489 -1.0249 -0.1642  1.7911
  271DG      H7 6217   3.818   1.197   2.587  0.4031 -2.1147  0.4135
  271DG      H8 6218   3.751   1.189   2.428  0.9645  1.8783 -1.7767
  271DG      O9 6219   4.125   1.491   2.103 -0.5856  0.1049 -0.0856
  271DG     O10 6220   3.952   1.254   2.443  0.1147 -0.0303 -0.7515
  271DG     C11 6221   4.261   1.473   2.129  0.1774  0.4883 -0.3117
  271DG     C12 6222   4.079   1.226   2.498 -0.8009 -0.4571 -0.3050
  271DG     H13 6223   4.319   1.561   2.102  1.7439 -0.9693 -1.9656
  271DG     H14 6224   4.314   1.386   2.091 -0.8354 -0.2248 -0.1059
  271DG     H15 6225   4.106   1.125   2.466 -2.0456 -1.2661  1.0905
  271DG     H16 6226   4.085   1.217   2.606 -0.2012 -2.0506 -0.4402
  271DG     C17 6227   4.279   1.450   2.282  0.4100 -1.0773  0.1378
  271DG     C18 6228   4.190   1.324   2.454  0.1775 -0.0552  0.0085
  271DG     O19 6229   4.185   1.352   2.316  0.0291 -0.0981 -0.5048
  271DG     H20 6230   4.258   1.543   2.334 -0.4186 -0.7315 -0.7673
  271DG     H21 6231   4.381   1.422   2.305  0.5830 -0.8515 -0.3258
  271DG     H22 6232   4.182   1.422   2.500  1.2226  1.1924 -2.2759
  271DG     H23 6233   4.282   1.279   2.491 -0.1501  0.2949  1.2941
  272DG      C1 6234   2.944   2.133   4.318  0.2620  0.2744  0.0130
  272DG      C2 6235   3.317   1.468   4.772 -0.3804 -0.4346 -0.5657
  272DG      H3 6236   2.855   2.171   4.368 -0.1418 -1.8425  0.9968
  272DG      H4 6237   2.931   2.116   4.211  0.8549 -2.9892  0.3594
  272DG      H5 6238   3.032   2.197   4.321 -0.1098  0.7649  0.6100
  272DG      H6 6239   3.323   1.549   4.845  1.8903  0.9930 -2.2059
  272DG      H7 6240   3.311   1.371   4.820 -1.9189 -0.4792 -0.8069
  272DG      H8 6241   3.406   1.472   4.710  0.0892 -1.2646  0.0369
  272DG      O9 6242   2.988   2.012   4.375  0.2185  0.0701 -0.5026
  272DG     O10 6243   3.202   1.497   4.695  0.3584 -0.2870 -0.0764
  272DG     C11 6244   2.894   1.905   4.364  0.9339 -0.3794  0.6563
  272DG     C12 6245   3.210   1.616   4.611 -0.4775  0.2825  0.2567
  272DG     H13 6246   2.891   1.852   4.269 -0.5772 -0.7186  0.8577
  272DG     H14 6247   2.795   1.950   4.370  1.0215  0.0819 -1.0062
  272DG     H15 6248   3.275   1.592   4.528 -0.4917  0.4707  0.1896
  272DG     H16 6249   3.240   1.703   4.670 -1.4636  1.2882 -0.6660
  272DG     C17 6250   2.922   1.810   4.488 -0.1382  0.2647  0.3422
  272DG     C18 6251   3.071   1.651   4.565 -0.4519  0.0835  0.5209
  272DG     O19 6252   3.058   1.764   4.486  0.2976 -0.2378  0.0949
  272DG     H20 6253   2.857   1.725   4.471  0.9784 -0.7308  0.8808
  272DG     H21 6254   2.885   1.874   4.568 -0.5474  0.3355  0.0989
  272DG     H22 6255   3.030   1.567   4.509  2.0066  0.2318 -1.6994
  272DG     H23 6256   3.011   1.670   4.654 -1.9777  0.6319 -0.5826
  273DG      C1 6257   0.812   1.467   0.010  0.0452  0.1627 -0.0530
  273DG      C2 6258   1.253   1.342  -0.705  0.3782 -0.2780  0.2817
  273DG      H3 6259   0.748   1.555   0.019 -0.7238 -0.4546  0.5526
  273DG      H4 6260   0.880   1.480   0.094 -0.2107  1.0897  0.0254
  273DG      H5 6261   0.749   1.379   0.021  0.3987 -0.1104 -0.1733
  273DG      H6 6262   1.208   1.347  -0.804 -1.4166 -0.1556  1.0754
  273DG      H7 6263   1.338   1.411  -0.709  1.3576 -1.3226  1.8820
  273DG      H8 6264   1.292   1.241  -0.695 -2.4283 -1.5342 -0.4447
  273DG      O9 6265   0.880   1.485  -0.112  0.6447  0.2254 -0.1621
  273DG     O10 6266   1.179   1.364  -0.582  0.6915  0.2662 -0.0901
  273DG     C11 6267   0.946   1.363  -0.148  0.6950 -0.0153  0.4797
  273DG     C12 6268   1.082   1.469  -0.602  0.2067  0.0874 -0.2969
  273DG     H13 6269   0.873   1.288  -0.176  0.1451  0.6434  0.1116
  273DG     H14 6270   0.992   1.311  -0.064 -0.9995  0.0190  1.4770
  273DG     H15 6271   0.994   1.444  -0.661  0.7911  0.2634 -1.2730
  273DG     H16 6272   1.124   1.545  -0.669  1.4446  2.2542  2.6940
  273DG     C17 6273   1.038   1.394  -0.266  0.2666 -0.2444 -0.3224
  273DG     C18 6274   1.045   1.534  -0.468 -0.2060 -0.2490  0.9384
  273DG     O19 6275   0.967   1.445  -0.382  0.0186  0.6725  0.5893
  273DG     H20 6276   1.101   1.309  -0.294  0.9626  0.4739 -0.9640
  273DG     H21 6277   1.111   1.465  -0.225 -0.1815  2.1563 -3.3566
  273DG     H22 6278   1.125   1.580  -0.410 -0.4878  0.7174  0.5759
  273DG     H23 6279   0.983   1.618  -0.501 -0.7779 -0.7248  0.7802
  274DG      C1 6280   2.385   0.605   1.403 -0.1453  0.0066 -0.1407
  274DG      C2 6281   1.784  -0.076   1.187  0.7540 -0.1653 -0.1390
  274DG      H3 6282   2.433   0.661   1.482  0.5008 -1.6628  0.7127
  274DG      H4 6283   2.363   0.675   1.323 -1.8643  0.4682  0.6942
  274DG      H5 6284   2.464   0.537   1.370 -0.8293 -1.0824  0.3978
  274DG      H6 6285   1.680  -0.109   1.178 -0.4706  2.8974  1.2013
  274DG      H7 6286   1.820  -0.040   1.090 -0.3494  2.0261  0.2026
  274DG      H8 6287   1.828  -0.163   1.234  1.9309  1.3666  1.7392
  274DG      O9 6288   2.275   0.551   1.469  0.1148 -0.0257  0.3736
  274DG     O10 6289   1.799   0.036   1.277 -0.8955 -0.2654  0.1728
  274DG     C11 6290   2.208   0.458   1.380 -0.8060  0.1384 -0.1136
  274DG     C12 6291   1.925   0.106   1.264 -0.2680 -0.0046  0.4670
  274DG     H13 6292   2.281   0.380   1.359 -0.3354  0.6176 -0.2843
  274DG     H14 6293   2.178   0.515   1.293  1.4443  0.5745 -0.6783
  274DG     H15 6294   1.933   0.142   1.161 -0.8903 -0.3080  0.3080
  274DG     H16 6295   2.011   0.039   1.268 -0.2432  0.0567  0.9476
  274DG     C17 6296   2.095   0.384   1.445 -0.5066 -0.2030 -1.0459
  274DG     C18 6297   1.936   0.218   1.372 -0.3182 -0.8340 -0.5869
  274DG     O19 6298   2.050   0.298   1.349 -0.1506  0.0394  0.5765
  274DG     H20 6299   2.026   0.453   1.493  2.6536  1.0266  2.1830
  274DG     H21 6300   2.133   0.328   1.531  0.0333 -0.9496 -1.7511
  274DG     H22 6301   1.847   0.280   1.378 -0.3924 -0.8798 -1.1850
  274DG     H23 6302   1.949   0.166   1.468  0.2009  1.0667  0.4214
  275DG      C1 6303   4.845   1.107   2.703 -0.6143  0.5903  0.1729
  275DG      C2 6304   4.286   0.705   2.370  0.4953  0.2253  0.3074
  275DG      H3 6305   4.919   1.186   2.697  2.5026 -2.1818 -0.2762
  275DG      H4 6306   4.883   1.016   2.656 -2.6395 -0.5592  0.6379
  275DG      H5 6307   4.851   1.097   2.811  2.4541 -1.3193 -0.0523
  275DG      H6 6308   4.276   0.642   2.458 -1.4295  1.9878  1.4606
  275DG      H7 6309   4.186   0.692   2.328  0.6133 -0.0490  0.1133
  275DG      H8 6310   4.365   0.664   2.308 -1.5988 -2.6229 -0.7038
  275DG      O9 6311   4.715   1.132   2.647 -0.3618 -0.0111 -0.5509
  275DG     O10 6312   4.324   0.833   2.409  0.0648 -0.7271 -0.1040
  275DG     C11 6313   4.714   1.165   2.510 -0.3554 -0.3312  0.0798
  275DG     C12 6314   4.377   0.910   2.296  0.9143 -0.3637 -0.3813
  275DG     H13 6315   4.765   1.096   2.443 -0.8191 -2.5532  1.9198
  275DG     H14 6316   4.753   1.266   2.497 -0.5048 -0.1902  0.7183
  275DG     H15 6317   4.304   0.925   2.216  1.9050  2.8501 -0.8441
  275DG     H16 6318   4.470   0.875   2.252  0.1079 -1.9337 -0.9012
  275DG     C17 6319   4.565   1.171   2.462  0.1806 -0.4994 -0.2732
  275DG     C18 6320   4.402   1.049   2.346 -0.5073 -0.4132  0.0740
  275DG     O19 6321   4.526   1.044   2.414  0.2301 -0.5257  0.0862
  275DG     H20 6322   4.547   1.241   2.381 -0.9241 -1.3826 -0.8190
  275DG     H21 6323   4.506   1.213   2.545 -0.1078 -0.7683 -0.3402
  275DG     H22 6324   4.409   1.119   2.262  3.7569 -0.1028  0.4732
  275DG     H23 6325   4.321   1.087   2.409 -0.3143  0.6835 -0.3118
  276DG      C1 6326   1.156   2.037   2.802  0.5094 -0.2412 -0.5197
  276DG      C2 6327   1.873   1.944   2.765  0.4678  0.2119  0.2389
  276DG      H3 6328   1.192   2.069   2.900 -0.6595 -1.3411  0.2900
  276DG      H4 6329   1.054   2.002   2.810 -0.2151  1.4910 -1.5399
  276DG      H5 6330   1.153   2.127   2.740  0.6129  0.6642  0.7360
  276DG      H6 6331   1.907   1.933   2.662  4.0115  1.1346  1.1448
  276DG      H7 6332   1.873   2.052   2.783 -2.7025  0.2657  0.3418
  276DG      H8 6333   1.931   1.879   2.831 -0.7900 -0.6307  0.5475
  276DG      O9 6334   1.240   1.934   2.756 -0.1598 -0.0677 -0.0371
  276DG     O10 6335   1.736   1.909   2.779 -0.3025  0.6089 -0.5387
  276DG     C11 6336   1.239   1.815   2.830 -0.3640  0.9018 -0.4082
  276DG     C12 6337   1.702   1.775   2.738  0.3739  0.0026 -0.1180
  276DG     H13 6338   1.146   1.758   2.833 -0.1836  0.6199 -0.0085
  276DG     H14 6339   1.264   1.849   2.931  2.9186  1.3211 -1.2381
  276DG     H15 6340   1.789   1.712   2.759 -0.1754 -1.0074 -0.7563
  276DG     H16 6341   1.689   1.771   2.630  1.8783 -1.1317 -0.2989
  276DG     C17 6342   1.346   1.708   2.802  0.4124  0.7460  0.1918
  276DG     C18 6343   1.573   1.705   2.812 -0.4761  0.1803 -0.2621
  276DG     O19 6344   1.462   1.791   2.802  0.1954 -0.4028  0.3864
  276DG     H20 6345   1.321   1.663   2.706 -2.4611 -0.6429  1.4740
  276DG     H21 6346   1.344   1.627   2.875  0.9933 -0.2655 -0.8819
  276DG     H22 6347   1.554   1.605   2.772 -0.7469 -0.1049  0.5754
  276DG     H23 6348   1.599   1.688   2.916  4.3803 -1.7350 -1.4946
  277DG      C1 6349   1.495   0.321   2.606 -0.2508 -0.6092 -0.1351
  277DG      C2 6350   2.090   0.540   3.171 -0.2877 -0.0587 -1.1879
  277DG      H3 6351   1.465   0.218   2.625  0.4286 -1.1623 -1.8660
  277DG      H4 6352   1.572   0.302   2.530  1.7411 -0.5255  1.7772
  277DG      H5 6353   1.406   0.373   2.571  0.0439 -0.4237 -0.6330
  277DG      H6 6354   2.132   0.621   3.112  2.9955 -2.0262 -1.8370
  277DG      H7 6355   2.135   0.540   3.270 -0.3048 -0.3342 -1.1800
  277DG      H8 6356   2.125   0.450   3.121 -0.1072  0.5234 -2.1274
  277DG      O9 6357   1.559   0.391   2.716  0.1430 -0.1684 -0.0535
  277DG     O10 6358   1.947   0.539   3.179  0.2553 -0.0814 -0.4664
  277DG     C11 6359   1.476   0.402   2.831 -0.1057  0.8540 -0.3755
  277DG     C12 6360   1.877   0.480   3.068 -0.0333  0.2554 -0.6922
  277DG     H13 6361   1.475   0.308   2.887  0.6021  2.5823  2.8091
  277DG     H14 6362   1.374   0.428   2.804 -0.1775  2.3256  1.1730
  277DG     H15 6363   1.906   0.375   3.072  2.8591  1.0030  0.0330
  277DG     H16 6364   1.918   0.524   2.977 -2.5387 -0.0864 -2.0788
  277DG     C17 6365   1.538   0.500   2.927  0.4258  0.0216  0.3811
  277DG     C18 6366   1.727   0.517   3.067  0.5083  0.7013 -0.0728
  277DG     O19 6367   1.662   0.443   2.969  0.2679  0.1259  0.3155
  277DG     H20 6368   1.473   0.499   3.015  0.3194 -1.6982  0.3139
  277DG     H21 6369   1.543   0.601   2.888 -0.8505 -0.1454 -0.2479
  277DG     H22 6370   1.703   0.500   3.172  1.5234  1.1871  0.2503
  277DG     H23 6371   1.705   0.623   3.054 -1.0083  0.6979  1.9642
  278DG      C1 6372   3.869   2.964   5.351 -0.5715  0.2005  0.6664
  278DG      C2 6373   3.745   2.196   5.177 -0.8881  0.0031  0.4387
  278DG      H3 6374   3.942   3.006   5.282 -0.7282 -0.2190  0.2331
  278DG      H4 6375   3.893   3.014   5.444  0.3733 -1.1373  1.1649
  278DG      H5 6376   3.771   2.989   5.309 -0.7524  0.1136  1.0344
  278DG      H6 6377   3.659   2.245   5.223  0.4475  2.6096  0.3270
  278DG      H7 6378   3.737   2.215   5.070 -1.0251 -1.1424  0.2312
  278DG      H8 6379   3.739   2.087   5.181  1.4787 -0.3344 -2.1140
  278DG      O9 6380   3.888   2.826   5.370 -0.2829  0.0323  0.6175
  278DG     O10 6381   3.865   2.233   5.249 -0.1042 -0.1754  0.2414
  278DG     C11 6382   4.030   2.799   5.377  0.0236  0.9836 -0.1730
  278DG     C12 6383   3.902   2.369   5.222  0.2329  0.5098  0.2969
  278DG     H13 6384   4.072   2.863   5.455  1.6485 -1.3316  0.9982
  278DG     H14 6385   4.088   2.825   5.289 -0.5919 -1.3820 -1.3729
  278DG     H15 6386   3.814   2.429   5.197 -1.1562 -0.7672  1.9012
  278DG     H16 6387   3.957   2.356   5.129  2.5090 -0.1558  1.6604
  278DG     C17 6388   4.038   2.653   5.423  0.0838  0.5933 -0.0959
  278DG     C18 6389   3.984   2.429   5.331  0.5557 -0.6858 -0.1549
  278DG     O19 6390   3.973   2.572   5.317  0.5540  0.5624  0.0285
  278DG     H20 6391   3.996   2.648   5.523  2.4042 -0.0414  0.9320
  278DG     H21 6392   4.144   2.628   5.435  0.2770  1.7831  0.7879
  278DG     H22 6393   3.932   2.397   5.422 -0.3044  0.5839 -0.1747
  278DG     H23 6394   4.086   2.392   5.325  0.3332 -1.1602 -1.1421
  279DG      C1 6395   1.967   1.522   4.378  0.4990 -0.4135  0.0789
  279DG      C2 6396   1.495   1.400   3.883  0.4060 -0.3148  0.7665
  279DG      H3 6397   1.908   1.482   4.460 -0.2977 -0.2526 -0.3984
  279DG      H4 6398   2.051   1.586   4.403 -1.4646  2.8538 -0.9798
  279DG      H5 6399   2.015   1.441   4.324  1.6753 -0.0241  0.5041
  279DG      H6 6400   1.451   1.437   3.790 -3.2059 -0.0868  2.3975
  279DG      H7 6401   1.541   1.302   3.869 -2.6364 -1.6391 -0.7411
  279DG      H8 6402   1.403   1.392   3.940 -0.0481  0.7486  0.2166
  279DG      O9 6403   1.879   1.584   4.284 -0.4162 -0.3939  0.5321
  279DG     O10 6404   1.585   1.504   3.932 -0.1048  0.3432  0.4086
  279DG     C11 6405   1.837   1.720   4.313 -0.1525  0.4865 -0.3131
  279DG     C12 6406   1.515   1.625   3.952 -0.9083  0.1600 -0.2798
  279DG     H13 6407   1.917   1.785   4.348 -1.3262  0.8385  1.8912
  279DG     H14 6408   1.761   1.713   4.390 -1.2836 -0.7469 -1.4867
  279DG     H15 6409   1.432   1.604   4.019 -0.3720 -0.2696  0.2584
  279DG     H16 6410   1.471   1.646   3.854  1.2675  0.9577 -1.1438
  279DG     C17 6411   1.771   1.777   4.184  0.3932 -0.3304  0.0955
  279DG     C18 6412   1.611   1.734   4.012 -0.3426 -0.1117  0.6549
  279DG     O19 6413   1.667   1.691   4.138  0.6213  0.5227  0.5557
  279DG     H20 6414   1.853   1.796   4.115 -0.4760 -0.3236 -0.9764
  279DG     H21 6415   1.715   1.864   4.216 -2.8692 -2.7292  1.4921
  279DG     H22 6416   1.686   1.756   3.936 -1.1129  1.8327  0.4047
  279DG     H23 6417   1.560   1.830   4.015  0.1986  0.3981 -2.5534
  280DG      C1 6418   1.743   4.586   3.596 -0.1323 -0.2717 -0.4261
  280DG      C2 6419   1.961   4.031   3.876  0.3426  0.2238  0.3590
  280DG      H3 6420   1.691   4.645   3.520  0.5650  1.9049  0.6929
  280DG      H4 6421   1.851   4.601   3.591 -0.2934  0.6701 -2.4505
  280DG      H5 6422   1.713   4.619   3.695 -1.3545 -0.1933 -0.8080
  280DG      H6 6423   1.944   3.937   3.929 -1.9844  0.9175  0.9594
  280DG      H7 6424   2.057   4.039   3.826 -0.0786  0.7008 -0.3890
  280DG      H8 6425   1.966   4.101   3.959 -1.7623 -0.6464  1.3087
  280DG      O9 6426   1.708   4.452   3.602  0.1115 -0.1937  0.5187
  280DG     O10 6427   1.849   4.062   3.787  0.2866  0.3158  0.2784
  280DG     C11 6428   1.691   4.382   3.480  0.1551  0.4143 -0.2775
  280DG     C12 6429   1.819   3.972   3.689  0.0843  0.1018  0.4492
  280DG     H13 6430   1.776   4.374   3.412 -1.0118 -0.8312 -1.6805
  280DG     H14 6431   1.612   4.435   3.426 -2.0928 -1.7331  0.6609
  280DG     H15 6432   1.788   3.873   3.723  0.8180 -1.4481 -2.9980
  280DG     H16 6433   1.913   3.952   3.637  0.2011  1.6761  0.0011
  280DG     C17 6434   1.648   4.234   3.503  0.4728 -0.4995 -0.1207
  280DG     C18 6435   1.713   4.038   3.609 -0.4628 -0.4852  0.6104
  280DG     O19 6436   1.751   4.174   3.581 -0.2953 -0.0162  0.0674
  280DG     H20 6437   1.625   4.185   3.408 -1.1844 -0.0082 -0.0162
  280DG     H21 6438   1.559   4.239   3.566  0.9374 -2.6074  0.7887
  280DG     H22 6439   1.709   3.981   3.516  2.0184  1.0800 -0.5737
  280DG     H23 6440   1.617   4.043   3.660 -1.1988 -2.2302 -0.5511
  281DG      C1 6441   0.936   0.977   5.383 -0.6042  0.1438 -0.2161
  281DG      C2 6442   1.701   1.174   5.824  0.1103 -0.6454  0.0012
  281DG      H3 6443   0.846   1.027   5.420 -0.0865  0.3464  0.8163
  281DG      H4 6444   0.937   0.876   5.424  0.4630 -0.3719 -1.4589
  281DG      H5 6445   0.935   0.966   5.275  1.1975 -1.2233 -0.1354
  281DG      H6 6446   1.645   1.178   5.918  0.5397 -0.4628  0.2493
  281DG      H7 6447   1.745   1.075   5.818  1.7025 -0.1166  1.8451
  281DG      H8 6448   1.777   1.251   5.834 -0.3882  0.2273 -2.1947
  281DG      O9 6449   1.058   1.031   5.434  0.1267 -0.4323 -0.0017
  281DG     O10 6450   1.611   1.195   5.707  0.0792 -0.0567 -0.6935
  281DG     C11 6451   1.168   1.001   5.346 -0.4268 -0.3554 -0.2392
  281DG     C12 6452   1.527   1.090   5.665 -0.7276  0.4104 -0.3646
  281DG     H13 6453   1.141   1.005   5.240  2.0750  0.3138 -0.9239
  281DG     H14 6454   1.192   0.897   5.369  3.5277  0.3184 -0.5864
  281DG     H15 6455   1.468   1.056   5.750 -1.3918 -0.5649 -1.1885
  281DG     H16 6456   1.593   1.011   5.628 -1.3998 -0.0378 -0.6250
  281DG     C17 6457   1.293   1.088   5.376  0.4438 -0.3637  0.2979
  281DG     C18 6458   1.447   1.139   5.544  0.2100 -0.9358  0.1815
  281DG     O19 6459   1.355   1.043   5.490  0.1576 -0.0826  0.1347
  281DG     H20 6460   1.257   1.189   5.394 -2.5701 -1.0225 -1.4297
  281DG     H21 6461   1.355   1.083   5.287 -1.1376  0.1836 -0.8839
  281DG     H22 6462   1.394   1.230   5.572  2.4575  0.3207  0.5755
  281DG     H23 6463   1.517   1.170   5.467 -0.3551  1.0987  0.4370
  282DG      C1 6464   2.654   5.368   4.440 -0.2361  0.0675 -0.1618
  282DG      C2 6465   3.145   5.073   4.153  0.3990 -0.3028 -0.5891
  282DG      H3 6466   2.649   5.421   4.345  0.3171 -1.5447 -1.1406
  282DG      H4 6467   2.718   5.413   4.515 -0.3535  0.6707 -0.4218
  282DG      H5 6468   2.560   5.354   4.494  0.0196 -0.9908  0.0419
  282DG      H6 6469   3.175   5.154   4.219 -1.1877 -0.3645  0.2636
  282DG      H7 6470   3.224   5.001   4.129  2.5936  0.2919  3.8058
  282DG      H8 6471   3.101   5.117   4.063  0.0901 -1.5878 -1.0905
  282DG      O9 6472   2.704   5.234   4.404 -0.7570 -0.2872  0.0695
  282DG     O10 6473   3.044   4.995   4.229  0.0278  0.3100 -0.4388
  282DG     C11 6474   2.610   5.159   4.330  0.1336  0.1905  0.0288
  282DG     C12 6475   2.966   4.911   4.149 -0.0676  0.4821  0.3876
  282DG     H13 6476   2.611   5.210   4.234  1.5041 -1.4088 -0.8498
  282DG     H14 6477   2.509   5.166   4.371  0.0520  0.5751 -0.2225
  282DG     H15 6478   3.001   4.807   4.146 -0.4852  0.3325 -2.2023
  282DG     H16 6479   2.948   4.953   4.050  0.3772  0.2017  0.1797
  282DG     C17 6480   2.666   5.017   4.319 -0.7781  0.2094 -0.3652
  282DG     C18 6481   2.831   4.896   4.224 -0.3446 -0.2705  0.6766
  282DG     O19 6482   2.791   5.033   4.254 -0.2702 -0.4827  0.0139
  282DG     H20 6483   2.600   4.966   4.249 -1.7847  3.7129 -2.1845
  282DG     H21 6484   2.664   4.960   4.412 -0.1536  1.4656  0.4475
  282DG     H22 6485   2.772   4.843   4.149  0.1717 -0.8674  0.6882
  282DG     H23 6486   2.842   4.836   4.314  2.3270 -0.7512  0.1044
  283DG      C1 6487   3.659   0.171   3.694  0.1794  0.0574  0.0251
  283DG      C2 6488   3.503   0.692   3.081  0.3707 -0.2271  1.0076
  283DG      H3 6489   3.637   0.125   3.790 -2.4647  1.1878  0.0395
  283DG      H4 6490   3.763   0.203   3.679 -0.0323  0.1390 -1.4193
  283DG      H5 6491   3.632   0.108   3.609  0.0742  1.8750 -1.3647
  283DG      H6 6492   3.582   0.618   3.077  0.2608 -0.3311  0.6613
  283DG      H7 6493   3.447   0.680   2.988  1.8517  1.6920 -0.2026
  283DG      H8 6494   3.554   0.788   3.081  0.7790 -0.4372  0.4775
  283DG      O9 6495   3.569   0.280   3.677  0.5473 -0.4612  0.4186
  283DG     O10 6496   3.422   0.678   3.188 -0.6554  0.2971 -0.0082
  283DG     C11 6497   3.583   0.364   3.562 -0.5344  0.7672 -0.4261
  283DG     C12 6498   3.352   0.556   3.193 -0.2235 -0.5555 -0.7035
  283DG     H13 6499   3.623   0.298   3.485  0.3524  0.6887  0.0912
  283DG     H14 6500   3.650   0.449   3.573  1.0817 -0.5694  0.3620
  283DG     H15 6501   3.397   0.469   3.146  0.8853 -0.5012  0.2360
  283DG     H16 6502   3.257   0.574   3.142 -0.6232 -0.0436  0.2016
  283DG     C17 6503   3.443   0.399   3.514  0.0105 -0.0485 -0.2236
  283DG     C18 6504   3.336   0.515   3.338 -0.0024 -0.4586 -0.2565
  283DG     O19 6505   3.459   0.467   3.389 -0.0208 -0.3601  0.5053
  283DG     H20 6506   3.384   0.452   3.589 -0.1372 -3.2499  2.1021
  283DG     H21 6507   3.390   0.305   3.502  0.2812 -0.1944 -0.2920
  283DG     H22 6508   3.300   0.605   3.388  1.2587  0.3554 -0.7692
  283DG     H23 6509   3.253   0.444   3.343 -1.3910  1.0567 -1.0281
  284DG      C1 6510   5.383   2.180   4.402 -0.2728 -0.2548 -0.2577
  284DG      C2 6511   6.102   2.574   4.613  0.1356  0.7827 -0.2358
  284DG      H3 6512   5.438   2.102   4.349 -0.8586 -0.6140 -0.3427
  284DG      H4 6513   5.296   2.213   4.345 -0.1038  1.0388  0.2130
  284DG      H5 6514   5.362   2.122   4.491  1.6364 -0.0412  0.3814
  284DG      H6 6515   6.153   2.494   4.668  0.6540 -0.2219 -2.1065
  284DG      H7 6516   6.091   2.554   4.507  0.5654  1.2347 -0.3700
  284DG      H8 6517   6.169   2.660   4.623  1.3470 -0.1350 -0.1592
  284DG      O9 6518   5.469   2.288   4.433  0.0666  0.4320 -0.1762
  284DG     O10 6519   5.972   2.588   4.680 -0.4163 -0.2981  0.1069
  284DG     C11 6520   5.555   2.330   4.329  1.1726 -0.0392 -0.2243
  284DG     C12 6521   5.880   2.487   4.644  0.1178 -0.7384 -0.3426
  284DG     H13 6522   5.509   2.339   4.230  0.5594 -0.7423 -0.0072
  284DG     H14 6523   5.623   2.249   4.301  2.3023  0.6543  0.4229
  284DG     H15 6524   5.806   2.489   4.724 -0.8713 -0.3730 -1.2589
  284DG     H16 6525   5.930   2.390   4.633 -0.2206 -1.2524  2.1003
  284DG     C17 6526   5.631   2.453   4.363 -0.1001 -0.3711  0.0340
  284DG     C18 6527   5.801   2.532   4.519  0.0820 -0.0310  1.3179
  284DG     O19 6528   5.709   2.425   4.480  0.2029 -0.0955 -0.0950
  284DG     H20 6529   5.566   2.540   4.366 -2.6486 -2.1723  1.3939
  284DG     H21 6530   5.695   2.475   4.277  1.8721 -1.5711  1.1021
  284DG     H22 6531   5.741   2.620   4.544 -0.3614 -0.2957  1.2084
  284DG     H23 6532   5.868   2.556   4.437 -1.1914 -1.2020 -0.1333
  285DG      C1 6533   2.531   1.797   4.164 -0.5878  0.2495 -0.2984
  285DG      C2 6534   2.731   1.582   4.817 -0.4142 -0.0890  0.0267
  285DG      H3 6535   2.452   1.784   4.237 -1.0851 -1.5342 -1.0872
  285DG      H4 6536   2.499   1.757   4.067 -1.1863  1.4966 -0.6392
  285DG      H5 6537   2.561   1.901   4.156  0.6973  0.2029  2.6460
  285DG      H6 6538   2.748   1.481   4.854  0.5697 -0.0544 -0.3229
  285DG      H7 6539   2.824   1.638   4.827 -1.1685  1.1148  0.6433
  285DG      H8 6540   2.655   1.642   4.868 -0.5333  0.4919 -0.8129
  285DG      O9 6541   2.658   1.744   4.210 -0.3390  0.2491  0.6042
  285DG     O10 6542   2.699   1.581   4.678 -0.3190 -0.0314  0.0031
  285DG     C11 6543   2.676   1.603   4.177  0.7875 -0.3322 -0.2279
  285DG     C12 6544   2.576   1.512   4.654  0.3078 -0.1680 -0.1080
  285DG     H13 6545   2.783   1.584   4.178  1.1827  1.6097 -1.1889
  285DG     H14 6546   2.648   1.586   4.072  0.3902  0.1238 -0.1983
  285DG     H15 6547   2.490   1.564   4.696  1.3728  1.4564  0.1515
  285DG     H16 6548   2.579   1.420   4.713 -2.2129  0.2378  0.7503
  285DG     C17 6549   2.593   1.518   4.275  0.0456 -0.3980 -1.0584
  285DG     C18 6550   2.546   1.481   4.509  0.2959 -0.8974 -0.4647
  285DG     O19 6551   2.625   1.560   4.417 -0.0476  0.4570  0.2359
  285DG     H20 6552   2.612   1.411   4.272 -0.9878 -0.6195 -0.2492
  285DG     H21 6553   2.486   1.528   4.259  0.4110  1.3563 -2.7762
  285DG     H22 6554   2.556   1.375   4.488 -1.2935 -1.2570  0.4346
  285DG     H23 6555   2.439   1.497   4.494  0.0042 -1.0577  1.2649
  286DG      C1 6556   2.806   0.209   1.199  0.3326 -0.5219  0.5963
  286DG      C2 6557   2.887  -0.427   1.218  0.3030 -0.3046  0.2152
  286DG      H3 6558   2.805   0.309   1.242  0.1952 -0.3700  0.2416
  286DG      H4 6559   2.739   0.198   1.114 -2.5539 -2.3908  2.9107
  286DG      H5 6560   2.902   0.186   1.153  0.0518 -0.1282 -0.2101
  286DG      H6 6561   2.872  -0.527   1.261 -2.9066 -0.3592 -0.7761
  286DG      H7 6562   2.830  -0.416   1.126 -0.0310  2.0640  0.6525
  286DG      H8 6563   2.993  -0.432   1.194  0.3759 -0.9761  0.6323
  286DG      O9 6564   2.788   0.107   1.296  0.2436  0.0384 -0.3235
  286DG     O10 6565   2.834  -0.329   1.305 -0.3776 -0.2939  0.1766
  286DG     C11 6566   2.660   0.105   1.358  0.3026 -0.1518  0.3029
  286DG     C12 6567   2.704  -0.362   1.359 -0.1273 -0.2203 -0.0982
  286DG     H13 6568   2.592   0.102   1.273 -0.5669  0.1605  0.9614
  286DG     H14 6569   2.645   0.205   1.401  2.1743  0.8437 -1.2186
  286DG     H15 6570   2.712  -0.451   1.421  2.6071  0.9073  1.2918
  286DG     H16 6571   2.634  -0.375   1.276  2.1527 -2.3535 -1.8188
  286DG     C17 6572   2.647  -0.011   1.452  0.0756 -0.6208 -0.2523
  286DG     C18 6573   2.669  -0.245   1.447  0.2274  0.3605 -0.0759
  286DG     O19 6574   2.671  -0.127   1.373  0.4173 -0.7618 -0.4638
  286DG     H20 6575   2.545  -0.006   1.491 -0.2000  1.8751 -1.1212
  286DG     H21 6576   2.712  -0.006   1.540 -0.6935  2.1547  0.2555
  286DG     H22 6577   2.571  -0.258   1.492  0.5910  0.1369  0.6572
  286DG     H23 6578   2.741  -0.239   1.529  0.7517  0.4058 -0.5302
  287DG      C1 6579   0.911   2.726   3.896  0.0441  0.4729 -0.2734
  287DG      C2 6580   1.398   3.210   3.721  0.7805  0.2502 -1.0549
  287DG      H3 6581   0.878   2.652   3.823 -1.9396  1.7404 -0.7370
  287DG      H4 6582   0.816   2.740   3.947  0.0143 -0.4243 -0.0720
  287DG      H5 6583   0.991   2.679   3.952 -0.4389  0.4326  0.3909
  287DG      H6 6584   1.448   3.128   3.774 -0.7119  0.5814  1.0045
  287DG      H7 6585   1.450   3.236   3.629  0.0888  1.4071 -1.1265
  287DG      H8 6586   1.405   3.296   3.788 -0.8922  0.6149 -1.3101
  287DG      O9 6587   0.947   2.845   3.826 -0.3230  0.0595 -0.8074
  287DG     O10 6588   1.270   3.150   3.716 -0.1081 -0.5595 -0.3013
  287DG     C11 6589   0.862   2.877   3.721 -0.2729 -0.5322 -0.2318
  287DG     C12 6590   1.189   3.233   3.631 -0.2041 -0.5147 -0.4924
  287DG     H13 6591   0.755   2.865   3.736 -0.3439 -0.1676 -0.4368
  287DG     H14 6592   0.885   2.811   3.637 -0.3009  1.8365 -2.2205
  287DG     H15 6593   1.223   3.265   3.532 -0.3379  1.5060  0.0837
  287DG     H16 6594   1.197   3.335   3.666  2.1373 -0.3074 -1.4370
  287DG     C17 6595   0.884   3.021   3.672  0.8597 -0.3477 -0.1258
  287DG     C18 6596   1.047   3.189   3.643  0.4362 -0.1552  0.1674
  287DG     O19 6597   1.021   3.050   3.655 -0.3951 -0.0353 -0.1121
  287DG     H20 6598   0.845   3.086   3.750  2.1204  0.4074 -0.1058
  287DG     H21 6599   0.829   3.050   3.582  0.8665  1.1857  0.3335
  287DG     H22 6600   1.014   3.236   3.736  1.2394  0.9774 -0.0886
  287DG     H23 6601   0.980   3.231   3.568 -0.2942 -1.6249 -0.0320
  288DG      C1 6602   0.613   4.101   2.010 -0.4576  0.9276  0.4612
  288DG      C2 6603   0.646   3.512   1.630 -0.1243 -0.2509 -0.2539
  288DG      H3 6604   0.647   4.146   2.103 -0.9444 -1.3645  1.8231
  288DG      H4 6605   0.507   4.123   1.999 -0.9709 -0.7837  1.6149
  288DG      H5 6606   0.662   4.148   1.925 -0.7866 -1.9280 -1.4624
  288DG      H6 6607   0.668   3.405   1.639  2.7063  0.0979 -1.9160
  288DG      H7 6608   0.632   3.536   1.525 -1.0583 -0.5086 -0.1975
  288DG      H8 6609   0.742   3.561   1.646  0.3774 -1.0207 -0.8375
  288DG      O9 6610   0.629   3.962   2.002 -0.0374 -0.0718  0.1652
  288DG     O10 6611   0.537   3.554   1.711  0.1782  0.7741 -0.8537
  288DG     C11 6612   0.743   3.909   1.936  0.2872 -0.9965  0.4809
  288DG     C12 6613   0.521   3.501   1.847 -0.6526  0.5881 -0.4958
  288DG     H13 6614   0.830   3.957   1.982 -0.0976 -0.7185  0.9258
  288DG     H14 6615   0.743   3.926   1.828  2.6558 -0.0471  0.5579
  288DG     H15 6616   0.518   3.392   1.839 -1.7440  0.4917  0.9182
  288DG     H16 6617   0.424   3.523   1.892 -1.3106 -2.1248 -0.3867
  288DG     C17 6618   0.755   3.763   1.964 -0.6791  0.8047 -0.0908
  288DG     C18 6619   0.633   3.554   1.931 -0.2293  0.6713 -0.1476
  288DG     O19 6620   0.647   3.693   1.894 -0.3834  0.2209 -0.1396
  288DG     H20 6621   0.752   3.741   2.070  1.4853  0.0165 -0.1436
  288DG     H21 6622   0.851   3.730   1.924 -0.8119 -3.5804  2.5729
  288DG     H22 6623   0.589   3.562   2.031  1.1698  5.3781  0.3574
  288DG     H23 6624   0.726   3.498   1.934 -0.1723  0.7734  1.7004
  289DG      C1 6625   1.935   4.841   0.946 -0.6842 -0.6567  0.0095
  289DG      C2 6626   1.599   4.784   0.499 -0.4685  0.2701  0.2056
  289DG      H3 6627   1.970   4.739   0.960  0.1466 -0.2127  1.2658
  289DG      H4 6628   1.877   4.838   0.853 -2.1371 -1.5973  0.9059
  289DG      H5 6629   1.881   4.879   1.032 -0.2778 -0.9824  0.4086
  289DG      H6 6630   1.597   4.677   0.516  1.8025  0.2664  0.7532
  289DG      H7 6631   1.537   4.823   0.579 -1.0761  1.9707 -1.0207
  289DG      H8 6632   1.561   4.806   0.399  0.4692 -0.4921 -0.3379
  289DG      O9 6633   2.042   4.931   0.925  0.4572  0.0256  0.2256
  289DG     O10 6634   1.734   4.831   0.520 -0.6125  0.0576 -1.0680
  289DG     C11 6635   2.132   4.907   0.819  0.1334  0.1485  0.3552
  289DG     C12 6636   1.752   4.969   0.517 -0.1013 -0.2802  0.2432
  289DG     H13 6637   2.161   4.803   0.806  2.0894  0.3247  2.5974
  289DG     H14 6638   2.231   4.943   0.847  0.4289 -0.0101 -0.4565
  289DG     H15 6639   1.685   5.014   0.590 -0.0661  0.5692 -0.2318
  289DG     H16 6640   1.706   5.007   0.426  0.2021 -0.1090  0.1583
  289DG     C17 6641   2.084   4.975   0.690  0.0047  0.2731 -0.1752
  289DG     C18 6642   1.903   5.000   0.543  0.0019 -0.3083  0.4261
  289DG     O19 6643   1.949   4.938   0.665  0.0960 -0.2120 -0.4803
  289DG     H20 6644   2.150   4.957   0.605  0.7300  1.3504  0.1425
  289DG     H21 6645   2.089   5.083   0.704  0.2181  0.3388 -0.7237
  289DG     H22 6646   1.962   4.962   0.459 -0.8211 -0.1133 -0.2628
  289DG     H23 6647   1.919   5.108   0.546  0.4234 -0.3821  0.8465
  290DG      C1 6648   2.772   4.626   1.447 -0.1893  0.8410 -0.0664
  290DG      C2 6649   3.561   4.663   1.535  0.1308 -0.6746  0.7669
  290DG      H3 6650   2.753   4.525   1.410  1.0930  0.7383 -0.4705
  290DG      H4 6651   2.794   4.691   1.363  1.0570  1.3677  0.6433
  290DG      H5 6652   2.681   4.654   1.502  0.0988  0.0890  0.8190
  290DG      H6 6653   3.577   4.559   1.507  0.4638 -0.3027 -0.4726
  290DG      H7 6654   3.573   4.732   1.451 -2.2617 -0.5631  0.4661
  290DG      H8 6655   3.644   4.679   1.605  2.6609 -1.0384 -1.9455
  290DG      O9 6656   2.886   4.628   1.540  0.3556 -0.2341  0.1131
  290DG     O10 6657   3.429   4.688   1.574  0.6303  0.2019 -0.0764
  290DG     C11 6658   2.902   4.754   1.598 -0.1766  0.3750  0.2702
  290DG     C12 6659   3.335   4.627   1.487 -0.9140 -0.7888 -0.0282
  290DG     H13 6660   2.814   4.770   1.660 -0.7231 -1.8416  0.1570
  290DG     H14 6661   2.906   4.827   1.517 -3.0212  1.0102  0.6072
  290DG     H15 6662   3.373   4.531   1.451  2.3141  0.1921  0.4606
  290DG     H16 6663   3.331   4.701   1.407 -0.3994 -1.1136 -0.3601
  290DG     C17 6664   3.029   4.738   1.679 -1.6606 -0.1259 -1.1160
  290DG     C18 6665   3.197   4.615   1.551  0.4139 -0.1470 -0.0802
  290DG     O19 6666   3.143   4.741   1.590 -0.1231  0.0603 -0.2248
  290DG     H20 6667   3.022   4.645   1.735  0.8713 -0.0653 -0.5425
  290DG     H21 6668   3.053   4.822   1.745  1.6924  0.2570 -2.5795
  290DG     H22 6669   3.137   4.561   1.477  1.5923 -0.4727 -0.8158
  290DG     H23 6670   3.211   4.550   1.637  0.1723  0.9189  0.7955
  291DG      C1 6671   2.879   3.619   3.974  0.8581 -0.0084 -0.1578
  291DG      C2 6672   3.117   2.927   4.038 -0.2838 -0.8526  0.0007
  291DG      H3 6673   2.772   3.604   3.988  1.1084  0.0205  2.3839
  291DG      H4 6674   2.892   3.641   3.869  1.1810  1.2229  0.1289
  291DG      H5 6675   2.907   3.706   4.033 -0.7557  1.4667 -1.4826
  291DG      H6 6676   3.164   2.876   4.122 -1.9555  0.2081  1.6702
  291DG      H7 6677   3.126   2.875   3.943  2.7739  1.9699 -1.4724
  291DG      H8 6678   3.174   3.019   4.022 -1.3607  0.3519  2.5089
  291DG      O9 6679   2.945   3.503   4.021 -0.3746 -0.2903  0.1970
  291DG     O10 6680   2.985   2.959   4.058 -0.1083 -0.0700  0.2028
  291DG     C11 6681   2.920   3.382   3.941  0.5584 -0.3227  0.1740
  291DG     C12 6682   2.946   2.997   4.193 -0.1635  0.1163  0.1387
  291DG     H13 6683   2.972   3.400   3.847  1.5539  0.0172  0.7751
  291DG     H14 6684   2.812   3.367   3.932  0.0356  1.0245  3.1221
  291DG     H15 6685   2.987   2.941   4.278  0.4387  3.4139  2.2279
  291DG     H16 6686   2.838   2.987   4.197 -0.3327  1.2739 -1.0337
  291DG     C17 6687   2.981   3.247   4.003 -0.1961 -0.9957  0.0278
  291DG     C18 6688   2.985   3.148   4.213 -0.5981  0.1117  0.4588
  291DG     O19 6689   2.917   3.232   4.128  0.2051  0.2259  0.0759
  291DG     H20 6690   3.088   3.263   4.016 -0.1157 -1.0980 -0.4824
  291DG     H21 6691   2.954   3.162   3.940  2.0773 -0.9357 -1.1485
  291DG     H22 6692   2.953   3.183   4.312 -0.5966  0.1834  0.4340
  291DG     H23 6693   3.093   3.158   4.205 -0.5767  0.2163  0.8226
  292DG      C1 6694   2.913   2.501   4.397 -0.2012 -0.1321  0.4274
  292DG      C2 6695   3.545   2.396   4.581  0.3650  0.0583  0.0160
  292DG      H3 6696   2.907   2.461   4.498 -0.9440  0.7051  0.7337
  292DG      H4 6697   2.831   2.456   4.341 -1.5281  1.9023  0.6445
  292DG      H5 6698   2.890   2.608   4.400 -0.5002 -0.1362 -0.8114
  292DG      H6 6699   3.595   2.300   4.592 -0.5481 -0.2862  1.4299
  292DG      H7 6700   3.619   2.471   4.553  1.2566 -0.7051  0.2924
  292DG      H8 6701   3.491   2.413   4.674 -1.5488 -0.3899 -0.9477
  292DG      O9 6702   3.039   2.453   4.353  0.2717 -0.1395  0.1043
  292DG     O10 6703   3.444   2.368   4.481  0.0194 -0.0465 -0.0105
  292DG     C11 6704   3.072   2.477   4.215 -0.0874  0.0291 -0.1198
  292DG     C12 6705   3.497   2.320   4.357 -0.2203 -0.7005 -0.3071
  292DG     H13 6706   3.103   2.580   4.198 -1.2288  0.2453 -1.0002
  292DG     H14 6707   2.983   2.460   4.155  1.3872 -0.2582 -2.3355
  292DG     H15 6708   3.566   2.239   4.380  0.7216  0.2838  0.4063
  292DG     H16 6709   3.555   2.400   4.311  2.1836 -2.5046 -0.5797
  292DG     C17 6710   3.186   2.381   4.177  0.2662  0.3177  0.9137
  292DG     C18 6711   3.378   2.276   4.270 -0.2712 -0.0780 -0.3019
  292DG     O19 6712   3.290   2.385   4.275  0.5719  0.2368  0.2730
  292DG     H20 6713   3.220   2.404   4.076 -4.0236  0.3803 -0.6976
  292DG     H21 6714   3.145   2.280   4.168  1.9071 -0.2918 -0.1667
  292DG     H22 6715   3.413   2.242   4.172  2.7301  1.4198  0.1239
  292DG     H23 6716   3.334   2.184   4.307  0.3926 -0.0747  0.5046
  293DG      C1 6717   3.863   1.384   0.566  0.1199  0.4909 -0.7717
  293DG      C2 6718   3.391   1.048   0.968 -0.4976  0.5002 -0.3620
  293DG      H3 6719   3.959   1.435   0.555 -0.5455  1.8464 -0.5016
  293DG      H4 6720   3.787   1.462   0.568  0.1623  0.5258 -0.3711
  293DG      H5 6721   3.838   1.307   0.493  0.3924 -0.4389  0.0901
  293DG      H6 6722   3.393   0.974   0.887  0.4073 -0.7825  0.7965
  293DG      H7 6723   3.351   1.004   1.059  1.0076  0.9859  0.5662
  293DG      H8 6724   3.318   1.126   0.947 -1.8553 -0.3018  1.1859
  293DG      O9 6725   3.874   1.299   0.681 -0.1953 -0.4716  0.3830
  293DG     O10 6726   3.507   1.104   0.999 -0.4652 -0.0004  0.0864
  293DG     C11 6727   3.868   1.368   0.803  0.0029  0.4223  0.3828
  293DG     C12 6728   3.621   1.015   1.010 -0.2610  0.2640 -0.2410
  293DG     H13 6729   3.771   1.418   0.806 -2.5004 -3.8459 -1.2463
  293DG     H14 6730   3.960   1.427   0.810  1.0602 -1.2151  0.9614
  293DG     H15 6731   3.626   0.954   0.920  0.2348 -0.5967  0.3574
  293DG     H16 6732   3.608   0.952   1.097  0.0963 -0.4285 -0.6778
  293DG     C17 6733   3.880   1.256   0.912  0.1347  0.1733  0.2953
  293DG     C18 6734   3.735   1.113   1.035  0.3869 -0.1275 -0.1414
  293DG     O19 6735   3.761   1.181   0.912  0.1628  0.3673  0.3156
  293DG     H20 6736   3.896   1.311   1.004  1.7866  2.7109 -1.3955
  293DG     H21 6737   3.958   1.180   0.910 -0.5038 -0.7346  3.8836
  293DG     H22 6738   3.700   1.182   1.112  0.2059  0.0587 -0.3876
  293DG     H23 6739   3.818   1.055   1.075  0.8731  1.3944  1.1560
  294DG      C1 6740   4.203   3.640   3.675  0.4145  0.0923  0.2599
  294DG      C2 6741   4.678   3.158   4.028  0.0279  0.3167 -0.6279
  294DG      H3 6742   4.284   3.707   3.647 -0.4870  1.2639  0.3568
  294DG      H4 6743   4.124   3.695   3.726  2.1423  0.5374  2.6034
  294DG      H5 6744   4.166   3.595   3.583  2.1649 -0.0988 -0.3886
  294DG      H6 6745   4.772   3.123   3.985 -0.8345  1.0836 -3.3564
  294DG      H7 6746   4.682   3.117   4.129 -1.5898 -0.6985 -0.9289
  294DG      H8 6747   4.597   3.101   3.982 -0.5724  0.2578  0.4674
  294DG      O9 6748   4.250   3.539   3.769 -0.1026 -0.3629 -0.5238
  294DG     O10 6749   4.644   3.300   4.030  0.1008 -0.0741 -0.1236
  294DG     C11 6750   4.303   3.594   3.893 -0.1475 -0.1929 -0.6645
  294DG     C12 6751   4.565   3.334   4.143 -0.2628 -0.6529 -0.7390
  294DG     H13 6752   4.215   3.641   3.937 -1.2827 -2.1317 -0.7506
  294DG     H14 6753   4.383   3.659   3.858  1.2924 -0.6729  1.5540
  294DG     H15 6754   4.606   3.301   4.239 -1.4712 -0.9983 -0.3117
  294DG     H16 6755   4.472   3.278   4.150 -1.2925  1.1636  1.5802
  294DG     C17 6756   4.363   3.498   3.997 -0.4246 -0.1421 -0.4204
  294DG     C18 6757   4.539   3.483   4.164  0.0104  0.3307  0.0074
  294DG     O19 6758   4.476   3.553   4.053 -0.6341 -0.0007 -0.1490
  294DG     H20 6759   4.384   3.408   3.939 -1.4642  1.8578 -4.2068
  294DG     H21 6760   4.289   3.484   4.077  0.5690  0.4984  0.6386
  294DG     H22 6761   4.474   3.485   4.252 -1.0092  0.6653 -0.7448
  294DG     H23 6762   4.637   3.523   4.190  0.6998  0.6896 -2.8916
  295DG      C1 6763   3.630   1.020   1.435 -0.4274 -0.4278 -0.0765
  295DG      C2 6764   4.354   1.062   1.742  0.6302  0.4161  0.1320
  295DG      H3 6765   3.643   0.966   1.341 -1.6739 -2.4286  0.8263
  295DG      H4 6766   3.543   1.086   1.429 -0.9951 -0.9557  1.6662
  295DG      H5 6767   3.618   0.951   1.519 -0.5010  0.0779  0.3302
  295DG      H6 6768   4.359   1.027   1.845 -2.2302 -0.5969  0.0269
  295DG      H7 6769   4.325   0.981   1.675 -1.5846  1.1244  0.1570
  295DG      H8 6770   4.445   1.120   1.724 -0.2511  2.4174  1.7288
  295DG      O9 6771   3.744   1.105   1.453 -0.3163  0.9831 -0.0341
  295DG     O10 6772   4.255   1.159   1.733  0.1007  0.6083  0.3312
  295DG     C11 6773   3.755   1.162   1.582  0.0845  0.1843  0.2295
  295DG     C12 6774   4.237   1.212   1.604 -0.4205 -0.7353  0.0485
  295DG     H13 6775   3.782   1.082   1.650  0.7489  0.7284  0.6284
  295DG     H14 6776   3.658   1.202   1.611  0.2789  0.3934  0.5913
  295DG     H15 6777   4.236   1.137   1.524 -0.5409 -0.9006  0.2053
  295DG     H16 6778   4.324   1.276   1.590 -0.4513 -0.5359  0.7248
  295DG     C17 6779   3.869   1.267   1.584 -0.0372 -0.5293 -0.7660
  295DG     C18 6780   4.107   1.292   1.607  0.1436  0.5072  0.5291
  295DG     O19 6781   3.999   1.200   1.599  0.5315  0.0085  0.3346
  295DG     H20 6782   3.870   1.337   1.667  1.6062  0.1826 -1.3543
  295DG     H21 6783   3.870   1.326   1.493  0.5910  1.3036  0.3869
  295DG     H22 6784   4.093   1.348   1.699 -2.8127 -0.8947  1.0552
  295DG     H23 6785   4.090   1.355   1.521  0.2451  0.1278  0.2275
  296DG      C1 6786   0.107   0.531   2.959  0.4612 -0.2528 -0.0423
  296DG      C2 6787   0.417  -0.205   2.745  0.0070  0.0583  0.1105
  296DG      H3 6788   0.029   0.527   2.882  0.6235  0.4369 -0.2521
  296DG      H4 6789   0.170   0.611   2.919 -0.7936 -0.0547 -1.7393
  296DG      H5 6790   0.054   0.574   3.044  2.0425 -0.4050  1.0667
  296DG      H6 6791   0.520  -0.186   2.776  0.4971 -0.8478 -0.8637
  296DG      H7 6792   0.360  -0.277   2.805 -1.2017  0.2339 -0.7848
  296DG      H8 6793   0.423  -0.242   2.642  0.5456 -1.4232  0.6445
  296DG      O9 6794   0.186   0.414   2.981  0.6443 -0.6804  0.2978
  296DG     O10 6795   0.358  -0.076   2.757 -0.0523 -0.4790  0.7481
  296DG     C11 6796   0.250   0.364   2.872  1.0863  0.5439  0.8043
  296DG     C12 6797   0.217  -0.068   2.731  0.1686 -0.3531 -0.2002
  296DG     H13 6798   0.345   0.416   2.862  1.2891 -0.0000 -0.2080
  296DG     H14 6799   0.193   0.376   2.780 -0.3790  3.6819  2.0009
  296DG     H15 6800   0.175  -0.168   2.719 -2.5074  0.4063  1.7492
  296DG     H16 6801   0.212  -0.012   2.638  0.0621 -0.1531 -0.0739
  296DG     C17 6802   0.270   0.215   2.883 -0.2161 -0.0538 -0.0182
  296DG     C18 6803   0.152   0.004   2.853  0.1552 -0.0431  0.6572
  296DG     O19 6804   0.151   0.144   2.841 -0.3696 -0.4411 -0.3589
  296DG     H20 6805   0.285   0.196   2.989 -0.8954  0.0910  0.1102
  296DG     H21 6806   0.351   0.178   2.821  0.2371  2.2996 -0.9473
  296DG     H22 6807   0.047  -0.025   2.850 -0.3037  1.5851 -1.5234
  296DG     H23 6808   0.202  -0.023   2.946  3.0757 -2.2389 -1.4057
  297DG      C1 6809   5.195   1.074   3.055 -0.4645  0.0975 -0.4320
  297DG      C2 6810   4.847   1.344   3.158 -0.0967 -0.1249  0.2957
  297DG      H3 6811   5.192   0.965   3.053  0.4576  0.0764 -1.5729
  297DG      H4 6812   5.270   1.111   2.986 -1.3034  1.0705 -0.8566
  297DG      H5 6813   5.100   1.114   3.019 -0.5854 -0.3094 -0.5780
  297DG      H6 6814   4.859   1.236   3.173 -1.9588 -0.4382 -0.2014
  297DG      H7 6815   4.742   1.366   3.177  0.1339  2.3096 -0.9609
  297DG      H8 6816   4.867   1.372   3.055  3.7844 -0.8247  0.6872
  297DG      O9 6817   5.238   1.123   3.189  0.0850 -0.5461 -0.1473
  297DG     O10 6818   4.941   1.436   3.222 -0.1922 -0.5333  0.2478
  297DG     C11 6819   5.164   1.078   3.299 -0.5571  0.1867 -0.1397
  297DG     C12 6820   4.943   1.446   3.365  0.4740  0.2653  0.5802
  297DG     H13 6821   5.195   0.978   3.329  2.9752  0.8057 -1.3529
  297DG     H14 6822   5.059   1.067   3.272 -0.9260  0.3205  1.1737
  297DG     H15 6823   4.841   1.463   3.399  0.9867 -1.2392  3.1221
  297DG     H16 6824   4.993   1.540   3.389 -0.4845  1.9689 -3.3253
  297DG     C17 6825   5.185   1.164   3.423 -0.0043  0.2584 -0.2024
  297DG     C18 6826   4.996   1.313   3.422 -0.9095  0.1996  0.6045
  297DG     O19 6827   5.140   1.300   3.395  0.3038  0.5323  0.2100
  297DG     H20 6828   5.293   1.176   3.435  0.0796 -1.2197  0.7967
  297DG     H21 6829   5.142   1.120   3.513  1.1722  0.2913  0.3991
  297DG     H22 6830   4.987   1.323   3.530  1.4258  0.9436  0.7898
  297DG     H23 6831   4.940   1.229   3.381  1.2724 -0.1760 -1.8941
  298DG      C1 6832   3.839   3.872   1.688 -0.6447  0.1982 -0.6398
  298DG      C2 6833   4.217   3.208   1.570  0.2928 -0.0417 -0.2406
  298DG      H3 6834   3.792   3.814   1.768  1.5518  0.3427  0.8558
  298DG      H4 6835   3.764   3.936   1.643 -0.5923 -0.8523 -2.2915
  298DG      H5 6836   3.921   3.926   1.736 -0.6708 -0.0006 -0.3652
  298DG      H6 6837   4.282   3.169   1.491 -1.1845 -0.7741 -1.1485
  298DG      H7 6838   4.261   3.223   1.668  1.2673 -0.8526 -0.5398
  298DG      H8 6839   4.139   3.133   1.581 -2.0240  2.2578  0.0607
  298DG      O9 6840   3.901   3.796   1.589 -0.1376 -0.1233  0.4572
  298DG     O10 6841   4.152   3.333   1.526  0.0244  0.3244  0.3289
  298DG     C11 6842   3.803   3.718   1.513 -0.6483 -0.9086 -0.5475
  298DG     C12 6843   4.068   3.314   1.411 -0.1128  0.2830 -0.5532
  298DG     H13 6844   3.744   3.788   1.454 -1.4502 -1.5202 -0.4808
  298DG     H14 6845   3.738   3.661   1.579  0.1754  1.0305  2.0602
  298DG     H15 6846   3.977   3.262   1.441  0.3633 -0.3683 -0.2212
  298DG     H16 6847   4.095   3.259   1.320  0.2623 -0.2884 -0.1005
  298DG     C17 6848   3.875   3.627   1.410 -0.1016 -0.1966  0.2591
  298DG     C18 6849   4.030   3.454   1.360 -0.5413  0.0474 -0.1872
  298DG     O19 6850   3.966   3.540   1.463 -0.0420 -0.5509  0.4574
  298DG     H20 6851   3.916   3.702   1.343  0.7700 -1.2010 -0.3582
  298DG     H21 6852   3.796   3.565   1.368 -0.6064  1.1602 -0.9046
  298DG     H22 6853   4.123   3.499   1.324 -1.6789  1.0994 -1.9783
  298DG     H23 6854   3.964   3.450   1.273  2.8796  1.0113 -3.0959
  299DG      C1 6855   0.986   0.097   1.857 -0.5949  0.1919  0.8267
  299DG      C2 6856   0.527  -0.272   1.247 -0.6129 -0.5240 -0.1037
  299DG      H3 6857   0.928   0.168   1.916 -1.5823  0.4965 -0.4840
  299DG      H4 6858   1.078   0.137   1.816 -1.3092 -0.2402 -1.2908
  299DG      H5 6859   1.019   0.021   1.929 -1.6546 -1.4283 -0.3264
  299DG      H6 6860   0.617  -0.287   1.189  1.0067  0.4627  2.0057
  299DG      H7 6861   0.472  -0.365   1.260 -1.9059  0.0543 -1.1174
  299DG      H8 6862   0.465  -0.217   1.175  3.0539  1.5332 -1.9497
  299DG      O9 6863   0.909   0.038   1.759 -0.7359 -0.3033  0.1443
  299DG     O10 6864   0.551  -0.187   1.360  0.3886 -0.7410 -0.1644
  299DG     C11 6865   0.780  -0.013   1.801  0.0851 -0.3300  0.3244
  299DG     C12 6866   0.628  -0.075   1.323  0.2872 -0.1581  0.4451
  299DG     H13 6867   0.739   0.041   1.887  0.1898 -2.3878  1.7467
  299DG     H14 6868   0.798  -0.117   1.827  0.5333 -0.3709 -0.1354
  299DG     H15 6869   0.570  -0.007   1.261 -0.1034  0.9235  1.9251
  299DG     H16 6870   0.719  -0.106   1.271 -0.2674  0.3259 -0.8438
  299DG     C17 6871   0.683   0.014   1.686  0.1356  0.3670  0.1833
  299DG     C18 6872   0.648   0.017   1.447 -0.4018  0.3747 -0.1335
  299DG     O19 6873   0.718  -0.051   1.562 -0.2547  0.0417 -0.0737
  299DG     H20 6874   0.690   0.122   1.669 -2.4686  0.6172  0.3508
  299DG     H21 6875   0.579   0.005   1.718  0.1938 -0.5703  0.1290
  299DG     H22 6876   0.712   0.103   1.428  0.0546 -0.2765 -1.7224
  299DG     H23 6877   0.546   0.042   1.477 -0.3245 -0.7254  1.1460
  300DG      C1 6878   4.602   2.046   1.871  0.2771  0.1025 -0.1904
  300DG      C2 6879   4.953   2.226   2.524 -0.9495  0.2065  0.5216
  300DG      H3 6880   4.608   2.017   1.766 -0.0481  0.5161 -0.3252
  300DG      H4 6881   4.574   2.151   1.857  1.0441  0.4740  0.8516
  300DG      H5 6882   4.525   1.987   1.921  0.8021 -0.8788 -0.5117
  300DG      H6 6883   5.057   2.214   2.555 -0.7728 -2.9418 -0.9287
  300DG      H7 6884   4.944   2.324   2.479  0.8696  0.1116 -0.1189
  300DG      H8 6885   4.888   2.227   2.612 -1.1675  0.5391  0.3553
  300DG      O9 6886   4.727   2.051   1.943 -0.2688 -0.0145  0.1346
  300DG     O10 6887   4.907   2.119   2.447  0.4905  0.0610 -0.0870
  300DG     C11 6888   4.764   1.921   1.993 -0.3740  0.8257  0.9115
  300DG     C12 6889   4.792   2.150   2.367 -0.1944 -0.3397  0.5474
  300DG     H13 6890   4.772   1.842   1.918  1.5905  0.5398  1.3604
  300DG     H14 6891   4.696   1.883   2.069  0.6320 -1.6304  0.6895
  300DG     H15 6892   4.797   2.246   2.314 -0.3276 -0.4418  0.3464
  300DG     H16 6893   4.697   2.161   2.420 -0.3324 -0.6892  0.3800
  300DG     C17 6894   4.895   1.937   2.078  0.4445 -0.6977  0.0291
  300DG     C18 6895   4.782   2.043   2.261 -0.5262  0.0932 -0.1825
  300DG     O19 6896   4.883   2.049   2.169 -0.3245 -0.0791  0.3895
  300DG     H20 6897   4.984   1.931   2.015 -0.0348 -1.0670 -0.6256
  300DG     H21 6898   4.896   1.844   2.135 -0.2622  0.8182  2.6623
  300DG     H22 6899   4.777   1.949   2.316  1.0297 -0.1606 -0.4228
  300DG     H23 6900   4.688   2.058   2.207 -0.4201 -1.1541 -0.7336
  301DG      C1 6901   1.849   1.767   0.835  0.3230 -0.1353  0.3229
  301DG      C2 6902   1.880   1.869   1.549  0.6504  0.2849 -0.6362
  301DG      H3 6903   1.909   1.676   0.845 -0.8355 -0.7673  2.0583
  301DG      H4 6904   1.908   1.858   0.844 -0.0998  0.1576  0.1369
  301DG      H5 6905   1.794   1.765   0.741 -0.1697 -0.9371  0.6130
  301DG      H6 6906   1.807   1.864   1.630 -1.1830  1.5402 -2.1286
  301DG      H7 6907   1.939   1.778   1.535  1.3267  0.5033  0.6556
  301DG      H8 6908   1.941   1.957   1.568 -3.1562  3.4688 -2.0395
  301DG      O9 6909   1.762   1.767   0.943  0.0799 -0.0437 -0.0805
  301DG     O10 6910   1.798   1.887   1.433 -0.2954  0.2793  0.1294
  301DG     C11 6911   1.701   1.895   0.964 -0.1091 -0.6822  0.2647
  301DG     C12 6912   1.702   1.781   1.414 -0.2095  0.5103  0.4010
  301DG     H13 6913   1.645   1.924   0.876  2.5397  2.0509 -0.7226
  301DG     H14 6914   1.769   1.979   0.979 -3.0441  2.4249 -2.2468
  301DG     H15 6915   1.646   1.755   1.504 -1.0582 -1.4295 -0.6318
  301DG     H16 6916   1.762   1.696   1.382 -0.4008  0.0257  1.2890
  301DG     C17 6917   1.606   1.895   1.080  1.1325  0.0200 -0.8103
  301DG     C18 6918   1.605   1.821   1.306  0.1668 -0.4915  0.3847
  301DG     O19 6919   1.687   1.856   1.191  1.0606 -0.6305  0.1689
  301DG     H20 6920   1.517   1.834   1.061  0.3617  1.1800 -1.0208
  301DG     H21 6921   1.565   1.993   1.102 -0.0630 -0.5379 -0.4674
  301DG     H22 6922   1.549   1.732   1.278  0.4529 -0.8984  1.0637
  301DG     H23 6923   1.539   1.898   1.345  0.2983 -1.1516  2.0137
  302DG      C1 6924   3.977   4.045   5.499  0.6238 -0.6537  0.0053
  302DG      C2 6925   4.003   3.737   6.136 -0.8155  0.2296  0.6802
  302DG      H3 6926   3.955   4.041   5.392 -0.0270  0.4172  0.0731
  302DG      H4 6927   4.083   4.062   5.516  0.5293 -0.8173  0.8259
  302DG      H5 6928   3.916   4.127   5.540  1.1535 -0.5776  0.6532
  302DG      H6 6929   3.949   3.668   6.200 -0.6227 -0.2812  0.2947
  302DG      H7 6930   4.109   3.713   6.149 -0.9735 -1.8449 -1.2919
  302DG      H8 6931   3.982   3.840   6.164 -2.7594  0.1277 -0.2856
  302DG      O9 6932   3.948   3.925   5.571  0.6707  0.3106  0.1733
  302DG     O10 6933   3.967   3.719   5.995 -0.1913  0.0471 -0.3314
  302DG     C11 6934   4.006   3.813   5.508 -0.0053  0.2423 -0.5517
  302DG     C12 6935   4.011   3.598   5.945 -0.0053 -0.0085  0.0575
  302DG     H13 6936   4.113   3.832   5.517  0.0519 -0.2262 -0.2177
  302DG     H14 6937   3.980   3.809   5.402 -2.2624 -0.0468 -0.0379
  302DG     H15 6938   3.971   3.526   6.016 -1.8298  1.4006  0.5157
  302DG     H16 6939   4.118   3.584   5.963 -0.4911 -1.6693  1.9859
  302DG     C17 6940   3.980   3.674   5.575 -0.1381 -1.0042  0.5968
  302DG     C18 6941   3.981   3.571   5.798 -0.1726  0.3601 -0.1605
  302DG     O19 6942   4.009   3.688   5.717  0.7137  0.6560 -0.3615
  302DG     H20 6943   4.044   3.599   5.528 -0.8302 -0.0069 -2.0892
  302DG     H21 6944   3.873   3.652   5.573 -0.5395  0.8077 -0.4293
  302DG     H22 6945   4.045   3.488   5.768  2.3612  1.9287  0.5727
  302DG     H23 6946   3.879   3.533   5.788 -0.8604  2.5796 -3.3542
  303DG      C1 6947   1.808   2.043   3.473  0.5483  0.4473 -0.4203
  303DG      C2 6948   1.577   2.359   4.004 -0.0199  0.3304  0.7797
  303DG      H3 6949   1.761   2.133   3.433  0.6143  0.4181 -0.5623
  303DG      H4 6950   1.804   1.970   3.392 -2.5137  1.2255 -1.1015
  303DG      H5 6951   1.911   2.062   3.504  0.9486 -0.5260 -1.1056
  303DG      H6 6952   1.675   2.406   3.999  0.3648 -0.5123  0.2072
  303DG      H7 6953   1.501   2.434   3.983 -0.4819  0.0147  1.3052
  303DG      H8 6954   1.560   2.322   4.105 -2.6948 -0.1493  0.2246
  303DG      O9 6955   1.730   1.990   3.580  0.1772 -0.3320  0.2735
  303DG     O10 6956   1.563   2.248   3.914 -0.3182  0.3027 -0.1289
  303DG     C11 6957   1.599   1.947   3.541  0.0025 -0.5009  0.7570
  303DG     C12 6958   1.430   2.206   3.903 -0.8888 -0.4941  0.6367
  303DG     H13 6959   1.604   1.852   3.487 -3.0654 -0.8047  0.8185
  303DG     H14 6960   1.556   2.019   3.471 -0.5682  0.2682  1.8657
  303DG     H15 6961   1.388   2.288   3.845 -0.3974  0.8774  2.1632
  303DG     H16 6962   1.383   2.201   4.002 -0.2449  0.0534  0.9726
  303DG     C17 6963   1.502   1.942   3.656  0.7916 -0.1349  0.1295
  303DG     C18 6964   1.427   2.065   3.846  0.0745  0.6981  0.1101
  303DG     O19 6965   1.506   2.064   3.736 -0.1765 -0.3588  0.4955
  303DG     H20 6966   1.545   1.867   3.723 -1.8643 -0.8843  1.1452
  303DG     H21 6967   1.402   1.923   3.617  1.0348  1.6879 -1.5356
  303DG     H22 6968   1.460   1.984   3.911  2.5696 -0.1433 -2.0171
  303DG     H23 6969   1.325   2.037   3.819  0.8102 -1.0198 -1.0470
  304DG      C1 6970   0.344   2.850   0.415 -0.0368  0.4242  0.1229
  304DG      C2 6971   0.106   2.167   0.189  0.7901 -0.0914 -0.0735
  304DG      H3 6972   0.443   2.807   0.406 -0.1418 -0.4280  2.4986
  304DG      H4 6973   0.309   2.841   0.518 -0.6295 -1.5507 -0.2105
  304DG      H5 6974   0.336   2.959   0.415  2.1552  0.6185 -0.4448
  304DG      H6 6975   0.206   2.148   0.149  1.6392  2.2839  0.6944
  304DG      H7 6976   0.107   2.105   0.279 -0.6561 -0.7167 -0.4633
  304DG      H8 6977   0.029   2.121   0.127 -0.4267 -0.1191  1.3984
  304DG      O9 6978   0.245   2.798   0.327  0.6400  0.0723  0.1339
  304DG     O10 6979   0.087   2.304   0.199  0.2220  0.2210  0.1642
  304DG     C11 6980   0.271   2.783   0.190 -0.1349  0.2405 -0.1382
  304DG     C12 6981   0.057   2.368   0.077  0.5809  0.4609 -0.1106
  304DG     H13 6982   0.358   2.719   0.180 -1.0238 -1.1965  0.9985
  304DG     H14 6983   0.288   2.882   0.148 -0.6433  0.2688 -0.2934
  304DG     H15 6984  -0.025   2.315   0.027  1.6491 -0.8698 -0.4909
  304DG     H16 6985   0.137   2.352   0.005  2.3480  1.4697  1.5604
  304DG     C17 6986   0.150   2.724   0.113  0.4727  0.0441 -0.0528
  304DG     C18 6987   0.024   2.517   0.085  0.0680  0.1934 -0.4275
  304DG     O19 6988   0.140   2.582   0.141 -0.1156 -0.0872  0.2251
  304DG     H20 6989   0.177   2.737   0.008  0.7176  0.6504  0.0841
  304DG     H21 6990   0.057   2.774   0.140  0.0070 -0.8342  0.0149
  304DG     H22 6991   0.026   2.548  -0.020  1.5028  1.1102 -0.1517
  304DG     H23 6992  -0.074   2.542   0.125 -0.4936 -2.9361  0.4489
  305DG      C1 6993   2.863   4.480   4.399 -0.1153  0.2156  0.2918
  305DG      C2 6994   3.176   3.991   4.054  0.3556 -0.9945  0.3489
  305DG      H3 6995   2.779   4.543   4.372 -0.3135  0.3002  1.0602
  305DG      H4 6996   2.913   4.519   4.489 -1.3139  0.3923  0.9008
  305DG      H5 6997   2.826   4.379   4.413 -2.6602  0.9754 -0.5083
  305DG      H6 6998   3.257   3.942   4.000 -0.4437 -1.1899 -0.7274
  305DG      H7 6999   3.186   3.987   4.162 -0.0799 -0.4696  0.4103
  305DG      H8 7000   3.091   3.924   4.037  0.0722 -0.7699  0.8578
  305DG      O9 7001   2.964   4.457   4.297 -0.1103  0.1524 -0.9280
  305DG     O10 7002   3.130   4.118   4.016  0.7738 -0.4589 -0.3250
  305DG     C11 7003   2.929   4.518   4.170 -1.1359  0.5140 -0.2028
  305DG     C12 7004   3.242   4.214   4.008 -0.9983 -0.9967 -0.3464
  305DG     H13 7005   2.896   4.620   4.189 -0.5049  1.4500 -3.4974
  305DG     H14 7006   2.848   4.460   4.125  0.6841 -2.6190  0.2685
  305DG     H15 7007   3.306   4.185   3.924 -1.1077 -0.6338 -0.5612
  305DG     H16 7008   3.307   4.206   4.094  1.2219 -1.3494 -1.9730
  305DG     C17 7009   3.055   4.520   4.081  0.2773  0.3527 -0.8713
  305DG     C18 7010   3.201   4.359   3.989  0.3777  0.7262  0.1600
  305DG     O19 7011   3.114   4.390   4.097  0.1407 -0.4962 -0.1154
  305DG     H20 7012   3.126   4.598   4.111  1.6394 -1.4956  0.9696
  305DG     H21 7013   3.021   4.540   3.979  1.9195 -0.3886 -1.6116
  305DG     H22 7014   3.288   4.425   3.992 -1.4183  3.3732 -1.6996
  305DG     H23 7015   3.152   4.376   3.893 -2.0712  1.1322  1.4089
  306DG      C1 7016   4.429   3.995   3.605  0.3160  0.1196 -0.1061
  306DG      C2 7017   4.854   4.137   3.102  0.4009  0.5125  0.5889
  306DG      H3 7018   4.522   4.008   3.661  0.7353 -1.1858 -0.4465
  306DG      H4 7019   4.388   3.900   3.640 -1.2417  0.7426 -0.1703
  306DG      H5 7020   4.373   4.076   3.651  1.4490 -0.2130  2.0093
  306DG      H6 7021   4.872   4.180   3.003  0.8974 -1.0974 -0.0479
  306DG      H7 7022   4.900   4.174   3.193 -0.0788 -1.6868  1.8046
  306DG      H8 7023   4.896   4.038   3.084 -1.5468 -0.1888 -0.4264
  306DG      O9 7024   4.456   3.997   3.464  0.6101  0.0633 -0.5166
  306DG     O10 7025   4.714   4.121   3.116 -0.3771 -0.3943  0.7761
  306DG     C11 7026   4.338   3.956   3.393 -0.2191  0.0351  0.5277
  306DG     C12 7027   4.652   4.044   3.020 -0.3135 -0.1254  0.2666
  306DG     H13 7028   4.244   3.994   3.434 -0.6203 -0.9927  0.6057
  306DG     H14 7029   4.327   3.848   3.394 -1.5857  0.1453 -0.3479
  306DG     H15 7030   4.710   3.957   2.988  0.3616  0.7230 -0.8896
  306DG     H16 7031   4.650   4.111   2.934 -1.8892  0.4027  0.6721
  306DG     C17 7032   4.350   3.999   3.244  0.7376 -0.5111 -0.3132
  306DG     C18 7033   4.507   4.023   3.062  1.0235  0.7807  0.5972
  306DG     O19 7034   4.489   3.995   3.205 -0.0032  0.2567  0.3665
  306DG     H20 7035   4.327   4.105   3.234  0.1516 -0.4314  1.5214
  306DG     H21 7036   4.270   3.961   3.180 -0.9932 -0.2032  1.5411
  306DG     H22 7037   4.466   4.120   3.038  2.6008  1.0545 -1.2401
  306DG     H23 7038   4.452   3.953   2.999  0.1411  1.0431  1.0614
  307DG      C1 7039   5.126   5.141   2.258  0.2668  0.4224 -0.2660
  307DG      C2 7040   5.073   4.920   2.861  0.1356  0.0963  0.5941
  307DG      H3 7041   5.018   5.128   2.245  0.2340 -0.4587  0.7834
  307DG      H4 7042   5.160   5.124   2.156 -2.6680 -1.2226 -1.0706
  307DG      H5 7043   5.151   5.242   2.293  1.2278  0.0174  0.2410
  307DG      H6 7044   5.016   5.012   2.846  0.1274 -0.1854 -1.2912
  307DG      H7 7045   5.027   4.828   2.896  0.0545  0.4629  1.4941
  307DG      H8 7046   5.148   4.945   2.936  0.4392  0.6290  0.1196
  307DG      O9 7047   5.187   5.041   2.339 -0.0118  0.0135  0.1025
  307DG     O10 7048   5.141   4.894   2.738 -0.3124  0.0125 -0.1489
  307DG     C11 7049   5.182   4.910   2.287 -0.2033 -0.5297 -0.0446
  307DG     C12 7050   5.238   4.790   2.753 -0.2969 -0.7282  0.5119
  307DG     H13 7051   5.230   4.908   2.189  0.6164 -4.7439  0.2695
  307DG     H14 7052   5.077   4.886   2.269  0.2358 -2.0680 -0.6489
  307DG     H15 7053   5.187   4.694   2.762 -1.2770 -0.2113  0.6072
  307DG     H16 7054   5.317   4.800   2.829  2.4903  0.4273 -2.3012
  307DG     C17 7055   5.262   4.809   2.380 -0.0724  0.1753  0.3479
  307DG     C18 7056   5.301   4.771   2.621 -0.8705  0.2857  0.9469
  307DG     O19 7057   5.214   4.807   2.517  0.4367  0.5143 -0.1235
  307DG     H20 7058   5.366   4.841   2.385 -0.0690  0.4313 -1.0997
  307DG     H21 7059   5.263   4.709   2.336 -1.5229  0.2197  0.1651
  307DG     H22 7060   5.385   4.838   2.602 -1.1291  0.2484 -0.4161
  307DG     H23 7061   5.342   4.674   2.596 -3.0619 -0.1160 -1.6628
  308DG      C1 7062   1.863   0.421   4.757  0.2601  0.6069 -0.0917
  308DG      C2 7063   1.827  -0.019   4.011 -0.3596 -0.2469 -0.0449
  308DG      H3 7064   1.933   0.504   4.755  0.2105  0.6432 -0.9959
  308DG      H4 7065   1.930   0.335   4.762  1.1674  1.2930 -0.2705
  308DG      H5 7066   1.793   0.428   4.840 -3.0405 -1.2811 -2.4652
  308DG      H6 7067   1.911  -0.086   3.993  0.6866  1.5720 -2.5983
  308DG      H7 7068   1.730  -0.069   4.007 -0.2559 -0.3782 -2.1490
  308DG      H8 7069   1.839   0.062   3.939  0.7669  0.1631  0.5829
  308DG      O9 7070   1.801   0.416   4.634  0.8988  0.0313  0.5186
  308DG     O10 7071   1.828   0.044   4.139 -0.1586 -0.1981  0.4341
  308DG     C11 7072   1.887   0.380   4.520 -0.3145  0.4350 -0.0027
  308DG     C12 7073   1.790  -0.027   4.256  1.0284 -0.8000  0.1433
  308DG     H13 7074   1.981   0.433   4.526  1.5664 -2.3398 -2.3322
  308DG     H14 7075   1.847   0.412   4.424 -1.7752 -0.9342  0.1017
  308DG     H15 7076   1.831  -0.128   4.245 -0.7808 -1.5741  0.1153
  308DG     H16 7077   1.682  -0.038   4.262  0.9667  0.5080  2.4203
  308DG     C17 7078   1.915   0.235   4.496 -0.0355  0.7370  0.2441
  308DG     C18 7079   1.843   0.032   4.388 -0.0627 -0.0780 -0.5423
  308DG     O19 7080   1.812   0.172   4.416  0.2608  0.1838  0.6396
  308DG     H20 7081   1.909   0.187   4.594 -0.7060 -0.0551 -0.1687
  308DG     H21 7082   2.015   0.221   4.455 -0.5331 -1.2296 -0.4442
  308DG     H22 7083   1.815  -0.035   4.470  0.0811  2.0458  1.3376
  308DG     H23 7084   1.952   0.032   4.375  0.4998  0.4744  3.0762
  309DG      C1 7085   1.373   1.262   3.176 -0.3348 -0.7417  0.4629
  309DG      C2 7086   1.742   1.618   3.642  0.0747  0.3638 -0.1067
  309DG      H3 7087   1.391   1.306   3.077 -0.3237 -1.2064  0.2557
  309DG      H4 7088   1.296   1.318   3.228  0.8245  0.8317  0.5564
  309DG      H5 7089   1.331   1.162   3.166  1.4673 -1.5116  0.0405
  309DG      H6 7090   1.724   1.525   3.695  1.9797 -1.0790 -1.8130
  309DG      H7 7091   1.840   1.656   3.671 -0.0731  1.0754 -0.5271
  309DG      H8 7092   1.659   1.687   3.656  0.6115  1.4557 -1.8936
  309DG      O9 7093   1.487   1.265   3.261  0.3576  0.2883  0.0110
  309DG     O10 7094   1.762   1.594   3.499  0.0166 -0.0384 -0.3270
  309DG     C11 7095   1.475   1.216   3.395 -0.9086  0.0537 -0.3002
  309DG     C12 7096   1.860   1.503   3.456  0.2640  0.5091  0.0998
  309DG     H13 7097   1.451   1.110   3.401 -0.1438 -0.1322 -0.4460
  309DG     H14 7098   1.410   1.280   3.456  0.6734  1.0122  0.4456
  309DG     H15 7099   1.959   1.532   3.490  1.3364  0.9412 -3.0474
  309DG     H16 7100   1.862   1.496   3.347  2.8968 -1.1166  0.1828
  309DG     C17 7101   1.626   1.221   3.451  0.1932  1.0560  0.0986
  309DG     C18 7102   1.817   1.359   3.483  0.6515  0.1675  0.2381
  309DG     O19 7103   1.683   1.346   3.432 -0.6001 -0.9085 -0.9845
  309DG     H20 7104   1.686   1.146   3.400 -0.7653  0.3691 -0.0303
  309DG     H21 7105   1.630   1.200   3.558  1.7261 -3.2524 -0.6117
  309DG     H22 7106   1.892   1.294   3.437  1.6579  0.9694  0.6904
  309DG     H23 7107   1.811   1.340   3.590  0.9307  0.0448  0.2343
  310DG      C1 7108   2.407   3.304   3.547 -0.0591 -0.8315  0.1144
  310DG      C2 7109   2.518   3.271   4.412  0.1014 -0.4606 -0.6333
  310DG      H3 7110   2.308   3.290   3.503 -0.8031 -1.4262  1.8958
  310DG      H4 7111   2.460   3.217   3.508 -1.3231 -1.4432 -0.3157
  310DG      H5 7112   2.440   3.395   3.498  0.1671 -1.1422 -0.3255
  310DG      H6 7113   2.601   3.211   4.450  0.1961  0.4122  0.5799
  310DG      H7 7114   2.551   3.375   4.418 -1.5882  0.0529  0.4637
  310DG      H8 7115   2.432   3.265   4.478  0.5004  3.4123  0.5113
  310DG      O9 7116   2.378   3.320   3.686 -0.3186  0.5914 -0.0881
  310DG     O10 7117   2.484   3.218   4.284 -0.1854 -0.1070  0.3229
  310DG     C11 7118   2.494   3.335   3.773  0.7260  0.4708 -0.3234
  310DG     C12 7119   2.602   3.220   4.196  0.4894  0.4133  0.6488
  310DG     H13 7120   2.563   3.412   3.738  0.7524  0.5146 -0.1797
  310DG     H14 7121   2.549   3.241   3.773 -0.4487 -0.2538  0.6361
  310DG     H15 7122   2.667   3.137   4.225 -0.4817 -0.4756  0.3722
  310DG     H16 7123   2.665   3.307   4.214  1.2472 -0.2938  1.5587
  310DG     C17 7124   2.439   3.361   3.912  0.4886  0.2905  0.7074
  310DG     C18 7125   2.570   3.219   4.051  0.6593 -0.0799 -0.3575
  310DG     O19 7126   2.533   3.352   4.017 -0.2654 -0.2335 -0.0193
  310DG     H20 7127   2.354   3.296   3.934  1.3258 -0.7854  0.8045
  310DG     H21 7128   2.397   3.462   3.916 -0.2899  0.0586 -0.8994
  310DG     H22 7129   2.652   3.176   3.992  0.1740  0.0221 -1.1151
  310DG     H23 7130   2.486   3.152   4.037  0.3865  0.1196  0.3130
  311DG      C1 7131   2.347   2.511   3.943 -0.4528  0.3379  0.2306
  311DG      C2 7132   2.777   3.022   3.795 -0.2690  0.1171  0.1730
  311DG      H3 7133   2.334   2.529   4.050 -1.5179  0.5400  0.0733
  311DG      H4 7134   2.446   2.464   3.937 -0.7655 -0.3343  0.2544
  311DG      H5 7135   2.266   2.442   3.922 -0.8302  1.2095 -1.2786
  311DG      H6 7136   2.795   3.119   3.748  2.1963  0.1137  0.9829
  311DG      H7 7137   2.785   3.046   3.901 -0.8066  2.5448 -0.2708
  311DG      H8 7138   2.864   2.962   3.769  0.4349  0.1804  2.1836
  311DG      O9 7139   2.355   2.630   3.857 -0.1966 -0.2743 -0.2597
  311DG     O10 7140   2.647   2.976   3.759  0.5900 -0.0259  0.2639
  311DG     C11 7141   2.322   2.610   3.722  0.4159 -0.1222  0.1123
  311DG     C12 7142   2.657   2.935   3.621  0.2495 -0.5252 -0.1216
  311DG     H13 7143   2.216   2.584   3.726 -0.3364  2.7191  0.4766
  311DG     H14 7144   2.382   2.529   3.679 -0.2088 -0.0011 -1.0574
  311DG     H15 7145   2.715   2.845   3.599  1.6331  0.2876  0.0980
  311DG     H16 7146   2.695   3.019   3.563 -0.7952  0.8316  1.0889
  311DG     C17 7147   2.339   2.739   3.633  0.0383 -0.8590  0.2558
  311DG     C18 7148   2.516   2.899   3.577  0.2851  0.6380  0.0298
  311DG     O19 7149   2.464   2.802   3.671 -0.8080  0.0322  0.0338
  311DG     H20 7150   2.267   2.812   3.671 -0.8269 -0.9467 -1.1420
  311DG     H21 7151   2.318   2.716   3.528  0.5634 -1.6723  0.3237
  311DG     H22 7152   2.443   2.980   3.577 -0.1672  0.2471 -0.6965
  311DG     H23 7153   2.523   2.871   3.472 -1.1976  0.1975  0.0228
  312DG      C1 7154   1.564   4.472   1.323  0.3544 -0.6815  0.4105
  312DG      C2 7155   2.201   4.425   1.706  0.3593 -0.0871  0.0547
  312DG      H3 7156   1.618   4.415   1.248 -1.2424  1.2204 -2.3440
  312DG      H4 7157   1.498   4.538   1.266 -1.5691 -3.4177 -0.7628
  312DG      H5 7158   1.503   4.405   1.385 -1.1634  0.4303  0.1813
  312DG      H6 7159   2.177   4.321   1.727  0.2026 -0.0746 -0.0625
  312DG      H7 7160   2.275   4.404   1.629  0.5416  0.3466  0.1071
  312DG      H8 7161   2.248   4.463   1.797 -0.4771  1.1969 -0.0136
  312DG      O9 7162   1.644   4.547   1.410 -0.4934  0.0111 -0.4814
  312DG     O10 7163   2.089   4.501   1.649  0.0679  0.4786  0.3644
  312DG     C11 7164   1.724   4.634   1.330  0.1677  0.2973 -0.4346
  312DG     C12 7165   2.131   4.608   1.560 -0.2864 -0.4878 -0.9140
  312DG     H13 7166   1.662   4.693   1.263 -0.4814 -0.1125 -0.2036
  312DG     H14 7167   1.792   4.575   1.269  0.8899 -0.7804  1.3274
  312DG     H15 7168   2.171   4.572   1.465  3.8183  0.6037  0.1921
  312DG     H16 7169   2.215   4.665   1.600  0.3667  0.7709 -3.8406
  312DG     C17 7170   1.818   4.723   1.408  0.6939  0.1781  0.6813
  312DG     C18 7171   2.011   4.708   1.538 -0.9332 -0.4235 -0.5966
  312DG     O19 7172   1.918   4.637   1.461  0.0511  0.0138 -0.5758
  312DG     H20 7173   1.754   4.772   1.482  0.4590 -1.7095  1.7818
  312DG     H21 7174   1.871   4.793   1.342 -1.2829  0.5950 -0.5450
  312DG     H22 7175   1.966   4.751   1.628  0.1025  2.9551 -1.5393
  312DG     H23 7176   2.064   4.787   1.485  1.5750 -1.8086 -0.2920
  313DG      C1 7177   3.648   0.573   0.392  0.3514 -0.4747 -0.0788
  313DG      C2 7178   4.018   0.572  -0.160 -0.0357 -0.4476 -0.2476
  313DG      H3 7179   3.645   0.682   0.406  0.3935 -0.6813  1.8011
  313DG      H4 7180   3.736   0.527   0.436  0.3254 -0.4000  0.0539
  313DG      H5 7181   3.562   0.530   0.443 -0.0180  2.4128  2.0451
  313DG      H6 7182   4.065   0.649  -0.099 -0.0716  0.5352 -1.3984
  313DG      H7 7183   4.071   0.480  -0.135 -0.8136 -0.3676  1.8635
  313DG      H8 7184   4.039   0.603  -0.263  0.9731 -1.2852 -0.3170
  313DG      O9 7185   3.636   0.537   0.255 -0.5630  0.6246 -0.7039
  313DG     O10 7186   3.881   0.574  -0.128 -0.0502  0.4319 -0.1112
  313DG     C11 7187   3.518   0.582   0.188  0.4063 -0.0122 -0.5128
  313DG     C12 7188   3.809   0.466  -0.177  0.1777 -0.2954  0.5962
  313DG     H13 7189   3.516   0.689   0.210 -0.0481 -0.3181  1.0612
  313DG     H14 7190   3.427   0.540   0.233  0.8731  0.2134  0.6909
  313DG     H15 7191   3.845   0.371  -0.138 -1.6338 -1.5552 -0.6586
  313DG     H16 7192   3.814   0.456  -0.286  2.2046  0.6355  0.5480
  313DG     C17 7193   3.514   0.544   0.038 -0.1259 -0.2421  0.0856
  313DG     C18 7194   3.659   0.485  -0.141 -0.1327 -0.0437 -0.1000
  313DG     O19 7195   3.648   0.507  -0.005  0.6316 -0.6394 -0.2574
  313DG     H20 7196   3.483   0.626  -0.027  1.6786  0.4533  0.0389
  313DG     H21 7197   3.442   0.463   0.028 -1.9674  1.2042  0.8594
  313DG     H22 7198   3.626   0.579  -0.185  1.0652  0.4338 -0.0147
  313DG     H23 7199   3.603   0.397  -0.172 -0.2552 -0.3229  0.8679
  314DG      C1 7200   5.065   0.390   2.682 -0.4516 -0.1487  0.0870
  314DG      C2 7201   5.592   0.909   2.815 -0.0161  0.6320  0.6520
  314DG      H3 7202   5.039   0.323   2.764 -1.4108 -1.2375 -1.0813
  314DG      H4 7203   5.172   0.395   2.661 -0.6940 -0.6371 -1.3506
  314DG      H5 7204   5.012   0.356   2.594  2.9721 -1.1771 -1.7651
  314DG      H6 7205   5.533   0.999   2.830 -1.0734  0.6587 -2.7224
  314DG      H7 7206   5.574   0.850   2.905  2.4731 -2.7566 -0.8593
  314DG      H8 7207   5.698   0.927   2.798 -0.3612  0.4938 -2.2621
  314DG      O9 7208   5.018   0.527   2.695 -0.2651 -0.4915  0.1560
  314DG     O10 7209   5.534   0.831   2.711 -0.0807 -0.0533 -0.2012
  314DG     C11 7210   5.007   0.601   2.565 -0.6834  0.1898 -0.6302
  314DG     C12 7211   5.397   0.804   2.735  0.1902 -0.8089  0.1219
  314DG     H13 7212   4.936   0.683   2.578  0.2129  0.6090  2.4805
  314DG     H14 7213   4.948   0.540   2.498 -0.7091 -1.0161  0.4430
  314DG     H15 7214   5.350   0.902   2.745  0.7940 -0.5799  0.8047
  314DG     H16 7215   5.383   0.729   2.813 -0.8927 -1.9253 -1.0941
  314DG     C17 7216   5.138   0.657   2.517 -0.4535 -0.2278 -0.3862
  314DG     C18 7217   5.336   0.738   2.610 -0.7207 -0.9765 -0.3232
  314DG     O19 7218   5.199   0.712   2.628  0.2305  0.1800  0.0889
  314DG     H20 7219   5.126   0.731   2.438 -0.0961 -0.5619 -0.7597
  314DG     H21 7220   5.204   0.582   2.473  2.3338  0.9018  1.6228
  314DG     H22 7221   5.344   0.820   2.540 -1.4252  1.2745  2.0631
  314DG     H23 7222   5.380   0.641   2.588 -0.4254 -0.7500 -0.7401
  315DG      C1 7223   4.988   0.695   0.103 -0.1113  0.2125 -0.2709
  315DG      C2 7224   4.505   0.658  -0.402 -0.1675  0.8648 -0.4782
  315DG      H3 7225   4.905   0.635   0.139  0.6000 -0.0269  1.0500
  315DG      H4 7226   4.945   0.789   0.068  2.6179  1.9461  0.6527
  315DG      H5 7227   5.048   0.711   0.194  0.8270 -0.3794 -0.7704
  315DG      H6 7228   4.505   0.766  -0.384  0.6723  0.4646  2.2513
  315DG      H7 7229   4.551   0.630  -0.497  0.7997  0.3826  0.1312
  315DG      H8 7230   4.403   0.618  -0.401  0.6074 -1.2563 -1.3006
  315DG      O9 7231   5.057   0.626   0.006  0.0083 -0.5965  0.0069
  315DG     O10 7232   4.578   0.600  -0.298 -0.1853  0.2383 -0.7121
  315DG     C11 7233   4.984   0.609  -0.114  0.1830  0.5305 -0.3164
  315DG     C12 7234   4.597   0.462  -0.314 -0.0745 -0.6014 -0.4149
  315DG     H13 7235   5.065   0.607  -0.187  0.2210 -1.0994 -0.2810
  315DG     H14 7236   4.921   0.693  -0.144 -0.5290  0.6584  1.4137
  315DG     H15 7237   4.626   0.427  -0.413  0.3692  0.6256 -0.7285
  315DG     H16 7238   4.500   0.413  -0.305 -0.7702  0.6249 -0.9992
  315DG     C17 7239   4.902   0.481  -0.110  0.5042  0.2456 -0.0980
  315DG     C18 7240   4.692   0.413  -0.204 -0.1688  0.1470 -0.1557
  315DG     O19 7241   4.806   0.495  -0.213  0.0478 -0.0387  0.1342
  315DG     H20 7242   4.854   0.474  -0.012 -0.7412  2.1410 -0.5314
  315DG     H21 7243   4.966   0.395  -0.131  1.0869  1.0142 -1.6415
  315DG     H22 7244   4.644   0.426  -0.107  0.8411  0.4473  0.3210
  315DG     H23 7245   4.723   0.309  -0.199 -0.0060  0.1550 -0.8762
  316DG      C1 7246   2.731   3.880   5.397  0.6352 -0.2263  0.4350
  316DG      C2 7247   2.589   3.409   4.802  0.4866 -0.4943 -0.0987
  316DG      H3 7248   2.720   3.824   5.489 -1.9926  1.1964  1.0706
  316DG      H4 7249   2.724   3.989   5.406  2.0185 -0.1419  0.8113
  316DG      H5 7250   2.825   3.852   5.348 -0.4759 -0.0756 -1.9189
  316DG      H6 7251   2.605   3.377   4.905 -0.0414  1.0588  0.4948
  316DG      H7 7252   2.501   3.378   4.745 -1.6078  1.6347  1.7579
  316DG      H8 7253   2.680   3.375   4.753  1.6854  0.1565  1.6032
  316DG      O9 7254   2.632   3.842   5.300 -0.5736  0.0656  0.4317
  316DG     O10 7255   2.584   3.549   4.797 -0.5243  0.3837  0.2404
  316DG     C11 7256   2.638   3.915   5.175 -0.6075  0.3272  0.1254
  316DG     C12 7257   2.460   3.603   4.839 -0.3978  0.3835 -0.4336
  316DG     H13 7258   2.738   3.905   5.132 -0.4132 -0.3061  0.7158
  316DG     H14 7259   2.649   4.020   5.201  3.4524  0.4192 -1.3103
  316DG     H15 7260   2.407   3.556   4.922  0.2083  1.3413  0.5262
  316DG     H16 7261   2.394   3.610   4.753  0.9778  0.9549 -1.4865
  316DG     C17 7262   2.526   3.895   5.071  0.6769  0.4052 -0.2020
  316DG     C18 7263   2.491   3.752   4.881 -0.2745  0.1642 -0.1909
  316DG     O19 7264   2.538   3.766   5.014  0.2596  0.4071  0.6216
  316DG     H20 7265   2.538   3.972   4.994  0.2997 -0.8927 -1.6087
  316DG     H21 7266   2.427   3.908   5.114  0.2007  0.8972 -1.4018
  316DG     H22 7267   2.554   3.805   4.810  0.6624 -0.7483 -0.0621
  316DG     H23 7268   2.398   3.808   4.877 -0.4297  0.0085  0.9833
  317DG      C1 7269   0.244   2.463   3.661 -0.0824  0.3416 -0.2144
  317DG      C2 7270   0.587   2.568   3.943  0.5024  0.3434  0.8063
  317DG      H3 7271   0.216   2.477   3.557 -2.0748  1.2873  0.4043
  317DG      H4 7272   0.298   2.372   3.689 -0.6356  0.5198  1.5051
  317DG      H5 7273   0.310   2.549   3.676 -0.5158  0.6327  0.0345
  317DG      H6 7274   0.502   2.504   3.963 -0.7993  0.7727 -2.8086
  317DG      H7 7275   0.597   2.585   3.836  1.2807 -3.6861  0.0968
  317DG      H8 7276   0.674   2.503   3.956 -0.5493 -1.0876  0.8760
  317DG      O9 7277   0.136   2.469   3.752 -0.1449  0.4679  0.0909
  317DG     O10 7278   0.588   2.686   4.027  0.2471  0.1749 -0.4920
  317DG     C11 7279   0.159   2.453   3.894  0.1302  0.9588 -0.3860
  317DG     C12 7280   0.495   2.792   4.002  0.3781 -0.7429 -0.3905
  317DG     H13 7281   0.239   2.385   3.921 -0.0831  1.5990  2.0554
  317DG     H14 7282   0.066   2.406   3.926  0.4825 -0.8382 -1.8113
  317DG     H15 7283   0.508   2.839   3.905  2.2762 -1.4376 -0.5138
  317DG     H16 7284   0.501   2.867   4.081  0.8544 -1.0107 -0.1703
  317DG     C17 7285   0.181   2.592   3.954 -0.1461 -0.1861  0.2984
  317DG     C18 7286   0.354   2.746   4.019  0.6396  0.1746  0.6175
  317DG     O19 7287   0.315   2.640   3.928 -0.2713 -0.7095  0.0209
  317DG     H20 7288   0.182   2.579   4.063  1.2181 -2.4043  0.0823
  317DG     H21 7289   0.104   2.661   3.921  0.5025  0.3124 -0.2074
  317DG     H22 7290   0.347   2.701   4.118  1.7632 -0.5630  0.3778
  317DG     H23 7291   0.278   2.824   4.028 -0.6504 -0.9454 -0.1289
  318DG      C1 7292   3.934   3.478   2.248  0.0819  0.6383 -0.3979
  318DG      C2 7293   4.471   3.223   2.553 -0.0487  0.3570  1.1187
  318DG      H3 7294   3.936   3.464   2.356 -0.4453 -0.6324 -0.5354
  318DG      H4 7295   3.842   3.431   2.214  1.5412 -1.2116 -2.0278
  318DG      H5 7296   3.934   3.581   2.214  0.2593  0.7508 -0.0544
  318DG      H6 7297   4.406   3.136   2.557 -2.0873  1.8142  1.9985
  318DG      H7 7298   4.575   3.193   2.560  0.2779  0.9130 -0.7437
  318DG      H8 7299   4.433   3.302   2.619 -2.3311  0.2864 -0.0196
  318DG      O9 7300   4.043   3.424   2.174 -0.2574  0.3625  0.0111
  318DG     O10 7301   4.448   3.277   2.424  0.2445 -0.2720 -0.0553
  318DG     C11 7302   4.068   3.286   2.204  0.0971  0.1329 -0.2361
  318DG     C12 7303   4.476   3.197   2.315  0.4847 -0.2030  0.1769
  318DG     H13 7304   3.986   3.221   2.174  0.8681  0.4089 -3.2386
  318DG     H14 7305   4.071   3.292   2.313  0.6599  2.5176 -0.3301
  318DG     H15 7306   4.423   3.103   2.327 -2.1142  1.0006 -1.1153
  318DG     H16 7307   4.584   3.185   2.319  0.7412  1.6652 -0.2709
  318DG     C17 7308   4.209   3.240   2.150  0.0015  0.1078  0.0182
  318DG     C18 7309   4.439   3.281   2.194  0.6458  0.7957  0.6421
  318DG     O19 7310   4.304   3.331   2.211 -0.1553 -0.0754 -0.7618
  318DG     H20 7311   4.222   3.257   2.043  3.0806  1.5767  0.5286
  318DG     H21 7312   4.236   3.135   2.166  0.2496 -0.2598 -2.4213
  318DG     H22 7313   4.510   3.364   2.188  0.5213  0.8057 -1.4569
  318DG     H23 7314   4.449   3.220   2.104 -0.8591 -0.3638  1.2216
  319DG      C1 7315   0.613   1.378   4.253  0.0453 -0.3982  0.0492
  319DG      C2 7316   0.341   1.685   4.825  0.1218 -0.4015 -0.1022
  319DG      H3 7317   0.536   1.414   4.184  1.1465 -1.2320 -1.6763
  319DG      H4 7318   0.651   1.281   4.221 -1.2761 -1.3570  1.2431
  319DG      H5 7319   0.697   1.446   4.254 -0.5263  0.3192  0.2387
  319DG      H6 7320   0.380   1.735   4.914 -1.6639 -0.2193  0.6090
  319DG      H7 7321   0.285   1.756   4.765  1.2557 -0.9374 -1.8668
  319DG      H8 7322   0.268   1.606   4.844  0.7208 -0.6144  1.4721
  319DG      O9 7323   0.573   1.369   4.386  0.0005 -0.1388 -0.3298
  319DG     O10 7324   0.456   1.650   4.746  0.0124 -0.2586  0.0154
  319DG     C11 7325   0.449   1.297   4.391 -0.1474 -0.1116  0.2689
  319DG     C12 7326   0.519   1.530   4.784 -0.4507 -0.0968  0.9781
  319DG     H13 7327   0.446   1.209   4.327  0.4084  0.7118 -0.9151
  319DG     H14 7328   0.370   1.357   4.347  1.5912  1.7643 -0.4485
  319DG     H15 7329   0.483   1.491   4.879  0.0795 -2.8055  0.1642
  319DG     H16 7330   0.622   1.551   4.815  0.1020  0.1566 -0.8849
  319DG     C17 7331   0.405   1.264   4.538 -1.0256  0.1564 -0.2242
  319DG     C18 7332   0.530   1.422   4.675  1.2881  0.2174 -0.3219
  319DG     O19 7333   0.404   1.381   4.626  0.0376  0.3510  0.3901
  319DG     H20 7334   0.457   1.178   4.582 -0.3601  1.9172  2.6668
  319DG     H21 7335   0.301   1.231   4.533 -0.0145 -3.3979 -1.5903
  319DG     H22 7336   0.591   1.467   4.596 -0.8369  0.1067 -2.0959
  319DG     H23 7337   0.583   1.332   4.705 -0.5546 -0.3873  1.2906
  320DG      C1 7338   4.211   4.087   1.794 -0.5374 -0.4869 -0.2690
  320DG      C2 7339   4.568   4.180   1.270  0.4157  0.1652  0.7028
  320DG      H3 7340   4.133   4.046   1.857 -0.7071  1.5037  0.8823
  320DG      H4 7341   4.193   4.194   1.793  0.6439 -0.2397  1.2855
  320DG      H5 7342   4.310   4.077   1.840  1.6855 -1.0450 -4.6449
  320DG      H6 7343   4.664   4.135   1.299  1.0317  0.3621 -0.9197
  320DG      H7 7344   4.577   4.164   1.163  1.2374 -0.6580  0.8784
  320DG      H8 7345   4.563   4.284   1.303  0.3179  0.4656 -0.2452
  320DG      O9 7346   4.208   4.031   1.659 -0.4583  0.4595 -0.2928
  320DG     O10 7347   4.450   4.107   1.299 -0.2442 -0.2175 -0.3586
  320DG     C11 7348   4.236   3.892   1.678  0.1029  0.1109  0.4159
  320DG     C12 7349   4.464   3.970   1.287  0.1276  0.3521 -0.4177
  320DG     H13 7350   4.173   3.843   1.752  0.2507  1.7813  1.7077
  320DG     H14 7351   4.337   3.874   1.717  1.0351  0.6017 -1.6622
  320DG     H15 7352   4.547   3.937   1.349  0.5655  0.7120 -0.8069
  320DG     H16 7353   4.489   3.946   1.183  1.1128  1.9406 -0.5695
  320DG     C17 7354   4.235   3.830   1.538 -0.4268  0.1171  0.5005
  320DG     C18 7355   4.330   3.902   1.331 -0.5826 -0.5447 -0.4932
  320DG     O19 7356   4.325   3.912   1.472  0.4377 -0.8102 -0.0972
  320DG     H20 7357   4.136   3.841   1.493 -0.0464 -1.2549 -0.7537
  320DG     H21 7358   4.279   3.730   1.541  2.4239  1.2696  0.5356
  320DG     H22 7359   4.246   3.963   1.299 -1.1129 -0.6057  0.7143
  320DG     H23 7360   4.327   3.801   1.290 -0.5409 -0.2878 -1.1428
  321DG      C1 7361   3.130   3.431   4.506 -0.4237 -0.8147  0.3002
  321DG      C2 7362   3.807   3.566   4.644  0.5227 -0.5859 -0.1064
  321DG      H3 7363   3.072   3.426   4.599  0.1203 -0.0887  0.6822
  321DG      H4 7364   3.148   3.329   4.470 -1.1178 -0.1660 -2.0656
  321DG      H5 7365   3.065   3.482   4.434 -1.1786  0.9007  2.1013
  321DG      H6 7366   3.803   3.539   4.749  0.2266  1.1984  0.3794
  321DG      H7 7367   3.852   3.490   4.581  0.7989  0.3550 -1.0842
  321DG      H8 7368   3.885   3.643   4.642  0.8803 -0.9524 -0.2648
  321DG      O9 7369   3.242   3.512   4.527  0.7292  0.8115  0.6482
  321DG     O10 7370   3.681   3.626   4.597 -0.3347  0.5861 -0.0633
  321DG     C11 7371   3.202   3.639   4.579  0.0690 -0.1432 -0.4734
  321DG     C12 7372   3.629   3.725   4.682 -0.1468  0.0963  0.2880
  321DG     H13 7373   3.140   3.629   4.668  0.5002  1.6268  0.0562
  321DG     H14 7374   3.158   3.705   4.505  1.2984 -0.0056 -1.1180
  321DG     H15 7375   3.718   3.770   4.727  0.4921 -0.9688  0.0969
  321DG     H16 7376   3.575   3.682   4.766 -0.4132 -0.1628 -0.0147
  321DG     C17 7377   3.318   3.719   4.637 -0.2022  0.3300  0.1727
  321DG     C18 7378   3.536   3.818   4.606  0.7824  0.3555  0.6648
  321DG     O19 7379   3.421   3.754   4.548 -0.8563  0.3018  0.6269
  321DG     H20 7380   3.364   3.662   4.718 -0.4523  0.5279  0.4552
  321DG     H21 7381   3.277   3.814   4.672 -0.6349  1.1032 -2.2545
  321DG     H22 7382   3.511   3.911   4.657 -0.2337  0.0305  0.7868
  321DG     H23 7383   3.596   3.859   4.525  2.5244 -0.0263  1.7085
  322DG      C1 7384   4.989   1.046   5.503 -0.8193  0.7987  0.1063
  322DG      C2 7385   5.668   0.691   5.044  1.0048 -0.8113  0.0127
  322DG      H3 7386   4.953   0.950   5.464  1.8777  0.0870 -0.8417
  322DG      H4 7387   4.954   1.129   5.442  2.2198  3.2254  1.3814
  322DG      H5 7388   4.955   1.056   5.606  0.9408 -2.2425  1.1167
  322DG      H6 7389   5.754   0.726   4.988  1.7137 -1.1352  0.8742
  322DG      H7 7390   5.708   0.664   5.142  1.0523 -4.9508 -0.9784
  322DG      H8 7391   5.626   0.602   4.997 -2.2685 -0.3300  1.7001
  322DG      O9 7392   5.132   1.022   5.511 -0.3054 -1.0055  0.3094
  322DG     O10 7393   5.560   0.788   5.055  0.0982 -0.0715  0.1354
  322DG     C11 7394   5.192   0.988   5.380 -0.4075 -0.0139  1.1313
  322DG     C12 7395   5.611   0.910   5.113  0.0048 -0.2605 -0.0952
  322DG     H13 7396   5.167   1.071   5.314  1.6843 -0.1452  0.0622
  322DG     H14 7397   5.144   0.900   5.338 -2.6719  1.6128  0.1000
  322DG     H15 7398   5.595   0.991   5.042  3.7824  0.9648  0.2288
  322DG     H16 7399   5.719   0.909   5.127  0.0046  1.0926  0.1584
  322DG     C17 7400   5.346   0.980   5.383 -0.1174  0.2771 -0.0797
  322DG     C18 7401   5.539   0.938   5.250  0.0077  0.0013  0.1278
  322DG     O19 7402   5.392   0.939   5.253  0.4999 -0.2206 -0.1257
  322DG     H20 7403   5.378   0.911   5.461  0.8618  1.3557  0.5066
  322DG     H21 7404   5.389   1.076   5.411  0.7304 -0.1826  0.2265
  322DG     H22 7405   5.572   0.867   5.325  0.1834 -0.2371 -0.1767
  322DG     H23 7406   5.583   1.030   5.290  0.4073  0.0401 -0.3985
  323DG      C1 7407   5.208   4.689   3.671 -0.0585 -0.1601 -0.2122
  323DG      C2 7408   5.067   5.109   4.183  0.3355 -0.2075 -0.4985
  323DG      H3 7409   5.116   4.699   3.613 -1.0226 -1.3240  1.0330
  323DG      H4 7410   5.187   4.628   3.759 -0.3698 -1.9306 -1.4422
  323DG      H5 7411   5.286   4.639   3.614 -0.6474  0.5646 -1.6994
  323DG      H6 7412   5.073   5.011   4.230  1.8594  0.0284 -0.1666
  323DG      H7 7413   5.121   5.187   4.236  1.0453 -1.4856  0.7333
  323DG      H8 7414   4.962   5.138   4.181 -0.0061 -1.0634  1.6667
  323DG      O9 7415   5.249   4.812   3.729 -0.1962 -0.2289 -0.0362
  323DG     O10 7416   5.129   5.096   4.058 -0.0440 -0.4053 -0.1211
  323DG     C11 7417   5.219   4.920   3.643  0.0213  0.0756 -0.7718
  323DG     C12 7418   5.072   5.188   3.960  0.2059  0.5374 -0.2380
  323DG     H13 7419   5.112   4.939   3.636 -0.0786 -0.7247 -1.6653
  323DG     H14 7420   5.261   4.889   3.547 -1.1438 -1.6006 -0.7822
  323DG     H15 7421   5.128   5.280   3.978 -1.3938  1.1017  2.4348
  323DG     H16 7422   4.963   5.192   3.949 -0.0279 -2.0019  0.5807
  323DG     C17 7423   5.287   5.053   3.681  0.1079  0.4502 -1.1033
  323DG     C18 7424   5.114   5.134   3.817 -0.2862  0.0252 -0.7593
  323DG     O19 7425   5.248   5.087   3.811 -0.2123  0.1257 -0.4059
  323DG     H20 7426   5.270   5.116   3.593 -0.3458 -1.1852 -2.2225
  323DG     H21 7427   5.393   5.027   3.685  0.3683  1.6334  0.6617
  323DG     H22 7428   5.043   5.052   3.806  0.0310  0.0322 -3.6550
  323DG     H23 7429   5.095   5.208   3.739 -0.8436  1.2779  0.5340
  324DG      C1 7430   5.286   5.292   3.016 -0.6591 -0.0974 -0.6675
  324DG      C2 7431   5.788   5.268   2.357  0.0274  0.5822  0.2735
  324DG      H3 7432   5.386   5.294   3.059 -0.5044 -1.4892 -0.9369
  324DG      H4 7433   5.238   5.207   3.064 -2.1512  0.3423 -1.3298
  324DG      H5 7434   5.228   5.382   3.039  3.5545  2.2071  2.5222
  324DG      H6 7435   5.770   5.245   2.252 -1.4058  0.2361  0.5741
  324DG      H7 7436   5.799   5.376   2.363 -1.0245  0.9066 -2.3635
  324DG      H8 7437   5.876   5.210   2.383 -0.6218 -0.1856  0.8009
  324DG      O9 7438   5.282   5.255   2.877  0.1448 -0.2832  0.8305
  324DG     O10 7439   5.683   5.224   2.439 -0.1481  0.3610 -0.1327
  324DG     C11 7440   5.363   5.147   2.846  0.3856 -0.6630  0.3353
  324DG     C12 7441   5.561   5.295   2.430  0.2807 -0.1614  0.4766
  324DG     H13 7442   5.326   5.058   2.896 -1.4774  0.7742  1.6709
  324DG     H14 7443   5.468   5.158   2.874 -0.2143  3.6342  1.6745
  324DG     H15 7444   5.546   5.323   2.326  1.1915 -0.8170  0.1533
  324DG     H16 7445   5.576   5.382   2.494  0.1003 -0.5449  1.0447
  324DG     C17 7446   5.372   5.126   2.689 -0.1703  0.1743 -0.3600
  324DG     C18 7447   5.436   5.225   2.485 -0.3512 -0.1515  0.2127
  324DG     O19 7448   5.449   5.230   2.631  0.4693 -0.3841 -0.0540
  324DG     H20 7449   5.269   5.124   2.653  0.4063 -1.6008 -2.0596
  324DG     H21 7450   5.418   5.028   2.676 -3.6868 -1.5303 -1.0150
  324DG     H22 7451   5.347   5.275   2.446 -0.2279  0.6130  0.8853
  324DG     H23 7452   5.449   5.126   2.442  2.4085  0.0308  0.4527
  325DG      C1 7453   2.150   0.953   1.113  0.4893 -0.3139 -0.3826
  325DG      C2 7454   1.786   1.157   1.606 -0.1467  0.2706  0.5300
  325DG      H3 7455   2.190   1.049   1.083  1.0284  0.0822  1.4441
  325DG      H4 7456   2.179   0.897   1.024  0.3196  0.1089 -0.7041
  325DG      H5 7457   2.216   0.929   1.197  0.5753 -1.1398 -0.6719
  325DG      H6 7458   1.834   1.096   1.682  0.2290 -0.7784 -0.5207
  325DG      H7 7459   1.837   1.254   1.608 -1.3921  0.9663 -0.3453
  325DG      H8 7460   1.685   1.176   1.641 -0.5526 -1.8434  0.6269
  325DG      O9 7461   2.007   0.941   1.151  0.2853 -0.1930  0.1990
  325DG     O10 7462   1.772   1.095   1.475 -0.5938  0.1833 -0.3382
  325DG     C11 7463   1.914   0.950   1.049 -0.0203  0.2698  0.1649
  325DG     C12 7464   1.671   1.166   1.405 -0.0383  0.1195 -0.6331
  325DG     H13 7465   1.932   0.866   0.983  0.4408  1.2457 -0.9980
  325DG     H14 7466   1.936   1.039   0.990 -1.1468  0.1338 -0.4877
  325DG     H15 7467   1.683   1.274   1.399 -2.3072  0.5022  0.8311
  325DG     H16 7468   1.577   1.154   1.459  1.5499 -0.2601  2.2711
  325DG     C17 7469   1.771   0.970   1.101 -0.0673  0.1411 -0.1536
  325DG     C18 7470   1.657   1.105   1.269 -0.2388  0.2542 -0.0635
  325DG     O19 7471   1.779   1.078   1.201  0.4495  0.5013  0.6225
  325DG     H20 7472   1.738   0.880   1.153  0.3393  0.3701  0.5182
  325DG     H21 7473   1.698   0.999   1.026 -3.8894 -1.1796  2.7886
  325DG     H22 7474   1.603   1.011   1.273  1.6228 -0.9146 -1.0872
  325DG     H23 7475   1.602   1.175   1.205  1.0898  1.6325  0.2570
  326DG      C1 7476   1.977   3.149   2.508  0.3644  0.1865 -0.3670
  326DG      C2 7477   1.823   2.639   2.640 -0.2628 -0.5829 -0.1154
  326DG      H3 7478   1.945   3.101   2.415 -0.7250  0.3637 -0.1035
  326DG      H4 7479   2.069   3.203   2.488  0.2560  0.0540 -1.2840
  326DG      H5 7480   1.890   3.205   2.543 -0.3498 -1.5111  0.6820
  326DG      H6 7481   1.714   2.631   2.636 -0.7006  3.2539  0.0464
  326DG      H7 7482   1.840   2.746   2.628 -0.9010 -0.4126  0.4466
  326DG      H8 7483   1.868   2.585   2.556  0.7425  0.4174 -0.2420
  326DG      O9 7484   1.997   3.045   2.603 -0.3832  0.1944 -0.7982
  326DG     O10 7485   1.884   2.600   2.761 -0.1095  0.0137 -0.1974
  326DG     C11 7486   2.023   3.101   2.734 -0.0090  0.5390  0.5260
  326DG     C12 7487   1.845   2.672   2.881  0.2731 -0.7993  0.2623
  326DG     H13 7488   1.940   3.168   2.758 -0.5139 -0.3329  1.2733
  326DG     H14 7489   2.120   3.150   2.736  1.0360 -1.4674  1.3874
  326DG     H15 7490   1.856   2.607   2.968 -0.9464  1.2802  2.0598
  326DG     H16 7491   1.741   2.702   2.881  0.7866  1.3866 -2.5362
  326DG     C17 7492   2.040   2.991   2.833 -0.0708  0.0637 -0.0299
  326DG     C18 7493   1.942   2.785   2.923  0.6962 -0.2849  0.5259
  326DG     O19 7494   1.946   2.878   2.814 -0.6242 -0.3938 -0.1415
  326DG     H20 7495   2.025   3.036   2.931  1.9687 -1.1632  0.8952
  326DG     H21 7496   2.136   2.944   2.814  1.3703  2.1715  1.6098
  326DG     H22 7497   1.899   2.840   3.008  0.5968  0.4122  0.0356
  326DG     H23 7498   2.043   2.760   2.954 -0.0613 -0.6432  2.9203
  327DG      C1 7499   3.226   4.000   3.167 -0.1306 -0.5297 -0.3607
  327DG      C2 7500   3.439   3.704   3.428 -0.7249 -0.2963  0.9262
  327DG      H3 7501   3.133   3.958   3.204 -1.1699  1.2247 -0.8747
  327DG      H4 7502   3.298   3.918   3.162 -0.4471 -0.8896  0.6927
  327DG      H5 7503   3.221   4.043   3.067  1.1384 -0.6457 -0.4978
  327DG      H6 7504   3.515   3.635   3.467 -1.3267 -1.3569  0.2832
  327DG      H7 7505   3.420   3.775   3.508  1.1992  0.1547  1.0346
  327DG      H8 7506   3.348   3.647   3.407 -0.5674 -0.2084 -0.0637
  327DG      O9 7507   3.251   4.103   3.261 -0.8610  0.0943 -0.0551
  327DG     O10 7508   3.486   3.785   3.321  0.1538 -0.2612  0.4805
  327DG     C11 7509   3.350   4.200   3.222  0.0355  0.0797  0.1598
  327DG     C12 7510   3.585   3.880   3.361  0.2082 -0.0079  0.6675
  327DG     H13 7511   3.329   4.283   3.289 -0.1408  0.5497 -0.4686
  327DG     H14 7512   3.339   4.228   3.118 -0.2615 -0.8541 -0.0760
  327DG     H15 7513   3.670   3.828   3.405 -0.1904 -1.5833 -0.3377
  327DG     H16 7514   3.536   3.947   3.432 -1.7399 -0.0117 -0.6066
  327DG     C17 7515   3.491   4.152   3.245  0.4181  0.3815  0.2527
  327DG     C18 7516   3.629   3.949   3.230 -0.6299  0.0139 -0.3790
  327DG     O19 7517   3.519   4.028   3.181 -0.1722 -0.2279  0.2033
  327DG     H20 7518   3.502   4.143   3.353  1.3519  0.0059  0.1363
  327DG     H21 7519   3.560   4.226   3.204  1.5114 -0.8150 -0.0927
  327DG     H22 7520   3.713   4.019   3.228  1.0730 -1.9150 -0.2957
  327DG     H23 7521   3.649   3.869   3.158 -1.4489 -2.5847  2.1357
  328DG      C1 7522   3.242   1.748   5.147  0.4497  0.3260  0.1582
  328DG      C2 7523   2.949   1.889   5.645  0.0227  0.1120  0.3162
  328DG      H3 7524   3.215   1.698   5.240 -0.2562 -0.0486 -0.2371
  328DG      H4 7525   3.223   1.852   5.172 -1.6893 -0.5960  2.8257
  328DG      H5 7526   3.347   1.734   5.122  0.4254 -1.1457  0.7974
  328DG      H6 7527   3.047   1.873   5.689 -0.3738 -1.2020  0.7766
  328DG      H7 7528   2.931   1.996   5.643 -0.8462 -0.0164  0.7641
  328DG      H8 7529   2.875   1.842   5.711  0.6493 -2.9628 -0.9836
  328DG      O9 7530   3.167   1.702   5.034 -0.3433 -0.2462  0.5534
  328DG     O10 7531   2.933   1.830   5.516  0.2121 -0.3205 -0.6067
  328DG     C11 7532   3.036   1.749   5.016  0.2535  0.1565  0.1569
  328DG     C12 7533   2.811   1.844   5.440 -0.1044  0.1464 -0.0538
  328DG     H13 7534   3.006   1.736   4.912 -1.0717  3.5104 -0.0282
  328DG     H14 7535   3.031   1.858   5.025 -0.8551  0.1584 -0.2902
  328DG     H15 7536   2.780   1.945   5.414 -2.1095  0.2695  2.3358
  328DG     H16 7537   2.738   1.801   5.509  1.0854 -0.5928  0.7869
  328DG     C17 7538   2.936   1.692   5.114 -0.0442  0.2581 -0.0594
  328DG     C18 7539   2.813   1.745   5.315 -0.3740  0.0336  0.3008
  328DG     O19 7540   2.911   1.784   5.217 -0.5646 -0.4965 -0.0093
  328DG     H20 7541   2.975   1.599   5.155 -1.1665 -1.8368 -3.3326
  328DG     H21 7542   2.840   1.657   5.076 -0.2368  0.1807  0.4937
  328DG     H22 7543   2.836   1.644   5.349  1.7292 -0.4072 -2.1441
  328DG     H23 7544   2.718   1.737   5.261 -1.0578 -0.6615  1.5566
  329DG      C1 7545   4.212   2.793   2.266 -0.6907 -0.9166 -0.6914
  329DG      C2 7546   3.939   2.054   2.550 -0.0687 -0.1522  0.7777
  329DG      H3 7547   4.315   2.777   2.295 -1.1173 -0.1892  1.4364
  329DG      H4 7548   4.187   2.899   2.278  0.5008 -0.8718  2.0972
  329DG      H5 7549   4.204   2.759   2.162 -1.6904 -4.1472  0.3141
  329DG      H6 7550   4.042   2.036   2.519 -0.8312  1.3622 -3.2711
  329DG      H7 7551   3.905   1.974   2.617 -0.1380 -0.5030  0.3275
  329DG      H8 7552   3.872   2.031   2.467  1.0735  1.0369 -0.5243
  329DG      O9 7553   4.124   2.716   2.345 -0.1239 -0.5303  0.0331
  329DG     O10 7554   3.931   2.192   2.588  0.0072 -0.3438 -0.1837
  329DG     C11 7555   4.127   2.745   2.487  0.1290  0.3950 -0.0406
  329DG     C12 7556   3.990   2.288   2.506 -0.1214  0.8578  0.2210
  329DG     H13 7557   4.097   2.847   2.511 -0.8113 -0.3449  2.2050
  329DG     H14 7558   4.227   2.727   2.524  0.6032  2.1814 -0.3384
  329DG     H15 7559   3.954   2.287   2.403  2.7822  0.8493 -0.8832
  329DG     H16 7560   4.097   2.272   2.490  0.0519 -0.0386  2.0256
  329DG     C17 7561   4.028   2.649   2.542  0.4191  0.1849  0.5168
  329DG     C18 7562   3.949   2.425   2.561  1.2390  0.2713  0.4647
  329DG     O19 7563   4.040   2.516   2.498 -0.3674 -0.3419 -0.0969
  329DG     H20 7564   3.928   2.688   2.523 -0.1635 -0.9425  1.1915
  329DG     H21 7565   4.032   2.663   2.651  0.7698 -0.5273  0.6035
  329DG     H22 7566   3.846   2.450   2.537  0.9676 -1.9345 -0.9285
  329DG     H23 7567   3.945   2.438   2.669 -1.9176 -0.7850  0.5659
  330DG      C1 7568   3.086   0.227   2.414  0.1386  0.5945 -0.0251
  330DG      C2 7569   3.866   0.065   2.338  0.0996 -0.2132 -0.8417
  330DG      H3 7570   3.007   0.261   2.347  0.7518  1.3219 -0.4014
  330DG      H4 7571   3.044   0.235   2.514 -0.5191  3.0178 -0.4187
  330DG      H5 7572   3.112   0.128   2.377  0.1389  1.2986 -2.0614
  330DG      H6 7573   3.867   0.039   2.444  3.7681  0.8849 -0.4656
  330DG      H7 7574   3.866  -0.025   2.276  0.8437 -0.3225 -0.6860
  330DG      H8 7575   3.959   0.121   2.325  1.7755 -2.5293  0.4544
  330DG      O9 7576   3.211   0.303   2.415  0.1232 -0.0084  0.1040
  330DG     O10 7577   3.761   0.151   2.306 -0.4354 -0.0901  0.0652
  330DG     C11 7578   3.275   0.301   2.285  0.2318 -0.0477 -0.5023
  330DG     C12 7579   3.757   0.286   2.356  0.4295  0.2345 -0.4354
  330DG     H13 7580   3.208   0.348   2.213 -0.6450 -0.2555  0.1517
  330DG     H14 7581   3.290   0.199   2.248 -0.8164 -0.8888  1.2329
  330DG     H15 7582   3.854   0.334   2.343  0.3700  1.5912  3.0958
  330DG     H16 7583   3.746   0.280   2.464  1.4716 -0.9149 -0.3687
  330DG     C17 7584   3.408   0.376   2.284  0.2416 -0.3756 -0.2620
  330DG     C18 7585   3.635   0.374   2.318  0.4538  0.0339  0.6109
  330DG     O19 7586   3.511   0.308   2.346  0.7981 -0.4601  0.6549
  330DG     H20 7587   3.392   0.473   2.330 -1.2533 -0.2269 -1.0369
  330DG     H21 7588   3.441   0.386   2.181 -0.1624 -2.6976 -0.6884
  330DG     H22 7589   3.642   0.475   2.357 -2.0546  0.6919 -0.4666
  330DG     H23 7590   3.646   0.395   2.212 -4.3496  0.6049  0.0025
  331DG      C1 7591   5.177   2.189   2.141 -0.2408 -0.4329  0.0312
  331DG      C2 7592   5.270   1.821   1.647 -0.4492 -0.5597  0.3262
  331DG      H3 7593   5.103   2.212   2.217 -0.1020 -0.0451  0.0496
  331DG      H4 7594   5.247   2.273   2.137 -0.8821  0.0646 -1.4139
  331DG      H5 7595   5.223   2.096   2.175  2.7468  0.2773 -1.6416
  331DG      H6 7596   5.247   1.760   1.560  0.2807  0.3674 -0.5347
  331DG      H7 7597   5.371   1.861   1.652 -0.5358 -0.4277  1.5586
  331DG      H8 7598   5.247   1.763   1.737  1.5614  0.4645  1.5778
  331DG      O9 7599   5.134   2.166   2.009  0.0855  0.1746  0.2889
  331DG     O10 7600   5.184   1.927   1.662  0.9328 -0.3897  0.0034
  331DG     C11 7601   5.062   2.272   1.952 -0.1025  0.6424  0.3047
  331DG     C12 7602   5.184   2.029   1.566 -0.0566 -0.3160  0.3644
  331DG     H13 7603   5.120   2.362   1.932 -1.3025  1.2074 -0.7136
  331DG     H14 7604   4.982   2.310   2.014  0.6754  0.5307  1.4117
  331DG     H15 7605   5.158   1.985   1.470 -0.7084  0.3608  0.2219
  331DG     H16 7606   5.280   2.078   1.559 -0.0510 -0.4584 -0.6065
  331DG     C17 7607   5.010   2.218   1.815 -0.4659 -0.2234 -0.4860
  331DG     C18 7608   5.076   2.132   1.604  0.3731  0.4174  0.3696
  331DG     O19 7609   5.117   2.168   1.734 -0.1874 -0.4338 -0.1652
  331DG     H20 7610   4.956   2.298   1.765 -1.1141  0.2754  0.9477
  331DG     H21 7611   4.930   2.147   1.836 -1.9038  1.4797 -0.0427
  331DG     H22 7612   5.057   2.213   1.533 -2.6844 -1.5590 -1.2950
  331DG     H23 7613   4.987   2.069   1.604  0.0303  0.8696 -0.8055
  332DG      C1 7614   1.463   4.439   3.865 -0.5422  0.6133 -0.0808
  332DG      C2 7615   2.033   4.333   3.682  0.1061 -0.5878 -0.5355
  332DG      H3 7616   1.399   4.521   3.832  0.1571  0.5743 -1.6103
  332DG      H4 7617   1.432   4.375   3.948 -0.6002  0.1920 -0.4266
  332DG      H5 7618   1.476   4.380   3.774  2.0922 -0.7524  1.0656
  332DG      H6 7619   2.139   4.340   3.657  0.3014 -1.4369  0.0302
  332DG      H7 7620   1.998   4.236   3.646 -1.1507  0.8008 -3.3458
  332DG      H8 7621   1.982   4.392   3.606  0.1497  0.8020  0.4695
  332DG      O9 7622   1.595   4.483   3.887  0.4460  0.0488 -0.5017
  332DG     O10 7623   1.983   4.355   3.812 -0.1573 -0.1954 -0.6851
  332DG     C11 7624   1.605   4.554   4.012 -0.3983 -0.1684 -0.4990
  332DG     C12 7625   2.023   4.478   3.856 -0.2617 -0.2181 -0.5187
  332DG     H13 7626   1.586   4.494   4.101 -0.3970  0.0325 -0.3619
  332DG     H14 7627   1.533   4.635   4.026 -0.1340 -0.1217  0.7479
  332DG     H15 7628   1.993   4.560   3.791 -1.4353 -0.2000  0.0097
  332DG     H16 7629   2.131   4.487   3.867 -0.3528  1.4096 -0.6000
  332DG     C17 7630   1.752   4.606   4.024  0.9924 -0.2407  0.4367
  332DG     C18 7631   1.971   4.520   3.990  0.9339  0.5535 -0.6393
  332DG     O19 7632   1.834   4.498   3.990 -0.3636 -0.7458 -0.6489
  332DG     H20 7633   1.770   4.640   4.126  0.6869 -0.5625  0.6000
  332DG     H21 7634   1.760   4.696   3.963  1.3838 -1.4129 -1.3069
  332DG     H22 7635   2.018   4.458   4.067 -2.5219 -0.1916  1.0565
  332DG     H23 7636   2.003   4.624   3.994 -0.1018  0.8892 -0.9594
  333DG      C1 7637   0.147   0.441   2.008 -0.2610 -0.2660  0.5804
  333DG      C2 7638   0.626  -0.188   2.101 -0.0385 -0.4820  0.0524
  333DG      H3 7639   0.077   0.497   2.071  2.0024  1.3036  1.8264
  333DG      H4 7640   0.113   0.339   1.992 -0.3558 -0.5452  2.3804
  333DG      H5 7641   0.145   0.489   1.910  1.1311 -1.3452  0.0001
  333DG      H6 7642   0.563  -0.230   2.023 -1.1363  1.4211 -0.1388
  333DG      H7 7643   0.732  -0.207   2.083  0.5255  1.5740  0.9184
  333DG      H8 7644   0.602  -0.245   2.191  1.7817 -1.2393  0.1124
  333DG      O9 7645   0.277   0.445   2.052 -0.2112  0.3809  0.4247
  333DG     O10 7646   0.588  -0.054   2.121  1.1426 -0.2868  0.4614
  333DG     C11 7647   0.355   0.328   2.051 -0.1157  0.4540 -0.8098
  333DG     C12 7648   0.644   0.018   2.227  0.5168  0.2647 -0.7585
  333DG     H13 7649   0.349   0.292   1.948  0.0845  0.7452 -0.9243
  333DG     H14 7650   0.307   0.251   2.112  1.0470 -0.3927 -0.9265
  333DG     H15 7651   0.749   0.043   2.214  0.6178  0.0539 -0.3857
  333DG     H16 7652   0.649  -0.029   2.325  2.3237  0.7857 -0.5687
  333DG     C17 7653   0.500   0.341   2.093 -0.6820 -1.0575  0.3104
  333DG     C18 7654   0.568   0.151   2.228 -0.4494 -0.1590 -0.0427
  333DG     O19 7655   0.575   0.222   2.101  0.1307  0.1619 -0.2303
  333DG     H20 7656   0.509   0.388   2.191 -1.0293 -1.0380  0.3350
  333DG     H21 7657   0.565   0.400   2.028 -0.2131 -2.4321 -0.5051
  333DG     H22 7658   0.464   0.129   2.253 -0.8104  1.3904 -0.0497
  333DG     H23 7659   0.609   0.211   2.310 -0.9745 -2.0285  1.6666
  334DG      C1 7660   0.612   0.727   2.182 -0.6961 -0.0250 -0.6515
  334DG      C2 7661   0.400   0.275   1.602 -0.3289 -0.5555  0.4026
  334DG      H3 7662   0.720   0.740   2.178 -0.7559  0.9951  0.4708
  334DG      H4 7663   0.603   0.621   2.205  1.6580 -0.2803 -0.6705
  334DG      H5 7664   0.579   0.784   2.269 -0.9647  1.2647 -1.5743
  334DG      H6 7665   0.419   0.280   1.495 -1.1110  2.1907  0.3053
  334DG      H7 7666   0.488   0.234   1.652 -0.6397 -0.3765  1.1080
  334DG      H8 7667   0.312   0.213   1.617 -0.7241 -0.8072 -2.4400
  334DG      O9 7668   0.556   0.765   2.063 -0.6952 -0.2057 -0.4719
  334DG     O10 7669   0.377   0.411   1.655  0.4948  0.2537  0.3339
  334DG     C11 7670   0.418   0.749   2.052 -0.3207 -0.4147  0.7928
  334DG     C12 7671   0.497   0.477   1.671 -0.0899  0.2508 -0.4009
  334DG     H13 7672   0.366   0.836   2.094  0.0136  1.4716 -2.3526
  334DG     H14 7673   0.381   0.661   2.104 -3.1907  0.1758 -0.0517
  334DG     H15 7674   0.539   0.478   1.571 -2.4078  0.0044 -1.4471
  334DG     H16 7675   0.558   0.413   1.735  0.1910  0.4557 -0.4615
  334DG     C17 7676   0.392   0.742   1.902 -0.5304 -0.3832  0.2103
  334DG     C18 7677   0.482   0.624   1.713 -0.4408 -0.1601  0.0764
  334DG     O19 7678   0.457   0.624   1.855 -0.7578  0.1284  0.0675
  334DG     H20 7679   0.431   0.832   1.855 -1.5873  1.4648  2.6540
  334DG     H21 7680   0.285   0.723   1.885 -0.7749  0.7087  0.4841
  334DG     H22 7681   0.570   0.680   1.683 -0.3591 -0.8481 -1.0297
  334DG     H23 7682   0.398   0.675   1.665 -0.9035  1.2575  2.2826
  335DG      C1 7683   4.188   4.235   0.744 -0.1162 -0.2085  0.2701
  335DG      C2 7684   4.593   4.115   0.101  0.1340  0.5668 -0.1524
  335DG      H3 7685   4.081   4.225   0.726 -0.2007  0.2742  0.4941
  335DG      H4 7686   4.189   4.255   0.851 -0.8306 -0.2316  0.2845
  335DG      H5 7687   4.233   4.135   0.739  3.3671  1.2728 -2.3298
  335DG      H6 7688   4.532   4.052   0.165 -0.3603  0.8461 -0.3477
  335DG      H7 7689   4.535   4.170   0.027 -1.3055 -1.8973 -0.9636
  335DG      H8 7690   4.652   4.042   0.045 -1.4037 -0.6728 -0.2121
  335DG      O9 7691   4.263   4.326   0.667 -0.1303 -0.1197 -0.6311
  335DG     O10 7692   4.677   4.209   0.173  0.0824  0.5768  0.3501
  335DG     C11 7693   4.404   4.323   0.702 -0.2941 -0.8483  0.2633
  335DG     C12 7694   4.600   4.275   0.272  0.3131 -0.2374  0.1469
  335DG     H13 7695   4.428   4.304   0.807  0.7171  0.0439  0.2070
  335DG     H14 7696   4.444   4.424   0.689 -1.4508 -0.4594 -0.4524
  335DG     H15 7697   4.503   4.294   0.225  1.6691  3.7966 -1.5451
  335DG     H16 7698   4.642   4.375   0.281  0.5051 -0.0514 -2.0553
  335DG     C17 7699   4.492   4.231   0.617 -0.3205  0.0801 -0.2162
  335DG     C18 7700   4.585   4.205   0.407  0.6428  0.7358 -0.7784
  335DG     O19 7701   4.491   4.291   0.485  0.6547  0.0999  0.5648
  335DG     H20 7702   4.444   4.133   0.619  0.6071 -0.4012 -0.8609
  335DG     H21 7703   4.593   4.222   0.656 -0.7865 -0.2659  0.9880
  335DG     H22 7704   4.540   4.108   0.389  1.0573  0.6011 -1.1276
  335DG     H23 7705   4.679   4.185   0.459 -0.1416 -0.9483  0.0610
  336DG      C1 7706   1.835   1.764   3.105 -0.7822 -0.0398 -0.0628
  336DG      C2 7707   1.477   2.346   3.029 -0.8941 -0.0155  0.4856
  336DG      H3 7708   1.839   1.661   3.070  0.1307 -0.3652  0.9426
  336DG      H4 7709   1.867   1.774   3.209 -0.6642 -2.1253  0.1430
  336DG      H5 7710   1.916   1.798   3.041  0.1470  0.2387  1.2321
  336DG      H6 7711   1.538   2.352   2.939  0.3254 -0.3047  1.2704
  336DG      H7 7712   1.381   2.390   3.002 -0.7533 -0.7811 -1.4088
  336DG      H8 7713   1.521   2.406   3.109 -0.2940 -0.1493  0.2631
  336DG      O9 7714   1.710   1.818   3.084 -0.3919  0.1809 -0.3354
  336DG     O10 7715   1.456   2.209   3.065  0.1234 -0.2268  0.3010
  336DG     C11 7716   1.617   1.767   3.175 -0.3629 -0.2169 -0.7818
  336DG     C12 7717   1.403   2.185   3.193  0.1859 -0.3287  0.1927
  336DG     H13 7718   1.654   1.776   3.277 -0.8017  0.5317 -0.6855
  336DG     H14 7719   1.608   1.659   3.160  2.8634 -0.7775  0.4923
  336DG     H15 7720   1.315   2.248   3.207 -0.3670  0.1451 -3.9856
  336DG     H16 7721   1.479   2.213   3.265  1.3599 -1.8466 -0.3995
  336DG     C17 7722   1.485   1.838   3.160 -0.2628  0.1047 -0.4071
  336DG     C18 7723   1.372   2.037   3.199  0.4607  0.6049 -0.5664
  336DG     O19 7724   1.500   1.983   3.172 -0.3408  0.2252  0.1210
  336DG     H20 7725   1.420   1.807   3.242  0.8850  0.5886  0.7085
  336DG     H21 7726   1.438   1.811   3.065 -0.0705 -1.1410 -0.1644
  336DG     H22 7727   1.331   2.008   3.296  1.4442  2.5387  0.4931
  336DG     H23 7728   1.290   2.011   3.132 -2.0021  2.4486  1.5117
  337DG      C1 7729   3.854   2.072   2.962 -0.5040  0.2715  0.5364
  337DG      C2 7730   4.267   2.035   3.551  0.6322  0.0628 -0.1265
  337DG      H3 7731   3.810   2.104   2.868  0.6876  1.5244  0.3717
  337DG      H4 7732   3.833   1.966   2.974  1.3077 -0.0777  0.8596
  337DG      H5 7733   3.962   2.087   2.953 -0.0806 -2.3421  0.3270
  337DG      H6 7734   4.349   2.067   3.616 -1.2643 -1.5757  3.3913
  337DG      H7 7735   4.267   1.928   3.573 -1.9155  0.2058  0.8952
  337DG      H8 7736   4.268   2.054   3.444  0.4164  2.7027  0.2798
  337DG      O9 7737   3.812   2.152   3.067 -0.0472  0.3892 -0.1387
  337DG     O10 7738   4.143   2.084   3.596 -0.3402 -0.8395 -0.1900
  337DG     C11 7739   3.862   2.105   3.194 -0.0700  0.2399  0.1079
  337DG     C12 7740   4.127   2.229   3.586 -0.6305  0.1477  0.3306
  337DG     H13 7741   3.895   2.001   3.200  0.2768  0.4135  1.3734
  337DG     H14 7742   3.788   2.117   3.273  1.1166 -0.4435  1.3506
  337DG     H15 7743   4.223   2.273   3.614  0.2487 -1.0853 -0.6598
  337DG     H16 7744   4.049   2.280   3.643 -2.7768 -0.1077 -2.1586
  337DG     C17 7745   3.980   2.190   3.238  0.3204 -0.3208 -0.3865
  337DG     C18 7746   4.095   2.273   3.435  0.1417  0.5783 -0.3666
  337DG     O19 7747   3.996   2.183   3.382  0.3759  0.0223  0.0329
  337DG     H20 7748   3.939   2.290   3.227  0.1872 -0.1831  1.1718
  337DG     H21 7749   4.073   2.196   3.180  0.8233 -1.1624  0.3094
  337DG     H22 7750   4.055   2.374   3.426  1.9902  1.4136  0.2576
  337DG     H23 7751   4.187   2.266   3.377 -0.4578  0.4967 -1.3216
  338DG      C1 7752   4.496   2.473   3.082  0.3728  0.0266  0.3057
  338DG      C2 7753   4.620   2.893   2.881  0.9999  0.2792  0.1716
  338DG      H3 7754   4.527   2.571   3.118  1.6481 -0.5750  0.9272
  338DG      H4 7755   4.591   2.420   3.074  1.1855  1.5094 -0.1127
  338DG      H5 7756   4.434   2.432   3.162 -1.3400 -0.1881 -1.0769
  338DG      H6 7757   4.718   2.852   2.903  2.1511  1.8854 -1.6986
  338DG      H7 7758   4.632   3.001   2.885 -0.4828  0.5074 -0.7382
  338DG      H8 7759   4.545   2.863   2.954  0.6867  0.1387 -0.2029
  338DG      O9 7760   4.430   2.483   2.953  0.0290  0.3528 -0.4083
  338DG     O10 7761   4.572   2.849   2.760 -0.0168 -0.1790  0.7089
  338DG     C11 7762   4.314   2.555   2.978  0.6157 -0.1811 -0.1188
  338DG     C12 7763   4.440   2.892   2.723  0.0257  0.0181 -0.8869
  338DG     H13 7764   4.333   2.643   3.039  0.8342 -0.1783 -0.1902
  338DG     H14 7765   4.251   2.490   3.040  0.6802 -0.6854 -0.5769
  338DG     H15 7766   4.439   2.881   2.615  2.3919  0.3025 -0.9792
  338DG     H16 7767   4.441   2.997   2.753  0.6622  0.6060 -2.8152
  338DG     C17 7768   4.242   2.610   2.857 -0.1487 -0.7086 -0.5118
  338DG     C18 7769   4.323   2.828   2.807 -0.3361 -0.1945  0.0808
  338DG     O19 7770   4.326   2.692   2.776 -0.0511  0.0921  0.7154
  338DG     H20 7771   4.153   2.667   2.883 -0.8565 -0.9586 -2.2244
  338DG     H21 7772   4.202   2.524   2.802 -0.8385 -1.1172  0.5801
  338DG     H22 7773   4.324   2.840   2.916  1.1105  0.4320  0.0227
  338DG     H23 7774   4.232   2.874   2.770 -0.2525  0.3064  0.4784
  339DG      C1 7775   4.841   3.176   1.247  0.0720  0.3297 -0.0619
  339DG      C2 7776   4.820   3.865   1.361  0.2155 -0.4916 -0.1616
  339DG      H3 7777   4.741   3.134   1.249  0.7504 -1.3331  1.6342
  339DG      H4 7778   4.911   3.093   1.246 -0.2440  0.0608  0.0309
  339DG      H5 7779   4.860   3.226   1.151  2.3968 -1.3745 -0.5855
  339DG      H6 7780   4.788   3.897   1.460 -0.6871  0.5378 -0.7744
  339DG      H7 7781   4.885   3.935   1.309 -0.3342 -0.8804 -1.3893
  339DG      H8 7782   4.733   3.864   1.296  0.2120  2.1376 -0.3047
  339DG      O9 7783   4.869   3.269   1.356  0.3526 -0.0381 -0.1582
  339DG     O10 7784   4.880   3.738   1.381  0.2198  0.8622  0.9149
  339DG     C11 7785   5.002   3.274   1.406 -0.4543 -0.4368 -0.2098
  339DG     C12 7786   5.003   3.745   1.459 -0.3082  0.0768  0.2578
  339DG     H13 7787   5.070   3.295   1.324  0.6203  0.6066  0.8940
  339DG     H14 7788   5.016   3.175   1.449  0.1788 -0.2619 -0.0001
  339DG     H15 7789   5.014   3.833   1.522  0.3053  0.4477 -0.3602
  339DG     H16 7790   5.087   3.740   1.390  0.1188 -2.3235  0.8669
  339DG     C17 7791   5.026   3.388   1.511  0.1059  0.3905  0.6138
  339DG     C18 7792   5.013   3.616   1.545 -0.2169 -0.3182 -0.6399
  339DG     O19 7793   5.004   3.511   1.454 -0.0404  0.1850 -0.1138
  339DG     H20 7794   5.123   3.391   1.560 -0.1116  0.6028  1.0361
  339DG     H21 7795   4.954   3.375   1.592 -0.9804  0.8278 -0.2507
  339DG     H22 7796   5.110   3.611   1.595  0.4074  2.1042 -1.4838
  339DG     H23 7797   4.935   3.611   1.621  0.5069  1.7741  0.3185
  340DG      C1 7798   5.216   2.392   3.974  0.4634 -0.7873 -0.5174
  340DG      C2 7799   5.066   1.671   3.975  0.2042 -0.2933 -0.4519
  340DG      H3 7800   5.127   2.407   4.035  1.0448  1.6607 -0.1836
  340DG      H4 7801   5.243   2.479   3.914  0.1288  0.2305  0.7779
  340DG      H5 7802   5.298   2.375   4.044 -1.3508 -0.7967  1.7215
  340DG      H6 7803   5.067   1.618   3.880 -2.6945  0.9217 -1.2633
  340DG      H7 7804   5.168   1.706   3.992 -0.6702  0.6900  3.7635
  340DG      H8 7805   5.009   1.622   4.053 -1.7910  3.3260  0.6145
  340DG      O9 7806   5.198   2.282   3.889  0.0352  0.9897 -0.4235
  340DG     O10 7807   4.989   1.786   3.939  0.8621  0.3302  1.1043
  340DG     C11 7808   5.088   2.280   3.795 -0.6865 -0.8382 -0.1346
  340DG     C12 7809   4.967   1.879   4.045  0.1326 -0.5077  0.0988
  340DG     H13 7810   5.111   2.200   3.725  1.4210  0.2586 -0.7797
  340DG     H14 7811   5.063   2.375   3.747  1.6036  0.7341  1.5336
  340DG     H15 7812   5.047   1.891   4.118 -0.7881  0.9456  0.9083
  340DG     H16 7813   4.892   1.824   4.103 -0.5841 -1.1909 -1.4262
  340DG     C17 7814   4.973   2.213   3.878 -0.4929  0.2426 -0.3449
  340DG     C18 7815   4.917   2.018   4.002  0.5629 -0.3387  0.8848
  340DG     O19 7816   5.020   2.095   3.941  0.0255  0.0120  0.3554
  340DG     H20 7817   4.896   2.199   3.803  0.3060  1.2926 -1.3909
  340DG     H21 7818   4.931   2.288   3.946 -0.0641  0.0706  0.1207
  340DG     H22 7819   4.831   2.000   3.936  1.7376 -0.3102 -0.7101
  340DG     H23 7820   4.884   2.072   4.091 -2.0522  0.1614 -0.2833
  341DG      C1 7821   2.813   3.360   3.513 -0.2149 -0.0818 -0.1639
  341DG      C2 7822   2.728   4.003   3.879 -0.2862  0.0173  0.0435
  341DG      H3 7823   2.837   3.326   3.614 -1.7450  0.9120  0.5736
  341DG      H4 7824   2.895   3.378   3.444 -0.4192 -3.5198 -1.5304
  341DG      H5 7825   2.755   3.277   3.472 -0.8778  0.4501 -0.3183
  341DG      H6 7826   2.801   4.074   3.842 -0.8143  1.1518  1.1155
  341DG      H7 7827   2.650   4.046   3.943 -0.6780 -1.2350  0.4505
  341DG      H8 7828   2.789   3.936   3.940 -0.5747  1.5645  2.1609
  341DG      O9 7829   2.726   3.470   3.523  0.6094  0.2814 -0.1053
  341DG     O10 7830   2.676   3.921   3.784  0.2373 -0.3842 -0.2105
  341DG     C11 7831   2.794   3.592   3.539  0.2085 -0.6876 -0.2978
  341DG     C12 7832   2.561   3.841   3.839 -1.1496 -0.1990  0.4427
  341DG     H13 7833   2.836   3.615   3.442 -0.6746 -2.1273 -1.0587
  341DG     H14 7834   2.864   3.594   3.622 -2.4230 -1.1282  2.1225
  341DG     H15 7835   2.477   3.904   3.867 -1.2951 -0.5312  0.7526
  341DG     H16 7836   2.598   3.784   3.924  0.3014 -2.4191 -1.5748
  341DG     C17 7837   2.687   3.691   3.578 -0.1795 -0.1161  0.4075
  341DG     C18 7838   2.511   3.751   3.717  0.0803  0.2227 -0.2450
  341DG     O19 7839   2.608   3.654   3.690  0.3896  0.0396 -0.5826
  341DG     H20 7840   2.628   3.722   3.492 -0.6082 -1.6896  0.0996
  341DG     H21 7841   2.742   3.778   3.612  0.6106 -0.3791 -0.1784
  341DG     H22 7842   2.415   3.705   3.741  0.3942 -0.4466 -0.2530
  341DG     H23 7843   2.491   3.814   3.630  0.5897  0.2688 -0.3316
  342DG      C1 7844   2.671   4.438   3.337 -1.0692  0.1859  0.2853
  342DG      C2 7845   3.294   4.627   3.174 -0.0603 -0.5873  0.0389
  342DG      H3 7846   2.670   4.393   3.238 -0.3161 -1.3927  0.9719
  342DG      H4 7847   2.630   4.539   3.326 -0.1684  0.6785  1.2557
  342DG      H5 7848   2.597   4.390   3.400 -0.2697 -0.0595  1.0581
  342DG      H6 7849   3.401   4.620   3.189 -0.3020  0.6475  2.9811
  342DG      H7 7850   3.263   4.607   3.071 -1.4606  0.8091  0.1500
  342DG      H8 7851   3.256   4.729   3.181  0.5885 -0.1551 -2.0272
  342DG      O9 7852   2.805   4.436   3.387 -0.1979  0.3526  0.0872
  342DG     O10 7853   3.216   4.546   3.263  0.7346  0.1574 -0.2351
  342DG     C11 7854   2.812   4.441   3.531  0.9625 -0.3645 -0.4538
  342DG     C12 7855   3.235   4.579   3.402  0.5784 -0.2225 -0.5713
  342DG     H13 7856   2.745   4.367   3.574  2.8405 -0.1169  3.3201
  342DG     H14 7857   2.776   4.535   3.573  3.2894  0.7462 -0.7767
  342DG     H15 7858   3.198   4.679   3.427  1.1593 -0.1211 -0.1084
  342DG     H16 7859   3.341   4.587   3.424  1.1789 -0.6266 -3.0038
  342DG     C17 7860   2.960   4.410   3.573 -0.1135 -0.0691 -0.9231
  342DG     C18 7861   3.177   4.474   3.495 -0.0224  0.2128  0.4633
  342DG     O19 7862   3.034   4.479   3.479  0.5885 -0.3840  0.3475
  342DG     H20 7863   2.961   4.304   3.549 -3.5140  0.0528 -2.1693
  342DG     H21 7864   2.980   4.433   3.678 -1.7033 -1.9285 -0.1487
  342DG     H22 7865   3.216   4.378   3.463  0.1702  0.8808 -1.4439
  342DG     H23 7866   3.204   4.498   3.598 -2.0150 -2.3391  1.6851
  343DG      C1 7867   4.329   5.078   4.736  0.8950 -0.1495  0.0706
  343DG      C2 7868   4.278   5.331   5.582  0.2034  0.1309 -0.0248
  343DG      H3 7869   4.413   5.012   4.756  1.0092  0.4877  1.9170
  343DG      H4 7870   4.360   5.183   4.742  0.4332 -0.1022  2.3749
  343DG      H5 7871   4.281   5.069   4.639 -0.6078  0.6039  0.7038
  343DG      H6 7872   4.217   5.300   5.666 -1.1289 -0.8147 -1.2866
  343DG      H7 7873   4.380   5.309   5.613 -0.0773 -1.5249 -0.1627
  343DG      H8 7874   4.274   5.437   5.559 -3.3366  0.4702  1.6045
  343DG      O9 7875   4.226   5.067   4.836  0.1053 -0.0321 -0.0055
  343DG     O10 7876   4.250   5.252   5.461  0.5972 -0.7183  0.8771
  343DG     C11 7877   4.256   5.126   4.965 -0.5294  0.1945  0.0662
  343DG     C12 7878   4.113   5.266   5.417  0.3349 -0.1044  1.1879
  343DG     H13 7879   4.270   5.231   4.940  2.0663 -0.0602  0.1734
  343DG     H14 7880   4.351   5.084   4.999 -0.6323 -1.1637 -1.1955
  343DG     H15 7881   4.096   5.370   5.390 -1.7021 -0.7107 -0.1256
  343DG     H16 7882   4.034   5.252   5.491 -1.1385 -1.7159 -0.5847
  343DG     C17 7883   4.151   5.110   5.073 -0.3579  0.5213  0.0265
  343DG     C18 7884   4.088   5.173   5.297  0.7044  0.4694  0.3421
  343DG     O19 7885   4.189   5.175   5.194  0.0921  0.1782 -0.6371
  343DG     H20 7886   4.137   5.006   5.103  1.9454  0.5108  1.2001
  343DG     H21 7887   4.052   5.153   5.052 -0.1434  1.8375  1.5346
  343DG     H22 7888   4.068   5.072   5.332  1.4578  0.8738  2.0344
  343DG     H23 7889   3.998   5.202   5.243 -0.4815 -3.1058  0.1769
  344DG      C1 7890   1.646   4.273   2.658  0.1501  0.3097  0.2981
  344DG      C2 7891   0.980   4.087   2.687  0.6001  0.7315 -0.0049
  344DG      H3 7892   1.732   4.217   2.694 -0.3366 -0.3893  0.4117
  344DG      H4 7893   1.664   4.375   2.691 -0.1561 -0.1191  1.9172
  344DG      H5 7894   1.631   4.263   2.551  1.0247  2.4748 -0.0620
  344DG      H6 7895   0.898   4.051   2.750  0.2678 -1.9748 -1.8184
  344DG      H7 7896   0.945   4.169   2.625  0.5931  0.1625 -0.7819
  344DG      H8 7897   1.009   4.003   2.623 -0.9192  2.5779 -3.3842
  344DG      O9 7898   1.529   4.229   2.723 -0.0858 -0.9997 -0.3855
  344DG     O10 7899   1.090   4.126   2.760 -0.1342  0.7504  0.1990
  344DG     C11 7900   1.554   4.198   2.858 -0.5142 -0.3436  0.6030
  344DG     C12 7901   1.117   4.027   2.862 -0.2928  0.1611 -0.6419
  344DG     H13 7902   1.616   4.270   2.911  0.1050  0.8486 -1.6088
  344DG     H14 7903   1.598   4.098   2.862 -1.5554 -0.8904 -0.5264
  344DG     H15 7904   1.140   3.936   2.807 -0.8648  0.3482 -1.1943
  344DG     H16 7905   1.029   4.005   2.923  1.5440 -0.8496  1.8333
  344DG     C17 7906   1.434   4.194   2.938 -0.2016 -0.5969  0.5745
  344DG     C18 7907   1.228   4.082   2.948 -0.7770  0.3153  0.1852
  344DG     O19 7908   1.342   4.110   2.870 -0.0095 -0.3091 -0.7158
  344DG     H20 7909   1.390   4.293   2.949  2.3024  0.6000  0.5289
  344DG     H21 7910   1.458   4.154   3.037 -0.5442  0.3789  1.0693
  344DG     H22 7911   1.195   4.174   2.997 -1.7561  0.0002  0.1424
  344DG     H23 7912   1.250   4.028   3.040 -0.7796  0.6573  0.3901
  345DG      C1 7913   4.740   2.575   1.916 -0.2231  0.1169  0.3420
  345DG      C2 7914   4.760   3.048   1.594  0.5398  0.2823 -0.2718
  345DG      H3 7915   4.765   2.469   1.914 -2.7683 -0.5836 -2.1837
  345DG      H4 7916   4.668   2.603   1.839 -1.0323 -0.7738  0.7525
  345DG      H5 7917   4.690   2.604   2.009  1.8739  0.1116  1.5166
  345DG      H6 7918   4.744   2.974   1.516  2.0029 -0.9691  0.5706
  345DG      H7 7919   4.680   3.026   1.664 -2.1970 -0.3160 -3.3187
  345DG      H8 7920   4.749   3.149   1.554  1.1295  0.7375  0.6696
  345DG      O9 7921   4.864   2.644   1.904  0.5377  0.2886 -0.2201
  345DG     O10 7922   4.891   3.007   1.635 -0.7324 -0.0855  0.3843
  345DG     C11 7923   4.837   2.779   1.938  0.0713 -0.4831 -0.3037
  345DG     C12 7924   4.942   3.070   1.750 -0.7493  0.4692  0.1887
  345DG     H13 7925   4.780   2.788   2.030  1.1245  1.2549  0.2281
  345DG     H14 7926   4.779   2.818   1.855  0.4570 -0.7671 -0.7159
  345DG     H15 7927   4.867   3.070   1.829  0.2506 -0.4834  1.1601
  345DG     H16 7928   4.969   3.169   1.714  1.0290  0.1689  0.6382
  345DG     C17 7929   4.967   2.858   1.952  0.5466  0.5001 -1.0767
  345DG     C18 7930   5.072   3.004   1.792  0.1444  0.2455  0.4204
  345DG     O19 7931   5.043   2.872   1.828  0.2272 -0.0007 -0.2040
  345DG     H20 7932   5.030   2.808   2.025  1.7725  2.8993 -0.3664
  345DG     H21 7933   4.956   2.953   2.006  0.2030  0.4289 -1.0160
  345DG     H22 7934   5.128   3.018   1.699  1.3569 -1.4400  0.8447
  345DG     H23 7935   5.109   3.065   1.874  0.3038 -1.1089  1.3831
  346DG      C1 7936   1.726   2.110   4.859  0.4979  0.4532 -0.0699
  346DG      C2 7937   2.002   2.505   4.214 -0.3420 -0.4294 -0.6228
  346DG      H3 7938   1.812   2.148   4.914 -0.2817  0.4175  1.2178
  346DG      H4 7939   1.693   2.014   4.900  1.5671 -0.2222 -0.7488
  346DG      H5 7940   1.650   2.188   4.853  1.4178  1.3233 -0.6821
  346DG      H6 7941   2.033   2.546   4.311 -2.7544  0.5866 -0.2168
  346DG      H7 7942   2.078   2.533   4.141 -0.2882  0.7083 -0.1603
  346DG      H8 7943   1.907   2.541   4.176  0.5015  0.5233 -1.9310
  346DG      O9 7944   1.778   2.084   4.731 -0.6294  0.3506  0.5055
  346DG     O10 7945   2.001   2.361   4.225  0.0067 -0.7824 -0.6005
  346DG     C11 7946   1.698   2.022   4.628  0.7365  0.1605  0.7985
  346DG     C12 7947   1.904   2.329   4.323 -0.2202 -0.3006 -0.2926
  346DG     H13 7948   1.600   2.065   4.610 -0.6655 -2.4353  1.8172
  346DG     H14 7949   1.677   1.919   4.658  2.0732 -0.7193 -1.1051
  346DG     H15 7950   1.808   2.344   4.274 -0.5376 -1.2974  0.0127
  346DG     H16 7951   1.902   2.385   4.416 -1.7376 -2.3199  0.9917
  346DG     C17 7952   1.779   2.028   4.502 -0.4715 -0.0023  0.2815
  346DG     C18 7953   1.909   2.176   4.360 -0.6566 -0.0041  0.5291
  346DG     O19 7954   1.826   2.156   4.468  0.6592  0.2422 -0.1536
  346DG     H20 7955   1.728   1.989   4.414 -3.4073  1.3430  1.2948
  346DG     H21 7956   1.856   1.951   4.511  0.3864  0.5750 -1.5373
  346DG     H22 7957   1.868   2.128   4.271  0.4322 -2.4441  1.2437
  346DG     H23 7958   2.010   2.139   4.377 -0.9124 -0.8381  0.3121
  347DG      C1 7959   1.694   0.053   4.726  0.0526 -0.4712  0.1923
  347DG      C2 7960   1.727  -0.443   5.368 -0.5082  0.2656 -0.7452
  347DG      H3 7961   1.637  -0.017   4.665  0.0044  0.5334 -0.9332
  347DG      H4 7962   1.798   0.027   4.708 -0.2400 -1.4611 -0.1551
  347DG      H5 7963   1.681   0.152   4.683  1.2641  0.3709  1.6663
  347DG      H6 7964   1.656  -0.517   5.332 -1.7104  0.9461  0.1689
  347DG      H7 7965   1.821  -0.498   5.375 -0.5993  0.2458  0.4361
  347DG      H8 7966   1.687  -0.409   5.463 -3.3016 -2.6313 -0.7204
  347DG      O9 7967   1.652   0.040   4.866  0.2419 -0.0593  0.1346
  347DG     O10 7968   1.728  -0.358   5.266  0.5515 -0.3765 -0.3514
  347DG     C11 7969   1.752   0.080   4.954 -0.3974 -0.4100  0.4977
  347DG     C12 7970   1.606  -0.285   5.258 -0.7295  0.5385  0.5224
  347DG     H13 7971   1.762   0.188   4.958 -2.2575 -0.2244  0.8874
  347DG     H14 7972   1.848   0.036   4.925 -0.0829 -0.1718  1.1481
  347DG     H15 7973   1.532  -0.285   5.338 -2.2568  1.7778 -0.7998
  347DG     H16 7974   1.554  -0.334   5.175  2.6072 -1.5984 -0.5143
  347DG     C17 7975   1.714   0.039   5.092  0.0531 -0.0859  0.4340
  347DG     C18 7976   1.628  -0.136   5.228  0.0937 -0.5013  0.1243
  347DG     O19 7977   1.677  -0.097   5.098 -0.0077  0.3795 -0.1814
  347DG     H20 7978   1.632   0.100   5.129 -0.1773 -1.7330  2.8347
  347DG     H21 7979   1.803   0.046   5.156  1.3798  2.5282 -1.4922
  347DG     H22 7980   1.533  -0.089   5.251 -0.8605 -2.9674  1.6818
  347DG     H23 7981   1.688  -0.090   5.307  0.1040  1.5797 -1.0272
  348DG      C1 7982   0.187   3.618   0.526  0.3637  0.1862 -0.6829
  348DG      C2 7983  -0.235   2.952   0.226  0.1952  0.5296  0.2800
  348DG      H3 7984   0.258   3.609   0.608 -0.6008 -1.6203 -0.0004
  348DG      H4 7985   0.155   3.722   0.527  1.9883  0.7174 -0.7883
  348DG      H5 7986   0.247   3.621   0.435  3.5539  0.2519  1.2762
  348DG      H6 7987  -0.340   2.937   0.250 -1.1375  0.8049 -4.3180
  348DG      H7 7988  -0.220   2.883   0.143 -2.2260 -0.0766  0.2510
  348DG      H8 7989  -0.174   2.908   0.305  1.1812  1.3923  0.0204
  348DG      O9 7990   0.087   3.517   0.521  0.1438  0.5354 -0.0350
  348DG     O10 7991  -0.209   3.089   0.196 -0.0500 -0.0228 -0.3972
  348DG     C11 7992  -0.007   3.528   0.415 -0.6311 -0.1692  0.6304
  348DG     C12 7993  -0.077   3.129   0.208  0.2215 -0.9695 -0.3408
  348DG     H13 7994   0.039   3.531   0.317  2.5564  1.9163  2.0358
  348DG     H14 7995  -0.053   3.626   0.426 -1.7345 -0.2757 -2.2793
  348DG     H15 7996  -0.033   3.119   0.108  2.9701 -1.1740  0.8051
  348DG     H16 7997  -0.017   3.067   0.274 -0.1068  0.9266  1.8579
  348DG     C17 7998  -0.127   3.429   0.426 -0.6897  0.3527 -0.2234
  348DG     C18 7999  -0.064   3.277   0.254 -0.2934  0.2800  0.2832
  348DG     O19 8000  -0.092   3.292   0.396  0.0129 -0.2874  0.8523
  348DG     H20 8001  -0.204   3.474   0.363  0.5074  0.4175 -1.7091
  348DG     H21 8002  -0.166   3.429   0.528 -0.0673  0.9707  0.0239
  348DG     H22 8003   0.032   3.324   0.231  0.1822 -1.1866 -0.8432
  348DG     H23 8004  -0.132   3.336   0.193 -0.8452  0.0652  0.6826
  349DG      C1 8005   0.126   0.720   3.949  0.1709  0.5344  0.1033
  349DG      C2 8006  -0.205   1.425   3.875 -0.4898 -0.2011  0.3375
  349DG      H3 8007   0.121   0.633   3.883  0.1973  0.4607  0.1985
  349DG      H4 8008   0.098   0.683   4.047 -0.0831 -1.3107 -0.6167
  349DG      H5 8009   0.225   0.764   3.945  0.6174 -0.4894 -2.7380
  349DG      H6 8010  -0.151   1.495   3.938  2.8397 -1.6913 -0.6664
  349DG      H7 8011  -0.256   1.476   3.793  2.1321  1.8035 -0.1772
  349DG      H8 8012  -0.287   1.393   3.940 -1.1680  2.6394  1.0300
  349DG      O9 8013   0.035   0.811   3.897  0.0394  0.0777  0.5814
  349DG     O10 8014  -0.126   1.322   3.831 -0.5071  0.4647  0.9720
  349DG     C11 8015   0.020   0.922   3.981  0.2615 -1.0322 -0.3959
  349DG     C12 8016  -0.200   1.223   3.762  0.4043  0.3314  0.6121
  349DG     H13 8017   0.114   0.979   3.984  0.6527 -1.6357 -0.9345
  349DG     H14 8018  -0.022   0.900   4.079 -1.5816  0.2446 -0.8388
  349DG     H15 8019  -0.265   1.256   3.680  1.6968  1.3542 -0.0433
  349DG     H16 8020  -0.269   1.183   3.835  0.3241 -0.5079  0.0878
  349DG     C17 8021  -0.075   1.019   3.917 -0.4919 -0.4634  0.1481
  349DG     C18 8022  -0.111   1.114   3.702 -1.0338  0.0935 -0.0738
  349DG     O19 8023  -0.017   1.060   3.791 -0.0867 -0.1389 -0.4609
  349DG     H20 8024  -0.086   1.111   3.974  1.9291  0.4910 -0.7873
  349DG     H21 8025  -0.175   0.976   3.907 -0.5766 -0.1079 -0.6122
  349DG     H22 8026  -0.168   1.034   3.653 -2.1012  0.6572  0.2228
  349DG     H23 8027  -0.046   1.147   3.621 -0.6664 -2.2286 -0.8039
  350DG      C1 8028   5.448   0.090   0.468  0.0594  0.5233 -0.5452
  350DG      C2 8029   5.384   0.576  -0.169  0.1738 -0.6935  0.4005
  350DG      H3 8030   5.521   0.170   0.479  0.2922  0.3395 -0.7604
  350DG      H4 8031   5.489  -0.003   0.505 -0.4492  1.3961  2.4426
  350DG      H5 8032   5.363   0.109   0.534  1.2913  0.0281  1.2141
  350DG      H6 8033   5.487   0.611  -0.181 -0.2603 -0.0860 -1.9898
  350DG      H7 8034   5.331   0.572  -0.264  0.6022 -1.6632  0.1959
  350DG      H8 8035   5.329   0.639  -0.099 -0.5106 -1.3480  0.4547
  350DG      O9 8036   5.402   0.073   0.337 -0.2451  0.0539 -0.2348
  350DG     O10 8037   5.403   0.446  -0.118  0.5552  0.1901  0.0588
  350DG     C11 8038   5.504   0.059   0.239  0.4989 -0.1439 -0.0615
  350DG     C12 8039   5.294   0.361  -0.083  0.0733 -0.6921  0.6699
  350DG     H13 8040   5.547  -0.041   0.243  0.1601 -0.2637  2.3788
  350DG     H14 8041   5.583   0.133   0.254  1.0122 -0.4310 -1.2183
  350DG     H15 8042   5.216   0.358  -0.159 -1.4610  0.3834  2.1290
  350DG     H16 8043   5.235   0.407  -0.004  0.5857 -0.9785  1.2264
  350DG     C17 8044   5.446   0.082   0.096 -0.3514 -0.5616 -0.8100
  350DG     C18 8045   5.342   0.216  -0.051 -0.2317 -1.3029 -1.3803
  350DG     O19 8046   5.393   0.209   0.085 -0.1147  0.1444 -0.0505
  350DG     H20 8047   5.368   0.011   0.070 -1.5275  0.5260 -0.3777
  350DG     H21 8048   5.524   0.057   0.025 -0.4150 -1.2638 -0.6380
  350DG     H22 8049   5.261   0.146  -0.067 -0.1513 -1.4768 -1.0448
  350DG     H23 8050   5.418   0.187  -0.123  0.9604  0.1163 -0.7544
  351DG      C1 8051   0.948   4.427   4.396 -0.1380 -0.1445 -0.4571
  351DG      C2 8052   0.378   4.466   3.865  0.5500 -0.3930  0.1326
  351DG      H3 8053   0.959   4.380   4.494  0.6025 -0.8297 -0.8589
  351DG      H4 8054   1.009   4.518   4.401 -0.2182 -0.0818 -0.6298
  351DG      H5 8055   0.988   4.368   4.314 -0.2744 -1.0556  0.1128
  351DG      H6 8056   0.286   4.419   3.900 -0.5160  0.3899 -1.4873
  351DG      H7 8057   0.388   4.572   3.888  0.9225 -0.3740 -0.1138
  351DG      H8 8058   0.362   4.451   3.759 -3.2477  0.3131  0.4332
  351DG      O9 8059   0.813   4.472   4.370  0.2743 -0.8070  0.0749
  351DG     O10 8060   0.487   4.398   3.925  0.0856 -0.3568  0.2712
  351DG     C11 8061   0.723   4.366   4.336  0.0159  0.3927  0.5356
  351DG     C12 8062   0.610   4.454   3.886 -0.4552  0.0223  0.8610
  351DG     H13 8063   0.619   4.399   4.330  0.0830  0.9904  2.0502
  351DG     H14 8064   0.735   4.287   4.410  1.4630 -1.1733 -1.2867
  351DG     H15 8065   0.607   4.560   3.911 -0.2459  0.2729 -0.1580
  351DG     H16 8066   0.622   4.438   3.779  0.2534 -1.4627  1.1355
  351DG     C17 8067   0.750   4.316   4.185 -0.2078 -0.6236 -0.4134
  351DG     C18 8068   0.721   4.375   3.961 -0.1059 -0.5902 -0.7189
  351DG     O19 8069   0.701   4.409   4.099  0.0123  0.6777 -0.5839
  351DG     H20 8070   0.693   4.224   4.179  1.1980 -1.6098  0.4804
  351DG     H21 8071   0.856   4.294   4.171  1.2304  3.5110  2.0289
  351DG     H22 8072   0.710   4.269   3.938  1.3779 -0.2133 -3.6112
  351DG     H23 8073   0.821   4.408   3.934  0.7893  0.7966  3.5063
  352DG      C1 8074   5.496   3.583   2.848 -0.5254  0.1843 -0.1864
  352DG      C2 8075   4.672   3.545   2.773 -0.3149  0.4825 -0.1021
  352DG      H3 8076   5.583   3.643   2.876 -1.1786  1.7246 -1.3161
  352DG      H4 8077   5.522   3.502   2.781 -1.0505 -1.0458  1.0439
  352DG      H5 8078   5.450   3.532   2.933 -0.4097  0.8254  0.2738
  352DG      H6 8079   4.591   3.558   2.702 -0.8127 -0.3317  0.3069
  352DG      H7 8080   4.675   3.436   2.778 -1.0997  0.4991  1.1678
  352DG      H8 8081   4.647   3.587   2.870  0.8124 -0.5945  0.6849
  352DG      O9 8082   5.405   3.676   2.790  0.6592 -0.0068 -0.7042
  352DG     O10 8083   4.794   3.583   2.720 -0.5975  0.4680 -0.6222
  352DG     C11 8084   5.281   3.622   2.761  0.7496  0.2762 -0.0030
  352DG     C12 8085   4.816   3.723   2.720 -0.9317  0.4712 -0.0240
  352DG     H13 8086   5.244   3.590   2.858  1.6258 -1.8009 -0.3038
  352DG     H14 8087   5.290   3.533   2.700 -1.6797 -0.8311  1.1248
  352DG     H15 8088   4.799   3.762   2.821 -0.3115 -1.6295  0.9308
  352DG     H16 8089   4.736   3.768   2.661  0.0709 -1.8726 -3.4761
  352DG     C17 8090   5.182   3.725   2.704  0.3861 -0.0831  0.4797
  352DG     C18 8091   4.952   3.764   2.656 -0.2016  0.8281 -0.2514
  352DG     O19 8092   5.043   3.685   2.725  0.1250 -0.1671 -0.2049
  352DG     H20 8093   5.208   3.748   2.600 -2.9137 -2.0421 -0.9465
  352DG     H21 8094   5.201   3.809   2.770 -0.4934  0.6918 -0.2099
  352DG     H22 8095   4.955   3.730   2.553  1.1960 -0.9329  0.3259
  352DG     H23 8096   4.969   3.871   2.666 -0.9000  0.8179  1.3882
  353DG      C1 8097   0.843   0.840   1.853 -0.1506  0.1359  0.1145
  353DG      C2 8098   1.278   0.379   1.933  0.3723 -0.3044  0.2761
  353DG      H3 8099   0.783   0.749   1.855  0.6340 -0.3909 -0.0814
  353DG      H4 8100   0.811   0.892   1.762 -2.2353 -0.8534  0.2097
  353DG      H5 8101   0.794   0.896   1.933 -0.2669 -0.7736  0.6852
  353DG      H6 8102   1.262   0.404   2.038 -1.4364  0.6136 -0.1707
  353DG      H7 8103   1.199   0.308   1.908  0.9124 -0.7688 -0.1510
  353DG      H8 8104   1.372   0.326   1.917  1.5945  2.2739 -1.7191
  353DG      O9 8105   0.983   0.821   1.859  0.2070 -0.2852  0.1228
  353DG     O10 8106   1.277   0.500   1.854 -0.2558 -0.0005 -0.1885
  353DG     C11 8107   1.060   0.940   1.849 -0.0110 -0.3029  0.3186
  353DG     C12 8108   1.383   0.590   1.881 -0.0926 -0.8545 -0.1621
  353DG     H13 8109   1.059   0.992   1.945  0.1334  0.1518  0.0747
  353DG     H14 8110   1.028   1.004   1.767  2.1632  0.5793  0.1036
  353DG     H15 8111   1.467   0.541   1.831  0.8550  0.0690  0.4834
  353DG     H16 8112   1.407   0.592   1.987  2.2525  1.3443 -0.6532
  353DG     C17 8113   1.203   0.901   1.813 -0.3276  0.0718 -0.5512
  353DG     C18 8114   1.356   0.726   1.814 -0.2140  0.2854  0.7078
  353DG     O19 8115   1.249   0.784   1.878  0.3007 -0.0778  0.7767
  353DG     H20 8116   1.275   0.975   1.847 -2.1376  1.1504  1.2102
  353DG     H21 8117   1.214   0.900   1.705  2.5788  0.5748 -0.3471
  353DG     H22 8118   1.441   0.794   1.814  0.9936 -1.1216 -0.7181
  353DG     H23 8119   1.320   0.715   1.711  0.8591  1.0736  0.2240
  354DG      C1 8120   4.626   5.144   5.011  0.4002 -0.3109 -0.4411
  354DG      C2 8121   4.712   4.484   5.049 -0.6852 -0.1612 -0.4320
  354DG      H3 8122   4.685   5.235   5.005 -0.9556  0.5239 -1.5861
  354DG      H4 8123   4.555   5.154   5.094  0.9968  1.3403 -0.1016
  354DG      H5 8124   4.580   5.146   4.913  1.2716 -0.7932 -0.8718
  354DG      H6 8125   4.743   4.390   5.095 -1.6689 -0.9830 -1.4125
  354DG      H7 8126   4.609   4.467   5.020 -1.4264  2.6898  0.2592
  354DG      H8 8127   4.754   4.485   4.948 -0.6084 -1.8803 -0.4463
  354DG      O9 8128   4.707   5.030   5.026 -0.3761 -0.3111 -0.4682
  354DG     O10 8129   4.750   4.596   5.128 -0.1359  0.0290 -0.2455
  354DG     C11 8130   4.808   5.016   4.929 -0.5411  0.6205  0.3069
  354DG     C12 8131   4.884   4.601   5.155  0.3823 -0.3002 -0.1784
  354DG     H13 8132   4.892   5.082   4.948  0.1890  0.0477 -0.8148
  354DG     H14 8133   4.777   5.036   4.826  0.2116 -2.4338 -0.6114
  354DG     H15 8134   4.932   4.503   5.155  2.9673  0.8873  0.7224
  354DG     H16 8135   4.906   4.647   5.251  0.8794 -1.0270  0.0631
  354DG     C17 8136   4.868   4.871   4.930  0.9570 -0.2680 -0.2925
  354DG     C18 8137   4.958   4.696   5.057 -0.2162 -0.0306 -0.0961
  354DG     O19 8138   4.898   4.822   5.059  0.0354  0.7430  0.1975
  354DG     H20 8139   4.958   4.871   4.868 -0.3991  1.8385 -2.4154
  354DG     H21 8140   4.790   4.811   4.884  0.5043 -0.6594  0.9471
  354DG     H22 8141   5.061   4.712   5.089  0.3637 -0.9859 -1.4196
  354DG     H23 8142   4.963   4.656   4.956 -0.4220 -0.2829 -0.0078
  355DG      C1 8143   4.834   3.736   4.446 -0.0806 -0.9029  0.2950
  355DG      C2 8144   5.414   3.174   4.514 -0.2589 -0.7501  0.5938
  355DG      H3 8145   4.824   3.720   4.338  2.6622  1.0851 -0.3574
  355DG      H4 8146   4.859   3.842   4.455  0.1664 -0.7293 -1.8719
  355DG      H5 8147   4.740   3.710   4.495 -0.3403  0.6177  0.6476
  355DG      H6 8148   5.460   3.236   4.590  0.3118  0.1659 -0.4781
  355DG      H7 8149   5.412   3.074   4.558  0.5809 -0.8379  0.4343
  355DG      H8 8150   5.473   3.180   4.423  0.8677  0.6958  1.3920
  355DG      O9 8151   4.925   3.656   4.509  0.0779 -0.1883  0.2319
  355DG     O10 8152   5.275   3.203   4.458 -0.4340  0.2479 -0.0766
  355DG     C11 8153   5.048   3.669   4.437  0.2672  0.4349  0.3191
  355DG     C12 8154   5.187   3.242   4.568 -0.1071  0.1966  0.2108
  355DG     H13 8155   5.076   3.774   4.445 -2.6063  1.2840  0.4525
  355DG     H14 8156   5.050   3.634   4.334  2.8087  0.1735  0.3904
  355DG     H15 8157   5.196   3.170   4.648 -1.9767  0.1236  0.3912
  355DG     H16 8158   5.091   3.230   4.518  0.2596 -2.1223 -0.0252
  355DG     C17 8159   5.155   3.597   4.515 -0.1485  0.4217 -0.1108
  355DG     C18 8160   5.208   3.390   4.604  0.0141  0.0897 -0.8239
  355DG     O19 8161   5.131   3.454   4.503  0.0042  0.9108 -1.0732
  355DG     H20 8162   5.156   3.624   4.621  1.7278  0.6267 -0.1443
  355DG     H21 8163   5.253   3.631   4.482 -0.2257  0.0607 -0.7309
  355DG     H22 8164   5.171   3.404   4.706  2.0456 -0.1575  0.0124
  355DG     H23 8165   5.309   3.429   4.592  0.3395 -0.5659 -0.3365
  356DG      C1 8166   4.225   2.807   4.687  0.0813 -0.4825  0.1105
  356DG      C2 8167   4.775   3.329   4.566  0.2471 -0.9884 -0.1560
  356DG      H3 8168   4.177   2.746   4.610  2.9062 -0.3868 -1.9045
  356DG      H4 8169   4.152   2.884   4.711  1.0437 -0.0822  1.9008
  356DG      H5 8170   4.247   2.747   4.775 -0.1101  0.1587  0.5969
  356DG      H6 8171   4.884   3.334   4.560  0.2721  1.8841  0.9911
  356DG      H7 8172   4.732   3.326   4.466  0.7453  0.6041 -0.4489
  356DG      H8 8173   4.743   3.429   4.596 -0.9179 -0.5235 -2.6775
  356DG      O9 8174   4.336   2.870   4.632  0.2270 -0.6988 -0.1589
  356DG     O10 8175   4.740   3.222   4.652  0.2092  0.0866 -0.4565
  356DG     C11 8176   4.317   2.922   4.502  0.7861  0.1138  0.0905
  356DG     C12 8177   4.760   3.095   4.605  0.6391  1.0846  0.2030
  356DG     H13 8178   4.268   3.019   4.516  0.7063  0.3314 -1.5781
  356DG     H14 8179   4.262   2.855   4.437  1.2289  0.4467 -0.6318
  356DG     H15 8180   4.754   3.028   4.690  1.2361 -0.4233 -0.9082
  356DG     H16 8181   4.861   3.077   4.569  1.0710  1.1471  1.3430
  356DG     C17 8182   4.447   2.963   4.435 -0.4939 -0.2631 -0.0503
  356DG     C18 8183   4.662   3.049   4.491 -0.2112  0.0415 -0.4310
  356DG     O19 8184   4.525   3.042   4.529 -0.1776  1.0532 -0.2373
  356DG     H20 8185   4.428   3.010   4.338  3.2221 -0.3295 -0.9797
  356DG     H21 8186   4.503   2.872   4.414  1.1096  0.6874 -0.1125
  356DG     H22 8187   4.667   3.116   4.405 -0.1164  0.7284  0.0924
  356DG     H23 8188   4.690   2.947   4.465  2.0243  0.1357  1.2791
  357DG      C1 8189   0.873   4.364   5.198 -0.5496  0.6897  0.2529
  357DG      C2 8190   0.249   4.228   5.624 -0.2674  0.6354  1.0389
  357DG      H3 8191   0.915   4.436   5.268  0.8440 -1.0914  1.3366
  357DG      H4 8192   0.808   4.420   5.131 -1.2626 -1.9892 -1.4841
  357DG      H5 8193   0.957   4.321   5.142 -0.1191 -0.5757  1.8015
  357DG      H6 8194   0.143   4.220   5.599 -0.1427 -1.0385  0.9236
  357DG      H7 8195   0.259   4.124   5.657 -1.1476  0.6224  1.2826
  357DG      H8 8196   0.270   4.294   5.708  0.1123  1.7060  0.1212
  357DG      O9 8197   0.798   4.263   5.260 -0.0638 -0.2451 -0.4312
  357DG     O10 8198   0.330   4.255   5.512  0.1529 -0.6952 -0.2654
  357DG     C11 8199   0.734   4.163   5.183  0.6570 -0.1527  0.1829
  357DG     C12 8200   0.468   4.257   5.543 -0.5510  0.2758 -0.1710
  357DG     H13 8201   0.760   4.059   5.205  0.7857 -0.2471 -0.3875
  357DG     H14 8202   0.759   4.169   5.077 -1.1436 -0.1820 -0.2735
  357DG     H15 8203   0.491   4.156   5.575 -0.0065  0.8451  1.3391
  357DG     H16 8204   0.491   4.319   5.629 -2.0700  0.3847  0.1757
  357DG     C17 8205   0.585   4.186   5.195 -0.5137 -0.1629 -0.4950
  357DG     C18 8206   0.566   4.269   5.423  0.0352 -0.0516 -0.4206
  357DG     O19 8207   0.551   4.159   5.331  0.3938 -0.1537 -0.7250
  357DG     H20 8208   0.541   4.115   5.126 -0.6107 -1.3656  0.7582
  357DG     H21 8209   0.559   4.283   5.152  2.2984  0.9333  0.0888
  357DG     H22 8210   0.538   4.356   5.365 -0.0529 -0.8844 -1.6558
  357DG     H23 8211   0.667   4.277   5.462  0.9272 -2.3119 -2.0678
  358DG      C1 8212   2.341   0.610   2.206  0.6412 -0.3546  0.4225
  358DG      C2 8213   1.827   0.771   2.806  0.7666  0.7191 -0.5586
  358DG      H3 8214   2.449   0.616   2.188  0.4195 -3.0535 -2.5471
  358DG      H4 8215   2.280   0.647   2.124 -0.1088  1.9334  1.8929
  358DG      H5 8216   2.331   0.503   2.218 -1.6653 -0.2388 -0.1689
  358DG      H6 8217   1.785   0.871   2.818 -3.2509 -0.7282 -1.0043
  358DG      H7 8218   1.748   0.702   2.776  1.6322 -0.7089  0.2923
  358DG      H8 8219   1.857   0.742   2.907 -0.2053 -0.6120 -0.6259
  358DG      O9 8220   2.302   0.679   2.328  0.1568  0.1211  0.4015
  358DG     O10 8221   1.930   0.777   2.718 -0.5306  0.4003  0.6343
  358DG     C11 8222   2.166   0.661   2.373  0.5085  0.4959  0.0272
  358DG     C12 8223   2.039   0.858   2.758 -0.1789  0.1905  0.5613
  358DG     H13 8224   2.162   0.580   2.446  1.7188 -0.8556 -1.3289
  358DG     H14 8225   2.104   0.633   2.288 -0.4992  0.8161  0.6413
  358DG     H15 8226   2.102   0.803   2.828  0.5715  0.1722 -0.1116
  358DG     H16 8227   1.995   0.947   2.802  0.1769  0.1758  0.9505
  358DG     C17 8228   2.104   0.788   2.439  0.6605  0.1545  0.0374
  358DG     C18 8229   2.129   0.905   2.645 -0.5563 -0.5341 -0.3301
  358DG     O19 8230   2.168   0.797   2.559 -0.1555 -0.2142  0.1862
  358DG     H20 8231   1.997   0.771   2.451  0.1093  2.2261 -1.2674
  358DG     H21 8232   2.104   0.876   2.374 -1.0767  0.1905  0.0332
  358DG     H22 8233   2.081   0.982   2.585  1.4586  1.4161  0.4173
  358DG     H23 8234   2.218   0.943   2.696 -1.4744  1.2923 -0.0250
  359DG      C1 8235   2.532   1.648   0.223  0.3188  0.7332 -0.0797
  359DG      C2 8236   2.181   2.228   0.246  0.1821 -0.5516  0.6489
  359DG      H3 8237   2.559   1.553   0.177  0.3653  1.5916 -1.9319
  359DG      H4 8238   2.565   1.646   0.327  0.9227  0.1632 -0.2784
  359DG      H5 8239   2.592   1.732   0.189 -0.4364  0.7747 -1.3637
  359DG      H6 8240   2.259   2.286   0.295 -0.8843  1.6140 -0.0475
  359DG      H7 8241   2.208   2.248   0.142 -1.2466  1.6989  0.6260
  359DG      H8 8242   2.085   2.278   0.260 -0.7445 -1.9715 -0.4093
  359DG      O9 8243   2.393   1.690   0.217 -0.1238  0.1801 -0.3349
  359DG     O10 8244   2.179   2.088   0.260 -0.3026 -0.5544 -0.8726
  359DG     C11 8245   2.302   1.606   0.289 -0.1414  0.4658  0.1171
  359DG     C12 8246   2.136   2.038   0.388 -0.1150  0.3514  0.2643
  359DG     H13 8247   2.357   1.583   0.380 -0.7624  0.5857  0.5268
  359DG     H14 8248   2.284   1.508   0.246 -0.8487  0.3411  0.6780
  359DG     H15 8249   2.050   2.092   0.429 -0.8736  1.3207 -2.3836
  359DG     H16 8250   2.217   2.046   0.460  0.1114  0.3567  0.0135
  359DG     C17 8251   2.171   1.685   0.327 -0.4163  0.1940  0.1969
  359DG     C18 8252   2.088   1.894   0.381  0.6737 -0.5817  0.5056
  359DG     O19 8253   2.208   1.826   0.354  0.1754 -0.0207  0.1491
  359DG     H20 8254   2.132   1.637   0.416 -0.7649 -0.6636 -0.3987
  359DG     H21 8255   2.090   1.678   0.255  0.0943  0.0073 -0.3745
  359DG     H22 8256   2.045   1.850   0.471 -0.6742 -0.7482 -0.1950
  359DG     H23 8257   2.018   1.887   0.298  0.0144 -0.2176  1.0244
  360DG      C1 8258   3.639   2.073   1.534  0.0144 -0.3398 -0.4173
  360DG      C2 8259   3.918   2.493   1.927 -0.3982  0.1960  0.0929
  360DG      H3 8260   3.573   2.031   1.459 -0.3703  1.2366 -1.0121
  360DG      H4 8261   3.635   2.012   1.624 -3.9344  1.9246  1.2080
  360DG      H5 8262   3.744   2.076   1.502 -0.2239 -0.9853 -1.2739
  360DG      H6 8263   4.011   2.550   1.929 -0.9259  1.1129 -0.8356
  360DG      H7 8264   3.880   2.488   2.029  0.4691 -0.4178  0.4091
  360DG      H8 8265   3.944   2.397   1.880  0.1366  0.7063 -0.6782
  360DG      O9 8266   3.585   2.203   1.567 -0.2498 -0.0809  0.2254
  360DG     O10 8267   3.822   2.571   1.855  0.3929  0.3473 -0.3551
  360DG     C11 8268   3.604   2.304   1.470  0.6686  0.0656  0.2249
  360DG     C12 8269   3.687   2.520   1.877 -0.1728  0.2482  0.8514
  360DG     H13 8270   3.545   2.279   1.382 -0.1308 -1.0473  1.0528
  360DG     H14 8271   3.709   2.287   1.447  0.4992  0.1955 -0.6800
  360DG     H15 8272   3.654   2.568   1.969 -0.6854  1.4597  0.0668
  360DG     H16 8273   3.691   2.413   1.892  1.9822  0.2196  0.4131
  360DG     C17 8274   3.578   2.455   1.521 -0.2536  0.8595  0.0103
  360DG     C18 8275   3.614   2.546   1.745  0.1476  0.2244  0.0898
  360DG     O19 8276   3.659   2.460   1.639 -0.2134 -0.2930 -0.0566
  360DG     H20 8277   3.474   2.481   1.540  0.0187  0.9162  1.4964
  360DG     H21 8278   3.613   2.520   1.440  2.5707 -1.7488 -1.0623
  360DG     H22 8279   3.506   2.544   1.761  0.2234  1.4853  0.9642
  360DG     H23 8280   3.633   2.644   1.700 -2.8691  0.1977 -1.5495
  361DG      C1 8281   0.880   2.044   0.898 -0.8668 -0.4895  0.5209
  361DG      C2 8282   0.939   2.524   0.733  0.3501  0.2407  0.2490
  361DG      H3 8283   0.877   2.111   0.984  0.0019 -0.0139  0.1935
  361DG      H4 8284   0.970   2.070   0.842 -1.2677  0.6017  0.3739
  361DG      H5 8285   0.892   1.943   0.938 -1.3996 -0.9341 -0.4158
  361DG      H6 8286   0.940   2.530   0.842 -0.9072  0.0463  0.2865
  361DG      H7 8287   1.008   2.600   0.696 -1.6630  2.1431  0.2280
  361DG      H8 8288   0.837   2.549   0.705  0.5356 -0.1734 -0.8642
  361DG      O9 8289   0.771   2.041   0.816 -0.1328 -0.2431 -0.3343
  361DG     O10 8290   0.986   2.399   0.682  0.2272  0.2296  0.0586
  361DG     C11 8291   0.785   1.977   0.689 -0.3592  0.2853  0.0135
  361DG     C12 8292   0.929   2.380   0.551 -0.0387  0.4861 -0.5836
  361DG     H13 8293   0.687   1.934   0.666 -1.2306  1.3273  1.5477
  361DG     H14 8294   0.853   1.893   0.702 -0.2526  0.3499 -0.1337
  361DG     H15 8295   0.965   2.454   0.480  1.4466  0.3427 -0.0029
  361DG     H16 8296   0.820   2.386   0.557 -0.4805 -3.3609 -1.5786
  361DG     C17 8297   0.832   2.073   0.582  0.3355 -0.2177 -0.4336
  361DG     C18 8298   0.988   2.244   0.515 -0.0624  0.0972 -0.5374
  361DG     O19 8299   0.959   2.136   0.612  0.3764 -0.2338  0.5849
  361DG     H20 8300   0.752   2.144   0.559 -0.5277 -0.7960  0.6708
  361DG     H21 8301   0.835   2.010   0.494  1.0002 -0.1791 -0.4417
  361DG     H22 8302   0.962   2.217   0.413  1.9238 -0.3171 -0.9756
  361DG     H23 8303   1.095   2.260   0.527 -0.5444  2.1907  1.8972
  362DG      C1 8304   5.128   4.329   3.801 -0.5606  0.0049 -0.0920
  362DG      C2 8305   4.936   3.718   3.913  0.1391  0.3202 -0.1066
  362DG      H3 8306   5.202   4.353   3.877 -1.3836  3.7775 -0.3008
  362DG      H4 8307   5.040   4.377   3.845  0.0238  1.6425 -0.6346
  362DG      H5 8308   5.157   4.387   3.714  1.5535  0.7554  1.0710
  362DG      H6 8309   4.840   3.767   3.928 -0.5271 -1.2365  1.0317
  362DG      H7 8310   4.953   3.720   3.805 -0.3324  0.9250 -0.1769
  362DG      H8 8311   4.923   3.613   3.938 -0.8243  0.5232  0.2852
  362DG      O9 8312   5.119   4.183   3.778 -0.2918  0.0736  0.0750
  362DG     O10 8313   5.039   3.777   3.990  0.7771 -0.1132  0.0181
  362DG     C11 8314   5.240   4.123   3.722  0.2293 -0.0042  0.1676
  362DG     C12 8315   5.170   3.725   3.973  0.2578 -0.1425 -0.3541
  362DG     H13 8316   5.316   4.169   3.785 -1.2845  0.4123  1.7912
  362DG     H14 8317   5.255   4.162   3.621 -1.2156 -0.7358 -0.3612
  362DG     H15 8318   5.179   3.617   3.979  1.7067 -0.1458 -1.8386
  362DG     H16 8319   5.231   3.755   4.059  0.5102 -3.7569  0.9140
  362DG     C17 8320   5.256   3.972   3.714 -0.1328 -0.3937  0.3594
  362DG     C18 8321   5.239   3.782   3.851 -0.0457 -0.2464  0.5586
  362DG     O19 8322   5.225   3.919   3.843 -0.5869 -0.0898  0.0054
  362DG     H20 8323   5.359   3.950   3.687 -0.8331 -2.6062 -0.8070
  362DG     H21 8324   5.182   3.950   3.637 -1.2937  1.4158  0.8910
  362DG     H22 8325   5.345   3.757   3.857 -0.2498 -1.0749  0.8144
  362DG     H23 8326   5.217   3.738   3.754  0.6154  0.9580 -0.1591
  363DG      C1 8327   5.126   2.139   5.135 -0.6969  0.2297  0.3832
  363DG      C2 8328   5.076   1.502   5.644 -0.1420  0.6665  0.4186
  363DG      H3 8329   5.052   2.183   5.203 -1.4443 -0.8649  0.2980
  363DG      H4 8330   5.069   2.087   5.059  0.3109  1.0630 -0.9818
  363DG      H5 8331   5.175   2.228   5.095 -2.7870  0.6284 -1.4674
  363DG      H6 8332   5.113   1.409   5.686 -0.3779  0.9892  1.3593
  363DG      H7 8333   5.040   1.551   5.735 -0.5824 -0.8389  1.0774
  363DG      H8 8334   4.990   1.481   5.580  1.5217  0.7480 -2.0139
  363DG      O9 8335   5.240   2.067   5.186  0.3119 -0.2730  0.0279
  363DG     O10 8336   5.184   1.567   5.575 -0.2865  0.7809  0.1524
  363DG     C11 8337   5.209   1.957   5.261  0.0384  0.5281  0.2268
  363DG     C12 8338   5.163   1.706   5.568  0.2164  0.1272  0.2263
  363DG     H13 8339   5.139   1.895   5.205  1.4352  1.4364 -2.6771
  363DG     H14 8340   5.160   1.993   5.352 -0.4712  1.3082 -0.3438
  363DG     H15 8341   5.140   1.751   5.665 -1.4744 -0.6768  0.2198
  363DG     H16 8342   5.078   1.740   5.509  0.6717  2.0080  0.5595
  363DG     C17 8343   5.330   1.875   5.290 -0.3608 -0.1626  0.0959
  363DG     C18 8344   5.287   1.779   5.514 -0.3958 -0.3616  0.2311
  363DG     O19 8345   5.307   1.760   5.373  0.3814  0.4570  0.2576
  363DG     H20 8346   5.409   1.943   5.323  0.9567 -0.0842 -2.8690
  363DG     H21 8347   5.367   1.839   5.194  1.6880 -0.7951  1.0590
  363DG     H22 8348   5.265   1.879   5.550 -0.1814 -0.1425 -0.2364
  363DG     H23 8349   5.372   1.741   5.572 -0.8415 -1.2710  0.3051
  364DG      C1 8350   0.996   3.374   1.985  0.0201 -0.3888 -0.1662
  364DG      C2 8351   1.005   2.689   1.920 -1.0607  0.1892 -0.1050
  364DG      H3 8352   1.011   3.467   1.930 -0.3439 -0.8851 -1.1243
  364DG      H4 8353   1.073   3.354   2.060 -0.5513 -2.5450 -0.0817
  364DG      H5 8354   0.903   3.392   2.039  0.2618  0.8377 -0.1379
  364DG      H6 8355   0.922   2.647   1.976  0.6339 -0.5211  1.9915
  364DG      H7 8356   1.044   2.618   1.846 -2.0517  2.0010 -2.5249
  364DG      H8 8357   1.085   2.716   1.989 -0.4442 -1.1223 -0.2801
  364DG      O9 8358   0.984   3.266   1.902 -0.3525 -0.1935  0.1558
  364DG     O10 8359   0.964   2.809   1.866 -0.5217 -0.0932  0.0868
  364DG     C11 8360   0.890   3.289   1.795 -0.0725  0.0551 -0.1187
  364DG     C12 8361   0.872   2.808   1.757 -0.9219  0.1072 -0.5716
  364DG     H13 8362   0.899   3.382   1.739 -0.9423  0.0488 -0.2931
  364DG     H14 8363   0.791   3.278   1.841  0.3425 -1.9202  0.4231
  364DG     H15 8364   0.772   2.801   1.801 -0.5847  1.1712  0.4166
  364DG     H16 8365   0.898   2.719   1.699  2.0311 -0.9081  2.0278
  364DG     C17 8366   0.902   3.175   1.688  0.3678 -0.8841  0.5443
  364DG     C18 8367   0.887   2.932   1.670  0.2093  0.1293 -0.5223
  364DG     O19 8368   0.870   3.047   1.751 -0.1797  0.0434 -0.0245
  364DG     H20 8369   0.996   3.164   1.634  0.8667  0.6144  1.0587
  364DG     H21 8370   0.829   3.192   1.609 -0.1949  1.5776  1.4913
  364DG     H22 8371   0.979   2.921   1.613 -1.4710 -1.9777 -3.1110
  364DG     H23 8372   0.801   2.924   1.603 -1.7948 -3.5634  2.1507
  365DG      C1 8373   5.143   5.386   4.549  0.3963  0.1817 -0.1537
  365DG      C2 8374   5.316   5.893   4.909 -0.1727  0.2113 -0.5425
  365DG      H3 8375   5.084   5.306   4.504 -0.2616  0.0890  0.8335
  365DG      H4 8376   5.236   5.347   4.590 -0.0145  1.4231  2.1797
  365DG      H5 8377   5.166   5.457   4.471  0.5872 -0.0447 -0.3051
  365DG      H6 8378   5.408   5.840   4.885  0.2100  0.8170 -0.4007
  365DG      H7 8379   5.296   5.950   4.818  1.1495 -0.4907 -1.3189
  365DG      H8 8380   5.336   5.958   4.993  0.1605 -0.4797 -0.0750
  365DG      O9 8381   5.088   5.448   4.664 -0.2709  0.1487  0.5644
  365DG     O10 8382   5.214   5.798   4.916  0.5890 -0.1392 -0.0974
  365DG     C11 8383   4.953   5.470   4.652  0.6680 -0.2952  0.3644
  365DG     C12 8384   5.082   5.846   4.937  0.0956 -0.3727  1.0235
  365DG     H13 8385   4.896   5.381   4.628  0.6814  0.0669 -1.0958
  365DG     H14 8386   4.947   5.528   4.560 -1.5508 -0.3601  0.4022
  365DG     H15 8387   5.055   5.911   4.854  1.5322 -0.8774  0.1225
  365DG     H16 8388   5.080   5.902   5.031 -0.2806 -0.5189  1.1063
  365DG     C17 8389   4.908   5.555   4.778 -0.1206  0.1728  0.1009
  365DG     C18 8390   4.973   5.732   4.925 -0.0535  0.3485 -0.4897
  365DG     O19 8391   5.003   5.660   4.804  0.2402  0.3926 -0.0222
  365DG     H20 8392   4.898   5.497   4.870  0.3306  0.5243  0.3782
  365DG     H21 8393   4.813   5.599   4.749 -0.5046 -1.5739 -1.4204
  365DG     H22 8394   4.982   5.664   5.010  0.4893  1.7133  0.5887
  365DG     H23 8395   4.872   5.772   4.939 -0.0727  0.5095 -1.0726
  366DG      C1 8396   3.536   3.828   0.056  0.8830  1.0154 -0.3648
  366DG      C2 8397   2.894   3.809   0.302  0.4964  0.4653 -0.1593
  366DG      H3 8398   3.615   3.755   0.041 -0.5793 -0.5842 -0.5940
  366DG      H4 8399   3.477   3.796   0.142  0.4610 -1.0130 -1.3604
  366DG      H5 8400   3.572   3.931   0.055 -0.8429  1.6697  0.0372
  366DG      H6 8401   2.804   3.819   0.242  0.7753 -0.7680 -0.8141
  366DG      H7 8402   2.858   3.768   0.396 -0.4427 -0.7642 -1.0193
  366DG      H8 8403   2.930   3.909   0.326  0.4283  0.1421  1.3974
  366DG      O9 8404   3.447   3.817  -0.054 -0.5925 -0.2119 -0.5949
  366DG     O10 8405   2.991   3.727   0.234 -0.5670 -0.0669  0.4351
  366DG     C11 8406   3.426   3.684  -0.096  0.2873  0.2498  0.1435
  366DG     C12 8407   3.042   3.798   0.116  0.3917 -0.2673  0.2805
  366DG     H13 8408   3.413   3.612  -0.015  1.3027  0.2933  0.3585
  366DG     H14 8409   3.491   3.642  -0.173 -1.7222 -0.7829 -1.0581
  366DG     H15 8410   3.093   3.891   0.140  2.4820 -1.0973 -0.6586
  366DG     H16 8411   2.969   3.816   0.036  0.1502  3.0853  1.1036
  366DG     C17 8412   3.293   3.711  -0.165  0.2765 -0.4665  0.1987
  366DG     C18 8413   3.147   3.716   0.043 -0.3162  0.5880  0.1947
  366DG     O19 8414   3.191   3.775  -0.083  0.3038 -0.1253 -0.8924
  366DG     H20 8415   3.250   3.620  -0.207  0.9545 -0.5314 -0.3708
  366DG     H21 8416   3.294   3.778  -0.251 -0.3217  0.4592  0.8903
  366DG     H22 8417   3.241   3.724   0.097 -0.1478  2.7762 -0.3452
  366DG     H23 8418   3.117   3.612   0.032  3.1778 -0.6278  0.9337
  367DG      C1 8419   3.257   1.832   1.502 -0.0451  0.0134  0.3731
  367DG      C2 8420   2.881   1.992   1.022  0.2784 -0.6154  0.2513
  367DG      H3 8421   3.328   1.788   1.431 -0.7750  1.0104 -1.0182
  367DG      H4 8422   3.178   1.757   1.502  2.1836 -2.4989  0.8378
  367DG      H5 8423   3.294   1.838   1.604  1.2717  0.2309 -0.0985
  367DG      H6 8424   2.862   1.885   1.031  1.1733 -0.9549 -1.4843
  367DG      H7 8425   2.781   2.029   1.001  0.3298 -0.3725  0.4367
  367DG      H8 8426   2.939   2.011   0.931  0.3306 -0.3254  0.3452
  367DG      O9 8427   3.211   1.959   1.467  0.9786  0.2374  0.2811
  367DG     O10 8428   2.926   2.063   1.135 -0.0514 -0.0424 -0.1975
  367DG     C11 8429   3.294   2.067   1.434 -0.2079 -0.4174  0.1693
  367DG     C12 8430   2.992   2.185   1.104 -1.1086 -0.3907 -0.3542
  367DG     H13 8431   3.370   2.033   1.364  0.7587 -0.1504  1.0626
  367DG     H14 8432   3.357   2.089   1.520  1.8694 -0.6088 -1.2241
  367DG     H15 8433   2.923   2.259   1.064  0.2658  1.4944  0.6299
  367DG     H16 8434   3.082   2.182   1.042  0.3872 -1.1864  1.7532
  367DG     C17 8435   3.213   2.188   1.379  0.0404  0.5534  0.1286
  367DG     C18 8436   3.038   2.240   1.236 -0.4418  0.3012 -0.8707
  367DG     O19 8437   3.127   2.144   1.280  0.0726  0.3624  0.1619
  367DG     H20 8438   3.298   2.246   1.341  0.6819  0.6021  1.5688
  367DG     H21 8439   3.164   2.253   1.450 -0.8623 -0.5305  0.5197
  367DG     H22 8440   3.098   2.329   1.216 -0.2476  0.6281  0.9617
  367DG     H23 8441   2.954   2.257   1.305 -0.1175 -0.0735 -0.3755
  368DG      C1 8442   0.033   3.375   1.004 -0.4317  0.5035 -0.9478
  368DG      C2 8443  -0.174   3.947   1.282 -0.3804 -0.3419  0.3688
  368DG      H3 8444   0.075   3.343   0.909  0.2298  0.5386 -0.6763
  368DG      H4 8445  -0.037   3.300   1.039  0.0338  0.6790  0.4275
  368DG      H5 8446   0.118   3.386   1.073 -0.7616 -1.8398 -0.0933
  368DG      H6 8447  -0.280   3.971   1.296 -0.2332  0.7580 -0.2347
  368DG      H7 8448  -0.135   3.889   1.365 -0.5529  0.9942  1.4349
  368DG      H8 8449  -0.101   4.027   1.270  1.9525 -2.3942  0.2556
  368DG      O9 8450  -0.014   3.503   0.970  0.0980 -0.5010  0.3869
  368DG     O10 8451  -0.163   3.873   1.161  0.1379 -0.5423 -0.2587
  368DG     C11 8452  -0.108   3.505   0.864  0.1631 -0.4507  0.2097
  368DG     C12 8453  -0.255   3.914   1.061 -0.2050  0.1963  0.2339
  368DG     H13 8454  -0.200   3.449   0.883 -2.1936  2.7304 -0.8287
  368DG     H14 8455  -0.063   3.457   0.778 -0.3738 -0.1583 -0.2381
  368DG     H15 8456  -0.270   4.020   1.040 -0.1411  0.1622  0.0134
  368DG     H16 8457  -0.356   3.876   1.072 -0.5127  0.6434 -0.9135
  368DG     C17 8458  -0.130   3.655   0.836  0.7039 -0.3289  0.1414
  368DG     C18 8459  -0.214   3.848   0.928 -0.5588 -0.1093 -0.2253
  368DG     O19 8460  -0.174   3.717   0.959 -0.5225  0.1714  0.0210
  368DG     H20 8461  -0.202   3.671   0.755 -2.1539 -0.6078  2.4721
  368DG     H21 8462  -0.032   3.696   0.813  1.2194 -1.2240  0.6972
  368DG     H22 8463  -0.299   3.851   0.859 -1.7683  0.9658  1.2323
  368DG     H23 8464  -0.128   3.898   0.883 -0.4058  0.4190  0.6263
  369DG      C1 8465   4.121   0.316   1.091 -0.3810 -0.4201 -0.1245
  369DG      C2 8466   4.003   0.910   0.818  0.1078  0.7357 -0.0963
  369DG      H3 8467   4.021   0.336   1.129 -1.4593 -0.9666 -2.5202
  369DG      H4 8468   4.193   0.366   1.156  0.2044  0.1888 -1.2161
  369DG      H5 8469   4.149   0.212   1.075  2.7110  0.0001  1.6466
  369DG      H6 8470   4.101   0.957   0.807  0.3630  0.2390  0.0518
  369DG      H7 8471   3.931   0.961   0.753  0.7793  1.4099 -0.3290
  369DG      H8 8472   3.975   0.912   0.923 -1.9174 -1.1095 -0.5270
  369DG      O9 8473   4.130   0.372   0.959  0.5637 -0.2387  0.1427
  369DG     O10 8474   4.001   0.773   0.774  0.1223 -0.1012 -0.5794
  369DG     C11 8475   4.046   0.293   0.866 -0.1293  0.0806 -0.4480
  369DG     C12 8476   3.877   0.713   0.790  0.3741  0.2138  0.2270
  369DG     H13 8477   3.950   0.279   0.915 -0.0991  3.5921  0.9329
  369DG     H14 8478   4.076   0.189   0.853 -4.0492 -1.4038  0.8964
  369DG     H15 8479   3.791   0.763   0.748  1.5127  1.8843 -0.2039
  369DG     H16 8480   3.855   0.699   0.896 -1.6098  1.3032 -0.0040
  369DG     C17 8481   4.028   0.372   0.739  0.2993 -0.0779 -0.0626
  369DG     C18 8482   3.894   0.571   0.735  0.8536 -0.5668  0.1274
  369DG     O19 8483   4.020   0.511   0.756 -0.4229 -0.3048 -0.4888
  369DG     H20 8484   3.942   0.324   0.692 -0.4174 -0.0403  1.1668
  369DG     H21 8485   4.120   0.357   0.682  1.2620  0.1703  1.3702
  369DG     H22 8486   3.825   0.496   0.774  1.3612 -0.5034  1.2010
  369DG     H23 8487   3.892   0.578   0.626  2.5730  1.2443  0.1680
  370DG      C1 8488   2.032   1.533   2.752 -0.7646  0.5827  0.7056
  370DG      C2 8489   2.591   1.344   3.164 -0.4728 -1.1018  0.3608
  370DG      H3 8490   2.020   1.558   2.857  1.4269 -0.2106  1.1929
  370DG      H4 8491   1.971   1.452   2.712 -0.4434  1.5336 -1.9285
  370DG      H5 8492   1.990   1.612   2.690  0.0310  0.2948 -0.2362
  370DG      H6 8493   2.584   1.431   3.229  1.1715  0.8146 -1.8327
  370DG      H7 8494   2.530   1.257   3.188 -1.3579 -0.8197 -0.7517
  370DG      H8 8495   2.697   1.317   3.171 -0.6503 -1.6117  1.1980
  370DG      O9 8496   2.170   1.510   2.721 -0.2012 -0.1780  0.1495
  370DG     O10 8497   2.562   1.383   3.035 -0.3609 -0.2283 -0.0872
  370DG     C11 8498   2.243   1.630   2.737  0.6529  0.3015  0.3839
  370DG     C12 8499   2.627   1.500   2.980 -0.0740 -0.0287 -0.6091
  370DG     H13 8500   2.218   1.684   2.829 -0.3087  2.2835 -0.9654
  370DG     H14 8501   2.216   1.689   2.649 -1.2448 -0.1812  0.6010
  370DG     H15 8502   2.735   1.489   2.984  0.0733  1.5415  1.7209
  370DG     H16 8503   2.608   1.589   3.038  2.7198  0.4175 -0.2255
  370DG     C17 8504   2.389   1.608   2.710 -0.4416  0.1444 -0.1610
  370DG     C18 8505   2.584   1.520   2.829 -0.3915 -0.6586 -0.3865
  370DG     O19 8506   2.444   1.558   2.833 -0.3183 -0.1879  0.1090
  370DG     H20 8507   2.432   1.702   2.677 -0.6876  0.9728  1.7639
  370DG     H21 8508   2.400   1.536   2.630  0.3055  0.3243 -0.2236
  370DG     H22 8509   2.645   1.601   2.789  2.0737 -2.9497 -1.5995
  370DG     H23 8510   2.615   1.435   2.770  1.6767  0.6277 -1.2618
  371DG      C1 8511   0.042   0.758   4.685 -0.6005 -0.5169 -0.3961
  371DG      C2 8512  -0.383   1.331   4.563 -0.2278  0.1039  0.2919
  371DG      H3 8513  -0.006   0.678   4.628 -0.8212 -2.2323  2.0730
  371DG      H4 8514   0.004   0.762   4.787  0.2762  0.7303 -0.0843
  371DG      H5 8515   0.149   0.740   4.689 -0.2321  1.5407  0.4452
  371DG      H6 8516  -0.378   1.365   4.667  0.7789 -0.9787  0.6248
  371DG      H7 8517  -0.414   1.413   4.499  1.0095  0.1259 -0.2993
  371DG      H8 8518  -0.468   1.262   4.564 -0.2308  0.1043  0.1245
  371DG      O9 8519   0.013   0.878   4.615  0.1006  0.2061 -0.1472
  371DG     O10 8520  -0.264   1.276   4.522  0.5019 -0.1690 -0.1346
  371DG     C11 8521   0.065   0.875   4.480  0.1834 -0.3746  0.7054
  371DG     C12 8522  -0.266   1.215   4.390 -0.2683 -0.5916 -0.3018
  371DG     H13 8523   0.010   0.806   4.416 -1.2387 -0.6966  2.2069
  371DG     H14 8524   0.169   0.844   4.473  0.7766  1.3582  1.2897
  371DG     H15 8525  -0.294   1.299   4.326  0.4332 -0.1003  0.0259
  371DG     H16 8526  -0.343   1.138   4.381 -1.6661  0.5607  1.1021
  371DG     C17 8527   0.043   1.020   4.424  0.0563  0.6178 -0.3386
  371DG     C18 8528  -0.121   1.167   4.352  0.6396 -0.5901 -0.7397
  371DG     O19 8529  -0.087   1.065   4.441 -0.5487 -0.4252  0.1561
  371DG     H20 8530   0.080   1.014   4.321 -0.2450 -0.5669 -0.3854
  371DG     H21 8531   0.115   1.088   4.470  1.2525 -1.1554  0.5043
  371DG     H22 8532  -0.115   1.140   4.247 -0.1286 -0.6406 -0.7805
  371DG     H23 8533  -0.053   1.250   4.371 -1.9989  1.4122  0.6906
  372DG      C1 8534   0.236   1.124   1.771 -0.1717 -0.3932  0.5649
  372DG      C2 8535   0.243   0.739   1.126  0.0810 -0.1936 -0.1859
  372DG      H3 8536   0.277   1.067   1.855  2.1654  0.0636 -0.1850
  372DG      H4 8537   0.185   1.207   1.819  1.8923  1.2204  0.1193
  372DG      H5 8538   0.314   1.167   1.708  0.2865 -1.8908  0.0619
  372DG      H6 8539   0.232   0.809   1.043 -1.2591 -0.4165 -0.2281
  372DG      H7 8540   0.344   0.704   1.146  0.6136  1.5756  0.4326
  372DG      H8 8541   0.178   0.654   1.103 -0.8046  0.7839 -1.4724
  372DG      O9 8542   0.141   1.051   1.701  0.1866 -0.3043 -0.5517
  372DG     O10 8543   0.199   0.794   1.247 -0.6115 -0.1857 -0.0171
  372DG     C11 8544   0.066   1.139   1.614  0.4447  0.0508 -0.1954
  372DG     C12 8545   0.285   0.885   1.302 -0.0649 -0.0827 -0.2638
  372DG     H13 8546   0.119   1.229   1.583  0.2421  0.2708  0.0947
  372DG     H14 8547  -0.013   1.167   1.684  1.0535  0.3113  0.4018
  372DG     H15 8548   0.304   0.966   1.231 -0.4140 -0.8440 -1.2530
  372DG     H16 8549   0.387   0.850   1.318  0.2169  0.9721  0.3699
  372DG     C17 8550   0.012   1.049   1.501 -0.1881  0.3201  0.1053
  372DG     C18 8551   0.217   0.939   1.429 -0.4313 -0.1319 -0.1187
  372DG     O19 8552   0.096   1.006   1.392 -0.1722  0.4824 -0.0525
  372DG     H20 8553  -0.061   1.120   1.462 -1.0685 -0.5314  0.1687
  372DG     H21 8554  -0.037   0.959   1.537  1.9121 -0.9527 -0.0379
  372DG     H22 8555   0.190   0.853   1.489 -1.9350 -0.3877 -1.1118
  372DG     H23 8556   0.280   1.013   1.478  0.3521 -1.5852  1.1401
  373DG      C1 8557   1.359   1.341   0.391 -0.2710 -0.2305  0.4542
  373DG      C2 8558   1.289   2.012   0.533 -0.4524 -0.3869 -0.0740
  373DG      H3 8559   1.292   1.322   0.475 -1.8153  3.3635  0.2521
  373DG      H4 8560   1.462   1.350   0.424 -0.3243 -2.2693  1.3094
  373DG      H5 8561   1.349   1.263   0.316  2.4366  0.0618 -0.3171
  373DG      H6 8562   1.394   1.987   0.552 -0.2369 -0.0786 -0.8159
  373DG      H7 8563   1.285   2.111   0.487 -1.0605 -0.0854  0.6139
  373DG      H8 8564   1.238   2.035   0.627 -0.1258 -1.3394  0.3469
  373DG      O9 8565   1.324   1.457   0.320 -0.2144  0.6884  0.6322
  373DG     O10 8566   1.236   1.911   0.447  0.4120  0.1061 -0.1948
  373DG     C11 8567   1.197   1.462   0.260 -0.7071 -0.4480  0.8254
  373DG     C12 8568   1.104   1.916   0.403  0.1472 -0.1994  0.2558
  373DG     H13 8569   1.125   1.433   0.337 -2.0273  1.9937  0.5821
  373DG     H14 8570   1.190   1.384   0.184 -1.3139  0.4973 -0.1106
  373DG     H15 8571   1.093   2.018   0.366  0.4801 -0.3263 -0.1923
  373DG     H16 8572   1.037   1.922   0.489  1.6613  1.5205  1.3915
  373DG     C17 8573   1.146   1.603   0.214  1.0812 -0.2555  0.2294
  373DG     C18 8574   1.073   1.806   0.300  0.8874  0.1894  0.5219
  373DG     O19 8575   1.146   1.687   0.328 -0.0840 -0.1321  0.0438
  373DG     H20 8576   1.047   1.596   0.169  0.2546 -0.6408  2.0392
  373DG     H21 8577   1.192   1.642   0.123 -0.5648 -1.4753 -1.2009
  373DG     H22 8578   0.967   1.781   0.293  1.0791 -0.4654 -0.1895
  373DG     H23 8579   1.095   1.847   0.202 -0.3190  1.4582  0.7518
  374DG      C1 8580   4.584   0.842   3.216  0.4597 -0.3921  0.5112
  374DG      C2 8581   4.673   0.482   3.823  0.4544  0.4655  0.2791
  374DG      H3 8582   4.615   0.941   3.183 -0.7932 -0.1738 -0.0477
  374DG      H4 8583   4.531   0.860   3.309  1.0526  1.3374  0.5474
  374DG      H5 8584   4.522   0.797   3.139  1.1674  0.0271 -0.3262
  374DG      H6 8585   4.616   0.549   3.889 -0.7222 -1.2512  1.0773
  374DG      H7 8586   4.602   0.407   3.789  0.5635  1.0795 -1.3601
  374DG      H8 8587   4.746   0.419   3.873 -0.2568 -0.1478  0.5714
  374DG      O9 8588   4.684   0.754   3.231 -0.0845  0.1152 -0.7582
  374DG     O10 8589   4.732   0.535   3.704 -0.0225  0.7274 -0.3113
  374DG     C11 8590   4.776   0.809   3.320 -0.9331  0.0522  0.2176
  374DG     C12 8591   4.781   0.441   3.616  0.2946  0.5157 -0.2469
  374DG     H13 8592   4.741   0.866   3.406 -2.0055 -1.4411  0.8331
  374DG     H14 8593   4.838   0.876   3.261  1.2436 -1.9076  0.1539
  374DG     H15 8594   4.701   0.379   3.575 -0.5344  1.9373 -0.8594
  374DG     H16 8595   4.846   0.381   3.680  0.1805  0.3063 -0.3304
  374DG     C17 8596   4.864   0.702   3.374 -0.2586 -0.6278 -0.1524
  374DG     C18 8597   4.866   0.515   3.507 -0.2064 -0.8782  0.1358
  374DG     O19 8598   4.778   0.613   3.444 -0.0454  0.1154  0.3272
  374DG     H20 8599   4.938   0.761   3.429 -0.1484  0.5296 -1.5032
  374DG     H21 8600   4.915   0.656   3.290 -1.8183 -0.7453 -1.0770
  374DG     H22 8601   4.949   0.559   3.561 -2.0179  4.0162 -0.6107
  374DG     H23 8602   4.909   0.444   3.436 -0.5225  0.9159 -1.9300
  375DG      C1 8603   5.215   4.686   4.749  0.7599  0.3535  0.3644
  375DG      C2 8604   5.567   4.395   5.344 -0.4930  0.1532  0.3840
  375DG      H3 8605   5.181   4.676   4.646 -1.6323 -0.4247  1.1573
  375DG      H4 8606   5.315   4.728   4.746  1.5756 -1.3625  1.5761
  375DG      H5 8607   5.151   4.766   4.786 -0.5519 -0.1100 -0.7827
  375DG      H6 8608   5.526   4.297   5.369 -0.9393  0.4681  0.8962
  375DG      H7 8609   5.673   4.411   5.363 -0.4667  0.3207  0.1015
  375DG      H8 8610   5.517   4.470   5.405 -1.0145  1.5097 -1.6051
  375DG      O9 8611   5.206   4.567   4.825  0.3136 -0.0321  0.2971
  375DG     O10 8612   5.537   4.440   5.211 -0.0500  0.1467  0.0498
  375DG     C11 8613   5.249   4.449   4.771  0.4243 -0.4269 -0.5603
  375DG     C12 8614   5.584   4.342   5.113  0.7142  0.6588 -0.6908
  375DG     H13 8615   5.224   4.433   4.667  2.8941  0.8522 -1.4303
  375DG     H14 8616   5.200   4.371   4.829 -3.2923  0.7990 -1.7457
  375DG     H15 8617   5.538   4.244   5.122  1.6536  0.0749 -1.9546
  375DG     H16 8618   5.691   4.331   5.130  0.5612  1.1269  0.7430
  375DG     C17 8619   5.395   4.432   4.797 -0.0455 -0.0774  0.0491
  375DG     C18 8620   5.565   4.395   4.970 -0.4198 -0.1903  0.1676
  375DG     O19 8621   5.429   4.426   4.941  0.4695 -0.0783 -0.3079
  375DG     H20 8622   5.442   4.514   4.742 -2.5685  1.4881  0.0807
  375DG     H21 8623   5.439   4.345   4.747  0.4396 -0.0515  0.4202
  375DG     H22 8624   5.631   4.474   4.935 -0.0126 -0.3683  0.5088
  375DG     H23 8625   5.591   4.311   4.905 -0.8338 -0.3931  0.2581
  376DG      C1 8626   4.925   0.067   1.033 -0.1264 -0.2608 -1.1135
  376DG      C2 8627   4.190   0.021   1.468 -0.2022 -0.7382  0.2285
  376DG      H3 8628   4.932  -0.037   1.002 -0.7172 -0.6069 -0.1134
  376DG      H4 8629   5.019   0.122   1.031 -1.1119  1.5969  0.5834
  376DG      H5 8630   4.858   0.121   0.966 -1.0250  0.6831  0.4939
  376DG      H6 8631   4.123  -0.060   1.441  0.1790 -0.9809  0.0001
  376DG      H7 8632   4.176   0.027   1.576 -0.5405 -2.4407  0.3059
  376DG      H8 8633   4.158   0.113   1.419  0.6186 -0.4966  0.1267
  376DG      O9 8634   4.881   0.047   1.166  0.0551 -0.4677 -0.4296
  376DG     O10 8635   4.327  -0.009   1.436 -0.1431  0.4343 -0.4683
  376DG     C11 8636   4.747   0.003   1.171  0.1489 -0.1530 -0.3373
  376DG     C12 8637   4.336  -0.055   1.306 -0.1467  0.3570 -0.3724
  376DG     H13 8638   4.740  -0.090   1.114  0.5037 -0.4210  0.0416
  376DG     H14 8639   4.676   0.075   1.130 -1.8682 -1.0768  1.3145
  376DG     H15 8640   4.310   0.027   1.239  1.9640  1.4433  0.0649
  376DG     H16 8641   4.276  -0.140   1.274  2.0934 -1.4163 -0.1131
  376DG     C17 8642   4.717  -0.026   1.315  0.1988 -0.1364 -0.0467
  376DG     C18 8643   4.485  -0.097   1.286 -0.0081  0.2785 -0.0461
  376DG     O19 8644   4.579   0.001   1.336  0.2944 -0.0379 -0.1238
  376DG     H20 8645   4.786   0.034   1.375  0.9636  2.6204 -3.4053
  376DG     H21 8646   4.746  -0.124   1.354  1.6252 -0.2332 -1.2857
  376DG     H22 8647   4.510  -0.189   1.339 -1.3300 -1.0581 -1.6616
  376DG     H23 8648   4.495  -0.114   1.179 -4.0215 -1.5189 -0.2932
  377DG      C1 8649   2.179   3.048   4.610 -0.4583  0.1705 -0.6458
  377DG      C2 8650   2.124   3.527   4.070 -0.6943  0.7832  0.3678
  377DG      H3 8651   2.142   3.115   4.687  1.4732 -0.4825  0.9604
  377DG      H4 8652   2.288   3.051   4.618 -0.6052  0.8600  2.0969
  377DG      H5 8653   2.143   2.954   4.653 -1.2603  0.3145 -0.9902
  377DG      H6 8654   2.224   3.515   4.028 -0.1447 -1.0903  2.0621
  377DG      H7 8655   2.056   3.443   4.056 -0.4620  0.7495 -0.6421
  377DG      H8 8656   2.077   3.626   4.066 -1.4010  0.5448  1.8470
  377DG      O9 8657   2.137   3.063   4.477  0.2490  0.4515  0.2467
  377DG     O10 8658   2.147   3.519   4.214 -0.2524  0.1493  0.3096
  377DG     C11 8659   1.998   3.090   4.467 -0.2439 -0.2545 -0.0650
  377DG     C12 8660   2.210   3.400   4.255  0.0493 -0.1901  0.0719
  377DG     H13 8661   1.962   3.165   4.538 -0.7593 -0.9060  0.3834
  377DG     H14 8662   1.934   3.003   4.485 -0.0508 -0.0415  1.8960
  377DG     H15 8663   2.223   3.413   4.363  0.8303  1.0424 -0.1457
  377DG     H16 8664   2.309   3.399   4.210 -0.0944  1.2442 -0.3447
  377DG     C17 8665   1.957   3.132   4.321 -0.0832  0.4941 -0.8958
  377DG     C18 8666   2.141   3.268   4.229 -0.3317  0.1844  0.3131
  377DG     O19 8667   2.016   3.264   4.295  0.2016 -0.9172 -0.1022
  377DG     H20 8668   1.849   3.141   4.310 -0.3271  1.7725  1.7632
  377DG     H21 8669   2.007   3.064   4.252 -0.9714  1.6087 -2.6864
  377DG     H22 8670   2.120   3.246   4.124 -3.1052 -0.8562  0.9885
  377DG     H23 8671   2.202   3.188   4.270 -2.1518  0.5577  4.2148
  378DG      C1 8672   2.243   3.432   0.480  0.0130  0.0164 -0.6050
  378DG      C2 8673   2.145   4.098   0.843 -0.1823  0.4286 -0.2020
  378DG      H3 8674   2.185   3.475   0.398 -0.3585 -1.5284 -1.1848
  378DG      H4 8675   2.217   3.328   0.499 -3.6999  1.1245  1.6288
  378DG      H5 8676   2.349   3.425   0.456  0.1243 -0.7219  0.0348
  378DG      H6 8677   2.247   4.129   0.824 -0.1366  0.1325 -0.4585
  378DG      H7 8678   2.097   4.127   0.749  0.5085 -3.9346 -2.1365
  378DG      H8 8679   2.101   4.138   0.935  1.4503  1.3977  0.1874
  378DG      O9 8680   2.213   3.485   0.611  0.3568 -0.1567 -0.4393
  378DG     O10 8681   2.123   3.953   0.829 -0.1529 -0.7433  0.0104
  378DG     C11 8682   2.078   3.496   0.655  0.1866  0.3211 -0.4617
  378DG     C12 8683   2.198   3.874   0.911  0.3465 -0.1666 -0.5253
  378DG     H13 8684   2.011   3.411   0.643 -0.0607  0.6531 -1.5858
  378DG     H14 8685   2.030   3.571   0.592 -0.2058  0.1364 -0.3858
  378DG     H15 8686   2.186   3.913   1.012  1.1674  0.9671 -0.8461
  378DG     H16 8687   2.303   3.879   0.882  1.7213 -0.6347  3.7626
  378DG     C17 8688   2.076   3.553   0.796  0.3331 -0.4435 -0.6681
  378DG     C18 8689   2.145   3.735   0.914 -0.1144 -0.2661  0.0185
  378DG     O19 8690   2.133   3.682   0.786  0.7454  0.1918 -0.3090
  378DG     H20 8691   2.119   3.481   0.865 -0.9875  0.4344  1.1314
  378DG     H21 8692   1.975   3.566   0.834  1.1205  0.0138  1.3944
  378DG     H22 8693   2.217   3.676   0.971 -1.9865 -1.1270  1.6333
  378DG     H23 8694   2.046   3.734   0.961 -1.0037  0.6653 -1.7408
  379DG      C1 8695   1.039   4.210   0.714 -0.4608  0.0566 -0.3838
  379DG      C2 8696   0.424   4.692   0.586 -0.5298  0.4416 -0.2950
  379DG      H3 8697   1.040   4.239   0.819 -0.1885 -3.1084  0.5912
  379DG      H4 8698   1.137   4.231   0.671 -0.3669  1.1871  0.3682
  379DG      H5 8699   1.011   4.106   0.698 -1.0889 -0.2539  2.3546
  379DG      H6 8700   0.421   4.778   0.519 -0.0987  0.1100 -0.7543
  379DG      H7 8701   0.322   4.656   0.596 -0.3534  0.2030  0.6810
  379DG      H8 8702   0.446   4.720   0.689 -2.4765  1.5934 -0.1415
  379DG      O9 8703   0.943   4.286   0.646 -0.0887  0.1623  0.1405
  379DG     O10 8704   0.501   4.589   0.523  0.1348  0.3052  0.1220
  379DG     C11 8705   0.924   4.253   0.511  0.1421  0.6433  0.5595
  379DG     C12 8706   0.525   4.472   0.594 -0.5506 -0.5521 -0.1180
  379DG     H13 8707   0.862   4.165   0.495 -1.8242  1.7845  1.5494
  379DG     H14 8708   1.014   4.228   0.455 -1.6414 -0.3191 -2.0887
  379DG     H15 8709   0.428   4.427   0.617 -0.5186  0.5396  2.5119
  379DG     H16 8710   0.569   4.493   0.692 -0.9975 -2.4139  0.5300
  379DG     C17 8711   0.850   4.365   0.435  0.3189 -0.7037 -0.3131
  379DG     C18 8712   0.617   4.370   0.516 -0.5468  0.2196 -0.0349
  379DG     O19 8713   0.743   4.433   0.505  0.1001 -0.1276 -0.4601
  379DG     H20 8714   0.828   4.335   0.332  0.3508 -1.4197 -0.1155
  379DG     H21 8715   0.925   4.444   0.433 -0.9886  0.6804  1.5119
  379DG     H22 8716   0.629   4.273   0.566 -1.6230  0.4048  0.6144
  379DG     H23 8717   0.576   4.355   0.416 -1.4067 -0.3664  0.3845
  380DG      C1 8718   0.593   2.195   3.418  0.1294 -0.3354  0.1362
  380DG      C2 8719   0.290   2.591   2.711 -0.0357  0.0227 -0.2400
  380DG      H3 8720   0.679   2.262   3.417  1.6944 -2.2186  1.0476
  380DG      H4 8721   0.609   2.117   3.492  0.6824  0.1383  0.5249
  380DG      H5 8722   0.503   2.241   3.458  0.3396  1.3218 -1.1895
  380DG      H6 8723   0.183   2.608   2.709  0.0058  0.3583  0.2227
  380DG      H7 8724   0.330   2.690   2.734 -2.4436  1.2881 -1.1352
  380DG      H8 8725   0.324   2.578   2.608  1.5644  4.0674 -0.3980
  380DG      O9 8726   0.564   2.152   3.285 -0.0419  1.0072  0.1073
  380DG     O10 8727   0.333   2.491   2.806  0.3379 -0.4130  0.1129
  380DG     C11 8728   0.510   2.261   3.212  0.2633 -0.2988 -0.2279
  380DG     C12 8729   0.454   2.420   2.767 -0.6281 -0.0527 -1.3886
  380DG     H13 8730   0.584   2.336   3.239  2.2193 -2.2266  0.0121
  380DG     H14 8731   0.408   2.277   3.247  0.5454 -0.8215  0.8790
  380DG     H15 8732   0.538   2.484   2.793 -2.4308  1.6798  0.6014
  380DG     H16 8733   0.456   2.388   2.663 -0.7552 -0.1518 -1.3622
  380DG     C17 8734   0.514   2.219   3.071  0.4367  0.9264 -0.0757
  380DG     C18 8735   0.480   2.284   2.854 -0.4444 -0.4083  0.1906
  380DG     O19 8736   0.494   2.326   2.987 -0.0299 -0.3520  0.4198
  380DG     H20 8737   0.447   2.135   3.049 -0.3240  2.2632 -3.4705
  380DG     H21 8738   0.619   2.191   3.065  0.2792  0.1326  0.7116
  380DG     H22 8739   0.391   2.224   2.836  0.1942 -1.1734 -0.5231
  380DG     H23 8740   0.564   2.228   2.813 -1.4146 -0.6112 -1.6305
  381DG      C1 8741   0.693   1.305   3.813 -0.5842  0.3593 -0.5550
  381DG      C2 8742   0.743   0.899   4.407  0.2273  0.4743  0.1123
  381DG      H3 8743   0.742   1.401   3.828 -1.8083  0.7022  1.6650
  381DG      H4 8744   0.601   1.308   3.872 -0.4855  3.4254 -0.3747
  381DG      H5 8745   0.667   1.309   3.707 -0.8682 -0.5567 -0.5316
  381DG      H6 8746   0.808   0.971   4.458 -0.0604  0.9345 -0.1677
  381DG      H7 8747   0.643   0.929   4.437  0.1974 -0.2378  0.7481
  381DG      H8 8748   0.767   0.800   4.446 -0.5865 -0.3793 -1.4891
  381DG      O9 8749   0.786   1.200   3.844  0.6190 -0.1595 -0.3281
  381DG     O10 8750   0.759   0.905   4.270 -0.0751  0.2707  0.7207
  381DG     C11 8751   0.735   1.069   3.793  1.0258  0.2651  0.4839
  381DG     C12 8752   0.889   0.906   4.224  0.0439 -0.4342  0.0360
  381DG     H13 8753   0.742   1.066   3.684 -3.5775 -0.8729 -0.0059
  381DG     H14 8754   0.627   1.054   3.798  0.7238  0.3478 -3.1042
  381DG     H15 8755   0.960   0.840   4.273 -0.0365 -0.3771  0.2309
  381DG     H16 8756   0.934   1.004   4.240 -0.1222 -0.3520  0.0048
  381DG     C17 8757   0.811   0.959   3.859  0.2489 -0.3066 -1.0008
  381DG     C18 8758   0.890   0.888   4.075 -0.8281  0.1409 -0.1400
  381DG     O19 8759   0.797   0.971   4.002  0.4177  0.3987  0.2238
  381DG     H20 8760   0.916   0.963   3.829  0.1952 -0.4341 -1.2071
  381DG     H21 8761   0.779   0.858   3.833  3.0847 -1.6165  0.1442
  381DG     H22 8762   0.994   0.899   4.044 -0.2978  1.7392  1.9582
  381DG     H23 8763   0.863   0.783   4.062 -0.5405 -0.0175  0.4934
  382DG      C1 8764   3.070   0.486   4.594 -0.1993 -0.0846 -0.4982
  382DG      C2 8765   3.551   0.271   4.065 -0.3724 -0.1359  0.3046
  382DG      H3 8766   2.977   0.445   4.554  0.4375 -2.0810 -0.0778
  382DG      H4 8767   3.057   0.590   4.622  1.8112  0.4024 -1.2131
  382DG      H5 8768   3.087   0.429   4.685  1.2803 -0.3600 -0.9224
  382DG      H6 8769   3.642   0.257   4.124 -1.1934  1.5968  2.1083
  382DG      H7 8770   3.497   0.176   4.068  0.0540 -0.3647  1.0413
  382DG      H8 8771   3.578   0.299   3.963 -0.7620  0.2051  0.2939
  382DG      O9 8772   3.178   0.488   4.505 -0.1720 -0.1039  0.0076
  382DG     O10 8773   3.467   0.371   4.106  0.4656  0.0251  0.0243
  382DG     C11 8774   3.155   0.556   4.388 -0.5752  0.4224 -0.1211
  382DG     C12 8775   3.349   0.393   4.033 -0.4789  0.4998  0.5806
  382DG     H13 8776   3.148   0.665   4.398 -0.5618  0.7016 -2.4349
  382DG     H14 8777   3.058   0.526   4.348  0.0731 -1.2665 -0.4935
  382DG     H15 8778   3.265   0.331   4.062 -1.0570  2.1075  2.5590
  382DG     H16 8779   3.366   0.372   3.927 -0.5463 -1.2882  0.8829
  382DG     C17 8780   3.268   0.530   4.287 -0.1725 -0.2051  0.0860
  382DG     C18 8781   3.319   0.539   4.055  0.0913 -0.1673  0.3874
  382DG     O19 8782   3.225   0.571   4.156  0.0217  0.5721 -0.3191
  382DG     H20 8783   3.286   0.423   4.298  2.9001  0.2972  0.8083
  382DG     H21 8784   3.355   0.588   4.319  0.2352 -0.2745 -0.8497
  382DG     H22 8785   3.407   0.603   4.065 -0.0726 -0.1234  1.5969
  382DG     H23 8786   3.281   0.587   3.964 -1.2960 -0.0622  1.0027
  383DG      C1 8787   2.247   0.004   5.475 -0.3612 -0.1142  0.0511
  383DG      C2 8788   2.852  -0.237   5.393  0.1644  0.1125 -0.0825
  383DG      H3 8789   2.229  -0.103   5.471  0.3598 -0.3009  1.2355
  383DG      H4 8790   2.157   0.059   5.448 -0.3701 -0.4444 -0.6046
  383DG      H5 8791   2.269   0.020   5.581 -0.9740  0.4717  0.0968
  383DG      H6 8792   2.867  -0.162   5.471 -0.6218 -0.4476  0.6187
  383DG      H7 8793   2.813  -0.323   5.447  1.3706  0.0853  0.7695
  383DG      H8 8794   2.946  -0.256   5.342 -0.2470  1.3551 -1.3893
  383DG      O9 8795   2.356   0.041   5.388  0.1855 -0.1881 -0.1478
  383DG     O10 8796   2.760  -0.192   5.291  0.1611 -0.2892  0.2032
  383DG     C11 8797   2.345   0.028   5.245 -0.0530 -0.2635  0.3028
  383DG     C12 8798   2.803  -0.073   5.222 -0.9689  0.2531 -0.2039
  383DG     H13 8799   2.262   0.092   5.214  1.0213  0.9270 -0.1813
  383DG     H14 8800   2.314  -0.075   5.223 -4.1021  0.7903  0.2203
  383DG     H15 8801   2.896  -0.086   5.166 -1.2143  2.1839 -1.1497
  383DG     H16 8802   2.835  -0.002   5.299 -1.1362 -0.2862  0.3625
  383DG     C17 8803   2.466   0.077   5.170 -0.2380  0.3603 -0.0531
  383DG     C18 8804   2.687  -0.004   5.145 -0.3132  0.1112  0.3619
  383DG     O19 8805   2.566  -0.001   5.224 -0.6067 -0.0234 -0.3388
  383DG     H20 8806   2.491   0.181   5.189  3.0716  0.0424 -1.9627
  383DG     H21 8807   2.455   0.072   5.062 -0.5065  2.2870 -0.1498
  383DG     H22 8808   2.705   0.099   5.112  0.8559 -0.1894  0.0095
  383DG     H23 8809   2.669  -0.056   5.051 -0.0443 -0.9623  0.8907
  384DG      C1 8810   2.940   1.155   4.435 -0.2076 -0.3114 -0.0270
  384DG      C2 8811   3.360   1.284   3.974  0.4381  0.1510 -0.7592
  384DG      H3 8812   2.863   1.201   4.372 -0.2433 -2.1612 -1.4424
  384DG      H4 8813   2.978   1.247   4.479 -3.4601  2.5199 -2.5695
  384DG      H5 8814   2.904   1.084   4.510 -0.8455 -1.2200 -1.1591
  384DG      H6 8815   3.300   1.302   3.885  0.9543  1.5711 -0.8593
  384DG      H7 8816   3.351   1.378   4.028  0.6845  0.8652 -1.9202
  384DG      H8 8817   3.467   1.280   3.951  0.4709  0.8391 -0.7463
  384DG      O9 8818   3.029   1.089   4.348  0.1805 -0.5280  0.2014
  384DG     O10 8819   3.316   1.164   4.036  0.4954  0.5627 -0.2582
  384DG     C11 8820   2.980   0.968   4.293  0.2500  0.0268  0.4076
  384DG     C12 8821   3.286   1.051   3.947 -0.2669 -0.3085 -0.7531
  384DG     H13 8822   2.889   0.984   4.234 -0.2852 -1.3516  0.8183
  384DG     H14 8823   2.944   0.907   4.376 -1.6713  1.4545  0.6962
  384DG     H15 8824   3.376   1.016   3.897  0.0782 -1.3515  0.5336
  384DG     H16 8825   3.213   1.080   3.872 -0.2756  3.1948  0.3830
  384DG     C17 8826   3.078   0.900   4.201  0.7493  0.4295  0.0159
  384DG     C18 8827   3.237   0.932   4.024 -0.2137 -0.2098 -0.8572
  384DG     O19 8828   3.121   0.980   4.095  0.1309  0.1653  0.1939
  384DG     H20 8829   3.042   0.807   4.156 -1.0709  1.8222 -1.5970
  384DG     H21 8830   3.169   0.877   4.255  0.8868  0.0088 -0.3872
  384DG     H22 8831   3.219   0.851   3.953  3.2327 -1.2487 -0.7011
  384DG     H23 8832   3.319   0.893   4.083 -0.7891 -2.5035 -1.4741
  385DG      C1 8833   2.350   2.142   3.579  0.4267  0.4390 -0.2845
  385DG      C2 8834   2.558   1.918   2.892 -0.3426  0.0714 -0.5470
  385DG      H3 8835   2.335   2.042   3.619 -3.1227  0.6201 -0.8592
  385DG      H4 8836   2.256   2.170   3.532 -0.3651 -1.5709  0.0320
  385DG      H5 8837   2.366   2.210   3.663 -1.0062 -2.1981  2.2945
  385DG      H6 8838   2.561   1.963   2.793  2.9495  2.5974  0.4888
  385DG      H7 8839   2.622   1.829   2.896  1.0323  1.0523  1.1665
  385DG      H8 8840   2.458   1.884   2.917  0.6145 -0.4625  3.3558
  385DG      O9 8841   2.465   2.152   3.498 -0.0600  0.2689 -0.4295
  385DG     O10 8842   2.609   2.016   2.983 -0.2289 -0.2155 -0.2864
  385DG     C11 8843   2.475   2.275   3.425  0.7474 -0.5082  0.2477
  385DG     C12 8844   2.644   1.957   3.104  0.2775 -0.2035 -0.6133
  385DG     H13 8845   2.479   2.361   3.492 -0.6234  0.0387 -0.3226
  385DG     H14 8846   2.379   2.293   3.375 -0.5544 -1.3263  2.3360
  385DG     H15 8847   2.731   1.892   3.094  0.5612  0.3736 -2.2664
  385DG     H16 8848   2.566   1.898   3.152  0.0327  0.0284 -0.7267
  385DG     C17 8849   2.588   2.261   3.318 -0.3238  0.5266 -0.8584
  385DG     C18 8850   2.677   2.077   3.195  0.4289 -0.1041  0.1848
  385DG     O19 8851   2.560   2.146   3.231  0.6046  0.0936  0.0456
  385DG     H20 8852   2.682   2.252   3.372  0.3074 -2.1725 -2.2433
  385DG     H21 8853   2.587   2.346   3.249  1.9141  1.2790 -0.0532
  385DG     H22 8854   2.725   2.038   3.285  2.1480  1.9583  0.2209
  385DG     H23 8855   2.755   2.137   3.149 -0.6585  0.9480 -0.3348
  386DG      C1 8856   4.724   1.567   1.090 -0.3120 -0.5710 -0.2622
  386DG      C2 8857   4.340   1.987   0.728 -0.4640 -0.4312 -0.3281
  386DG      H3 8858   4.822   1.524   1.107 -0.1327  0.0101  0.1896
  386DG      H4 8859   4.656   1.481   1.087  0.3400 -1.0695 -1.5135
  386DG      H5 8860   4.710   1.620   1.184 -0.1876  0.5357 -0.8559
  386DG      H6 8861   4.306   2.032   0.822  1.1087  1.7905 -0.7491
  386DG      H7 8862   4.319   2.066   0.656  0.6411  2.1154  1.9218
  386DG      H8 8863   4.282   1.896   0.714  0.7160 -1.2003 -0.3652
  386DG      O9 8864   4.722   1.643   0.972 -0.3628 -0.2661  0.2224
  386DG     O10 8865   4.475   1.962   0.736 -0.6474  0.3674  0.4739
  386DG     C11 8866   4.763   1.579   0.851  0.3025 -0.0423 -0.2489
  386DG     C12 8867   4.532   1.932   0.605  0.3873  0.1840 -0.1031
  386DG     H13 8868   4.687   1.506   0.824  1.4746 -0.5874 -2.2745
  386DG     H14 8869   4.853   1.521   0.871 -0.1168 -1.2541 -1.6981
  386DG     H15 8870   4.545   2.029   0.558  2.0054 -0.8412 -1.9636
  386DG     H16 8871   4.456   1.888   0.540 -0.9342  1.4783  0.5271
  386DG     C17 8872   4.773   1.682   0.739  0.3345 -0.1493 -0.1434
  386DG     C18 8873   4.655   1.845   0.617 -0.6226  0.6007 -0.6872
  386DG     O19 8874   4.653   1.748   0.729 -0.4699 -0.2568  0.4706
  386DG     H20 8875   4.791   1.634   0.643  1.3995 -0.6189  0.2802
  386DG     H21 8876   4.849   1.750   0.777  1.7973 -1.8188  0.0018
  386DG     H22 8877   4.676   1.793   0.523 -0.5913 -0.2770 -0.2026
  386DG     H23 8878   4.741   1.912   0.628 -1.7466  2.0030 -0.1411
  387DG      C1 8879   1.758   5.352   0.731  0.1115 -0.7501  0.1176
  387DG      C2 8880   2.214   5.397   0.392  0.3585  0.0988  0.2825
  387DG      H3 8881   1.698   5.263   0.753 -0.4633 -0.6227 -0.8737
  387DG      H4 8882   1.801   5.354   0.631  0.9546  1.1716  0.4834
  387DG      H5 8883   1.676   5.423   0.730 -2.1074 -3.1348 -0.7010
  387DG      H6 8884   2.301   5.450   0.354 -0.4847 -0.0056 -1.9223
  387DG      H7 8885   2.185   5.336   0.306 -1.0604  2.2489 -0.8702
  387DG      H8 8886   2.135   5.471   0.389 -0.2938 -0.4273  2.6486
  387DG      O9 8887   1.854   5.384   0.835  0.1265  0.9418 -0.5835
  387DG     O10 8888   2.212   5.350   0.527 -0.5009  0.3674  0.2106
  387DG     C11 8889   1.947   5.273   0.856 -0.1590 -0.2805 -0.2880
  387DG     C12 8890   2.300   5.409   0.618 -0.1986  0.1724 -0.1642
  387DG     H13 8891   1.950   5.215   0.764 -3.4681 -0.5749 -0.3518
  387DG     H14 8892   1.917   5.209   0.939 -1.8678  0.6000 -0.1655
  387DG     H15 8893   2.289   5.516   0.634 -0.6811  0.1686 -0.4481
  387DG     H16 8894   2.404   5.388   0.592 -0.2324 -0.9627  0.5613
  387DG     C17 8895   2.081   5.317   0.909 -0.4116  0.1939  0.4034
  387DG     C18 8896   2.270   5.343   0.757 -0.5522 -0.1485  0.1868
  387DG     O19 8897   2.134   5.371   0.787 -0.2761 -0.4798 -0.6605
  387DG     H20 8898   2.140   5.231   0.941  0.4278  0.3865 -0.5595
  387DG     H21 8899   2.079   5.398   0.981  1.0671  1.3348 -0.7519
  387DG     H22 8900   2.275   5.235   0.752 -1.7684 -0.2159  0.2656
  387DG     H23 8901   2.341   5.378   0.832 -0.0026  0.2809 -0.5174
  388DG      C1 8902   3.865   0.294   0.187 -0.4644 -0.6561  0.2707
  388DG      C2 8903   3.798   0.887   0.390 -0.4543  0.2730  0.2812
  388DG      H3 8904   3.771   0.307   0.132  0.7011  0.1097 -1.6368
  388DG      H4 8905   3.855   0.240   0.281 -0.6590 -2.6527 -0.8574
  388DG      H5 8906   3.935   0.234   0.130 -0.7487 -0.1357 -0.6505
  388DG      H6 8907   3.820   0.993   0.383  0.6556  0.0342 -0.0924
  388DG      H7 8908   3.694   0.882   0.360  0.2650 -0.3378 -2.3098
  388DG      H8 8909   3.821   0.857   0.492  0.6209 -0.2542 -0.1012
  388DG      O9 8910   3.925   0.421   0.216 -0.7018 -0.4864 -0.4567
  388DG     O10 8911   3.870   0.826   0.287 -0.0855 -0.3722 -0.2478
  388DG     C11 8912   4.050   0.416   0.287 -0.3856  0.2807 -0.8056
  388DG     C12 8913   4.007   0.847   0.305  0.1574  0.1631 -0.2249
  388DG     H13 8914   4.116   0.366   0.216 -1.0251  0.8282 -1.8120
  388DG     H14 8915   4.042   0.365   0.383 -0.5444 -0.5099 -1.2274
  388DG     H15 8916   4.035   0.825   0.408  0.3778 -0.5955 -0.4390
  388DG     H16 8917   4.022   0.954   0.290 -0.2911  0.5425  1.7281
  388DG     C17 8918   4.113   0.554   0.307  0.2591 -0.1164  0.1442
  388DG     C18 8919   4.101   0.769   0.204  0.4368  0.1577 -0.0169
  388DG     O19 8920   4.069   0.630   0.192  0.0253 -0.2907  0.3795
  388DG     H20 8921   4.221   0.548   0.302  0.4440  2.5496 -3.7854
  388DG     H21 8922   4.084   0.601   0.401  0.4091  0.9266 -0.3133
  388DG     H22 8923   4.086   0.812   0.105 -1.6331 -1.5109 -0.4958
  388DG     H23 8924   4.208   0.779   0.217  1.2074 -1.9015 -3.5282
  389DG      C1 8925   2.608   0.555   5.042  0.2997 -0.4579 -0.1296
  389DG      C2 8926   2.514   0.725   5.673 -0.3324 -0.2220 -0.1276
  389DG      H3 8927   2.540   0.640   5.029  0.6674 -0.1548 -0.0891
  389DG      H4 8928   2.581   0.483   4.966  0.0227  1.2453 -1.7197
  389DG      H5 8929   2.707   0.587   5.012  0.1897 -1.0109 -1.0993
  389DG      H6 8930   2.409   0.728   5.643 -0.0573  3.4346 -1.3264
  389DG      H7 8931   2.516   0.699   5.779 -0.1500 -1.3167 -0.3873
  389DG      H8 8932   2.554   0.826   5.666  1.2880 -0.9352 -2.2485
  389DG      O9 8933   2.615   0.513   5.177  0.2245  0.6558 -0.2653
  389DG     O10 8934   2.594   0.639   5.598 -0.0659 -0.8348 -0.5708
  389DG     C11 8935   2.691   0.395   5.197 -0.2361  0.3178 -0.0308
  389DG     C12 8936   2.572   0.506   5.638 -0.0185 -0.1398 -0.1067
  389DG     H13 8937   2.792   0.418   5.163  0.1799  0.8518  1.5017
  389DG     H14 8938   2.665   0.314   5.129  1.3454 -0.8013  0.6458
  389DG     H15 8939   2.483   0.453   5.605  0.8012 -1.4624 -0.2556
  389DG     H16 8940   2.566   0.500   5.746 -1.3104  1.4840 -0.0414
  389DG     C17 8941   2.675   0.354   5.344  0.6732  0.2840  0.3464
  389DG     C18 8942   2.690   0.435   5.569 -0.3152 -0.1693 -0.1642
  389DG     O19 8943   2.681   0.466   5.430 -0.6274 -0.3048 -0.1872
  389DG     H20 8944   2.751   0.281   5.369  0.4590 -0.0021  0.1684
  389DG     H21 8945   2.574   0.313   5.353 -0.5333  3.2285  1.3954
  389DG     H22 8946   2.777   0.482   5.615  0.3688  1.6558 -3.0793
  389DG     H23 8947   2.674   0.331   5.599 -0.0503  0.1164  1.0024
  390DG      C1 8948   4.824   2.382   4.249 -0.0803  0.2371 -0.5991
  390DG      C2 8949   5.114   2.838   4.642  0.3813 -0.2922 -0.1035
  390DG      H3 8950   4.722   2.348   4.231  0.3183 -0.3060 -2.0015
  390DG      H4 8951   4.869   2.396   4.150  2.4850  1.6289  0.6557
  390DG      H5 8952   4.819   2.482   4.292 -0.3209  0.6198 -1.4884
  390DG      H6 8953   5.160   2.763   4.706 -0.6469 -0.5035  0.4221
  390DG      H7 8954   5.191   2.902   4.599  0.1589  1.3005  1.7645
  390DG      H8 8955   5.063   2.899   4.716  0.3929 -1.2844  0.7371
  390DG      O9 8956   4.892   2.284   4.328  0.2430 -0.2459  0.0041
  390DG     O10 8957   5.023   2.794   4.539 -0.9728 -0.1430 -0.1355
  390DG     C11 8958   5.020   2.310   4.366 -0.3616  0.6460 -0.4778
  390DG     C12 8959   4.911   2.715   4.582 -1.0701 -0.6103  0.3416
  390DG     H13 8960   5.067   2.372   4.290  0.5124  1.0603  0.3751
  390DG     H14 8961   5.079   2.219   4.366  0.0216  0.8904  0.0022
  390DG     H15 8962   4.838   2.706   4.501 -0.6658 -1.9284  0.1087
  390DG     H16 8963   4.870   2.767   4.669  1.3494  1.4928  0.3401
  390DG     C17 8964   5.016   2.382   4.507 -0.3598 -0.2166 -0.2690
  390DG     C18 8965   4.965   2.578   4.625  0.0817  0.2331  0.3916
  390DG     O19 8966   4.985   2.514   4.500 -0.1006 -0.2179  0.2905
  390DG     H20 8967   5.104   2.372   4.570  1.3384 -0.7429 -2.5585
  390DG     H21 8968   4.940   2.330   4.565 -0.1149 -1.5808 -1.1076
  390DG     H22 8969   5.060   2.570   4.677  1.2232 -0.1082 -1.6081
  390DG     H23 8970   4.889   2.526   4.684 -1.0599  0.1266 -1.0826
  391DG      C1 8971   3.291   4.607   4.612  0.6762  0.1131 -0.5067
  391DG      C2 8972   3.749   4.285   4.055  0.1958 -0.0679  0.9425
  391DG      H3 8973   3.365   4.542   4.659  0.9481  0.5089 -0.3791
  391DG      H4 8974   3.202   4.549   4.592  0.7750 -0.2085 -0.0428
  391DG      H5 8975   3.259   4.684   4.682 -0.4250 -0.8164  0.0470
  391DG      H6 8976   3.816   4.278   3.970  1.5961  0.6442  1.9494
  391DG      H7 8977   3.828   4.293   4.130  3.4965  4.6113 -2.4470
  391DG      H8 8978   3.681   4.200   4.050  1.3896 -0.9652 -0.3771
  391DG      O9 8979   3.364   4.646   4.497  0.3300 -0.6050  0.1043
  391DG     O10 8980   3.684   4.415   4.050  0.0971  0.3073 -0.3459
  391DG     C11 8981   3.280   4.701   4.389 -0.5988  0.3112  0.0868
  391DG     C12 8982   3.577   4.427   4.147 -0.7914 -0.5918 -0.0385
  391DG     H13 8983   3.243   4.801   4.414 -1.7285 -0.4125  1.4052
  391DG     H14 8984   3.202   4.632   4.360  1.2334 -0.6026 -3.1849
  391DG     H15 8985   3.596   4.402   4.251 -1.8186 -2.5326 -0.2784
  391DG     H16 8986   3.496   4.366   4.107 -0.4076  0.0823 -1.9619
  391DG     C17 8987   3.366   4.701   4.260  0.0214  0.3495  0.2707
  391DG     C18 8988   3.531   4.566   4.154 -0.2599 -0.0678  0.4181
  391DG     O19 8989   3.422   4.570   4.252 -0.0771 -0.7086  0.3206
  391DG     H20 8990   3.438   4.783   4.262  0.3324  0.3364 -3.3555
  391DG     H21 8991   3.312   4.732   4.171  0.5579  1.3310  0.2697
  391DG     H22 8992   3.613   4.634   4.177  0.9675 -1.8277  1.4316
  391DG     H23 8993   3.492   4.596   4.057  1.1259 -1.5825 -0.6466
  392DG      C1 8994   2.516   4.846   1.641  0.4288  0.0769 -0.0332
  392DG      C2 8995   2.766   4.779   0.904  0.2899  0.7090 -0.0264
  392DG      H3 8996   2.442   4.839   1.721 -0.2523 -0.0327 -0.6668
  392DG      H4 8997   2.544   4.950   1.628  1.3604 -0.0493  0.7730
  392DG      H5 8998   2.607   4.792   1.667  1.4247  0.8726 -1.7178
  392DG      H6 8999   2.832   4.866   0.899 -0.2835  1.1812  0.5983
  392DG      H7 9000   2.817   4.711   0.972  0.1779  0.6632  0.0113
  392DG      H8 9001   2.774   4.721   0.812 -0.4896 -0.3224  0.5448
  392DG      O9 9002   2.455   4.776   1.533  0.6062  0.6165  0.3112
  392DG     O10 9003   2.639   4.802   0.958  0.2925 -0.1929 -0.0151
  392DG     C11 9004   2.474   4.834   1.408  0.5623 -0.0252  0.5763
  392DG     C12 9005   2.562   4.687   1.009  0.0387  0.1083  0.3947
  392DG     H13 9006   2.581   4.849   1.390  0.1121  0.1352 -2.5122
  392DG     H14 9007   2.430   4.932   1.388  0.8472 -0.6501 -4.6802
  392DG     H15 9008   2.611   4.627   1.085  1.1189  1.5206  0.8663
  392DG     H16 9009   2.524   4.615   0.937 -0.8468 -0.3060  1.2591
  392DG     C17 9010   2.429   4.736   1.303 -0.1691  0.7991  0.4360
  392DG     C18 9011   2.433   4.741   1.064 -0.1967  0.4619  0.1139
  392DG     O19 9012   2.449   4.811   1.187  0.3829  0.6303  0.6862
  392DG     H20 9013   2.324   4.709   1.314  0.3712 -0.8955  1.7490
  392DG     H21 9014   2.493   4.648   1.305 -1.6270 -0.3091  0.1741
  392DG     H22 9015   2.388   4.809   0.992  1.0930  0.7108 -0.4724
  392DG     H23 9016   2.377   4.647   1.068  1.4099 -0.6016 -1.1764
  393DG      C1 9017   5.046   1.737   1.338  0.0358 -0.2659  0.1652
  393DG      C2 9018   4.480   1.419   1.854  0.2592 -0.1506 -0.0135
  393DG      H3 9019   5.105   1.687   1.414 -0.5601  0.7356  1.3124
  393DG      H4 9020   5.111   1.793   1.271 -0.7944  0.7251  0.1633
  393DG      H5 9021   5.006   1.657   1.275  0.1908 -0.7340  0.6545
  393DG      H6 9022   4.401   1.380   1.790 -0.2804  3.1932 -1.6324
  393DG      H7 9023   4.510   1.351   1.934  0.7211  0.3672  0.2675
  393DG      H8 9024   4.434   1.510   1.893 -0.2298 -0.0210 -0.8917
  393DG      O9 9025   4.946   1.819   1.392 -0.8578 -0.4079  0.4257
  393DG     O10 9026   4.585   1.443   1.764  0.6696 -0.1692  0.1998
  393DG     C11 9027   4.847   1.734   1.449 -0.0850 -0.2340 -0.2484
  393DG     C12 9028   4.687   1.520   1.824 -0.4962 -0.7457 -0.0372
  393DG     H13 9029   4.842   1.635   1.404  0.9512 -1.1316  1.5027
  393DG     H14 9030   4.746   1.772   1.434 -0.3554 -0.5955  0.5928
  393DG     H15 9031   4.733   1.454   1.897  0.5354  0.1483  0.1286
  393DG     H16 9032   4.643   1.607   1.871  0.8363 -0.3336  0.4830
  393DG     C17 9033   4.863   1.750   1.599 -0.8494  0.0843 -0.2117
  393DG     C18 9034   4.784   1.563   1.719  0.0563  0.4691  0.1326
  393DG     O19 9035   4.752   1.688   1.666  0.3342 -0.6014  0.1669
  393DG     H20 9036   4.854   1.859   1.607 -0.0166  0.0678  1.4755
  393DG     H21 9037   4.964   1.728   1.632 -0.4187 -0.3153 -1.7284
  393DG     H22 9038   4.882   1.568   1.766  0.9435  2.1368 -1.7380
  393DG     H23 9039   4.795   1.480   1.649  0.8995  0.7687 -0.0983
  394DG      C1 9040   2.486   1.283   3.933  0.3145  0.4802 -0.2587
  394DG      C2 9041   3.027   1.561   3.670  0.0305 -0.5474 -1.1771
  394DG      H3 9042   2.381   1.274   3.905 -0.1523 -0.9229  1.7212
  394DG      H4 9043   2.534   1.351   3.862  0.0841 -0.0440 -0.9370
  394DG      H5 9044   2.485   1.335   4.028  1.4939 -1.2038  0.7177
  394DG      H6 9045   3.117   1.540   3.611  2.4463  1.3899  1.5199
  394DG      H7 9046   2.945   1.596   3.608 -0.7885 -2.0205 -0.9737
  394DG      H8 9047   3.045   1.642   3.741  1.2596  0.8314 -2.9621
  394DG      O9 9048   2.546   1.153   3.917  0.4339 -0.0448 -0.4313
  394DG     O10 9049   2.997   1.440   3.743 -0.4902 -0.4920  0.1117
  394DG     C11 9050   2.670   1.135   3.984  0.2257 -0.1109 -0.0782
  394DG     C12 9051   2.952   1.335   3.655 -0.4024  0.1733  0.1221
  394DG     H13 9052   2.666   1.046   4.047  2.7770 -0.3813 -0.1804
  394DG     H14 9053   2.688   1.215   4.057  1.7609 -0.3158 -0.1980
  394DG     H15 9054   3.016   1.318   3.569  1.5399 -1.8624  1.8345
  394DG     H16 9055   2.855   1.374   3.622 -2.0036 -0.6630  3.3524
  394DG     C17 9056   2.783   1.105   3.892 -0.4853 -0.4564  0.3886
  394DG     C18 9057   2.921   1.199   3.722  0.8326  0.0168  0.3917
  394DG     O19 9058   2.827   1.227   3.827 -0.0653 -0.6360  0.1485
  394DG     H20 9059   2.747   1.037   3.815  0.3705 -2.1231  1.4143
  394DG     H21 9060   2.867   1.061   3.946  2.6093  2.1369 -1.9054
  394DG     H22 9061   2.881   1.123   3.656  0.6903  0.8635 -0.5277
  394DG     H23 9062   3.006   1.157   3.776  0.3728  0.5606  1.5902
  395DG      C1 9063   0.959   4.438   3.229 -0.0055 -0.1957 -0.1297
  395DG      C2 9064   1.348   4.042   3.707 -0.3863 -0.3261  1.1454
  395DG      H3 9065   1.004   4.537   3.237 -0.9832  0.4521 -2.0243
  395DG      H4 9066   0.869   4.441   3.291  1.1781  0.1451  1.6516
  395DG      H5 9067   0.940   4.395   3.131 -0.8494 -0.5058  0.1632
  395DG      H6 9068   1.257   4.057   3.766 -0.6142  0.3726  0.6379
  395DG      H7 9069   1.402   3.949   3.724  0.9754  0.4186  1.0204
  395DG      H8 9070   1.417   4.118   3.743 -0.1287 -0.4357  0.8859
  395DG      O9 9071   1.037   4.342   3.294  0.1750 -0.5350  0.1085
  395DG     O10 9072   1.333   4.062   3.565 -0.0713  0.1593 -0.1461
  395DG     C11 9073   1.174   4.349   3.251  0.1277 -0.3706 -0.0956
  395DG     C12 9074   1.232   3.979   3.508 -0.1909 -0.0251 -0.1537
  395DG     H13 9075   1.205   4.439   3.304  0.2237 -0.7828  0.5472
  395DG     H14 9076   1.185   4.356   3.143  3.4234 -3.6861 -0.1574
  395DG     H15 9077   1.136   3.991   3.560  0.6845 -0.4198  1.6439
  395DG     H16 9078   1.247   3.876   3.538 -1.7684  0.1867  1.5459
  395DG     C17 9079   1.255   4.236   3.308 -0.2437  0.3759 -0.2883
  395DG     C18 9080   1.238   4.003   3.356  0.1208 -0.0732 -0.7991
  395DG     O19 9081   1.168   4.119   3.303 -0.4709  0.3126  0.0192
  395DG     H20 9082   1.289   4.250   3.411 -2.2117 -2.8950  0.9813
  395DG     H21 9083   1.341   4.219   3.243  0.1658  1.0790  0.0576
  395DG     H22 9084   1.339   4.008   3.314  1.1101  0.5076  1.4913
  395DG     H23 9085   1.180   3.922   3.312  0.3766 -0.2440 -0.8239
  396DG      C1 9086   1.096   2.007   3.527 -0.3186 -0.1523 -0.1363
  396DG      C2 9087   1.285   2.582   3.261  0.2927  0.0883  0.0979
  396DG      H3 9088   1.093   1.903   3.496  1.3473 -0.7564  1.5164
  396DG      H4 9089   1.010   2.024   3.592 -0.8777 -1.3577 -0.5424
  396DG      H5 9090   1.184   2.004   3.591 -0.6069  2.0298  0.4476
  396DG      H6 9091   1.284   2.654   3.180  2.5995 -2.0915 -2.0300
  396DG      H7 9092   1.344   2.622   3.344 -0.5903  1.2276  0.1987
  396DG      H8 9093   1.339   2.493   3.227  1.6674  0.3823  1.4060
  396DG      O9 9094   1.106   2.102   3.417 -0.2230 -0.7636  0.2331
  396DG     O10 9095   1.146   2.546   3.293 -0.5193  0.4136 -0.1882
  396DG     C11 9096   0.982   2.127   3.354 -0.2719 -0.3911  0.0470
  396DG     C12 9097   1.129   2.453   3.406 -0.2701  0.0278  0.2507
  396DG     H13 9098   0.911   2.145   3.434  1.3704  3.3226  0.8733
  396DG     H14 9099   0.947   2.042   3.294 -0.1190  0.6999 -1.6600
  396DG     H15 9100   1.170   2.480   3.503  2.6661 -2.7472 -0.0476
  396DG     H16 9101   1.195   2.370   3.383 -0.1292  0.3603 -0.5786
  396DG     C17 9102   0.987   2.244   3.246 -0.7067  0.3794 -0.5568
  396DG     C18 9103   0.983   2.414   3.420 -0.1537  0.0833  0.9230
  396DG     O19 9104   0.926   2.368   3.289 -0.0333  0.1575 -0.3625
  396DG     H20 9105   0.922   2.214   3.164  1.3853 -0.4988 -1.9851
  396DG     H21 9106   1.086   2.260   3.202 -0.5832  0.1309 -0.3673
  396DG     H22 9107   0.972   2.337   3.497  1.9313 -1.2917 -0.0554
  396DG     H23 9108   0.917   2.494   3.451 -1.3101 -0.1273 -0.8276
  397DG      C1 9109   4.292   5.164   1.572  0.6544 -0.4004  0.5286
  397DG      C2 9110   4.220   4.550   1.373 -0.3003  0.1158 -0.3185
  397DG      H3 9111   4.331   5.234   1.498  3.0446 -0.6179  1.4902
  397DG      H4 9112   4.374   5.119   1.628  2.4697  0.9083 -0.9788
  397DG      H5 9113   4.233   5.219   1.645  1.2660  0.0703  0.6681
  397DG      H6 9114   4.163   4.461   1.345 -0.6780  0.1254  0.3988
  397DG      H7 9115   4.290   4.569   1.291  1.1735  1.1870  1.1419
  397DG      H8 9116   4.268   4.529   1.469 -1.7529  0.6382  0.5533
  397DG      O9 9117   4.203   5.064   1.522  0.1165  0.3086  0.5106
  397DG     O10 9118   4.128   4.646   1.413  0.1473  0.4650  0.0923
  397DG     C11 9119   4.103   5.115   1.426 -0.6233  0.1412 -0.5923
  397DG     C12 9120   4.037   4.680   1.306 -0.4271 -0.1283 -0.2511
  397DG     H13 9121   4.145   5.195   1.365  1.9678 -0.8539 -0.2394
  397DG     H14 9122   4.027   5.160   1.490 -1.4095 -1.3110 -0.4653
  397DG     H15 9123   3.977   4.595   1.272 -1.5657  1.0198 -1.2093
  397DG     H16 9124   4.074   4.704   1.207 -0.7673  0.3082 -0.2764
  397DG     C17 9125   4.048   5.001   1.339  0.8694 -0.1993  0.0795
  397DG     C18 9126   3.939   4.781   1.364 -0.0045 -0.4966 -0.0294
  397DG     O19 9127   4.015   4.897   1.422 -0.4798  0.3176  0.4792
  397DG     H20 9128   4.121   4.968   1.265  0.2324 -0.9954 -0.2092
  397DG     H21 9129   3.960   5.046   1.293  1.2795 -0.2036 -0.7274
  397DG     H22 9130   3.871   4.815   1.287  0.3102  0.6323  0.1725
  397DG     H23 9131   3.886   4.729   1.444 -0.7539  0.4207  0.0810
  398DG      C1 9132   4.903   1.833   3.456 -0.3030 -0.0735 -0.3413
  398DG      C2 9133   4.279   1.500   3.591  0.4261 -0.3384 -0.2041
  398DG      H3 9134   4.819   1.896   3.426 -0.5547 -0.3458 -0.2109
  398DG      H4 9135   4.936   1.776   3.369  0.1729  1.3468 -1.1270
  398DG      H5 9136   4.982   1.905   3.477 -1.7723  0.5587  3.9588
  398DG      H6 9137   4.198   1.534   3.655  1.5984  0.4175  0.9075
  398DG      H7 9138   4.269   1.544   3.491  0.9278  0.5816  0.1396
  398DG      H8 9139   4.266   1.392   3.586  1.6804 -0.4614 -2.0171
  398DG      O9 9140   4.864   1.757   3.565 -0.2452 -0.2093  0.2994
  398DG     O10 9141   4.413   1.543   3.633  0.5233  0.0223 -0.2471
  398DG     C11 9142   4.832   1.838   3.680 -0.1377  0.3624 -0.5822
  398DG     C12 9143   4.408   1.677   3.664 -0.7762  0.1542 -0.8760
  398DG     H13 9144   4.910   1.908   3.709 -0.5178  1.0810 -1.2491
  398DG     H14 9145   4.822   1.760   3.755 -0.6892  0.4221 -0.5860
  398DG     H15 9146   4.340   1.695   3.748 -0.3200 -0.5245 -0.3504
  398DG     H16 9147   4.372   1.730   3.576 -0.2063  2.4029  0.1586
  398DG     C17 9148   4.704   1.914   3.663 -0.1233  0.2233 -0.5636
  398DG     C18 9149   4.554   1.726   3.703  0.7850  0.1848 -0.1484
  398DG     O19 9150   4.584   1.846   3.628 -0.3311 -0.4278 -0.3178
  398DG     H20 9151   4.723   1.985   3.582  0.2865  0.6282 -0.1178
  398DG     H21 9152   4.701   1.976   3.753  0.7027 -2.3866  1.3693
  398DG     H22 9153   4.545   1.753   3.808 -1.6977  1.9029 -0.7284
  398DG     H23 9154   4.636   1.654   3.705  1.9938  1.5253  1.5250
  399DG      C1 9155   4.483   4.029   2.658 -0.1110  0.5446  0.4715
  399DG      C2 9156   4.472   3.235   2.953 -0.3424  0.7797  0.5513
  399DG      H3 9157   4.464   4.137   2.665  2.1110  1.0517 -0.3766
  399DG      H4 9158   4.491   4.016   2.550  0.5415 -0.2504  0.6099
  399DG      H5 9159   4.587   4.016   2.689  0.4318 -0.6831 -1.6378
  399DG      H6 9160   4.578   3.219   2.932 -1.2731 -3.4275 -2.1367
  399DG      H7 9161   4.459   3.173   3.041  0.8381 -0.1000  0.1303
  399DG      H8 9162   4.422   3.185   2.870 -0.4232  1.6125  0.0870
  399DG      O9 9163   4.379   3.943   2.721 -0.4009 -0.6057 -0.8229
  399DG     O10 9164   4.434   3.363   2.984 -0.1898 -0.0905  0.5084
  399DG     C11 9165   4.420   3.810   2.747  0.0307  0.4251 -0.2223
  399DG     C12 9166   4.306   3.398   2.935  0.0110 -0.1777 -0.8390
  399DG     H13 9167   4.506   3.830   2.810 -0.2959 -1.0277  0.7262
  399DG     H14 9168   4.450   3.757   2.657 -2.1516 -1.0759 -0.1371
  399DG     H15 9169   4.231   3.346   2.996 -0.6176  1.8061  0.1899
  399DG     H16 9170   4.287   3.349   2.839 -1.8931  1.0383 -1.1430
  399DG     C17 9171   4.306   3.740   2.826  0.1909 -0.3659 -0.0707
  399DG     C18 9172   4.262   3.545   2.933  0.0066  0.7191 -0.3802
  399DG     O19 9173   4.353   3.611   2.849  0.6356 -0.0856  0.6752
  399DG     H20 9174   4.208   3.746   2.779 -0.0872  0.9164  0.6320
  399DG     H21 9175   4.286   3.788   2.922 -0.0744 -0.9797  0.1812
  399DG     H22 9176   4.161   3.551   2.892  0.0976  0.4532 -0.6407
  399DG     H23 9177   4.265   3.588   3.033 -0.5770 -2.5565  1.1604
  400DG      C1 9178   0.901   3.709   2.810  0.1350 -0.2603 -0.6635
  400DG      C2 9179   0.273   4.107   2.958  0.2248 -0.1092 -0.1783
  400DG      H3 9180   0.928   3.700   2.705  1.1297 -2.3770 -0.2790
  400DG      H4 9181   0.961   3.627   2.851 -0.6231 -1.1584 -1.3225
  400DG      H5 9182   0.939   3.806   2.841 -0.7350 -0.3672  0.8706
  400DG      H6 9183   0.171   4.070   2.962 -0.3922  1.4821 -0.3076
  400DG      H7 9184   0.286   4.180   3.038  1.4481 -0.4898 -0.0146
  400DG      H8 9185   0.274   4.161   2.863 -3.2406 -0.8079 -0.7345
  400DG      O9 9186   0.764   3.696   2.846  0.1862 -0.0123  0.4255
  400DG     O10 9187   0.376   4.011   2.976  0.3377 -0.0921 -0.2464
  400DG     C11 9188   0.747   3.684   2.987  0.5579  0.2651  0.3317
  400DG     C12 9189   0.360   3.909   2.873  0.6814 -0.3066  0.0677
  400DG     H13 9190   0.780   3.774   3.039  0.2835 -0.1574  1.2637
  400DG     H14 9191   0.799   3.596   3.024  1.3893 -0.0542 -1.5218
  400DG     H15 9192   0.354   3.960   2.777  2.3657  0.8347  0.5249
  400DG     H16 9193   0.265   3.857   2.885 -0.1711  1.2535  0.4703
  400DG     C17 9194   0.596   3.667   3.017  0.0121  0.5829 -0.4337
  400DG     C18 9195   0.477   3.811   2.867 -0.1872 -0.3596  0.0469
  400DG     O19 9196   0.522   3.785   3.002 -0.1157  0.4617  0.6747
  400DG     H20 9197   0.613   3.642   3.121  0.5836  0.4285 -0.5592
  400DG     H21 9198   0.546   3.583   2.968 -0.4603  1.5488 -1.6922
  400DG     H22 9199   0.445   3.722   2.812  1.5455 -1.4172  0.6782
  400DG     H23 9200   0.561   3.848   2.809 -0.5358 -0.3814 -0.4814
  401DG      C1 9201   5.242   1.337   2.804 -0.2817 -0.0424 -0.2117
  401DG      C2 9202   5.033   1.917   2.825  0.8787  0.0381  0.9476
  401DG      H3 9203   5.240   1.355   2.696  2.9787  0.2316 -0.3236
  401DG      H4 9204   5.180   1.253   2.836  0.2415 -0.0502  0.8285
  401DG      H5 9205   5.345   1.308   2.822  0.1892  1.5611 -0.1397
  401DG      H6 9206   4.941   1.873   2.862 -0.1584  2.5468  1.5482
  401DG      H7 9207   5.012   2.023   2.839 -0.9652 -0.1277 -0.1757
  401DG      H8 9208   5.041   1.904   2.717  2.1133  2.8287  0.6124
  401DG      O9 9209   5.205   1.459   2.867  0.4246 -0.0551  0.5213
  401DG     O10 9210   5.144   1.863   2.889  0.0441  0.6288 -0.1832
  401DG     C11 9211   5.207   1.443   3.006 -0.1710  0.2078  0.3177
  401DG     C12 9212   5.139   1.884   3.029  0.0910 -0.0867 -0.5145
  401DG     H13 9213   5.300   1.401   3.044  0.0180  0.9989  0.7398
  401DG     H14 9214   5.133   1.368   3.034  0.2384 -0.5356 -0.5468
  401DG     H15 9215   5.049   1.852   3.081  0.0465  0.7943 -0.0330
  401DG     H16 9216   5.155   1.992   3.033  1.0762 -0.2522  0.9657
  401DG     C17 9217   5.180   1.579   3.078 -0.0895  0.0958  0.1488
  401DG     C18 9218   5.248   1.806   3.102 -0.4684  0.2936  0.0398
  401DG     O19 9219   5.275   1.680   3.039  0.3088  0.0709  0.0647
  401DG     H20 9220   5.160   1.562   3.184 -1.0830  0.3025  0.0041
  401DG     H21 9221   5.080   1.616   3.057 -1.1260 -3.0441 -1.0164
  401DG     H22 9222   5.340   1.863   3.091  0.5416 -1.1928  0.5007
  401DG     H23 9223   5.233   1.801   3.210  1.2003  2.3200  0.4069
  402DG      C1 9224   1.068   2.556   4.205  0.1358 -1.1283  0.3826
  402DG      C2 9225   0.636   3.078   4.722  0.3269 -0.1521  0.2006
  402DG      H3 9226   1.060   2.479   4.282 -0.7949  0.1752  1.6611
  402DG      H4 9227   1.172   2.579   4.181 -1.1292  2.9878 -2.3329
  402DG      H5 9228   1.031   2.515   4.111  0.4607  1.5177 -0.9940
  402DG      H6 9229   0.705   3.117   4.797 -0.4044  3.0079 -0.6394
  402DG      H7 9230   0.598   3.160   4.661 -1.2099  1.5802  3.2258
  402DG      H8 9231   0.551   3.026   4.767  0.0640 -0.3633 -0.5297
  402DG      O9 9232   1.001   2.675   4.243  0.2504  0.2267 -0.1776
  402DG     O10 9233   0.688   2.979   4.638  0.3450  0.2177 -0.5919
  402DG     C11 9234   0.864   2.645   4.267 -0.3951  0.1616  0.5240
  402DG     C12 9235   0.805   3.014   4.575  0.1380  0.3022 -0.2134
  402DG     H13 9236   0.850   2.560   4.334  0.9518 -1.0137 -0.6168
  402DG     H14 9237   0.816   2.610   4.175 -1.6536 -0.2996  1.3319
  402DG     H15 9238   0.893   2.972   4.625 -0.6611 -0.1629  0.8349
  402DG     H16 9239   0.819   3.122   4.576 -0.1772  0.3465 -0.3766
  402DG     C17 9240   0.795   2.768   4.304 -0.2101 -0.2320 -0.4071
  402DG     C18 9241   0.804   2.960   4.433  0.2838  0.2346 -0.1605
  402DG     O19 9242   0.841   2.815   4.426  0.8055  0.1719 -0.1112
  402DG     H20 9243   0.688   2.750   4.299 -0.2576  0.1982 -1.0051
  402DG     H21 9244   0.812   2.843   4.226 -3.1804  1.9421  0.8577
  402DG     H22 9245   0.713   2.992   4.383  0.4613 -1.1492 -1.4685
  402DG     H23 9246   0.879   3.012   4.374  0.3959 -0.3828 -0.5757
  403DG      C1 9247   3.910   5.196   2.433 -0.0008 -0.0247  0.4354
  403DG      C2 9248   3.966   5.749   2.994  0.8736  0.1653 -0.2334
  403DG      H3 9249   3.803   5.178   2.428 -0.3389  2.0600 -2.1578
  403DG      H4 9250   3.965   5.102   2.440  1.0317  0.5642  0.4784
  403DG      H5 9251   3.931   5.249   2.340 -2.0852 -2.1910 -1.4056
  403DG      H6 9252   4.051   5.790   3.050 -0.5361 -1.5040  3.4897
  403DG      H7 9253   3.903   5.824   2.947 -1.7034 -1.8684 -0.2563
  403DG      H8 9254   3.899   5.710   3.071 -1.6751  2.8820 -0.9141
  403DG      O9 9255   3.950   5.272   2.547  0.2530 -0.1259 -0.3364
  403DG     O10 9256   4.013   5.652   2.905 -0.0625  0.5026 -0.0846
  403DG     C11 9257   4.091   5.260   2.570 -0.6017  0.0179  0.1004
  403DG     C12 9258   3.898   5.577   2.854 -0.6540  0.3852  0.1877
  403DG     H13 9259   4.137   5.323   2.494 -0.7464 -1.5581 -1.3314
  403DG     H14 9260   4.121   5.156   2.561  0.4291  0.3997 -1.2195
  403DG     H15 9261   3.849   5.623   2.767 -0.6875  0.6016  0.3188
  403DG     H16 9262   3.823   5.559   2.931  1.5599 -1.5109  2.0447
  403DG     C17 9263   4.117   5.312   2.712  0.0974  0.4150 -0.2259
  403DG     C18 9264   3.942   5.436   2.817  0.2798  0.2802 -0.0555
  403DG     O19 9265   4.061   5.438   2.734 -0.2330  0.0264  0.6700
  403DG     H20 9266   4.223   5.323   2.732  0.4651  0.0406 -1.8132
  403DG     H21 9267   4.080   5.233   2.777  0.0964 -0.0468 -0.7760
  403DG     H22 9268   3.946   5.381   2.911 -1.7391  0.8537  0.4111
  403DG     H23 9269   3.856   5.391   2.767  1.3392 -0.0420 -1.6694
  404DG      C1 9270   4.215   4.086   0.402 -0.2604  0.7650  0.8540
  404DG      C2 9271   3.670   3.766   0.375 -0.1969 -0.1794 -0.5061
  404DG      H3 9272   4.247   3.992   0.356  0.7942  1.8595 -0.7229
  404DG      H4 9273   4.205   4.061   0.508  1.8488 -1.0266  0.7138
  404DG      H5 9274   4.300   4.153   0.390 -1.0869  1.4358 -1.9042
  404DG      H6 9275   3.569   3.725   0.384 -0.0429 -0.5505 -0.4474
  404DG      H7 9276   3.717   3.699   0.303  0.4144  0.3914 -0.6453
  404DG      H8 9277   3.719   3.744   0.470  0.1789 -2.1124 -1.1115
  404DG      O9 9278   4.097   4.120   0.336 -0.0964 -0.3348  0.2326
  404DG     O10 9279   3.706   3.895   0.324  0.1362 -0.6778  0.1309
  404DG     C11 9280   4.039   4.243   0.378 -0.5827 -0.3735 -0.0156
  404DG     C12 9281   3.644   4.005   0.397 -0.0797  0.6099  0.1194
  404DG     H13 9282   4.099   4.332   0.359 -0.9068 -0.5397 -2.0003
  404DG     H14 9283   4.029   4.231   0.486 -0.6075 -1.5342 -0.1287
  404DG     H15 9284   3.675   3.994   0.501 -1.5241  0.2380  0.5288
  404DG     H16 9285   3.537   3.991   0.383 -0.1334  0.7166  0.4097
  404DG     C17 9286   3.898   4.251   0.320 -0.5535 -0.5135 -0.1305
  404DG     C18 9287   3.694   4.138   0.342 -0.4048  0.2848  0.2694
  404DG     O19 9288   3.837   4.127   0.344  0.3644  0.2325 -0.0475
  404DG     H20 9289   3.899   4.285   0.216 -2.5825 -0.5067 -0.1878
  404DG     H21 9290   3.845   4.329   0.374  1.0869  0.3656  0.2739
  404DG     H22 9291   3.674   4.155   0.237 -2.1657 -0.0198  0.5219
  404DG     H23 9292   3.662   4.224   0.401  4.3875  2.1906  0.4729
  405DG      C1 9293   0.582   5.173   3.705  0.0942  0.1136  0.2019
  405DG      C2 9294   0.954   5.552   4.178 -0.6186  0.1683 -0.1395
  405DG      H3 9295   0.531   5.174   3.609 -0.5201  0.3544  0.5214
  405DG      H4 9296   0.519   5.154   3.793  0.3761 -2.0067  0.0142
  405DG      H5 9297   0.668   5.106   3.700 -0.3626 -0.4445 -0.4943
  405DG      H6 9298   1.036   5.480   4.170 -0.1941  0.8429 -2.6036
  405DG      H7 9299   1.002   5.650   4.181 -0.0829 -0.0828 -0.3962
  405DG      H8 9300   0.890   5.542   4.266  0.4106  3.4581  1.1452
  405DG      O9 9301   0.642   5.298   3.732 -0.0646 -0.0118  0.1625
  405DG     O10 9302   0.877   5.536   4.060  0.1266 -0.2486  0.7440
  405DG     C11 9303   0.560   5.414   3.714  0.0877  0.5577 -0.0103
  405DG     C12 9304   0.782   5.638   4.060 -0.0533 -0.5347 -0.4291
  405DG     H13 9305   0.464   5.416   3.766 -0.1878  1.4578 -0.5187
  405DG     H14 9306   0.517   5.412   3.614 -0.0886  0.9185  0.0534
  405DG     H15 9307   0.844   5.728   4.069  0.1258 -0.6176 -0.7928
  405DG     H16 9308   0.724   5.625   4.151 -0.7196 -2.9124 -1.1219
  405DG     C17 9309   0.619   5.543   3.749 -0.7495  0.4459  0.7913
  405DG     C18 9310   0.710   5.646   3.929 -0.9980  0.7391 -0.2243
  405DG     O19 9311   0.676   5.520   3.879 -0.0962 -0.4963  0.2599
  405DG     H20 9312   0.538   5.616   3.746  0.1248  1.4101 -2.1366
  405DG     H21 9313   0.686   5.575   3.670 -0.9639  1.4004  0.9852
  405DG     H22 9314   0.629   5.719   3.931 -1.7097 -0.0076  2.7537
  405DG     H23 9315   0.786   5.687   3.862  1.4252 -2.6227  0.1856
  406DG      C1 9316   4.581   0.211   4.849  0.1282  0.2358  0.3932
  406DG      C2 9317   4.290   0.020   4.304  0.0091 -0.0360 -0.4137
  406DG      H3 9318   4.487   0.265   4.830 -0.1073  0.0077  0.9025
  406DG      H4 9319   4.655   0.241   4.775 -0.9067  1.3824 -0.2256
  406DG      H5 9320   4.624   0.249   4.942  0.3921 -0.0673  0.3959
  406DG      H6 9321   4.308   0.110   4.362 -0.8603  0.5809 -1.0640
  406DG      H7 9322   4.354   0.015   4.216  0.8252 -1.9206  0.2447
  406DG      H8 9323   4.185   0.018   4.274  0.0022 -1.0634 -0.3463
  406DG      O9 9324   4.578   0.067   4.868 -0.6095 -0.2436  0.4029
  406DG     O10 9325   4.314  -0.104   4.368 -0.0338  0.4869 -0.0070
  406DG     C11 9326   4.520  -0.010   4.766 -0.8316 -0.0782  0.0570
  406DG     C12 9327   4.211  -0.139   4.455 -0.3488  0.0587 -0.6044
  406DG     H13 9328   4.530  -0.116   4.793 -1.1229  0.1630  1.1614
  406DG     H14 9329   4.584  -0.003   4.678 -1.8275  1.9749 -0.5535
  406DG     H15 9330   4.226  -0.241   4.489  0.0460  0.0494 -0.7996
  406DG     H16 9331   4.113  -0.120   4.412 -0.6549  0.2566  0.1465
  406DG     C17 9332   4.382   0.034   4.728  0.1699  0.2356  0.8678
  406DG     C18 9333   4.209  -0.059   4.587 -0.5296 -0.1211  0.2590
  406DG     O19 9334   4.335  -0.076   4.646 -0.3298 -0.1635  0.4881
  406DG     H20 9335   4.395   0.120   4.663 -2.1247  0.0891  0.1414
  406DG     H21 9336   4.314   0.061   4.809 -0.8817 -0.1827  0.1399
  406DG     H22 9337   4.199   0.045   4.555 -0.1455 -0.2536 -0.3099
  406DG     H23 9338   4.128  -0.090   4.653  1.0397 -0.8472  1.9070
  407DG      C1 9339   4.028   0.244   2.020  0.4474 -0.0765 -0.4889
  407DG      C2 9340   3.929   0.860   1.569 -0.4899  0.0929 -1.1772
  407DG      H3 9341   3.978   0.216   2.113  0.3203  0.5916 -0.3469
  407DG      H4 9342   4.129   0.205   2.013  0.6274  0.4140 -0.6636
  407DG      H5 9343   3.974   0.195   1.939 -0.9661  0.1826  0.2531
  407DG      H6 9344   3.983   0.954   1.560 -2.1338  1.3362  1.0211
  407DG      H7 9345   3.882   0.828   1.476 -1.3236  1.2935 -1.1820
  407DG      H8 9346   3.853   0.878   1.644 -0.2563  0.6717 -1.0743
  407DG      O9 9347   4.043   0.385   1.998 -0.0311  0.3675 -0.6747
  407DG     O10 9348   4.015   0.768   1.615  0.4061 -0.2028  0.6550
  407DG     C11 9349   3.912   0.443   1.996 -0.7005  0.1209  0.3100
  407DG     C12 9350   4.099   0.802   1.726 -0.2022 -0.0060  0.1363
  407DG     H13 9351   3.851   0.414   2.081 -0.8965  0.8407  0.4234
  407DG     H14 9352   3.864   0.408   1.905  0.9833 -0.1952 -0.4819
  407DG     H15 9353   4.125   0.907   1.719  0.6155 -0.1192  1.2234
  407DG     H16 9354   4.189   0.740   1.730 -0.7080 -0.9349 -1.6473
  407DG     C17 9355   3.921   0.597   1.978  0.1167 -0.1485 -0.5408
  407DG     C18 9356   4.020   0.776   1.848 -0.2654  0.0651 -0.5175
  407DG     O19 9357   4.023   0.631   1.891  0.0374 -0.5124 -0.0302
  407DG     H20 9358   3.930   0.630   2.081  0.0219 -2.3715  0.2425
  407DG     H21 9359   3.825   0.638   1.946  0.7439  3.0606  1.3411
  407DG     H22 9360   4.065   0.831   1.930 -0.9902  0.8174 -0.6075
  407DG     H23 9361   3.924   0.828   1.848  0.5900  1.7215  0.3221
  408DG      C1 9362   5.172   5.031   0.971 -0.0535  0.0527  0.0907
  408DG      C2 9363   4.335   5.129   1.064  0.3920 -0.2875 -0.0559
  408DG      H3 9364   5.216   5.096   0.895 -0.1768 -0.0306 -0.0524
  408DG      H4 9365   5.154   4.929   0.936  0.2510 -0.2768  0.8541
  408DG      H5 9366   5.239   5.029   1.057  1.5773  1.5061 -1.0957
  408DG      H6 9367   4.280   5.206   1.118  1.1396  0.9477 -0.9760
  408DG      H7 9368   4.334   5.163   0.960 -0.3979  0.9670  0.3370
  408DG      H8 9369   4.278   5.037   1.064  0.6732 -0.4681 -1.0381
  408DG      O9 9370   5.046   5.090   1.014 -0.1891  0.1849  0.3518
  408DG     O10 9371   4.459   5.097   1.113 -0.0612  0.0086  0.1179
  408DG     C11 9372   4.984   5.024   1.120 -0.4186 -0.2380  0.0099
  408DG     C12 9373   4.532   5.014   1.025 -0.2290  0.0393 -0.1073
  408DG     H13 9374   5.045   5.030   1.210 -0.0048  1.8935 -0.3598
  408DG     H14 9375   4.968   4.921   1.087  0.9017  0.3225 -2.6774
  408DG     H15 9376   4.544   5.046   0.921  1.6896 -0.5048 -0.0947
  408DG     H16 9377   4.476   4.921   1.034 -1.7910  1.1477  3.1829
  408DG     C17 9378   4.859   5.103   1.171 -0.1197 -0.2162  0.0684
  408DG     C18 9379   4.675   4.990   1.076  0.4270  0.1077  0.3468
  408DG     O19 9380   4.751   5.103   1.072 -0.3770  0.3966 -0.3060
  408DG     H20 9381   4.882   5.209   1.188 -0.7093 -0.0116 -0.3569
  408DG     H21 9382   4.829   5.070   1.270  0.0451 -0.4884  0.0258
  408DG     H22 9383   4.669   4.944   1.175  0.3300  0.1563  0.3639
  408DG     H23 9384   4.733   4.927   1.009  1.4362  0.5511  0.7920
  409DG      C1 9385   0.635   1.336   0.848 -0.1305  0.3924 -0.0678
  409DG      C2 9386   0.251   1.533   1.353  0.0427 -0.3232  0.1511
  409DG      H3 9387   0.666   1.440   0.861  0.6035 -0.0263  1.7732
  409DG      H4 9388   0.559   1.344   0.771  0.3121  1.3699 -0.4307
  409DG      H5 9389   0.717   1.274   0.810 -2.4069 -2.2598 -1.0054
  409DG      H6 9390   0.159   1.518   1.296  0.4968 -2.2625 -0.1479
  409DG      H7 9391   0.228   1.519   1.459 -1.3263  1.9358  0.2264
  409DG      H8 9392   0.272   1.640   1.341 -0.3935 -0.1787  0.6480
  409DG      O9 9393   0.593   1.290   0.971  0.8272 -0.1747  0.7343
  409DG     O10 9394   0.353   1.439   1.303 -0.2574 -0.2417 -0.6562
  409DG     C11 9395   0.560   1.156   0.990 -0.8634  0.7408 -0.3921
  409DG     C12 9396   0.322   1.309   1.342  0.0673  0.6172 -0.3189
  409DG     H13 9397   0.634   1.098   0.935 -0.6490  0.9621 -0.3396
  409DG     H14 9398   0.459   1.134   0.955 -0.7095 -1.0626  0.1884
  409DG     H15 9399   0.244   1.262   1.282  0.0730  1.4341 -0.9866
  409DG     H16 9400   0.285   1.306   1.445 -0.7189 -0.6466 -0.6167
  409DG     C17 9401   0.559   1.141   1.137  0.3752  0.4861 -0.0508
  409DG     C18 9402   0.452   1.237   1.328 -0.2618  0.4522 -0.2208
  409DG     O19 9403   0.472   1.236   1.188  0.0878  0.0714  0.6595
  409DG     H20 9404   0.660   1.149   1.177  1.4747 -2.5552 -1.9257
  409DG     H21 9405   0.503   1.048   1.149  1.4175 -0.2733 -0.9040
  409DG     H22 9406   0.538   1.297   1.359  1.2415 -0.8939 -1.5776
  409DG     H23 9407   0.459   1.137   1.370  2.8340 -0.3419 -2.2572
  410DG      C1 9408   0.797   0.393   1.132  0.3587 -0.5286 -0.1640
  410DG      C2 9409   0.156   0.025   1.204  0.5821  0.5717 -0.7587
  410DG      H3 9410   0.829   0.355   1.035 -0.0196  2.2096 -1.4791
  410DG      H4 9411   0.852   0.336   1.206  0.7466  1.0368  0.8071
  410DG      H5 9412   0.831   0.497   1.136  1.2977 -0.6296 -3.0679
  410DG      H6 9413   0.193   0.003   1.104  0.2360  0.6668 -0.9104
  410DG      H7 9414   0.166  -0.066   1.264 -2.3558  0.0504 -0.8883
  410DG      H8 9415   0.048   0.043   1.203  0.4801 -0.0183 -0.9232
  410DG      O9 9416   0.655   0.392   1.142 -0.3888  0.3221  0.1154
  410DG     O10 9417   0.216   0.138   1.259  0.1131  0.2026 -0.2432
  410DG     C11 9418   0.615   0.420   1.277 -0.4643 -0.3854 -0.1678
  410DG     C12 9419   0.185   0.260   1.192  0.2049  0.0646 -0.0388
  410DG     H13 9420   0.676   0.506   1.307 -1.1821  0.7017 -1.7049
  410DG     H14 9421   0.618   0.328   1.337 -0.9234 -0.6401 -0.5314
  410DG     H15 9422   0.078   0.274   1.203  0.4390  0.1112  3.4375
  410DG     H16 9423   0.207   0.249   1.086  2.3686 -2.2848  0.5244
  410DG     C17 9424   0.474   0.460   1.269  0.6856 -0.1429 -0.2459
  410DG     C18 9425   0.262   0.373   1.256  0.7990 -0.6244  0.4174
  410DG     O19 9426   0.396   0.350   1.228 -0.0067  0.2501 -0.4205
  410DG     H20 9427   0.452   0.534   1.192 -1.9058 -1.3228 -0.7477
  410DG     H21 9428   0.446   0.477   1.373 -0.5808  2.4881 -0.9331
  410DG     H22 9429   0.237   0.465   1.203  1.0882 -1.3676 -1.0669
  410DG     H23 9430   0.233   0.382   1.360  0.4634 -1.4994  0.4045
  411DG      C1 9431   0.944   0.934   1.036  0.5552  1.0381 -0.0795
  411DG      C2 9432   1.649   1.024   0.669 -0.0997  0.0787  0.2810
  411DG      H3 9433   0.949   0.842   1.094 -0.2119 -0.1098 -1.7476
  411DG      H4 9434   0.841   0.955   1.006  0.1784  3.1743  2.3252
  411DG      H5 9435   0.975   1.009   1.109  1.2922  1.4667 -0.8245
  411DG      H6 9436   1.716   1.108   0.683 -0.0616  0.0040  0.5528
  411DG      H7 9437   1.662   0.947   0.745 -0.6104 -0.5996 -0.2873
  411DG      H8 9438   1.674   0.979   0.572  0.1144 -0.8504  0.7587
  411DG      O9 9439   1.039   0.931   0.937  0.1061  0.1494  0.5556
  411DG     O10 9440   1.516   1.068   0.665  0.4465  0.6613  0.9476
  411DG     C11 9441   1.034   1.055   0.862  0.3721 -0.2376 -0.0508
  411DG     C12 9442   1.483   1.158   0.775 -0.1999  0.6135  0.6207
  411DG     H13 9443   1.071   1.137   0.924 -0.8153 -0.1520  0.5845
  411DG     H14 9444   0.931   1.077   0.834  1.0518  2.4987 -0.7141
  411DG     H15 9445   1.531   1.256   0.771 -0.7140  0.8307 -0.4893
  411DG     H16 9446   1.525   1.113   0.865 -2.1978 -1.7811  0.4756
  411DG     C17 9447   1.114   1.055   0.723 -0.3516  0.1204 -0.3478
  411DG     C18 9448   1.324   1.163   0.789 -0.2508 -0.7712 -0.6831
  411DG     O19 9449   1.259   1.043   0.748  0.5317  0.1869  0.3658
  411DG     H20 9450   1.085   1.137   0.658 -1.6768  1.4743  1.8150
  411DG     H21 9451   1.088   0.957   0.681 -0.5238 -0.2139  0.5123
  411DG     H22 9452   1.284   1.188   0.887  2.6703 -1.9329  0.9659
  411DG     H23 9453   1.287   1.239   0.721 -2.0373 -1.5640 -0.6648
  412DG      C1 9454   0.182   1.532   0.973 -0.0002  0.1669 -0.7186
  412DG      C2 9455   0.747   1.582   1.360  0.1947  0.6062  0.8812
  412DG      H3 9456   0.182   1.423   0.980 -1.4571  0.1121 -1.3807
  412DG      H4 9457   0.097   1.571   0.918  0.1002  1.1045 -0.2182
  412DG      H5 9458   0.180   1.568   1.075 -0.8587 -0.2302 -0.5865
  412DG      H6 9459   0.669   1.577   1.436  0.2404 -0.3055  0.8712
  412DG      H7 9460   0.795   1.484   1.360 -0.1364  0.3867 -1.4643
  412DG      H8 9461   0.830   1.648   1.389  0.7930  1.4477 -2.3811
  412DG      O9 9462   0.313   1.557   0.917  0.1266 -0.2980  0.7380
  412DG     O10 9463   0.695   1.618   1.233 -0.0347 -0.3347  0.2050
  412DG     C11 9464   0.349   1.696   0.925  0.0146 -0.5228 -0.0152
  412DG     C12 9465   0.782   1.651   1.133  0.2121  0.0034  0.1095
  412DG     H13 9466   0.320   1.740   1.020 -0.0445 -0.7929  0.0927
  412DG     H14 9467   0.289   1.757   0.857 -0.6903 -1.0513  0.1098
  412DG     H15 9468   0.843   1.567   1.101  1.2063  0.9851 -0.6569
  412DG     H16 9469   0.853   1.717   1.182  1.5995 -0.6877 -0.8961
  412DG     C17 9470   0.499   1.693   0.886 -0.7507 -0.0097  0.0420
  412DG     C18 9471   0.695   1.714   1.025  0.4450  0.3999  0.7075
  412DG     O19 9472   0.575   1.641   0.994  0.0927  0.2622 -0.6925
  412DG     H20 9473   0.526   1.794   0.856 -0.1010 -0.1481  0.1341
  412DG     H21 9474   0.520   1.637   0.795  0.6900  0.2771  0.1612
  412DG     H22 9475   0.666   1.813   1.058 -0.8852  0.2901 -0.0824
  412DG     H23 9476   0.747   1.731   0.931  0.3565  1.6658  0.8724
  413DG      C1 9477   5.379   4.541   4.016  0.5380 -0.1654 -0.4680
  413DG      C2 9478   5.903   4.909   4.273 -0.4195 -0.4286 -0.0436
  413DG      H3 9479   5.300   4.498   4.077  1.3255  1.5655  1.9099
  413DG      H4 9480   5.382   4.485   3.922  0.4413 -0.6339 -0.1917
  413DG      H5 9481   5.357   4.644   3.987 -1.6364 -0.0797  1.2980
  413DG      H6 9482   5.952   4.931   4.179 -1.4462 -1.3301 -0.8051
  413DG      H7 9483   5.828   4.985   4.293  1.0766  1.2934 -0.6617
  413DG      H8 9484   5.972   4.925   4.356  2.0571  0.2416 -2.0987
  413DG      O9 9485   5.511   4.531   4.063  0.4521 -0.2328  0.5894
  413DG     O10 9486   5.843   4.784   4.249  0.3011  0.5359  0.1003
  413DG     C11 9487   5.552   4.401   4.100  0.3631 -0.0628 -0.3731
  413DG     C12 9488   5.935   4.681   4.207 -0.0494  1.5439 -0.5723
  413DG     H13 9489   5.560   4.338   4.011  2.5022 -1.2958  0.6325
  413DG     H14 9490   5.465   4.358   4.150 -0.2824 -0.2991 -1.6434
  413DG     H15 9491   6.034   4.686   4.253  0.8886 -0.1052 -2.2975
  413DG     H16 9492   5.945   4.689   4.099  0.3103  2.3312 -0.4914
  413DG     C17 9493   5.673   4.407   4.199 -0.3007 -0.1412 -0.3233
  413DG     C18 9494   5.871   4.542   4.239 -0.0146  0.1980  0.1098
  413DG     O19 9495   5.755   4.524   4.166  0.4768  0.0344 -0.3411
  413DG     H20 9496   5.749   4.329   4.196  1.2436  1.3176 -0.8931
  413DG     H21 9497   5.637   4.409   4.302  1.2040  1.2456  0.2189
  413DG     H22 9498   5.937   4.458   4.218 -1.1746 -0.4972 -0.8358
  413DG     H23 9499   5.837   4.534   4.343  0.4974 -1.2785  0.1844
  414DG      C1 9500   2.994   0.183   3.676 -0.1887  1.1158 -0.1763
  414DG      C2 9501   3.184  -0.004   4.225 -0.5211  0.7943  0.2603
  414DG      H3 9502   2.932   0.216   3.593  0.4473 -1.6145 -1.8768
  414DG      H4 9503   2.990   0.076   3.652  0.3411  0.6594  1.6086
  414DG      H5 9504   3.095   0.223   3.677  0.1709  0.2690 -0.8765
  414DG      H6 9505   3.186  -0.034   4.330  2.5901 -1.2872 -0.2407
  414DG      H7 9506   3.213  -0.085   4.158  3.2493  0.9604  1.4866
  414DG      H8 9507   3.272   0.056   4.203 -0.5854  1.1722  1.0154
  414DG      O9 9508   2.927   0.215   3.801 -0.0160  0.1082  0.4117
  414DG     O10 9509   3.068   0.067   4.192  0.5501 -0.2358 -0.0938
  414DG     C11 9510   2.946   0.350   3.837 -0.1387  0.6854 -0.3345
  414DG     C12 9511   3.040   0.189   4.274  0.2457 -0.0626 -0.4096
  414DG     H13 9512   2.891   0.421   3.776 -3.8162 -1.0529  0.6918
  414DG     H14 9513   3.052   0.374   3.831  0.3491 -0.9071  1.0544
  414DG     H15 9514   3.128   0.251   4.290 -0.6634  0.9958  0.6520
  414DG     H16 9515   3.017   0.157   4.376  0.7047  1.2541  0.1186
  414DG     C17 9516   2.891   0.368   3.982 -0.1176  0.0862  1.0231
  414DG     C18 9517   2.933   0.266   4.198  0.5960 -0.0305 -0.1404
  414DG     O19 9518   2.966   0.278   4.060  0.2112  0.0581 -0.1304
  414DG     H20 9519   2.788   0.333   3.979  0.4267 -1.6133 -1.8529
  414DG     H21 9520   2.892   0.469   4.023 -2.5930  0.3429  0.5772
  414DG     H22 9521   2.835   0.219   4.200  1.0353 -1.0450  2.9195
  414DG     H23 9522   2.936   0.366   4.240  0.0971 -0.2111  0.3379
  415DG      C1 9523   2.956   2.286   0.134  0.0065 -0.0110 -0.5833
  415DG      C2 9524   3.084   2.829   0.496  0.2297 -0.3733  0.3142
  415DG      H3 9525   2.973   2.213   0.213  0.5806  0.2008 -0.5038
  415DG      H4 9526   3.056   2.313   0.100 -0.3400 -1.1011 -2.5776
  415DG      H5 9527   2.915   2.237   0.046 -3.2369 -0.3694  0.9901
  415DG      H6 9528   3.164   2.762   0.466 -0.7901 -1.6651  0.3853
  415DG      H7 9529   3.119   2.932   0.484  1.4622 -1.0804 -4.0019
  415DG      H8 9530   3.077   2.808   0.602  0.3913  0.6179  0.5335
  415DG      O9 9531   2.876   2.395   0.176  0.1368  0.0455 -0.3548
  415DG     O10 9532   2.962   2.820   0.426  0.3195  0.3309  0.5637
  415DG     C11 9533   2.844   2.486   0.065 -0.8069  1.4145 -0.4711
  415DG     C12 9534   2.899   2.687   0.450 -0.2548 -0.4445  0.7388
  415DG     H13 9535   2.773   2.427   0.006 -1.5548 -1.5867  3.0422
  415DG     H14 9536   2.937   2.515   0.018  1.0524 -0.1772  1.9824
  415DG     H15 9537   2.858   2.673   0.550 -0.7525 -1.2578  0.4307
  415DG     H16 9538   2.976   2.612   0.435 -1.7528 -1.4766 -2.9236
  415DG     C17 9539   2.774   2.608   0.116  0.4330 -0.1690  0.3379
  415DG     C18 9540   2.777   2.669   0.349 -0.6121 -0.5199  0.2250
  415DG     O19 9541   2.846   2.672   0.223 -0.1452  0.1904 -0.0776
  415DG     H20 9542   2.669   2.592   0.141 -0.2094 -0.7496 -2.4694
  415DG     H21 9543   2.769   2.678   0.033  2.5205  0.2082  0.4856
  415DG     H22 9544   2.727   2.577   0.380 -1.2035 -0.4178 -0.4020
  415DG     H23 9545   2.699   2.745   0.355 -0.4220 -0.4612  2.7848
  416DG      C1 9546   0.607   4.694   3.601  0.3695  0.2524  0.3581
  416DG      C2 9547   1.176   4.333   4.014  0.7556  0.0806  0.3601
  416DG      H3 9548   0.628   4.781   3.539  0.9075  0.1463  0.3814
  416DG      H4 9549   0.577   4.722   3.701  1.9359  1.7685  0.4429
  416DG      H5 9550   0.519   4.647   3.556  0.0960  2.2758 -1.3950
  416DG      H6 9551   1.238   4.247   3.988  3.1465  2.2143 -1.6378
  416DG      H7 9552   1.244   4.418   4.022  2.0524 -1.0719  2.2956
  416DG      H8 9553   1.136   4.320   4.114 -1.2064 -0.0625 -0.3851
  416DG      O9 9554   0.712   4.600   3.603  0.0642 -0.0333 -0.2340
  416DG     O10 9555   1.079   4.351   3.917 -0.3608  0.4275  0.4657
  416DG     C11 9556   0.824   4.653   3.677 -0.3372  0.3120 -0.0073
  416DG     C12 9557   1.129   4.373   3.785 -0.6267 -0.0244  0.2854
  416DG     H13 9558   0.815   4.658   3.785 -1.4290 -0.4945 -0.0443
  416DG     H14 9559   0.842   4.754   3.639 -2.0347  0.3901 -0.6632
  416DG     H15 9560   1.212   4.310   3.753  0.7657  1.7848  0.1347
  416DG     H16 9561   1.188   4.465   3.787  1.5341 -1.3505  1.9432
  416DG     C17 9562   0.939   4.569   3.629 -0.5622  0.0322 -0.2513
  416DG     C18 9563   1.027   4.349   3.680  0.4016 -0.0055  1.0052
  416DG     O19 9564   0.921   4.437   3.694 -0.7003 -0.1932 -0.0600
  416DG     H20 9565   1.036   4.614   3.649 -0.5335 -0.1761  0.0966
  416DG     H21 9566   0.933   4.568   3.521 -1.9116 -1.0659 -0.2078
  416DG     H22 9567   1.063   4.355   3.578 -0.7710 -0.3953  0.5559
  416DG     H23 9568   0.990   4.247   3.690  2.7521 -1.0975 -0.5786
  417DG      C1 9569   3.712   2.551   2.838  0.5582 -0.3199  1.0230
  417DG      C2 9570   2.945   2.173   2.888  0.1001 -0.4155  0.0247
  417DG      H3 9571   3.709   2.617   2.924 -1.0128 -1.7573  2.1323
  417DG      H4 9572   3.765   2.593   2.752  0.9695  0.5820  1.7051
  417DG      H5 9573   3.767   2.462   2.871  2.0061  0.3296  0.4688
  417DG      H6 9574   2.875   2.121   2.953  1.8240 -0.8260  1.6324
  417DG      H7 9575   2.891   2.217   2.804  0.3755 -0.6401 -0.2710
  417DG      H8 9576   3.010   2.098   2.844 -0.1612 -1.4413  1.3181
  417DG      O9 9577   3.581   2.511   2.817  0.4296 -0.2910 -0.4609
  417DG     O10 9578   3.014   2.288   2.939  0.1871  0.4992 -0.5293
  417DG     C11 9579   3.492   2.602   2.756  0.5113  0.1069  0.4119
  417DG     C12 9580   3.130   2.324   2.864 -0.3242  0.2673 -0.3725
  417DG     H13 9581   3.493   2.588   2.648  1.1358  2.0251  0.1336
  417DG     H14 9582   3.529   2.703   2.771  1.8709 -0.4106  0.7524
  417DG     H15 9583   3.103   2.314   2.759  0.3095 -2.8337 -0.3344
  417DG     H16 9584   3.214   2.255   2.873 -0.9912 -0.6749 -1.1850
  417DG     C17 9585   3.337   2.598   2.801  0.0954  0.1841 -0.5106
  417DG     C18 9586   3.173   2.463   2.892 -0.3617  0.5712 -0.2500
  417DG     O19 9587   3.292   2.470   2.807  0.4922 -0.0397 -0.0345
  417DG     H20 9588   3.272   2.668   2.748  0.1832  0.1944 -0.6059
  417DG     H21 9589   3.334   2.631   2.905  0.7475  0.0996 -0.4571
  417DG     H22 9590   3.093   2.532   2.867 -1.1351  0.0168  0.6363
  417DG     H23 9591   3.198   2.477   2.997 -1.0884  0.0018  0.0041
  418DG      C1 9592   3.280   5.077   0.888  0.0631 -0.4723 -0.2808
  418DG      C2 9593   3.106   4.603   0.203 -0.5435  0.5509 -0.1917
  418DG      H3 9594   3.310   4.977   0.916  1.8817 -0.1242 -0.8559
  418DG      H4 9595   3.243   5.134   0.973  5.7900  0.7101  1.8822
  418DG      H5 9596   3.361   5.137   0.846  0.1636  0.0292  0.6141
  418DG      H6 9597   3.001   4.583   0.178 -1.8351  5.8120 -0.0958
  418DG      H7 9598   3.138   4.690   0.146  1.0870  0.6750  0.8743
  418DG      H8 9599   3.179   4.532   0.163 -1.4652 -0.3556 -0.3079
  418DG      O9 9600   3.172   5.078   0.795  0.0867  0.0994  0.1845
  418DG     O10 9601   3.093   4.618   0.341 -0.1257 -0.4190 -0.0108
  418DG     C11 9602   3.080   4.978   0.823  0.2436 -0.1911 -0.3791
  418DG     C12 9603   3.144   4.740   0.386 -0.0307  0.0730  0.1427
  418DG     H13 9604   2.984   5.022   0.798 -0.2213 -0.1167  1.3809
  418DG     H14 9605   3.069   4.966   0.931  3.6187 -0.7596  0.0183
  418DG     H15 9606   3.073   4.810   0.342 -2.9516 -2.0597  1.1705
  418DG     H16 9607   3.244   4.772   0.359 -0.5485  3.1635  1.4212
  418DG     C17 9608   3.109   4.847   0.747 -0.3092 -0.3703 -0.2639
  418DG     C18 9609   3.120   4.741   0.539  0.6201  0.0350 -0.3228
  418DG     O19 9610   3.112   4.863   0.605 -0.1877  0.1867  0.0337
  418DG     H20 9611   3.026   4.783   0.776 -1.0447  1.5248  2.1948
  418DG     H21 9612   3.205   4.807   0.779 -0.3116 -0.1930 -0.0308
  418DG     H22 9613   3.027   4.687   0.554  0.9908 -1.1151 -1.9812
  418DG     H23 9614   3.197   4.685   0.591 -0.3409 -0.5352  0.5244
  419DG      C1 9615   1.983   4.605   3.202 -0.1099  0.1320 -0.1976
  419DG      C2 9616   2.413   4.594   2.739 -0.5798 -0.6193 -0.4020
  419DG      H3 9617   1.912   4.681   3.233 -0.2718 -0.1668  0.1867
  419DG      H4 9618   1.971   4.524   3.274 -1.6203  0.8776  0.4277
  419DG      H5 9619   1.953   4.578   3.101 -1.5251 -0.0741  0.2518
  419DG      H6 9620   2.486   4.611   2.660 -1.1229  1.7874 -0.4678
  419DG      H7 9621   2.327   4.533   2.711  0.3750 -1.2259 -2.1773
  419DG      H8 9622   2.380   4.693   2.770 -2.0261  0.2932 -4.2234
  419DG      O9 9623   2.116   4.651   3.204  0.1248  0.0726  0.0469
  419DG     O10 9624   2.496   4.537   2.841  0.3201  0.2487 -0.2448
  419DG     C11 9625   2.116   4.776   3.140 -0.2850 -0.0362 -0.6871
  419DG     C12 9626   2.430   4.496   2.963  0.0744 -0.3371  0.0586
  419DG     H13 9627   2.096   4.854   3.214  2.7459  1.0587 -0.8375
  419DG     H14 9628   2.038   4.795   3.067 -0.2303  0.4541 -0.6243
  419DG     H15 9629   2.511   4.442   3.013  1.5556  0.8776 -0.9164
  419DG     H16 9630   2.354   4.419   2.948  0.0659  0.1071 -2.9237
  419DG     C17 9631   2.252   4.805   3.083 -0.6369 -0.6900  0.4123
  419DG     C18 9632   2.386   4.614   3.048 -0.4529  0.0028 -0.4173
  419DG     O19 9633   2.295   4.706   2.995  0.1245 -0.5865 -0.1508
  419DG     H20 9634   2.322   4.810   3.167 -0.3146 -3.8418  0.4793
  419DG     H21 9635   2.260   4.905   3.042  2.4207 -0.2219  1.8138
  419DG     H22 9636   2.342   4.572   3.138  0.0710 -0.9848 -0.6057
  419DG     H23 9637   2.474   4.673   3.073 -0.5122 -0.1453  0.1389
  420DG      C1 9638   5.057   0.864   3.691 -0.4107  0.7066  0.2116
  420DG      C2 9639   4.970   0.703   3.009  0.1595  0.2754 -0.2211
  420DG      H3 9640   5.011   0.961   3.680  0.8568  1.4860  1.4088
  420DG      H4 9641   5.106   0.873   3.788 -1.4531  2.9198  0.5807
  420DG      H5 9642   4.978   0.789   3.690  1.4077 -1.3721 -1.7351
  420DG      H6 9643   5.007   0.723   2.908 -0.3846 -0.6109 -0.6110
  420DG      H7 9644   4.945   0.597   3.007 -2.4211  0.8355 -0.9618
  420DG      H8 9645   4.882   0.764   3.024 -1.8972 -3.1676  3.8789
  420DG      O9 9646   5.151   0.850   3.582  0.7388  0.5380  0.6160
  420DG     O10 9647   5.061   0.730   3.111 -0.1619 -0.4102  0.0418
  420DG     C11 9648   5.227   0.728   3.578 -0.3898 -0.1367  0.9126
  420DG     C12 9649   5.143   0.613   3.132 -0.1716  0.2165  0.0769
  420DG     H13 9650   5.169   0.636   3.581 -0.7660 -0.0371 -1.5168
  420DG     H14 9651   5.310   0.721   3.648  0.9804  0.7156 -0.5512
  420DG     H15 9652   5.192   0.574   3.043  1.6967 -1.0621  1.5787
  420DG     H16 9653   5.088   0.533   3.181  3.5893 -1.5675  1.8566
  420DG     C17 9654   5.304   0.715   3.449  0.0496 -0.0871  0.6219
  420DG     C18 9655   5.261   0.656   3.221  0.1325 -0.5255  0.2806
  420DG     O19 9656   5.213   0.661   3.360 -0.0122  0.2205 -0.3787
  420DG     H20 9657   5.391   0.651   3.463  0.1283 -0.1712 -0.2451
  420DG     H21 9658   5.349   0.806   3.408 -0.1525 -0.7104 -1.0588
  420DG     H22 9659   5.350   0.593   3.217  0.4890 -0.1398  1.5068
  420DG     H23 9660   5.291   0.760   3.204 -0.2477 -0.4066  0.3210
  421DG      C1 9661   4.941   3.595   4.847  0.1532  0.5352  0.2300
  421DG      C2 9662   5.587   3.178   4.995 -0.4393  0.0843  0.1458
  421DG      H3 9663   4.992   3.690   4.855  0.1470  0.7303 -1.6786
  421DG      H4 9664   4.848   3.611   4.901 -2.5003  2.3573 -4.3474
  421DG      H5 9665   4.922   3.573   4.742 -0.7915 -2.9818  0.9821
  421DG      H6 9666   5.656   3.095   5.013 -2.0472 -0.9976  1.5751
  421DG      H7 9667   5.596   3.212   4.891 -3.2768 -0.0665 -0.2340
  421DG      H8 9668   5.605   3.258   5.067 -0.2601  0.9795 -0.8600
  421DG      O9 9669   5.023   3.500   4.917  0.0713  0.2027  0.2972
  421DG     O10 9670   5.464   3.108   5.003 -0.3365  0.2730  0.3521
  421DG     C11 9671   4.952   3.379   4.951 -0.4153 -0.2126  0.3758
  421DG     C12 9672   5.355   3.208   4.986  0.5069  0.3330  0.5556
  421DG     H13 9673   4.906   3.332   4.864  3.8818 -1.4288 -1.5170
  421DG     H14 9674   4.876   3.406   5.025  0.3366  2.6845  0.1929
  421DG     H15 9675   5.375   3.254   4.889  2.7888 -0.1137  0.7502
  421DG     H16 9676   5.350   3.285   5.062  2.4194 -0.3225  1.4071
  421DG     C17 9677   5.043   3.284   5.021  0.4217  0.8195  0.2358
  421DG     C18 9678   5.220   3.136   4.967 -0.2378 -0.5790 -0.3338
  421DG     O19 9679   5.128   3.233   4.920 -0.3696 -0.1397 -0.1371
  421DG     H20 9680   4.995   3.204   5.078 -0.8117  1.5487  0.2365
  421DG     H21 9681   5.103   3.339   5.093  1.5354 -0.9162  0.7161
  421DG     H22 9682   5.232   3.066   4.884 -0.7932 -1.1383  0.0503
  421DG     H23 9683   5.189   3.085   5.058  0.2971  1.1148  0.8480
  422DG      C1 9684   3.150   0.705   2.287 -0.1577 -0.2026  0.2996
  422DG      C2 9685   3.015   0.863   1.582  0.3703 -0.2114  0.3479
  422DG      H3 9686   3.253   0.733   2.264 -0.6774 -0.8112 -3.3157
  422DG      H4 9687   3.135   0.598   2.275 -0.6227 -0.1549  0.4177
  422DG      H5 9688   3.148   0.725   2.394  3.6281 -1.4025  0.7217
  422DG      H6 9689   3.068   0.938   1.523  0.2405 -0.0687  0.4112
  422DG      H7 9690   3.075   0.772   1.586 -0.7152 -0.9753 -0.1376
  422DG      H8 9691   2.930   0.841   1.518 -0.4469 -3.6327  2.3688
  422DG      O9 9692   3.062   0.782   2.199  0.4416  0.0406  0.0359
  422DG     O10 9693   2.963   0.900   1.704  0.0802 -0.2978 -0.0224
  422DG     C11 9694   3.099   0.916   2.200  0.0503  0.1052  0.2427
  422DG     C12 9695   2.965   1.035   1.743 -0.2238 -0.2335 -0.2120
  422DG     H13 9696   3.200   0.923   2.159 -0.0863  1.8175  0.1616
  422DG     H14 9697   3.105   0.960   2.299 -0.7563  3.5219 -1.1145
  422DG     H15 9698   2.891   1.086   1.681 -3.1217 -1.6639  1.8157
  422DG     H16 9699   3.066   1.072   1.726  0.4942 -0.3411  3.1415
  422DG     C17 9700   2.996   0.987   2.110  0.1923  0.0067  0.4551
  422DG     C18 9701   2.919   1.050   1.887 -0.0011  0.4769  0.0181
  422DG     O19 9702   2.999   0.962   1.967 -0.1500  0.4098  0.2691
  422DG     H20 9703   3.001   1.095   2.128  0.7493 -0.2175  1.7987
  422DG     H21 9704   2.897   0.968   2.150  1.0804  0.0175  2.8303
  422DG     H22 9705   2.927   1.156   1.912 -3.8618  0.4363  2.2884
  422DG     H23 9706   2.813   1.026   1.893 -0.0134  0.8415  2.6838
  423DG      C1 9707   2.367   3.109   2.147 -0.6754  0.3464  0.9827
  423DG      C2 9708   3.072   2.899   2.065 -0.3677  0.3784  0.1743
  423DG      H3 9709   2.269   3.113   2.101 -0.4479 -1.6692  0.2018
  423DG      H4 9710   2.377   3.167   2.239  1.6516  0.3446  0.8041
  423DG      H5 9711   2.383   3.003   2.169 -0.2911  0.0031 -0.7855
  423DG      H6 9712   3.096   2.913   2.170  2.9126  1.1464 -0.5384
  423DG      H7 9713   3.041   2.795   2.056  2.8074 -0.6086 -0.8840
  423DG      H8 9714   3.158   2.911   1.999 -0.2655  0.4788  0.3234
  423DG      O9 9715   2.470   3.165   2.070 -0.2929  0.3494  0.2328
  423DG     O10 9716   2.976   2.997   2.027 -0.5184  0.2218  0.2592
  423DG     C11 9717   2.482   3.100   1.936 -0.3662 -0.3954 -1.0211
  423DG     C12 9718   2.964   3.004   1.889 -0.4710  0.4200 -0.2818
  423DG     H13 9719   2.395   3.128   1.877 -2.0923  0.0110  1.5517
  423DG     H14 9720   2.478   2.991   1.936  1.7468 -0.5033 -0.6408
  423DG     H15 9721   2.941   2.911   1.837 -0.6069  1.4949 -2.2449
  423DG     H16 9722   3.058   3.048   1.856 -0.1585  0.2124  0.3203
  423DG     C17 9723   2.610   3.160   1.870  0.5051  0.6025  0.8178
  423DG     C18 9724   2.844   3.099   1.838 -0.3303  0.6890 -0.2807
  423DG     O19 9725   2.717   3.073   1.900 -0.3060  0.4978 -0.3192
  423DG     H20 9726   2.633   3.258   1.911  0.4770  1.9870 -2.2112
  423DG     H21 9727   2.603   3.185   1.765 -0.3645  2.3086  1.2414
  423DG     H22 9728   2.862   3.204   1.863 -0.7268  0.3848  1.4616
  423DG     H23 9729   2.843   3.108   1.730  1.3227  1.7420 -0.2537
  424DG      C1 9730   0.106   2.130   5.284 -0.3563 -0.2327 -0.1867
  424DG      C2 9731  -0.136   2.885   5.332  0.2632  0.1378  0.0907
  424DG      H3 9732   0.064   2.062   5.211  1.4761 -0.3073 -1.2229
  424DG      H4 9733   0.032   2.131   5.365  0.4278  1.2797  0.5563
  424DG      H5 9734   0.197   2.081   5.316 -0.4745 -1.5857 -1.8104
  424DG      H6 9735  -0.175   2.936   5.244  1.1767 -0.6330 -0.7893
  424DG      H7 9736  -0.219   2.822   5.363  0.3386  1.9196  4.6338
  424DG      H8 9737  -0.115   2.963   5.405 -0.5502 -0.8977  1.4849
  424DG      O9 9738   0.143   2.254   5.234 -0.1124 -0.4994 -1.0744
  424DG     O10 9739  -0.019   2.812   5.297  0.7599  0.1140  0.1406
  424DG     C11 9740   0.029   2.313   5.170  0.0753  0.0709  0.0146
  424DG     C12 9741  -0.018   2.757   5.164 -0.5339  0.1084 -0.4458
  424DG     H13 9742  -0.045   2.327   5.249  0.2443 -1.1301  0.4038
  424DG     H14 9743  -0.030   2.251   5.103  0.4519  0.2356 -0.4717
  424DG     H15 9744  -0.018   2.837   5.090 -1.1820  2.4647  1.9537
  424DG     H16 9745  -0.108   2.699   5.142  0.1043 -1.7370  1.4806
  424DG     C17 9746   0.056   2.450   5.108  0.6545 -0.2009  0.7999
  424DG     C18 9747   0.107   2.676   5.150  0.2429 -0.0751 -0.1943
  424DG     O19 9748   0.094   2.549   5.211 -0.6813 -0.0900  0.4292
  424DG     H20 9749  -0.032   2.483   5.054 -1.3586 -0.6135  3.6237
  424DG     H21 9750   0.134   2.443   5.031  0.1466  0.9577  0.1656
  424DG     H22 9751   0.126   2.666   5.043 -0.7034  0.8273 -0.4666
  424DG     H23 9752   0.194   2.724   5.195 -0.0528  0.1469  0.1486
  425DG      C1 9753   2.792   2.019   4.779  1.0780 -0.2389  0.2501
  425DG      C2 9754   2.138   2.072   4.593  0.2584 -0.0858 -0.5537
  425DG      H3 9755   2.896   1.985   4.770  1.9712  2.5853 -1.3645
  425DG      H4 9756   2.738   1.951   4.844 -1.8552  1.2802 -0.4417
  425DG      H5 9757   2.797   2.119   4.820  1.5914  0.8165 -2.2038
  425DG      H6 9758   2.048   2.128   4.619  0.5107 -0.1759  0.5951
  425DG      H7 9759   2.214   2.084   4.670 -1.1589 -0.7485  1.0071
  425DG      H8 9760   2.182   2.122   4.507  1.3736  0.7372  0.4538
  425DG      O9 9761   2.731   2.028   4.650  0.0696  0.2672 -0.2001
  425DG     O10 9762   2.113   1.935   4.569  0.2748 -0.3795 -0.2391
  425DG     C11 9763   2.586   2.005   4.650  0.8412  0.2243 -0.7079
  425DG     C12 9764   2.201   1.849   4.493 -0.0292 -0.0739 -0.1305
  425DG     H13 9765   2.529   2.088   4.693  0.0222 -0.5945 -0.1757
  425DG     H14 9766   2.564   1.915   4.707 -1.0843  2.9261  3.3662
  425DG     H15 9767   2.192   1.882   4.389 -0.2888  3.0851  0.7939
  425DG     H16 9768   2.164   1.749   4.515 -4.0213  1.0847 -0.7186
  425DG     C17 9769   2.534   1.995   4.505  0.1620 -0.2278  0.8003
  425DG     C18 9770   2.349   1.858   4.540  0.9422 -0.2072 -0.2664
  425DG     O19 9771   2.391   1.984   4.499 -0.3021 -0.1990  0.2462
  425DG     H20 9772   2.592   1.921   4.449  1.9422  1.3181  0.4842
  425DG     H21 9773   2.570   2.089   4.462  1.0809 -0.2288  1.5275
  425DG     H22 9774   2.362   1.837   4.646  2.8423 -2.8387 -0.9286
  425DG     H23 9775   2.394   1.778   4.482 -2.1607 -1.9860 -0.4574
  426DG      C1 9776   1.126   4.435   2.515 -0.6657  0.7726  0.2431
  426DG      C2 9777   1.396   3.812   2.713  0.6166  0.4668  0.0905
  426DG      H3 9778   1.125   4.506   2.433  0.4428 -1.7833 -2.1867
  426DG      H4 9779   1.179   4.473   2.602 -0.2789 -1.6324  1.1445
  426DG      H5 9780   1.019   4.436   2.536 -1.2077  2.0060 -2.1952
  426DG      H6 9781   1.351   3.714   2.699  1.4172 -0.1756  1.7869
  426DG      H7 9782   1.504   3.806   2.719  0.9374  1.4993 -2.8529
  426DG      H8 9783   1.351   3.851   2.805 -1.6766 -2.2044  0.2341
  426DG      O9 9784   1.176   4.312   2.467  0.5579 -0.1232  0.7107
  426DG     O10 9785   1.370   3.896   2.606  0.5106  0.1328  0.3454
  426DG     C11 9786   1.292   4.323   2.387  0.1715 -0.5160  0.4359
  426DG     C12 9787   1.395   3.848   2.471 -0.2602 -0.5032 -0.7950
  426DG     H13 9788   1.385   4.351   2.437  0.7092  0.2640 -0.9303
  426DG     H14 9789   1.274   4.394   2.306 -1.8030 -1.6582 -0.2012
  426DG     H15 9790   1.342   3.756   2.445 -0.3123 -0.3798 -1.1245
  426DG     H16 9791   1.501   3.827   2.458 -0.1239 -0.2742 -0.1029
  426DG     C17 9792   1.314   4.181   2.321 -0.4839 -1.1965  0.1989
  426DG     C18 9793   1.363   3.956   2.362  0.6450 -0.5869  0.3500
  426DG     O19 9794   1.371   4.092   2.416  0.2213 -0.0042 -0.8150
  426DG     H20 9795   1.393   4.185   2.246  1.4020  1.3032  2.1222
  426DG     H21 9796   1.224   4.148   2.270  0.5333  0.6030 -3.0623
  426DG     H22 9797   1.417   3.942   2.268 -0.4284 -0.0478 -0.3588
  426DG     H23 9798   1.262   3.938   2.327  0.9896  1.2169 -1.7701
  427DG      C1 9799   2.861   5.339   3.427  0.6393  0.3244  0.3171
  427DG      C2 9800   2.282   5.615   3.791 -0.5237  0.4022 -0.0825
  427DG      H3 9801   2.954   5.304   3.471  1.0941  0.7494 -0.2927
  427DG      H4 9802   2.855   5.308   3.323  2.4308  1.6247 -0.2188
  427DG      H5 9803   2.778   5.275   3.456 -0.3282  1.0313 -0.7967
  427DG      H6 9804   2.207   5.538   3.810  1.3583 -2.0749 -1.9786
  427DG      H7 9805   2.353   5.610   3.874 -1.5998  1.8091  0.9685
  427DG      H8 9806   2.233   5.712   3.799 -1.5147 -0.0970 -0.0429
  427DG      O9 9807   2.837   5.473   3.447 -0.4673  0.1215  0.0116
  427DG     O10 9808   2.342   5.596   3.658  0.2992 -0.2306  0.3356
  427DG     C11 9809   2.753   5.536   3.357  0.2380  1.4881  0.4895
  427DG     C12 9810   2.365   5.455   3.634 -0.6054 -0.2597 -0.3684
  427DG     H13 9811   2.790   5.526   3.255 -2.3018  1.6436 -0.5364
  427DG     H14 9812   2.758   5.644   3.369 -1.5505  1.5606  0.9493
  427DG     H15 9813   2.267   5.406   3.639  0.1831 -1.8010  1.1528
  427DG     H16 9814   2.435   5.403   3.699  0.2314  1.6146  0.2919
  427DG     C17 9815   2.601   5.475   3.351 -0.0769 -0.2926  0.5490
  427DG     C18 9816   2.407   5.433   3.483  0.1615 -0.4716 -0.4733
  427DG     O19 9817   2.535   5.486   3.474  0.6284  0.2823 -0.5512
  427DG     H20 9818   2.597   5.377   3.303 -2.4248  1.1687 -2.6185
  427DG     H21 9819   2.541   5.529   3.278 -0.0042 -1.1406 -0.1523
  427DG     H22 9820   2.416   5.326   3.463 -2.3703 -0.5547 -1.5436
  427DG     H23 9821   2.335   5.476   3.414  0.8152  0.5718 -0.5201
  428DG      C1 9822   4.420   0.140   0.845  1.0345 -0.0499 -0.2063
  428DG      C2 9823   5.109   0.343   0.413  0.1435 -0.4071  0.3713
  428DG      H3 9824   4.355   0.169   0.762 -0.7721 -1.2775  0.7281
  428DG      H4 9825   4.350   0.115   0.925  1.1161 -0.7995 -0.3647
  428DG      H5 9826   4.468   0.045   0.823  1.4780  0.2154 -0.4121
  428DG      H6 9827   5.097   0.367   0.308  2.0404  1.2470  0.4761
  428DG      H7 9828   5.207   0.384   0.437  0.2805  0.8712 -2.0321
  428DG      H8 9829   5.114   0.234   0.416  1.4402 -0.4485 -1.5627
  428DG      O9 9830   4.512   0.242   0.871  0.1139  0.4287 -0.0951
  428DG     O10 9831   4.998   0.384   0.496 -0.2932 -0.2970 -0.1680
  428DG     C11 9832   4.585   0.271   0.753 -0.1127 -0.2385 -0.2150
  428DG     C12 9833   5.029   0.397   0.635  0.3742  0.0786 -0.1089
  428DG     H13 9834   4.527   0.320   0.675  1.5976  1.4832 -0.4883
  428DG     H14 9835   4.618   0.177   0.707 -0.2798 -0.2701 -0.2717
  428DG     H15 9836   5.114   0.465   0.646  0.1470  0.3613 -0.1004
  428DG     H16 9837   5.064   0.299   0.668 -1.7724 -0.7592 -0.1675
  428DG     C17 9838   4.706   0.359   0.789  0.4070  0.0467 -0.3909
  428DG     C18 9839   4.913   0.439   0.724 -0.1209  0.5024  0.0191
  428DG     O19 9840   4.809   0.346   0.692 -0.4952 -0.0733 -0.1280
  428DG     H20 9841   4.743   0.321   0.884  0.0357  2.4638  0.8182
  428DG     H21 9842   4.671   0.461   0.805 -0.8244 -0.4160 -0.0602
  428DG     H22 9843   4.945   0.430   0.828 -1.1309  1.4343  0.4330
  428DG     H23 9844   4.885   0.543   0.710 -1.6754  0.0498 -0.5254
  429DG      C1 9845   1.753   4.147   0.762 -0.0652  0.0497 -0.1035
  429DG      C2 9846   1.925   4.374   0.110 -0.2598 -0.1987  0.6734
  429DG      H3 9847   1.784   4.232   0.822 -1.0796  0.3928 -0.0427
  429DG      H4 9848   1.842   4.089   0.784  1.1204  1.8084 -0.0678
  429DG      H5 9849   1.671   4.093   0.810  2.3227 -3.1962  0.6650
  429DG      H6 9850   1.917   4.282   0.052 -1.3319  0.2319  0.0984
  429DG      H7 9851   1.913   4.449   0.032  2.8089 -1.3569 -1.0810
  429DG      H8 9852   2.026   4.384   0.150  0.2379 -2.4490  0.1221
  429DG      O9 9853   1.734   4.172   0.624  0.2562 -0.2115 -0.1529
  429DG     O10 9854   1.835   4.376   0.215  0.5635 -0.1816  0.1636
  429DG     C11 9855   1.619   4.259   0.596 -0.0063 -0.5272  0.3257
  429DG     C12 9856   1.703   4.340   0.166 -0.0951 -0.1560  0.8177
  429DG     H13 9857   1.638   4.365   0.582 -2.5587  0.0229  0.6120
  429DG     H14 9858   1.550   4.250   0.680  0.3371 -0.4501  0.6178
  429DG     H15 9859   1.704   4.250   0.105  1.2883  0.2147  0.2575
  429DG     H16 9860   1.673   4.428   0.109 -1.1250 -0.1771  1.2921
  429DG     C17 9861   1.545   4.203   0.479  0.8405 -0.4420  0.0699
  429DG     C18 9862   1.600   4.329   0.281 -0.3401 -0.0275 -0.3475
  429DG     O19 9863   1.625   4.221   0.367  0.0195  0.3697 -0.4426
  429DG     H20 9864   1.451   4.256   0.474  0.7488 -0.5720  0.4003
  429DG     H21 9865   1.527   4.095   0.483 -0.7133 -0.2171 -0.3883
  429DG     H22 9866   1.609   4.420   0.340  1.0090 -1.1038  1.1793
  429DG     H23 9867   1.501   4.324   0.235 -1.1704  1.1405  1.1961
  430DG      C1 9868   0.581   4.566   4.933 -0.0544  0.0597 -0.5912
  430DG      C2 9869   1.136   4.937   4.574 -0.0576 -0.2959  0.5227
  430DG      H3 9870   0.563   4.658   4.988 -2.8237 -0.5256 -0.3595
  430DG      H4 9871   0.644   4.512   5.003 -0.1859  1.8175  0.9628
  430DG      H5 9872   0.486   4.516   4.916 -0.0906  0.9039 -3.3471
  430DG      H6 9873   1.206   4.883   4.638 -0.8111 -2.3735 -0.3215
  430DG      H7 9874   1.182   4.948   4.475  0.5119  3.6312  1.0693
  430DG      H8 9875   1.123   5.041   4.604  1.0763 -0.1185  0.4787
  430DG      O9 9876   0.659   4.574   4.816  0.3559  0.3226 -0.2199
  430DG     O10 9877   1.022   4.859   4.578 -0.2616  0.1001 -0.0341
  430DG     C11 9878   0.592   4.655   4.730  0.6483 -0.0414 -0.3640
  430DG     C12 9879   0.929   4.901   4.482  0.9128  0.0491 -0.0402
  430DG     H13 9880   0.573   4.751   4.777  0.5621 -0.6867  0.9852
  430DG     H14 9881   0.500   4.606   4.698  2.0264 -1.6598 -2.0703
  430DG     H15 9882   0.974   4.918   4.384 -0.1538 -0.1465 -0.5798
  430DG     H16 9883   0.887   4.997   4.512  1.6608 -0.4792  3.0049
  430DG     C17 9884   0.661   4.669   4.601 -0.2461 -0.3296 -0.1196
  430DG     C18 9885   0.815   4.804   4.474  0.1358 -0.3658 -0.0098
  430DG     O19 9886   0.769   4.763   4.607 -0.3228  0.9435  0.1618
  430DG     H20 9887   0.596   4.695   4.518  1.2533  2.4680 -0.5357
  430DG     H21 9888   0.692   4.566   4.581 -0.7680 -0.4378 -0.4042
  430DG     H22 9889   0.741   4.843   4.405 -2.6438 -3.6554  0.8304
  430DG     H23 9890   0.842   4.711   4.423 -0.9321 -0.6873 -0.0192
  431DG      C1 9891   2.455   5.036   3.204 -0.4967 -0.2224 -0.4938
  431DG      C2 9892   2.432   5.899   3.053  0.2015 -0.3502  0.0716
  431DG      H3 9893   2.493   4.964   3.132  0.8188  0.2875 -0.3211
  431DG      H4 9894   2.372   5.003   3.267 -0.7597 -0.0386 -0.7357
  431DG      H5 9895   2.540   5.073   3.260 -0.1498 -4.7340  2.4711
  431DG      H6 9896   2.531   5.887   3.009  1.2875  0.9735  1.9988
  431DG      H7 9897   2.374   5.981   3.011  0.3150  1.0513  2.4759
  431DG      H8 9898   2.437   5.927   3.159  1.7516 -2.2366  0.5717
  431DG      O9 9899   2.396   5.144   3.133 -0.1111 -0.6443  0.1442
  431DG     O10 9900   2.344   5.791   3.024 -0.5415  0.4907 -0.0847
  431DG     C11 9901   2.484   5.197   3.039 -0.7045 -0.5929 -0.2298
  431DG     C12 9902   2.392   5.663   3.069 -0.6178  0.1079 -0.1992
  431DG     H13 9903   2.520   5.125   2.965  0.4036  0.6256 -0.9335
  431DG     H14 9904   2.574   5.231   3.089 -0.9780 -0.1831 -0.0066
  431DG     H15 9905   2.375   5.642   3.175  2.7280 -3.2084 -0.0947
  431DG     H16 9906   2.500   5.661   3.055  0.1442 -0.3339  4.1882
  431DG     C17 9907   2.420   5.314   2.961  0.0800  0.5600  0.6119
  431DG     C18 9908   2.355   5.542   2.985 -0.9709  0.5974 -0.2206
  431DG     O19 9909   2.435   5.430   3.036 -0.3679  0.3098  0.2128
  431DG     H20 9910   2.322   5.291   2.918  1.2494  0.0109 -1.9233
  431DG     H21 9911   2.471   5.331   2.867 -1.6567  0.2970 -0.4138
  431DG     H22 9912   2.249   5.528   3.004 -1.0118  0.8592 -0.2637
  431DG     H23 9913   2.368   5.548   2.877 -4.0192  1.5823 -0.6120
  432DG      C1 9914   2.935   3.517   5.168  0.4545 -0.3026  0.5335
  432DG      C2 9915   2.146   3.461   5.562  0.0717  0.0303  0.2444
  432DG      H3 9916   2.979   3.589   5.237  0.2763  0.9427 -0.6188
  432DG      H4 9917   2.921   3.557   5.067 -0.5162  0.6269  1.0169
  432DG      H5 9918   3.009   3.437   5.165  1.1048  0.2283  1.7282
  432DG      H6 9919   2.042   3.430   5.570 -0.4967  1.3839 -1.3557
  432DG      H7 9920   2.177   3.507   5.655  2.0965 -1.7597  0.5290
  432DG      H8 9921   2.136   3.546   5.494  0.8028 -1.3219 -1.6499
  432DG      O9 9922   2.807   3.481   5.216 -0.3564  0.2581 -0.5439
  432DG     O10 9923   2.246   3.367   5.516  0.0703 -1.1578 -0.2042
  432DG     C11 9924   2.720   3.583   5.247  0.2692 -0.4213 -0.4381
  432DG     C12 9925   2.371   3.426   5.474  0.3227  0.1737 -0.3299
  432DG     H13 9926   2.720   3.670   5.182  1.4082  1.2334  1.6789
  432DG     H14 9927   2.742   3.623   5.346  2.4555  0.2586 -1.1506
  432DG     H15 9928   2.433   3.439   5.562 -0.3847 -0.4920  0.2857
  432DG     H16 9929   2.358   3.533   5.459  0.1638  0.5781  2.2130
  432DG     C17 9930   2.581   3.528   5.260  0.6283  0.1272 -0.2322
  432DG     C18 9931   2.445   3.367   5.356  0.2026  0.0198 -1.0864
  432DG     O19 9932   2.583   3.414   5.351 -0.6050 -0.1882 -0.2215
  432DG     H20 9933   2.527   3.504   5.169 -0.7107  3.1559 -0.3255
  432DG     H21 9934   2.521   3.608   5.303 -1.9273 -1.7092 -0.1162
  432DG     H22 9935   2.444   3.260   5.377  2.9056  0.2521  0.7653
  432DG     H23 9936   2.389   3.365   5.262 -1.7115 -0.2404  0.0024
  433DG      C1 9937   0.390   2.904   4.967 -0.5401 -0.2126  0.6337
  433DG      C2 9938   0.064   2.334   4.769  0.1212  0.1251  0.1391
  433DG      H3 9939   0.375   2.889   5.074 -0.2400  1.2305  0.8960
  433DG      H4 9940   0.370   3.010   4.951  0.8321  0.0405  0.5417
  433DG      H5 9941   0.489   2.869   4.938 -0.3213  1.1053 -0.2934
  433DG      H6 9942   0.135   2.317   4.689 -0.3204 -0.5554 -0.1189
  433DG      H7 9943   0.105   2.293   4.861 -1.9560  0.6059  1.3613
  433DG      H8 9944  -0.019   2.264   4.755  0.5309  0.0947 -2.6524
  433DG      O9 9945   0.285   2.830   4.908  0.3943 -0.0801  0.2563
  433DG     O10 9946   0.018   2.468   4.802 -0.9103 -0.1844 -0.6988
  433DG     C11 9947   0.278   2.850   4.766 -0.5022  0.1438  0.1561
  433DG     C12 9948  -0.053   2.531   4.698  0.4908 -0.3594  0.2879
  433DG     H13 9949   0.358   2.807   4.706 -0.2281  2.3726 -1.1967
  433DG     H14 9950   0.291   2.956   4.744 -0.3356 -0.2360 -1.7894
  433DG     H15 9951  -0.158   2.503   4.689  0.8233 -1.8640  0.7702
  433DG     H16 9952  -0.001   2.501   4.607 -2.5276 -1.4179 -1.2544
  433DG     C17 9953   0.135   2.830   4.715 -0.0509 -0.0016 -0.0360
  433DG     C18 9954  -0.043   2.682   4.703 -0.3222  0.0508 -0.2510
  433DG     O19 9955   0.094   2.697   4.736  0.5143 -0.0412  0.1005
  433DG     H20 9956   0.124   2.854   4.609 -2.5076  0.3127  0.2365
  433DG     H21 9957   0.065   2.894   4.768  0.4188 -0.3846  1.0746
  433DG     H22 9958  -0.076   2.727   4.610  2.2022  2.1524 -0.2820
  433DG     H23 9959  -0.114   2.711   4.781  0.0951 -0.1089  0.1985
  434DG      C1 9960   1.380   2.752   1.977 -0.1595 -0.2541  0.1688
  434DG      C2 9961   1.722   2.706   1.333 -0.5926  0.0587  0.9092
  434DG      H3 9962   1.473   2.710   2.015 -0.7508 -0.0506  1.9271
  434DG      H4 9963   1.329   2.664   1.938  0.2098 -0.4123  0.0489
  434DG      H5 9964   1.316   2.792   2.056  1.0647  2.3563 -0.0415
  434DG      H6 9965   1.740   2.786   1.261  2.6075  0.9490  2.4805
  434DG      H7 9966   1.822   2.670   1.358 -0.2087  1.1947  1.0517
  434DG      H8 9967   1.666   2.622   1.293  0.8567 -1.1239  1.2652
  434DG      O9 9968   1.396   2.849   1.869 -0.2491  0.2507 -0.4506
  434DG     O10 9969   1.681   2.754   1.460 -0.3706  0.0578 -0.9312
  434DG     C11 9970   1.279   2.877   1.800 -0.0518 -0.3308 -1.0699
  434DG     C12 9971   1.548   2.800   1.451 -0.6499 -0.6191 -1.0218
  434DG     H13 9972   1.205   2.926   1.864 -1.6640 -1.0084 -2.3333
  434DG     H14 9973   1.228   2.788   1.762 -2.0964  1.1473 -2.0007
  434DG     H15 9974   1.487   2.714   1.424 -1.3250 -0.1883 -0.8943
  434DG     H16 9975   1.532   2.882   1.381 -0.0013 -1.9402 -2.8027
  434DG     C17 9976   1.302   2.962   1.674 -0.0265 -0.0900 -1.0618
  434DG     C18 9977   1.485   2.846   1.584 -0.1583  0.1316  0.9101
  434DG     O19 9978   1.350   2.882   1.564 -0.2556 -0.4462 -0.4524
  434DG     H20 9979   1.369   3.044   1.701 -1.1464  0.1125  1.2750
  434DG     H21 9980   1.204   3.000   1.648 -0.1936  1.9979  2.0726
  434DG     H22 9981   1.483   2.765   1.657  1.2494 -1.9359 -1.2310
  434DG     H23 9982   1.545   2.931   1.617  2.5269 -2.2392  2.5878
  435DG      C1 9983   2.201   3.064   3.821  1.0345  0.2636  0.4087
  435DG      C2 9984   2.742   2.635   4.030 -0.1037  0.0102 -0.2675
  435DG      H3 9985   2.138   2.994   3.765 -0.4815  2.3741 -0.6841
  435DG      H4 9986   2.270   3.123   3.761  0.7856 -0.6353 -0.8025
  435DG      H5 9987   2.136   3.135   3.872  0.0281 -0.9114  0.8398
  435DG      H6 9988   2.690   2.557   3.975 -1.1184 -0.2170  0.9694
  435DG      H7 9989   2.817   2.682   3.965 -0.0979  1.4314  0.7223
  435DG      H8 9990   2.801   2.592   4.110  0.5468 -1.0106 -1.2642
  435DG      O9 9991   2.278   2.977   3.902  0.1811  0.7010 -0.1439
  435DG     O10 9992   2.663   2.738   4.080  0.5331 -0.9852  0.1421
  435DG     C11 9993   2.198   2.907   4.002 -0.2777  0.2693  0.0329
  435DG     C12 9994   2.585   2.698   4.194 -0.5530 -0.1777  0.0191
  435DG     H13 9995   2.160   2.818   3.954 -2.6583  0.9531  0.5374
  435DG     H14 9996   2.105   2.959   4.026 -1.0900  0.0576 -2.4146
  435DG     H15 9997   2.656   2.686   4.277  0.8132  0.1565 -1.0626
  435DG     H16 9998   2.542   2.598   4.190  0.5484 -0.6749  0.0477
  435DG     C17 9999   2.272   2.893   4.137  0.0892  0.2010  0.2277
  435DG     C1810000   2.479   2.795   4.222 -0.3508 -0.4236  0.7200
  435DG     O1910001   2.380   2.803   4.121 -0.6710 -0.5849  0.6448
  435DG     H2010002   2.217   2.856   4.223 -1.3409  0.9398 -0.3366
  435DG     H2110003   2.313   2.991   4.162  0.5350  0.1898 -0.4272
  435DG     H2210004   2.425   2.768   4.313  0.7956 -2.5705  0.8189
  435DG     H2310005   2.514   2.899   4.219 -0.5162 -0.3882 -0.1355
  436DG      C110006   3.604   4.790   0.621  0.0947  0.0435  1.0377
  436DG      C210007   4.381   4.934   0.260 -0.0228 -0.3293  0.3531
  436DG      H310008   3.617   4.684   0.641  1.3148  0.0462  0.3702
  436DG      H410009   3.547   4.797   0.527  0.2650  0.6756  0.9799
  436DG      H510010   3.538   4.819   0.703  0.8261 -0.1811  1.7090
  436DG      H610011   4.418   5.015   0.198 -0.5230 -1.7778 -1.9538
  436DG      H710012   4.463   4.866   0.282  1.2554  1.2402  0.6782
  436DG      H810013   4.310   4.871   0.207  0.4509 -2.3082  1.9692
  436DG      O910014   3.730   4.861   0.636  0.0120 -0.1080  0.1253
  436DG     O1010015   4.323   4.959   0.384 -0.6057 -0.0291  0.2314
  436DG     C1110016   3.817   4.849   0.530  0.5157  0.1540 -0.2724
  436DG     C1210017   4.230   5.063   0.377  0.2677 -0.1275 -0.3977
  436DG     H1310018   3.790   4.916   0.448  0.3433  0.5882  0.1303
  436DG     H1410019   3.836   4.750   0.490 -0.9292 -0.4772  0.5402
  436DG     H1510020   4.195   5.066   0.274  1.5448 -1.2146 -0.8885
  436DG     H1610021   4.287   5.153   0.398  0.3480 -0.3821  0.5162
  436DG     C1710022   3.955   4.909   0.578 -0.8935  0.3124 -0.3151
  436DG     C1810023   4.124   5.041   0.488  0.4416  0.1937  0.5051
  436DG     O1910024   4.035   4.939   0.461  0.3074 -0.8753  0.4931
  436DG     H2010025   4.011   4.849   0.650  0.7662  2.3677  0.2040
  436DG     H2110026   3.931   5.001   0.631 -0.7878 -0.8403  1.8471
  436DG     H2210027   4.171   5.037   0.587 -0.5805  1.2123  1.0580
  436DG     H2310028   4.058   5.128   0.484  0.4092  0.2030  1.0696
  437DG      C110029   3.570   2.210   2.643 -0.2191  0.6600 -0.4896
  437DG      C210030   3.320   1.895   2.125  0.8161 -0.2833 -0.5714
  437DG      H310031   3.626   2.194   2.735 -1.5082 -3.6713 -0.2439
  437DG      H410032   3.507   2.296   2.661  0.1850  0.6227  1.2860
  437DG      H510033   3.634   2.227   2.556 -1.0731  0.6812 -1.1303
  437DG      H610034   3.420   1.862   2.096  0.8935  1.5327 -2.6317
  437DG      H710035   3.241   1.827   2.094 -0.2751  0.3643  0.7033
  437DG      H810036   3.299   1.996   2.088 -1.3619 -0.5888 -0.2683
  437DG      O910037   3.493   2.096   2.623 -0.6257 -0.0947 -0.2322
  437DG     O1010038   3.302   1.892   2.268 -0.1208  0.1908  0.0406
  437DG     C1110039   3.572   1.972   2.636  0.3668 -0.3554  1.0613
  437DG     C1210040   3.286   1.759   2.324  0.2873 -0.6659  0.1389
  437DG     H1310041   3.613   1.970   2.737 -0.7836  0.1918  1.5678
  437DG     H1410042   3.654   1.966   2.565  0.6171 -0.8920  1.3874
  437DG     H1510043   3.365   1.697   2.282 -0.0914 -0.7751 -0.4192
  437DG     H1610044   3.191   1.710   2.302 -0.1733 -1.2112  2.9878
  437DG     C1710045   3.455   1.874   2.629  0.0577  0.6122  0.4491
  437DG     C1810046   3.314   1.764   2.473 -0.5220  0.8178  0.3741
  437DG     O1910047   3.415   1.867   2.494 -0.3237  0.2331  0.3441
  437DG     H2010048   3.371   1.909   2.689  0.6338  1.9790  0.4960
  437DG     H2110049   3.480   1.774   2.666 -3.8814 -0.6610  0.0622
  437DG     H2210050   3.225   1.784   2.533 -1.3399 -1.4980  0.0007
  437DG     H2310051   3.351   1.665   2.499 -2.7997 -0.8717 -2.3857
  438DG      C110052   3.506   0.361   5.006  0.3193  0.2108 -0.3770
  438DG      C210053   3.781  -0.081   4.465 -0.3267  0.4135 -0.4401
  438DG      H310054   3.501   0.379   5.113 -0.5234  0.6625 -0.4851
  438DG      H410055   3.414   0.311   4.977 -1.0349  1.8688  0.8873
  438DG      H510056   3.509   0.458   4.955  0.0348 -0.4750 -1.7305
  438DG      H610057   3.837  -0.029   4.388  1.9149 -0.3496  0.6050
  438DG      H710058   3.814  -0.185   4.465  0.2318  0.5876 -0.7144
  438DG      H810059   3.675  -0.065   4.443 -0.1843 -1.0759 -2.4926
  438DG      O910060   3.629   0.292   4.970  0.0009  0.1641  0.1602
  438DG     O1010061   3.801  -0.028   4.595  0.2786  0.3999 -0.1738
  438DG     C1110062   3.659   0.181   5.046  0.3704  0.3850  0.6311
  438DG     C1210063   3.813   0.111   4.605  0.0625 -0.4034 -0.4712
  438DG     H1310064   3.570   0.117   5.055  0.8989 -0.0565  3.8777
  438DG     H1410065   3.685   0.209   5.148  2.0437  2.2685 -0.2397
  438DG     H1510066   3.719   0.161   4.581  1.2248  1.7573 -0.7789
  438DG     H1610067   3.896   0.158   4.553  1.4544 -1.8302  0.3758
  438DG     C1710068   3.782   0.121   4.976 -0.9117 -0.2147 -0.5119
  438DG     C1810069   3.854   0.128   4.756  0.1696  0.4122  0.5504
  438DG     O1910070   3.744   0.116   4.839 -0.2071  0.0420 -0.0933
  438DG     H2010071   3.819   0.024   5.009 -1.1883 -0.0470  0.3010
  438DG     H2110072   3.866   0.190   4.988 -0.6663 -0.7525  1.0346
  438DG     H2210073   3.937   0.063   4.784  0.2331  0.9725  1.6899
  438DG     H2310074   3.893   0.229   4.764  3.1697 -0.4722 -1.3581
  439DG      C110075   0.130   2.492   1.452 -0.3482 -0.1034 -0.3281
  439DG      C210076  -0.551   2.798   1.377 -0.0406 -0.1666 -0.1842
  439DG      H310077   0.094   2.481   1.350 -1.1562 -0.9231  0.0350
  439DG      H410078   0.155   2.391   1.485  1.7459 -0.1283 -1.7764
  439DG      H510079   0.216   2.560   1.451 -0.1824 -0.3101 -0.3253
  439DG      H610080  -0.655   2.780   1.405  0.1123 -0.3789  0.2481
  439DG      H710081  -0.522   2.903   1.378  1.0536 -0.4420  2.1186
  439DG      H810082  -0.559   2.779   1.270 -1.0600 -2.1484  0.2045
  439DG      O910083   0.024   2.516   1.546  0.4890  0.7501  0.0468
  439DG     O1010084  -0.455   2.711   1.440 -0.2354  0.0816 -0.5474
  439DG     C1110085  -0.042   2.635   1.518 -0.2952  0.0979 -0.5707
  439DG     C1210086  -0.441   2.724   1.579 -0.4747 -0.4521 -0.0442
  439DG     H1310087  -0.080   2.635   1.416  1.3938 -0.3219 -1.2431
  439DG     H1410088   0.038   2.709   1.527  1.6545 -2.0557  1.2824
  439DG     H1510089  -0.539   2.734   1.626  0.3974  0.2524  1.7330
  439DG     H1610090  -0.391   2.819   1.597  0.7006 -0.7521 -1.4866
  439DG     C1710091  -0.147   2.658   1.627  0.1875 -0.0619 -0.5679
  439DG     C1810092  -0.384   2.594   1.640  0.0949 -0.2562  0.3529
  439DG     O1910093  -0.253   2.566   1.592 -0.5914  0.2040 -0.1926
  439DG     H2010094  -0.174   2.762   1.605 -2.9805 -1.0604 -1.8868
  439DG     H2110095  -0.095   2.647   1.722 -1.4342 -0.9604  0.2548
  439DG     H2210096  -0.375   2.593   1.749  1.1364 -1.9803  0.2831
  439DG     H2310097  -0.443   2.507   1.609 -0.1373 -0.4411  1.2589
  440DG      C110098   4.281   1.153   2.836  0.1259 -0.4241 -0.4024
  440DG      C210099   3.602   1.129   2.838 -0.2782 -0.5940  0.0135
  440DG      H310100   4.353   1.173   2.757  1.3878 -1.3252  0.4763
  440DG      H410101   4.331   1.109   2.923 -0.0693 -1.5198 -0.8246
  440DG      H510102   4.249   1.252   2.867 -3.1757 -0.8156 -2.1719
  440DG      H610103   3.559   1.096   2.933 -1.2858 -0.6569 -0.4573
  440DG      H710104   3.620   1.237   2.836 -3.8597  0.1140 -2.0074
  440DG      H810105   3.536   1.116   2.753 -2.8602 -1.3990  1.9822
  440DG      O910106   4.165   1.078   2.808  0.0297 -0.1431  0.2803
  440DG     O1010107   3.719   1.055   2.812 -0.3504 -0.2669  0.5304
  440DG     C1110108   4.196   0.945   2.756  0.0144  0.0754  0.4493
  440DG     C1210109   3.715   0.914   2.806  0.0516  0.9674 -0.2097
  440DG     H1310110   4.223   0.880   2.839  0.9253  0.4807  0.4777
  440DG     H1410111   4.286   0.959   2.696  0.0972  1.3133  0.8199
  440DG     H1510112   3.624   0.885   2.755 -0.7285  2.0580  0.5146
  440DG     H1610113   3.721   0.880   2.910 -0.5645 -1.7021 -0.9771
  440DG     C1710114   4.071   0.891   2.686  0.3099 -0.1470  0.1218
  440DG     C1810115   3.841   0.869   2.725 -0.4718  0.0166 -0.5235
  440DG     O1910116   3.964   0.935   2.768 -0.1737  0.1690 -0.0984
  440DG     H2010117   4.075   0.783   2.687  0.9599 -0.1284  0.2101
  440DG     H2110118   4.045   0.922   2.585 -1.4212  0.0122  0.5858
  440DG     H2210119   3.842   0.761   2.741  0.6436 -0.2160 -1.9476
  440DG     H2310120   3.830   0.899   2.621  1.6814  0.2130 -0.7387
  441DG      C110121   2.245   4.577   3.473  0.1668  0.0087  0.2150
  441DG      C210122   2.080   4.965   3.486  0.0706  0.7136 -0.9402
  441DG      H310123   2.326   4.601   3.405 -2.0901  0.0611 -2.6560
  441DG      H410124   2.164   4.650   3.478  1.3846  1.4460 -0.3191
  441DG      H510125   2.195   4.494   3.424 -0.2336 -0.1116  0.8090
  441DG      H610126   2.067   5.027   3.397 -2.2235 -0.7150 -1.6825
  441DG      H710127   2.181   4.978   3.526 -0.7972 -0.1749  1.7504
  441DG      H810128   2.065   4.863   3.450 -1.4350  0.6868 -0.3076
  441DG      O910129   2.281   4.549   3.603 -0.3579  0.3219 -0.5975
  441DG     O1010130   1.972   4.999   3.574  0.1573  0.2036 -0.1604
  441DG     C1110131   2.357   4.654   3.668  1.0158 -0.1779  0.2904
  441DG     C1210132   1.951   4.912   3.690 -0.3311  0.5348  0.5342
  441DG     H1310133   2.407   4.713   3.591 -1.5485 -0.2303 -1.5726
  441DG     H1410134   2.435   4.607   3.728  1.7326 -0.8427 -1.1081
  441DG     H1510135   1.908   4.820   3.650  0.7232 -0.5465  1.8083
  441DG     H1610136   1.876   4.955   3.756 -0.0963  4.6356 -1.5692
  441DG     C1710137   2.271   4.751   3.765 -0.3861  0.2511  0.7775
  441DG     C1810138   2.078   4.881   3.778  0.2318 -0.1254  0.6930
  441DG     O1910139   2.153   4.787   3.699  0.4775  0.2959 -0.0425
  441DG     H2010140   2.327   4.840   3.795 -2.2304  1.1395  1.7676
  441DG     H2110141   2.239   4.703   3.857 -0.9996  0.7071  0.8140
  441DG     H2210142   2.137   4.967   3.807  1.6753  0.0616 -2.3222
  441DG     H2310143   2.044   4.829   3.867 -2.9266  0.2004 -0.1872
  442DG      C110144   1.571   3.841   0.042  0.2134 -0.2071  0.0178
  442DG      C210145   0.902   4.137   0.073  0.4623 -0.4550 -0.4258
  442DG      H310146   1.497   3.846  -0.038  1.3777  0.5855 -1.0459
  442DG      H410147   1.643   3.763   0.018  2.1372  1.6723 -0.6713
  442DG      H510148   1.631   3.932   0.045  2.0887 -1.4068  1.5106
  442DG      H610149   0.947   4.231   0.107 -0.9817  0.0773  0.0934
  442DG      H710150   0.850   4.162  -0.019 -0.3041 -2.0192 -0.4442
  442DG      H810151   0.817   4.117   0.138  0.7936 -0.4993 -0.0018
  442DG      O910152   1.492   3.825   0.160  0.8085 -0.0399 -0.0051
  442DG     O1010153   0.997   4.030   0.083 -0.0558 -0.1110 -0.5406
  442DG     C1110154   1.470   3.950   0.223  0.1625 -0.5983  0.8027
  442DG     C1210155   1.093   4.032  -0.021 -0.0550  0.0153 -0.0466
  442DG     H1310156   1.561   4.010   0.228  0.4445 -0.9830  0.3991
  442DG     H1410157   1.446   3.925   0.326  0.9628 -3.3165  0.4009
  442DG     H1510158   1.136   4.132  -0.031  1.2938 -0.5813 -0.3993
  442DG     H1610159   1.037   4.012  -0.112  0.3259  0.2147 -0.3255
  442DG     C1710160   1.351   4.025   0.154 -0.4218 -0.8831 -0.6603
  442DG     C1810161   1.198   3.931   0.002  0.0912 -0.7402 -0.5419
  442DG     O1910162   1.245   3.935   0.137  0.0038 -0.7256  0.0986
  442DG     H2010163   1.377   4.074   0.060  0.1960  0.3085  0.0957
  442DG     H2110164   1.321   4.107   0.220 -0.2431 -0.7240 -0.7756
  442DG     H2210165   1.160   3.830  -0.016 -0.2791 -0.8345  0.7063
  442DG     H2310166   1.270   3.959  -0.075  0.2349  2.4096  0.5812
  443DG      C110167   3.646   3.030   3.929 -0.0767 -0.4270 -0.0704
  443DG      C210168   3.226   3.634   3.702  0.2813 -0.2117 -0.4364
  443DG      H310169   3.644   3.128   3.976  0.2809 -0.2249 -0.4749
  443DG      H410170   3.746   2.999   3.899 -0.3523 -1.1283 -0.2975
  443DG      H510171   3.620   2.965   4.013  0.9787 -0.2547  0.3992
  443DG      H610172   3.325   3.674   3.681  0.1613  0.7657  0.7287
  443DG      H710173   3.161   3.665   3.621 -0.5035 -0.5623  0.0520
  443DG      H810174   3.180   3.686   3.786  0.8573  1.1825 -0.9560
  443DG      O910175   3.555   3.022   3.822 -0.2324 -0.6823  0.2814
  443DG     O1010176   3.222   3.490   3.729  0.2474 -0.5601  0.7126
  443DG     C1110177   3.419   3.013   3.858 -0.3779 -0.4556  1.1631
  443DG     C1210178   3.277   3.416   3.616  0.2563  0.1998 -0.7189
  443DG     H1310179   3.399   3.059   3.955  1.8622  0.4584  1.2462
  443DG     H1410180   3.394   2.909   3.876 -0.2638 -0.7720 -0.3993
  443DG     H1510181   3.383   3.431   3.597  0.3685  2.5752  1.1987
  443DG     H1610182   3.221   3.451   3.529  0.0336 -0.1374 -0.7138
  443DG     C1710183   3.316   3.072   3.752 -0.3613 -0.4358 -0.2258
  443DG     C1810184   3.250   3.269   3.627  0.0441  1.3905 -0.8000
  443DG     O1910185   3.335   3.209   3.734  0.0704 -0.9679  0.7549
  443DG     H2010186   3.216   3.045   3.788 -0.4467 -2.4312 -1.7488
  443DG     H2110187   3.334   3.016   3.660  0.2054 -2.5785  1.1066
  443DG     H2210188   3.149   3.248   3.661 -0.5786  1.3700 -2.5761
  443DG     H2310189   3.255   3.223   3.528 -0.1711  0.9240 -0.5954
  444DG      C110190   0.315   5.467   1.982 -0.2238  0.8644 -0.3220
  444DG      C210191   0.331   5.734   2.492 -0.7644 -0.1955 -0.2172
  444DG      H310192   0.401   5.527   1.952 -0.2794 -0.7728 -4.5044
  444DG      H410193   0.336   5.367   1.943  1.4723  0.2187  2.0511
  444DG      H510194   0.327   5.449   2.089 -0.0923 -0.1568 -0.4950
  444DG      H610195   0.293   5.791   2.577  0.2664 -0.7175  0.6128
  444DG      H710196   0.406   5.666   2.532  0.9987  1.0782 -1.1967
  444DG      H810197   0.383   5.802   2.425 -1.6833  0.6837 -0.0669
  444DG      O910198   0.191   5.523   1.957 -0.0391 -0.0033  0.7499
  444DG     O1010199   0.228   5.663   2.427  0.2644  0.2210  0.4068
  444DG     C1110200   0.082   5.446   1.997  0.3688 -0.4215 -0.9468
  444DG     C1210201   0.133   5.748   2.368  0.3930 -0.8119  0.4663
  444DG     H1310202   0.109   5.346   2.029  0.4637  0.3164  1.4859
  444DG     H1410203   0.024   5.430   1.905 -0.2084  0.4104 -0.7438
  444DG     H1510204   0.176   5.816   2.294 -1.6480  0.4123  0.3129
  444DG     H1610205   0.073   5.800   2.442 -1.4865  0.2592 -1.6760
  444DG     C1710206   0.001   5.533   2.095 -0.7418  0.2247 -0.2160
  444DG     C1810207   0.031   5.663   2.295  0.2582 -0.3991  0.2988
  444DG     O1910208   0.093   5.580   2.199 -0.5615 -0.2004 -0.5521
  444DG     H2010209  -0.081   5.475   2.139  0.5883 -0.8778  0.8832
  444DG     H2110210  -0.039   5.623   2.047  2.0045  1.8430  0.3570
  444DG     H2210211  -0.020   5.601   2.370 -1.8216  0.6745 -0.1454
  444DG     H2310212  -0.046   5.723   2.246 -0.4382 -0.6320  1.0727
  445DG      C110213   0.341   5.234   4.773  0.0580 -0.2493 -0.1066
  445DG      C210214   0.131   5.169   5.528 -0.3559  0.7758 -0.0591
  445DG      H310215   0.322   5.322   4.713 -2.1856 -0.8814 -0.3859
  445DG      H410216   0.316   5.148   4.711 -0.8719  0.3837 -0.6229
  445DG      H510217   0.446   5.233   4.802 -0.3257  1.3274  1.5463
  445DG      H610218   0.221   5.162   5.589 -0.5899 -0.0574  0.2021
  445DG      H710219   0.042   5.154   5.589 -0.3776 -0.7834 -0.4458
  445DG      H810220   0.121   5.090   5.454  0.3940 -0.6086  1.2504
  445DG      O910221   0.264   5.258   4.883 -0.2348 -0.0362  0.2951
  445DG     O1010222   0.125   5.288   5.446  0.0738 -0.2944  0.6263
  445DG     C1110223   0.298   5.163   4.982 -0.0704  0.0878  0.1490
  445DG     C1210224   0.013   5.301   5.362  0.6989  0.1123  0.5281
  445DG     H1310225   0.382   5.201   5.039  0.1815 -1.0246  0.5306
  445DG     H1410226   0.337   5.069   4.944  2.0555  0.3599  1.5280
  445DG     H1510227   0.007   5.403   5.326  1.1246  0.6915  2.0286
  445DG     H1610228  -0.075   5.284   5.423 -0.8338  0.1210 -1.5733
  445DG     C1710229   0.176   5.134   5.077 -0.3130 -0.1694  0.3696
  445DG     C1810230   0.015   5.211   5.240  0.2414 -0.4535  0.6087
  445DG     O1910231   0.141   5.239   5.166  0.3675  0.5182 -0.0460
  445DG     H2010232   0.198   5.046   5.137  1.2883 -0.9011 -1.1704
  445DG     H2110233   0.083   5.115   5.023  0.4208 -0.3904 -0.8673
  445DG     H2210234  -0.004   5.111   5.278  2.4537 -0.8558  0.7539
  445DG     H2310235  -0.060   5.234   5.164 -0.2414 -2.7926  0.3100
  446DG      C110236   4.731   1.148   1.236 -0.7943 -0.1428  0.3287
  446DG      C210237   4.003   1.167   1.247 -0.1867 -0.5623  0.0358
  446DG      H310238   4.747   1.107   1.136  0.6603 -1.7500  1.1712
  446DG      H410239   4.718   1.067   1.307 -1.6555 -0.3536 -0.0497
  446DG      H510240   4.820   1.203   1.268 -0.0710 -0.9013 -0.3448
  446DG      H610241   4.029   1.116   1.154 -1.4948  1.7461 -1.6899
  446DG      H710242   3.999   1.100   1.333  2.1513 -0.1604  0.5291
  446DG      H810243   3.907   1.217   1.235  0.0159 -0.4671 -1.3432
  446DG      O910244   4.624   1.243   1.235 -0.3605  0.1474 -0.4655
  446DG     O1010245   4.105   1.252   1.284 -0.3131 -0.3392  0.4023
  446DG     C1110246   4.584   1.300   1.369 -0.6194  0.3646 -0.5244
  446DG     C1210247   4.139   1.355   1.198 -0.1438 -0.2231 -0.4086
  446DG     H1310248   4.662   1.360   1.415  0.8181 -1.0711 -1.0231
  446DG     H1410249   4.558   1.226   1.445 -0.4689 -0.9305 -1.6826
  446DG     H1510250   4.053   1.421   1.187 -1.8365 -2.2204  0.1214
  446DG     H1610251   4.174   1.321   1.101 -0.3719  2.3206 -1.4507
  446DG     C1710252   4.467   1.399   1.364  0.1968  0.6106 -0.2348
  446DG     C1810253   4.251   1.433   1.262 -0.4943 -0.1961  0.1965
  446DG     O1910254   4.359   1.342   1.292  0.2440  0.5236  0.8012
  446DG     H2010255   4.503   1.487   1.310  1.2604 -0.3570 -1.1383
  446DG     H2110256   4.429   1.433   1.461 -0.4163 -1.7227  0.3916
  446DG     H2210257   4.278   1.510   1.191 -0.0242 -0.8753 -0.3732
  446DG     H2310258   4.220   1.484   1.354  0.9409  0.8506  0.1381
  447DG      C110259   4.944   4.623   2.467 -0.2895 -0.1909  0.1882
  447DG      C210260   5.012   5.265   2.671  0.6186  0.5575  0.0615
  447DG      H310261   4.885   4.550   2.411 -1.1045  0.5831  0.0139
  447DG      H410262   4.934   4.596   2.572 -1.6636  1.5576  0.5547
  447DG      H510263   5.046   4.625   2.431 -0.4198 -1.5159 -0.3324
  447DG      H610264   4.986   5.220   2.767  1.4095 -0.7000 -0.2877
  447DG      H710265   5.121   5.270   2.672  0.5707  3.7320  2.5052
  447DG      H810266   4.974   5.366   2.678 -0.9035  0.0924 -0.8162
  447DG      O910267   4.889   4.755   2.445  0.1451 -0.0945  0.1665
  447DG     O1010268   4.954   5.190   2.569 -0.0473  0.2286 -1.0969
  447DG     C1110269   4.746   4.747   2.469  0.0986 -0.7721 -0.1357
  447DG     C1210270   4.815   5.220   2.559 -0.5871 -0.2842 -0.2717
  447DG     H1310271   4.718   4.721   2.571  3.0468 -2.8622  0.2808
  447DG     H1410272   4.710   4.667   2.405 -0.1672 -2.3043  1.8244
  447DG     H1510273   4.795   5.319   2.520 -0.0722  0.3093  0.9196
  447DG     H1610274   4.761   5.212   2.653 -0.7616 -2.1223 -0.4833
  447DG     C1710275   4.694   4.892   2.434 -0.0601  0.0182  0.2445
  447DG     C1810276   4.756   5.122   2.463 -0.7920 -0.1370 -0.5346
  447DG     O1910277   4.744   4.996   2.525  0.0665  0.4570 -0.4356
  447DG     H2010278   4.586   4.884   2.445 -0.0323 -0.9637 -0.1195
  447DG     H2110279   4.721   4.915   2.331  1.1431 -0.9652  0.3124
  447DG     H2210280   4.654   5.154   2.443 -1.4297 -0.2211  2.1767
  447DG     H2310281   4.813   5.114   2.370  0.0676  0.0858 -0.0364
  448DG      C110282   5.133   3.733   0.195 -0.5214 -0.4861 -0.1273
  448DG      C210283   5.030   3.510   0.628 -0.8553 -0.1907  0.8890
  448DG      H310284   5.151   3.815   0.264  0.8945 -0.7202 -0.1954
  448DG      H410285   5.134   3.775   0.094  1.8990  0.7910  0.3734
  448DG      H510286   5.230   3.684   0.200 -0.1514  0.1922 -0.5087
  448DG      H610287   4.970   3.420   0.630 -0.8564 -0.2934 -1.5290
  448DG      H710288   5.084   3.507   0.534 -0.7276  1.8713  0.8429
  448DG      H810289   5.109   3.510   0.704  0.6831  0.0385 -0.6592
  448DG      O910290   5.027   3.638   0.228 -0.4733 -0.1830  0.8155
  448DG     O1010291   4.947   3.623   0.636  0.2275 -0.2774 -0.0175
  448DG     C1110292   4.897   3.701   0.222 -0.6024 -0.4454  0.8992
  448DG     C1210293   5.020   3.744   0.647  0.2932 -0.6657  0.5711
  448DG     H1310294   4.813   3.641   0.187 -0.1110 -1.3449  1.2523
  448DG     H1410295   4.900   3.791   0.160 -1.2775 -0.8817  0.2207
  448DG     H1510296   5.123   3.736   0.611  0.3391  1.1315  0.2197
  448DG     H1610297   5.017   3.775   0.751  0.7368  0.0439  0.3828
  448DG     C1710298   4.861   3.758   0.356  0.1513 -0.0197 -0.0302
  448DG     C1810299   4.950   3.844   0.551 -0.3310 -0.1738 -0.0296
  448DG     O1910300   4.972   3.811   0.416  0.0210  0.1051 -0.6716
  448DG     H2010301   4.823   3.678   0.419  0.0142  0.8838  1.0630
  448DG     H2110302   4.776   3.826   0.356  1.2719  1.4507  0.9468
  448DG     H2210303   4.846   3.851   0.582 -0.4443 -1.9790  0.0564
  448DG     H2310304   4.999   3.939   0.577 -0.5160 -0.1074  0.0790
  449DG      C110305   0.963   3.808   4.817 -0.1301  0.1089  0.0561
  449DG      C210306   1.128   4.494   4.788  0.2143 -0.0976 -0.0900
  449DG      H310307   0.911   3.732   4.758  1.6811 -3.3477  2.5290
  449DG      H410308   0.954   3.778   4.921 -5.6542  0.0042 -0.1756
  449DG      H510309   1.065   3.794   4.781 -0.5894 -0.4724 -1.0639
  449DG      H610310   1.111   4.601   4.774  0.1307  0.0611  1.1114
  449DG      H710311   1.138   4.481   4.896 -3.4219  0.6903  0.4754
  449DG      H810312   1.221   4.472   4.735  1.1794 -0.3122  1.6229
  449DG      O910313   0.923   3.943   4.806  0.0004 -0.3421  0.0280
  449DG     O1010314   1.029   4.405   4.746  0.1960  0.6360 -0.4620
  449DG     C1110315   0.792   3.949   4.856 -0.2962  0.0337  0.1129
  449DG     C1210316   0.919   4.411   4.839  0.7388 -0.4701 -0.6387
  449DG     H1310317   0.812   3.933   4.962 -0.1472 -1.0885 -0.0750
  449DG     H1410318   0.732   3.867   4.816 -1.0892 -0.6185  2.4349
  449DG     H1510319   0.884   4.513   4.851 -3.2877 -1.5707 -1.3482
  449DG     H1610320   0.959   4.374   4.934  3.1009  0.2393 -1.2908
  449DG     C1710321   0.734   4.085   4.829 -0.0834 -0.0974  0.0534
  449DG     C1810322   0.800   4.314   4.820  0.1627  0.9580 -0.3751
  449DG     O1910323   0.838   4.180   4.811  0.0327  0.6201  0.0851
  449DG     H2010324   0.658   4.110   4.902 -0.5535 -0.7351 -0.2124
  449DG     H2110325   0.684   4.083   4.732  0.3220  2.1888 -0.2545
  449DG     H2210326   0.724   4.322   4.897 -1.7643  0.3893 -2.1335
  449DG     H2310327   0.752   4.343   4.726 -1.9679 -0.7288  0.1199
  450DG      C110328   4.748   4.622   1.264 -0.0993  0.1269  0.3091
  450DG      C210329   4.315   4.732   0.626  0.3185  0.5704  0.1492
  450DG      H310330   4.738   4.629   1.372  1.5816 -1.8861  0.6713
  450DG      H410331   4.794   4.714   1.228  1.8361 -0.8856  0.0643
  450DG      H510332   4.816   4.537   1.248 -0.2240  0.2069 -0.6992
  450DG      H610333   4.292   4.631   0.590  0.8138 -0.2035  1.8856
  450DG      H710334   4.227   4.793   0.609 -1.3824 -2.2712 -2.2264
  450DG      H810335   4.387   4.769   0.553  0.4787 -2.5474 -1.4547
  450DG      O910336   4.628   4.599   1.193  0.1062 -0.3040  0.4554
  450DG     O1010337   4.341   4.729   0.763  0.2135  0.5100 -0.0480
  450DG     C1110338   4.638   4.565   1.056  0.7010 -1.0578 -0.8275
  450DG     C1210339   4.247   4.656   0.843  0.3039 -0.2369 -0.4322
  450DG     H1310340   4.700   4.476   1.058  2.5517  0.1935  0.4956
  450DG     H1410341   4.690   4.646   1.004 -0.8793 -0.3479 -1.3594
  450DG     H1510342   4.261   4.550   0.822  2.4963 -0.2161  0.6597
  450DG     H1610343   4.151   4.702   0.820  0.7814  1.1511  0.2460
  450DG     C1710344   4.492   4.561   1.000  0.1373  0.1986  0.1704
  450DG     C1810345   4.279   4.677   0.991 -0.3416  0.0541 -0.4232
  450DG     O1910346   4.421   4.677   1.023  0.0336 -0.2205 -0.5447
  450DG     H2010347   4.442   4.478   1.050 -0.3157  0.7814  0.7011
  450DG     H2110348   4.510   4.540   0.894  0.8811 -1.3279  0.5675
  450DG     H2210349   4.233   4.771   1.021  1.1031  0.6349  0.0354
  450DG     H2310350   4.231   4.596   1.047  0.4563 -0.4901 -0.5134
  451DG      C110351   3.963   0.771   4.043  0.5628  0.4012  0.2217
  451DG      C210352   4.161   1.269   4.402 -0.7878  0.1713  0.4009
  451DG      H310353   3.949   0.723   3.945  0.1456 -0.4519  0.6870
  451DG      H410354   3.909   0.713   4.118 -0.0083  0.0443 -0.4504
  451DG      H510355   4.070   0.756   4.059  0.5393  0.0791  0.0900
  451DG      H610356   4.245   1.199   4.405  0.0352  1.1652  1.8168
  451DG      H710357   4.211   1.365   4.389 -1.0975  0.3553  0.5848
  451DG      H810358   4.107   1.262   4.496  1.7643 -0.8957  1.8836
  451DG      O910359   3.955   0.911   4.037  0.2907  0.4351 -0.2257
  451DG     O1010360   4.083   1.236   4.285  0.1462 -0.1374 -0.1370
  451DG     C1110361   3.831   0.955   3.982 -0.2948  0.5980  0.6002
  451DG     C1210362   3.970   1.315   4.278  0.7758  0.3728  0.0030
  451DG     H1310363   3.745   0.911   4.032  0.0206  0.1354  0.7401
  451DG     H1410364   3.827   0.911   3.883 -0.7205 -0.7723  1.2030
  451DG     H1510365   3.994   1.418   4.305  1.3770 -0.3648  2.5816
  451DG     H1610366   3.904   1.289   4.361  0.0014  1.7837 -0.1509
  451DG     C1710367   3.818   1.108   3.997  0.3659 -0.2305  0.5449
  451DG     C1810368   3.886   1.283   4.151  0.2492  0.4082 -0.1505
  451DG     O1910369   3.880   1.141   4.119  0.0310 -0.2968  0.0151
  451DG     H2010370   3.720   1.155   4.000  1.7108  2.8097  0.3404
  451DG     H2110371   3.860   1.168   3.916 -1.5072  0.7545  0.2418
  451DG     H2210372   3.784   1.321   4.165  0.5218  0.1588  3.6780
  451DG     H2310373   3.933   1.344   4.074 -2.1711  2.0468 -0.4668
  452DG      C110374   1.188   5.449   1.571 -0.4744 -0.4453 -0.3254
  452DG      C210375   1.546   4.872   1.715 -0.0872 -0.4277 -0.1260
  452DG      H310376   1.279   5.480   1.520 -0.1234 -0.6035  0.1911
  452DG      H410377   1.196   5.461   1.679  1.7408  0.5983 -0.5533
  452DG      H510378   1.115   5.519   1.532  0.8387  0.4937 -1.1849
  452DG      H610379   1.621   4.948   1.696 -0.8511  0.3045 -0.2685
  452DG      H710380   1.576   4.817   1.804  1.2348  1.2554  0.5079
  452DG      H810381   1.554   4.804   1.629  1.0779  1.5995 -1.7047
  452DG      O910382   1.167   5.321   1.523 -0.0301  0.1198 -0.0044
  452DG     O1010383   1.411   4.912   1.718 -0.1754  0.0143  0.0729
  452DG     C1110384   1.062   5.239   1.589  0.6483  0.0902  0.4747
  452DG     C1210385   1.389   4.976   1.841 -0.0475  0.0932 -0.2939
  452DG     H1310386   1.036   5.155   1.525 -2.6753  1.2648  0.0894
  452DG     H1410387   0.967   5.292   1.599  0.1967 -0.7377  0.6659
  452DG     H1510388   1.457   5.062   1.844 -0.2352  0.2545 -0.7136
  452DG     H1610389   1.413   4.941   1.942 -1.5967  1.0341  0.4454
  452DG     C1710390   1.103   5.189   1.732 -0.1604 -0.3704 -0.9943
  452DG     C1810391   1.249   5.043   1.848  0.1635 -0.6476 -0.0462
  452DG     O1910392   1.223   5.120   1.731  0.1546  0.3783 -0.5800
  452DG     H2010393   1.024   5.129   1.777  0.0259 -1.8499 -2.5113
  452DG     H2110394   1.130   5.277   1.790  1.9544 -0.5449 -1.6383
  452DG     H2210395   1.159   4.981   1.854 -2.1707  2.6185  1.9462
  452DG     H2310396   1.239   5.117   1.927  1.2250  0.5033 -0.9601
  453DG      C110397   4.534   3.861   0.611  0.5131 -0.4692  1.0195
  453DG      C210398   4.188   3.418   0.955 -0.1511 -0.3440 -0.4330
  453DG      H310399   4.573   3.760   0.603  0.1267 -0.4841 -1.1072
  453DG      H410400   4.612   3.924   0.652  0.8168 -0.8993  1.1005
  453DG      H510401   4.510   3.893   0.510 -0.9658  0.5047  1.6307
  453DG      H610402   4.258   3.481   0.899 -1.9362 -0.0440 -2.4983
  453DG      H710403   4.238   3.340   1.011  2.2028 -0.3980 -2.4408
  453DG      H810404   4.121   3.376   0.880  2.8762  0.6077 -3.9534
  453DG      O910405   4.412   3.870   0.689  0.0678  0.0328 -0.1445
  453DG     O1010406   4.102   3.494   1.043 -0.3006 -0.3808 -0.1475
  453DG     C1110407   4.430   3.844   0.825 -0.1652  0.3035 -0.1347
  453DG     C1210408   4.035   3.599   0.971  0.3620 -0.5633  0.3808
  453DG     H1310409   4.499   3.923   0.854  0.2198  0.0236 -0.2727
  453DG     H1410410   4.484   3.752   0.847  2.3206  2.2657  2.7673
  453DG     H1510411   3.946   3.623   1.030  0.8301 -2.4669  1.9898
  453DG     H1610412   4.018   3.564   0.870  0.8023 -1.3324  0.5668
  453DG     C1710413   4.300   3.858   0.897  1.0722 -0.1868 -0.2897
  453DG     C1810414   4.114   3.736   0.966  0.0722 -0.2480 -0.0905
  453DG     O1910415   4.225   3.733   0.883  0.0552  1.0363  0.1596
  453DG     H2010416   4.248   3.945   0.855  0.1627 -0.0678  1.0388
  453DG     H2110417   4.318   3.887   1.000  0.6489  0.8176 -0.4779
  453DG     H2210418   4.040   3.812   0.940  0.6161  0.3579  0.1120
  453DG     H2310419   4.146   3.755   1.068 -0.8991 -0.5562  0.2865
  454DG      C110420   3.258   4.502   0.902 -0.5118  0.3088 -0.1980
  454DG      C210421   3.623   5.129   1.224  0.3161  0.0792  0.3456
  454DG      H310422   3.305   4.424   0.962  0.7196  0.5556 -0.8107
  454DG      H410423   3.309   4.495   0.805  1.5381  2.6359  0.6010
  454DG      H510424   3.156   4.468   0.886 -0.7867  0.0091  1.9429
  454DG      H610425   3.585   5.226   1.257 -0.3819 -0.2596  0.5765
  454DG      H710426   3.671   5.088   1.313 -0.6062  0.3983  1.0163
  454DG      H810427   3.700   5.146   1.149  0.3165 -2.3791 -0.3045
  454DG      O910428   3.265   4.632   0.959  0.2575 -0.0694 -0.4890
  454DG     O1010429   3.530   5.038   1.173 -0.6976  0.0641 -0.6220
  454DG     C1110430   3.221   4.624   1.090  0.0078 -0.0419 -0.2191
  454DG     C1210431   3.453   4.990   1.287 -0.0977  0.9008 -0.5287
  454DG     H1310432   3.287   4.581   1.165 -2.4968  1.3287  3.0170
  454DG     H1410433   3.123   4.577   1.101  0.1736  0.0394  2.1071
  454DG     H1510434   3.441   5.069   1.361  1.2100 -0.0017  0.7168
  454DG     H1610435   3.506   4.916   1.348 -1.4075 -0.4971 -1.0376
  454DG     C1710436   3.194   4.768   1.136 -0.3039 -0.1772 -0.3335
  454DG     C1810437   3.320   4.947   1.239 -0.1014  0.2962  0.4714
  454DG     O1910438   3.323   4.832   1.151  0.6249 -0.8136 -0.2124
  454DG     H2010439   3.141   4.766   1.231  1.4607 -0.4165  0.6874
  454DG     H2110440   3.130   4.811   1.059  0.3352 -0.7102 -1.1782
  454DG     H2210441   3.255   4.927   1.324 -3.0123  4.4947 -0.3969
  454DG     H2310442   3.279   5.034   1.186  0.7014  0.6204  0.3641
  455DG      C110443   2.920   1.061   0.403  0.1670  0.0822 -0.5005
  455DG      C210444   3.435   1.355   0.809  0.4707 -0.2632 -0.5342
  455DG      H310445   2.895   0.989   0.324 -0.3129  0.4966 -0.7293
  455DG      H410446   2.910   1.167   0.381  2.4185  0.6489  0.9163
  455DG      H510447   2.847   1.029   0.477  0.2394  0.6211 -0.1966
  455DG      H610448   3.453   1.440   0.743 -0.3970 -1.4118 -2.3167
  455DG      H710449   3.355   1.382   0.879  1.7738 -0.3087  1.0470
  455DG      H810450   3.521   1.333   0.873 -1.0221 -0.3263  1.5700
  455DG      O910451   3.043   1.024   0.454 -0.2415 -0.0719  0.0086
  455DG     O1010452   3.389   1.251   0.730  0.1238  0.6739  0.4203
  455DG     C1110453   3.152   1.025   0.357 -0.0477  0.2208 -0.3547
  455DG     C1210454   3.489   1.210   0.636 -0.4563  0.4200 -0.1833
  455DG     H1310455   3.162   1.127   0.320 -0.9992  0.5378  0.2222
  455DG     H1410456   3.130   0.959   0.273  0.7342 -1.1398  0.4720
  455DG     H1510457   3.578   1.198   0.699 -0.6263  0.3485  0.0463
  455DG     H1610458   3.505   1.287   0.562 -3.7641 -0.7691 -2.3391
  455DG     C1710459   3.285   0.997   0.425  0.1730  0.3341  0.3260
  455DG     C1810460   3.446   1.079   0.576  0.7504 -0.2747  0.7084
  455DG     O1910461   3.322   1.100   0.511  0.0204 -0.1479  0.2197
  455DG     H2010462   3.355   1.002   0.341  0.4270 -0.0922  0.5133
  455DG     H2110463   3.301   0.897   0.465 -0.0258  0.2736  0.2560
  455DG     H2210464   3.518   1.056   0.498 -0.4095  0.5537 -0.6469
  455DG     H2310465   3.450   1.004   0.655  1.3140  0.5693  1.5161
  456DG      C110466   1.629   2.485   2.371 -0.5649  0.7254 -0.0595
  456DG      C210467   1.906   2.152   1.810 -0.5093  0.1037 -0.1790
  456DG      H310468   1.568   2.575   2.380 -1.5738 -0.0648  1.5121
  456DG      H410469   1.689   2.470   2.461 -1.3927 -0.3491  0.3447
  456DG      H510470   1.562   2.399   2.379  0.3989 -0.1114 -0.6787
  456DG      H610471   1.810   2.138   1.760 -1.1573 -0.2875  1.1304
  456DG      H710472   1.984   2.148   1.734 -0.4166 -1.4681 -0.0415
  456DG      H810473   1.929   2.065   1.873 -1.4970 -0.5476 -0.6863
  456DG      O910474   1.713   2.471   2.259 -0.9073 -0.1121 -0.0174
  456DG     O1010475   1.925   2.275   1.883  0.8073  0.1204 -0.4760
  456DG     C1110476   1.789   2.591   2.232  0.3268 -0.4097 -0.4872
  456DG     C1210477   1.922   2.389   1.803  0.0977  0.2284  0.0873
  456DG     H1310478   1.875   2.601   2.299 -0.7893  0.4059  0.8768
  456DG     H1410479   1.731   2.679   2.261  0.7032 -0.5677  0.8114
  456DG     H1510480   1.831   2.399   1.743  1.1526  2.2557 -1.2985
  456DG     H1610481   2.007   2.400   1.736  1.0169  4.0317  1.6377
  456DG     C1710482   1.835   2.608   2.085  0.8035 -0.5801 -0.4752
  456DG     C1810483   1.928   2.511   1.892  0.2155  0.4308 -0.2311
  456DG     O1910484   1.872   2.485   2.027 -0.3040 -0.1222  0.3834
  456DG     H2010485   1.919   2.676   2.066 -0.8675  1.0281 -2.7237
  456DG     H2110486   1.747   2.637   2.028  1.1847  0.1686 -0.6985
  456DG     H2210487   2.031   2.546   1.890 -0.3128  2.2775 -3.3731
  456DG     H2310488   1.879   2.596   1.844 -2.3190  0.5084  2.2516
  457DG      C110489   0.369   0.023   0.376 -0.5965  0.1156  0.6603
  457DG      C210490   0.737   0.495  -0.040  0.1954  0.1539 -0.0447
  457DG      H310491   0.421  -0.006   0.467 -0.9259  0.2278  0.8886
  457DG      H410492   0.286  -0.048   0.366 -0.1362 -0.1447 -2.4891
  457DG      H510493   0.334   0.126   0.386  0.0606  0.8834 -3.3259
  457DG      H610494   0.716   0.591   0.008  1.0930  0.2527  0.1744
  457DG      H710495   0.759   0.515  -0.145 -0.3276 -1.6231 -0.5270
  457DG      H810496   0.646   0.436  -0.037  1.6110 -2.1531  1.9863
  457DG      O910497   0.448   0.014   0.257 -0.0114 -0.2137 -0.1804
  457DG     O1010498   0.828   0.415   0.033  0.5346 -0.3140 -0.5641
  457DG     C1110499   0.573   0.085   0.260 -0.0231  1.0253 -0.2731
  457DG     C1210500   0.875   0.299  -0.036 -0.0034 -0.2107  0.2956
  457DG     H1310501   0.651   0.040   0.322 -0.3518  1.3449  0.3913
  457DG     H1410502   0.549   0.183   0.302  1.4276  1.4371 -0.3579
  457DG     H1510503   0.975   0.277   0.002  0.7675 -0.2013 -1.6479
  457DG     H1610504   0.898   0.334  -0.136  1.2295  2.0072  1.2618
  457DG     C1710505   0.624   0.081   0.120 -0.0406 -0.6047  0.4741
  457DG     C1810506   0.773   0.181  -0.036  0.6316  1.5373  0.5606
  457DG     O1910507   0.737   0.162   0.103  0.1332  0.2980 -0.0109
  457DG     H2010508   0.550   0.123   0.052  0.2924  1.3068  1.2313
  457DG     H2110509   0.639  -0.020   0.083 -2.0495 -0.9468  0.5000
  457DG     H2210510   0.684   0.198  -0.096 -0.7811 -0.1216  2.0600
  457DG     H2310511   0.820   0.094  -0.082 -0.0601  1.2064  0.4730
  458DG      C110512   1.629   2.146   1.446 -0.2867 -0.9945 -0.1733
  458DG      C210513   0.911   2.574   1.398  0.0226 -0.6004  0.4921
  458DG      H310514   1.660   2.102   1.352 -0.4166 -0.7719 -0.3218
  458DG      H410515   1.582   2.067   1.503  0.2830 -0.2027  1.4760
  458DG      H510516   1.724   2.173   1.493 -1.4532  1.1694  1.1453
  458DG      H610517   0.853   2.644   1.458  1.5721 -0.2011  1.5875
  458DG      H710518   0.947   2.629   1.311 -1.6864 -2.4934 -1.5374
  458DG      H810519   0.832   2.507   1.364 -1.1403  0.5912  0.7462
  458DG      O910520   1.544   2.259   1.431  1.0194  0.1572 -0.0187
  458DG     O1010521   1.011   2.518   1.481 -0.2433  0.0929 -0.0329
  458DG     C1110522   1.439   2.227   1.334  0.5382 -0.3011 -0.0411
  458DG     C1210523   1.137   2.583   1.476  0.2613  0.1499 -0.0088
  458DG     H1310524   1.355   2.173   1.379  0.9564 -1.1895 -0.3043
  458DG     H1410525   1.485   2.182   1.246  0.0460 -0.2127 -0.3473
  458DG     H1510526   1.184   2.567   1.573 -0.9477  0.3441  0.6148
  458DG     H1610527   1.117   2.690   1.475  1.0784  0.3095 -0.4322
  458DG     C1710528   1.372   2.358   1.288 -0.1769  0.0626  0.1262
  458DG     C1810529   1.231   2.544   1.359 -0.3151 -0.2136  0.4718
  458DG     O1910530   1.271   2.405   1.373  0.1837 -0.0612 -0.3969
  458DG     H2010531   1.350   2.342   1.182  1.2275 -1.1513 -0.0126
  458DG     H2110532   1.447   2.436   1.277 -0.4797  0.2575 -0.6395
  458DG     H2210533   1.166   2.548   1.272  0.9031  1.6392 -0.3955
  458DG     H2310534   1.316   2.611   1.364  0.8343 -1.6818  2.3051
  459DG      C110535   3.411   4.426   2.813  0.4700 -0.5123 -0.0440
  459DG      C210536   3.769   4.026   2.532 -0.0689 -0.0522  0.1274
  459DG      H310537   3.485   4.408   2.891  1.1536  0.3302 -0.4783
  459DG      H410538   3.314   4.461   2.847  0.7127  1.6309 -1.3781
  459DG      H510539   3.441   4.507   2.747 -1.0075 -0.7686 -1.0747
  459DG      H610540   3.850   3.988   2.595  1.2237 -0.9871 -1.9820
  459DG      H710541   3.813   4.080   2.448  0.6249 -0.0974  0.4550
  459DG      H810542   3.719   4.097   2.598  0.8058  1.1146 -0.4289
  459DG      O910543   3.395   4.322   2.722 -0.6884  0.2561  0.1942
  459DG     O1010544   3.685   3.924   2.497  0.7381 -0.0108 -0.3074
  459DG     C1110545   3.346   4.207   2.789 -0.5149  0.0810  0.6740
  459DG     C1210546   3.563   3.959   2.429  0.5884 -0.1562 -0.3082
  459DG     H1310547   3.252   4.219   2.842 -0.3343 -0.3850  1.1088
  459DG     H1410548   3.419   4.171   2.862  0.3920 -1.0095 -0.7275
  459DG     H1510549   3.549   3.871   2.367 -1.5776  0.3546 -0.6295
  459DG     H1610550   3.563   4.047   2.364 -0.3837  0.1623  0.1003
  459DG     C1710551   3.329   4.097   2.689  0.3577 -0.0668  0.9695
  459DG     C1810552   3.445   3.961   2.532 -0.2023 -0.1703  0.0204
  459DG     O1910553   3.448   4.080   2.612  0.0686  0.5703 -0.1911
  459DG     H2010554   3.261   4.128   2.610  1.1084  0.4814  0.5333
  459DG     H2110555   3.321   3.999   2.736 -0.1842 -1.1100 -1.1690
  459DG     H2210556   3.353   3.955   2.474 -0.2599 -0.9826  0.1853
  459DG     H2310557   3.443   3.880   2.605 -1.0895  0.9930  1.3506
  460DG      C110558   3.355   2.541   1.191  0.4730 -0.1361 -0.2200
  460DG      C210559   3.224   2.597   1.925  0.1308  0.5514  0.1660
  460DG      H310560   3.356   2.607   1.104 -0.2453  1.8439  1.2020
  460DG      H410561   3.256   2.496   1.198  1.3016 -2.2219 -1.0254
  460DG      H510562   3.422   2.456   1.177 -1.1530 -1.4094 -0.5812
  460DG      H610563   3.197   2.692   1.878  0.5777  0.8620  0.5208
  460DG      H710564   3.140   2.567   1.988 -0.6233 -0.5137 -1.2970
  460DG      H810565   3.307   2.610   1.994  1.1024 -2.5644 -0.2533
  460DG      O910566   3.390   2.599   1.319  0.1725  0.0504 -0.0344
  460DG     O1010567   3.257   2.505   1.824  0.1412  0.4899  0.1681
  460DG     C1110568   3.300   2.707   1.357 -0.0392 -0.0695  0.5375
  460DG     C1210569   3.152   2.457   1.745  0.1754 -0.5351 -0.0940
  460DG     H1310570   3.274   2.770   1.272  0.9944  0.3588  0.5254
  460DG     H1410571   3.359   2.768   1.425 -0.0153 -1.1558  1.5264
  460DG     H1510572   3.083   2.423   1.822  1.0058 -1.8697  0.0978
  460DG     H1610573   3.193   2.361   1.713  1.8332 -0.7528  2.4105
  460DG     C1710574   3.180   2.659   1.438  0.0361  0.2257 -0.1020
  460DG     C1810575   3.119   2.563   1.636  0.1819  0.3425  0.0560
  460DG     O1910576   3.228   2.593   1.550  0.0424 -0.5865 -0.0576
  460DG     H2010577   3.127   2.587   1.376  0.8164 -1.6822  1.3321
  460DG     H2110578   3.117   2.745   1.457 -1.2471 -0.4679 -1.0799
  460DG     H2210579   3.030   2.534   1.580  0.1830  1.2438 -0.4360
  460DG     H2310580   3.082   2.656   1.679 -0.7845  0.1592 -0.3463
  461DG      C110581   1.041   3.184   4.059  0.4771 -0.0967 -0.5034
  461DG      C210582   1.237   2.709   3.649  0.3950 -0.2126 -0.1771
  461DG      H310583   0.987   3.201   3.966 -2.4638  1.6138  1.3750
  461DG      H410584   1.124   3.254   4.064  1.1388 -0.5176 -3.4773
  461DG      H510585   0.975   3.193   4.145 -0.0423 -0.5661 -0.8499
  461DG      H610586   1.330   2.665   3.612  1.6233  0.1827  2.1810
  461DG      H710587   1.165   2.628   3.661  0.4146 -0.1507  0.3768
  461DG      H810588   1.205   2.792   3.586 -1.9379  1.0384  2.4444
  461DG      O910589   1.095   3.060   4.058  0.2363  1.1276 -0.1234
  461DG     O1010590   1.260   2.774   3.770  0.2393  0.1411  0.1190
  461DG     C1110591   1.167   3.016   4.177 -0.1236  0.2497  0.4121
  461DG     C1210592   1.320   2.685   3.865 -0.0470 -0.2395  0.0611
  461DG     H1310593   1.093   2.990   4.253  0.0239 -0.1704  0.4093
  461DG     H1410594   1.222   3.105   4.208 -1.4299  2.8428 -3.8565
  461DG     H1510595   1.406   2.630   3.828 -0.9769 -0.8786 -1.2313
  461DG     H1610596   1.255   2.601   3.888 -1.1308  0.5430 -0.0293
  461DG     C1710597   1.273   2.908   4.151  0.1217 -0.6345 -0.4042
  461DG     C1810598   1.358   2.746   4.002  0.2838 -0.3599  0.4001
  461DG     O1910599   1.266   2.853   4.027  0.1060 -0.5447  0.1274
  461DG     H2010600   1.267   2.831   4.228  2.8545 -0.0123  0.5524
  461DG     H2110601   1.373   2.950   4.155  0.2746 -0.9808 -0.5519
  461DG     H2210602   1.355   2.666   4.076  0.4357 -1.8365 -1.1091
  461DG     H2310603   1.458   2.789   4.011 -1.2777  3.3320  1.9526
  462DG      C110604   4.553   4.059   1.651  0.5427  0.1333  0.1105
  462DG      C210605   4.975   4.234   1.304  0.3363  0.0020 -0.0963
  462DG      H310606   4.542   3.953   1.628  1.0526  0.5058 -2.0625
  462DG      H410607   4.630   4.099   1.585  1.3235  0.0815  0.9631
  462DG      H510608   4.468   4.117   1.618  0.3684 -0.3725 -0.3459
  462DG      H610609   5.044   4.315   1.280 -0.3461 -0.2150 -3.1522
  462DG      H710610   5.015   4.139   1.270 -1.6491 -0.6649 -0.6883
  462DG      H810611   4.890   4.249   1.237  1.6922  2.4239 -1.4068
  462DG      O910612   4.577   4.097   1.791 -0.0754 -1.0109  0.1189
  462DG     O1010613   4.944   4.235   1.446  0.0075  0.4519 -0.6315
  462DG     C1110614   4.577   4.237   1.822  0.2181  0.0937 -0.0904
  462DG     C1210615   4.884   4.364   1.468  0.2897  0.5869  0.0075
  462DG     H1310616   4.564   4.253   1.929  2.0560  1.5988 -0.0286
  462DG     H1410617   4.494   4.279   1.766  0.2460  1.5888  0.9216
  462DG     H1510618   4.791   4.378   1.414 -0.2851  1.8500  1.2738
  462DG     H1610619   4.942   4.450   1.436 -0.3087  1.0878  0.2739
  462DG     C1710620   4.709   4.301   1.786 -0.7984  0.5058 -0.0916
  462DG     C1810621   4.855   4.383   1.620  0.5326  0.3174 -0.2985
  462DG     O1910622   4.742   4.299   1.650 -0.7085  0.1991  0.0353
  462DG     H2010623   4.795   4.281   1.850  1.0250  2.1985 -1.8774
  462DG     H2110624   4.696   4.405   1.815 -1.3761  0.0032  1.5854
  462DG     H2210625   4.945   4.356   1.676  1.0355  0.2729 -1.1011
  462DG     H2310626   4.832   4.488   1.637  2.4442  0.6200  0.6892
  463DG      C110627   2.884   2.552   3.567 -0.1541 -0.4245 -0.0863
  463DG      C210628   2.298   2.962   3.248  0.4647  0.5718 -0.3288
  463DG      H310629   2.816   2.490   3.626 -0.3979 -1.1215 -1.0719
  463DG      H410630   2.914   2.633   3.634  0.9134 -1.1666  0.3698
  463DG      H510631   2.969   2.491   3.535 -0.4827 -0.6227 -0.5856
  463DG      H610632   2.283   3.070   3.252 -0.6484  0.4226 -0.1387
  463DG      H710633   2.238   2.913   3.172 -1.2038 -0.7896  1.7627
  463DG      H810634   2.266   2.940   3.350  0.7450 -0.2245 -0.4071
  463DG      O910635   2.811   2.577   3.447 -0.5852 -0.4003 -0.3916
  463DG     O1010636   2.423   2.901   3.241 -0.4805  0.7230 -0.2838
  463DG     C1110637   2.874   2.683   3.368  0.2850  0.0060 -0.5187
  463DG     C1210638   2.432   2.760   3.230 -0.5136  0.3853 -0.0141
  463DG     H1310639   2.978   2.659   3.346 -0.3604 -3.1841 -0.4861
  463DG     H1410640   2.877   2.774   3.428 -1.9525  0.5969 -1.2200
  463DG     H1510641   2.362   2.727   3.153 -2.8390 -0.8433  2.4533
  463DG     H1610642   2.406   2.703   3.319 -0.2216 -1.1796 -0.8995
  463DG     C1710643   2.796   2.705   3.242 -0.4254 -0.3467  0.8839
  463DG     C1810644   2.573   2.714   3.173 -0.3640  0.2635 -0.0434
  463DG     O1910645   2.665   2.741   3.274 -0.3262 -0.8584  0.1476
  463DG     H2010646   2.792   2.608   3.192  1.6141  0.0334 -0.1070
  463DG     H2110647   2.837   2.787   3.184 -0.9611 -1.6709 -1.5057
  463DG     H2210648   2.566   2.608   3.148 -1.5960  0.0495  1.1214
  463DG     H2310649   2.606   2.770   3.085  0.1596 -1.8364 -1.2761
  464DG      C110650   1.090   0.745   3.685 -0.0649  0.5876 -0.4341
  464DG      C210651   1.752   0.658   3.419  0.2708 -0.1968  0.0934
  464DG      H310652   1.125   0.828   3.624  1.0831  0.1583 -0.3909
  464DG      H410653   1.127   0.763   3.786 -0.2510 -2.3288  0.2615
  464DG      H510654   0.981   0.748   3.692 -0.1897 -1.8596 -0.3577
  464DG      H610655   1.792   0.683   3.320  0.9091  2.0296  0.8519
  464DG      H710656   1.829   0.670   3.494 -1.8482  2.2119  2.0669
  464DG      H810657   1.728   0.552   3.413 -0.6577 -0.1417  2.1985
  464DG      O910658   1.144   0.615   3.645 -0.5239  0.1549  0.1860
  464DG     O1010659   1.639   0.743   3.452  0.2280  0.2246  0.1684
  464DG     C1110660   1.283   0.592   3.673  0.4756 -0.1973  0.7158
  464DG     C1210661   1.538   0.748   3.343 -0.0327 -0.0496 -0.1710
  464DG     H1310662   1.295   0.493   3.630  0.1313  0.8602 -1.9887
  464DG     H1410663   1.312   0.593   3.778 -0.2643  0.6300  0.9307
  464DG     H1510664   1.527   0.660   3.281  1.9436 -0.6129  0.2197
  464DG     H1610665   1.574   0.825   3.274  0.2733  0.1750  0.2312
  464DG     C1710666   1.372   0.689   3.599  0.2237  0.4512  0.0257
  464DG     C1810667   1.404   0.795   3.397 -0.1555  0.3420  0.9513
  464DG     O1910668   1.346   0.683   3.457 -0.4583  0.1629  0.0494
  464DG     H2010669   1.476   0.659   3.615  0.1775 -0.6113 -1.4201
  464DG     H2110670   1.356   0.783   3.651 -0.8421  1.0591 -1.3367
  464DG     H2210671   1.413   0.885   3.458 -0.5658  1.4523 -0.5715
  464DG     H2310672   1.352   0.816   3.304 -0.0312 -1.7689  0.3783
  465DG      C110673   4.826   3.829   2.309  0.1710 -0.3087 -0.5600
  465DG      C210674   4.198   4.199   2.512  0.2314  0.3901 -0.3823
  465DG      H310675   4.830   3.759   2.225  2.9309  1.7462 -2.3060
  465DG      H410676   4.755   3.777   2.374  0.5072 -0.4513 -0.2988
  465DG      H510677   4.921   3.825   2.364 -0.1512  1.2602  0.1531
  465DG      H610678   4.182   4.092   2.529 -1.1462  0.5102 -0.8110
  465DG      H710679   4.190   4.255   2.605  1.1191 -0.8963  0.5075
  465DG      H810680   4.113   4.240   2.457  0.5530  0.2037 -1.0291
  465DG      O910681   4.779   3.948   2.253  0.7774  0.6443 -0.5460
  465DG     O1010682   4.324   4.227   2.456 -0.5450 -0.2051 -0.5855
  465DG     C1110683   4.792   4.064   2.331 -0.5634 -0.6137 -0.4112
  465DG     C1210684   4.325   4.216   2.312 -0.3680  0.3617  0.6197
  465DG     H1310685   4.895   4.100   2.329 -0.8866  0.3368 -0.1694
  465DG     H1410686   4.774   4.046   2.437  0.4354 -2.9133 -0.5565
  465DG     H1510687   4.262   4.289   2.260  0.0212 -0.1332 -0.5774
  465DG     H1610688   4.297   4.113   2.290 -0.4664  0.3092  0.9857
  465DG     C1710689   4.694   4.170   2.270  0.2096 -0.0750 -0.1956
  465DG     C1810690   4.466   4.242   2.268 -0.7595 -0.4056  0.4209
  465DG     O1910691   4.559   4.144   2.314  0.1570  0.5088 -0.0387
  465DG     H2010692   4.707   4.164   2.162 -0.2860  2.0879 -0.4127
  465DG     H2110693   4.733   4.267   2.302  0.2293 -0.8358  2.3472
  465DG     H2210694   4.479   4.252   2.160 -1.4128  2.2526  0.5178
  465DG     H2310695   4.495   4.337   2.313 -1.3146 -0.3746  0.7273
  466DG      C110696   0.784   0.109   2.652  0.1679 -0.2722 -0.0721
  466DG      C210697   1.073   0.626   3.209  0.1514  0.0941  0.2081
  466DG      H310698   0.805   0.004   2.673  0.4711  0.1789  2.0023
  466DG      H410699   0.861   0.151   2.588  1.0704 -0.3435  0.9590
  466DG      H510700   0.682   0.118   2.614  0.4821  0.1787 -0.8461
  466DG      H610701   1.028   0.720   3.181  0.5686 -0.1164 -1.2270
  466DG      H710702   1.128   0.647   3.301 -0.6169 -1.3723  1.0441
  466DG      H810703   1.147   0.612   3.130  0.5605  1.0229  0.4162
  466DG      O910704   0.799   0.194   2.763  0.5141  0.1776  0.4930
  466DG     O1010705   0.980   0.523   3.219  0.3087 -0.6077  0.1042
  466DG     C1110706   0.678   0.191   2.840 -0.3795 -0.0042  0.8348
  466DG     C1210707   0.905   0.507   3.099 -0.3359  0.1514 -0.5460
  466DG     H1310708   0.642   0.088   2.837  0.7748 -0.4393 -2.1087
  466DG     H1410709   0.613   0.262   2.788  1.1656  1.3388  0.6648
  466DG     H1510710   0.974   0.504   3.014  2.5639  1.5938  1.5773
  466DG     H1610711   0.839   0.592   3.084  0.6639  0.7355 -1.7998
  466DG     C1710712   0.693   0.237   2.983 -0.1222  0.5395 -1.2466
  466DG     C1810713   0.811   0.387   3.118  0.0839  0.1147 -0.0770
  466DG     O1910714   0.759   0.364   2.996 -0.2752  0.2149  0.6807
  466DG     H2010715   0.754   0.162   3.033  0.6146  1.3792 -0.8430
  466DG     H2110716   0.598   0.259   3.031  0.6866  2.1306 -0.3016
  466DG     H2210717   0.872   0.302   3.151  1.5581  1.4565  0.7744
  466DG     H2310718   0.742   0.408   3.200 -1.0030  2.6629 -1.5456
  467DG      C110719   2.195   2.814   2.351  0.5085  0.0727 -0.1148
  467DG      C210720   2.106   2.648   1.574 -0.7273 -0.0870  0.1624
  467DG      H310721   2.255   2.815   2.442  0.8729 -0.3051 -0.3401
  467DG      H410722   2.112   2.747   2.375 -0.0829  0.6504 -0.5204
  467DG      H510723   2.162   2.913   2.322 -1.6436 -0.1674  1.3377
  467DG      H610724   2.090   2.730   1.504 -1.4249  0.2993  0.7597
  467DG      H710725   2.121   2.552   1.526  0.7344 -0.6157  1.5864
  467DG      H810726   2.013   2.640   1.631 -0.4867  0.0519  0.5805
  467DG      O910727   2.283   2.763   2.253 -0.4219  0.1154 -0.2772
  467DG     O1010728   2.205   2.680   1.675  0.0850  0.1900 -0.2054
  467DG     C1110729   2.236   2.745   2.125  0.7493  0.3257  0.5816
  467DG     C1210730   2.283   2.563   1.695  0.4603  0.3153  0.0696
  467DG     H1310731   2.207   2.847   2.099  1.2822  0.8683  1.9873
  467DG     H1410732   2.151   2.677   2.126  2.0802 -1.4047  0.7734
  467DG     H1510733   2.324   2.534   1.598 -1.2790 -3.9774  0.3750
  467DG     H1610734   2.220   2.479   1.724  0.0842  0.4657 -0.3041
  467DG     C1710735   2.346   2.688   2.036 -0.2648 -0.8782 -0.2449
  467DG     C1810736   2.373   2.590   1.818  0.0234 -0.2794 -0.0699
  467DG     O1910737   2.288   2.609   1.938  0.0331  0.4326 -0.0621
  467DG     H2010738   2.417   2.636   2.100  0.6387 -0.4413 -0.8720
  467DG     H2110739   2.407   2.767   1.994  0.6196 -2.6393 -2.5215
  467DG     H2210740   2.458   2.524   1.832  0.5745  0.3068 -0.5542
  467DG     H2310741   2.412   2.690   1.796  0.4101 -1.0658 -3.6876
  468DG      C110742   0.506   2.547   3.418 -0.0654 -0.7048 -0.0512
  468DG      C210743   0.651   3.347   3.702 -0.6480 -0.3235 -0.4237
  468DG      H310744   0.568   2.586   3.337 -1.2459  1.0559 -0.1573
  468DG      H410745   0.439   2.485   3.359 -0.6352  0.8032 -1.0620
  468DG      H510746   0.558   2.490   3.495 -0.9740 -3.8263 -1.5895
  468DG      H610747   0.735   3.364   3.634 -1.2353 -0.1587 -1.1260
  468DG      H710748   0.584   3.433   3.715 -0.5229 -0.5521  2.3415
  468DG      H810749   0.698   3.334   3.799 -1.6190  1.1125  0.2830
  468DG      O910750   0.426   2.648   3.471 -0.1266  0.5752  0.4773
  468DG     O1010751   0.582   3.237   3.665 -0.4751  0.1997 -0.0367
  468DG     C1110752   0.489   2.749   3.549  0.0354 -0.3250  0.1475
  468DG     C1210753   0.521   3.246   3.536  0.4001  0.2529  0.1225
  468DG     H1310754   0.588   2.773   3.510 -0.0739  0.7585  0.5103
  468DG     H1410755   0.510   2.725   3.653  3.4211  1.1280 -0.0761
  468DG     H1510756   0.588   3.244   3.450  1.3490 -0.6547  0.8516
  468DG     H1610757   0.459   3.335   3.531 -1.2697 -0.8216  1.0165
  468DG     C1710758   0.408   2.886   3.532  0.8787  0.1701 -0.3970
  468DG     C1810759   0.427   3.124   3.527  0.1797 -0.1452 -0.1383
  468DG     O1910760   0.498   2.998   3.535  0.5107  0.3996 -0.1759
  468DG     H2010761   0.332   2.884   3.610 -0.5823  0.0792 -1.7721
  468DG     H2110762   0.359   2.880   3.434  0.8131 -4.0307 -0.3142
  468DG     H2210763   0.346   3.133   3.599 -0.4124 -2.0681 -0.5047
  468DG     H2310764   0.387   3.124   3.425 -0.5505  0.6922  0.1273
  469DG      C110765   0.088   3.067   2.740 -0.6118 -0.0474  0.2575
  469DG      C210766  -0.178   2.754   2.045 -0.4948  0.2975  0.0196
  469DG      H310767   0.183   3.119   2.755 -0.8998 -0.1000  2.6816
  469DG      H410768   0.115   2.963   2.724 -1.3927  0.0896 -2.4400
  469DG      H510769   0.034   3.078   2.835  1.2661  0.1575  1.3452
  469DG      H610770  -0.215   2.792   1.950 -0.3580  1.0819  0.2738
  469DG      H710771  -0.075   2.723   2.031 -0.6221 -1.3297  2.1160
  469DG      H810772  -0.207   2.649   2.059  1.3747 -0.1887  0.4806
  469DG      O910773   0.017   3.115   2.629  0.1499  0.1887 -0.8711
  469DG     O1010774  -0.205   2.835   2.158 -0.4379  0.1271 -0.0794
  469DG     C1110775  -0.121   3.088   2.632 -0.1522 -0.3911  0.5095
  469DG     C1210776  -0.169   2.970   2.139 -0.7607  0.5581 -0.1166
  469DG     H1310777  -0.164   3.157   2.705 -0.9189 -0.7385  0.3932
  469DG     H1410778  -0.135   2.984   2.660 -0.5023 -0.4706  0.0477
  469DG     H1510779  -0.217   3.020   2.055  0.7081  0.1910 -1.2023
  469DG     H1610780  -0.062   2.981   2.124 -0.2873  1.3433  2.9851
  469DG     C1710781  -0.203   3.107   2.503 -0.2306  0.1094  0.3719
  469DG     C1810782  -0.207   3.053   2.260  0.0368 -0.8373  0.5310
  469DG     O1910783  -0.150   3.024   2.389 -0.8721 -0.1078 -0.3088
  469DG     H2010784  -0.198   3.215   2.486 -1.3179 -0.1366 -1.9184
  469DG     H2110785  -0.312   3.103   2.506 -0.2248  0.2218  0.9652
  469DG     H2210786  -0.187   3.158   2.238  1.5403 -0.7005  2.2397
  469DG     H2310787  -0.315   3.042   2.270 -0.2381 -0.0087 -1.3024
  470DG      C110788   4.651   4.106   4.463  0.0814 -0.6010  0.4144
  470DG      C210789   4.399   3.351   4.513 -0.2357  0.0559 -0.2302
  470DG      H310790   4.646   4.065   4.564  0.2911 -1.8541 -0.0622
  470DG      H410791   4.602   4.200   4.438  1.9117  0.5439  0.9368
  470DG      H510792   4.757   4.131   4.458  0.2110 -0.8778  1.4810
  470DG      H610793   4.397   3.297   4.418  0.1162 -0.7501  0.2054
  470DG      H710794   4.496   3.324   4.555 -0.6930 -1.6255 -0.1867
  470DG      H810795   4.321   3.316   4.581 -3.7128 -0.3090 -4.0096
  470DG      O910796   4.613   4.010   4.369 -0.0574 -0.5933 -0.1434
  470DG     O1010797   4.386   3.488   4.482  0.2366 -0.4524 -0.0084
  470DG     C1110798   4.470   4.001   4.351 -0.6728  0.6275  0.5147
  470DG     C1210799   4.441   3.568   4.589  0.6195  0.5969 -0.1277
  470DG     H1310800   4.445   3.942   4.263 -0.5242 -0.5603  1.2404
  470DG     H1410801   4.433   4.103   4.346 -0.8262  0.6393  1.6163
  470DG     H1510802   4.549   3.573   4.573  0.8281 -0.2196  1.0125
  470DG     H1610803   4.429   3.529   4.689 -1.1434 -0.5219 -0.7308
  470DG     C1710804   4.408   3.918   4.469  0.3966  0.0558 -0.5563
  470DG     C1810805   4.382   3.713   4.583 -0.6698 -0.1720  0.4112
  470DG     O1910806   4.446   3.783   4.471  0.0405  0.1709  0.2442
  470DG     H2010807   4.300   3.917   4.453  0.2790  2.2868 -0.1460
  470DG     H2110808   4.391   3.971   4.563  0.0468  0.5734 -0.9068
  470DG     H2210809   4.274   3.714   4.571 -0.7347  1.7716  0.9225
  470DG     H2310810   4.394   3.764   4.679  1.0754 -0.7176  0.5266
  471DG      C110811   4.903   1.915   1.075  0.3782 -0.1753  1.0367
  471DG      C210812   4.853   1.832   0.289 -0.2235 -0.0297 -0.9804
  471DG      H310813   4.954   1.821   1.050 -2.3307 -0.9450 -2.2908
  471DG      H410814   4.804   1.891   1.113 -0.3489 -0.1185 -0.6891
  471DG      H510815   4.960   1.968   1.151  0.4210 -1.0874  1.6502
  471DG      H610816   4.757   1.855   0.244 -0.3532  2.2131  0.3195
  471DG      H710817   4.939   1.850   0.224  0.4790 -1.1404 -0.4118
  471DG      H810818   4.845   1.729   0.323 -0.4987  0.7289  1.4480
  471DG      O910819   4.901   1.983   0.949 -0.2474 -0.7161  0.1757
  471DG     O1010820   4.875   1.918   0.404  0.2233 -0.6416 -0.0282
  471DG     C1110821   5.021   2.038   0.916 -0.8989  0.2466  0.3551
  471DG     C1210822   5.005   1.892   0.462  0.0098  0.2003  0.3683
  471DG     H1310823   5.096   1.963   0.941 -0.2452  0.2627 -1.3899
  471DG     H1410824   5.035   2.133   0.969 -0.5621 -0.4282  1.5146
  471DG     H1510825   5.078   1.889   0.381 -0.6963  2.3563 -0.4045
  471DG     H1610826   5.010   1.800   0.521  1.9844  0.1990  0.2595
  471DG     C1710827   5.038   2.085   0.769 -0.5073  0.0653 -0.5601
  471DG     C1810828   5.054   2.005   0.550  0.5869  0.0519 -0.1121
  471DG     O1910829   5.038   1.972   0.684  0.2059 -0.4606 -0.3092
  471DG     H2010830   5.132   2.138   0.754  0.3600 -2.1544 -4.4658
  471DG     H2110831   4.959   2.158   0.754  0.3447  0.7633 -1.9182
  471DG     H2210832   5.162   2.018   0.542  0.4792  1.8095  0.6270
  471DG     H2310833   4.993   2.093   0.530 -1.4621 -1.4290 -0.6655
  472DG      C110834   1.450   3.666   1.326 -0.2875  0.0404  0.4192
  472DG      C210835   1.680   3.143   0.958  0.4640 -0.0971  0.0141
  472DG      H310836   1.476   3.605   1.413  0.4818  2.5694  2.0852
  472DG      H410837   1.342   3.667   1.319 -0.2497 -1.7436 -1.2646
  472DG      H510838   1.477   3.768   1.355  0.8994 -0.9840  3.3578
  472DG      H610839   1.597   3.134   1.028  1.0464  1.3419  0.9277
  472DG      H710840   1.666   3.098   0.859  0.3701  0.0658 -0.0478
  472DG      H810841   1.763   3.097   1.010 -0.7505 -0.8299  1.3763
  472DG      O910842   1.515   3.629   1.207 -0.2054 -0.4283 -0.4951
  472DG     O1010843   1.705   3.280   0.943 -0.2051 -0.2302 -0.4413
  472DG     C1110844   1.485   3.714   1.095  0.1184 -0.9164 -0.7877
  472DG     C1210845   1.624   3.350   0.841  0.3623 -0.0759 -0.6984
  472DG     H1310846   1.513   3.816   1.121 -0.4676 -0.6684 -1.0887
  472DG     H1410847   1.379   3.713   1.068 -0.1394  2.3623 -0.2736
  472DG     H1510848   1.524   3.319   0.872  0.9875 -0.4691  1.0384
  472DG     H1610849   1.657   3.309   0.746  0.8383 -0.1803 -0.4939
  472DG     C1710850   1.564   3.678   0.970  0.1621 -0.0948  0.3483
  472DG     C1810851   1.644   3.500   0.847 -0.3170 -0.2223 -0.8991
  472DG     O1910852   1.591   3.541   0.971  0.2945  0.2272  0.0973
  472DG     H2010853   1.660   3.728   0.981 -0.7461  1.1351  4.0531
  472DG     H2110854   1.516   3.711   0.878  0.1820 -0.1637  0.3129
  472DG     H2210855   1.750   3.520   0.829 -0.4746  1.2016 -0.4278
  472DG     H2310856   1.591   3.543   0.762  0.9825  0.7832 -1.2288
  473DG      C110857   3.147   0.273   0.987 -0.3368 -0.2078 -0.1554
  473DG      C210858   2.788   0.499   1.552 -0.2304  0.1659 -0.9158
  473DG      H310859   3.234   0.304   0.929  0.2536 -1.4545  0.0479
  473DG      H410860   3.083   0.218   0.919  0.2051 -0.7409 -0.2380
  473DG      H510861   3.178   0.212   1.072  0.4325 -1.3519 -1.2379
  473DG      H610862   2.848   0.444   1.625  1.7302  0.3395 -2.3128
  473DG      H710863   2.724   0.575   1.596  0.1378  0.0496 -0.1408
  473DG      H810864   2.721   0.417   1.528 -0.4055  0.0564 -0.0788
  473DG      O910865   3.076   0.387   1.024  0.3338  0.2974  0.3155
  473DG     O1010866   2.866   0.550   1.450  0.2971 -0.5853  0.2247
  473DG     C1110867   3.147   0.488   1.086  0.0853 -0.5326 -0.2626
  473DG     C1210868   2.785   0.625   1.359 -0.2891  0.0566 -0.4669
  473DG     H1310869   3.237   0.522   1.035  0.3698 -0.7302  0.1119
  473DG     H1410870   3.177   0.463   1.188  2.2689  2.9671  0.1563
  473DG     H1510871   2.731   0.710   1.399  0.6616  0.1847  0.6030
  473DG     H1610872   2.718   0.548   1.320 -0.3436  0.1043 -0.4662
  473DG     C1710873   3.048   0.600   1.093 -0.4839 -0.6742 -0.8562
  473DG     C1810874   2.879   0.680   1.248 -0.2232 -0.8504  0.4167
  473DG     O1910875   2.954   0.579   1.197 -0.3404  0.0965  0.1433
  473DG     H2010876   2.996   0.619   1.000 -0.8687  0.1527 -0.4768
  473DG     H2110877   3.102   0.692   1.115  0.4185 -1.3375 -0.1753
  473DG     H2210878   2.822   0.716   1.162  2.1221 -1.8739 -1.6636
  473DG     H2310879   2.946   0.760   1.279 -3.2287  1.5441  1.2797
  474DG      C110880   0.642   3.886   1.382  0.2976 -1.0036  0.1859
  474DG      C210881   0.474   4.449   0.948  0.1563 -0.8229 -0.4637
  474DG      H310882   0.663   3.920   1.483 -0.3029 -1.8763  0.6172
  474DG      H410883   0.728   3.854   1.322  2.2527  0.6440  1.9401
  474DG      H510884   0.581   3.798   1.401  1.0970 -1.6026  0.0629
  474DG      H610885   0.491   4.552   0.978  0.7503 -1.3267  1.0522
  474DG      H710886   0.416   4.448   0.856 -1.1487  1.7436  0.2345
  474DG      H810887   0.412   4.409   1.028 -0.0966  1.9254  0.8384
  474DG      O910888   0.568   3.975   1.299 -0.3586  0.0751 -0.3694
  474DG     O1010889   0.601   4.391   0.944 -0.3545  0.0449  0.4114
  474DG     C1110890   0.624   4.100   1.302  0.1725 -0.1042  0.7948
  474DG     C1210891   0.605   4.265   0.873 -0.1568 -0.1678 -0.1153
  474DG     H1310892   0.733   4.093   1.307  0.2050  1.0518  3.0183
  474DG     H1410893   0.586   4.158   1.386  1.6869  0.0915  1.3771
  474DG     H1510894   0.708   4.234   0.858  0.1976  0.6162  0.6225
  474DG     H1610895   0.558   4.273   0.774 -0.2299  0.3248 -0.0455
  474DG     C1710896   0.588   4.185   1.181 -0.2599  0.6379 -0.2340
  474DG     C1810897   0.538   4.149   0.950  0.6086 -0.1525  0.1117
  474DG     O1910898   0.614   4.106   1.063 -0.6505  0.3098 -0.0043
  474DG     H2010899   0.646   4.277   1.187  1.4011 -0.3591 -0.3251
  474DG     H2110900   0.484   4.216   1.195  0.2534  2.2690  0.1852
  474DG     H2210901   0.433   4.157   0.976  0.2204  1.3973 -1.7498
  474DG     H2310902   0.549   4.067   0.879 -0.5509  1.8076 -2.4931
  475DG      C110903   1.022   3.471   3.368 -0.1331 -0.4288  0.5313
  475DG      C210904   1.317   3.643   4.171 -0.3756  0.2607 -0.1570
  475DG      H310905   1.051   3.377   3.322  0.0197  0.2169 -0.7651
  475DG      H410906   1.106   3.539   3.349  1.4160 -1.7444  2.3611
  475DG      H510907   0.932   3.521   3.331 -0.1078  0.2864  1.3973
  475DG      H610908   1.351   3.581   4.254 -2.8801 -1.4056 -0.2929
  475DG      H710909   1.382   3.730   4.162 -1.5918  1.3929  1.5548
  475DG      H810910   1.220   3.681   4.202  0.3110  0.1027  2.3885
  475DG      O910911   1.008   3.463   3.508 -0.0635  0.1404  0.5680
  475DG     O1010912   1.311   3.553   4.053 -0.6434  0.2485 -0.6191
  475DG     C1110913   0.974   3.594   3.569  0.1664 -0.4363  0.7868
  475DG     C1210914   1.265   3.601   3.929  0.1760  0.5274  0.4281
  475DG     H1310915   0.875   3.624   3.533  0.3164 -1.7387 -0.8766
  475DG     H1410916   1.048   3.667   3.537 -2.7012  1.7540 -1.4143
  475DG     H1510917   1.317   3.562   3.842 -0.7432  2.2218 -0.9361
  475DG     H1610918   1.266   3.708   3.909 -1.0842  1.0883  2.9960
  475DG     C1710919   0.970   3.579   3.715  0.5441  0.3884  0.5127
  475DG     C1810920   1.121   3.562   3.905 -0.2397  0.3422 -0.0095
  475DG     O1910921   1.103   3.589   3.765 -0.4415 -0.6600  0.3757
  475DG     H2010922   0.923   3.484   3.743  0.4874 -0.2348 -1.5359
  475DG     H2110923   0.905   3.656   3.758  0.8649  0.3824  1.0249
  475DG     H2210924   1.100   3.456   3.924  1.1018  0.3483  1.8464
  475DG     H2310925   1.053   3.609   3.975 -1.0112  1.1864 -1.2957
  476DG      C110926   0.719   4.848   3.994  0.1418  0.1661 -0.5537
  476DG      C210927   1.303   4.494   4.353 -0.0061  0.6343 -0.1354
  476DG      H310928   0.696   4.952   3.971  1.0451  0.4379 -0.2634
  476DG      H410929   0.649   4.811   4.070  2.0529  0.6149  1.5401
  476DG      H510930   0.688   4.792   3.906  1.1428  0.2944 -1.0026
  476DG      H610931   1.328   4.396   4.313 -0.8973  0.4040 -0.1346
  476DG      H710932   1.381   4.519   4.425 -0.6881 -1.2108  1.3113
  476DG      H810933   1.216   4.490   4.418  1.7067  2.7054  2.5155
  476DG      O910934   0.852   4.834   4.027 -0.4729  0.5020 -0.2903
  476DG     O1010935   1.295   4.583   4.247 -0.0956  0.7016  0.8280
  476DG     C1110936   0.897   4.708   4.075 -0.0903  0.3381 -0.2185
  476DG     C1210937   1.282   4.722   4.298 -0.4857 -0.2058  0.7911
  476DG     H1310938   0.865   4.630   4.006  0.1664 -2.0530  2.2082
  476DG     H1410939   0.843   4.684   4.166 -0.7573 -0.1406 -0.7368
  476DG     H1510940   1.376   4.764   4.334 -0.9490  0.2721  1.4597
  476DG     H1610941   1.208   4.723   4.378 -1.4171 -1.1447 -0.0381
  476DG     C1710942   1.042   4.698   4.092 -0.6095 -1.1083  0.4305
  476DG     C1810943   1.226   4.824   4.195  0.0144  0.2029  0.5913
  476DG     O1910944   1.080   4.801   4.177  0.0647 -0.9082  0.3769
  476DG     H2010945   1.090   4.722   3.997 -3.4113 -1.5827 -1.1944
  476DG     H2110946   1.072   4.601   4.131 -0.5155 -1.4011 -0.3480
  476DG     H2210947   1.238   4.922   4.240 -0.1974 -0.6376  2.6181
  476DG     H2310948   1.292   4.804   4.111 -1.8502 -2.9741 -0.2763
  477DG      C110949   0.908   1.059   3.170 -0.8584 -0.4609 -0.3699
  477DG      C210950   1.549   1.011   3.721 -0.4788 -0.3553 -0.1111
  477DG      H310951   0.882   1.165   3.162  2.3812  0.3771 -1.0779
  477DG      H410952   0.825   0.994   3.142  0.4181 -2.8928  1.1920
  477DG      H510953   0.979   1.042   3.090 -0.3198  0.3190 -0.0715
  477DG      H610954   1.595   1.099   3.766  0.0177 -0.2913 -0.7105
  477DG      H710955   1.537   0.944   3.805 -0.0009 -1.6174 -1.0197
  477DG      H810956   1.615   0.967   3.646 -1.1159  2.2081 -2.3403
  477DG      O910957   0.943   1.020   3.297 -0.0219 -0.2241 -0.2084
  477DG     O1010958   1.434   1.059   3.652 -0.3575 -0.0330 -0.0387
  477DG     C1110959   1.080   1.045   3.335  0.0442  0.3377  1.1390
  477DG     C1210960   1.321   1.086   3.736  0.3379  0.0299 -0.0041
  477DG     H1310961   1.131   1.109   3.263  3.5970 -2.2957  1.0194
  477DG     H1410962   1.146   0.958   3.345  1.4199  1.1012 -0.6007
  477DG     H1510963   1.339   1.148   3.823  0.5592  3.0918 -2.0728
  477DG     H1610964   1.277   0.990   3.765 -0.1070 -0.5911 -2.4628
  477DG     C1710965   1.073   1.109   3.472  0.5014 -0.3734 -0.0960
  477DG     C1810966   1.212   1.155   3.656  0.5786  0.0780 -0.3441
  477DG     O1910967   1.200   1.098   3.530  0.3616 -0.9179 -0.5006
  477DG     H2010968   0.997   1.062   3.535  0.9049 -1.9776 -0.7546
  477DG     H2110969   1.044   1.214   3.467  0.2316 -0.2096  3.1248
  477DG     H2210970   1.121   1.167   3.715  0.8128 -1.5312  0.3824
  477DG     H2310971   1.255   1.254   3.639  2.9887 -1.2523 -2.5815
  478DG      C110972   3.366   0.905   0.045 -0.4484  0.5723 -0.0996
  478DG      C210973   3.045   0.526   0.732  0.2027  0.5755  0.1644
  478DG      H310974   3.441   0.969   0.092  0.3496  1.2108 -2.1604
  478DG      H410975   3.295   0.961  -0.016 -1.8251  2.1435  2.7069
  478DG      H510976   3.424   0.839  -0.018  0.7379 -0.8255  2.3220
  478DG      H610977   3.082   0.426   0.709  0.2994  0.8824 -1.0681
  478DG      H710978   3.128   0.586   0.769  0.2076  0.6311  0.0639
  478DG      H810979   2.968   0.495   0.802  1.1680 -0.9261  0.6286
  478DG      O910980   3.298   0.823   0.140 -0.0512  0.0513 -0.1390
  478DG     O1010981   2.977   0.566   0.614 -0.0011 -0.3990  0.0049
  478DG     C1110982   3.200   0.725   0.087 -0.3879 -0.7383 -0.1469
  478DG     C1210983   3.073   0.586   0.510  0.2121  0.8100  0.5007
  478DG     H1310984   3.248   0.655   0.018 -0.3566  0.0706 -0.9702
  478DG     H1410985   3.125   0.774   0.026 -0.3674 -1.1381 -0.5023
  478DG     H1510986   3.125   0.495   0.478  3.0544  2.3704  0.4109
  478DG     H1610987   3.150   0.653   0.547  1.4539  0.9272 -2.0912
  478DG     C1710988   3.131   0.636   0.187  0.0478 -0.0437 -0.5641
  478DG     C1810989   3.009   0.647   0.395  0.7560 -0.1773  0.0795
  478DG     O1910990   3.094   0.713   0.301 -0.2991  0.1292  0.8414
  478DG     H2010991   3.188   0.550   0.224  1.9579  0.9962 -0.9505
  478DG     H2110992   3.052   0.588   0.130 -2.1190  0.1949  2.0249
  478DG     H2210993   2.954   0.565   0.348  0.8987  0.9280 -2.1207
  478DG     H2310994   2.932   0.718   0.423  0.4724 -1.5607  3.2044
  479DG      C110995   0.700   2.979   3.271  0.7176  0.5228  0.0995
  479DG      C210996   0.620   2.991   2.644 -0.2160  0.4119  0.3518
  479DG      H310997   0.635   2.911   3.217  0.4299  0.8322  0.0550
  479DG      H410998   0.657   3.018   3.363  1.1642 -0.7074  0.8575
  479DG      H510999   0.776   2.915   3.316  0.5381  1.2798  1.5374
  479DG      H611000   0.594   2.900   2.698  1.4565  0.2034  0.8854
  479DG      H711001   0.547   3.012   2.566 -0.1532 -2.0045 -0.4234
  479DG      H811002   0.716   2.958   2.603 -0.4126 -1.4296  1.2721
  479DG      O911003   0.781   3.072   3.205 -0.5921 -0.3700  0.1982
  479DG     O1011004   0.624   3.083   2.752 -0.5257  0.0120 -0.3647
  479DG     C1111005   0.716   3.200   3.200  0.1868  0.0163  0.2542
  479DG     C1211006   0.714   3.193   2.724 -0.7432 -0.3240 -0.0172
  479DG     H1311007   0.733   3.261   3.289 -2.9999  3.3234 -1.1467
  479DG     H1411008   0.610   3.179   3.190  0.6574 -2.1641 -0.8847
  479DG     H1511009   0.690   3.250   2.635 -2.2079 -0.5362  0.2240
  479DG     H1611010   0.816   3.154   2.714 -0.7851  0.0870 -3.0844
  479DG     C1711011   0.758   3.278   3.086 -0.1185 -0.3508 -0.5133
  479DG     C1811012   0.722   3.293   2.851  0.2131 -0.3381 -0.0703
  479DG     O1911013   0.736   3.211   2.964  0.2768 -0.1088  0.6242
  479DG     H2011014   0.864   3.300   3.092 -0.4071  1.3275 -1.0244
  479DG     H2111015   0.707   3.374   3.085  0.3695 -0.0883 -0.2343
  479DG     H2211016   0.804   3.363   2.841  0.1403  0.0237  1.5839
  479DG     H2311017   0.633   3.355   2.852 -0.5998 -1.4821  0.6428
  480DG      C111018   1.841   3.249   3.899 -0.2172 -0.1973  0.3927
  480DG      C211019   2.008   3.812   4.375  0.0477  0.1987  0.2901
  480DG      H311020   1.894   3.290   3.813  1.0039 -0.5786  0.9432
  480DG      H411021   1.764   3.182   3.861  0.3828 -0.3223 -0.6330
  480DG      H511022   1.910   3.195   3.963 -0.7697 -0.4784  0.7597
  480DG      H611023   1.943   3.853   4.452 -1.4083  0.1794 -0.8817
  480DG      H711024   2.096   3.770   4.423  1.2811  1.8209 -0.4781
  480DG      H811025   2.038   3.901   4.319 -0.8656  1.3867  1.6402
  480DG      O911026   1.788   3.360   3.969  0.6394  0.1790 -0.4729
  480DG     O1011027   1.942   3.711   4.301 -0.9121  0.4943 -0.3712
  480DG     C1111028   1.726   3.324   4.094 -0.6168  0.5672  0.3210
  480DG     C1211029   1.826   3.753   4.233  0.2772  0.1901  0.0879
  480DG     H1311030   1.800   3.280   4.160 -2.0020 -0.7320  1.0637
  480DG     H1411031   1.663   3.239   4.067  1.6273 -0.9675 -0.4119
  480DG     H1511032   1.856   3.839   4.173  0.6651 -0.5493 -0.7859
  480DG     H1611033   1.761   3.798   4.309  0.5437  1.6513 -0.5202
  480DG     C1711034   1.649   3.436   4.172  0.2547 -0.6032 -0.1013
  480DG     C1811035   1.760   3.643   4.153  0.0432 -0.1754 -0.2833
  480DG     O1911036   1.736   3.529   4.238  0.2469 -0.2842  0.0980
  480DG     H2011037   1.589   3.393   4.252 -0.9873  1.3560  0.0620
  480DG     H2111038   1.577   3.484   4.106  0.7795  1.2530  0.6366
  480DG     H2211039   1.663   3.678   4.118  0.5338  1.9399  0.3559
  480DG     H2311040   1.816   3.620   4.062 -1.5949 -0.8084 -1.1858
  481DG      C111041   2.443   1.588   2.261  0.0262 -0.4034 -0.0971
  481DG      C211042   2.198   0.964   2.090  0.4108  0.0189  0.4457
  481DG      H311043   2.480   1.661   2.333 -0.0571 -2.1023  1.7580
  481DG      H411044   2.370   1.620   2.186  0.2964 -1.2077 -0.7238
  481DG      H511045   2.529   1.544   2.211  0.9148 -1.8220  2.4837
  481DG      H611046   2.124   0.974   2.011  0.3293 -0.3373  0.4737
  481DG      H711047   2.291   0.965   2.034  0.5415  0.2356  0.6651
  481DG      H811048   2.189   0.872   2.148  0.2106  0.3719  0.9849
  481DG      O911049   2.383   1.475   2.322 -0.1753 -0.1160  0.6254
  481DG     O1011050   2.202   1.071   2.181  0.0290  0.4005  0.5630
  481DG     C1111051   2.254   1.510   2.366  0.4497  0.2977 -0.7813
  481DG     C1211052   2.067   1.101   2.223 -0.6077 -0.1566  0.0861
  481DG     H1311053   2.195   1.549   2.283  0.9639 -0.7785 -1.6704
  481DG     H1411054   2.261   1.592   2.438 -0.1130 -0.2302 -0.1283
  481DG     H1511055   2.004   1.013   2.221  0.2023 -0.8397 -3.6613
  481DG     H1611056   2.015   1.163   2.149 -2.0533 -2.3365 -0.8159
  481DG     C1711057   2.180   1.395   2.431  0.3312 -0.6004  0.6761
  481DG     C1811058   2.068   1.191   2.354  0.5319  0.0203  0.2027
  481DG     O1911059   2.167   1.293   2.332 -0.0071 -0.3381 -0.2430
  481DG     H2011060   2.082   1.435   2.456  0.2949  0.3354 -0.8540
  481DG     H2111061   2.237   1.358   2.517  2.0491 -4.1172 -1.7564
  481DG     H2211062   1.967   1.223   2.378  0.9361 -0.0706  2.2022
  481DG     H2311063   2.105   1.135   2.440  0.5223  0.9750  0.8391
  482DG      C111064   2.809   3.585   4.513  0.2932  0.6143  0.3758
  482DG      C211065   3.392   3.800   4.969  0.7799  0.0492  0.2961
  482DG      H311066   2.838   3.480   4.525  1.5079  1.1928  3.2676
  482DG      H411067   2.827   3.612   4.409 -0.3698 -0.5899 -0.0771
  482DG      H511068   2.705   3.589   4.546  0.9664  1.7869  2.5262
  482DG      H611069   3.445   3.708   4.995  0.7629 -0.0039  0.1456
  482DG      H711070   3.428   3.846   4.877 -1.4359 -1.8985 -1.6811
  482DG      H811071   3.411   3.865   5.055 -1.8252  0.4739  0.6490
  482DG      O911072   2.891   3.655   4.611 -0.1077  0.2202 -0.1249
  482DG     O1011073   3.255   3.776   4.952 -0.2800 -0.1135  0.2657
  482DG     C1111074   2.817   3.750   4.689  0.1111  0.1504  0.1174
  482DG     C1211075   3.180   3.892   4.957  0.4771  0.3180 -0.2830
  482DG     H1311076   2.712   3.725   4.705  0.4220 -1.4437 -0.1314
  482DG     H1411077   2.811   3.849   4.643 -0.4577  1.4719  2.8305
  482DG     H1511078   3.210   3.956   4.873  1.7758 -0.9289 -0.8097
  482DG     H1611079   3.201   3.956   5.043  1.2781 -0.4169  0.0849
  482DG     C1711080   2.863   3.745   4.832  0.1824 -0.3449  0.1501
  482DG     C1811081   3.031   3.842   4.971 -0.0816 -1.1784  0.2164
  482DG     O1911082   2.991   3.798   4.839  0.3903  0.3352  0.1408
  482DG     H2011083   2.851   3.645   4.873  0.2174 -0.7986 -0.9031
  482DG     H2111084   2.802   3.817   4.886  0.5341  0.4018 -0.4277
  482DG     H2211085   3.029   3.752   5.032 -0.4214 -0.5625  1.1469
  482DG     H2311086   2.966   3.917   5.017 -1.0841 -2.0586  0.2520
  483DG      C111087   5.402   4.110   4.084  0.7128 -0.0411  0.5765
  483DG      C211088   5.268   3.937   4.909  1.0233  0.6633  0.1660
  483DG      H311089   5.327   4.035   4.059 -1.3609  2.2879 -0.5503
  483DG      H411090   5.483   4.092   4.014 -0.1399 -1.6502 -0.0688
  483DG      H511091   5.365   4.209   4.059 -0.8793 -0.9551 -0.8949
  483DG      H611092   5.177   3.991   4.882 -0.3492 -1.0438  1.1352
  483DG      H711093   5.250   3.830   4.911 -0.8547  0.9062 -0.8958
  483DG      H811094   5.301   3.970   5.008  2.6020  0.3582 -0.2304
  483DG      O911095   5.451   4.084   4.216 -0.7553  0.1282 -0.2631
  483DG     O1011096   5.367   3.970   4.824  0.0162 -0.3509  0.6085
  483DG     C1111097   5.532   3.961   4.237 -0.2947  0.3143 -0.7095
  483DG     C1211098   5.347   3.944   4.686  0.0402  0.8423 -0.1686
  483DG     H1311099   5.628   3.952   4.187 -0.3535  0.0492 -0.7764
  483DG     H1411100   5.484   3.870   4.201  0.5104 -0.1909 -0.5201
  483DG     H1511101   5.251   3.988   4.656  0.1332  1.0964 -0.0989
  483DG     H1611102   5.323   3.838   4.682  2.4743  0.2625 -0.5854
  483DG     C1711103   5.560   3.947   4.383  0.6233 -0.0535  0.0951
  483DG     C1811104   5.461   3.976   4.598 -0.3991 -0.1249 -1.3754
  483DG     O1911105   5.440   3.948   4.458  1.0749  0.0313 -0.1551
  483DG     H2011106   5.630   4.028   4.405  1.0115 -0.7121  1.3601
  483DG     H2111107   5.621   3.860   4.404  2.0391  1.0889  0.8676
  483DG     H2211108   5.490   4.081   4.603 -2.2346  0.4604 -2.1436
  483DG     H2311109   5.549   3.920   4.629  0.3499  2.1187  0.8802
  484DG      C111110   1.620   2.589   4.403 -0.1621 -0.6990  0.3857
  484DG      C211111   1.119   2.148   4.582  1.0740 -0.2393 -0.9210
  484DG      H311112   1.691   2.667   4.377 -0.4007 -0.5680  0.1280
  484DG      H411113   1.524   2.623   4.442 -1.7615 -3.3982 -0.8531
  484DG      H511114   1.592   2.538   4.311  1.0867 -0.8354  0.0607
  484DG      H611115   1.134   2.076   4.663  1.6677  1.0360  0.1431
  484DG      H711116   1.112   2.249   4.622  2.7744  0.5372 -2.4669
  484DG      H811117   1.024   2.130   4.531  0.4722 -3.0005  0.8901
  484DG      O911118   1.684   2.491   4.487 -0.1004  0.4215 -0.2963
  484DG     O1011119   1.229   2.159   4.489 -0.1200  0.0113 -0.1078
  484DG     C1111120   1.588   2.411   4.565 -0.2629 -0.1597  0.2004
  484DG     C1211121   1.203   2.251   4.384  0.1897  0.1227  0.1165
  484DG     H1311122   1.523   2.474   4.625 -1.7476  0.6192 -2.0958
  484DG     H1411123   1.648   2.357   4.638  1.7039 -1.5119 -2.2235
  484DG     H1511124   1.156   2.344   4.418 -1.3965  0.5138 -2.7914
  484DG     H1611125   1.133   2.211   4.310  1.4036 -0.4439 -0.7560
  484DG     C1711126   1.498   2.312   4.492  0.6026 -0.2165 -0.1122
  484DG     C1811127   1.337   2.295   4.327 -0.7077 -0.0977  0.3765
  484DG     O1911128   1.418   2.381   4.406 -0.2019 -0.0302 -0.2441
  484DG     H2011129   1.436   2.254   4.560  0.0634  0.0819 -0.3485
  484DG     H2111130   1.555   2.234   4.442 -0.6390  0.2816 -2.4260
  484DG     H2211131   1.386   2.201   4.302  0.0549 -0.0778  1.7303
  484DG     H2311132   1.320   2.349   4.234 -0.5029 -1.1016 -0.2461
  485DG      C111133   5.050   2.830   2.593  0.2320  0.3967 -0.2344
  485DG      C211134   5.214   3.326   3.230  0.0508  0.2094  0.3758
  485DG      H311135   5.039   2.732   2.639  1.5591  0.1156 -0.4872
  485DG      H411136   5.139   2.831   2.531 -0.4463  0.6626 -1.2332
  485DG      H511137   4.966   2.837   2.523  0.5722 -1.3240 -0.8407
  485DG      H611138   5.173   3.293   3.325  1.6204  0.6457  1.2352
  485DG      H711139   5.321   3.306   3.224  0.2561  1.6323 -1.8407
  485DG      H811140   5.204   3.434   3.224 -1.3016  0.0289 -3.5159
  485DG      O911141   5.074   2.936   2.683 -0.7016  0.1646 -0.0117
  485DG     O1011142   5.154   3.270   3.112 -0.3970 -0.0035 -0.1813
  485DG     C1111143   4.967   2.978   2.768  0.6055 -0.4913  0.1555
  485DG     C1211144   5.215   3.320   2.996  0.0171 -0.1917  0.3083
  485DG     H1311145   4.990   2.941   2.868 -1.7020 -0.2865  0.8327
  485DG     H1411146   4.865   2.953   2.736 -0.0668 -1.0069  2.4459
  485DG     H1511147   5.318   3.287   2.978  0.7878  1.2045  1.8390
  485DG     H1611148   5.228   3.428   3.005  1.6521 -0.3650  0.4662
  485DG     C1711149   4.975   3.129   2.788 -0.5335 -0.7125 -0.1923
  485DG     C1811150   5.116   3.294   2.878 -0.1943  0.2955  0.9152
  485DG     O1911151   5.086   3.159   2.858 -0.5158 -0.9671 -0.4361
  485DG     H2011152   4.888   3.170   2.841 -0.9865  0.2452 -1.6223
  485DG     H2111153   4.975   3.171   2.688  1.8323  0.8522  0.3956
  485DG     H2211154   5.041   3.370   2.896  0.1340  1.6574 -2.6903
  485DG     H2311155   5.172   3.333   2.793 -0.2204 -1.0334  0.2575
  486DG      C111156   1.362   4.514   3.543  0.3424  0.5431 -0.3797
  486DG      C211157   0.759   5.059   3.441 -0.4411  0.1526 -0.1830
  486DG      H311158   1.358   4.542   3.438 -0.5607  3.1706  0.2726
  486DG      H411159   1.324   4.413   3.558 -0.3894  0.4864 -2.3457
  486DG      H511160   1.466   4.513   3.573  0.3504 -1.6190 -0.3052
  486DG      H611161   0.681   4.985   3.423 -0.4556 -0.1732  1.1173
  486DG      H711162   0.731   5.157   3.480 -1.8385 -1.3999  3.0935
  486DG      H811163   0.812   5.070   3.347  1.4509  1.5064  0.9683
  486DG      O911164   1.283   4.606   3.621 -0.5951 -0.5422  0.3658
  486DG     O1011165   0.849   5.030   3.548  0.3829 -0.8508  0.4444
  486DG     C1111166   1.338   4.737   3.615 -0.1324 -0.1454  0.0799
  486DG     C1211167   0.964   4.948   3.516 -0.1446 -0.4361  0.0772
  486DG     H1311168   1.360   4.772   3.514  1.8222 -2.0512 -0.2384
  486DG     H1411169   1.434   4.726   3.666 -0.2721 -2.3613 -0.0346
  486DG     H1511170   1.019   4.998   3.436  0.1147  0.1372  0.6072
  486DG     H1611171   0.946   4.848   3.477 -1.5383 -0.4338  0.6673
  486DG     C1711172   1.257   4.841   3.698  0.8893  0.5253 -0.6719
  486DG     C1811173   1.051   4.949   3.640  0.0496  0.6712 -0.2711
  486DG     O1911174   1.155   4.859   3.608  0.0676 -0.0389 -0.3599
  486DG     H2011175   1.319   4.922   3.737  0.4670 -0.6293  2.7316
  486DG     H2111176   1.206   4.787   3.778 -0.2650 -0.8884 -2.2813
  486DG     H2211177   1.083   5.053   3.647 -0.7807  0.9867 -1.0226
  486DG     H2311178   0.999   4.909   3.727  2.0812  0.9528  1.1311
  487DG      C111179   0.591   5.203   0.299  0.0109 -0.0025 -0.9130
  487DG      C211180   0.692   4.631  -0.007  0.6663  0.0017  0.1031
  487DG      H311181   0.527   5.288   0.323 -0.6468 -0.2388 -1.7792
  487DG      H411182   0.682   5.235   0.249  0.5673  0.0737  0.1287
  487DG      H511183   0.636   5.168   0.392  0.8650  2.2348 -0.4129
  487DG      H611184   0.778   4.657  -0.069  0.4534 -1.5056 -0.8747
  487DG      H711185   0.687   4.522  -0.013 -1.5144  0.0021  1.1851
  487DG      H811186   0.601   4.665  -0.055  1.3424 -0.4583 -1.5887
  487DG      O911187   0.531   5.108   0.215  0.1592  0.0197  0.5789
  487DG     O1011188   0.701   4.676   0.126  0.3068 -0.0126 -0.3887
  487DG     C1111189   0.420   5.044   0.284  0.1012  1.1487 -0.6330
  487DG     C1211190   0.594   4.622   0.215  0.4741 -0.4904 -0.1493
  487DG     H1311191   0.338   5.115   0.277  1.5553  3.0632  0.6251
  487DG     H1411192   0.436   5.033   0.391 -1.0140 -1.0546 -0.6242
  487DG     H1511193   0.648   4.621   0.309 -0.1146 -3.3339  0.2512
  487DG     H1611194   0.584   4.515   0.200  0.1354 -0.8083  2.0094
  487DG     C1711195   0.384   4.910   0.220 -0.4337 -0.3951  0.4541
  487DG     C1811196   0.463   4.693   0.212  0.7272  0.5282  0.2150
  487DG     O1911197   0.499   4.826   0.238  0.1380  0.1062 -0.1938
  487DG     H2011198   0.364   4.929   0.114 -0.0710  0.2408  0.4917
  487DG     H2111199   0.298   4.875   0.277  0.6520  1.6619  3.6194
  487DG     H2211200   0.421   4.685   0.111  0.3172  2.8188  0.1443
  487DG     H2311201   0.394   4.643   0.280  2.9274 -2.0782  0.7186
  488DG      C111202   3.886   4.661   3.975 -0.1066  0.1479  0.4742
  488DG      C211203   3.909   4.799   3.380 -0.2838  0.7477  0.1035
  488DG      H311204   3.862   4.631   3.873  1.6536  0.1879  0.0154
  488DG      H411205   3.907   4.567   4.025  1.5679  0.3139  0.1360
  488DG      H511206   3.983   4.710   3.971  0.7756 -1.5797 -2.4538
  488DG      H611207   3.816   4.761   3.339 -0.1428 -1.4066  1.5724
  488DG      H711208   3.954   4.864   3.305  1.1635  0.8826  1.0488
  488DG      H811209   3.972   4.711   3.392 -2.9360 -1.1358  1.0735
  488DG      O911210   3.776   4.729   4.034 -0.2008 -0.6925 -0.2731
  488DG     O1011211   3.887   4.879   3.488  0.4589  0.0456 -1.1018
  488DG     C1111212   3.712   4.835   3.963 -0.1362 -1.2931 -0.0677
  488DG     C1211213   3.998   4.901   3.576  0.2324  0.7789 -0.0381
  488DG     H1311214   3.639   4.875   4.032 -0.7056  0.1864 -1.4769
  488DG     H1411215   3.663   4.791   3.876  0.5934 -1.3724 -0.4509
  488DG     H1511216   4.073   4.960   3.524  1.7611  1.6431  2.9531
  488DG     H1611217   4.039   4.812   3.624 -1.1022  0.6246  0.8880
  488DG     C1711218   3.815   4.937   3.900 -0.6973  0.1852  0.1791
  488DG     C1811219   3.951   4.982   3.699 -0.1396  0.9613 -0.0141
  488DG     O1911220   3.856   4.894   3.768 -0.1633 -0.0696 -0.4103
  488DG     H2011221   3.904   4.951   3.962 -0.2221  2.8569 -0.9668
  488DG     H2111222   3.774   5.036   3.883  2.2425  1.7075  1.2682
  488DG     H2211223   4.025   4.992   3.778 -1.1757  0.6126  1.0285
  488DG     H2311224   3.905   5.080   3.684 -0.2664  1.1144  1.2621
  489DG      C111225   2.186   3.938   3.466 -0.9558 -0.2054  0.6345
  489DG      C211226   1.969   4.454   2.786 -0.0185 -0.6651 -0.1443
  489DG      H311227   2.210   3.966   3.568 -0.1762  0.2732  0.3265
  489DG      H411228   2.242   3.852   3.431  0.0956  0.9430 -0.5822
  489DG      H511229   2.080   3.912   3.462 -1.3186  1.3168 -1.2959
  489DG      H611230   2.034   4.530   2.828  1.0569 -1.1938 -0.7974
  489DG      H711231   1.944   4.476   2.682 -2.1788 -2.0506 -0.0012
  489DG      H811232   1.871   4.456   2.834 -0.3340  1.2158 -0.7958
  489DG      O911233   2.220   4.038   3.367  0.0311  0.3169  0.5701
  489DG     O1011234   2.048   4.337   2.818  0.0085  0.6623 -0.0170
  489DG     C1111235   2.146   4.157   3.376 -0.2741 -0.5997 -0.7524
  489DG     C1211236   2.042   4.302   2.954  0.5687 -0.0170 -0.0193
  489DG     H1311237   2.183   4.226   3.452  1.8715 -0.8854 -1.4790
  489DG     H1411238   2.040   4.144   3.397  0.4978 -0.4033  4.5704
  489DG     H1511239   1.940   4.271   2.977  0.6511 -0.1209  0.2073
  489DG     H1611240   2.064   4.398   3.001  1.9082  1.5799 -3.4815
  489DG     C1711241   2.153   4.228   3.239  0.1531 -0.0151  0.2656
  489DG     C1811242   2.140   4.190   2.998 -0.1950 -0.0341  0.3953
  489DG     O1911243   2.108   4.148   3.130  0.1976 -0.2788 -0.2391
  489DG     H2011244   2.259   4.248   3.224  0.3576 -1.4339 -0.3008
  489DG     H2111245   2.091   4.318   3.239 -0.4264 -0.3306 -2.3035
  489DG     H2211246   2.129   4.096   2.942 -1.0954  0.3953 -0.1658
  489DG     H2311247   2.245   4.220   2.995 -0.0605 -0.4332  1.0963
  490DG      C111248   1.299   2.096   2.391  0.4369  0.0442  0.1462
  490DG      C211249   1.549   1.801   1.801 -0.3438  0.1914 -0.1459
  490DG      H311250   1.231   2.089   2.475 -0.0905  1.5909 -0.1335
  490DG      H411251   1.240   2.164   2.329 -1.3770 -1.0152  0.6255
  490DG      H511252   1.399   2.132   2.413  0.5148  0.8178 -1.3204
  490DG      H611253   1.496   1.838   1.713 -1.0185 -1.3096 -0.4198
  490DG      H711254   1.645   1.849   1.819  0.3528 -0.3580 -2.0774
  490DG      H811255   1.582   1.705   1.762 -1.1029  1.1319 -3.4244
  490DG      O911256   1.306   1.969   2.330  0.0984  0.2625 -0.5765
  490DG     O1011257   1.475   1.794   1.924  0.2739  0.4890 -0.1804
  490DG     C1111258   1.376   1.873   2.412 -0.1800 -0.1818 -0.0469
  490DG     C1211259   1.515   1.689   2.001  0.4105 -0.4760 -0.3036
  490DG     H1311260   1.318   1.860   2.503  0.5908  0.9061  0.6190
  490DG     H1411261   1.476   1.900   2.447  0.2578 -1.6744 -0.0470
  490DG     H1511262   1.619   1.715   2.021 -0.4444  1.0178  2.7065
  490DG     H1611263   1.517   1.601   1.935  0.2966 -0.3491 -0.4774
  490DG     C1711264   1.385   1.737   2.339  0.7434 -0.5955  0.6218
  490DG     C1811265   1.435   1.660   2.127 -0.3229  0.1332  0.6346
  490DG     O1911266   1.453   1.764   2.216  0.3346 -0.0874 -0.4223
  490DG     H2011267   1.281   1.717   2.311  0.6679 -0.4498  0.7996
  490DG     H2111268   1.416   1.653   2.401  0.9370  1.0361  2.8539
  490DG     H2211269   1.328   1.646   2.112 -0.3466  1.2316 -0.4006
  490DG     H2311270   1.472   1.565   2.166  1.9861  1.1140  0.9352
  491DG      C111271   0.868   2.478   0.144  0.0051  0.0689 -0.3901
  491DG      C211272   0.628   2.542  -0.476  0.6498  0.4463  0.4551
  491DG      H311273   0.916   2.562   0.095 -0.2942  0.4177 -0.0988
  491DG      H411274   0.930   2.389   0.137  1.0830  0.5168  2.2913
  491DG      H511275   0.865   2.498   0.252 -2.3615 -0.9189 -0.2194
  491DG      H611276   0.551   2.580  -0.542  1.5454  3.2178  0.8642
  491DG      H711277   0.713   2.609  -0.490 -0.9133  2.1215 -1.6797
  491DG      H811278   0.674   2.447  -0.504  1.3724  1.2441 -1.2384
  491DG      O911279   0.750   2.439   0.081  0.2607  0.3266  0.5168
  491DG     O1011280   0.578   2.552  -0.342  0.2431  0.3856 -0.5288
  491DG     C1111281   0.651   2.525   0.130  0.6147  0.1872  0.2072
  491DG     C1211282   0.486   2.450  -0.306  0.1105 -1.1380 -0.3291
  491DG     H1311283   0.686   2.626   0.109  1.4639 -0.5221 -2.0548
  491DG     H1411284   0.648   2.503   0.237  0.2278 -1.9859 -0.1973
  491DG     H1511285   0.526   2.351  -0.324  1.6588 -0.2659 -1.9327
  491DG     H1611286   0.398   2.468  -0.367 -1.0365  1.5052  1.8976
  491DG     C1711287   0.522   2.495   0.048 -0.0283 -0.3531  0.0472
  491DG     C1811288   0.438   2.467  -0.162 -0.2570  0.2316 -0.1348
  491DG     O1911289   0.550   2.482  -0.081  0.2772 -0.7970  0.2166
  491DG     H2011290   0.433   2.552   0.072 -0.0739  0.4359 -1.8326
  491DG     H2111291   0.507   2.393   0.085 -2.8540  0.5067  1.5245
  491DG     H2211292   0.369   2.548  -0.138  0.0920 -0.1894  2.6438
  491DG     H2311293   0.372   2.387  -0.128 -0.7309  0.3802 -0.6771
  492DG      C111294   4.227   1.502   5.348  0.8415 -0.0211 -0.3842
  492DG      C211295   4.465   1.145   5.364  0.4672  0.1272  0.5065
  492DG      H311296   4.271   1.430   5.279  0.3130 -0.3057 -0.4245
  492DG      H411297   4.249   1.468   5.449 -0.1813 -1.4566 -0.6277
  492DG      H511298   4.280   1.596   5.329 -0.5455  1.1141  1.0992
  492DG      H611299   4.556   1.146   5.305  1.0065 -0.6051  1.2973
  492DG      H711300   4.462   1.234   5.428 -2.9763 -0.0492  0.7865
  492DG      H811301   4.469   1.059   5.431  0.2826  0.7627  1.3620
  492DG      O911302   4.092   1.539   5.340 -0.1800  0.2640 -0.2507
  492DG     O1011303   4.350   1.141   5.277 -0.0731 -0.6660  0.3382
  492DG     C1111304   4.007   1.420   5.347  0.6535 -0.5228 -0.0544
  492DG     C1211305   4.233   1.130   5.357 -0.1028  0.0479  0.2768
  492DG     H1311306   3.910   1.459   5.376  1.0289  0.1035  0.3801
  492DG     H1411307   4.037   1.357   5.431 -0.6838 -0.4968  0.4568
  492DG     H1511308   4.224   1.203   5.438  0.7758  1.1042 -0.5599
  492DG     H1611309   4.247   1.031   5.400 -0.9340  0.7287  2.2912
  492DG     C1711310   3.992   1.340   5.214 -0.1150  0.0102 -0.2166
  492DG     C1811311   4.111   1.130   5.255  0.6773  0.1066 -0.0947
  492DG     O1911312   4.108   1.259   5.190  0.1636 -0.4478  0.1681
  492DG     H2011313   3.979   1.412   5.134 -1.1769 -0.7877 -0.7913
  492DG     H2111314   3.904   1.275   5.221  1.1114 -1.7395 -0.4157
  492DG     H2211315   4.114   1.044   5.188  1.7313 -0.3891  0.5586
  492DG     H2311316   4.018   1.116   5.311 -0.5503  0.2427 -1.9996
  493DG      C111317   1.685   0.399   1.970 -0.0319 -0.0329  0.1325
  493DG      C211318   1.752  -0.126   1.564  0.2026 -0.6880 -0.8306
  493DG      H311319   1.619   0.452   2.039  0.4822  1.4228 -0.4672
  493DG      H411320   1.617   0.367   1.891  0.4059  2.7521 -1.4826
  493DG      H511321   1.747   0.472   1.919 -1.8227  0.2415 -1.8234
  493DG      H611322   1.698  -0.087   1.477  0.4225  0.7773 -0.3423
  493DG      H711323   1.852  -0.085   1.547 -0.1440  0.8276  0.4870
  493DG      H811324   1.768  -0.233   1.561 -2.3075 -1.1380 -0.3591
  493DG      O911325   1.769   0.302   2.031  0.3206 -0.2405 -0.6768
  493DG     O1011326   1.692  -0.093   1.690 -0.5482  0.1711  0.2879
  493DG     C1111327   1.693   0.205   2.102  0.4158  0.4944  0.1057
  493DG     C1211328   1.590   0.010   1.690 -0.4098  0.6209 -0.0070
  493DG     H1311329   1.609   0.250   2.155  0.6984  2.2801 -0.8821
  493DG     H1411330   1.754   0.161   2.182 -0.6579  0.0534  0.7040
  493DG     H1511331   1.524  -0.042   1.621  0.4328 -1.9290  0.9906
  493DG     H1611332   1.620   0.107   1.652  0.1273  0.6526  0.4805
  493DG     C1711333   1.653   0.080   2.009 -0.0126 -0.2543  0.2983
  493DG     C1811334   1.523   0.010   1.826  0.4262 -0.4797 -0.4921
  493DG     O1911335   1.568   0.120   1.905  0.3446 -0.2124 -0.1644
  493DG     H2011336   1.593   0.010   2.068  2.2519 -2.7136 -0.1313
  493DG     H2111337   1.740   0.027   1.970  1.4661  1.0752  1.6548
  493DG     H2211338   1.418   0.032   1.812  0.8983  1.7331 -0.8439
  493DG     H2311339   1.534  -0.084   1.880  0.3568 -0.7943 -1.0255
  494DG      C111340   3.287   4.056   2.168  0.2523 -0.1589  0.1944
  494DG      C211341   3.085   3.765   2.406  0.3789  0.2372 -0.2289
  494DG      H311342   3.323   3.962   2.125 -0.2437 -1.6468  2.8146
  494DG      H411343   3.358   4.089   2.243 -0.7609 -0.0964  1.1563
  494DG      H511344   3.293   4.120   2.080  2.1378  0.0983  0.4801
  494DG      H611345   3.146   3.711   2.477 -2.2234 -1.4755  0.8490
  494DG      H711346   3.059   3.694   2.327 -0.2364  1.3687 -1.0912
  494DG      H811347   3.133   3.854   2.364  0.7807  0.2085  0.1663
  494DG      O911348   3.148   4.046   2.203 -0.0140 -0.6744  0.1146
  494DG     O1011349   2.978   3.815   2.487  0.4814 -0.1876  1.1526
  494DG     C1111350   3.105   4.174   2.253 -0.2832  0.0124 -0.8288
  494DG     C1211351   2.860   3.834   2.409 -0.3150 -0.4846 -0.1171
  494DG     H1311352   3.110   4.248   2.173  0.8707  1.4916  0.5448
  494DG     H1411353   3.167   4.204   2.337 -0.2532 -0.0651 -0.8229
  494DG     H1511354   2.783   3.869   2.477  1.0094 -0.5773  1.5096
  494DG     H1611355   2.846   3.732   2.375  2.2233 -1.3735  1.1943
  494DG     C1711356   2.960   4.171   2.299  1.0785 -0.2035 -0.5023
  494DG     C1811357   2.878   3.948   2.307 -0.3130 -0.1958 -0.3512
  494DG     O1911358   2.930   4.052   2.378 -0.0519 -0.5623 -0.6897
  494DG     H2011359   2.906   4.187   2.205  2.7572  2.1767 -1.1639
  494DG     H2111360   2.952   4.260   2.361  3.4549 -0.0667 -0.2948
  494DG     H2211361   2.939   3.929   2.220 -0.3900  0.9460 -0.6672
  494DG     H2311362   2.781   3.973   2.263 -0.6009 -0.5979  0.0456
  495DG      C111363   0.370   3.293   1.587  0.0553 -0.9421  0.4345
  495DG      C211364   0.423   3.315   0.773  0.3686  0.1665  0.5229
  495DG      H311365   0.431   3.250   1.667  1.0782 -0.8026 -0.2516
  495DG      H411366   0.262   3.294   1.605 -0.0840  1.2395 -0.2765
  495DG      H511367   0.389   3.400   1.579  0.5094 -1.0925 -0.8240
  495DG      H611368   0.498   3.263   0.713 -0.0943  1.3644 -1.1748
  495DG      H711369   0.325   3.292   0.731 -0.2342  1.1214  1.3538
  495DG      H811370   0.433   3.420   0.744 -0.2434  0.5444  1.6327
  495DG      O911371   0.409   3.217   1.473  0.5275 -0.4252 -0.0507
  495DG     O1011372   0.435   3.285   0.913 -0.3036 -0.5419  0.2705
  495DG     C1111373   0.327   3.240   1.357  0.3396 -0.2651 -0.3530
  495DG     C1211374   0.446   3.145   0.935  0.0879  0.3527 -0.1694
  495DG     H1311375   0.318   3.347   1.337  0.0164 -0.3561 -0.7087
  495DG     H1411376   0.230   3.205   1.393  0.1198  0.2984 -0.3979
  495DG     H1511377   0.494   3.089   0.855 -0.8741 -0.6410 -0.0803
  495DG     H1611378   0.353   3.090   0.947 -0.4320  1.3154  0.3558
  495DG     C1711379   0.364   3.152   1.239  0.3657  0.2155  0.1169
  495DG     C1811380   0.525   3.127   1.062 -0.0554  0.7094  0.1859
  495DG     O1911381   0.482   3.204   1.178 -0.1042 -0.0839  0.0334
  495DG     H2011382   0.280   3.153   1.170  0.8831  1.7166 -0.5208
  495DG     H2111383   0.385   3.052   1.277 -0.2114  0.2184  0.4592
  495DG     H2211384   0.531   3.019   1.077 -0.0146  0.9285  1.9426
  495DG     H2311385   0.626   3.152   1.028 -0.3490 -0.6988 -1.9582
  496DG      C111386   5.336   0.037   2.622  0.1290  0.5446 -0.0812
  496DG      C211387   4.717  -0.240   2.110 -0.6128 -0.0740  0.1860
  496DG      H311388   5.300   0.111   2.694 -0.2909  1.1224 -0.8754
  496DG      H411389   5.443   0.022   2.628  0.1394 -0.8326 -2.6855
  496DG      H511390   5.290  -0.059   2.647 -1.4018  0.8001 -1.6836
  496DG      H611391   4.755  -0.293   2.022  0.4280  1.8461 -0.5769
  496DG      H711392   4.680  -0.309   2.186 -0.6110  1.9407  2.1267
  496DG      H811393   4.626  -0.185   2.087 -1.6790 -1.5621  0.6693
  496DG      O911394   5.288   0.073   2.488  0.2644  0.5164  0.2244
  496DG     O1011395   4.820  -0.157   2.158  0.3051  0.7107 -0.3519
  496DG     C1111396   5.167   0.015   2.458 -0.6376 -0.3189 -0.5215
  496DG     C1211397   4.878  -0.075   2.062 -0.0355  0.0776 -0.6919
  496DG     H1311398   5.096   0.057   2.529 -0.8642  0.7405 -1.3404
  496DG     H1411399   5.173  -0.093   2.469 -0.7426 -0.3450 -0.7103
  496DG     H1511400   4.810  -0.020   1.998 -0.6703  0.1490  0.0384
  496DG     H1611401   4.931  -0.136   1.988 -0.1986  0.2421 -0.9491
  496DG     C1711402   5.134   0.053   2.310  0.4049  0.0787 -0.1993
  496DG     C1811403   4.987   0.022   2.127 -0.7416  0.2740 -0.2849
  496DG     O1911404   5.019  -0.018   2.259  0.2401  0.0979 -0.3145
  496DG     H2011405   5.215   0.040   2.239  0.1825  0.0269 -0.4475
  496DG     H2111406   5.112   0.160   2.308  0.3142  0.0493 -1.5241
  496DG     H2211407   5.080   0.027   2.070  0.5520 -3.8565  1.0418
  496DG     H2311408   4.940   0.119   2.139 -2.1780 -0.4964  0.5286
  497DG      C111409   1.005   3.397   0.408 -0.4497 -0.9662 -0.3404
  497DG      C211410   0.806   3.878   0.868  0.3948  0.3850 -0.2015
  497DG      H311411   0.990   3.294   0.377  0.3844 -2.2514  3.0954
  497DG      H411412   1.111   3.389   0.429 -0.2613  0.7276 -0.4722
  497DG      H511413   0.987   3.460   0.321 -1.1254  0.1320  0.5720
  497DG      H611414   0.775   3.937   0.782  1.1620  1.7645  0.4374
  497DG      H711415   0.736   3.893   0.950  0.2197 -1.0325 -0.0666
  497DG      H811416   0.901   3.914   0.906  0.5176 -0.9640  0.8301
  497DG      O911417   0.940   3.424   0.534  0.3560  0.3163  0.3501
  497DG     O1011418   0.818   3.739   0.842  0.1222 -0.4552 -0.0825
  497DG     C1111419   0.974   3.325   0.627 -0.0133  0.4408 -0.7767
  497DG     C1211420   0.858   3.662   0.950 -0.6807 -0.2040  0.0657
  497DG     H1311421   1.080   3.313   0.646 -0.1689 -0.4425 -0.4236
  497DG     H1411422   0.937   3.228   0.596 -0.1541  0.5681 -1.0107
  497DG     H1511423   0.793   3.680   1.035 -1.0539  1.0816 -0.4637
  497DG     H1611424   0.957   3.698   0.981  0.3827 -3.2925  0.5565
  497DG     C1711425   0.901   3.353   0.757  0.1909 -0.1274 -0.4811
  497DG     C1811426   0.851   3.510   0.914  0.6521 -0.3611 -0.0541
  497DG     O1911427   0.928   3.485   0.800  0.0704  0.6831  0.1675
  497DG     H2011428   0.935   3.280   0.831  1.1828  0.3006 -0.4989
  497DG     H2111429   0.794   3.336   0.749  0.3748 -2.1610  0.7150
  497DG     H2211430   0.883   3.446   0.996 -0.9884  1.7940  2.4463
  497DG     H2311431   0.746   3.483   0.907  1.4201 -3.4016 -0.9876
  498DG      C111432   3.552   4.748   0.136 -0.4055 -0.1839  0.3008
  498DG      C211433   3.246   4.020   0.402 -0.1361  0.1942 -0.5114
  498DG      H311434   3.451   4.713   0.114 -0.7721  1.8517 -1.5406
  498DG      H411435   3.610   4.706   0.054  0.1257 -0.1297  0.6492
  498DG      H511436   3.562   4.855   0.120  1.9081 -0.3322  0.4690
  498DG      H611437   3.310   3.969   0.475 -0.3695  1.7539  0.8603
  498DG      H711438   3.147   4.029   0.447  0.2740  0.6726  0.3252
  498DG      H811439   3.227   3.950   0.321 -1.6301  1.5973 -1.4263
  498DG      O911440   3.595   4.718   0.263  0.1905  0.3379 -0.6931
  498DG     O1011441   3.291   4.146   0.362 -0.0141  0.3163 -0.4697
  498DG     C1111442   3.593   4.580   0.289  0.2490 -0.3651  0.6383
  498DG     C1211443   3.321   4.222   0.479 -0.1015 -0.7502  0.0992
  498DG     H1311444   3.651   4.571   0.381  2.0625 -1.0707 -0.5200
  498DG     H1411445   3.644   4.521   0.213  0.8316  1.8472 -0.7627
  498DG     H1511446   3.407   4.191   0.538  0.8899  2.4191  0.5233
  498DG     H1611447   3.229   4.219   0.537  0.3156  3.9708  1.4703
  498DG     C1711448   3.449   4.541   0.327  0.0258 -0.2551  0.2768
  498DG     C1811449   3.336   4.369   0.441 -0.0702  0.1105 -0.4156
  498DG     O1911450   3.453   4.407   0.365  0.4140 -0.3993 -0.0117
  498DG     H2011451   3.385   4.553   0.239 -2.0584  1.7902  1.9538
  498DG     H2111452   3.421   4.607   0.409  0.2034  0.4397 -0.2126
  498DG     H2211453   3.237   4.396   0.405  0.5398  0.7287 -1.7168
  498DG     H2311454   3.337   4.426   0.534 -2.8338 -0.4766  0.0656
  499DG      C111455   4.812   1.581   2.839  0.0958 -0.0318 -0.2377
  499DG      C211456   5.310   1.957   2.595  0.2504 -0.0505  0.1002
  499DG      H311457   4.840   1.619   2.937  0.0446  1.0772 -0.6336
  499DG      H411458   4.765   1.490   2.875  1.0161  0.0243  1.1718
  499DG      H511459   4.743   1.648   2.787  0.0113  0.5502  0.6113
  499DG      H611460   5.338   1.988   2.696 -0.0395 -0.9415  0.4639
  499DG      H711461   5.402   1.943   2.538  0.2318  1.4550 -0.3304
  499DG      H811462   5.255   2.036   2.544  0.4379 -0.4655 -0.7656
  499DG      O911463   4.926   1.552   2.770 -0.8528  0.0067 -0.0080
  499DG     O1011464   5.247   1.832   2.599  0.3119 -0.3379 -0.2860
  499DG     C1111465   4.902   1.514   2.633  0.1113 -0.4829 -0.0982
  499DG     C1211466   5.185   1.805   2.478 -0.0124  0.7513 -0.0813
  499DG     H1311467   4.825   1.573   2.584  0.9945 -0.3235 -1.3464
  499DG     H1411468   4.849   1.419   2.635 -2.2939  0.7899  1.2084
  499DG     H1511469   5.263   1.766   2.413  0.5283  0.1829  0.8878
  499DG     H1611470   5.144   1.893   2.429 -1.5131 -0.5955 -1.4142
  499DG     C1711471   5.027   1.481   2.548 -0.0344 -0.2840  0.1984
  499DG     C1811472   5.076   1.694   2.482  0.5889 -0.4009  0.1185
  499DG     O1911473   5.128   1.584   2.546 -0.0431  0.7210 -0.2877
  499DG     H2011474   5.000   1.459   2.444  1.6763  0.4923 -0.4407
  499DG     H2111475   5.077   1.392   2.586 -0.0355 -0.0179  0.8272
  499DG     H2211476   4.986   1.730   2.531 -0.9063 -2.9472 -0.5572
  499DG     H2311477   5.057   1.671   2.377  0.0371  1.1920 -0.1664
  500DG      C111478   4.465   0.336   1.188 -0.4056 -0.2056  0.3394
  500DG      C211479   4.366   0.078   1.854  0.3260  0.2035 -0.3312
  500DG      H311480   4.453   0.412   1.111 -1.4991 -0.8440 -0.1483
  500DG      H411481   4.445   0.233   1.157  2.0009  0.0891 -2.6674
  500DG      H511482   4.569   0.336   1.221 -0.6993  1.5736  1.3842
  500DG      H611483   4.280   0.039   1.907  0.3414 -2.2234 -1.9132
  500DG      H711484   4.391  -0.009   1.792  1.7660  1.2277 -1.2544
  500DG      H811485   4.441   0.096   1.931  0.5557  1.5654 -0.8427
  500DG      O911486   4.394   0.375   1.300  0.1549 -0.5832  0.2095
  500DG     O1011487   4.335   0.185   1.763 -0.0008  0.2730  0.5105
  500DG     C1111488   4.424   0.503   1.355  0.5817 -0.0002 -0.7055
  500DG     C1211489   4.334   0.316   1.815 -0.0259 -0.2946 -0.1289
  500DG     H1311490   4.420   0.586   1.284  0.3656  1.0336  0.4811
  500DG     H1411491   4.526   0.497   1.392 -0.4069  1.2608  2.5662
  500DG     H1511492   4.436   0.341   1.847  0.3340  0.5671 -1.8138
  500DG     H1611493   4.267   0.319   1.900 -0.4012 -0.9251 -0.3964
  500DG     C1711494   4.334   0.528   1.487 -0.7753  0.9504  0.4089
  500DG     C1811495   4.284   0.414   1.706 -0.7412  0.3787 -0.1626
  500DG     O1911496   4.356   0.410   1.579 -0.0091  0.2104 -0.0520
  500DG     H2011497   4.229   0.541   1.461 -0.5837  2.9515  0.5139
  500DG     H2111498   4.361   0.619   1.541  0.2934  0.7800  0.1838
  500DG     H2211499   4.178   0.398   1.683 -0.1242 -1.2769 -2.1589
  500DG     H2311500   4.300   0.512   1.750 -0.7815  0.2726  0.0866
  501DG      C111501   0.061   3.078   3.454  0.2417 -0.1970 -0.2301
  501DG      C211502   0.515   3.187   4.077 -0.6356  0.6687 -0.1138
  501DG      H311503  -0.044   3.062   3.428  0.0045  1.4525 -0.4468
  501DG      H411504   0.124   3.056   3.368  1.2244  0.6365  0.2538
  501DG      H511505   0.066   3.185   3.474 -0.8859 -0.5886  2.6291
  501DG      H611506   0.558   3.282   4.046  1.6306  0.0585  0.9922
  501DG      H711507   0.530   3.182   4.185 -0.4832 -0.2593 -0.1672
  501DG      H811508   0.587   3.122   4.027 -0.5742 -0.4780  1.3921
  501DG      O911509   0.095   3.007   3.576 -0.1351  0.6920 -0.1660
  501DG     O1011510   0.380   3.168   4.039 -0.3996  0.4053 -0.0540
  501DG     C1111511   0.000   3.037   3.681  0.0609  0.6677 -0.0623
  501DG     C1211512   0.358   3.202   3.901  0.5960  0.0121  0.8445
  501DG     H1311513  -0.094   2.984   3.675  0.2023 -0.3514  3.8366
  501DG     H1411514  -0.022   3.143   3.689  0.1930  0.5407  3.4356
  501DG     H1511515   0.426   3.134   3.850 -1.2732 -2.6824  1.7269
  501DG     H1611516   0.381   3.308   3.888  0.0236  0.0063 -0.3972
  501DG     C1711517   0.065   2.987   3.818  0.0452 -0.3008 -0.2950
  501DG     C1811518   0.212   3.180   3.852 -0.4740 -0.4349  0.5069
  501DG     O1911519   0.198   3.037   3.822  0.0657  0.2045 -0.6249
  501DG     H2011520   0.084   2.880   3.808 -1.2829 -0.5521 -0.3600
  501DG     H2111521   0.001   2.992   3.906  0.9559  1.5078  0.2898
  501DG     H2211522   0.149   3.202   3.938  0.1227 -2.0708  1.3988
  501DG     H2311523   0.185   3.235   3.762  0.7007 -3.0856 -1.6132
  502DG      C111524   5.404   4.367   1.192 -0.2852  0.1469  0.6285
  502DG      C211525   5.461   4.787   0.638 -0.2112 -0.4306  0.1670
  502DG      H311526   5.340   4.396   1.275 -3.5024 -2.1194 -0.8331
  502DG      H411527   5.470   4.287   1.223 -0.1884 -0.2208 -0.4615
  502DG      H511528   5.349   4.318   1.111 -0.8133  0.8791  0.5325
  502DG      H611529   5.390   4.870   0.642  1.2974  0.9308 -0.2943
  502DG      H711530   5.548   4.825   0.583 -0.4278 -1.2078 -0.7439
  502DG      H811531   5.422   4.699   0.587 -1.0092 -0.5111  0.8930
  502DG      O911532   5.476   4.478   1.131 -0.5241  0.4691 -0.5458
  502DG     O1011533   5.484   4.764   0.776 -0.6266  0.3815  0.1421
  502DG     C1111534   5.594   4.514   1.199  0.5433  0.4163 -0.1670
  502DG     C1211535   5.611   4.811   0.821 -0.3624 -0.0587 -0.1627
  502DG     H1311536   5.677   4.453   1.165 -0.1457 -0.9592  0.5312
  502DG     H1411537   5.575   4.497   1.305  2.1025  0.4845  0.1358
  502DG     H1511538   5.631   4.911   0.780  1.1990 -0.2030  0.1667
  502DG     H1611539   5.698   4.757   0.785 -1.0696 -1.7164  0.5446
  502DG     C1711540   5.612   4.657   1.166  0.8198 -0.3588  0.4508
  502DG     C1811541   5.612   4.808   0.977 -0.3878 -0.2361 -0.6129
  502DG     O1911542   5.594   4.678   1.025  0.4883  0.7490 -0.1673
  502DG     H2011543   5.711   4.695   1.193  0.4952  0.2479  0.7803
  502DG     H2111544   5.536   4.715   1.217  0.4450 -0.6923  0.2751
  502DG     H2211545   5.703   4.845   1.024 -0.9468  0.0753  0.2571
  502DG     H2311546   5.536   4.870   1.025 -0.4924  0.1628 -1.2752
  503DG      C111547   1.655   2.960   2.508 -0.4561  0.4801  0.1092
  503DG      C211548   2.072   3.463   2.415  0.6869  0.4578 -0.0034
  503DG      H311549   1.714   2.961   2.600 -1.9950 -1.4786  1.1897
  503DG      H411550   1.690   2.876   2.449 -0.1301  0.5020  0.2669
  503DG      H511551   1.553   2.945   2.541  0.2183 -0.0875  2.0776
  503DG      H611552   2.123   3.426   2.504  0.2832  0.1504  0.1051
  503DG      H711553   2.151   3.443   2.343  0.1544 -0.4665 -0.3514
  503DG      H811554   2.060   3.569   2.440 -0.3299  0.1446  0.9440
  503DG      O911555   1.676   3.076   2.431 -0.2819  0.8356  0.2482
  503DG     O1011556   1.944   3.398   2.384  0.1837 -0.0420 -0.2470
  503DG     C1111557   1.596   3.068   2.311 -0.8701 -0.0213 -1.4232
  503DG     C1211558   1.906   3.440   2.259  0.5075 -0.0339  0.2261
  503DG     H1311559   1.490   3.058   2.336 -0.8616 -1.6309 -1.8702
  503DG     H1411560   1.609   2.982   2.244  1.5386 -0.0113 -1.0546
  503DG     H1511561   1.969   3.385   2.190  0.7482 -0.8393  1.0645
  503DG     H1611562   1.924   3.547   2.245  0.0697  0.0730  0.4313
  503DG     C1711563   1.618   3.201   2.236  0.0143  0.6761 -0.3125
  503DG     C1811564   1.758   3.393   2.223  0.2166  0.2744 -0.0772
  503DG     O1911565   1.750   3.256   2.259  0.3483 -0.5040 -0.6910
  503DG     H2011566   1.557   3.269   2.296 -1.9196 -2.1484  1.1482
  503DG     H2111567   1.583   3.217   2.135  1.4850  2.0873 -0.6533
  503DG     H2211568   1.684   3.461   2.265 -0.7097  0.5276 -2.0038
  503DG     H2311569   1.732   3.395   2.117  0.6473  0.6803 -0.1779
  504DG      C111570   3.346   1.649   3.831 -0.5057 -1.3030  0.3633
  504DG      C211571   4.208   1.687   4.182  0.0780 -0.0833  0.0124
  504DG      H311572   3.266   1.708   3.785  0.2859 -0.4889 -0.0125
  504DG      H411573   3.316   1.653   3.936  0.0908  0.2149  0.5040
  504DG      H511574   3.340   1.550   3.787 -1.1664 -0.5656 -1.2708
  504DG      H611575   4.181   1.589   4.221 -1.6320 -0.0995 -1.1368
  504DG      H711576   4.311   1.683   4.147 -0.1641 -0.9024 -0.6136
  504DG      H811577   4.214   1.752   4.270 -0.3414  0.0455 -0.0528
  504DG      O911578   3.464   1.713   3.807 -0.7542  0.3480  0.2111
  504DG     O1011579   4.128   1.744   4.078 -0.8527  0.1887 -1.0302
  504DG     C1111580   3.565   1.655   3.894  0.3899 -0.2432 -0.4279
  504DG     C1211581   4.005   1.689   4.071  0.1932  0.3302 -0.3581
  504DG     H1311582   3.576   1.548   3.875  0.1966 -0.2154 -0.7149
  504DG     H1411583   3.541   1.675   3.998 -1.4124  2.5961 -1.2485
  504DG     H1511584   3.952   1.710   4.164 -1.0712  0.0254 -0.9760
  504DG     H1611585   4.019   1.583   4.048 -1.9390  0.3399 -2.0390
  504DG     C1711586   3.698   1.721   3.869 -0.6389  0.3523 -0.3904
  504DG     C1811587   3.928   1.743   3.959 -0.2935  0.0108 -0.5863
  504DG     O1911588   3.795   1.685   3.966 -0.0112 -0.1863  0.2595
  504DG     H2011589   3.679   1.829   3.863  1.3746  0.6845 -2.4901
  504DG     H2111590   3.731   1.689   3.770  1.0034 -0.3955  0.3720
  504DG     H2211591   3.911   1.848   3.983  0.0517 -0.3264  1.3067
  504DG     H2311592   3.979   1.716   3.867  0.0023 -2.5041  0.2446
  505DG      C111593   5.041   4.013   4.226  0.1847 -0.3871  0.6082
  505DG      C211594   5.053   4.725   3.995  0.7625 -0.5845 -0.0761
  505DG      H311595   4.968   3.938   4.255  0.2475 -0.3881  0.7648
  505DG      H411596   5.118   4.031   4.301  3.1072  0.6723 -2.3859
  505DG      H511597   5.107   3.971   4.151  1.5212  1.3979  0.7143
  505DG      H611598   5.035   4.791   4.080  0.1603  0.3806 -0.9235
  505DG      H711599   5.153   4.682   3.993  0.5185 -1.1330 -0.7476
  505DG      H811600   5.037   4.791   3.910 -2.2646 -1.0987 -0.0155
  505DG      O911601   4.969   4.136   4.202 -1.6623  0.6041  0.3028
  505DG     O1011602   4.955   4.623   3.989  0.6523 -0.1616  0.3515
  505DG     C1111603   4.871   4.118   4.103 -0.0536 -0.0708 -0.3872
  505DG     C1211604   4.968   4.529   4.096  0.1615  0.2912 -0.4048
  505DG     H1311605   4.818   4.028   4.132  0.1594  0.3812  1.5452
  505DG     H1411606   4.925   4.104   4.009  0.2166 -0.2895 -0.2026
  505DG     H1511607   4.976   4.587   4.188  1.2063 -0.3616 -0.0599
  505DG     H1611608   5.052   4.459   4.087  0.0876 -0.0691  1.2379
  505DG     C1711609   4.765   4.228   4.065  0.1810 -0.3136  0.1714
  505DG     C1811610   4.849   4.434   4.121 -0.6817 -0.1810 -0.0936
  505DG     O1911611   4.830   4.345   4.017 -0.1169  0.3328  0.0505
  505DG     H2011612   4.684   4.254   4.133  0.6176 -0.1845  0.6523
  505DG     H2111613   4.722   4.186   3.974 -1.2103 -0.0123  0.6600
  505DG     H2211614   4.865   4.374   4.211 -1.2047 -0.6519 -0.3138
  505DG     H2311615   4.758   4.494   4.123 -1.0622 -0.7620  0.2064
  506DG      C111616   0.195   0.901   0.101 -0.0547  1.1225  0.2641
  506DG      C211617   0.390   0.413   0.504  0.5009  0.0333 -0.0413
  506DG      H311618   0.157   0.814   0.047 -1.5027  0.4066  2.3161
  506DG      H411619   0.203   0.973   0.019  0.5418 -0.9789 -1.6237
  506DG      H511620   0.114   0.933   0.166  1.9570  2.9477  2.0058
  506DG      H611621   0.281   0.407   0.499  0.5511 -0.1409 -1.7338
  506DG      H711622   0.427   0.325   0.450  2.0878  1.0318 -0.6384
  506DG      H811623   0.438   0.404   0.601  1.0718 -0.2584 -0.3440
  506DG      O911624   0.308   0.884   0.185  0.2263  0.2070 -0.2020
  506DG     O1011625   0.426   0.536   0.443 -0.3506 -0.0677 -0.2691
  506DG     C1111626   0.418   0.851   0.107  0.3934 -0.1940  0.0189
  506DG     C1211627   0.566   0.534   0.417  0.0675 -0.5351 -0.5588
  506DG     H1311628   0.442   0.933   0.040 -0.8084 -0.2294 -0.4819
  506DG     H1411629   0.403   0.759   0.050  1.7178 -0.9116  0.7889
  506DG     H1511630   0.585   0.450   0.350  2.5796 -0.2363 -0.3308
  506DG     H1611631   0.626   0.504   0.503 -2.3817  1.1814  1.9691
  506DG     C1711632   0.538   0.830   0.196 -0.1148  0.7359 -0.1453
  506DG     C1811633   0.604   0.674   0.366  0.3200 -0.8592  0.5708
  506DG     O1911634   0.505   0.720   0.280 -0.2162  0.1473  0.3473
  506DG     H2011635   0.556   0.913   0.264  1.4608 -1.3471  2.1709
  506DG     H2111636   0.628   0.812   0.136  1.0034  2.4991  0.8981
  506DG     H2211637   0.599   0.747   0.447  0.8225  1.7153 -1.5461
  506DG     H2311638   0.705   0.684   0.326 -1.1609  0.1292 -3.5221
  507DG      C111639   3.628   4.532   4.957  0.8479 -0.4176  0.0354
  507DG      C211640   3.954   4.861   5.626  0.7785 -0.9469  0.3605
  507DG      H311641   3.537   4.483   4.923  2.2387 -0.7359 -3.7153
  507DG      H411642   3.685   4.453   5.007 -0.9317 -1.3850  0.6380
  507DG      H511643   3.692   4.547   4.870  0.1393  0.2215 -0.3837
  507DG      H611644   4.043   4.829   5.679  1.2237  1.8270  1.4394
  507DG      H711645   3.913   4.954   5.665  1.4356 -1.3072  1.9688
  507DG      H811646   3.871   4.795   5.654 -0.3660  0.0263 -0.6017
  507DG      O911647   3.611   4.657   5.019  0.1717  0.1421  0.0771
  507DG     O1011648   3.969   4.888   5.490 -0.6358  0.2117 -0.3855
  507DG     C1111649   3.541   4.641   5.140 -0.2289  0.5863  0.0967
  507DG     C1211650   3.909   4.785   5.411  0.2635 -0.2206  0.0320
  507DG     H1311651   3.569   4.545   5.185  1.8980  1.1191  0.0313
  507DG     H1411652   3.435   4.643   5.117 -0.6160 -2.7223  0.9958
  507DG     H1511653   3.893   4.689   5.461 -0.7698  0.3384  0.8208
  507DG     H1611654   3.982   4.771   5.332  1.0361  2.5197  0.1646
  507DG     C1711655   3.587   4.762   5.222 -0.8128  1.0842 -0.0428
  507DG     C1811656   3.778   4.835   5.352 -0.0796 -0.2724  0.0751
  507DG     O1911657   3.720   4.732   5.265 -0.1806 -0.8974 -0.0500
  507DG     H2011658   3.530   4.774   5.314 -0.4560 -0.2728  0.3840
  507DG     H2111659   3.580   4.851   5.160  2.6861  0.9120 -0.9014
  507DG     H2211660   3.711   4.866   5.433  0.3734 -0.2943  0.4611
  507DG     H2311661   3.799   4.917   5.284 -1.9312  0.9301  0.8705
  508DG      C111662   2.091   4.463   4.894  0.1072 -0.3634  1.0391
  508DG      C211663   1.740   4.034   4.512  0.7179  1.0137 -0.3866
  508DG      H311664   2.097   4.506   4.994  2.5647  1.2719  0.2800
  508DG      H411665   2.021   4.522   4.834 -0.4804 -0.8266  1.2657
  508DG      H511666   2.190   4.477   4.851  0.4408  1.3149  2.2399
  508DG      H611667   1.691   3.943   4.479  0.2619  1.6009 -1.3553
  508DG      H711668   1.661   4.100   4.546  2.1051  2.4203  0.2306
  508DG      H811669   1.788   4.077   4.424 -0.5823  1.5199 -0.8637
  508DG      O911670   2.030   4.332   4.900  0.5264  0.1916  0.1909
  508DG     O1011671   1.828   4.030   4.616  0.5188  0.6916 -0.5154
  508DG     C1111672   2.109   4.229   4.964  0.8496 -0.8615 -1.0027
  508DG     C1211673   1.760   4.001   4.743 -0.0744 -0.6773  0.0447
  508DG     H1311674   2.140   4.261   5.064 -0.7663 -1.3061 -0.3229
  508DG     H1411675   2.199   4.204   4.907 -0.6700  0.2993 -4.1068
  508DG     H1511676   1.703   3.908   4.737  0.5156 -1.0562  0.2240
  508DG     H1611677   1.688   4.080   4.766 -0.5097 -0.2303 -2.5651
  508DG     C1711678   2.017   4.116   4.974 -0.6580 -0.2314  1.0647
  508DG     C1811679   1.859   3.989   4.855  0.5355 -0.0684  0.2476
  508DG     O1911680   1.946   4.099   4.851  0.3541  0.2279 -0.0967
  508DG     H2011681   1.947   4.124   5.058 -0.8463 -1.4526  1.0419
  508DG     H2111682   2.078   4.030   4.999 -1.6634 -1.5070 -0.6875
  508DG     H2211683   1.807   3.970   4.949 -1.2501  0.7550 -0.5375
  508DG     H2311684   1.922   3.901   4.840  2.1261  0.8749  1.0827
  509DG      C111685   3.961   4.508   0.702 -0.1501  0.4724 -0.0501
  509DG      C211686   3.145   4.158   0.850 -0.3545  0.2047  0.6630
  509DG      H311687   3.952   4.563   0.795 -0.6552 -0.6976  0.6115
  509DG      H411688   3.901   4.567   0.632  0.0537  0.8844  0.1177
  509DG      H511689   4.055   4.508   0.647 -0.2214 -0.2450 -0.1829
  509DG      H611690   3.094   4.227   0.784  1.8716  0.3519 -1.0328
  509DG      H711691   3.107   4.058   0.830  0.2412  0.2584 -0.8742
  509DG      H811692   3.139   4.188   0.955 -0.7345 -0.0378  0.7099
  509DG      O911693   3.897   4.380   0.719 -0.1169 -0.3877 -0.3943
  509DG     O1011694   3.274   4.182   0.794  0.1178 -0.0734  0.1849
  509DG     C1111695   3.757   4.386   0.736  0.0893  0.0852  0.3885
  509DG     C1211696   3.373   4.100   0.859  0.1573  0.2266  0.2546
  509DG     H1311697   3.707   4.448   0.661  0.2278  0.4482  0.5887
  509DG     H1411698   3.725   4.433   0.829  0.7190  0.0920  0.6091
  509DG     H1511699   3.361   3.992   0.855  1.3885  0.0011  1.7129
  509DG     H1611700   3.379   4.122   0.965  2.5465 -0.3559  0.2996
  509DG     C1711701   3.697   4.243   0.739 -0.6096 -0.0421  0.7727
  509DG     C1811702   3.504   4.115   0.787 -0.1492  0.1852 -0.1702
  509DG     O1911703   3.566   4.244   0.780 -0.0646  0.6181  0.4895
  509DG     H2011704   3.772   4.183   0.790 -0.0622 -0.0599 -0.0140
  509DG     H2111705   3.699   4.188   0.645 -1.1677 -1.2693  1.4681
  509DG     H2211706   3.574   4.056   0.846 -1.5706  0.1934  1.5771
  509DG     H2311707   3.496   4.070   0.688  1.5715  1.2061 -0.8316
  510DG      C111708   4.541   5.331   0.349  0.2192 -0.5535 -1.1137
  510DG      C211709   5.139   5.380   0.603 -0.2541  0.2385  0.5579
  510DG      H311710   4.511   5.434   0.368 -0.3370 -1.2267  2.2580
  510DG      H411711   4.450   5.273   0.336 -0.1022 -0.9211  2.0904
  510DG      H511712   4.603   5.332   0.259  2.4246 -3.4995  0.1957
  510DG      H611713   5.110   5.485   0.609 -0.1854  0.2486  0.7430
  510DG      H711714   5.220   5.375   0.676  2.2516  1.4536 -1.9920
  510DG      H811715   5.171   5.351   0.503  1.7674  0.5193  1.0837
  510DG      O911716   4.612   5.281   0.462  0.0076  0.6018  0.0122
  510DG     O1011717   5.014   5.309   0.635  0.2809  0.3577  0.6821
  510DG     C1111718   4.545   5.292   0.590 -0.5720  0.7294  0.7036
  510DG     C1211719   4.972   5.317   0.772  0.2023  0.3865  0.4616
  510DG     H1311720   4.444   5.255   0.575 -0.6248 -0.2101  2.9958
  510DG     H1411721   4.541   5.400   0.606 -0.6444  1.2154 -2.0563
  510DG     H1511722   4.968   5.425   0.785  0.3174  0.4522 -0.0423
  510DG     H1611723   5.050   5.271   0.833 -0.4762 -0.7980  0.4739
  510DG     C1711724   4.622   5.218   0.704 -0.1877 -0.4418 -0.6322
  510DG     C1811725   4.838   5.246   0.802  0.4812 -0.2962 -0.0437
  510DG     O1911726   4.758   5.255   0.682 -0.1155  0.5391 -0.5578
  510DG     H2011727   4.615   5.111   0.681 -0.1868 -0.4248 -0.7133
  510DG     H2111728   4.591   5.239   0.806 -1.1649  0.0859 -1.0289
  510DG     H2211729   4.849   5.144   0.837 -2.2015  0.2234  2.8493
  510DG     H2311730   4.785   5.295   0.884 -1.3259 -1.3334 -0.5229
  511DG      C111731   3.966   5.238   1.983  0.1773  0.5181  0.4766
  511DG      C211732   3.138   5.041   2.040  0.2807  0.8770  0.6196
  511DG      H311733   3.946   5.145   1.929  1.3883 -1.5338  3.3181
  511DG      H411734   4.028   5.213   2.069 -0.1294  1.3916  0.9638
  511DG      H511735   4.028   5.302   1.919 -2.6789  3.2677  0.1993
  511DG      H611736   3.112   4.979   2.125 -1.1720 -0.5666 -0.8139
  511DG      H711737   3.060   5.116   2.031  0.6190  1.5178  2.5088
  511DG      H811738   3.122   4.991   1.944 -0.7997 -1.7944  2.0804
  511DG      O911739   3.838   5.299   2.004 -0.5710 -0.1563  0.4495
  511DG     O1011740   3.261   5.101   2.046  0.2821 -0.4583  0.1226
  511DG     C1111741   3.733   5.219   2.056  0.0086  0.3366  0.7702
  511DG     C1211742   3.256   5.220   2.130 -0.5165  0.8016  0.5432
  511DG     H1311743   3.783   5.154   2.127  2.8214  0.6231 -0.7926
  511DG     H1411744   3.701   5.159   1.971  1.7915 -0.8974  0.9063
  511DG     H1511745   3.229   5.197   2.233 -0.7709 -0.3439  0.2284
  511DG     H1611746   3.175   5.287   2.100 -0.3516  0.6400 -0.2941
  511DG     C1711747   3.623   5.309   2.115  0.6532 -0.2342 -0.2241
  511DG     C1811748   3.383   5.306   2.120  0.3611  0.3788 -0.3059
  511DG     O1911749   3.500   5.228   2.119 -0.0448  0.0255 -0.2471
  511DG     H2011750   3.619   5.398   2.052  0.1180  0.4334  0.7269
  511DG     H2111751   3.643   5.338   2.218  0.8405 -0.7227 -0.1196
  511DG     H2211752   3.375   5.359   2.025 -0.6785  1.8249  0.5378
  511DG     H2311753   3.408   5.368   2.206  0.1250 -0.5188  0.4264
  512DG      C111754   2.453   5.123   5.183  0.1986  0.1470  1.0035
  512DG      C211755   2.652   5.534   5.580  0.1420 -0.4420  0.3987
  512DG      H311756   2.362   5.179   5.165 -1.1675 -1.8535  1.3598
  512DG      H411757   2.456   5.033   5.121  2.4788  0.3210  0.7648
  512DG      H511758   2.530   5.198   5.162 -0.9624  1.2207  0.5092
  512DG      H611759   2.681   5.579   5.675  1.8893 -0.9630  0.1489
  512DG      H711760   2.740   5.521   5.517  0.5628 -1.9562  1.2408
  512DG      H811761   2.586   5.606   5.530  0.2542  0.1330  1.0688
  512DG      O911762   2.450   5.114   5.326 -0.2840 -0.1652  0.9538
  512DG     O1011763   2.577   5.417   5.588  0.0752  0.4815  0.6538
  512DG     C1111764   2.537   5.020   5.371  0.2137 -0.3156  0.6976
  512DG     C1211765   2.608   5.347   5.700 -0.6138  0.6076 -0.2309
  512DG     H1311766   2.643   5.039   5.350  0.1611 -1.3938 -0.6914
  512DG     H1411767   2.514   4.919   5.336 -0.1581  0.7202 -2.3414
  512DG     H1511768   2.570   5.395   5.790 -1.0084 -2.2161  1.2485
  512DG     H1611769   2.716   5.328   5.702 -0.4476  1.5326  1.7179
  512DG     C1711770   2.523   5.023   5.529 -0.0542 -0.7493  0.3870
  512DG     C1811771   2.543   5.204   5.697  0.0094  0.0038  0.0202
  512DG     O1911772   2.560   5.155   5.558 -0.0560 -0.0858 -0.1848
  512DG     H2011773   2.585   4.947   5.576  0.2380  0.8538  2.7700
  512DG     H2111774   2.420   5.011   5.562 -0.0696 -3.6040 -0.4617
  512DG     H2211775   2.584   5.133   5.768 -1.4703  0.4618  1.4121
  512DG     H2311776   2.441   5.211   5.736  0.2803  1.9274  0.5105
  513DG      C111777   0.603   3.055   1.943  0.5652  0.1366  0.2063
  513DG      C211778   1.189   3.101   2.166  0.0494 -0.5307 -0.1150
  513DG      H311779   0.517   3.002   1.902  1.1677 -1.4938  0.9564
  513DG      H411780   0.650   3.106   1.859 -1.9891  0.9158 -0.8332
  513DG      H511781   0.576   3.136   2.011  1.6432  0.4600  0.2699
  513DG      H611782   1.283   3.091   2.220  0.7878 -0.0515 -1.2634
  513DG      H711783   1.212   3.140   2.067  2.2338 -3.3345 -0.8829
  513DG      H811784   1.130   3.172   2.222  0.5089 -1.3926  1.5251
  513DG      O911785   0.685   2.964   2.013  0.1290  0.2930  0.6531
  513DG     O1011786   1.120   2.973   2.152 -0.1656  0.7534 -0.1530
  513DG     C1111787   0.619   2.909   2.125 -1.0622 -0.0229 -0.0683
  513DG     C1211788   1.082   2.924   2.275 -0.1563  0.4444 -0.5823
  513DG     H1311789   0.537   2.843   2.095 -0.0955 -1.7829  1.0007
  513DG     H1411790   0.579   2.992   2.182 -0.6131  0.6957 -0.7759
  513DG     H1511791   1.055   3.005   2.343  1.1827  0.4786 -0.0430
  513DG     H1611792   1.159   2.858   2.316 -2.9261 -2.1086  0.8224
  513DG     C1711793   0.726   2.832   2.208 -0.5106  0.7696  0.1042
  513DG     C1811794   0.960   2.834   2.265  0.0346  0.5972  0.2536
  513DG     O1911795   0.844   2.904   2.217 -0.1141 -0.1718 -0.5739
  513DG     H2011796   0.743   2.751   2.137  0.4378  1.4775 -0.5074
  513DG     H2111797   0.682   2.790   2.298  0.3193 -1.5594 -0.4983
  513DG     H2211798   0.975   2.748   2.199 -0.6959  0.4068  0.3191
  513DG     H2311799   0.943   2.788   2.363 -0.2979 -0.0087 -0.0758
  514DG      C111800   1.786   1.948   5.188  0.3149 -0.4440 -0.0027
  514DG      C211801   1.383   1.405   5.120 -0.6446 -0.4475 -0.6367
  514DG      H311802   1.834   2.007   5.267 -1.1416 -1.0359  1.3838
  514DG      H411803   1.715   2.015   5.139  0.4526 -1.4798 -1.6774
  514DG      H511804   1.843   1.917   5.101 -3.2259  0.5122 -2.8854
  514DG      H611805   1.310   1.486   5.122 -0.5233 -0.3539  0.3848
  514DG      H711806   1.431   1.382   5.025  1.4587  0.8214  0.0699
  514DG      H811807   1.324   1.315   5.139  0.2824 -0.6850  1.2488
  514DG      O911808   1.715   1.834   5.232 -1.3074 -0.4124 -0.6911
  514DG     O1011809   1.477   1.419   5.223 -0.5532 -0.0172  0.0963
  514DG     C1111810   1.796   1.734   5.284  0.0386 -0.2114  0.3107
  514DG     C1211811   1.429   1.487   5.335  0.7398 -0.0641  0.1448
  514DG     H1311812   1.842   1.769   5.377  0.9857 -0.6099 -0.0038
  514DG     H1411813   1.879   1.709   5.219 -1.1266  1.6036 -2.0174
  514DG     H1511814   1.346   1.436   5.384  2.7198 -0.7463  3.0349
  514DG     H1611815   1.382   1.579   5.299  0.1851  0.2800  1.6679
  514DG     C1711816   1.709   1.613   5.313 -0.6494  0.4042 -0.1509
  514DG     C1811817   1.532   1.528   5.444 -0.1950 -0.4889  0.1929
  514DG     O1911818   1.604   1.647   5.405 -0.4774 -0.1029  0.1035
  514DG     H2011819   1.764   1.531   5.358 -1.6807  0.6022  1.5483
  514DG     H2111820   1.680   1.569   5.218 -1.0604 -0.8284  0.5234
  514DG     H2211821   1.476   1.562   5.532  2.0185  1.4015  0.9598
  514DG     H2311822   1.592   1.447   5.484  0.4653  0.8460  2.0758
  515DG      C111823   1.112   3.839   5.156 -0.3106  0.7152  0.9269
  515DG      C211824   0.728   3.317   5.393  0.0793 -0.3404 -0.4511
  515DG      H311825   1.012   3.881   5.142 -0.6098  0.1121  1.2008
  515DG      H411826   1.163   3.858   5.062 -0.9766 -1.2368  0.1292
  515DG      H511827   1.169   3.880   5.239  2.0186  0.3814 -0.4386
  515DG      H611828   0.704   3.398   5.462  1.8896  0.5262 -0.7936
  515DG      H711829   0.631   3.280   5.359 -1.4583  1.2001  1.9195
  515DG      H811830   0.775   3.247   5.462 -0.8333  1.1707  1.8147
  515DG      O911831   1.088   3.701   5.153  0.1211 -0.1583  0.2340
  515DG     O1011832   0.822   3.374   5.301  0.6611  0.0949  0.4972
  515DG     C1111833   1.211   3.638   5.188 -0.5592  0.0844 -0.3579
  515DG     C1211834   0.898   3.273   5.235 -0.2653  0.2586  0.3296
  515DG     H1311835   1.238   3.646   5.293 -1.2979  1.1701 -0.2378
  515DG     H1411836   1.299   3.681   5.142  1.3885 -1.9368  1.2552
  515DG     H1511837   0.836   3.208   5.174 -1.0399  1.0868  0.2141
  515DG     H1611838   0.956   3.212   5.305  1.8993  1.3756 -0.4001
  515DG     C1711839   1.199   3.485   5.162  0.3479 -0.3418  0.2573
  515DG     C1811840   1.000   3.346   5.148 -0.3343  0.1968 -1.1493
  515DG     O1911841   1.079   3.436   5.224  0.2455 -0.4676  0.5712
  515DG     H2011842   1.289   3.438   5.202  1.4306  0.8126 -0.7135
  515DG     H2111843   1.190   3.482   5.053 -3.0781 -1.8142  0.4723
  515DG     H2211844   1.067   3.277   5.097 -0.0200 -1.3341  1.1900
  515DG     H2311845   0.947   3.401   5.071 -1.2368  1.5865  0.4063
  516DG      C111846   4.356   3.118   5.460  0.7776 -0.1301 -0.5006
  516DG      C211847   4.111   3.591   4.885  0.2883 -0.4488  0.2348
  516DG      H311848   4.370   3.052   5.375 -2.2601 -0.9204 -0.5156
  516DG      H411849   4.276   3.075   5.520 -0.3293  0.5191 -1.4553
  516DG      H511850   4.447   3.143   5.515  0.9563 -0.0066 -0.8524
  516DG      H611851   4.149   3.519   4.813  4.2183  2.1615 -0.6545
  516DG      H711852   4.020   3.643   4.857  1.3042  1.6757  0.6259
  516DG      H811853   4.190   3.664   4.866 -0.1310 -0.4773 -1.8646
  516DG      O911854   4.319   3.235   5.389 -0.1636 -0.7548  0.6008
  516DG     O1011855   4.103   3.549   5.014 -0.3811 -0.4290 -0.4142
  516DG     C1111856   4.236   3.327   5.460 -0.4396 -0.3064 -0.3951
  516DG     C1211857   4.000   3.456   5.041  0.7957  0.2038 -0.2214
  516DG     H1311858   4.276   3.425   5.431 -0.5055 -0.4453 -0.9749
  516DG     H1411859   4.229   3.314   5.567 -1.3915  0.2463 -0.3829
  516DG     H1511860   4.023   3.365   4.985  2.2493 -0.0301  0.7195
  516DG     H1611861   3.905   3.490   4.998  0.0629 -2.0023 -0.4808
  516DG     C1711862   4.094   3.332   5.390  0.0833 -0.3944  0.6798
  516DG     C1811863   3.989   3.419   5.190  0.6623 -0.5401 -0.0838
  516DG     O1911864   4.105   3.361   5.246  0.0599  0.3767  0.4649
  516DG     H2011865   4.039   3.415   5.434  0.3522 -0.9209  2.0581
  516DG     H2111866   4.040   3.240   5.410 -3.0488  1.1025 -0.2563
  516DG     H2211867   3.966   3.510   5.245  0.4539 -0.3428 -0.4975
  516DG     H2311868   3.906   3.349   5.192  1.2114 -1.3399 -2.0337
  517DG      C111869   1.254   3.469   0.900  0.0452 -0.1546 -0.3497
  517DG      C211870   1.687   3.350   1.443 -0.4652 -0.1375 -0.4429
  517DG      H311871   1.314   3.465   0.809  2.4531 -0.8313  1.1772
  517DG      H411872   1.251   3.572   0.933  0.9863  0.1947 -1.2793
  517DG      H511873   1.149   3.454   0.873 -0.5087 -0.2260  1.7121
  517DG      H611874   1.680   3.304   1.541  1.4373  0.0717 -0.1801
  517DG      H711875   1.777   3.307   1.400 -0.1372 -0.6298  0.7214
  517DG      H811876   1.710   3.456   1.445  2.1410 -0.6443 -0.0413
  517DG      O911877   1.299   3.366   0.990 -0.7908 -0.4430 -0.1422
  517DG     O1011878   1.579   3.324   1.354  0.2136 -0.3015 -0.3448
  517DG     C1111879   1.269   3.232   0.970 -0.4260  0.1553  0.7280
  517DG     C1211880   1.520   3.190   1.371  0.6888  0.2160  0.3766
  517DG     H1311881   1.332   3.200   0.887 -0.5917  0.2476  0.5650
  517DG     H1411882   1.171   3.226   0.922  0.8275 -1.6592 -1.8762
  517DG     H1511883   1.498   3.178   1.477  0.5215  0.5039  0.3761
  517DG     H1611884   1.583   3.112   1.327  0.9567  0.5520  0.1625
  517DG     C1711885   1.259   3.157   1.108 -0.1170  0.1519 -0.3444
  517DG     C1811886   1.379   3.164   1.316  0.1239  0.6975 -0.0535
  517DG     O1911887   1.384   3.187   1.176 -0.0344  0.7194  0.1179
  517DG     H2011888   1.259   3.048   1.099  2.0384  0.1979 -1.7623
  517DG     H2111889   1.179   3.197   1.170  1.7972  1.1390  1.6105
  517DG     H2211890   1.364   3.063   1.352  0.0189  0.2327 -1.3571
  517DG     H2311891   1.308   3.234   1.360 -0.3451  0.0556  0.2127
  518DG      C111892   4.376   4.544   0.311 -0.3648 -0.2236  0.0301
  518DG      C211893   3.769   4.335  -0.071 -0.5736  0.4406  0.4481
  518DG      H311894   4.479   4.541   0.345 -0.6688 -0.4030  0.9483
  518DG      H411895   4.318   4.473   0.369 -0.5770 -0.9447 -1.0309
  518DG      H511896   4.339   4.639   0.348  0.6852 -0.6051  2.2084
  518DG      H611897   3.721   4.418  -0.122 -0.7031  0.3296  0.3900
  518DG      H711898   3.745   4.245  -0.128 -1.5443  0.7365  0.3879
  518DG      H811899   3.721   4.327   0.027 -0.2117  0.5707  0.6397
  518DG      O911900   4.381   4.538   0.167  0.1530  0.0543  0.0425
  518DG     O1011901   3.908   4.366  -0.074 -0.2478 -0.3366 -0.0478
  518DG     C1111902   4.255   4.492   0.108  0.0446 -0.8853  0.3324
  518DG     C1211903   3.973   4.387  -0.200  0.7798  0.6960 -0.7892
  518DG     H1311904   4.168   4.558   0.110 -0.1397 -1.1354  0.5896
  518DG     H1411905   4.234   4.405   0.170  0.3651  0.1659  1.9649
  518DG     H1511906   3.902   4.446  -0.257 -1.5095  1.2756  2.3779
  518DG     H1611907   3.977   4.293  -0.256  0.5076 -0.1243  0.5261
  518DG     C1711908   4.288   4.439  -0.030 -0.3465  0.0783 -0.2921
  518DG     C1811909   4.103   4.463  -0.182 -0.2162 -0.4309  0.3705
  518DG     O1911910   4.178   4.378  -0.099 -0.6946  0.6113  0.3307
  518DG     H2011911   4.363   4.361  -0.014  1.3122  1.2967 -1.8076
  518DG     H2111912   4.333   4.520  -0.086 -1.3866  0.2615 -0.8889
  518DG     H2211913   4.151   4.481  -0.278  0.1338 -2.6178  0.0933
  518DG     H2311914   4.092   4.559  -0.131 -2.6816  0.5332 -1.7765
  519DG      C111915   3.576   5.053   1.605  0.5236 -0.2275 -0.0208
  519DG      C211916   2.902   5.214   1.798  0.1929 -0.2016 -0.1964
  519DG      H311917   3.661   5.024   1.544 -0.4779 -4.3721  0.2249
  519DG      H411918   3.494   4.983   1.589 -0.5855 -0.4046  4.7918
  519DG      H511919   3.609   5.057   1.709 -0.2757  2.3014  0.1934
  519DG      H611920   2.919   5.208   1.905 -1.6243 -0.1655  0.1417
  519DG      H711921   2.872   5.313   1.762  0.6646 -0.6169 -1.8333
  519DG      H811922   2.809   5.157   1.788  0.8110 -1.5947  1.5835
  519DG      O911923   3.535   5.188   1.580  0.3838  0.4071 -0.2286
  519DG     O1011924   3.011   5.152   1.737  0.1744 -0.3690  0.4699
  519DG     C1111925   3.441   5.229   1.677  0.2729 -0.2681 -0.6263
  519DG     C1211926   2.995   5.154   1.599 -0.3711 -0.1366  0.2863
  519DG     H1311927   3.434   5.336   1.658 -2.0464  0.3871  2.8511
  519DG     H1411928   3.491   5.227   1.774 -0.5344  1.2538 -0.1345
  519DG     H1511929   2.982   5.253   1.555 -2.0501  0.1654  1.3756
  519DG     H1611930   2.907   5.097   1.568  0.0316 -0.3203 -0.5487
  519DG     C1711931   3.306   5.156   1.676 -0.1339 -0.8337 -0.7176
  519DG     C1811932   3.121   5.092   1.534 -0.0463  0.5015  0.7763
  519DG     O1911933   3.237   5.175   1.551 -0.8026 -0.4414 -0.4500
  519DG     H2011934   3.246   5.199   1.757  0.9390 -1.1235  0.2585
  519DG     H2111935   3.328   5.054   1.706 -0.6795 -1.0188 -0.9441
  519DG     H2211936   3.147   4.994   1.573 -1.6077  0.1445  1.0172
  519DG     H2311937   3.097   5.086   1.428  2.7645  0.5710  0.0632
  520DG      C111938   3.065   1.278   5.474 -0.0484 -0.5164 -0.1969
  520DG      C211939   2.444   1.338   5.973 -0.1834 -0.0434 -0.2045
  520DG      H311940   3.168   1.289   5.438 -0.1456  0.8074 -0.1426
  520DG      H411941   3.001   1.280   5.386  0.0346 -0.0170 -0.2503
  520DG      H511942   3.056   1.181   5.522  0.2416 -0.8955 -0.8895
  520DG      H611943   2.461   1.233   5.995 -0.0890 -0.0389 -0.2541
  520DG      H711944   2.429   1.388   6.069  1.1012  1.1599 -0.5855
  520DG      H811945   2.361   1.347   5.903 -0.0340  0.0472 -0.3714
  520DG      O911946   3.031   1.378   5.568 -0.0324 -0.0465  0.4230
  520DG     O1011947   2.557   1.392   5.905  0.3236  0.0326  0.3327
  520DG     C1111948   2.894   1.409   5.582 -0.6232 -0.0031 -0.8946
  520DG     C1211949   2.669   1.399   5.998 -0.1886 -0.3922  0.7932
  520DG     H1311950   2.828   1.322   5.586 -0.0252 -0.5817 -2.5023
  520DG     H1411951   2.861   1.464   5.493 -1.3439  0.9725 -0.0480
  520DG     H1511952   2.699   1.296   6.016 -0.3336 -0.8626 -1.4059
  520DG     H1611953   2.644   1.460   6.085  0.6733  0.8130  0.2275
  520DG     C1711954   2.880   1.488   5.713 -0.3417  0.2027  0.4234
  520DG     C1811955   2.788   1.468   5.930 -0.1476  0.3473  0.2590
  520DG     O1911956   2.814   1.405   5.804  0.3200 -0.1631 -0.7211
  520DG     H2011957   2.829   1.583   5.699  0.3595  0.9385  2.3942
  520DG     H2111958   2.981   1.510   5.748  0.6561 -1.1130 -1.4242
  520DG     H2211959   2.763   1.574   5.924  0.0389  0.4567  1.3394
  520DG     H2311960   2.884   1.457   5.980  0.0824 -0.1288 -0.2641
  521DG      C111961   3.651   2.636   2.374 -0.2990  0.4751 -0.6082
  521DG      C211962   3.290   3.170   2.025 -0.1985  0.0034  0.3460
  521DG      H311963   3.548   2.622   2.408 -0.0240 -0.0033  0.0493
  521DG      H411964   3.704   2.671   2.462  0.6705 -2.1909 -0.0161
  521DG      H511965   3.682   2.531   2.371 -2.1672 -0.2435  2.0271
  521DG      H611966   3.327   3.271   2.004  0.9391 -0.3777  0.4615
  521DG      H711967   3.259   3.123   1.932 -1.6644  1.3867  0.0873
  521DG      H811968   3.198   3.184   2.082 -0.6557  2.8448 -0.8931
  521DG      O911969   3.664   2.717   2.258 -0.1948 -0.7440  0.5551
  521DG     O1011970   3.380   3.087   2.094 -0.8941  0.3232 -0.5222
  521DG     C1111971   3.795   2.764   2.238 -0.4346 -0.5487  0.0663
  521DG     C1211972   3.514   3.085   2.052  0.4109 -0.0181  0.4273
  521DG     H1311973   3.876   2.691   2.235  0.2600  0.2338 -1.0327
  521DG     H1411974   3.820   2.826   2.323 -1.6603 -4.0270  3.2271
  521DG     H1511975   3.571   3.172   2.084  0.2859  0.3424 -0.3140
  521DG     H1611976   3.520   3.074   1.944 -0.4731 -0.5544  0.4290
  521DG     C1711977   3.785   2.838   2.099  0.0075  0.1311 -0.3271
  521DG     C1811978   3.571   2.953   2.109  0.0293  0.3133  0.7407
  521DG     O1911979   3.715   2.957   2.094  0.3391 -0.5747 -0.2325
  521DG     H2011980   3.746   2.769   2.024 -0.6680 -0.9361  0.9637
  521DG     H2111981   3.891   2.857   2.078  0.8018 -0.8153  2.3869
  521DG     H2211982   3.551   2.946   2.216 -0.5998 -1.1849  0.5449
  521DG     H2311983   3.525   2.869   2.057 -0.9927  0.0039  2.0705
  522DG      C111984   4.038   1.487   4.907  0.2029 -0.0864 -0.4766
  522DG      C211985   4.523   1.157   4.486  0.2045 -0.3941 -0.0296
  522DG      H311986   3.986   1.582   4.918  0.8072  0.2685 -0.6632
  522DG      H411987   3.965   1.406   4.917 -0.7048  0.6790 -0.7987
  522DG      H511988   4.076   1.481   4.805 -0.8813 -0.6181 -0.8717
  522DG      H611989   4.629   1.175   4.496 -0.1748  1.5251  0.8980
  522DG      H711990   4.494   1.056   4.517  1.5281 -0.4594  1.0358
  522DG      H811991   4.499   1.163   4.379  0.0139 -2.6950 -0.1849
  522DG      O911992   4.157   1.464   4.986  0.4426  0.9016 -0.5412
  522DG     O1011993   4.446   1.262   4.541 -0.0378 -0.1672 -0.3012
  522DG     C1111994   4.246   1.576   4.981 -0.3374  0.3310 -0.4288
  522DG     C1211995   4.458   1.284   4.679 -0.1253 -0.2212 -0.2250
  522DG     H1311996   4.315   1.569   5.066 -1.3101  0.5505  0.4071
  522DG     H1411997   4.185   1.666   4.979 -1.9637 -0.6744  0.5961
  522DG     H1511998   4.559   1.267   4.716 -0.5580  0.2239  1.2059
  522DG     H1611999   4.394   1.218   4.737  0.6499 -0.1594  0.7255
  522DG     C1712000   4.338   1.576   4.867 -0.0673 -0.6273 -0.2824
  522DG     C1812001   4.419   1.425   4.707  0.6698 -0.6207 -0.6544
  522DG     O1912002   4.365   1.437   4.837  0.4585 -0.1752 -0.0707
  522DG     H2012003   4.431   1.626   4.895  0.6370 -2.6727  1.3536
  522DG     H2112004   4.295   1.629   4.783  1.7678  0.7245 -0.4340
  522DG     H2212005   4.495   1.503   4.699 -0.8820  1.1756  1.0729
  522DG     H2312006   4.345   1.456   4.633 -0.2788  0.0336  0.5333
  523DG      C112007   4.370   2.156   5.360  0.2685  0.6065  0.5671
  523DG      C212008   3.911   2.193   4.696 -0.3016 -0.7174 -0.2880
  523DG      H312009   4.367   2.213   5.453 -1.0614 -0.1276  0.9945
  523DG      H412010   4.429   2.203   5.281 -2.2978 -0.3370 -2.0640
  523DG      H512011   4.429   2.068   5.384 -1.5430 -0.2215  2.2936
  523DG      H612012   3.961   2.145   4.612 -0.0903 -0.3900 -0.3516
  523DG      H712013   3.805   2.183   4.671 -0.4020 -2.3039  0.6518
  523DG      H812014   3.938   2.299   4.698 -0.0014 -0.7743  2.1774
  523DG      O912015   4.236   2.132   5.308 -0.1704  0.5139  0.2951
  523DG     O1012016   3.933   2.133   4.824  0.4868 -0.4768 -0.4069
  523DG     C1112017   4.237   2.037   5.198  0.7209  0.0601  1.2122
  523DG     C1212018   3.949   1.993   4.826  0.5214 -0.2340 -0.0206
  523DG     H1312019   4.286   1.945   5.231  0.7704 -0.0041  0.9639
  523DG     H1412020   4.305   2.078   5.124  0.8519  0.6728  1.6698
  523DG     H1512021   4.035   1.960   4.766  0.0188  0.2591 -1.0437
  523DG     H1612022   3.863   1.943   4.781  1.3861  0.9839 -3.3000
  523DG     C1712023   4.095   2.017   5.153  0.6446 -0.5316  0.0410
  523DG     C1812024   3.958   1.936   4.970 -0.8230  0.5461  0.3148
  523DG     O1912025   4.087   1.972   5.020  0.2301 -0.2240 -0.3622
  523DG     H2012026   4.045   2.114   5.147  0.1798 -0.8541 -2.5263
  523DG     H2112027   4.036   1.956   5.222  1.4566 -1.4316 -0.0401
  523DG     H2212028   3.880   1.985   5.027 -0.1697  0.6984  1.1073
  523DG     H2312029   3.962   1.827   4.964  1.4072  0.6405 -1.3167
  524DG      C112030   2.127   4.073   2.581  0.1042 -0.2077 -0.4802
  524DG      C212031   2.479   3.505   2.187  0.8100  0.4190 -0.2532
  524DG      H312032   2.020   4.060   2.565  0.3991 -1.0857 -1.9814
  524DG      H412033   2.158   4.172   2.545 -1.4991 -0.0334 -1.4769
  524DG      H512034   2.158   4.082   2.685  1.1139  1.7840 -0.8905
  524DG      H612035   2.391   3.452   2.150  1.0029 -2.0503  2.4334
  524DG      H712036   2.541   3.530   2.102  0.7278  0.9144 -0.1744
  524DG      H812037   2.530   3.437   2.255 -0.7505  0.1177  0.6954
  524DG      O912038   2.205   3.978   2.518  0.5356  0.3952  0.1714
  524DG     O1012039   2.435   3.613   2.259 -0.1219 -0.5326 -0.4379
  524DG     C1112040   2.191   3.974   2.379 -0.0788  0.3469  0.5796
  524DG     C1212041   2.537   3.671   2.335 -0.3407  0.1401 -0.0571
  524DG     H1312042   2.230   4.070   2.345  1.2980 -0.0529  0.9629
  524DG     H1412043   2.087   3.964   2.349  0.2949 -1.3253 -0.2381
  524DG     H1512044   2.623   3.714   2.283  0.4178  2.5421  2.9259
  524DG     H1612045   2.570   3.601   2.412 -0.7854  1.0587  0.9881
  524DG     C1712046   2.272   3.868   2.307 -0.2401 -0.1555 -0.6435
  524DG     C1812047   2.479   3.787   2.413  0.3722  0.0964 -0.0536
  524DG     O1912048   2.414   3.882   2.333 -0.3644 -0.1780  0.4209
  524DG     H2012049   2.264   3.889   2.200  0.8967  2.8233 -0.2204
  524DG     H2112050   2.244   3.769   2.344  0.8677 -0.3492 -0.2750
  524DG     H2212051   2.413   3.757   2.495 -0.2727 -1.5280 -1.1182
  524DG     H2312052   2.562   3.840   2.460  0.9003  0.6330 -1.5371
  525DG      C112053   3.792   1.709   5.166 -0.2888  0.0559 -0.6527
  525DG      C212054   3.950   1.249   5.719  0.1054  0.2488  0.2835
  525DG      H312055   3.737   1.799   5.137 -0.8671 -0.3692 -0.8928
  525DG      H412056   3.790   1.641   5.081  0.0697 -2.5280  1.2985
  525DG      H512057   3.897   1.732   5.182 -0.4589 -0.0299  0.6959
  525DG      H612058   3.952   1.210   5.617  0.5422 -2.3910  1.2371
  525DG      H712059   4.052   1.282   5.736  0.2398 -0.0696  0.1070
  525DG      H812060   3.921   1.172   5.791  0.0487  1.2615  1.3689
  525DG      O912061   3.728   1.643   5.272 -0.0435  0.7252 -0.5673
  525DG     O1012062   3.847   1.347   5.729  0.0329  0.3582 -0.1353
  525DG     C1112063   3.719   1.717   5.391 -0.0802 -0.2229 -0.9635
  525DG     C1212064   3.730   1.318   5.645 -0.0514 -0.3103 -0.4131
  525DG     H1312065   3.665   1.807   5.363 -0.7645  0.0588  1.0919
  525DG     H1412066   3.814   1.752   5.434 -1.3874 -0.2814  2.2477
  525DG     H1512067   3.680   1.224   5.667  0.7422 -0.7042 -0.2579
  525DG     H1612068   3.767   1.306   5.543  3.0609 -1.6088  0.7222
  525DG     C1712069   3.649   1.644   5.507 -0.7885  0.3123  0.5031
  525DG     C1812070   3.640   1.446   5.643 -0.3406  1.2920 -0.1157
  525DG     O1912071   3.717   1.527   5.557  0.4986  0.2145 -0.0779
  525DG     H2012072   3.555   1.611   5.462 -2.2660  3.3412  1.1366
  525DG     H2112073   3.630   1.712   5.590  0.4017  1.7276 -0.3529
  525DG     H2212074   3.546   1.426   5.593  0.5409 -0.1531 -1.2971
  525DG     H2312075   3.613   1.490   5.739  1.0225 -1.5744  1.7481
  526DG      C112076   3.766   5.020   2.678  0.0342  0.1039  0.5555
  526DG      C212077   3.080   4.664   2.626  0.2530 -0.4394  0.3656
  526DG      H312078   3.752   5.119   2.721 -0.8570  0.0252  0.4684
  526DG      H412079   3.715   5.024   2.581  1.4048 -1.6000 -0.2786
  526DG      H512080   3.873   5.007   2.663  0.1468  1.4930 -0.0931
  526DG      H612081   3.095   4.590   2.547 -0.7566  0.0799 -0.3269
  526DG      H712082   3.031   4.603   2.702 -0.9499  0.4803  0.3514
  526DG      H812083   3.012   4.735   2.580  1.0956  0.6508  0.7662
  526DG      O912084   3.716   4.918   2.767  0.1482 -0.6809  0.4824
  526DG     O1012085   3.192   4.735   2.677 -0.1676  0.3546  0.2424
  526DG     C1112086   3.574   4.910   2.747 -0.4777  0.7728 -0.0837
  526DG     C1212087   3.165   4.795   2.804  0.3854 -0.1843  0.0494
  526DG     H1312088   3.564   4.849   2.658  1.0535 -0.5887  0.6183
  526DG     H1412089   3.535   5.012   2.740  0.4027  1.3335  2.1371
  526DG     H1512090   3.148   4.704   2.860  0.6622  0.0486  0.5145
  526DG     H1612091   3.074   4.855   2.810 -0.5579 -1.6945  1.9665
  526DG     C1712092   3.533   4.830   2.871  0.5415 -0.5075 -0.5689
  526DG     C1812093   3.290   4.855   2.857 -0.1584 -0.3323  0.2300
  526DG     O1912094   3.406   4.770   2.841 -0.1491  0.7011  0.0732
  526DG     H2012095   3.539   4.895   2.959 -3.6309 -0.5536 -0.0527
  526DG     H2112096   3.602   4.746   2.881  0.5855 -0.4929 -0.7475
  526DG     H2212097   3.312   4.954   2.815  1.1239 -0.4962  0.4787
  526DG     H2312098   3.279   4.870   2.965  2.0185 -0.7483  0.5605
  527DG      C112099   3.559   1.159   4.310  0.2793  0.1016 -0.2032
  527DG      C212100   2.989   1.368   4.091 -0.0186 -0.0112 -0.2407
  527DG      H312101   3.667   1.173   4.302  0.3647 -0.7901 -0.7964
  527DG      H412102   3.529   1.081   4.239 -0.5998 -0.0169  0.2905
  527DG      H512103   3.553   1.117   4.410 -0.8894  0.2664 -0.1958
  527DG      H612104   3.014   1.283   4.028  2.3053  0.1681  0.3220
  527DG      H712105   2.927   1.340   4.176  0.1415 -1.4528 -0.5707
  527DG      H812106   2.936   1.439   4.028 -0.8121 -0.5814 -0.2249
  527DG      O912107   3.497   1.283   4.284 -0.0431  0.2837 -0.3106
  527DG     O1012108   3.115   1.418   4.132  0.2077 -0.2509 -0.1699
  527DG     C1112109   3.515   1.376   4.388 -0.0258  0.1316  0.4253
  527DG     C1212110   3.109   1.539   4.198  0.1923 -0.4711  0.2152
  527DG     H1312111   3.616   1.413   4.409  0.0281  0.0971  0.2303
  527DG     H1412112   3.483   1.337   4.484 -1.7827  1.7871  0.5680
  527DG     H1512113   3.032   1.547   4.274 -0.7605  2.4792 -0.9118
  527DG     H1612114   3.068   1.618   4.135 -3.7610 -3.0719 -0.8037
  527DG     C1712115   3.441   1.497   4.341  0.1124 -0.2896 -0.1940
  527DG     C1812116   3.250   1.582   4.238 -0.2748 -0.4256  0.8298
  527DG     O1912117   3.308   1.469   4.302 -0.7539 -0.8628  0.0050
  527DG     H2012118   3.493   1.536   4.254  0.3415 -0.2595 -0.0459
  527DG     H2112119   3.451   1.582   4.409  0.9438 -0.0238 -0.6294
  527DG     H2212120   3.304   1.616   4.150 -1.0380  2.0336  1.2331
  527DG     H2312121   3.239   1.671   4.300 -3.7817  2.5387 -3.3979
  528DG      C112122   3.337   2.644   0.358 -0.4412 -0.1712  0.6954
  528DG      C212123   3.304   2.296   0.913 -0.3433  0.2178 -0.0173
  528DG      H312124   3.292   2.702   0.277 -1.8145  1.3895  2.5007
  528DG      H412125   3.426   2.596   0.316 -0.8690 -1.5210  1.2817
  528DG      H512126   3.378   2.716   0.429  0.6128  0.3857 -0.4283
  528DG      H612127   3.404   2.339   0.920 -0.6067  0.7066  1.0171
  528DG      H712128   3.232   2.371   0.946 -1.4169  0.0872 -1.9119
  528DG      H812129   3.289   2.196   0.955 -2.7186  0.3673 -0.3755
  528DG      O912130   3.265   2.546   0.426  0.6408  0.2157  0.0734
  528DG     O1012131   3.262   2.275   0.779  0.0696  0.3894 -0.3741
  528DG     C1112132   3.219   2.444   0.332 -0.0222  1.1876  0.5623
  528DG     C1212133   3.326   2.161   0.715  0.2844 -1.2692  0.2323
  528DG     H1312134   3.307   2.415   0.275  0.5777  1.9283  1.0950
  528DG     H1412135   3.151   2.480   0.254  1.5434 -0.6162 -1.7748
  528DG     H1512136   3.303   2.070   0.769  0.6931 -0.7937  1.2402
  528DG     H1612137   3.434   2.175   0.706 -0.1502  1.9638 -1.9975
  528DG     C1712138   3.177   2.316   0.411  0.0553 -0.1084  0.5347
  528DG     C1812139   3.247   2.158   0.581  0.1888 -0.3356 -0.4096
  528DG     O1912140   3.280   2.282   0.510  0.0714 -0.1418 -0.4880
  528DG     H2012141   3.172   2.229   0.346  2.3009 -0.0863  0.2401
  528DG     H2112142   3.082   2.333   0.461  0.0099 -1.2205  0.8410
  528DG     H2212143   3.272   2.073   0.518 -0.7959  0.3271 -1.7314
  528DG     H2312144   3.142   2.163   0.608  0.1499  1.8632 -0.8012
  529DG      C112145   2.952   4.992   2.469  0.2014 -0.5188  0.4623
  529DG      C212146   2.975   5.400   2.713  0.0689 -0.1925 -0.1325
  529DG      H312147   2.922   4.893   2.435 -3.1672  0.6884 -0.4619
  529DG      H412148   3.048   4.985   2.521  1.7295  1.9026 -1.7796
  529DG      H512149   2.971   5.058   2.384  0.3207 -1.9775 -0.6909
  529DG      H612150   2.988   5.477   2.636 -0.9673 -2.2430 -2.4942
  529DG      H712151   3.053   5.407   2.789 -0.4143 -1.4055  0.5043
  529DG      H812152   2.996   5.306   2.661 -2.1484 -0.1887 -1.1370
  529DG      O912153   2.844   5.036   2.549  0.5748 -0.0938 -0.0678
  529DG     O1012154   2.846   5.391   2.769 -0.0165  0.1369  0.3360
  529DG     C1112155   2.812   4.937   2.645  0.0525  0.1208 -0.2725
  529DG     C1212156   2.840   5.312   2.884  0.1990 -0.1922 -1.0299
  529DG     H1312157   2.902   4.922   2.704 -0.9258 -0.9844  1.0165
  529DG     H1412158   2.781   4.838   2.610  1.2690 -0.4803  0.2741
  529DG     H1512159   2.749   5.327   2.943 -0.1955  1.3940 -1.9806
  529DG     H1612160   2.923   5.332   2.952  0.2774 -1.9226 -0.5677
  529DG     C1712161   2.699   4.997   2.727 -0.4492  0.2600  0.2719
  529DG     C1812162   2.836   5.158   2.856  0.0454  0.3734  0.4453
  529DG     O1912163   2.727   5.130   2.775 -0.4278  0.9369  0.0011
  529DG     H2012164   2.669   4.934   2.810 -1.0212 -0.6635 -0.6048
  529DG     H2112165   2.614   5.013   2.661 -0.2745 -0.4698 -0.1466
  529DG     H2212166   2.927   5.116   2.813  0.2968  0.5093  0.8374
  529DG     H2312167   2.821   5.099   2.946 -1.0295 -1.2277 -0.7316
  530DG      C112168   2.995   0.903   0.795 -0.4777 -0.4947 -0.7169
  530DG      C212169   3.188   1.415   0.502 -0.5785 -0.1161 -0.5193
  530DG      H312170   2.991   0.810   0.853 -1.1438  0.8746  1.5751
  530DG      H412171   3.031   0.895   0.693  0.6479  2.8949 -0.7002
  530DG      H512172   2.887   0.917   0.789 -0.6001  0.1929  1.8451
  530DG      H612173   3.232   1.515   0.508  1.5313 -0.9669 -0.8092
  530DG      H712174   3.261   1.351   0.452  0.3860  0.4557  0.1204
  530DG      H812175   3.095   1.410   0.446 -0.2034  0.8831 -1.2576
  530DG      O912176   3.051   1.015   0.869  0.3473  0.6805 -0.1835
  530DG     O1012177   3.159   1.369   0.632  0.3900  0.3505 -0.3848
  530DG     C1112178   2.961   1.076   0.955  0.9617  0.4603 -0.0881
  530DG     C1212179   3.079   1.454   0.712 -0.4271  0.2681  0.3537
  530DG     H1312180   2.965   1.020   1.049  2.1410 -2.3594 -1.7113
  530DG     H1412181   2.860   1.077   0.912  0.1110  0.1387  1.7787
  530DG     H1512182   2.985   1.460   0.658 -0.8840 -3.7722  0.3625
  530DG     H1612183   3.119   1.553   0.733  0.3789 -0.1615  0.9514
  530DG     C1712184   2.994   1.214   0.986  0.0219 -0.2710 -0.6971
  530DG     C1812185   3.041   1.398   0.852  0.1895 -0.0768  0.8495
  530DG     O1912186   3.032   1.259   0.856 -0.4163 -0.4995  0.1837
  530DG     H2012187   3.080   1.222   1.053 -0.5975 -0.1036  0.0858
  530DG     H2112188   2.906   1.255   1.035  0.4945 -1.0236  0.8601
  530DG     H2212189   3.123   1.429   0.917  0.0395  0.8212  0.6213
  530DG     H2312190   2.947   1.447   0.878 -0.7671 -0.4532 -1.6323
  531DG      C112191   5.336   4.413   2.356  0.5321  0.1864 -0.4976
  531DG      C212192   5.489   4.364   2.006 -0.1734  0.0413 -0.2992
  531DG      H312193   5.353   4.457   2.258  1.2082 -0.6139 -0.7544
  531DG      H412194   5.408   4.447   2.430  0.3699 -3.4411  1.5665
  531DG      H512195   5.241   4.445   2.399 -0.0910  0.5679 -2.0693
  531DG      H612196   5.454   4.375   2.109 -1.7802 -0.7978 -0.7256
  531DG      H712197   5.473   4.456   1.951  0.9870 -0.2903 -1.2346
  531DG      H812198   5.430   4.286   1.958  1.9438 -1.0899 -1.1946
  531DG      O912199   5.358   4.271   2.347  0.5099  0.1099 -0.1188
  531DG     O1012200   5.622   4.338   2.006  0.6686  0.2174 -0.2256
  531DG     C1112201   5.489   4.232   2.374  0.4279 -1.2440  0.2903
  531DG     C1212202   5.661   4.201   1.993 -0.3307 -0.5752  0.0455
  531DG     H1312203   5.498   4.235   2.483 -1.8157  0.5248  0.5124
  531DG     H1412204   5.557   4.309   2.337 -1.9516  0.5338 -0.6241
  531DG     H1512205   5.763   4.201   1.955 -0.8927  0.2560 -1.5484
  531DG     H1612206   5.600   4.151   1.918 -1.6586  1.7188 -0.5151
  531DG     C1712207   5.515   4.097   2.308 -0.0136  0.3129 -0.8506
  531DG     C1812208   5.660   4.127   2.126  0.8479 -0.2551 -0.3737
  531DG     O1912209   5.524   4.119   2.168  0.1848  0.2162  0.4657
  531DG     H2012210   5.429   4.034   2.327 -0.5185  1.3643  0.4756
  531DG     H2112211   5.597   4.040   2.352  0.3408 -0.0215 -1.9128
  531DG     H2212212   5.706   4.029   2.113  0.8535 -0.6953  2.3800
  531DG     H2312213   5.712   4.190   2.199 -0.0848 -0.0705  0.1386
  532DG      C112214   5.325   2.032   4.056  0.6092 -0.0795  0.5548
  532DG      C212215   6.078   2.256   3.762  0.1047  0.5997 -0.5502
  532DG      H312216   5.253   1.953   4.077  0.8879 -0.2479  0.8899
  532DG      H412217   5.288   2.082   3.967 -1.2450 -0.1275  1.2462
  532DG      H512218   5.324   2.105   4.137 -0.0742  0.6035 -0.0566
  532DG      H612219   6.166   2.287   3.818 -0.0432  1.1248 -0.6045
  532DG      H712220   6.121   2.176   3.701  0.0897 -0.6310  0.9895
  532DG      H812221   6.056   2.341   3.698  0.2074  1.3164  0.3482
  532DG      O912222   5.462   1.976   4.034  0.0623 -0.4845  0.6578
  532DG     O1012223   5.968   2.200   3.837 -0.2366 -0.1425  0.1702
  532DG     C1112224   5.557   2.081   4.032 -0.3750  0.3339 -0.8357
  532DG     C1212225   6.015   2.146   3.967 -0.1663 -0.3427  0.4602
  532DG     H1312226   5.546   2.139   4.123  5.1356  0.7592 -0.1258
  532DG     H1412227   5.543   2.149   3.947 -0.0547  0.3395 -0.8856
  532DG     H1512228   6.052   2.218   4.040  3.6507 -1.8269  0.1701
  532DG     H1612229   6.109   2.097   3.942 -0.5735 -0.2926 -1.3606
  532DG     C1712230   5.686   2.011   4.046 -0.2399 -0.2023 -0.6812
  532DG     C1812231   5.914   2.052   4.027 -0.5294  0.0846 -0.5519
  532DG     O1912232   5.786   2.116   4.046 -0.1019  0.3131  0.5746
  532DG     H2012233   5.689   1.940   3.964 -2.1949 -2.1956  0.8630
  532DG     H2112234   5.688   1.961   4.142 -0.0483  2.3515  0.7270
  532DG     H2212235   5.919   1.965   3.961 -1.9149  0.5327 -1.2824
  532DG     H2312236   5.934   2.016   4.128 -4.0192 -2.7662 -0.6474
  533DG      C112237   3.050   4.897   3.355 -0.0995  0.3548 -0.1538
  533DG      C212238   2.977   4.299   3.135 -0.1043  0.1089  0.3663
  533DG      H312239   3.152   4.927   3.330  0.2772 -0.7762 -0.0372
  533DG      H412240   3.062   4.830   3.441 -0.1766  0.4140 -0.0959
  533DG      H512241   2.990   4.985   3.374 -0.6150 -0.1504  0.6326
  533DG      H612242   2.985   4.218   3.063 -1.4977  0.7601 -0.5538
  533DG      H712243   3.079   4.334   3.151  0.5592 -1.2642 -0.6544
  533DG      H812244   2.944   4.258   3.231 -2.0461 -0.8704 -0.6511
  533DG      O912245   2.992   4.813   3.254  0.5702  0.5548 -0.3390
  533DG     O1012246   2.896   4.411   3.089 -0.3188 -0.5248  0.1803
  533DG     C1112247   2.970   4.878   3.132  0.2251 -0.6527  0.1041
  533DG     C1212248   2.913   4.452   2.952 -0.5725 -0.6130 -0.7850
  533DG     H1312249   3.072   4.887   3.094  0.6396  2.5390  1.6504
  533DG     H1412250   2.932   4.980   3.137 -0.5107 -0.8722 -0.8387
  533DG     H1512251   2.867   4.374   2.893  1.2841 -1.5693 -1.0318
  533DG     H1612252   3.022   4.454   2.941 -0.6865 -0.5862 -1.9794
  533DG     C1712253   2.878   4.799   3.044 -0.1135  0.5832  0.0623
  533DG     C1812254   2.837   4.586   2.939 -0.0774 -0.3143 -0.4472
  533DG     O1912255   2.899   4.663   3.044 -0.0801  0.0723  0.1007
  533DG     H2012256   2.888   4.853   2.950  2.4534  0.6826  0.3195
  533DG     H2112257   2.775   4.818   3.074 -1.2772 -2.6938 -1.3565
  533DG     H2212258   2.844   4.635   2.842  1.1952 -0.8895 -0.6597
  533DG     H2312259   2.737   4.570   2.979 -0.5094  0.4021 -1.2184
  534DG      C112260   0.815   4.952   1.467 -0.4205  0.0657  0.4397
  534DG      C212261   1.267   4.565   1.069 -0.6336  0.4713 -0.1004
  534DG      H312262   0.775   5.006   1.381 -0.1051 -0.1101  0.1804
  534DG      H412263   0.807   5.028   1.545 -2.3125 -1.1796  1.5000
  534DG      H512264   0.746   4.870   1.482  0.1083 -0.7882 -1.4037
  534DG      H612265   1.224   4.465   1.064  1.7856 -0.5589 -2.1284
  534DG      H712266   1.236   4.625   0.984  1.1461  1.6049 -0.0040
  534DG      H812267   1.374   4.555   1.050 -0.0929  1.8908  1.8271
  534DG      O912268   0.952   4.932   1.438 -0.2401  0.3757 -0.3999
  534DG     O1012269   1.232   4.630   1.193 -0.3624  0.6317 -0.2024
  534DG     C1112270   1.010   4.869   1.553 -0.3470  0.4517  0.2192
  534DG     C1212271   1.292   4.762   1.199  0.2917  0.4183  0.5387
  534DG     H1312272   0.962   4.772   1.568 -0.0324  0.1335 -0.7192
  534DG     H1412273   0.991   4.918   1.648  1.8920 -1.2440  1.6474
  534DG     H1512274   1.233   4.830   1.137  0.2950 -0.3220 -0.2934
  534DG     H1612275   1.390   4.778   1.154  0.4192  0.7565  0.9359
  534DG     C1712276   1.156   4.855   1.522  0.2866  0.4750  0.0981
  534DG     C1812277   1.304   4.805   1.343  0.0596  0.0210  0.2245
  534DG     O1912278   1.176   4.793   1.398 -0.3414 -0.3390  0.2574
  534DG     H2012279   1.205   4.795   1.599 -0.2115  0.1094  0.1380
  534DG     H2112280   1.209   4.950   1.524  1.5521 -0.1259 -1.7703
  534DG     H2212281   1.367   4.741   1.404 -0.3620  0.1321  0.7811
  534DG     H2312282   1.354   4.902   1.349  2.0979 -0.9977  0.3955
  535DG      C112283   3.909   0.401   3.354 -0.2982 -0.8260  0.3198
  535DG      C212284   3.750  -0.214   3.727 -0.4421  0.0773 -0.2630
  535DG      H312285   3.992   0.465   3.322 -0.2906 -0.7924  0.4069
  535DG      H412286   3.902   0.423   3.460  0.5290 -0.0437  0.2247
  535DG      H512287   3.826   0.438   3.294  0.9787  0.0717 -0.9861
  535DG      H612288   3.667  -0.143   3.720  0.5937  1.2321 -1.4277
  535DG      H712289   3.725  -0.319   3.718 -1.6727  0.4156 -0.9819
  535DG      H812290   3.783  -0.200   3.830 -3.1601 -0.5523  0.7858
  535DG      O912291   3.913   0.264   3.347  0.1764  0.0708  0.2094
  535DG     O1012292   3.856  -0.178   3.640 -0.1209 -0.1460 -0.0614
  535DG     C1112293   4.045   0.203   3.345  0.1542 -0.0108  0.3845
  535DG     C1212294   3.817  -0.201   3.502 -0.4448  0.3581 -0.7571
  535DG     H1312295   4.103   0.221   3.435 -0.1408 -1.4883  0.8961
  535DG     H1412296   4.105   0.234   3.259  1.1146  0.8402  1.3316
  535DG     H1512297   3.731  -0.139   3.475  0.4130  1.3882 -1.2188
  535DG     H1612298   3.782  -0.303   3.490  1.0498 -0.6127  2.0195
  535DG     C1712299   4.030   0.050   3.334 -0.5487  0.1072  0.5063
  535DG     C1812300   3.929  -0.154   3.416 -0.0218  0.3546 -0.2918
  535DG     O1912301   3.952  -0.009   3.440  0.4501 -0.0157 -0.0416
  535DG     H2012302   4.132   0.013   3.339 -0.5261  0.1112  0.1274
  535DG     H2112303   3.980   0.031   3.239  0.8403 -0.8539 -0.0666
  535DG     H2212304   4.013  -0.222   3.426  0.1271  0.6231  0.3207
  535DG     H2312305   3.893  -0.165   3.313  1.3477 -1.8162 -0.5885
  536DG      C112306   2.700   0.108   0.467 -1.0349 -0.0781  0.6701
  536DG      C212307   2.506  -0.401   0.961 -0.0971 -0.2705 -0.2107
  536DG      H312308   2.608   0.067   0.423  0.6383 -0.3228 -2.9772
  536DG      H412309   2.783   0.066   0.412  0.5527  0.9815  2.1575
  536DG      H512310   2.710   0.216   0.452  2.6883 -0.5134 -0.8748
  536DG      H612311   2.478  -0.432   1.061  0.4435  0.2049  0.0984
  536DG      H712312   2.417  -0.445   0.917  1.1972 -3.1507 -0.1380
  536DG      H812313   2.602  -0.447   0.936  1.1583  1.3992  1.2662
  536DG      O912314   2.714   0.084   0.600  0.1035  0.0440 -0.0496
  536DG     O1012315   2.511  -0.260   0.945 -0.1719 -0.0141  0.1420
  536DG     C1112316   2.606   0.144   0.666  0.1824  0.0605 -0.7899
  536DG     C1212317   2.617  -0.201   1.021 -0.7764  0.5318  0.3846
  536DG     H1312318   2.514   0.110   0.617 -0.9299  1.0812  0.5008
  536DG     H1412319   2.616   0.252   0.669 -1.7524  0.2780 -0.5775
  536DG     H1512320   2.710  -0.250   0.993 -0.6927 -0.2651  1.9170
  536DG     H1612321   2.606  -0.218   1.128 -0.6454  2.4983  0.7440
  536DG     C1712322   2.620   0.110   0.810 -0.8661  0.2036 -0.6433
  536DG     C1812323   2.623  -0.051   0.986 -0.8751  0.1622  0.5310
  536DG     O1912324   2.609  -0.025   0.842 -0.1771 -0.1506 -0.4202
  536DG     H2012325   2.543   0.154   0.874 -0.7761 -0.2083 -0.2439
  536DG     H2112326   2.718   0.149   0.838  0.0216 -1.8133 -0.8250
  536DG     H2212327   2.540  -0.001   1.035 -2.3484 -1.3691 -0.2985
  536DG     H2312328   2.716  -0.004   1.017 -1.3022  1.0786  0.4501
  537DG      C112329   2.988   5.372   0.875  0.1212  0.0899 -0.6328
  537DG      C212330   3.524   5.735   1.176  0.2349  0.3114 -0.7120
  537DG      H312331   3.046   5.330   0.794 -0.0627  0.5942 -1.0323
  537DG      H412332   2.962   5.474   0.845  0.4378 -0.3582 -2.5738
  537DG      H512333   2.892   5.322   0.866 -0.3848  0.7273  0.7945
  537DG      H612334   3.482   5.826   1.133 -1.6690 -1.0547 -1.8722
  537DG      H712335   3.579   5.750   1.269  0.7516 -0.0121 -0.9624
  537DG      H812336   3.589   5.687   1.103  0.0717  0.2468 -0.8148
  537DG      O912337   3.059   5.345   0.995 -0.2332 -0.0057  0.1803
  537DG     O1012338   3.412   5.659   1.202 -0.2541 -0.3884 -0.0797
  537DG     C1112339   2.996   5.388   1.111 -0.0158 -0.6631  0.1492
  537DG     C1212340   3.439   5.528   1.253 -0.2721 -0.5717  0.0034
  537DG     H1312341   2.912   5.323   1.135 -0.0238 -1.7623 -2.5162
  537DG     H1412342   2.966   5.493   1.106  2.2729 -0.0077 -1.6239
  537DG     H1512343   3.511   5.532   1.336 -0.1694 -1.4977 -0.0279
  537DG     H1612344   3.493   5.481   1.171  1.0036 -1.7370  1.4367
  537DG     C1712345   3.096   5.394   1.228  0.1913  0.1310  0.1732
  537DG     C1812346   3.310   5.460   1.300 -0.1531  0.5838  0.3952
  537DG     O1912347   3.206   5.472   1.194 -0.3704 -0.5846  0.0736
  537DG     H2012348   3.132   5.293   1.249  1.7146  0.9943  1.8994
  537DG     H2112349   3.051   5.438   1.317  1.9321 -0.9871  1.6683
  537DG     H2212350   3.328   5.359   1.337 -2.5421 -0.4335 -1.0184
  537DG     H2312351   3.287   5.506   1.396  1.6843 -0.9869  1.6640
  538DG      C112352   2.171   2.503   2.712 -0.4872  0.3199 -0.2775
  538DG      C212353   2.853   2.493   2.645 -0.2269 -0.1567 -0.5251
  538DG      H312354   2.193   2.528   2.608  1.8252  0.9894  0.3296
  538DG      H412355   2.164   2.604   2.751  0.6382 -0.1523  1.2047
  538DG      H512356   2.079   2.445   2.706  0.4247 -1.1868 -0.1298
  538DG      H612357   2.861   2.437   2.552  0.6818  2.5122 -2.1734
  538DG      H712358   2.821   2.596   2.631  1.3181  0.4512  0.1674
  538DG      H812359   2.952   2.511   2.689 -0.8265  1.3315  0.3026
  538DG      O912360   2.280   2.431   2.764  0.0972  0.5997  0.0138
  538DG     O1012361   2.757   2.437   2.728  0.3156  0.4663  0.1533
  538DG     C1112362   2.278   2.406   2.903  0.4807  0.3470 -0.2892
  538DG     C1212363   2.750   2.489   2.860  0.5161  0.2263  0.5966
  538DG     H1312364   2.204   2.336   2.939 -1.0426  2.2920  0.5405
  538DG     H1412365   2.259   2.503   2.949  0.0972  2.5738 -4.6436
  538DG     H1512366   2.712   2.592   2.854 -0.0891 -0.0893 -2.5611
  538DG     H1612367   2.848   2.496   2.907  1.0794  0.3682 -0.5612
  538DG     C1712368   2.415   2.361   2.945  0.5204  0.1120 -0.2109
  538DG     C1812369   2.645   2.405   2.934 -0.9440 -0.2230  0.2955
  538DG     O1912370   2.518   2.440   2.885  0.0145  0.3243 -0.1789
  538DG     H2012371   2.430   2.258   2.913 -0.1485 -0.0046 -0.1607
  538DG     H2112372   2.422   2.364   3.054  0.2089  2.4629 -0.1999
  538DG     H2212373   2.668   2.301   2.915  2.6666  0.5494 -0.2472
  538DG     H2312374   2.670   2.417   3.039  1.1792 -2.2443  0.0950
  539DG      C112375   2.104   2.372   0.682 -1.0014  0.2206 -0.1584
  539DG      C212376   2.772   2.308   0.555  0.3055  0.3643  0.5595
  539DG      H312377   2.053   2.303   0.749  0.1857 -0.5619 -0.0281
  539DG      H412378   2.111   2.337   0.580  0.1629 -1.2048  0.3762
  539DG      H512379   2.057   2.470   0.671 -0.5521  0.2033 -2.9847
  539DG      H612380   2.681   2.286   0.498 -0.6458  1.1729  1.7093
  539DG      H712381   2.826   2.384   0.499  0.7036  1.3354  2.1834
  539DG      H812382   2.827   2.217   0.579 -0.4050 -0.5039 -0.9457
  539DG      O912383   2.234   2.375   0.737  0.7198  0.1341  0.3899
  539DG     O1012384   2.728   2.379   0.673 -0.6522 -0.5563 -0.1878
  539DG     C1112385   2.256   2.464   0.844 -0.5164 -0.3317 -0.3217
  539DG     C1212386   2.689   2.289   0.775  0.1690  0.4905  0.7403
  539DG     H1312387   2.177   2.453   0.919 -0.4775  2.6843  0.2887
  539DG     H1412388   2.253   2.571   0.822  0.8645  0.6679  3.4216
  539DG     H1512389   2.777   2.259   0.832  0.3884 -0.0329  0.1333
  539DG     H1612390   2.645   2.198   0.733  1.0181  0.2384  0.3640
  539DG     C1712391   2.385   2.423   0.914  0.4805 -0.1110 -0.1752
  539DG     C1812392   2.612   2.363   0.881  0.6436  0.3494  0.1328
  539DG     O1912393   2.486   2.392   0.827 -0.4963  0.2998 -0.0409
  539DG     H2012394   2.368   2.321   0.949 -2.6077  0.1051 -0.7349
  539DG     H2112395   2.406   2.492   0.996  1.1391  2.2938 -2.2343
  539DG     H2212396   2.612   2.306   0.974 -0.9439 -1.3517 -0.8336
  539DG     H2312397   2.663   2.456   0.904  1.4899  0.0177 -0.3460
  540DG      C112398   2.461   4.677   0.643 -0.7057 -0.5558 -0.2211
  540DG      C212399   2.559   4.129   0.128  0.4070 -0.1344 -0.2984
  540DG      H312400   2.475   4.754   0.567  1.2847 -0.4501  0.2234
  540DG      H412401   2.503   4.728   0.729 -2.3107  0.9273 -0.2635
  540DG      H512402   2.352   4.678   0.642 -0.7150 -0.9788 -0.9571
  540DG      H612403   2.650   4.072   0.109 -1.0163 -1.8716 -2.3113
  540DG      H712404   2.480   4.095   0.062 -0.2434 -0.3044  0.5388
  540DG      H812405   2.586   4.233   0.108  1.4672 -0.6061 -1.4272
  540DG      O912406   2.525   4.555   0.609  0.1414 -0.1696 -0.2190
  540DG     O1012407   2.519   4.107   0.270  0.4235  0.0474 -0.4759
  540DG     C1112408   2.491   4.450   0.697 -0.3446 -0.5289  0.0600
  540DG     C1212409   2.611   4.146   0.365  0.0085  0.0575  0.1891
  540DG     H1312410   2.382   4.444   0.704 -0.3763  0.7562  1.2676
  540DG     H1412411   2.539   4.473   0.793 -0.1512  2.1599 -0.6013
  540DG     H1512412   2.653   4.244   0.342  1.2613 -0.9373 -2.1329
  540DG     H1612413   2.691   4.073   0.351 -0.0162  0.2085 -0.8216
  540DG     C1712414   2.563   4.331   0.643  0.2880 -0.3746 -0.5122
  540DG     C1812415   2.548   4.133   0.503  0.1949  0.6199  0.2949
  540DG     O1912416   2.492   4.260   0.539  0.3669 -0.0659  0.0126
  540DG     H2012417   2.570   4.256   0.722  1.4159 -0.1698 -0.3955
  540DG     H2112418   2.667   4.356   0.625  0.0840  0.9792  0.0906
  540DG     H2212419   2.474   4.053   0.496  1.3145 -0.3881 -0.4273
  540DG     H2312420   2.629   4.106   0.570  0.7396  1.0314 -0.1900
  541DG      C112421   4.640   2.545   2.733  0.1079 -0.2307  0.1208
  541DG      C212422   5.294   2.468   2.436  0.3447 -0.4511  0.5829
  541DG      H312423   4.536   2.571   2.712  0.4231 -1.3148 -3.4669
  541DG      H412424   4.685   2.626   2.790 -1.8378  1.6477 -0.8968
  541DG      H512425   4.639   2.457   2.798  1.2485  0.6404  1.3730
  541DG      H612426   5.348   2.425   2.352 -0.0734 -1.1466  0.6645
  541DG      H712427   5.329   2.567   2.466  0.2720 -0.1206 -0.3804
  541DG      H812428   5.318   2.396   2.514  2.3716  0.9035  1.2878
  541DG      O912429   4.714   2.524   2.615  0.2893 -0.0536 -0.3194
  541DG     O1012430   5.152   2.473   2.407 -0.0643  0.0293 -0.0572
  541DG     C1112431   4.679   2.621   2.516  0.0653  0.1589  0.5860
  541DG     C1212432   5.114   2.558   2.303  0.3877 -0.5226 -0.3545
  541DG     H1312433   4.692   2.718   2.563 -0.2290  0.3007  0.3714
  541DG     H1412434   4.573   2.623   2.493  0.2198  2.5302 -0.2412
  541DG     H1512435   5.166   2.528   2.212 -0.6810 -0.7528 -0.9066
  541DG     H1612436   5.152   2.654   2.340 -2.2063 -0.0010  1.1870
  541DG     C1712437   4.750   2.613   2.382 -0.5362  0.5406 -0.4510
  541DG     C1812438   4.961   2.568   2.281 -0.9312 -0.4441 -0.4038
  541DG     O1912439   4.889   2.599   2.403 -0.2474  0.0960  0.2217
  541DG     H2012440   4.732   2.701   2.321 -0.8219  1.9208  1.5249
  541DG     H2112441   4.713   2.528   2.324 -2.0802  1.0944 -0.3107
  541DG     H2212442   4.954   2.647   2.206  1.3589 -2.1008 -2.5447
  541DG     H2312443   4.934   2.474   2.233  0.8784 -0.2711 -1.9074
  542DG      C112444   4.465   5.406   2.384 -0.0159  0.7270 -0.3603
  542DG      C212445   4.711   5.793   2.351 -0.3483  0.3746 -0.1544
  542DG      H312446   4.409   5.321   2.345 -0.8899  1.7902 -1.5195
  542DG      H412447   4.538   5.378   2.460  1.1964  1.1358 -1.3380
  542DG      H512448   4.514   5.445   2.294 -0.4786 -1.1849 -1.4923
  542DG      H612449   4.768   5.715   2.401 -2.3665  0.2835  2.1402
  542DG      H712450   4.775   5.881   2.341 -0.1309  0.1659 -0.6330
  542DG      H812451   4.621   5.801   2.411  0.6743  0.7134  1.3828
  542DG      O912452   4.382   5.504   2.446 -0.5540  0.4774 -0.2813
  542DG     O1012453   4.688   5.758   2.218  0.1114  0.0750 -0.3308
  542DG     C1112454   4.272   5.548   2.365 -0.2338 -1.1658 -0.4376
  542DG     C1212455   4.602   5.847   2.153  0.1410  0.0885  0.5340
  542DG     H1312456   4.180   5.550   2.423 -1.3269  0.1720 -2.1305
  542DG     H1412457   4.253   5.476   2.286 -1.1401 -1.2038 -0.1927
  542DG     H1512458   4.619   5.842   2.045  2.9861 -1.4441  0.9461
  542DG     H1612459   4.641   5.947   2.174 -1.2000  0.5920  0.7213
  542DG     C1712460   4.295   5.692   2.316 -0.0837  0.1978 -0.5159
  542DG     C1812461   4.448   5.841   2.193  1.1153  0.5576 -1.2105
  542DG     O1912462   4.401   5.704   2.221  0.2202 -0.0767 -0.5467
  542DG     H2012463   4.303   5.756   2.404 -0.1240  0.5582 -0.7717
  542DG     H2112464   4.212   5.732   2.259 -0.7158 -0.6504 -0.2170
  542DG     H2212465   4.433   5.893   2.288 -2.7154 -1.9529 -0.2087
  542DG     H2312466   4.400   5.909   2.123 -0.6253  0.0891 -0.5300
  543DG      C112467   0.850   5.474   3.292 -0.4415 -0.2551 -0.4877
  543DG      C212468   1.167   4.782   3.246 -0.0427 -0.1252  0.0051
  543DG      H312469   0.809   5.559   3.347  0.1410 -0.1802 -0.1570
  543DG      H412470   0.785   5.389   3.312 -0.5331 -0.6035 -2.1254
  543DG      H512471   0.843   5.498   3.186 -1.7833 -2.9744 -1.0901
  543DG      H612472   1.243   4.733   3.307 -1.2984  0.1646  1.8856
  543DG      H712473   1.066   4.750   3.271  0.1796 -0.3976  0.5897
  543DG      H812474   1.190   4.747   3.145 -0.3516  0.1527 -0.1620
  543DG      O912475   0.992   5.454   3.317  0.0161  0.3428  0.6775
  543DG     O1012476   1.188   4.919   3.250 -0.2745  0.0601  0.1952
  543DG     C1112477   1.039   5.337   3.249 -0.2330  0.3026  0.5040
  543DG     C1212478   1.316   4.969   3.248 -0.2824  0.1387  0.1497
  543DG     H1312479   1.024   5.349   3.142 -0.0442  1.0132  0.5480
  543DG     H1412480   0.985   5.247   3.276 -1.2832  1.3739  2.1674
  543DG     H1512481   1.355   4.960   3.146 -1.8624  1.6449 -0.6482
  543DG     H1612482   1.391   4.914   3.305  0.1983  1.5443  0.9315
  543DG     C1712483   1.195   5.316   3.280 -0.7303  0.0400 -0.0941
  543DG     C1812484   1.321   5.115   3.295 -0.1979 -0.6132 -0.1534
  543DG     O1912485   1.228   5.190   3.214  0.2864 -0.3176 -0.7719
  543DG     H2012486   1.209   5.307   3.387  3.0133 -0.1570 -0.4599
  543DG     H2112487   1.251   5.397   3.233 -0.3633  0.7797  1.5507
  543DG     H2212488   1.285   5.113   3.398 -0.4740 -1.0620 -0.2591
  543DG     H2312489   1.420   5.159   3.305  0.0978 -1.4277  0.6286
  544DG      C112490   2.024   0.971   4.959  0.4218 -0.0756 -0.0841
  544DG      C212491   2.011   0.272   5.095 -0.7901  0.4888 -0.1456
  544DG      H312492   1.996   1.004   5.059  2.4420 -2.4111  1.3703
  544DG      H412493   1.933   0.952   4.903  0.3627  0.8497 -0.3092
  544DG      H512494   2.087   1.051   4.922 -0.3269  0.8024  0.5039
  544DG      H612495   2.033   0.170   5.067 -4.3145 -0.0138 -1.5896
  544DG      H712496   1.931   0.268   5.169 -0.5393 -0.5962  0.0819
  544DG      H812497   1.974   0.330   5.010 -0.9682  1.5758  0.6418
  544DG      O912498   2.095   0.850   4.971 -0.2866  0.5458 -0.1513
  544DG     O1012499   2.126   0.343   5.139  0.3123  0.5505 -0.4076
  544DG     C1112500   2.122   0.779   4.850  0.4707 -0.2793 -0.0036
  544DG     C1212501   2.230   0.326   5.044  0.1001 -0.8264  0.3513
  544DG     H1312502   2.187   0.845   4.792 -0.1260 -0.6270 -1.0979
  544DG     H1412503   2.030   0.747   4.801  1.4121  0.2803 -2.2683
  544DG     H1512504   2.253   0.224   5.014 -0.1411 -0.8732  0.3239
  544DG     H1612505   2.319   0.354   5.101 -0.3088  1.6474 -0.1292
  544DG     C1712506   2.209   0.651   4.863 -0.1006  0.4490 -0.1421
  544DG     C1812507   2.208   0.414   4.919  0.1074  0.4564 -0.3783
  544DG     O1912508   2.166   0.545   4.951 -0.3406  0.4139  0.4292
  544DG     H2012509   2.311   0.658   4.902 -0.0279 -2.3171  0.3344
  544DG     H2112510   2.217   0.603   4.766 -0.8033 -2.3427  1.0911
  544DG     H2212511   2.305   0.412   4.869  0.3990 -1.1833  0.2078
  544DG     H2312512   2.131   0.363   4.862 -1.8691  0.1410  2.3750
  545DG      C112513   4.985   3.359   4.170 -0.0378  0.9192 -0.6281
  545DG      C212514   4.481   2.849   4.057 -0.0226 -0.2654  0.4189
  545DG      H312515   5.034   3.349   4.073 -0.0433 -3.4206 -0.3836
  545DG      H412516   5.042   3.414   4.245  0.9523  0.9606 -1.3866
  545DG      H512517   4.895   3.416   4.147  0.5437  1.8992 -0.5311
  545DG      H612518   4.400   2.910   4.096 -1.3591 -1.6147 -0.1379
  545DG      H712519   4.503   2.872   3.953 -2.7560 -3.4479 -1.0566
  545DG      H812520   4.442   2.748   4.069  0.4869 -0.5101  0.0977
  545DG      O912521   4.940   3.234   4.211  0.1647 -0.0699 -0.0885
  545DG     O1012522   4.606   2.861   4.132  0.7483  0.1198  0.0137
  545DG     C1112523   5.023   3.118   4.187  0.5997  0.0832  0.3354
  545DG     C1212524   4.701   2.765   4.082 -0.2593  0.1761 -0.3653
  545DG     H1312525   5.123   3.136   4.224  0.5600 -1.2389  1.1900
  545DG     H1412526   5.029   3.103   4.080 -0.9213 -0.0452  0.2461
  545DG     H1512527   4.721   2.777   3.976  0.6533 -0.9950 -0.3529
  545DG     H1612528   4.658   2.665   4.084 -2.1080  0.8458 -2.4684
  545DG     C1712529   4.967   2.979   4.246  0.3390  0.5749 -0.0205
  545DG     C1812530   4.828   2.792   4.168  0.4898  0.5212  0.4405
  545DG     O1912531   4.865   2.928   4.151  0.4463 -0.3593 -0.5514
  545DG     H2012532   4.928   2.996   4.346  1.2822  0.4397  0.3834
  545DG     H2112533   5.045   2.907   4.271 -0.3350 -0.6774 -1.3756
  545DG     H2212534   4.803   2.761   4.270 -0.6101 -0.5738 -0.1334
  545DG     H2312535   4.906   2.724   4.137 -0.8163 -1.0910  0.5516
  546DG      C112536   0.656   5.277   4.135  0.4593  0.0166  0.4664
  546DG      C212537   1.014   5.380   3.623 -0.2483  0.1117 -0.0818
  546DG      H312538   0.592   5.223   4.205  0.8487 -0.5449  0.3962
  546DG      H412539   0.596   5.302   4.048  0.5131 -1.5503 -0.0554
  546DG      H512540   0.693   5.371   4.175 -0.5873  0.5157  0.2816
  546DG      H612541   0.911   5.392   3.592  0.3590 -0.6658 -2.6580
  546DG      H712542   1.068   5.475   3.624 -0.8938  0.5014  1.7059
  546DG      H812543   1.065   5.311   3.556  1.5401  0.8614  0.4221
  546DG      O912544   0.762   5.195   4.089 -0.9872  0.5021 -0.1366
  546DG     O1012545   1.016   5.311   3.743 -0.3884  0.4879  0.0554
  546DG     C1112546   0.874   5.169   4.175 -0.1980  0.2961  0.3684
  546DG     C1212547   1.143   5.313   3.810  0.3865  0.1458 -0.0309
  546DG     H1312548   0.843   5.083   4.234 -0.9986  1.8243  2.2813
  546DG     H1412549   0.890   5.255   4.240 -0.5300  0.7626 -0.1637
  546DG     H1512550   1.160   5.411   3.853  0.7548  0.1976 -0.2872
  546DG     H1612551   1.231   5.288   3.751 -1.2338 -1.1742 -2.0337
  546DG     C1712552   1.001   5.131   4.100 -0.1830  0.6547  0.8275
  546DG     C1812553   1.129   5.207   3.918 -0.1012 -0.2193 -0.3922
  546DG     O1912554   1.015   5.228   3.996  0.4696  0.6590 -0.1297
  546DG     H2012555   1.012   5.029   4.065  0.6288  0.3340  1.9387
  546DG     H2112556   1.093   5.136   4.159 -1.3234 -2.0512  3.0610
  546DG     H2212557   1.124   5.116   3.859  2.2490 -0.9443  0.3925
  546DG     H2312558   1.218   5.190   3.979  0.0871  0.1025 -0.5775
  547DG      C112559   0.752   0.772   3.423 -0.0379 -0.1993 -0.7244
  547DG      C212560   0.350   1.371   3.490  0.1819 -0.3960 -0.0376
  547DG      H312561   0.747   0.664   3.408 -0.4737 -0.2409 -0.2763
  547DG      H412562   0.856   0.773   3.457 -0.1497 -4.6980  0.3046
  547DG      H512563   0.738   0.817   3.325 -1.0452  0.9836 -0.0635
  547DG      H612564   0.447   1.412   3.461 -0.2584  1.3392  0.8047
  547DG      H712565   0.302   1.363   3.392  3.9509 -0.4070 -2.0784
  547DG      H812566   0.303   1.443   3.557  0.0018 -1.1080  0.6218
  547DG      O912567   0.662   0.824   3.526  0.9101 -0.2945 -0.5582
  547DG     O1012568   0.379   1.250   3.555  0.3046 -0.0573 -0.0350
  547DG     C1112569   0.529   0.782   3.495 -1.1547 -0.0794 -0.0228
  547DG     C1212570   0.257   1.181   3.601 -0.2415  0.0631  0.7183
  547DG     H1312571   0.516   0.674   3.494 -0.2820 -0.3319  3.4719
  547DG     H1412572   0.509   0.806   3.391 -2.2051  1.7901  0.5554
  547DG     H1512573   0.186   1.181   3.519 -0.9762  2.0359  1.2804
  547DG     H1612574   0.207   1.237   3.681 -0.1757  0.4228  0.5066
  547DG     C1712575   0.429   0.835   3.593 -0.0681 -0.2970 -0.3254
  547DG     C1812576   0.300   1.036   3.641  0.9540 -0.3024 -0.3072
  547DG     O1912577   0.403   0.973   3.554  0.0852  0.1604 -0.0960
  547DG     H2012578   0.477   0.820   3.690  1.9517  2.9885 -0.6566
  547DG     H2112579   0.345   0.766   3.582  2.3407 -3.6559  0.8115
  547DG     H2212580   0.343   1.043   3.741 -0.0588  0.9863  0.0685
  547DG     H2312581   0.215   0.972   3.663  0.7047 -0.5727 -1.9275
  548DG      C112582   3.663   3.891   1.185  0.1254 -0.6764 -0.7581
  548DG      C212583   3.756   4.264   1.729  0.2802  0.2466 -0.9307
  548DG      H312584   3.701   3.789   1.175  0.4010 -0.6109 -0.3919
  548DG      H412585   3.650   3.935   1.086 -3.5402  1.8691  0.6680
  548DG      H512586   3.568   3.881   1.236 -0.0978  2.7048 -0.3441
  548DG      H612587   3.652   4.232   1.720  0.5987 -0.9427 -0.5193
  548DG      H712588   3.807   4.227   1.818  2.3258  0.9443 -1.7406
  548DG      H812589   3.753   4.371   1.708 -2.0069  0.3091 -0.4767
  548DG      O912590   3.761   3.967   1.264 -0.2270 -0.1662 -0.1672
  548DG     O1012591   3.817   4.203   1.622 -0.0188 -0.0211  0.1497
  548DG     C1112592   3.871   4.012   1.199 -0.2787  0.0734 -0.0995
  548DG     C1212593   3.941   4.267   1.591 -0.2153  0.0495 -0.4418
  548DG     H1312594   3.849   4.094   1.131 -0.2197  1.4165  1.4607
  548DG     H1412595   3.904   3.930   1.135 -0.3246 -0.1142  0.1144
  548DG     H1512596   4.011   4.254   1.674  1.1794 -0.2540 -1.6275
  548DG     H1612597   3.927   4.372   1.563 -0.5570  0.0066 -0.4322
  548DG     C1712598   3.984   4.053   1.292  0.7541  0.5842  0.3927
  548DG     C1812599   4.011   4.174   1.493  0.4820  0.7425 -0.1127
  548DG     O1912600   3.933   4.157   1.373  0.3785  0.0356 -0.4330
  548DG     H2012601   4.066   4.096   1.235  0.4976  2.0808  1.1012
  548DG     H2112602   4.024   3.965   1.342 -0.9468 -0.9565 -0.8236
  548DG     H2212603   4.118   4.194   1.480  0.5248  0.6138  0.0417
  548DG     H2312604   4.010   4.082   1.551 -1.9610  0.6495 -0.2017
  549DG      C112605   2.534   0.200   4.193 -0.1956  0.6799 -0.2778
  549DG      C212606   1.967  -0.343   4.669 -0.3575 -0.7102  0.1704
  549DG      H312607   2.532   0.217   4.301  2.3047 -0.6527  0.0384
  549DG      H412608   2.565   0.291   4.141  2.0856  0.0834 -0.0703
  549DG      H512609   2.610   0.125   4.170 -0.6131  0.3816 -0.6951
  549DG      H612610   1.985  -0.434   4.612  0.2026 -0.4033 -0.1490
  549DG      H712611   1.962  -0.360   4.776  2.5074 -0.0915  0.4930
  549DG      H812612   1.872  -0.302   4.635  0.5121  0.9959 -0.3173
  549DG      O912613   2.401   0.157   4.152 -0.0157  0.2429 -0.8011
  549DG     O1012614   2.067  -0.248   4.644 -0.1964  0.4654  0.1989
  549DG     C1112615   2.362   0.021   4.178 -0.3842 -0.7732  0.5588
  549DG     C1212616   2.116  -0.234   4.513 -0.3804 -0.0773 -0.3330
  549DG     H1312617   2.433  -0.057   4.154  2.2909  1.4755  0.6370
  549DG     H1412618   2.282  -0.001   4.107  0.1290 -0.3949 -0.1548
  549DG     H1512619   2.039  -0.248   4.437  0.7860 -1.9245 -1.2653
  549DG     H1612620   2.182  -0.319   4.499  1.9955  0.9397  3.3199
  549DG     C1712621   2.299   0.030   4.315 -0.7523 -0.3549  0.4367
  549DG     C1812622   2.202  -0.107   4.490  0.2570 -0.5509  0.0593
  549DG     O1912623   2.249  -0.095   4.358  0.1384  0.0093 -0.0716
  549DG     H2012624   2.212   0.096   4.302 -1.3232 -1.1852 -0.0326
  549DG     H2112625   2.365   0.073   4.391 -0.0774  3.0832 -1.8532
  549DG     H2212626   2.148  -0.014   4.507  0.8301  0.4771 -3.0617
  549DG     H2312627   2.291  -0.096   4.552 -1.0579  1.8536  1.6620
  550DG      C112628   3.525   2.888   1.180  0.2021 -0.3918 -0.2004
  550DG      C212629   2.891   2.646   1.117 -0.0892 -0.7040 -0.5566
  550DG      H312630   3.568   2.790   1.164 -0.2994 -0.3235 -2.2123
  550DG      H412631   3.490   2.893   1.283 -0.1478 -2.0907 -0.2131
  550DG      H512632   3.605   2.960   1.162  1.1655 -1.4418 -0.1753
  550DG      H612633   2.944   2.630   1.211 -0.6698  0.2785 -0.0453
  550DG      H712634   2.786   2.667   1.138 -0.2124 -0.8452 -1.0072
  550DG      H812635   2.893   2.546   1.074  0.5939 -0.6400 -0.6733
  550DG      O912636   3.407   2.909   1.097 -0.1810  0.1005 -0.1846
  550DG     O1012637   2.975   2.741   1.054 -0.4557  0.8114  0.0142
  550DG     C1112638   3.367   3.047   1.103 -0.1202 -0.6211  0.3568
  550DG     C1212639   2.930   2.875   1.090 -0.1342 -0.8657  0.3891
  550DG     H1312640   3.449   3.107   1.063 -1.1169 -0.0425 -0.8548
  550DG     H1412641   3.350   3.086   1.203 -0.0009  0.2475  0.0486
  550DG     H1512642   2.917   2.888   1.197 -0.4300 -1.2395  0.3992
  550DG     H1612643   2.830   2.887   1.048 -0.1301 -2.4379 -0.1282
  550DG     C1712644   3.236   3.060   1.034 -0.0609  0.2439  0.3122
  550DG     C1812645   3.014   2.979   1.026  0.1896 -0.3313 -0.2035
  550DG     O1912646   3.144   2.961   1.076  0.0202 -0.3068 -0.0350
  550DG     H2012647   3.262   3.042   0.929  0.9334 -0.3920  0.6501
  550DG     H2112648   3.203   3.162   1.053 -1.0078  0.0945 -0.4380
  550DG     H2212649   3.004   2.973   0.918 -0.8502  0.0287 -0.1329
  550DG     H2312650   2.975   3.079   1.043 -0.3175 -0.4163 -0.8250
  551DG      C112651   1.903   4.999   4.211 -0.2215 -0.2066 -0.1760
  551DG      C212652   2.207   5.257   3.871 -0.1024  0.5296 -0.1012
  551DG      H312653   1.907   4.976   4.317  0.2805 -0.9879 -0.3509
  551DG      H412654   1.809   4.974   4.161 -0.8351  0.3787  0.6617
  551DG      H512655   1.920   5.104   4.186 -1.7019 -0.1897 -1.2414
  551DG      H612656   2.154   5.300   3.786 -0.6882  0.3553  0.1735
  551DG      H712657   2.131   5.199   3.922  1.8887 -1.5795  0.6490
  551DG      H812658   2.249   5.340   3.928 -2.1083  0.5205  1.4991
  551DG      O912659   2.008   4.920   4.147  0.0096 -0.3832  0.2283
  551DG     O1012660   2.311   5.168   3.838 -0.7415 -0.0151  0.0971
  551DG     C1112661   2.125   4.902   4.228  0.9021 -0.0329 -0.0765
  551DG     C1212662   2.405   5.132   3.941  0.0348  0.6625 -0.0060
  551DG     H1312663   2.185   4.827   4.176  0.3774 -0.3976 -0.1658
  551DG     H1412664   2.102   4.862   4.327 -0.3761 -1.0945 -0.7641
  551DG     H1512665   2.440   5.220   3.993 -1.3165  1.2114  0.0253
  551DG     H1612666   2.491   5.094   3.885 -0.3372  0.0984 -0.2173
  551DG     C1712667   2.212   5.022   4.247 -0.1329  0.0465  0.4179
  551DG     C1812668   2.335   5.041   4.049 -0.3985  0.1858  0.0861
  551DG     O1912669   2.252   5.106   4.136 -0.6698  0.1953 -0.4923
  551DG     H2012670   2.302   4.995   4.302  0.3391  2.1646  0.7676
  551DG     H2112671   2.170   5.100   4.310  3.3049  2.5402 -0.0754
  551DG     H2212672   2.282   4.956   4.006 -0.6411  1.5039 -2.3903
  551DG     H2312673   2.419   4.999   4.104 -1.5762  0.1202  1.9322
  552DG      C112674   2.968   0.123   1.548 -0.1735  0.6032 -0.0051
  552DG      C212675   3.477   0.523   1.871 -0.0107  0.1282  0.1113
  552DG      H312676   2.957   0.088   1.650  1.5193  0.4709  0.1615
  552DG      H412677   2.966   0.041   1.475  1.1526  0.9549 -0.4783
  552DG      H512678   2.886   0.193   1.533 -0.8289 -0.1889 -0.2332
  552DG      H612679   3.486   0.631   1.884  2.6719  0.3528 -2.4261
  552DG      H712680   3.423   0.482   1.956  1.1243 -0.1177  0.7208
  552DG      H812681   3.573   0.473   1.871  0.0124  0.1705  0.3140
  552DG      O912682   3.089   0.194   1.556  0.3621  0.1119  0.1492
  552DG     O1012683   3.415   0.485   1.758 -0.2526 -0.0309  0.3575
  552DG     C1112684   3.122   0.258   1.430 -0.7290 -0.2493  0.2205
  552DG     C1212685   3.454   0.558   1.643  0.2415  0.2155  1.0661
  552DG     H1312686   3.046   0.329   1.398 -0.0042 -0.0170 -1.0741
  552DG     H1412687   3.132   0.176   1.358  0.2113 -0.7321  0.8675
  552DG     H1512688   3.561   0.580   1.644  0.2064  0.4805  0.1107
  552DG     H1612689   3.386   0.644   1.639 -2.3729 -1.7509  0.4104
  552DG     C1712690   3.269   0.317   1.435 -0.6755  0.3328  0.1148
  552DG     C1812691   3.418   0.474   1.524  0.0241  0.8412 -0.3310
  552DG     O1912692   3.287   0.417   1.531 -0.3248 -0.0255 -0.7258
  552DG     H2012693   3.300   0.348   1.336  0.1293  0.5691  0.4297
  552DG     H2112694   3.326   0.228   1.464 -0.5893  0.6000  0.7981
  552DG     H2212695   3.432   0.521   1.426 -0.5144 -2.9402 -2.4235
  552DG     H2312696   3.483   0.388   1.540 -0.9088  0.4026  1.3113
  553DG      C112697   5.371   3.914   0.537 -0.6357 -0.0865  0.3218
  553DG      C212698   5.695   3.995  -0.173  0.1395  0.2689 -0.6673
  553DG      H312699   5.374   4.020   0.560  1.6756 -0.3880  1.8177
  553DG      H412700   5.452   3.873   0.598 -0.7031  1.6226  1.6107
  553DG      H512701   5.280   3.862   0.565 -0.6933  0.2835  0.8445
  553DG      H612702   5.692   3.991  -0.282 -1.7860  0.0425 -0.6410
  553DG      H712703   5.698   4.094  -0.127 -0.7372 -0.4571  1.0496
  553DG      H812704   5.793   3.957  -0.145 -0.0201  0.8667  0.7829
  553DG      O912705   5.382   3.892   0.392  0.1569  0.2967 -0.6811
  553DG     O1012706   5.594   3.920  -0.100 -0.2661 -0.1107  0.1103
  553DG     C1112707   5.493   3.952   0.330 -0.2826  0.0529 -0.5432
  553DG     C1212708   5.458   3.967  -0.111 -0.5351 -0.2437  0.5138
  553DG     H1312709   5.587   3.909   0.362  0.3691  1.9504  0.2220
  553DG     H1412710   5.485   4.061   0.327 -2.7034 -0.0478 -0.2270
  553DG     H1512711   5.431   3.974  -0.217  1.7463  2.1933 -0.0080
  553DG     H1612712   5.459   4.072  -0.080  0.7747  0.7296 -2.4498
  553DG     C1712713   5.481   3.914   0.184 -0.6162  0.0871  0.4586
  553DG     C1812714   5.349   3.921  -0.013 -0.8197 -0.1585 -0.1283
  553DG     O1912715   5.376   3.977   0.117 -0.9256 -0.3010 -0.3559
  553DG     H2012716   5.484   3.806   0.168  0.6185  0.2486 -0.5827
  553DG     H2112717   5.571   3.954   0.136 -0.3840 -1.3746 -0.3956
  553DG     H2212718   5.257   3.972  -0.040  0.4956  2.5287  0.1672
  553DG     H2312719   5.344   3.812  -0.014  1.7417 -0.3481  0.5341
  554DG      C112720   0.299   3.613   2.616  0.2465  0.5682 -0.5285
  554DG      C212721   0.285   3.255   2.067 -0.4262  0.6480  0.4168
  554DG      H312722   0.276   3.628   2.721  3.6422  1.3315  0.2382
  554DG      H412723   0.209   3.614   2.555  0.5170  1.9696 -0.9483
  554DG      H512724   0.359   3.699   2.585 -2.2979  1.6213 -2.9153
  554DG      H612725   0.372   3.286   2.010  1.4630 -0.9455  2.2488
  554DG      H712726   0.253   3.161   2.021 -0.1541  0.8552 -0.2043
  554DG      H812727   0.203   3.326   2.074  0.6206  2.2069 -1.9588
  554DG      O912728   0.373   3.491   2.595  0.1763  0.8246 -0.3153
  554DG     O1012729   0.336   3.231   2.193 -0.1627 -0.1570 -0.5903
  554DG     C1112730   0.334   3.384   2.673 -0.3327 -0.3215  0.5162
  554DG     C1212731   0.272   3.127   2.273  0.2127  0.1338  0.3323
  554DG     H1312732   0.227   3.378   2.694 -0.4381 -2.9463 -0.4654
  554DG     H1412733   0.385   3.377   2.770  0.0536  0.7820  0.4062
  554DG     H1512734   0.286   3.028   2.229 -2.7095 -0.5089  0.6179
  554DG     H1612735   0.164   3.131   2.283  0.1513 -1.6036  0.8216
  554DG     C1712736   0.374   3.261   2.594  0.2207  0.2666 -1.3105
  554DG     C1812737   0.325   3.131   2.420  0.6110  0.4220  0.0760
  554DG     O1912738   0.310   3.263   2.475  0.3990 -0.5168  0.1220
  554DG     H2012739   0.355   3.165   2.642 -0.1498 -0.0080 -1.9881
  554DG     H2112740   0.480   3.268   2.573  0.2899 -0.7720 -1.3449
  554DG     H2212741   0.261   3.060   2.472  1.6749 -0.2942  0.4326
  554DG     H2312742   0.425   3.089   2.419  0.8924  0.9678  1.9760
  555DG      C112743   3.328   0.061   3.784  0.0166  0.0281  0.2446
  555DG      C212744   2.736  -0.021   3.791  0.0096  0.1754 -0.4553
  555DG      H312745   3.399   0.018   3.713 -1.2740 -0.1666 -0.9552
  555DG      H412746   3.368   0.070   3.885 -1.7505  0.3232  0.9549
  555DG      H512747   3.310   0.159   3.741 -0.3587 -0.4114 -0.6256
  555DG      H612748   2.693   0.078   3.777 -0.3733  0.2455  1.0646
  555DG      H712749   2.815  -0.023   3.716 -2.0064 -1.8560 -2.6722
  555DG      H812750   2.669  -0.103   3.767 -0.0900 -0.5338  1.9538
  555DG      O912751   3.210  -0.022   3.769 -0.0977 -0.9577  0.2956
  555DG     O1012752   2.776  -0.035   3.922  0.1487 -0.3045 -0.2562
  555DG     C1112753   3.226  -0.151   3.815  0.4645 -0.1832  0.9282
  555DG     C1212754   2.778  -0.171   3.969  0.5091  0.1424 -0.5334
  555DG     H1312755   3.233  -0.149   3.924  0.0514 -0.9721  0.9780
  555DG     H1412756   3.317  -0.192   3.771  0.5120  0.1113  0.7495
  555DG     H1512757   2.682  -0.222   3.972 -0.4799  1.9586  0.0168
  555DG     H1612758   2.808  -0.165   4.074  1.8684 -3.7973 -0.5161
  555DG     C1712759   3.101  -0.240   3.797 -0.5287  0.0677  0.3254
  555DG     C1812760   2.884  -0.253   3.907  0.4661  0.3588  0.4124
  555DG     O1912761   3.007  -0.180   3.886  0.2747 -0.4261 -0.8234
  555DG     H2012762   3.110  -0.346   3.820 -0.1869 -0.2207 -1.0569
  555DG     H2112763   3.058  -0.242   3.697 -0.8316  0.5007  0.4438
  555DG     H2212764   2.910  -0.340   3.968  0.1390 -0.6918 -0.9124
  555DG     H2312765   2.857  -0.289   3.808  0.3643 -0.0114  0.5750
  556DG      C112766   1.454   0.751   0.888 -0.6942 -0.2240  0.4687
  556DG      C212767   2.069   0.628   0.966 -0.3692 -0.0129  0.1196
  556DG      H312768   1.434   0.671   0.816  0.0848  0.4315 -0.4870
  556DG      H412769   1.519   0.824   0.841  0.7978 -2.0971 -0.5549
  556DG      H512770   1.361   0.806   0.900  0.2478  1.4634  0.2273
  556DG      H612771   2.113   0.653   1.063 -0.5387 -1.7646  0.6781
  556DG      H712772   2.130   0.556   0.912 -1.2546  0.7356 -1.9733
  556DG      H812773   2.081   0.715   0.902  1.5742  0.0927  0.5584
  556DG      O912774   1.532   0.727   0.999 -0.5415 -0.0686  0.5132
  556DG     O1012775   1.940   0.579   0.974  0.5258 -0.1125  0.1128
  556DG     C1112776   1.487   0.614   1.077 -0.9298 -0.1278  0.6754
  556DG     C1212777   1.920   0.512   1.094 -0.6562  1.0270 -0.5444
  556DG     H1312778   1.501   0.527   1.012 -1.1108  0.6394 -0.4256
  556DG     H1412779   1.383   0.637   1.099 -1.4017  3.1576 -3.5721
  556DG     H1512780   1.966   0.553   1.183  2.0235 -2.5490 -0.0373
  556DG     H1612781   1.978   0.419   1.087  0.0633  1.4218  0.0199
  556DG     C1712782   1.578   0.614   1.200 -1.0897  0.9368  0.0444
  556DG     C1812783   1.771   0.494   1.109 -0.3927  0.3709 -0.2942
  556DG     O1912784   1.719   0.609   1.165  0.1921 -0.7689  0.1633
  556DG     H2012785   1.550   0.528   1.262 -1.4770  1.2203  0.2700
  556DG     H2112786   1.564   0.704   1.259  0.9636  1.5891 -0.3869
  556DG     H2212787   1.730   0.474   1.010 -0.8696 -0.8106  0.1152
  556DG     H2312788   1.739   0.409   1.170  0.6073  0.1501 -0.0512
  557DG      C112789   3.511   0.042   0.229  0.9535  0.0560 -0.6102
  557DG      C212790   3.411  -0.008   0.891  0.0084 -1.1847 -0.3000
  557DG      H312791   3.410   0.039   0.190  0.1899  0.6019  1.2139
  557DG      H412792   3.549  -0.060   0.226 -0.9857 -0.7500  0.6344
  557DG      H512793   3.565   0.102   0.157  0.6484  0.2465 -0.6815
  557DG      H612794   3.393  -0.113   0.867 -0.5769 -0.8173 -1.5061
  557DG      H712795   3.514   0.004   0.924 -0.1387 -1.0056  0.1129
  557DG      H812796   3.345   0.021   0.973  1.9335  1.1506  0.5514
  557DG      O912797   3.506   0.096   0.363 -0.3801 -0.5300 -0.2161
  557DG     O1012798   3.392   0.083   0.785  0.4627  0.3629  0.3850
  557DG     C1112799   3.474   0.238   0.358  0.1366  0.3010 -0.1125
  557DG     C1212800   3.261   0.060   0.716 -0.3236  0.0983  0.2629
  557DG     H1312801   3.405   0.262   0.278  0.3383  0.2389 -0.3054
  557DG     H1412802   3.568   0.291   0.346  0.2284  0.1069 -0.2706
  557DG     H1512803   3.182   0.048   0.791 -0.5759 -2.3562 -0.3252
  557DG     H1612804   3.267  -0.040   0.674 -1.7742 -0.3312  0.9959
  557DG     C1712805   3.410   0.273   0.493  0.7686 -0.7171  0.1860
  557DG     C1812806   3.231   0.179   0.623 -0.1309 -0.1924  0.4417
  557DG     O1912807   3.317   0.167   0.510  0.3090  0.5432 -0.1153
  557DG     H2012808   3.360   0.370   0.483  0.6273 -0.7714  0.3640
  557DG     H2112809   3.484   0.276   0.573  1.1240 -0.6194 -0.1399
  557DG     H2212810   3.124   0.175   0.604 -0.1460 -1.3086  0.6951
  557DG     H2312811   3.258   0.275   0.668  1.9608 -0.2093 -0.6530
  558DG      C112812   0.270   4.906   3.914 -1.1888 -0.3017  0.9480
  558DG      C212813  -0.031   4.634   4.462  0.2192  0.0196  0.5272
  558DG      H312814   0.365   4.923   3.966 -1.0290 -0.4676  0.7134
  558DG      H412815   0.272   4.970   3.825 -1.2461 -0.8069  0.5818
  558DG      H512816   0.278   4.805   3.876 -1.1312  0.7750 -2.1972
  558DG      H612817  -0.091   4.665   4.548  0.5111 -0.2839  0.8426
  558DG      H712818  -0.079   4.545   4.423 -0.0369  1.1190 -1.7924
  558DG      H812819   0.073   4.612   4.487  0.8723  2.2306  0.0233
  558DG      O912820   0.159   4.915   3.996 -0.0257  0.0560 -0.6117
  558DG     O1012821  -0.033   4.738   4.362  0.1484  0.6075 -0.5012
  558DG     C1112822   0.038   4.888   3.926  0.1884  0.0613 -0.2534
  558DG     C1212823  -0.164   4.756   4.330  0.7559  0.5066  0.5087
  558DG     H1312824   0.035   4.782   3.899  4.7470 -0.1640 -0.6860
  558DG     H1412825   0.035   4.937   3.829  1.2406 -1.9179 -1.3421
  558DG     H1512826  -0.233   4.776   4.412 -1.7904  0.1384 -1.4023
  558DG     H1612827  -0.204   4.667   4.282 -1.0231  0.2684  2.2996
  558DG     C1712828  -0.075   4.930   4.018  0.0144 -0.5283  0.0563
  558DG     C1812829  -0.166   4.874   4.231 -0.5433  0.3997  0.0954
  558DG     O1912830  -0.064   4.851   4.134  0.0022 -0.2814  0.2388
  558DG     H2012831  -0.169   4.909   3.966  0.4609  1.4595 -1.7306
  558DG     H2112832  -0.075   5.038   4.033 -1.9980 -0.1900 -1.7431
  558DG     H2212833  -0.261   4.868   4.179 -0.7843  0.9536  0.4672
  558DG     H2312834  -0.160   4.977   4.265 -0.9745  0.8540 -1.1508
  559DG      C112835   2.514   4.501   5.013  0.5445  0.1134  0.9545
  559DG      C212836   1.834   4.400   5.236 -0.7371  0.7169 -0.7738
  559DG      H312837   2.463   4.440   4.939  1.9035  0.0583  0.0187
  559DG      H412838   2.596   4.438   5.047  2.2977 -0.3837 -3.4630
  559DG      H512839   2.564   4.580   4.956 -0.8078  1.1487  1.1562
  559DG      H612840   1.811   4.423   5.133 -1.6032 -0.7810 -0.9450
  559DG      H712841   1.841   4.292   5.254  1.1672  0.8870 -0.2622
  559DG      H812842   1.763   4.441   5.308 -1.5981 -1.1026 -0.5309
  559DG      O912843   2.423   4.547   5.112  0.4201  0.5394  0.1224
  559DG     O1012844   1.965   4.455   5.270  0.1370  0.4223 -0.0396
  559DG     C1112845   2.430   4.672   5.179 -0.6070  0.5827 -0.1326
  559DG     C1212846   1.980   4.590   5.300 -0.2430  0.0078  0.6034
  559DG     H1312847   2.404   4.759   5.120  0.3190  0.9992  0.0509
  559DG     H1412848   2.528   4.690   5.225 -0.2077 -0.2914 -0.6181
  559DG     H1512849   1.919   4.630   5.381 -1.3061  1.7542 -0.9685
  559DG     H1612850   1.958   4.657   5.216  1.0642  0.2249  0.4128
  559DG     C1712851   2.332   4.672   5.292 -0.0571  0.2121  0.3059
  559DG     C1812852   2.118   4.626   5.352  0.3350 -0.3814 -0.2669
  559DG     O1912853   2.212   4.620   5.249  0.5217 -0.1108 -0.8293
  559DG     H2012854   2.316   4.774   5.329 -0.4227  0.8060 -1.3831
  559DG     H2112855   2.370   4.605   5.369  0.5347 -1.5298 -1.4205
  559DG     H2212856   2.115   4.724   5.400 -1.0977 -1.1845  1.3895
  559DG     H2312857   2.147   4.557   5.432 -1.5509  0.7197  1.4437
  560DG      C112858   5.101   5.362   1.396 -0.3222  0.2273  0.9256
  560DG      C212859   5.677   5.517   0.804 -0.4204 -0.0006 -0.0677
  560DG      H312860   4.996   5.345   1.416 -0.7643 -1.6336 -2.3245
  560DG      H412861   5.119   5.468   1.377 -0.8280 -0.1676 -2.3121
  560DG      H512862   5.149   5.337   1.491  0.1288  0.8648  0.8722
  560DG      H612863   5.735   5.591   0.860 -0.1708  1.1908 -1.8530
  560DG      H712864   5.747   5.433   0.799 -0.0262  0.3657 -0.7776
  560DG      H812865   5.658   5.546   0.701 -1.9620 -0.4399  0.0644
  560DG      O912866   5.154   5.278   1.291  0.0329 -0.2704 -0.0833
  560DG     O1012867   5.561   5.473   0.864 -0.1118 -0.2682  0.4851
  560DG     C1112868   5.264   5.338   1.222  0.0935  0.0078 -0.2181
  560DG     C1212869   5.467   5.584   0.875  0.2794  0.3647  0.5808
  560DG     H1312870   5.307   5.256   1.165  0.3087  0.7317 -1.1153
  560DG     H1412871   5.331   5.380   1.297  1.1017  0.2859 -1.2436
  560DG     H1512872   5.452   5.627   0.776 -0.7879  1.1871  1.0834
  560DG     H1612873   5.517   5.656   0.939 -0.4819 -0.2358  1.8891
  560DG     C1712874   5.226   5.442   1.123 -0.0454 -0.0719 -0.0114
  560DG     C1812875   5.336   5.545   0.937 -0.1448  0.3046 -0.2773
  560DG     O1912876   5.347   5.481   1.066  0.4645  0.4151 -0.2449
  560DG     H2012877   5.194   5.532   1.175 -0.4648 -0.2890  0.1173
  560DG     H2112878   5.156   5.399   1.051  0.5737 -0.3544 -0.4523
  560DG     H2212879   5.260   5.623   0.942 -1.1194 -0.6537  0.2527
  560DG     H2312880   5.293   5.469   0.872 -0.6937 -2.1868  2.7547
  561DG      C112881   4.698   3.520   3.728  0.1382 -0.9720 -0.1735
  561DG      C212882   4.892   3.828   3.271  0.7680  0.2328  0.0058
  561DG      H312883   4.794   3.472   3.745  1.5572  0.8190 -2.4176
  561DG      H412884   4.619   3.457   3.768 -0.7806  1.1936  1.6373
  561DG      H512885   4.692   3.615   3.781  0.6495 -0.2659 -1.3387
  561DG      H612886   4.966   3.829   3.191  0.2932  0.8729 -0.4420
  561DG      H712887   4.920   3.921   3.320 -0.1816 -0.4735  1.9955
  561DG      H812888   4.893   3.748   3.345 -3.0868 -1.9236 -1.9310
  561DG      O912889   4.665   3.533   3.594  0.1029 -0.1185 -0.0920
  561DG     O1012890   4.757   3.836   3.210  0.1313 -0.8602  0.8833
  561DG     C1112891   4.535   3.583   3.573 -0.9138 -0.2486  0.4699
  561DG     C1212892   4.724   3.714   3.139 -0.5738 -0.9966 -0.5393
  561DG     H1312893   4.528   3.683   3.617  1.9432  1.4463 -2.4224
  561DG     H1412894   4.459   3.510   3.601  0.1261 -1.4458  0.2531
  561DG     H1512895   4.803   3.639   3.147 -1.3444 -1.6441  1.6494
  561DG     H1612896   4.701   3.741   3.036  1.9561  1.5527 -0.5576
  561DG     C1712897   4.509   3.587   3.417 -1.1071 -0.2926 -0.5851
  561DG     C1812898   4.600   3.651   3.205 -0.1586  0.4117 -0.6339
  561DG     O1912899   4.612   3.661   3.348 -0.6429 -0.5728 -0.2017
  561DG     H2012900   4.411   3.622   3.385 -0.9516  0.1285 -0.6146
  561DG     H2112901   4.520   3.483   3.385  1.3535  0.1161 -1.2941
  561DG     H2212902   4.505   3.696   3.177 -0.8397 -0.5958  0.0113
  561DG     H2312903   4.600   3.544   3.183  1.3685  0.6494 -2.0107
  562DG      C112904   1.532   1.508   4.441 -0.0248  0.3783  0.6045
  562DG      C212905   1.929   1.249   3.919  0.4725  0.0779  0.2951
  562DG      H312906   1.432   1.510   4.483 -0.1077 -1.2092  0.5439
  562DG      H412907   1.537   1.587   4.366 -1.7690  0.7222  0.8168
  562DG      H512908   1.611   1.529   4.514  0.0652  0.7428  0.4027
  562DG      H612909   2.004   1.253   3.999  1.1876 -2.6440 -0.1619
  562DG      H712910   1.953   1.178   3.840 -1.2649  0.3961 -0.5660
  562DG      H812911   1.927   1.347   3.872  1.4413  1.4347  2.8248
  562DG      O912912   1.559   1.390   4.377  0.1555  0.4603  0.6221
  562DG     O1012913   1.800   1.219   3.971  0.3948  0.0135 -0.2719
  562DG     C1112914   1.475   1.365   4.262  0.3510 -0.2252 -0.6253
  562DG     C1212915   1.807   1.107   4.063  0.3612 -0.5701 -0.3319
  562DG     H1312916   1.487   1.447   4.191  0.3138 -0.8752 -1.3939
  562DG     H1412917   1.372   1.368   4.296  0.6241  5.2452  0.5847
  562DG     H1512918   1.888   1.127   4.133  0.3003  3.7063 -1.2286
  562DG     H1612919   1.830   1.014   4.010  2.9329  0.6173 -1.4933
  562DG     C1712920   1.495   1.219   4.211  0.5601  0.1977 -0.1321
  562DG     C1812921   1.666   1.085   4.122  0.0404  0.0201 -0.2058
  562DG     O1912922   1.627   1.213   4.167  0.0910  0.2895 -0.2958
  562DG     H2012923   1.424   1.195   4.132  0.8624  2.2387 -1.0873
  562DG     H2112924   1.484   1.146   4.291  1.8941 -3.0848 -2.7145
  562DG     H2212925   1.589   1.060   4.049 -0.3165 -0.2280  0.2390
  562DG     H2312926   1.661   1.031   4.217 -0.0658  2.5132  1.2970
  563DG      C112927   0.248   0.586   2.563  0.1879 -0.3349  0.5058
  563DG      C212928   0.889   0.887   2.830  0.6287  0.4776 -0.1193
  563DG      H312929   0.252   0.684   2.611 -0.7336  0.6954 -1.4194
  563DG      H412930   0.164   0.542   2.616 -0.9536  1.8382  0.5856
  563DG      H512931   0.239   0.592   2.455  1.2903 -0.5226  0.3907
  563DG      H612932   0.947   0.855   2.917 -1.1255  0.4209  1.0747
  563DG      H712933   0.948   0.972   2.796  3.3323 -0.8959  0.8329
  563DG      H812934   0.795   0.911   2.879  0.6491  0.7055 -0.1929
  563DG      O912935   0.371   0.514   2.597  0.4208 -0.2985 -0.1074
  563DG     O1012936   0.885   0.777   2.732 -0.1042 -0.0018  0.7373
  563DG     C1112937   0.472   0.564   2.519 -0.1502 -0.4543 -0.2909
  563DG     C1212938   0.862   0.647   2.778  0.4763 -0.5974  0.0377
  563DG     H1312939   0.482   0.673   2.527 -2.2203 -0.3574  3.4109
  563DG     H1412940   0.455   0.536   2.415 -1.0128 -2.1545  0.2810
  563DG     H1512941   0.790   0.661   2.859  0.8854  1.5210  0.0934
  563DG     H1612942   0.951   0.607   2.826  1.3272 -0.3161 -1.2535
  563DG     C1712943   0.604   0.498   2.570  0.1315  1.1100  0.0080
  563DG     C1812944   0.806   0.560   2.669  0.7763  0.6380 -0.0596
  563DG     O1912945   0.672   0.593   2.652  0.0343 -0.4005  0.1675
  563DG     H2012946   0.650   0.442   2.488 -1.2681  0.6699 -0.5028
  563DG     H2112947   0.577   0.420   2.641  2.5020 -1.6456 -1.8495
  563DG     H2212948   0.863   0.585   2.580  1.6959  0.8637  0.5798
  563DG     H2312949   0.788   0.454   2.687  0.6353  0.5712 -0.5860
  564DG      C112950   4.896   0.965   4.529  0.0361  0.2381  0.6292
  564DG      C212951   5.491   1.149   4.794 -0.2746  0.0556  0.0296
  564DG      H312952   4.842   0.875   4.559  1.2123 -1.3714 -1.7362
  564DG      H412953   4.956   0.935   4.443 -3.0175  0.7345 -1.8762
  564DG      H512954   4.827   1.041   4.492  0.5342  0.0711 -0.7165
  564DG      H612955   5.501   1.045   4.827 -1.4953 -0.0184  0.2158
  564DG      H712956   5.527   1.158   4.692 -2.2612 -2.6023 -1.0346
  564DG      H812957   5.553   1.218   4.851  1.0960 -0.9953 -0.1276
  564DG      O912958   4.971   1.021   4.639 -0.1595 -0.2316  0.1368
  564DG     O1012959   5.348   1.177   4.810  0.5684  0.4041  0.5291
  564DG     C1112960   4.883   1.057   4.745 -0.1478 -0.2195  0.2026
  564DG     C1212961   5.307   1.186   4.944  0.1125 -0.5249 -0.4540
  564DG     H1312962   4.853   0.962   4.789 -0.6373  0.9404  2.5659
  564DG     H1412963   4.792   1.114   4.725  0.0697 -0.2955 -1.0603
  564DG     H1512964   5.349   1.269   5.000  0.2708  0.1237 -1.4932
  564DG     H1612965   5.342   1.103   5.004  0.4225  2.4032  3.8818
  564DG     C1712966   4.952   1.135   4.857 -0.1835  0.1108 -1.2305
  564DG     C1812967   5.157   1.198   4.956  0.2210 -0.1455 -0.2620
  564DG     O1912968   5.094   1.108   4.865 -0.1305  0.4143 -0.1337
  564DG     H2012969   4.907   1.111   4.954  0.4933  0.6231 -0.7702
  564DG     H2112970   4.941   1.243   4.848 -0.4009  0.1662 -0.4487
  564DG     H2212971   5.122   1.173   5.056  0.5748  0.4428  0.0172
  564DG     H2312972   5.132   1.298   4.922  0.4195  0.3408  0.9567
  565DG      C112973   2.904   1.241   4.786  0.6590 -0.7616  0.6434
  565DG      C212974   2.475   1.586   5.387  0.1041  0.9855  0.3138
  565DG      H312975   2.998   1.193   4.816  0.5508 -0.2988  1.8001
  565DG      H412976   2.924   1.333   4.733 -0.7729  0.5288  2.2277
  565DG      H512977   2.858   1.172   4.716 -1.5515  2.5632 -1.4254
  565DG      H612978   2.522   1.649   5.462 -0.1444  0.8136  0.6191
  565DG      H712979   2.425   1.643   5.308  2.1317  1.3391 -0.7836
  565DG      H812980   2.388   1.533   5.425 -0.4985  2.0045  0.3909
  565DG      O912981   2.845   1.243   4.911  0.2960  0.3190 -0.3869
  565DG     O1012982   2.556   1.494   5.319  0.0244  0.2058  0.2957
  565DG     C1112983   2.929   1.309   5.005  0.6072 -0.6441  0.2829
  565DG     C1212984   2.494   1.409   5.213 -0.7476 -0.1524 -0.2200
  565DG     H1312985   2.946   1.410   4.968  0.2892 -0.6111  0.2236
  565DG     H1412986   3.018   1.248   5.020  2.7317  2.2108  0.0635
  565DG     H1512987   2.464   1.466   5.125 -0.4326  1.9898  0.9934
  565DG     H1612988   2.412   1.347   5.250  0.9405 -1.3782  1.6800
  565DG     C1712989   2.854   1.320   5.137 -0.4315 -0.1502  0.0990
  565DG     C1812990   2.605   1.314   5.151 -0.3258  0.4411 -0.6152
  565DG     O1912991   2.724   1.388   5.123  0.2898  0.3516  0.0823
  565DG     H2012992   2.905   1.374   5.216 -1.1685 -1.5768  1.6290
  565DG     H2112993   2.848   1.218   5.175  1.2060 -0.0995  0.5484
  565DG     H2212994   2.623   1.235   5.223 -2.8816  1.3629  1.1685
  565DG     H2312995   2.568   1.262   5.062  1.1225  1.4167 -1.8364
  566DG      C112996   4.866   5.479   4.097 -0.8062 -0.2160 -0.6481
  566DG      C212997   5.147   5.807   3.551 -0.1919 -0.4323 -0.8207
  566DG      H312998   4.866   5.388   4.157 -0.6177  2.0090  2.9999
  566DG      H412999   4.781   5.450   4.034 -2.2312 -0.3409  1.2456
  566DG      H513000   4.849   5.567   4.159  0.7689 -1.2218  1.3311
  566DG      H613001   5.069   5.847   3.615 -0.2263  0.6333 -1.5063
  566DG      H713002   5.222   5.883   3.532 -0.2189 -0.7752 -2.3958
  566DG      H813003   5.108   5.804   3.449  1.3678 -2.0239 -1.4164
  566DG      O913004   4.999   5.489   4.032 -0.0651  0.1223  0.8013
  566DG     O1013005   5.201   5.690   3.616 -0.0468 -0.4298 -0.1890
  566DG     C1113006   5.102   5.530   4.117 -0.3187 -0.1512  0.5821
  566DG     C1213007   5.303   5.725   3.707  0.4784  0.6107  0.5343
  566DG     H1313008   5.117   5.452   4.192  1.3599 -1.8817 -1.4303
  566DG     H1413009   5.097   5.629   4.162  1.8568  0.9257 -1.3452
  566DG     H1513010   5.294   5.822   3.757 -1.1297  1.0625 -0.5431
  566DG     H1613011   5.396   5.736   3.651  0.5698 -2.1333  0.0174
  566DG     C1713012   5.225   5.555   4.022  0.3368  0.2953  0.2551
  566DG     C1813013   5.307   5.614   3.810 -0.1388 -0.1746 -0.2699
  566DG     O1913014   5.199   5.619   3.898 -0.1449  0.8830 -0.5183
  566DG     H2013015   5.268   5.456   4.012  3.0942  1.1896  2.0566
  566DG     H2113016   5.304   5.609   4.075  1.7807  1.0939 -2.5136
  566DG     H2213017   5.320   5.516   3.764  0.6612 -0.4896  0.5907
  566DG     H2313018   5.400   5.631   3.864  1.1997 -3.4339 -1.2939
  567DG      C113019   0.249   3.695   0.124 -0.2299 -0.0228 -0.3035
  567DG      C213020   0.721   3.676  -0.409  0.6213 -0.0839 -0.5666
  567DG      H313021   0.209   3.597   0.146  0.9958 -0.0389  2.2463
  567DG      H413022   0.168   3.755   0.083 -1.0309 -0.0394  1.1956
  567DG      H513023   0.267   3.736   0.223 -1.1737  0.2781 -0.2459
  567DG      H613024   0.817   3.629  -0.427  1.1632  0.3298  1.0356
  567DG      H713025   0.642   3.602  -0.425 -1.3740  2.1013 -1.4931
  567DG      H813026   0.711   3.743  -0.494  1.3738  0.9882  0.1694
  567DG      O913027   0.371   3.690   0.054 -0.0316 -0.1790 -0.0345
  567DG     O1013028   0.722   3.752  -0.283 -0.4878 -0.5076 -0.2704
  567DG     C1113029   0.442   3.816   0.066  0.1886 -0.1021 -0.6611
  567DG     C1213030   0.791   3.686  -0.180 -0.1902  0.2933 -0.5694
  567DG     H1313031   0.489   3.830   0.163 -0.5206 -0.9490 -0.1778
  567DG     H1413032   0.379   3.903   0.044  1.1000  0.6690 -0.2880
  567DG     H1513033   0.897   3.671  -0.200 -0.1919 -0.2694 -0.1830
  567DG     H1613034   0.745   3.588  -0.177  0.3017  0.0780  0.5030
  567DG     C1713035   0.555   3.820  -0.039 -0.0975 -0.3263 -0.0124
  567DG     C1813036   0.789   3.769  -0.048 -1.1202  0.3848  0.3343
  567DG     O1913037   0.667   3.758   0.034 -0.2816 -0.2186  0.1132
  567DG     H2013038   0.582   3.924  -0.056  0.2689 -0.2141  1.1526
  567DG     H2113039   0.525   3.777  -0.134 -0.2494  0.2555 -0.2285
  567DG     H2213040   0.870   3.728   0.012 -0.1860  2.6630  0.7154
  567DG     H2313041   0.819   3.872  -0.066  1.6443 -0.4910 -0.5920
  568DG      C113042   1.069   2.250   2.083  0.6786  0.4036 -0.5335
  568DG      C213043   0.837   1.863   1.703 -0.2948  0.0451 -0.9754
  568DG      H313044   1.086   2.308   1.992  1.0968  1.3318  0.1193
  568DG      H413045   1.135   2.163   2.076  0.2195  0.1465 -2.1672
  568DG      H513046   1.106   2.312   2.165  0.2569 -0.2825  0.1954
  568DG      H613047   0.735   1.857   1.743  0.3646  3.6488  1.7426
  568DG      H713048   0.823   1.964   1.664 -1.7917  0.2568  0.0112
  568DG      H813049   0.849   1.801   1.614  1.2955  1.1005 -1.5338
  568DG      O913050   0.937   2.195   2.102  0.0076 -0.8155  0.1039
  568DG     O1013051   0.939   1.849   1.802  0.2197 -0.5619 -0.0108
  568DG     C1113052   0.937   2.098   2.204 -0.0919  0.3253  0.1859
  568DG     C1213053   0.911   1.738   1.896 -0.0018 -0.6687 -0.4184
  568DG     H1313054   0.832   2.078   2.227 -1.3277  3.7250 -1.7880
  568DG     H1413055   0.974   2.134   2.300  0.4599  0.2601  0.0030
  568DG     H1513056   0.957   1.644   1.867 -0.2915 -1.4472  1.5203
  568DG     H1613057   0.806   1.733   1.924 -0.2631  2.4869 -0.3950
  568DG     C1713058   1.005   1.965   2.179  0.0843 -0.5022 -0.0933
  568DG     C1813059   0.989   1.784   2.019 -0.3873 -0.0474  0.1848
  568DG     O1913060   0.954   1.917   2.052 -0.5284 -0.4124  0.6556
  568DG     H2013061   0.990   1.896   2.262  0.4780 -2.2989 -1.4536
  568DG     H2113062   1.112   1.987   2.181 -0.3484  1.8420 -0.3165
  568DG     H2213063   0.972   1.718   2.105  1.8977 -0.5490  0.3103
  568DG     H2313064   1.095   1.777   1.995 -0.7978  0.4892 -1.9111
  569DG      C113065   1.193   0.904   4.890  0.0574  0.1778 -0.4287
  569DG      C213066   1.324   0.258   4.846  0.8660 -0.1211 -0.3743
  569DG      H313067   1.169   0.886   4.786  0.3605  1.1140 -0.6752
  569DG      H413068   1.218   1.010   4.887  0.9883 -0.0301 -0.4159
  569DG      H513069   1.104   0.899   4.954  1.1187  2.4811  1.3755
  569DG      H613070   1.236   0.221   4.899 -0.1281  3.3807  0.6881
  569DG      H713071   1.305   0.283   4.742  0.5030 -0.0230 -0.2868
  569DG      H813072   1.401   0.181   4.837 -0.3108 -1.4136  0.1518
  569DG      O913073   1.287   0.810   4.920  0.2797  0.1172 -0.4961
  569DG     O1013074   1.361   0.368   4.915  0.1750 -0.2362 -0.0435
  569DG     C1113075   1.348   0.823   5.055  0.1873 -0.3115 -0.7237
  569DG     C1213076   1.418   0.352   5.046  0.2202  0.9134  1.1762
  569DG     H1313077   1.282   0.835   5.141 -0.4860  0.4315 -1.3265
  569DG     H1413078   1.400   0.919   5.058  2.1912 -1.3686  0.9148
  569DG     H1513079   1.498   0.278   5.042 -1.0226 -0.4457  0.6243
  569DG     H1613080   1.335   0.314   5.106 -0.0176 -0.3875  0.0753
  569DG     C1713081   1.449   0.712   5.086 -0.0704 -0.6259 -0.6027
  569DG     C1813082   1.474   0.482   5.104  0.1992 -1.1937 -0.0741
  569DG     O1913083   1.386   0.589   5.064  0.5543 -0.1502  0.1577
  569DG     H2013084   1.492   0.724   5.185  0.3833  0.7029 -0.9423
  569DG     H2113085   1.536   0.736   5.026 -0.2367  2.1720  0.1457
  569DG     H2213086   1.478   0.479   5.213  0.6863 -1.0740 -0.0884
  569DG     H2313087   1.565   0.506   5.048 -1.6939  0.0626 -2.8775
  570DG      C113088   3.141   1.383   2.929 -0.8863  0.2324 -0.5141
  570DG      C213089   3.503   1.740   3.472 -0.3240 -0.2273  0.0388
  570DG      H313090   3.169   1.447   3.012  4.0955 -0.1878 -1.5616
  570DG      H413091   3.034   1.406   2.926 -0.8314  0.8959  1.2269
  570DG      H513092   3.187   1.435   2.845  0.7963 -0.3308  0.0228
  570DG      H613093   3.610   1.731   3.458 -0.3641 -0.9958  0.1966
  570DG      H713094   3.465   1.822   3.410  1.9388  1.3472  0.6128
  570DG      H813095   3.495   1.758   3.580 -1.4683 -1.7895  0.2516
  570DG      O913096   3.179   1.242   2.938 -0.2149  0.4584  0.1827
  570DG     O1013097   3.442   1.616   3.427 -0.0080  0.4818  0.3680
  570DG     C1113098   3.322   1.233   2.956 -0.6199  0.2585 -0.2000
  570DG     C1213099   3.444   1.585   3.290 -0.1140  0.3353  0.9990
  570DG     H1313100   3.377   1.296   2.886 -0.3865  0.5311  0.2283
  570DG     H1413101   3.350   1.137   2.913  1.5221  0.3166  0.9739
  570DG     H1513102   3.548   1.606   3.263  0.1071 -1.1543  0.5825
  570DG     H1613103   3.376   1.655   3.241  2.5174  1.5577 -1.1553
  570DG     C1713104   3.372   1.264   3.096 -0.4953  0.1463  0.0255
  570DG     C1813105   3.422   1.439   3.254  0.1082  0.0122  0.0427
  570DG     O1913106   3.381   1.411   3.120 -0.0792 -0.2457 -0.7098
  570DG     H2013107   3.465   1.215   3.124  0.7507  2.3703 -0.0678
  570DG     H2113108   3.297   1.219   3.161 -0.4529  1.2867  0.8942
  570DG     H2213109   3.519   1.392   3.271  0.4833 -0.5833 -3.1258
  570DG     H2313110   3.357   1.395   3.330  3.2163 -2.0688  1.7097
  571DG      C113111   0.792   4.980   2.053  0.2330 -0.8231  0.0570
  571DG      C213112   1.602   5.072   2.427 -0.0240  0.0402 -0.1082
  571DG      H313113   0.776   4.977   1.945 -1.4456  1.4790  0.1783
  571DG      H413114   0.715   5.046   2.092  1.4995  1.6968 -1.4234
  571DG      H513115   0.786   4.876   2.084  0.2320 -1.1260 -0.9276
  571DG      H613116   1.673   5.137   2.478  0.0316 -1.6383  2.0970
  571DG      H713117   1.545   5.015   2.500 -1.7738  0.0988 -1.3521
  571DG      H813118   1.648   4.994   2.366 -1.2869  0.2759 -1.4453
  571DG      O913119   0.915   5.050   2.079  0.8919  0.0805  0.6489
  571DG     O1013120   1.519   5.148   2.341 -0.1704 -0.5794  0.4450
  571DG     C1113121   0.938   5.105   2.204  0.6369  0.7766  0.1656
  571DG     C1213122   1.407   5.071   2.300 -0.5102 -0.0450 -0.0813
  571DG     H1313123   0.929   5.040   2.291  2.1513  1.7745  1.1088
  571DG     H1413124   0.859   5.177   2.224 -1.0019 -0.5436 -1.3061
  571DG     H1513125   1.362   5.024   2.387  1.1715  2.5973  2.4018
  571DG     H1613126   1.439   4.994   2.230 -1.8709  1.0228 -1.9717
  571DG     C1713127   1.069   5.176   2.225  0.1342 -0.0144  0.2082
  571DG     C1813128   1.310   5.157   2.225 -0.0224 -0.0549  0.2432
  571DG     O1913129   1.184   5.091   2.214 -0.4185  0.4769  0.5763
  571DG     H2013130   1.064   5.218   2.326 -2.2470 -0.3915  0.2984
  571DG     H2113131   1.076   5.263   2.159 -2.2712 -1.2318 -1.7981
  571DG     H2213132   1.297   5.259   2.262 -0.3758  0.4697 -1.2736
  571DG     H2313133   1.345   5.178   2.124 -0.3004  1.7107  0.4875
  572DG      C113134   2.999   0.530   4.960 -0.2798 -0.4634  0.1438
  572DG      C213135   2.473   0.990   4.453  0.1818 -0.2389 -0.3701
  572DG      H313136   2.961   0.433   4.991 -0.3735 -0.3719  0.3181
  572DG      H413137   3.006   0.586   5.053  0.1149  0.5074 -0.4550
  572DG      H513138   3.091   0.541   4.902  0.2674 -1.0762  0.8808
  572DG      H613139   2.399   0.911   4.440  1.1829 -1.2325 -0.1814
  572DG      H713140   2.428   1.082   4.415 -0.7123 -0.2180  0.7147
  572DG      H813141   2.552   0.953   4.387 -2.4935 -1.6172 -3.0185
  572DG      O913142   2.905   0.602   4.877  0.1705 -0.3566 -0.3187
  572DG     O1013143   2.512   1.012   4.595  0.5110  0.3889 -0.0413
  572DG     C1113144   2.941   0.735   4.847  0.0823 -0.4279 -0.2536
  572DG     C1213145   2.575   0.904   4.646 -0.7547 -0.6362  0.5476
  572DG     H1313146   3.032   0.748   4.789  0.0784  0.8694  0.0021
  572DG     H1413147   2.959   0.789   4.940  0.3455 -0.0524 -0.5233
  572DG     H1513148   2.660   0.889   4.579  0.2827  0.1883  1.6386
  572DG     H1613149   2.509   0.817   4.640 -0.5687 -0.7554  0.1519
  572DG     C1713150   2.834   0.796   4.760  0.2295  0.3667 -0.4986
  572DG     C1813151   2.624   0.914   4.793 -0.6123  0.0978 -0.4032
  572DG     O1913152   2.715   0.811   4.835 -0.0860  0.1944 -0.2696
  572DG     H2013153   2.835   0.732   4.672  1.8188 -0.3268 -0.0104
  572DG     H2113154   2.872   0.896   4.740  1.8792 -0.3584 -1.1645
  572DG     H2213155   2.675   1.011   4.794  1.5799 -0.9377 -2.0882
  572DG     H2313156   2.534   0.916   4.854 -0.4696 -1.1758 -0.1219
  573DG      C113157   2.234   0.155   0.948 -0.1770 -0.1637  0.0438
  573DG      C213158   2.681   0.575   0.599 -0.2546  0.1212 -0.2703
  573DG      H313159   2.192   0.118   0.855 -1.2155 -0.8908  0.7882
  573DG      H413160   2.151   0.179   1.014  1.2865  0.1913  1.8233
  573DG      H513161   2.291   0.072   0.988  0.5447  0.3814  0.1785
  573DG      H613162   2.675   0.506   0.515 -1.3204  0.2132 -0.2844
  573DG      H713163   2.583   0.620   0.585  0.5169  1.9110 -0.1679
  573DG      H813164   2.754   0.653   0.581 -0.3213  0.5819  1.2717
  573DG      O913165   2.322   0.274   0.931  0.5355 -0.0290  0.3576
  573DG     O1013166   2.708   0.501   0.721  0.2203 -0.7955  0.3349
  573DG     C1113167   2.357   0.339   1.054 -0.1061 -0.1575  0.1591
  573DG     C1213168   2.679   0.577   0.835  0.6336 -0.4592  0.2832
  573DG     H1313169   2.396   0.275   1.132  0.7422 -0.8068 -0.7658
  573DG     H1413170   2.269   0.384   1.100  0.1805 -1.0781  1.6710
  573DG     H1513171   2.584   0.631   0.836  0.4409 -0.7886  1.0914
  573DG     H1613172   2.744   0.663   0.847  0.4760 -0.5028  1.5229
  573DG     C1713173   2.461   0.449   1.037  0.4128  0.1818  0.3321
  573DG     C1813174   2.693   0.483   0.959 -0.4490  0.2368  0.2005
  573DG     O1913175   2.578   0.400   0.980 -0.4094 -0.4882  0.4472
  573DG     H2013176   2.478   0.489   1.137 -0.2056  1.5465 -0.0898
  573DG     H2113177   2.418   0.536   0.989 -0.5846 -0.4845 -0.0116
  573DG     H2213178   2.785   0.426   0.945 -0.7481  0.0407 -1.0518
  573DG     H2313179   2.701   0.545   1.049  0.3020  1.0949 -0.4336
  574DG      C113180   5.064   3.552   1.101 -0.1497 -0.1930  0.2417
  574DG      C213181   4.552   3.347   1.409 -0.0239  0.7638  0.0896
  574DG      H313182   5.091   3.498   1.009 -2.6605 -1.4751  0.1684
  574DG      H413183   5.097   3.485   1.180  0.0252 -0.4036 -0.0058
  574DG      H513184   5.121   3.643   1.121 -0.2098 -0.4472  1.6082
  574DG      H613185   4.594   3.390   1.500  1.1204  2.0012 -0.9861
  574DG      H713186   4.447   3.342   1.437  0.2619 -0.3639  1.0589
  574DG      H813187   4.594   3.247   1.393  1.9085  1.5267  0.1416
  574DG      O913188   4.928   3.570   1.109  0.1583  0.0156 -0.1305
  574DG     O1013189   4.553   3.453   1.315  0.0272 -0.3770 -0.6281
  574DG     C1113190   4.872   3.605   0.986 -0.1987  0.3183  0.4286
  574DG     C1213191   4.483   3.422   1.196 -0.4551  0.0884  0.2553
  574DG     H1313192   4.885   3.516   0.924  1.4812  1.2179 -0.5442
  574DG     H1413193   4.911   3.687   0.927 -0.7007 -0.9072 -1.7215
  574DG     H1513194   4.375   3.432   1.203 -0.4263  1.7861 -1.1240
  574DG     H1613195   4.501   3.323   1.152  0.2497  1.3461 -2.5185
  574DG     C1713196   4.721   3.624   1.006 -0.6095 -1.2606  1.3909
  574DG     C1813197   4.527   3.524   1.089  0.2186 -0.2007  0.2880
  574DG     O1913198   4.665   3.513   1.075  0.0800 -0.0642  0.5326
  574DG     H2013199   4.674   3.631   0.909  0.2697 -1.5251  0.9353
  574DG     H2113200   4.711   3.716   1.063 -1.0686  1.1504 -2.2858
  574DG     H2213201   4.482   3.516   0.990  1.4104  1.8546 -0.4783
  574DG     H2313202   4.506   3.622   1.132 -0.5736  0.0847 -0.6997
  575DG      C113203   0.473   2.610   2.395 -0.6273 -0.4538  0.0431
  575DG      C213204   0.876   2.246   2.907  0.2990  0.1317  0.2480
  575DG      H313205   0.463   2.717   2.377  0.6155  0.3739  3.4313
  575DG      H413206   0.529   2.597   2.488 -1.1180  1.1897  0.6161
  575DG      H513207   0.373   2.570   2.410 -0.4795 -0.1341  2.1906
  575DG      H613208   0.824   2.323   2.965  0.2229  0.2248  0.0572
  575DG      H713209   0.855   2.149   2.951  0.2970  0.5575  1.2294
  575DG      H813210   0.981   2.268   2.926  0.1310 -0.0051  1.4391
  575DG      O913211   0.545   2.553   2.284 -0.2883  0.1150  0.2363
  575DG     O1013212   0.847   2.242   2.769 -0.0606 -0.1226  0.3231
  575DG     C1113213   0.610   2.428   2.305  0.4463  0.7559 -0.0445
  575DG     C1213214   0.849   2.372   2.713  0.9725  0.2135 -0.3738
  575DG     H1313215   0.604   2.368   2.214 -0.2162 -1.2425  1.2492
  575DG     H1413216   0.560   2.373   2.385  2.5817  0.4176  1.1215
  575DG     H1513217   0.932   2.436   2.743 -1.2562  2.0601  2.4349
  575DG     H1613218   0.773   2.437   2.755  0.8097 -0.1598 -0.0801
  575DG     C1713219   0.753   2.455   2.354 -0.4185  0.1400  0.7159
  575DG     C1813220   0.806   2.359   2.564 -0.0262  1.1479 -0.5085
  575DG     O1913221   0.777   2.472   2.488  0.2440 -0.0140 -0.3238
  575DG     H2013222   0.784   2.544   2.298 -1.8480  0.1793 -0.0510
  575DG     H2113223   0.816   2.377   2.310 -0.5344 -0.3057  1.3449
  575DG     H2213224   0.883   2.306   2.508 -0.0299  0.8385 -0.2229
  575DG     H2313225   0.716   2.300   2.549  1.0698 -0.2568 -1.8828
  576DG      C113226   0.718   4.910   0.491  0.4556  0.3557  0.3633
  576DG      C213227   0.809   5.260  -0.005 -0.1759  0.2968 -0.0167
  576DG      H313228   0.727   4.803   0.507 -1.0450  0.2699  0.8185
  576DG      H413229   0.618   4.953   0.492  1.5390  3.0975  1.1814
  576DG      H513230   0.764   4.949   0.582 -0.5418 -2.3588  2.1623
  576DG      H613231   0.710   5.288   0.031  0.3143  1.7514  0.2775
  576DG      H713232   0.878   5.304   0.066 -0.5531  0.2690  0.3717
  576DG      H813233   0.808   5.306  -0.104  2.2848  0.3989 -0.0591
  576DG      O913234   0.791   4.939   0.374 -0.4987  0.1591  0.0826
  576DG     O1013235   0.834   5.119   0.000  0.9225  0.5282  0.7524
  576DG     C1113236   0.927   4.895   0.373 -0.5005  0.0395  0.1367
  576DG     C1213237   0.965   5.088  -0.029  0.0125 -0.6598 -0.1609
  576DG     H1313238   0.926   4.786   0.378 -0.4941  0.0854  1.6523
  576DG     H1413239   0.981   4.947   0.452 -0.0670  0.0193 -0.1416
  576DG     H1513240   1.039   5.139   0.031 -1.2040 -0.5539  1.3043
  576DG     H1613241   0.982   5.099  -0.137 -1.7277  0.7047 -0.3412
  576DG     C1713242   0.995   4.935   0.242  0.0253 -0.0787  0.8334
  576DG     C1813243   0.986   4.943   0.009  0.5660  0.5789  0.6029
  576DG     O1913244   0.920   4.900   0.128 -0.2837  0.2190  0.1227
  576DG     H2013245   1.099   4.911   0.218  0.0109  1.0829 -0.5163
  576DG     H2113246   1.006   5.043   0.240  0.8581 -0.1332  1.8867
  576DG     H2213247   0.949   4.872  -0.065 -1.8611 -0.8181  2.9906
  576DG     H2313248   1.092   4.919   0.000  0.6696  0.9907  0.7411
  577DG      C113249   1.843   4.714   1.959  0.0286 -0.8487 -0.1141
  577DG      C213250   0.998   4.692   1.999  0.4961 -0.9393  0.0102
  577DG      H313251   1.923   4.660   1.908 -0.0623 -0.3540 -0.7939
  577DG      H413252   1.875   4.768   2.047  0.0110  0.3876 -0.8481
  577DG      H513253   1.809   4.793   1.892  1.6549 -0.0200 -0.0046
  577DG      H613254   1.010   4.783   2.059  0.3990 -1.4776  0.8636
  577DG      H713255   1.003   4.714   1.893  0.6293  2.3786  0.5876
  577DG      H813256   0.901   4.641   2.001  0.2044 -0.3944  1.4529
  577DG      O913257   1.743   4.625   2.007  0.4215  0.2232  0.9253
  577DG     O1013258   1.105   4.607   2.029  0.2647  0.1218 -0.3535
  577DG     C1113259   1.688   4.536   1.910 -0.3408  0.6680  0.3925
  577DG     C1213260   1.237   4.661   2.031  0.8090  0.2835 -0.4659
  577DG     H1313261   1.746   4.445   1.908 -0.3501  0.6715 -1.0898
  577DG     H1413262   1.688   4.571   1.807 -2.3906 -0.7131 -0.1458
  577DG     H1513263   1.259   4.713   2.124  2.8146 -2.6693  0.8577
  577DG     H1613264   1.236   4.723   1.941 -1.3514 -1.4641 -1.7547
  577DG     C1713265   1.549   4.484   1.960 -0.6492  0.1613 -0.6807
  577DG     C1813266   1.335   4.539   2.023  0.5178 -0.9606  0.2692
  577DG     O1913267   1.459   4.593   1.969  0.4820  0.4414  0.1794
  577DG     H2013268   1.556   4.440   2.059  0.5547  0.1979 -0.7283
  577DG     H2113269   1.524   4.403   1.891  1.9315 -1.0158 -0.3529
  577DG     H2213270   1.359   4.513   2.126  0.1024  1.4919  1.0499
  577DG     H2313271   1.293   4.454   1.969  0.1111  0.5241 -1.9197
  578DG      C113272   2.962   3.227   0.370 -0.1794  0.6769  0.8767
  578DG      C213273   2.267   3.026   0.045  0.3433 -0.2734  0.2675
  578DG      H313274   3.009   3.219   0.468 -1.8384  1.0452  1.7506
  578DG      H413275   2.996   3.323   0.332 -1.6617  0.8477 -0.1176
  578DG      H513276   2.996   3.149   0.303 -0.4389  2.2346 -1.1670
  578DG      H613277   2.281   2.937  -0.016  0.7883  0.3249 -0.5212
  578DG      H713278   2.164   3.025   0.080  0.8518  1.4462  1.9481
  578DG      H813279   2.279   3.110  -0.024 -0.8371 -0.8475 -0.6830
  578DG      O913280   2.818   3.225   0.381 -0.6137  0.0390 -0.3127
  578DG     O1013281   2.361   3.020   0.153  0.2373  0.6677  0.1577
  578DG     C1113282   2.785   3.114   0.465  0.2328  0.8398  0.4025
  578DG     C1213283   2.317   3.103   0.260 -0.6752  0.0587  0.3762
  578DG     H1313284   2.852   3.116   0.552  2.1247  2.8833 -0.9792
  578DG     H1413285   2.810   3.016   0.425 -1.6562 -0.3124  1.8897
  578DG     H1513286   2.217   3.073   0.291 -1.5158 -0.0533 -2.1536
  578DG     H1613287   2.302   3.208   0.234  0.7043  0.1189 -0.2936
  578DG     C1713288   2.629   3.124   0.480 -0.6014  0.0194 -0.4045
  578DG     C1813289   2.413   3.100   0.386 -0.2793  0.2382  0.1557
  578DG     O1913290   2.552   3.115   0.354 -0.3512  0.2722 -0.9595
  578DG     H2013291   2.611   3.220   0.528  0.0872 -1.0249  2.0670
  578DG     H2113292   2.600   3.046   0.550 -1.0481  1.8080  1.4818
  578DG     H2213293   2.385   3.183   0.451 -0.6637 -0.0559  0.3630
  578DG     H2313294   2.397   3.004   0.433  1.9403 -0.5820 -0.6455
  579DG      C113295   4.703   5.290   2.948 -0.0759  0.1159 -0.1521
  579DG      C213296   4.715   5.934   2.937 -0.5589 -0.6189 -0.1300
  579DG      H313297   4.619   5.332   2.894 -0.3730  1.1633  1.0854
  579DG      H413298   4.672   5.247   3.043  1.0878  1.3510  0.8398
  579DG      H513299   4.766   5.223   2.889  2.0906 -0.2329  2.3318
  579DG      H613300   4.641   5.920   2.858 -1.9281 -2.0896  1.3305
  579DG      H713301   4.696   6.031   2.983  0.0169  0.0397 -1.2497
  579DG      H813302   4.815   5.931   2.893  0.2414  0.3513  1.5158
  579DG      O913303   4.780   5.407   2.978  0.3357  0.5081  0.0178
  579DG     O1013304   4.700   5.832   3.037 -0.0569  0.1928 -0.5839
  579DG     C1113305   4.885   5.398   3.070 -0.2565  0.5825  0.1018
  579DG     C1213306   4.791   5.844   3.149 -0.2503  0.0045  0.0142
  579DG     H1313307   4.963   5.325   3.050 -1.5688 -0.8440 -0.0456
  579DG     H1413308   4.839   5.345   3.154 -0.8196 -0.2864 -0.7251
  579DG     H1513309   4.732   5.826   3.239 -1.8495  2.6806 -0.3892
  579DG     H1613310   4.814   5.950   3.165  1.8281 -0.2358 -1.0256
  579DG     C1713311   4.954   5.527   3.093 -0.0546 -0.6026  0.5417
  579DG     C1813312   4.911   5.757   3.124 -0.2086  0.1512 -0.5482
  579DG     O1913313   4.856   5.629   3.112  0.6566  0.3428  0.0565
  579DG     H2013314   5.012   5.554   3.005  0.6379 -2.4775  0.3913
  579DG     H2113315   5.029   5.500   3.168  0.4788 -0.4056  0.0852
  579DG     H2213316   4.977   5.777   3.040  1.9376  0.1880  1.0500
  579DG     H2313317   4.976   5.761   3.212 -1.4258 -1.5222  0.4760
  580DG      C113318   1.693   1.405   3.050  0.1487  0.0314  0.0199
  580DG      C213319   2.240   1.676   3.418  0.6541  0.0960 -0.2204
  580DG      H313320   1.633   1.486   3.010 -1.0816  0.1162  1.9296
  580DG      H413321   1.671   1.426   3.155 -2.9636  2.6027 -1.0131
  580DG      H513322   1.637   1.312   3.036 -2.6005  1.2407  2.1012
  580DG      H613323   2.165   1.680   3.497  0.6922  0.7493 -0.2121
  580DG      H713324   2.332   1.637   3.461 -0.5560 -2.7291  0.0207
  580DG      H813325   2.244   1.769   3.361 -1.1727  1.8848  2.3457
  580DG      O913326   1.831   1.387   3.027 -0.7247 -0.2352  0.1460
  580DG     O1013327   2.198   1.566   3.334  0.3799  0.8575  0.2110
  580DG     C1113328   1.894   1.272   3.091  0.6988  0.2006 -0.1750
  580DG     C1213329   2.237   1.576   3.198  0.1415 -0.6727 -0.4400
  580DG     H1313330   1.851   1.180   3.051  0.3469  1.1176 -2.0266
  580DG     H1413331   1.872   1.276   3.198 -2.1197 -0.1337 -0.6788
  580DG     H1513332   2.340   1.611   3.194 -0.6749  3.1383  3.5024
  580DG     H1613333   2.171   1.650   3.153  0.2832  0.6946  1.4459
  580DG     C1713334   2.043   1.279   3.071 -0.7936  0.3508  0.3161
  580DG     C1813335   2.223   1.436   3.132 -0.7912  0.3199  0.3647
  580DG     O1913336   2.084   1.398   3.145 -0.5495 -0.1341  0.2078
  580DG     H2013337   2.067   1.285   2.965 -2.6979 -1.7910 -0.3138
  580DG     H2113338   2.089   1.189   3.111  1.0873  1.1630  0.0918
  580DG     H2213339   2.253   1.433   3.027 -2.3254  2.2117 -0.1956
  580DG     H2313340   2.292   1.360   3.167  0.6424  2.2341  1.9216
  581DG      C113341   3.511   1.711   1.222  0.8934  0.2253 -0.3570
  581DG      C213342   2.957   1.129   1.339 -0.2851 -0.5332  0.4875
  581DG      H313343   3.591   1.739   1.155  0.4617 -0.4600 -1.1785
  581DG      H413344   3.520   1.781   1.305 -0.1014  0.3615 -0.3536
  581DG      H513345   3.415   1.737   1.178  0.5131  1.3802  1.0577
  581DG      H613346   2.920   1.166   1.435  0.9359 -0.4888  0.9589
  581DG      H713347   2.901   1.191   1.269 -0.2531 -0.6714  0.3389
  581DG      H813348   2.939   1.026   1.307  1.5246 -0.4479 -1.0088
  581DG      O913349   3.513   1.577   1.272 -0.1156 -0.1921  0.4645
  581DG     O1013350   3.097   1.147   1.317 -0.2112 -0.1717  0.4078
  581DG     C1113351   3.497   1.480   1.179 -0.3402  0.6712  0.1073
  581DG     C1213352   3.151   1.234   1.410  0.7032 -0.3494 -0.0297
  581DG     H1313353   3.592   1.466   1.127  0.8696  2.7467  1.5786
  581DG     H1413354   3.416   1.497   1.109 -1.2266 -1.3020  0.5745
  581DG     H1513355   3.138   1.195   1.511 -0.7489  1.7732  0.6591
  581DG     H1613356   3.102   1.331   1.405 -1.1851 -1.3006 -1.6804
  581DG     C1713357   3.461   1.348   1.246  0.0221 -0.6704  1.0066
  581DG     C1813358   3.300   1.238   1.375 -0.1425  0.2418 -0.2877
  581DG     O1913359   3.325   1.345   1.277  0.5002  0.4805 -0.5376
  581DG     H2013360   3.524   1.327   1.333  0.0959 -0.3037  1.0459
  581DG     H2113361   3.485   1.257   1.191  2.5327  0.9115 -0.7343
  581DG     H2213362   3.352   1.261   1.468 -1.2886  0.0840  0.3979
  581DG     H2313363   3.335   1.140   1.344 -2.5671 -0.1126 -2.1423
  582DG      C113364   2.639   4.232   2.382 -0.7935 -0.2223 -0.0263
  582DG      C213365   2.207   4.737   1.965 -0.3302  0.3628 -0.9055
  582DG      H313366   2.582   4.143   2.408 -1.0632  0.1459  0.6903
  582DG      H413367   2.698   4.270   2.466  1.3685 -1.2320 -1.0058
  582DG      H513368   2.694   4.232   2.288 -0.8354 -0.6121 -0.0535
  582DG      H613369   2.273   4.671   1.908  1.7370  0.0617  1.6354
  582DG      H713370   2.131   4.779   1.899 -1.2814  0.5273  0.2651
  582DG      H813371   2.262   4.815   2.017 -2.5727  2.2775 -1.2401
  582DG      O913372   2.540   4.334   2.366  0.0707  0.0504  0.2543
  582DG     O1013373   2.141   4.677   2.067  0.1626  0.1070  0.4881
  582DG     C1113374   2.426   4.319   2.456 -0.0042  0.8257  0.3535
  582DG     C1213375   2.232   4.578   2.121  0.0020 -0.5502  0.3607
  582DG     H1313376   2.442   4.329   2.563 -3.0888  1.1238  0.8981
  582DG     H1413377   2.371   4.226   2.442  2.0049 -0.2214 -1.0703
  582DG     H1513378   2.332   4.619   2.138 -0.2165 -0.3119  1.1434
  582DG     H1613379   2.261   4.491   2.063  2.8173 -0.5923  1.6270
  582DG     C1713380   2.327   4.440   2.425  0.3899  0.3674 -0.1060
  582DG     C1813381   2.169   4.529   2.256  0.0301  0.0224  0.6550
  582DG     O1913382   2.249   4.419   2.307 -0.1224  0.1448 -0.0299
  582DG     H2013383   2.381   4.535   2.423 -0.6957  0.9873 -0.4233
  582DG     H2113384   2.252   4.453   2.503 -0.2310 -1.9846 -0.2375
  582DG     H2213385   2.151   4.616   2.319  0.8069  0.6326  0.0575
  582DG     H2313386   2.073   4.482   2.233  0.1487  0.1775 -0.1857
  583DG      C113387   1.753   3.453   1.835 -0.5253 -0.9460  0.4121
  583DG      C213388   2.060   3.673   2.001 -0.1233  0.3706 -0.2485
  583DG      H313389   1.775   3.506   1.927  0.8309 -1.1823  0.2491
  583DG      H413390   1.817   3.364   1.834 -1.3915 -1.6072  1.4440
  583DG      H513391   1.648   3.427   1.845 -0.7480 -0.2371 -0.0244
  583DG      H613392   2.124   3.738   1.943  0.4365  1.4186  1.4585
  583DG      H713393   2.136   3.605   2.041  0.9535  0.8574 -1.4135
  583DG      H813394   1.997   3.605   1.945 -0.5113 -0.2199  0.8652
  583DG      O913395   1.791   3.538   1.728  1.1143 -0.2106  0.6937
  583DG     O1013396   2.018   3.731   2.121  0.1242 -0.0501  0.4893
  583DG     C1113397   1.710   3.656   1.696  0.8852 -0.4529  0.2157
  583DG     C1213398   1.940   3.845   2.088 -0.4070 -0.0812 -0.8191
  583DG     H1313399   1.615   3.629   1.650  0.1619  2.1712  0.0186
  583DG     H1413400   1.770   3.693   1.613  0.8116 -2.1078 -0.6032
  583DG     H1513401   2.012   3.910   2.038 -0.3467 -0.7369 -1.5957
  583DG     H1613402   1.909   3.876   2.188 -0.3233 -2.6317  0.0531
  583DG     C1713403   1.695   3.751   1.814 -0.1253  0.2455 -0.1957
  583DG     C1813404   1.802   3.815   2.024  0.0706  0.8568  0.2563
  583DG     O1913405   1.817   3.769   1.888 -0.2499 -0.2652  0.0079
  583DG     H2013406   1.619   3.710   1.881  0.6686  0.3131  0.7644
  583DG     H2113407   1.673   3.854   1.786 -2.1933  0.2977  1.4302
  583DG     H2213408   1.740   3.762   2.095  2.4077 -0.7830  1.2091
  583DG     H2313409   1.760   3.916   2.021  0.2968  0.9652  0.6535
  584DG      C113410   3.882   1.874   3.581  0.3782 -0.3025  0.1030
  584DG      C213411   3.626   1.611   2.945  0.6139 -0.7268  0.6162
  584DG      H313412   3.907   1.943   3.500  1.6979 -1.6687 -0.7114
  584DG      H413413   3.949   1.877   3.667  0.3094 -1.0071  0.1831
  584DG      H513414   3.784   1.893   3.624  0.2429 -2.5189  0.8748
  584DG      H613415   3.690   1.602   2.857  0.1548  0.7418  0.0952
  584DG      H713416   3.535   1.551   2.941  0.3740 -0.4116  1.2568
  584DG      H813417   3.572   1.706   2.942 -0.9522 -1.5361  1.8746
  584DG      O913418   3.867   1.737   3.557 -0.1010  0.3280 -0.3833
  584DG     O1013419   3.694   1.586   3.063 -0.3952  0.4596 -0.2213
  584DG     C1113420   3.981   1.674   3.511 -0.0125 -0.2541  0.5025
  584DG     C1213421   3.794   1.680   3.090 -0.0926  1.0402  0.2316
  584DG     H1313422   3.972   1.567   3.530  1.3380 -0.7506 -1.3919
  584DG     H1413423   4.063   1.698   3.579  0.4569 -0.3507 -0.0294
  584DG     H1513424   3.743   1.773   3.115 -1.2756  0.3913  0.3013
  584DG     H1613425   3.862   1.703   3.008 -0.1607  0.1438 -0.0814
  584DG     C1713426   4.035   1.725   3.373  0.0704 -0.9405  0.2206
  584DG     C1813427   3.866   1.635   3.220  0.7150  0.8382 -0.0292
  584DG     O1913428   3.940   1.742   3.271 -0.1955  0.4308  0.2732
  584DG     H2013429   4.122   1.664   3.348  0.7533 -0.2516  0.8286
  584DG     H2113430   4.080   1.824   3.377 -3.3639  0.7592  0.0894
  584DG     H2213431   3.796   1.603   3.297 -0.2344  1.2644 -0.6859
  584DG     H2313432   3.933   1.550   3.209  2.1674  1.9603 -0.1691
  585DG      C113433   3.433   4.097   5.212  0.0643  0.5862  0.2275
  585DG      C213434   3.554   4.085   4.344 -0.7045 -0.1600 -0.4534
  585DG      H313435   3.470   4.085   5.313  0.7048  0.8007  0.0245
  585DG      H413436   3.348   4.031   5.193  0.4259 -0.0576  0.8037
  585DG      H513437   3.383   4.193   5.221 -0.9079  0.1300 -0.1618
  585DG      H613438   3.533   4.174   4.286  1.7340  1.3443  0.8297
  585DG      H713439   3.651   4.068   4.297 -0.0559  0.7594  0.5042
  585DG      H813440   3.484   4.004   4.324 -2.0747  0.2508  2.2624
  585DG      O913441   3.542   4.106   5.114  0.2651 -1.7426  0.0123
  585DG     O1013442   3.572   4.109   4.488 -0.1112 -0.7474 -0.2894
  585DG     C1113443   3.494   4.154   4.983 -0.6902 -0.6430 -0.2136
  585DG     C1213444   3.627   4.239   4.524 -0.7814  0.3588 -0.1622
  585DG     H1313445   3.439   4.248   4.990 -0.7992 -0.3908 -3.2243
  585DG     H1413446   3.417   4.087   4.944 -1.1780 -0.8513  1.0335
  585DG     H1513447   3.562   4.321   4.496 -1.5245 -0.3646 -0.5942
  585DG     H1613448   3.717   4.252   4.464 -1.4176 -0.3686 -1.3160
  585DG     C1713449   3.617   4.168   4.886  0.3426 -0.3585 -0.2891
  585DG     C1813450   3.680   4.231   4.668 -0.9005 -0.1464  0.4231
  585DG     O1913451   3.573   4.189   4.754  0.2894 -0.4011  0.4457
  585DG     H2013452   3.694   4.090   4.885  1.1677  0.4100  0.9982
  585DG     H2113453   3.667   4.258   4.921 -0.3251  0.2446 -0.8737
  585DG     H2213454   3.766   4.165   4.666  1.6031  2.8442  0.4992
  585DG     H2313455   3.715   4.330   4.697 -0.9747 -0.5507  2.0147
  586DG      C113456   2.377   4.214   3.736  0.0852  0.2751  0.6349
  586DG      C213457   2.526   3.651   4.234 -0.5959 -1.1100  0.2981
  586DG      H313458   2.414   4.317   3.737 -0.6080  0.5475 -0.1186
  586DG      H413459   2.324   4.203   3.641 -2.2177 -1.4929  2.0000
  586DG      H513460   2.465   4.150   3.729  0.1203  0.3040  0.8162
  586DG      H613461   2.452   3.572   4.248  0.2005 -1.9492 -0.0685
  586DG      H713462   2.581   3.625   4.143  0.5814 -2.8412  1.4217
  586DG      H813463   2.593   3.655   4.321  1.1984 -2.8992 -0.8984
  586DG      O913464   2.299   4.194   3.851  0.1684 -0.3796  0.2732
  586DG     O1013465   2.474   3.780   4.227 -0.0937 -0.2892 -0.1919
  586DG     C1113466   2.369   4.225   3.973  0.2834 -0.1215  0.3166
  586DG     C1213467   2.345   3.785   4.164  0.3890 -0.4391  0.1618
  586DG     H1313468   2.355   4.330   3.996  0.3779 -0.0735  0.1566
  586DG     H1413469   2.474   4.200   3.958  0.5224  1.3539 -0.6089
  586DG     H1513470   2.278   3.722   4.223 -2.8521  1.1480 -1.5771
  586DG     H1613471   2.346   3.746   4.063 -1.0978 -0.5690  0.1727
  586DG     C1713472   2.309   4.146   4.091  0.3871 -0.2756  1.0301
  586DG     C1813473   2.275   3.923   4.158 -0.1379 -0.4112  0.0469
  586DG     O1913474   2.356   4.008   4.081 -0.6021  0.1082 -0.1850
  586DG     H2013475   2.201   4.157   4.082  0.7129  2.6841 -0.5453
  586DG     H2113476   2.331   4.188   4.190  0.7515  0.4965  0.6343
  586DG     H2213477   2.171   3.928   4.125  0.6174 -1.2139 -2.7154
  586DG     H2313478   2.272   3.952   4.264 -1.2795  0.1171 -0.1081
  587DG      C113479   0.181   4.438   3.148  0.6353  0.5807 -0.4004
  587DG      C213480   0.099   3.911   2.603  0.3120  0.3088 -0.3338
  587DG      H313481   0.288   4.457   3.145  0.4832  1.5324 -0.0954
  587DG      H413482   0.149   4.358   3.214  0.1911  2.3115  1.5681
  587DG      H513483   0.145   4.534   3.187  1.5674  0.7134  0.1685
  587DG      H613484   0.192   3.941   2.554 -0.3053  1.1649 -1.0220
  587DG      H713485   0.124   3.832   2.674 -0.9325 -0.5657 -0.8323
  587DG      H813486   0.024   3.883   2.528  1.1015  0.6294 -1.2655
  587DG      O913487   0.130   4.406   3.021  0.2726  0.2322 -0.0531
  587DG     O1013488   0.069   4.031   2.672  0.9073  0.3791  0.0207
  587DG     C1113489  -0.015   4.399   3.032 -0.2861  0.1993 -0.0581
  587DG     C1213490  -0.052   4.016   2.748  0.4755  0.4729 -0.1202
  587DG     H1313491  -0.056   4.495   3.062 -3.3523 -1.2220  0.7052
  587DG     H1413492  -0.053   4.336   3.112  1.6718  0.8077  1.4319
  587DG     H1513493  -0.026   3.946   2.828  0.4615 -0.4325 -0.8811
  587DG     H1613494  -0.123   3.959   2.687  0.2342  2.1310 -1.4531
  587DG     C1713495  -0.081   4.368   2.901  0.3680  0.3126  0.9385
  587DG     C1813496  -0.116   4.152   2.772 -0.1670 -0.2324 -0.5913
  587DG     O1913497  -0.041   4.231   2.864  0.2270 -0.1834 -0.5176
  587DG     H2013498  -0.063   4.440   2.821 -0.2441 -0.2337  0.2912
  587DG     H2113499  -0.189   4.372   2.916  0.1370 -2.5984  0.6189
  587DG     H2213500  -0.127   4.206   2.678  0.8153 -1.5790 -1.5112
  587DG     H2313501  -0.216   4.137   2.815  0.0414  0.1611  0.0456
  588DG      C113502   3.529   1.750   0.749  0.8441 -0.4667 -0.1105
  588DG      C213503   4.099   2.338   0.723  0.8237 -0.6799 -0.1914
  588DG      H313504   3.554   1.707   0.846 -2.0573 -2.1626  0.0328
  588DG      H413505   3.462   1.681   0.697 -1.2452  2.5598 -1.7293
  588DG      H513506   3.478   1.845   0.761  1.2105 -0.3965  0.9804
  588DG      H613507   4.008   2.396   0.738  1.7051  1.7024 -3.1004
  588DG      H713508   4.151   2.310   0.815 -1.7725  0.5754  1.7821
  588DG      H813509   4.160   2.386   0.647  1.5054 -0.4673  0.4788
  588DG      O913510   3.639   1.767   0.657  0.1407  0.4303 -0.2924
  588DG     O1013511   4.056   2.208   0.688 -0.3056  0.0407  0.4210
  588DG     C1113512   3.717   1.879   0.687 -0.2206 -0.4685  0.3033
  588DG     C1213513   4.052   2.188   0.547  0.4732  0.4723  0.8390
  588DG     H1313514   3.758   1.873   0.788  0.7605  3.4206  0.2889
  588DG     H1413515   3.656   1.969   0.697  0.8718  0.3656 -0.2715
  588DG     H1513516   4.148   2.203   0.498  0.9754 -0.8174  1.3704
  588DG     H1613517   3.976   2.250   0.502 -2.1665 -0.6736  3.3709
  588DG     C1713518   3.827   1.901   0.590 -0.3561 -0.1949  0.6291
  588DG     C1813519   4.003   2.040   0.519 -0.0735 -0.3714 -0.2815
  588DG     O1913520   3.885   2.030   0.599  0.1181 -0.3064 -0.2258
  588DG     H2013521   3.776   1.900   0.493 -1.9401  0.7643  1.4066
  588DG     H2113522   3.903   1.824   0.601 -0.2125 -0.0874  0.3922
  588DG     H2213523   3.980   2.013   0.416 -1.9923  1.8461 -0.5134
  588DG     H2313524   4.081   1.967   0.541 -1.1767 -1.9266 -1.2414
  589DG      C113525   4.717   2.454   0.566 -0.7224 -0.4630  0.4294
  589DG      C213526   4.256   1.995   0.263 -0.5554  0.3967  0.7719
  589DG      H313527   4.615   2.479   0.597 -0.9070 -0.0368 -0.5005
  589DG      H413528   4.764   2.551   0.554  1.2597 -1.2722  1.1871
  589DG      H513529   4.776   2.418   0.650  0.8885  2.9044  0.8685
  589DG      H613530   4.175   2.068   0.257 -2.9670 -2.0766  1.3785
  589DG      H713531   4.255   1.933   0.173 -0.8200  1.3275  0.1176
  589DG      H813532   4.241   1.935   0.352  1.2886 -1.3009  0.0217
  589DG      O913533   4.722   2.370   0.453  0.4930 -0.5034 -0.1317
  589DG     O1013534   4.377   2.068   0.247 -0.4649 -0.2179  0.3087
  589DG     C1113535   4.648   2.421   0.340 -0.4570  0.2660 -0.9489
  589DG     C1213536   4.492   1.993   0.229 -0.0527  0.4740  0.8009
  589DG     H1313537   4.682   2.515   0.297  1.8669  0.6796  1.5670
  589DG     H1413538   4.545   2.430   0.375  0.1903 -0.0181  1.1324
  589DG     H1513539   4.487   1.920   0.149  1.0463  0.1018  1.0629
  589DG     H1613540   4.517   1.944   0.323 -0.1395 -0.7680  0.1977
  589DG     C1713541   4.660   2.322   0.223 -0.6035  0.5799 -0.3719
  589DG     C1813542   4.599   2.095   0.186  0.1951  0.1112  0.1868
  589DG     O1913543   4.616   2.195   0.278  0.3316  0.0619 -0.3452
  589DG     H2013544   4.765   2.326   0.194 -0.6162 -0.1440 -0.5523
  589DG     H2113545   4.599   2.375   0.149  0.4230  2.5457  0.1142
  589DG     H2213546   4.695   2.043   0.183 -0.4698 -1.1147 -1.4341
  589DG     H2313547   4.570   2.130   0.087  1.6598 -0.5653 -0.5127
  590DG      C113548   5.020   2.900   5.427 -0.7056 -0.1605  0.7015
  590DG      C213549   4.702   3.132   5.184 -0.0453 -0.5029  0.0445
  590DG      H313550   5.109   2.857   5.472  1.1139  0.8071 -1.7398
  590DG      H413551   4.967   2.822   5.372  0.8389  0.3267 -1.6285
  590DG      H513552   4.951   2.937   5.502 -1.8776  1.3558 -1.0286
  590DG      H613553   4.793   3.152   5.128  0.5296 -1.5734  0.5650
  590DG      H713554   4.731   3.067   5.266 -1.0150 -0.0444  0.7709
  590DG      H813555   4.629   3.080   5.121 -0.9405  0.6892  0.0720
  590DG      O913556   5.052   3.010   5.340  0.4105 -0.3631  0.5052
  590DG     O1013557   4.628   3.245   5.232  0.1520  0.6072  0.2033
  590DG     C1113558   5.096   3.133   5.402  1.0852 -0.0496 -0.1159
  590DG     C1213559   4.680   3.286   5.356  0.8836 -0.6635 -0.8556
  590DG     H1313560   5.157   3.180   5.325  0.7101 -2.5943 -2.0921
  590DG     H1413561   5.163   3.105   5.483 -0.3922 -0.6416  0.9657
  590DG     H1513562   4.688   3.211   5.435 -0.8686  0.1783  0.1848
  590DG     H1613563   4.598   3.343   5.398  2.2012 -0.7814  2.1786
  590DG     C1713564   4.980   3.222   5.444 -0.0018 -0.5145 -0.0497
  590DG     C1813565   4.813   3.363   5.342  0.4296 -0.5975  0.1953
  590DG     O1913566   4.936   3.291   5.329  0.4430  0.3414 -0.0024
  590DG     H2013567   5.008   3.294   5.520 -0.4352 -0.3794 -0.0170
  590DG     H2113568   4.890   3.172   5.479  0.5730 -0.6921  1.2281
  590DG     H2213569   4.796   3.434   5.261  0.6782 -0.4690  0.2554
  590DG     H2313570   4.817   3.417   5.437  1.2077  0.1827 -0.2654
  591DG      C113571   4.492   1.943   4.879  0.4759 -0.2818  0.5514
  591DG      C213572   4.670   1.684   5.404 -0.7391  0.5524  0.2503
  591DG      H313573   4.494   2.015   4.960  2.1618 -1.6948  1.8440
  591DG      H413574   4.394   1.895   4.877 -0.1273  0.9455 -0.3557
  591DG      H513575   4.510   1.974   4.776 -0.1078 -0.8214  0.2778
  591DG      H613576   4.630   1.585   5.428 -2.0734  1.0938  0.3748
  591DG      H713577   4.657   1.747   5.492 -0.0838  0.9931  0.0330
  591DG      H813578   4.618   1.713   5.312  0.2631 -0.6054 -0.7163
  591DG      O913579   4.597   1.847   4.900 -0.1079 -0.2245 -0.2173
  591DG     O1013580   4.801   1.697   5.352  0.3994  0.1643 -0.6747
  591DG     C1113581   4.729   1.898   4.916  0.4532 -0.4648 -0.1231
  591DG     C1213582   4.873   1.825   5.357 -0.4418 -0.0323 -0.5321
  591DG     H1313583   4.752   1.972   4.840  1.5096 -0.9172 -0.2635
  591DG     H1413584   4.810   1.824   4.909  0.5336 -0.6533  2.0202
  591DG     H1513585   4.972   1.809   5.313 -0.9983  0.1851 -1.8992
  591DG     H1613586   4.888   1.855   5.460 -1.0817 -4.1065  0.9323
  591DG     C1713587   4.746   1.966   5.055  0.2981  0.2104  0.7298
  591DG     C1813588   4.811   1.932   5.278  0.1206  0.7873  0.1878
  591DG     O1913589   4.766   1.872   5.155  0.2647  0.3599 -0.1229
  591DG     H2013590   4.670   2.040   5.078  0.4828  0.7237 -0.2301
  591DG     H2113591   4.836   2.026   5.039  0.3259 -0.2179 -0.9296
  591DG     H2213592   4.723   1.969   5.331  1.6913  1.6795  2.3083
  591DG     H2313593   4.874   2.019   5.263  1.3008 -0.4243 -2.6324
  592DG      C113594   4.687   0.077   2.699 -0.0471 -0.0467  0.0873
  592DG      C213595   4.558   0.090   3.327 -0.3359  0.0686 -0.1013
  592DG      H313596   4.794   0.095   2.714 -0.1375  0.3133  0.3280
  592DG      H413597   4.664   0.089   2.593 -0.0504  0.0846  0.1020
  592DG      H513598   4.676  -0.030   2.714  1.0261 -0.2527 -0.4562
  592DG      H613599   4.666   0.094   3.340 -0.5405  0.7853  1.7254
  592DG      H713600   4.513   0.190   3.331 -1.5389 -0.3922 -1.2627
  592DG      H813601   4.519   0.029   3.409  0.0412 -0.5656 -0.3890
  592DG      O913602   4.611   0.165   2.777  0.0204  0.2806  0.3083
  592DG     O1013603   4.532   0.027   3.206 -0.0210 -0.0152 -0.1359
  592DG     C1113604   4.472   0.162   2.735 -0.3109  0.2173 -0.7260
  592DG     C1213605   4.393   0.005   3.182 -0.7707  0.5552 -0.5169
  592DG     H1313606   4.460   0.149   2.628  0.4129 -1.6102 -0.6181
  592DG     H1413607   4.422   0.257   2.755 -0.1355 -0.3189  3.1699
  592DG     H1513608   4.333   0.092   3.206  1.2017  1.7518  0.2664
  592DG     H1613609   4.355  -0.079   3.241  0.7207  0.7132  0.7451
  592DG     C1713610   4.384   0.058   2.812  0.1332  0.4097 -0.1587
  592DG     C1813611   4.370  -0.032   3.037 -0.5867 -0.6414 -0.3586
  592DG     O1913612   4.425   0.069   2.949  0.0126  0.7824  0.2657
  592DG     H2013613   4.395  -0.042   2.770 -3.4145 -0.0257 -0.3542
  592DG     H2113614   4.279   0.074   2.788 -0.2518 -2.2812 -0.5861
  592DG     H2213615   4.424  -0.124   3.011 -0.0010  0.0621 -1.7162
  592DG     H2313616   4.265  -0.051   3.013 -0.9915  0.6276  0.3613
  593DG      C113617   4.661   4.500   5.402  0.3407  0.1004 -0.4889
  593DG      C213618   5.279   4.988   5.437  0.0407  0.3930 -0.4025
  593DG      H313619   4.607   4.469   5.313 -1.9317  1.6391  0.2812
  593DG      H413620   4.593   4.467   5.481  1.2057 -0.8486 -0.1042
  593DG      H513621   4.759   4.452   5.413 -0.3820 -1.1925  0.6537
  593DG      H613622   5.333   5.057   5.502  1.0052 -0.4762 -0.2592
  593DG      H713623   5.349   4.925   5.383 -1.1364 -0.7131 -0.6959
  593DG      H813624   5.241   5.046   5.353 -0.1248 -1.1392 -1.4236
  593DG      O913625   4.674   4.647   5.425  0.4637  0.0047 -0.0815
  593DG     O1013626   5.173   4.914   5.499 -0.2090 -0.0056 -0.4224
  593DG     C1113627   4.702   4.684   5.562 -0.1427 -0.3007 -0.4654
  593DG     C1213628   5.180   4.778   5.460 -0.1852 -0.3617 -0.6575
  593DG     H1313629   4.643   4.631   5.636 -0.3540  0.1983 -0.2716
  593DG     H1413630   4.676   4.790   5.566  1.6318  0.1934 -1.1370
  593DG     H1513631   5.281   4.741   5.478  0.7641  1.8876 -0.9713
  593DG     H1613632   5.159   4.776   5.353  0.7788  1.3144 -0.9124
  593DG     C1713633   4.849   4.665   5.594  0.2357  0.0215 -0.0305
  593DG     C1813634   5.079   4.701   5.544  0.2311 -0.4206  0.3307
  593DG     O1913635   4.943   4.723   5.512  0.0937 -0.6217  0.7348
  593DG     H2013636   4.863   4.559   5.613  0.4781 -0.0598 -0.6507
  593DG     H2113637   4.850   4.713   5.692 -0.8156  2.5567 -1.1542
  593DG     H2213638   5.095   4.594   5.534 -1.4030 -0.6013 -0.5900
  593DG     H2313639   5.090   4.727   5.649 -2.5752 -1.6162  1.0078
  594DG      C113640   0.773   1.254   2.598  0.6056 -0.4554 -0.3062
  594DG      C213641   0.268   1.329   2.118 -0.6530  0.3898 -0.1333
  594DG      H313642   0.839   1.205   2.670  1.7847  1.9083  0.3466
  594DG      H413643   0.737   1.343   2.651 -0.4236 -0.7370 -0.5193
  594DG      H513644   0.837   1.292   2.518  0.2130  1.4985  0.2494
  594DG      H613645   0.235   1.256   2.044 -2.6678 -0.5396  1.5629
  594DG      H713646   0.180   1.386   2.148 -0.0326  1.6987 -0.7233
  594DG      H813647   0.339   1.395   2.069  0.7131  0.2132  1.5242
  594DG      O913648   0.664   1.182   2.546  0.1649 -0.0699  0.1510
  594DG     O1013649   0.333   1.261   2.224 -0.2053  0.3375  1.0166
  594DG     C1113650   0.573   1.133   2.645  0.0405  1.1635  0.0390
  594DG     C1213651   0.236   1.183   2.299  0.1671  0.2389 -0.3520
  594DG     H1313652   0.536   1.216   2.707 -0.3549  0.1767  1.1600
  594DG     H1413653   0.627   1.061   2.705 -0.3389  1.9689  1.4108
  594DG     H1513654   0.174   1.139   2.221  0.9465  0.5322 -1.1602
  594DG     H1613655   0.175   1.242   2.367  0.8201  1.3282 -0.6907
  594DG     C1713656   0.465   1.056   2.564  0.0536  0.7577  0.3122
  594DG     C1813657   0.309   1.072   2.380 -0.2794  0.0227 -0.0068
  594DG     O1913658   0.402   1.134   2.464 -0.0450  0.0576 -0.0028
  594DG     H2013659   0.399   1.019   2.642  0.8316 -1.2056  0.0781
  594DG     H2113660   0.511   0.968   2.520 -0.1390 -0.1573  1.8754
  594DG     H2213661   0.247   1.007   2.441 -2.7937  0.8994 -1.4855
  594DG     H2313662   0.353   0.999   2.312 -0.1166 -0.5717  0.7271
  595DG      C113663   5.048   2.379   0.357  0.2273  0.3599 -0.0088
  595DG      C213664   5.576   3.089   0.694  0.3009  0.9140 -0.0312
  595DG      H313665   4.975   2.416   0.285 -0.6826 -0.3430  0.5315
  595DG      H413666   4.995   2.390   0.451  0.0813 -0.4254  0.0084
  595DG      H513667   5.061   2.272   0.340 -0.8388  0.3124 -0.5800
  595DG      H613668   5.523   3.167   0.638 -2.6683 -2.1856 -1.9746
  595DG      H713669   5.536   3.075   0.794 -0.1061 -0.4334 -0.3591
  595DG      H813670   5.681   3.115   0.703  0.5422 -0.4889  1.6532
  595DG      O913671   5.175   2.447   0.343 -0.2505 -0.2854  0.0856
  595DG     O1013672   5.573   2.968   0.617  0.0283 -0.3752  0.5693
  595DG     C1113673   5.175   2.579   0.398 -0.2571 -0.7637 -0.1544
  595DG     C1213674   5.445   2.937   0.584  0.3445 -0.6849  0.7270
  595DG     H1313675   5.121   2.596   0.490  0.5199  2.8997 -0.2452
  595DG     H1413676   5.111   2.636   0.330 -0.7375 -1.8210 -0.6212
  595DG     H1513677   5.405   3.017   0.522 -1.3769 -1.8232  0.2880
  595DG     H1613678   5.374   2.945   0.666 -1.4290  2.6701 -0.9022
  595DG     C1713679   5.321   2.623   0.427 -0.2547 -0.0163 -0.4508
  595DG     C1813680   5.450   2.799   0.509 -0.2863  0.5213  0.4619
  595DG     O1913681   5.318   2.754   0.480  0.4473 -0.5088  0.1348
  595DG     H2013682   5.390   2.611   0.343  0.3050  1.0209 -0.1526
  595DG     H2113683   5.346   2.562   0.514 -2.5425  0.6888  0.7865
  595DG     H2213684   5.503   2.804   0.414 -1.4089  0.6381 -0.1864
  595DG     H2313685   5.502   2.728   0.573  1.3341  0.2653 -1.0721
  596DG      C113686   4.430   0.694   1.949  0.1655  0.8827  0.2669
  596DG      C213687   4.674   0.053   1.719 -0.0387 -0.3198 -0.3636
  596DG      H313688   4.475   0.793   1.940  0.5953  0.7994  1.3623
  596DG      H413689   4.409   0.668   2.052  1.7413  0.0340  0.4023
  596DG      H513690   4.339   0.674   1.892  0.6170 -1.4088  0.2538
  596DG      H613691   4.659   0.094   1.818 -1.2113 -0.6038 -0.4045
  596DG      H713692   4.598  -0.024   1.705  0.3017 -0.8545  0.6818
  596DG      H813693   4.771   0.004   1.708  1.5440  2.1509  1.5420
  596DG      O913694   4.531   0.597   1.928  0.5609  0.1137  0.1047
  596DG     O1013695   4.652   0.145   1.605  0.1460  0.0222  0.0986
  596DG     C1113696   4.603   0.627   1.812  0.1031  0.1759 -0.1227
  596DG     C1213697   4.762   0.223   1.580 -0.1990 -0.5117 -0.0029
  596DG     H1313698   4.645   0.727   1.824  0.0101  0.0587  1.3774
  596DG     H1413699   4.550   0.619   1.717 -0.4314 -1.4828  0.2899
  596DG     H1513700   4.732   0.278   1.490 -1.5473 -0.9510  0.1544
  596DG     H1613701   4.850   0.162   1.557 -1.2107 -1.9187 -0.3078
  596DG     C1713702   4.722   0.528   1.805  1.0355  0.7691 -0.3953
  596DG     C1813703   4.784   0.331   1.690 -0.0936 -0.2250 -0.0419
  596DG     O1913704   4.677   0.415   1.727 -0.1043 -0.2389  0.2853
  596DG     H2013705   4.746   0.500   1.908  1.2229  1.1381 -0.3358
  596DG     H2113706   4.796   0.592   1.756 -0.5484  1.2583 -2.2536
  596DG     H2213707   4.814   0.289   1.786 -4.4396 -1.7305  0.8971
  596DG     H2313708   4.863   0.392   1.647 -2.2612  2.0321 -1.0663
  597DG      C113709   3.493   0.590   4.642 -0.6471  0.6169 -0.0888
  597DG      C213710   4.098   0.857   4.592  0.3182 -0.2092 -0.1581
  597DG      H313711   3.480   0.588   4.750  0.8289 -0.7022  0.1051
  597DG      H413712   3.504   0.489   4.601 -0.7405  0.4312  0.3418
  597DG      H513713   3.401   0.640   4.612  1.0054  4.0184  0.0962
  597DG      H613714   4.106   0.821   4.695 -1.3382  1.7315  0.7227
  597DG      H713715   4.096   0.771   4.525 -1.2117 -1.5281  1.4734
  597DG      H813716   4.186   0.920   4.580  0.0670 -0.0349 -1.1104
  597DG      O913717   3.601   0.674   4.597 -0.0868 -0.5471  0.0630
  597DG     O1013718   3.983   0.942   4.597 -0.1734 -0.5748 -0.3176
  597DG     C1113719   3.579   0.698   4.455  0.4536 -0.1200 -0.2690
  597DG     C1213720   3.954   0.999   4.470 -0.8207 -0.2755  0.6185
  597DG     H1313721   3.492   0.762   4.438  0.4934  0.5954  1.9269
  597DG     H1413722   3.547   0.606   4.406 -1.9752 -0.1006  1.1050
  597DG     H1513723   4.049   1.027   4.426  0.3447 -1.9811  1.9375
  597DG     H1613724   3.903   1.095   4.474 -0.8467 -0.2081 -0.8230
  597DG     C1713725   3.704   0.751   4.389 -0.1528 -0.4042 -0.0174
  597DG     C1813726   3.876   0.901   4.379  0.0206 -0.4569  0.0734
  597DG     O1913727   3.753   0.871   4.440  0.2034  0.2278 -0.4392
  597DG     H2013728   3.681   0.771   4.284 -2.8359  0.0253  0.5765
  597DG     H2113729   3.783   0.676   4.386  0.9879  0.7556 -2.4280
  597DG     H2213730   3.855   0.933   4.277  1.2861 -2.1652 -0.7804
  597DG     H2313731   3.934   0.809   4.368  1.7770  0.6225 -0.0737
  598DG      C113732   3.941   1.336   2.944 -0.3653 -0.4956 -0.2441
  598DG      C213733   3.920   0.706   3.042 -0.1567  0.2507 -0.2188
  598DG      H313734   4.044   1.322   2.910  0.1953 -1.3554  1.6166
  598DG      H413735   3.930   1.444   2.956  0.8656 -0.2532 -1.0888
  598DG      H513736   3.865   1.312   2.871 -1.1191  2.2727 -0.4764
  598DG      H613737   3.974   0.635   3.106 -1.1123  0.7166  1.1597
  598DG      H713738   3.830   0.653   3.013  0.5624 -1.3202  0.3005
  598DG      H813739   3.981   0.726   2.954  0.3346  1.2793  0.3349
  598DG      O913740   3.918   1.269   3.068  0.0421  0.1909 -0.3384
  598DG     O1013741   3.912   0.832   3.104  0.0321 -0.0539 -0.1663
  598DG     C1113742   3.797   1.295   3.121  0.1000  0.2660 -0.0584
  598DG     C1213743   3.855   0.825   3.229  0.8972  0.5637 -0.0654
  598DG     H1313744   3.715   1.290   3.049  1.1994 -2.0814 -1.2598
  598DG     H1413745   3.784   1.386   3.178 -3.1058 -1.0329  1.5491
  598DG     H1513746   3.902   0.751   3.293 -1.1470 -2.1299 -1.4877
  598DG     H1613747   3.756   0.783   3.208  0.7895  1.1799 -0.8292
  598DG     C1713748   3.773   1.186   3.236 -0.2035 -0.5150 -0.0926
  598DG     C1813749   3.845   0.961   3.294  0.0094  0.0599  0.1026
  598DG     O1913750   3.811   1.051   3.192  0.0993 -0.1118 -0.2026
  598DG     H2013751   3.674   1.172   3.278  0.4961  1.2217  2.3769
  598DG     H2113752   3.850   1.208   3.311  1.2756  2.2382 -2.2077
  598DG     H2213753   3.772   0.975   3.374  0.9473  0.7983  0.8475
  598DG     H2313754   3.939   0.996   3.336 -0.1072  0.5823 -0.0595
  599DG      C113755   3.654   1.482   2.311  0.7814  0.0725 -0.3352
  599DG      C213756   4.022   1.026   2.205  0.9326 -0.0406  0.4189
  599DG      H313757   3.552   1.501   2.278  0.6824 -1.6706 -1.1674
  599DG      H413758   3.708   1.577   2.309  0.2587  0.3700 -0.8912
  599DG      H513759   3.653   1.436   2.409 -0.4947  1.4025  0.3004
  599DG      H613760   4.066   1.010   2.304  1.2200  2.3779  0.7351
  599DG      H713761   3.915   1.038   2.224  0.2834  0.2640 -2.9226
  599DG      H813762   4.026   0.933   2.148 -0.4019  1.5792 -2.5114
  599DG      O913763   3.711   1.384   2.224  0.3359  0.5905  0.3127
  599DG     O1013764   4.076   1.138   2.132 -0.1315 -0.5156 -0.0151
  599DG     C1113765   3.685   1.416   2.083  0.4493 -0.1559 -0.4911
  599DG     C1213766   4.068   1.141   1.994  0.2011 -0.3980  0.2210
  599DG     H1313767   3.718   1.518   2.065 -1.4999  0.4400 -0.8922
  599DG     H1413768   3.577   1.426   2.069  0.0989 -0.0844  1.8433
  599DG     H1513769   4.114   1.047   1.963 -0.2356 -1.1379  1.6864
  599DG     H1613770   4.124   1.222   1.949 -0.1829  0.1184  0.6670
  599DG     C1713771   3.739   1.322   1.975 -0.8380  0.0535  0.2982
  599DG     C1813772   3.916   1.167   1.967 -0.0684 -0.0407 -0.5913
  599DG     O1913773   3.868   1.288   2.024  0.9534  0.0912  0.1970
  599DG     H2013774   3.748   1.378   1.882  0.3340  1.6053  1.3058
  599DG     H2113775   3.675   1.235   1.960 -1.6806  0.4649  1.4133
  599DG     H2213776   3.903   1.179   1.860  0.6250  2.6355 -0.4565
  599DG     H2313777   3.846   1.092   2.004 -0.0863  0.6974  0.9457
  600DG      C113778   0.409   1.661   3.301 -0.1396  0.2477  0.4694
  600DG      C213779   0.840   1.671   4.004  0.5726 -0.1814 -0.4128
  600DG      H313780   0.430   1.554   3.291 -2.7187 -0.1651 -1.8062
  600DG      H413781   0.443   1.711   3.210 -0.8311 -0.4306 -0.1752
  600DG      H513782   0.302   1.667   3.321 -0.3117 -0.1331 -0.2990
  600DG      H613783   0.904   1.748   4.047  0.2101  0.1752 -0.4995
  600DG      H713784   0.739   1.663   4.045 -0.3845  0.3445 -2.5487
  600DG      H813785   0.875   1.570   4.022  0.3745 -0.4852 -1.6421
  600DG      O913786   0.477   1.700   3.419 -0.7155 -0.5548  0.2449
  600DG     O1013787   0.821   1.706   3.867 -0.3058 -0.1303 -0.1122
  600DG     C1113788   0.618   1.702   3.396  0.0592  0.2732 -0.1764
  600DG     C1213789   0.754   1.834   3.851  0.0421  0.3539  0.4715
  600DG     H1313790   0.637   1.712   3.289  0.9457 -1.6732 -0.2561
  600DG     H1413791   0.666   1.605   3.413  3.5316  2.0223  0.9729
  600DG     H1513792   0.811   1.915   3.897  0.1338  0.4699  0.1576
  600DG     H1613793   0.657   1.831   3.902  1.0949 -0.8327  2.5355
  600DG     C1713794   0.698   1.807   3.478 -0.1096 -0.1404  0.5154
  600DG     C1813795   0.747   1.880   3.705  0.2028  0.2017 -0.3800
  600DG     O1913796   0.679   1.787   3.617 -0.0389  0.1297 -0.1314
  600DG     H2013797   0.655   1.903   3.452  0.3145 -0.2767 -0.7722
  600DG     H2113798   0.805   1.800   3.457 -0.1586  0.3275  0.0889
  600DG     H2213799   0.706   1.980   3.695 -0.7706 -0.2995 -1.7234
  600DG     H2313800   0.846   1.894   3.661 -0.5354  0.0715 -2.1935
  601DG      C113801   3.769   3.226   1.007 -0.7217 -0.3830  0.1692
  601DG      C213802   3.396   2.897   1.726  0.0809  0.4525 -0.4076
  601DG      H313803   3.864   3.173   1.002 -0.3543  0.0736  1.7986
  601DG      H413804   3.801   3.328   0.987 -0.7822 -0.3548  0.2161
  601DG      H513805   3.699   3.187   0.933  1.1539 -0.9533 -1.4013
  601DG      H613806   3.473   2.823   1.750  0.0110 -0.3111 -2.2871
  601DG      H713807   3.352   2.916   1.823  0.6837 -0.1688 -0.0020
  601DG      H813808   3.314   2.865   1.662 -0.3629  0.9013 -0.0615
  601DG      O913809   3.737   3.203   1.148 -0.2917 -0.1138 -0.4421
  601DG     O1013810   3.455   3.015   1.683  0.1274  0.5623  0.4142
  601DG     C1113811   3.655   3.306   1.207 -0.5714  0.6213  0.4363
  601DG     C1213812   3.486   3.019   1.547 -0.1807  0.3077  0.1299
  601DG     H1313813   3.554   3.285   1.172 -0.6443 -0.0076  1.0117
  601DG     H1413814   3.679   3.408   1.176  0.1094  0.6854  1.1464
  601DG     H1513815   3.401   3.026   1.479 -0.2198 -3.7807 -0.4844
  601DG     H1613816   3.534   2.928   1.511 -0.3146  0.4945 -0.5363
  601DG     C1713817   3.656   3.292   1.355  0.3347 -0.5947  0.0368
  601DG     C1813818   3.566   3.143   1.522 -0.0365  0.1176 -1.1397
  601DG     O1913819   3.583   3.176   1.378  0.2238  0.0210  0.4126
  601DG     H2013820   3.605   3.369   1.412  0.2667 -2.0063  1.9774
  601DG     H2113821   3.758   3.265   1.383  0.9457 -0.7813 -2.1464
  601DG     H2213822   3.519   3.227   1.574  1.8355 -0.0301  0.9770
  601DG     H2313823   3.665   3.147   1.569 -0.5619  1.8330 -0.0805
  602DG      C113824   2.562   0.944   2.211 -0.5683  0.3390 -0.0020
  602DG      C213825   2.316   1.020   2.968  0.2438  0.7722  0.1445
  602DG      H313826   2.644   0.972   2.144 -1.2518  0.9884 -0.5774
  602DG      H413827   2.468   0.969   2.163 -1.0870 -0.8061  0.3663
  602DG      H513828   2.569   0.835   2.221  0.1482  0.2274 -1.5218
  602DG      H613829   2.356   0.920   2.987  1.1412  0.8427 -1.1884
  602DG      H713830   2.351   1.070   3.058 -2.3089 -0.0197  1.6907
  602DG      H813831   2.208   1.010   2.957  0.5612 -2.1817 -1.2592
  602DG      O913832   2.559   1.010   2.334  1.2259  0.1610 -0.7739
  602DG     O1013833   2.386   1.065   2.845  0.7608  0.2616 -1.0628
  602DG     C1113834   2.460   0.955   2.420  0.2855 -0.2933 -0.5265
  602DG     C1213835   2.341   1.182   2.794  0.0368  0.2195 -0.3021
  602DG     H1313836   2.487   0.851   2.438  3.0863  0.4856  0.3350
  602DG     H1413837   2.361   0.967   2.377 -1.3331 -1.9645  2.4112
  602DG     H1513838   2.343   1.259   2.871 -1.1959 -0.4794  0.4607
  602DG     H1613839   2.234   1.174   2.772 -0.2088  0.1812  0.8426
  602DG     C1713840   2.484   1.018   2.559  0.5690  0.5918  0.2439
  602DG     C1813841   2.433   1.220   2.675  0.4159  0.3346 -0.1474
  602DG     O1913842   2.416   1.146   2.554  0.3036  0.1659 -0.1602
  602DG     H2013843   2.589   1.025   2.585 -0.0553  0.3137  3.1587
  602DG     H2113844   2.448   0.949   2.636  2.9096  1.2391  2.0290
  602DG     H2213845   2.417   1.325   2.652 -1.0275  0.6337  1.8531
  602DG     H2313846   2.531   1.216   2.722 -0.7498  0.9955  2.5456
  603DG      C113847   3.977   1.731   0.269  0.0924  0.3307  0.1191
  603DG      C213848   4.436   1.238   0.858  0.2877 -0.6416  0.5811
  603DG      H313849   4.002   1.756   0.166 -1.0137  2.1231  0.2256
  603DG      H413850   3.918   1.812   0.314 -0.0557  0.4111 -0.2163
  603DG      H513851   3.926   1.635   0.266  1.2194 -0.2639 -0.3362
  603DG      H613852   4.510   1.251   0.937  0.8872 -0.2850 -0.0293
  603DG      H713853   4.333   1.235   0.895  0.4746 -1.0437  1.0814
  603DG      H813854   4.453   1.138   0.817 -0.0947 -1.1944  1.7123
  603DG      O913855   4.093   1.718   0.348 -0.2899 -0.2757  0.4365
  603DG     O1013856   4.450   1.344   0.769 -0.1626 -0.3651  0.2311
  603DG     C1113857   4.181   1.622   0.292  0.2955 -0.1685 -0.1812
  603DG     C1213858   4.334   1.368   0.679  0.0835 -0.7658  0.3353
  603DG     H1313859   4.219   1.666   0.199  1.2661 -4.5045 -2.0633
  603DG     H1413860   4.125   1.535   0.256 -2.4326  1.5028 -0.3262
  603DG     H1513861   4.247   1.394   0.739 -0.0822 -0.6330  0.0383
  603DG     H1613862   4.318   1.277   0.623 -1.5692  0.7480 -1.8262
  603DG     C1713863   4.298   1.595   0.392  0.0411  0.4737  0.1888
  603DG     C1813864   4.374   1.486   0.587  0.1110  0.5106 -0.0697
  603DG     O1913865   4.273   1.490   0.486 -0.2037  0.1337 -0.0471
  603DG     H2013866   4.321   1.685   0.450 -0.6478  1.1899 -0.6238
  603DG     H2113867   4.383   1.568   0.330 -1.5969  0.4458 -2.1348
  603DG     H2213868   4.384   1.580   0.640 -0.4107 -0.4615  1.8611
  603DG     H2313869   4.470   1.460   0.544  1.1482  1.1309  1.7491
  604DG      C113870   2.657   1.569   0.938  0.0547 -0.2840  0.4135
  604DG      C213871   2.058   1.884   1.099 -0.0123 -1.0912 -0.1000
  604DG      H313872   2.714   1.561   1.031  1.6527  0.8330 -0.4254
  604DG      H413873   2.674   1.660   0.881 -0.3024 -1.2508 -1.2981
  604DG      H513874   2.697   1.487   0.879 -0.0674 -1.0366  1.3428
  604DG      H613875   2.120   1.964   1.059 -1.3008 -0.0622 -0.0918
  604DG      H713876   1.954   1.911   1.079 -0.0312 -0.5212  0.7445
  604DG      H813877   2.066   1.885   1.208  0.4736 -0.1246 -0.1324
  604DG      O913878   2.518   1.550   0.964 -0.0092 -0.0391 -0.5713
  604DG     O1013879   2.114   1.763   1.047 -0.2350 -0.0239  0.4189
  604DG     C1113880   2.484   1.419   1.002  0.1573  0.3951 -0.5643
  604DG     C1213881   2.068   1.646   1.115  0.5432  0.3716  0.3606
  604DG     H1313882   2.524   1.397   1.101  1.8682  2.3437 -0.7461
  604DG     H1413883   2.522   1.341   0.936  1.5962  2.6898 -2.6591
  604DG     H1513884   1.960   1.637   1.118  0.5598 -2.7690 -2.4365
  604DG     H1613885   2.102   1.650   1.219 -1.0457 -0.4440  0.9388
  604DG     C1713886   2.333   1.414   1.003  0.0782 -0.3274 -0.4152
  604DG     C1813887   2.130   1.532   1.046  0.2169 -0.2566  0.0757
  604DG     O1913888   2.271   1.527   1.067 -0.0781  0.0275 -0.1922
  604DG     H2013889   2.302   1.318   1.046 -0.9530 -0.4751 -1.4665
  604DG     H2113890   2.304   1.398   0.900 -1.2300 -3.7417  0.3315
  604DG     H2213891   2.089   1.443   1.094  1.1889  0.5296  2.5274
  604DG     H2313892   2.115   1.527   0.938 -0.6313 -0.5329  0.1977
  605DG      C113893   3.217   4.270   1.305 -0.0421 -0.2573 -0.8630
  605DG      C213894   3.110   3.706   1.499 -1.1537 -0.2042  0.6716
  605DG      H313895   3.224   4.174   1.256 -0.4333  1.1370 -3.8781
  605DG      H413896   3.260   4.348   1.241  0.4176 -0.7313 -1.1335
  605DG      H513897   3.111   4.296   1.302  0.2253  0.8079 -2.1205
  605DG      H613898   3.110   3.665   1.600 -1.0117 -0.3801  0.6003
  605DG      H713899   3.008   3.745   1.499 -1.3085 -0.6021  1.6941
  605DG      H813900   3.113   3.621   1.431 -1.5047  0.2643  0.0512
  605DG      O913901   3.276   4.281   1.439  0.2790 -0.2777  0.5609
  605DG     O1013902   3.205   3.814   1.485 -0.1888 -0.1668  0.0320
  605DG     C1113903   3.419   4.256   1.437 -0.1904  0.0979  0.0951
  605DG     C1213904   3.338   3.773   1.515  0.6582  0.0390  1.1325
  605DG     H1313905   3.462   4.347   1.478 -2.0875  0.7475  0.7178
  605DG     H1413906   3.454   4.245   1.334 -0.6302 -0.5961  0.0150
  605DG     H1513907   3.378   3.720   1.429 -2.0541  2.0908 -1.5747
  605DG     H1613908   3.338   3.690   1.585 -1.5776 -1.4052 -0.4572
  605DG     C1713909   3.468   4.132   1.515 -0.1424 -0.7125 -0.1523
  605DG     C1813910   3.415   3.895   1.557  0.4127 -0.8489  0.2843
  605DG     O1913911   3.406   4.011   1.473  0.4183  0.2789  0.1006
  605DG     H2013912   3.458   4.138   1.623  2.0508 -0.3230  0.0901
  605DG     H2113913   3.574   4.113   1.493  0.2772  0.6694  0.5961
  605DG     H2213914   3.378   3.925   1.655  2.0289 -0.5733  0.8418
  605DG     H2313915   3.521   3.874   1.569  0.7502  0.5226 -0.1597
  606DG      C113916   4.301   2.087   2.416 -0.2625 -0.4305  0.0006
  606DG      C213917   4.174   2.389   2.150 -0.1889 -0.0092 -0.0899
  606DG      H313918   4.223   2.093   2.492  0.7168  0.9823  0.9498
  606DG      H413919   4.328   1.989   2.377 -0.3418 -0.2898 -0.4177
  606DG      H513920   4.249   2.127   2.328  0.2252 -2.3312 -1.1947
  606DG      H613921   4.162   2.458   2.234  0.8927  0.4821 -0.3248
  606DG      H713922   4.171   2.446   2.057 -2.8715  0.9385  0.4919
  606DG      H813923   4.089   2.321   2.153  1.3417 -2.0335 -0.5919
  606DG      O913924   4.414   2.155   2.475 -1.0203  0.2060  0.4250
  606DG     O1013925   4.286   2.304   2.150 -0.2095  0.4778 -0.6866
  606DG     C1113926   4.389   2.275   2.540 -0.3100 -0.1863 -0.1606
  606DG     C1213927   4.413   2.370   2.125 -0.7751 -0.2288  0.2691
  606DG     H1313928   4.474   2.292   2.606  0.2621  0.5170 -1.0680
  606DG     H1413929   4.299   2.270   2.602  0.9202 -2.2381  1.6038
  606DG     H1513930   4.410   2.421   2.029  2.7765  0.8028  0.5416
  606DG     H1613931   4.491   2.295   2.115  0.4222  0.9629  0.2622
  606DG     C1713932   4.378   2.404   2.452 -0.3929 -0.2859  0.2713
  606DG     C1813933   4.457   2.472   2.236  0.0358  0.0027  0.0541
  606DG     O1913934   4.490   2.416   2.361 -0.7296 -0.0708  0.3299
  606DG     H2013935   4.371   2.494   2.512 -0.7437 -0.3812  0.3797
  606DG     H2113936   4.278   2.400   2.408 -1.2625  0.5137  2.0722
  606DG     H2213937   4.551   2.515   2.201  0.7799 -1.6459 -0.0191
  606DG     H2313938   4.387   2.556   2.237 -0.7714 -0.5852 -2.0419
  607DG      C113939   4.516   0.392   4.219 -0.3702  0.1378  0.3578
  607DG      C213940   3.948   0.013   4.086 -0.5987  0.2026 -0.7322
  607DG      H313941   4.589   0.466   4.186 -0.7786 -0.0301 -0.9662
  607DG      H413942   4.551   0.295   4.183 -3.3591 -1.1150  0.5658
  607DG      H513943   4.512   0.390   4.328 -2.5414  0.6580  0.3361
  607DG      H613944   3.845   0.049   4.089 -0.8742 -0.4708  3.0279
  607DG      H713945   3.951  -0.090   4.051 -2.7406 -0.1472 -0.0423
  607DG      H813946   3.973   0.003   4.192 -0.2147 -0.7136 -0.9054
  607DG      O913947   4.387   0.426   4.159 -0.4440 -0.4279 -0.2577
  607DG     O1013948   4.047   0.088   4.019 -0.3620  0.5307  0.1049
  607DG     C1113949   4.389   0.465   4.021  0.0178  0.1317  0.5097
  607DG     C1213950   3.986   0.192   3.951  0.8688 -0.6337 -0.2306
  607DG     H1313951   4.455   0.400   3.964 -0.6664  1.0163 -1.3818
  607DG     H1413952   4.430   0.566   4.019  0.1477  0.1422  2.2625
  607DG     H1513953   3.928   0.260   4.013  0.5058  0.1687 -1.4059
  607DG     H1613954   3.915   0.165   3.872 -1.0380  1.6832  0.5590
  607DG     C1713955   4.249   0.453   3.971 -0.3054 -0.5349 -0.2156
  607DG     C1813956   4.094   0.283   3.893 -0.6255 -0.3242 -1.5265
  607DG     O1913957   4.191   0.321   3.994 -0.3424 -0.0526 -0.0261
  607DG     H2013958   4.239   0.484   3.867  1.4411 -1.6348 -0.7613
  607DG     H2113959   4.196   0.533   4.022  4.1155  2.6525  0.0014
  607DG     H2213960   4.146   0.237   3.809  1.7654 -0.4287 -0.1055
  607DG     H2313961   4.041   0.373   3.862 -1.3651  1.2079  3.3078
  608DG      C113962   2.285   0.218   2.118 -0.3549 -0.4134 -0.1803
  608DG      C213963   2.032   0.269   2.833 -0.1673  0.2468  0.0791
  608DG      H313964   2.237   0.182   2.027  2.1398 -0.9825 -1.3265
  608DG      H413965   2.304   0.128   2.176 -1.5044 -0.2897  0.4258
  608DG      H513966   2.381   0.265   2.098 -0.3656 -0.7231 -0.9863
  608DG      H613967   2.102   0.345   2.866  0.0203 -0.0962  0.4787
  608DG      H713968   1.939   0.304   2.878  0.4743  3.1467 -0.6439
  608DG      H813969   2.060   0.170   2.870  1.5533  0.8796  0.5707
  608DG      O913970   2.215   0.314   2.205  0.7737  0.0190 -0.2272
  608DG     O1013971   2.018   0.271   2.695  0.3269 -0.8130 -0.2167
  608DG     C1113972   2.086   0.249   2.222 -0.1269  0.5123  0.4602
  608DG     C1213973   1.957   0.389   2.647  0.5535 -0.6550  0.2997
  608DG     H1313974   2.092   0.156   2.278  0.7205 -0.2396 -0.8266
  608DG     H1413975   2.053   0.211   2.125  1.5088  0.3707 -0.0660
  608DG     H1513976   2.017   0.480   2.654  2.8033 -1.9683 -0.6707
  608DG     H1613977   1.872   0.410   2.712  1.0433 -1.0411  1.0843
  608DG     C1713978   1.981   0.343   2.282  0.7352 -0.5343 -0.4427
  608DG     C1813979   1.911   0.378   2.502 -1.2242  0.1970 -0.6424
  608DG     O1913980   2.025   0.361   2.416 -0.2542  0.3942 -0.1749
  608DG     H2013981   1.882   0.299   2.270  0.9658 -1.1970  0.0498
  608DG     H2113982   1.994   0.435   2.224 -2.3186 -1.5351 -2.9884
  608DG     H2213983   1.840   0.296   2.490 -3.1763  2.0155 -2.3826
  608DG     H2313984   1.860   0.468   2.468  0.1641  0.2707 -2.6624
  609DG      C113985   2.053   5.141   3.072  0.1485  0.3745  0.0613
  609DG      C213986   1.479   5.565   3.126  0.2478  0.4035 -0.1358
  609DG      H313987   2.071   5.110   3.175 -1.8141 -0.8616  0.0887
  609DG      H413988   2.150   5.138   3.023 -0.4496  2.2414 -1.3470
  609DG      H513989   1.990   5.063   3.027 -0.1592 -0.3055  1.6065
  609DG      H613990   1.444   5.513   3.037  0.0303  2.1847 -1.1557
  609DG      H713991   1.426   5.546   3.220  0.0558 -0.2095 -0.3667
  609DG      H813992   1.460   5.672   3.115  1.1386  0.6052  0.1385
  609DG      O913993   1.999   5.274   3.070 -0.0174 -0.4491  0.4746
  609DG     O1013994   1.618   5.538   3.134  0.0798 -0.4111 -0.5091
  609DG     C1113995   2.060   5.349   3.172  0.0675 -0.2614 -0.8941
  609DG     C1213996   1.678   5.625   3.223 -0.6352 -0.0796 -0.3708
  609DG     H1313997   2.168   5.348   3.164  0.1316 -0.8257 -0.0596
  609DG     H1413998   2.046   5.302   3.269 -3.5082 -2.3110 -2.1918
  609DG     H1513999   1.656   5.600   3.326 -0.1680 -4.1471 -1.0863
  609DG     H1614000   1.644   5.728   3.210 -2.1491 -0.5346 -0.2011
  609DG     C1714001   2.014   5.492   3.172  0.6356 -0.3048  0.3129
  609DG     C1814002   1.826   5.625   3.208 -0.3693 -0.0774  0.0946
  609DG     O1914003   1.870   5.498   3.205 -0.4440  0.2318 -0.4315
  609DG     H2014004   2.035   5.539   3.076  0.4380 -2.2505 -0.7212
  609DG     H2114005   2.066   5.551   3.247 -1.1411 -0.8941  2.0869
  609DG     H2214006   1.843   5.663   3.107 -0.3028  0.0491  0.1537
  609DG     H2314007   1.886   5.672   3.285 -0.1142  0.5431 -0.4750
  610DG      C114008   1.908   0.702   4.128 -0.9451 -0.5053  0.3401
  610DG      C214009   1.995   0.358   3.601 -1.1110 -0.1432 -0.1259
  610DG      H314010   1.849   0.769   4.191  0.5920 -0.2480  1.5576
  610DG      H414011   1.917   0.758   4.035  1.3275  2.9062  2.3782
  610DG      H514012   2.006   0.676   4.168 -1.0227 -2.5928 -0.6768
  610DG      H614013   2.010   0.250   3.592  1.0818 -0.0176  1.1920
  610DG      H714014   1.993   0.404   3.502 -2.6207 -0.5099 -0.2778
  610DG      H814015   2.089   0.388   3.647 -1.8677  1.4132  0.4681
  610DG      O914016   1.837   0.582   4.098 -0.0713 -0.2960 -0.1450
  610DG     O1014017   1.893   0.392   3.696  0.3766 -0.6539 -0.7238
  610DG     C1114018   1.699   0.611   4.072 -0.5504  0.2822  0.1858
  610DG     C1214019   1.756   0.362   3.658  0.1314  0.1119 -0.0118
  610DG     H1314020   1.697   0.693   4.000 -0.5391 -0.3089 -0.5046
  610DG     H1414021   1.643   0.640   4.161 -1.2770 -0.1008 -0.1368
  610DG     H1514022   1.751   0.254   3.641 -0.6908  0.0974  0.2634
  610DG     H1614023   1.720   0.416   3.571  0.2317 -0.7583 -0.6093
  610DG     C1714024   1.641   0.498   3.985  0.1338 -0.2756 -0.2024
  610DG     C1814025   1.670   0.377   3.782  0.5265 -0.3489 -0.1981
  610DG     O1914026   1.708   0.489   3.867 -0.4199 -0.8435 -0.9646
  610DG     H2014027   1.534   0.514   3.975  0.1286  0.2571  0.5777
  610DG     H2114028   1.658   0.407   4.043  0.8301  0.1071  0.2038
  610DG     H2214029   1.566   0.401   3.759 -0.5685 -1.6506  2.9115
  610DG     H2314030   1.671   0.289   3.846 -3.1646  0.7597  1.6542
  611DG      C114031   5.155   1.663   1.983  0.0729  0.4286 -0.0548
  611DG      C214032   5.462   2.258   1.743  0.4148 -0.6276 -0.4003
  611DG      H314033   5.128   1.605   2.072 -1.5642  1.4415  0.1681
  611DG      H414034   5.226   1.618   1.915  1.3633  0.0236  1.4980
  611DG      H514035   5.059   1.669   1.932 -0.7531 -0.2563  1.3438
  611DG      H614036   5.504   2.257   1.642  1.7173 -0.8905  0.1243
  611DG      H714037   5.360   2.295   1.732 -0.2278 -1.5899  1.8211
  611DG      H814038   5.522   2.331   1.797 -1.7609  0.6956  0.3430
  611DG      O914039   5.206   1.791   2.008  0.1458 -0.1120 -0.3604
  611DG     O1014040   5.461   2.133   1.810 -0.3819  0.8223  0.2509
  611DG     C1114041   5.306   1.795   2.105 -0.3030 -0.1134 -0.5544
  611DG     C1214042   5.590   2.091   1.857 -0.2945 -0.6871 -0.2373
  611DG     H1314043   5.302   1.712   2.175 -1.2139 -0.1123 -0.5877
  611DG     H1414044   5.299   1.878   2.175  0.3007 -2.0487  1.9605
  611DG     H1514045   5.612   2.165   1.934 -0.2447  0.5596 -1.4118
  611DG     H1614046   5.669   2.093   1.782  1.5002 -0.7964  1.5555
  611DG     C1714047   5.445   1.815   2.048  0.3950  0.2660 -0.0350
  611DG     C1814048   5.578   1.956   1.930  0.3453 -0.1013 -0.0137
  611DG     O1914049   5.443   1.934   1.970  0.1854 -0.0227 -0.5540
  611DG     H2014050   5.473   1.731   1.985 -0.1762  0.6257 -0.7923
  611DG     H2114051   5.515   1.834   2.129  0.0840 -2.2092  0.8805
  611DG     H2214052   5.612   1.875   1.866 -0.7796 -0.0671 -0.6801
  611DG     H2314053   5.642   1.951   2.018  1.5872 -1.9303 -0.9570
  612DG      C114054   0.075   1.702   4.248  0.3041 -0.4013 -0.5917
  612DG      C214055   0.404   0.933   4.230 -0.0742  0.0541  0.3344
  612DG      H314056   0.014   1.657   4.327 -0.1646  0.2678 -0.5717
  612DG      H414057   0.027   1.786   4.198  0.9591 -0.3994 -1.2415
  612DG      H514058   0.173   1.735   4.284  0.1290  0.0738 -0.5430
  612DG      H614059   0.338   0.857   4.272 -2.8208  1.5897 -0.8681
  612DG      H714060   0.479   0.874   4.178  0.4487  0.3989  0.6937
  612DG      H814061   0.443   0.985   4.317 -0.7784  0.4436  0.4228
  612DG      O914062   0.096   1.614   4.136 -0.6842 -0.5628  0.2621
  612DG     O1014063   0.319   1.016   4.154 -0.1844 -0.0204  0.2615
  612DG     C1114064   0.161   1.494   4.172  0.1758  0.2290  0.5890
  612DG     C1214065   0.401   1.092   4.069  0.0583 -0.0903 -0.0260
  612DG     H1314066   0.090   1.445   4.239 -0.6141  1.7412  0.9124
  612DG     H1414067   0.254   1.515   4.224  0.7725 -1.9247  0.4880
  612DG     H1514068   0.444   1.025   3.995  0.5393  0.0013  0.1675
  612DG     H1614069   0.490   1.127   4.122  0.3107 -0.8567  0.0730
  612DG     C1714070   0.198   1.396   4.055 -0.8337 -0.7011  0.2576
  612DG     C1814071   0.323   1.208   4.009 -0.1277  0.7594  0.3121
  612DG     O1914072   0.264   1.288   4.108  0.0667  0.1468  0.5356
  612DG     H2014073   0.264   1.462   3.999 -0.9987 -0.8579 -0.1221
  612DG     H2114074   0.107   1.373   4.001 -1.5338 -0.7996  1.4435
  612DG     H2214075   0.397   1.258   3.947 -0.3195 -0.3700 -0.8690
  612DG     H2314076   0.243   1.177   3.942 -1.2418  1.9684  1.0250
  613DG      C114077   2.399   0.248   0.319  1.0599 -0.2207 -0.0085
  613DG      C214078   2.508   0.924   0.669  0.8134  0.2528 -0.8209
  613DG      H314079   2.353   0.252   0.221  1.8275 -0.6550 -0.3910
  613DG      H414080   2.385   0.154   0.373  2.6848  0.2817  1.3761
  613DG      H514081   2.506   0.262   0.304  1.1462 -0.2894  0.5239
  613DG      H614082   2.441   0.983   0.731 -0.2705 -0.5791 -1.1560
  613DG      H714083   2.557   0.849   0.732  1.5212  3.0914  2.3028
  613DG      H814084   2.595   0.983   0.642  0.0587  2.3234  0.9703
  613DG      O914085   2.329   0.356   0.384 -0.5716 -0.3936  0.6347
  613DG     O1014086   2.441   0.877   0.546 -0.1703 -0.1822 -0.3111
  613DG     C1114087   2.370   0.362   0.517 -0.0599 -0.3088  0.7084
  613DG     C1214088   2.304   0.836   0.573 -0.6480  0.5909  0.6293
  613DG     H1314089   2.476   0.383   0.524 -0.4410  1.5096  1.9913
  613DG     H1414090   2.354   0.262   0.556  1.2516 -0.9823 -0.3962
  613DG     H1514091   2.246   0.836   0.481  1.1894 -1.4615 -0.6177
  613DG     H1614092   2.248   0.905   0.636  0.5642  1.0646  1.2043
  613DG     C1714093   2.293   0.470   0.601 -0.7075 -0.4156 -0.0183
  613DG     C1814094   2.278   0.703   0.648 -0.1317  0.1685  0.3638
  613DG     O1914095   2.314   0.601   0.561  0.4792  0.0799 -0.4807
  613DG     H2014096   2.321   0.458   0.706 -1.6518 -1.8188  0.1002
  613DG     H2114097   2.187   0.449   0.592 -1.0177  0.6612  0.8714
  613DG     H2214098   2.312   0.689   0.750 -3.5157 -1.9172  1.3614
  613DG     H2314099   2.171   0.687   0.659  0.2575 -1.9813  1.5810
  614DG      C114100   1.211   1.851   4.093  0.0999 -0.1524  0.1285
  614DG      C214101   1.502   1.705   4.932 -0.2597 -0.3364 -0.0033
  614DG      H314102   1.111   1.868   4.133 -0.1436 -1.8451  0.3328
  614DG      H414103   1.213   1.742   4.086 -1.0120 -0.0658 -2.5527
  614DG      H514104   1.209   1.893   3.993  1.8147 -0.1279  0.0712
  614DG      H614105   1.600   1.689   4.978  0.9006  1.3447 -1.7478
  614DG      H714106   1.446   1.772   4.996  0.8318  0.9471 -0.3410
  614DG      H814107   1.453   1.608   4.921  0.1648 -0.4224 -1.3659
  614DG      O914108   1.311   1.900   4.175 -0.2558  0.0180 -0.0681
  614DG     O1014109   1.510   1.764   4.802 -0.3350  0.1572  0.2293
  614DG     C1114110   1.303   1.855   4.314 -0.1501  0.4429  0.1097
  614DG     C1214111   1.383   1.768   4.745  0.3897  0.3395  0.5880
  614DG     H1314112   1.268   1.752   4.316  0.9431  0.0495 -0.5327
  614DG     H1414113   1.222   1.919   4.351  0.6311  0.7631  1.3117
  614DG     H1514114   1.309   1.804   4.815  1.9283  3.7977  0.6230
  614DG     H1614115   1.361   1.664   4.717  1.9049 -0.2390  1.4305
  614DG     C1714116   1.437   1.882   4.383 -0.0534  0.9992  0.0637
  614DG     C1814117   1.369   1.866   4.624 -0.0084  0.4635 -0.5438
  614DG     O1914118   1.450   1.808   4.509  0.2927  0.4645  0.3642
  614DG     H2014119   1.449   1.989   4.399  0.8904  0.6802  1.7057
  614DG     H2114120   1.524   1.846   4.327  0.8286  1.2600  1.2221
  614DG     H2214121   1.266   1.878   4.593  0.4136  1.0851 -1.7748
  614DG     H2314122   1.410   1.963   4.651  1.6011 -0.9618  2.8427
  615DG      C114123   3.178   5.444   5.114  0.4157  0.1078 -0.1490
  615DG      C214124   3.270   5.083   4.572  0.1160  0.0921 -0.3193
  615DG      H314125   3.090   5.506   5.097 -1.2743 -2.4599 -1.4248
  615DG      H414126   3.212   5.477   5.212  0.2089  2.4098 -0.7847
  615DG      H514127   3.135   5.344   5.113  0.5975  0.0267 -0.8128
  615DG      H614128   3.356   5.051   4.513  0.9664 -0.5844  1.2311
  615DG      H714129   3.240   5.000   4.636 -3.4006  1.5588  0.1886
  615DG      H814130   3.186   5.090   4.502 -0.5766 -0.3457  0.4444
  615DG      O914131   3.277   5.457   5.016  0.6604 -0.3607 -0.4745
  615DG     O1014132   3.286   5.212   4.630  0.1133 -0.0238  0.0149
  615DG     C1114133   3.233   5.564   4.922 -0.1614  0.0234 -0.0376
  615DG     C1214134   3.363   5.300   4.548 -0.7004  0.1988  0.2033
  615DG     H1314135   3.253   5.642   4.995  0.5218  0.3203 -0.5291
  615DG     H1414136   3.129   5.555   4.891  0.0295 -0.4992 -0.5639
  615DG     H1514137   3.294   5.320   4.466  0.6358  0.9122 -0.7890
  615DG     H1614138   3.451   5.249   4.508 -1.4747  0.0730 -1.4239
  615DG     C1714139   3.334   5.575   4.808  0.1335 -0.0202 -0.4332
  615DG     C1814140   3.404   5.427   4.629 -0.2584  0.1042  0.2852
  615DG     O1914141   3.306   5.457   4.727 -0.7092  0.0189 -0.0277
  615DG     H2014142   3.436   5.578   4.846  1.3743  1.6056 -3.5939
  615DG     H2114143   3.316   5.663   4.747  0.6419  0.1145 -0.3934
  615DG     H2214144   3.495   5.393   4.679 -0.1160  0.3350  0.1820
  615DG     H2314145   3.434   5.500   4.555 -0.7231 -1.0283 -1.0709
  616DG      C114146   5.324   2.430   3.511 -0.2454 -0.0821  0.2260
  616DG      C214147   5.356   2.852   2.961  0.8691  0.1527  0.4957
  616DG      H314148   5.254   2.346   3.506  0.5770 -0.8181  0.7159
  616DG      H414149   5.340   2.442   3.618 -2.5006 -0.0786  0.5956
  616DG      H514150   5.421   2.400   3.472 -0.0805  1.0469 -0.2683
  616DG      H614151   5.431   2.779   2.935 -0.1541 -1.5606  2.1297
  616DG      H714152   5.278   2.853   2.885 -0.1486  1.0398  1.5063
  616DG      H814153   5.413   2.945   2.969  3.0623 -0.9408 -1.2926
  616DG      O914154   5.282   2.552   3.452  0.0185  0.7859  0.9256
  616DG     O1014155   5.306   2.817   3.089  0.5066 -0.1841 -0.0595
  616DG     C1114156   5.176   2.617   3.521 -0.0566 -0.1900 -0.1139
  616DG     C1214157   5.211   2.914   3.137 -0.3886  0.2537 -0.4006
  616DG     H1314158   5.184   2.622   3.629 -0.4296 -1.6368  0.0073
  616DG     H1414159   5.083   2.561   3.512  0.8689 -1.7698 -0.1515
  616DG     H1514160   5.113   2.899   3.092 -1.0275  2.6897  0.0425
  616DG     H1614161   5.241   3.016   3.112 -1.5408  0.5646 -0.5862
  616DG     C1714162   5.167   2.756   3.461  0.1476 -0.4438 -0.6130
  616DG     C1814163   5.193   2.907   3.289 -0.2242  0.1130 -0.1384
  616DG     O1914164   5.190   2.765   3.325 -0.3390 -0.2793 -0.5433
  616DG     H2014165   5.242   2.812   3.515  0.0767  1.5097 -2.4176
  616DG     H2114166   5.074   2.804   3.490  0.5178 -0.4237  0.5797
  616DG     H2214167   5.276   2.960   3.336  0.9637 -1.5826 -0.2274
  616DG     H2314168   5.096   2.951   3.310 -1.0597 -1.5826 -0.2550
  617DG      C114169   4.262   0.367   4.663 -0.3356 -0.3604 -0.8497
  617DG      C214170   3.501   0.276   4.411 -0.2387 -0.3850  0.3485
  617DG      H314171   4.237   0.468   4.696 -0.4464  0.5549 -3.5249
  617DG      H414172   4.370   0.354   4.653 -0.5567 -1.5359 -1.9812
  617DG      H514173   4.252   0.304   4.752  1.1741 -1.2015 -1.2361
  617DG      H614174   3.467   0.378   4.394  1.8729  0.4826  1.0045
  617DG      H714175   3.426   0.214   4.361 -0.8839 -0.7569  1.7150
  617DG      H814176   3.505   0.251   4.518 -1.5275  2.9777  1.3005
  617DG      O914177   4.192   0.310   4.552  0.1551 -0.3457  0.5887
  617DG     O1014178   3.631   0.244   4.355  0.0553 -0.1114 -0.5941
  617DG     C1114179   4.209   0.379   4.434  0.1820  0.0795  0.3685
  617DG     C1214180   3.721   0.353   4.375 -0.1149 -0.3453 -0.0568
  617DG     H1314181   4.303   0.355   4.386  0.9365  2.4722  0.5247
  617DG     H1414182   4.214   0.485   4.462 -0.5217  0.1461  0.2506
  617DG     H1514183   3.738   0.358   4.483 -0.0164  0.6912 -0.1105
  617DG     H1614184   3.687   0.451   4.341  3.3655  0.2153 -2.3941
  617DG     C1714185   4.093   0.357   4.333 -0.1177 -0.0659 -0.1861
  617DG     C1814186   3.856   0.317   4.314  0.3707  0.3872  0.3354
  617DG     O1914187   3.962   0.371   4.397 -0.6557  0.0308  0.8014
  617DG     H2014188   4.112   0.251   4.314  0.8366 -0.0740  0.7365
  617DG     H2114189   4.099   0.410   4.238  1.9020 -1.6410 -1.0180
  617DG     H2214190   3.857   0.208   4.312 -0.4401  0.3516 -2.1417
  617DG     H2314191   3.865   0.359   4.214  0.0877 -0.6589 -0.1443
  618DG      C114192   4.338   3.252   3.538  0.0311  0.2322 -0.5619
  618DG      C214193   3.930   3.485   3.991  0.1862 -0.0936 -0.9180
  618DG      H314194   4.310   3.350   3.498  0.4187 -0.3715 -2.4020
  618DG      H414195   4.278   3.182   3.481  1.8172 -0.3124 -1.8510
  618DG      H514196   4.442   3.229   3.518  0.1692 -1.7345  1.9236
  618DG      H614197   3.983   3.577   3.968 -0.3936  0.9001  1.5012
  618DG      H714198   3.847   3.474   3.920  0.3363 -0.8042 -0.9967
  618DG      H814199   3.895   3.500   4.093 -0.7734  1.8433 -1.4883
  618DG      O914200   4.309   3.244   3.680  0.3614 -0.1236 -0.6402
  618DG     O1014201   4.025   3.383   3.982  0.3280 -0.0790 -0.2377
  618DG     C1114202   4.324   3.110   3.730  0.2061  0.9422 -0.5237
  618DG     C1214203   3.980   3.251   4.014  0.5618  0.4058 -0.1817
  618DG     H1314204   4.424   3.073   3.709  0.9952  1.4133  2.0018
  618DG     H1414205   4.259   3.039   3.680  0.2649  0.5874 -0.1020
  618DG     H1514206   3.907   3.219   3.940 -0.2290  1.1183  0.2779
  618DG     H1614207   3.935   3.253   4.113 -0.4574 -2.3602 -0.5032
  618DG     C1714208   4.295   3.099   3.883 -0.7757  0.0695 -0.1529
  618DG     C1814209   4.115   3.163   4.017  0.9635 -0.2780 -0.4665
  618DG     O1914210   4.166   3.153   3.885  0.1870  0.6114 -0.2256
  618DG     H2014211   4.365   3.160   3.941 -0.6577  0.6032 -0.8499
  618DG     H2114212   4.304   2.993   3.906  0.1738 -0.2049 -1.6915
  618DG     H2214213   4.194   3.197   4.084 -0.4627  1.0589  0.6009
  618DG     H2314214   4.092   3.067   4.064  0.7079  0.6258  1.3122
  619DG      C114215   5.141   2.143   4.760 -0.0331  0.4909  0.4826
  619DG      C214216   5.577   1.526   4.596  0.2153  0.1440  0.1211
  619DG      H314217   5.137   2.124   4.652  1.5473  0.8324  0.3396
  619DG      H414218   5.228   2.202   4.788  0.1159 -0.6243  2.4985
  619DG      H514219   5.065   2.217   4.785  0.0876  0.6735  0.3216
  619DG      H614220   5.506   1.485   4.525  1.3144 -1.0220 -0.3448
  619DG      H714221   5.650   1.588   4.543  0.4201  0.1986  0.4596
  619DG      H814222   5.635   1.442   4.633  0.0137  1.2437  3.2776
  619DG      O914223   5.133   2.026   4.838 -0.1206  0.1682 -0.1869
  619DG     O1014224   5.530   1.576   4.717 -0.4612 -0.0581 -0.0679
  619DG     C1114225   5.253   1.947   4.827  0.5702  0.1443  0.1144
  619DG     C1214226   5.404   1.523   4.763  0.0036  0.1901  0.5419
  619DG     H1314227   5.335   1.995   4.881 -0.0953 -0.3160  1.5703
  619DG     H1414228   5.288   1.937   4.724  0.4160 -0.6163  0.1298
  619DG     H1514229   5.414   1.421   4.800 -0.7522  0.5717  1.8977
  619DG     H1614230   5.336   1.533   4.679  0.3413  0.4052  0.2943
  619DG     C1714231   5.240   1.812   4.889  0.0301  0.0315 -0.0071
  619DG     C1814232   5.360   1.593   4.882 -0.3891 -0.3731 -1.0969
  619DG     O1914233   5.338   1.728   4.831 -0.0104 -0.4800 -0.3208
  619DG     H2014234   5.138   1.773   4.881 -0.0818  0.1355  0.7863
  619DG     H2114235   5.255   1.825   4.996 -2.0743 -0.2359  0.3809
  619DG     H2214236   5.264   1.555   4.916  0.4041 -3.3764 -1.9308
  619DG     H2314237   5.439   1.585   4.957 -1.2768 -3.5830 -0.3439
  620DG      C114238   3.905   4.644   1.795 -0.0071 -0.2200  0.4548
  620DG      C214239   4.482   4.889   1.422  0.0152 -0.3814 -0.4386
  620DG      H314240   3.877   4.558   1.735 -0.8496  0.3696 -0.0128
  620DG      H414241   3.857   4.729   1.746  0.2939  0.1292  0.7581
  620DG      H514242   3.865   4.633   1.896  0.1226 -1.6364  0.3635
  620DG      H614243   4.516   4.794   1.380  0.2033 -0.5785  0.1487
  620DG      H714244   4.413   4.935   1.352  0.1097  0.5723  0.0905
  620DG      H814245   4.560   4.965   1.426 -1.4150  1.0483  1.3309
  620DG      O914246   4.048   4.687   1.797  0.3073  0.0113  0.3407
  620DG     O1014247   4.429   4.862   1.552  0.3961 -0.2249  0.4816
  620DG     C1114248   4.136   4.597   1.861 -0.4308 -0.2850 -0.4313
  620DG     C1214249   4.519   4.811   1.644  0.0457  0.2045 -0.2015
  620DG     H1314250   4.137   4.495   1.823 -1.6533 -0.3431 -0.3372
  620DG     H1414251   4.096   4.596   1.963  0.1382 -0.5074 -0.2083
  620DG     H1514252   4.605   4.872   1.668  0.8846 -0.8380 -0.4884
  620DG     H1614253   4.571   4.727   1.598 -1.3887 -1.0696  0.3930
  620DG     C1714254   4.284   4.636   1.867  0.0266 -0.6058  0.2856
  620DG     C1814255   4.449   4.762   1.779  0.3451 -0.1688  0.1301
  620DG     O1914256   4.325   4.702   1.750  0.1230 -0.0408 -0.0702
  620DG     H2014257   4.341   4.544   1.882  1.3526  0.0347 -0.5687
  620DG     H2114258   4.288   4.704   1.951 -0.9998  0.1729 -0.2768
  620DG     H2214259   4.514   4.698   1.839  0.9707  2.1131  2.0568
  620DG     H2314260   4.427   4.847   1.843  0.8395  0.3010 -0.3152
  621DG      C114261   0.270   2.040   4.989 -0.0516  0.1399  0.2020
  621DG      C214262   1.044   1.939   4.886 -0.2710 -0.1721 -0.5348
  621DG      H314263   0.212   2.035   4.897 -0.3048  0.7788  0.3174
  621DG      H414264   0.240   2.128   5.047 -0.9901 -0.1808  0.2128
  621DG      H514265   0.271   1.952   5.052  1.5316  0.0051  0.0354
  621DG      H614266   1.116   2.020   4.897 -0.9535  0.1389  2.7547
  621DG      H714267   1.037   1.894   4.985  2.2242  1.9938  0.7554
  621DG      H814268   1.078   1.873   4.806  0.1165  1.5443 -1.8625
  621DG      O914269   0.402   2.059   4.948 -0.3854  0.2104 -1.2088
  621DG     O1014270   0.927   2.003   4.839  1.2597  0.0237  0.3431
  621DG     C1114271   0.422   2.167   4.866 -0.1237  0.0955 -0.2952
  621DG     C1214272   0.819   1.907   4.840  0.3316  0.9811  0.1905
  621DG     H1314273   0.436   2.250   4.936  2.0754 -0.4538  0.0014
  621DG     H1414274   0.344   2.205   4.799  0.9471  0.9448 -1.1118
  621DG     H1514275   0.807   1.856   4.936  3.2354  2.5661  1.5128
  621DG     H1614276   0.854   1.831   4.770 -1.0692  2.0471 -1.7643
  621DG     C1714277   0.543   2.136   4.778  0.4513  0.4379  0.3577
  621DG     C1814278   0.682   1.948   4.783  0.8229  0.2995 -0.3550
  621DG     O1914279   0.632   2.056   4.855 -0.9126  0.2962  0.3401
  621DG     H2014280   0.585   2.235   4.758 -3.5345  1.5704 -4.0214
  621DG     H2114281   0.520   2.085   4.684  0.5239  1.4391 -0.2220
  621DG     H2214282   0.699   1.977   4.679 -2.1290 -0.9244 -1.2796
  621DG     H2314283   0.619   1.860   4.794  0.6209  0.4779 -0.0927
  622DG      C114284   0.229   0.134   3.621  0.1241 -0.1956  0.4049
  622DG      C214285   0.816   0.465   3.883 -0.2667 -0.2345  0.4527
  622DG      H314286   0.298   0.052   3.639  0.9128  0.6604  1.4043
  622DG      H414287   0.224   0.143   3.513 -2.2666  0.3175  0.4988
  622DG      H514288   0.133   0.098   3.659  0.1930 -0.3914  0.3912
  622DG      H614289   0.827   0.427   3.782 -0.1143 -0.1213  0.4272
  622DG      H714290   0.855   0.566   3.890  1.0267 -0.7916  1.7879
  622DG      H814291   0.879   0.406   3.950  0.1814  0.5544  0.7360
  622DG      O914292   0.274   0.247   3.691  0.1947 -0.1166  0.0751
  622DG     O1014293   0.678   0.477   3.928  0.4640  0.5330  0.0360
  622DG     C1114294   0.256   0.239   3.833  0.2441  0.5707  0.1826
  622DG     C1214295   0.604   0.573   3.859 -0.2739 -0.7005  0.0580
  622DG     H1314296   0.323   0.159   3.864  0.2612  0.6418  0.3286
  622DG     H1414297   0.153   0.215   3.859  0.7136 -0.5972  1.0327
  622DG     H1514298   0.640   0.574   3.756  1.4839 -2.0181  0.6214
  622DG     H1614299   0.623   0.667   3.912  0.8388 -0.8642 -0.0273
  622DG     C1714300   0.289   0.376   3.889 -0.3895  0.2006 -0.0406
  622DG     C1814301   0.450   0.551   3.873  0.7890  0.1376  0.8020
  622DG     O1914302   0.415   0.420   3.835  0.4538 -0.6423 -0.1289
  622DG     H2014303   0.280   0.376   3.998  1.2972 -0.4932  0.1262
  622DG     H2114304   0.210   0.437   3.845  0.6436  2.7321  1.3814
  622DG     H2214305   0.420   0.573   3.976  0.1109  0.2886  0.5742
  622DG     H2314306   0.401   0.623   3.808  1.2720 -0.8665 -0.7349
  623DG      C114307   1.985   2.042   3.962 -0.6066 -0.3203  0.3350
  623DG      C214308   1.486   2.428   3.550 -1.0061 -0.2073 -0.0156
  623DG      H314309   2.045   2.007   3.878 -0.6009  1.4328 -0.4435
  623DG      H414310   1.900   1.973   3.967 -0.1588 -0.9664 -0.6607
  623DG      H514311   2.040   2.040   4.056 -0.8209 -0.0077  0.4689
  623DG      H614312   1.486   2.496   3.466  0.5134 -1.7959 -1.3974
  623DG      H714313   1.422   2.347   3.515  0.0686 -0.4952 -1.4006
  623DG      H814314   1.452   2.481   3.639  1.1484 -1.4383  1.6583
  623DG      O914315   1.921   2.163   3.927 -0.0254 -0.0875 -0.1756
  623DG     O1014316   1.618   2.374   3.564 -0.5851  0.3018  0.8660
  623DG     C1114317   2.019   2.261   3.907  0.8042 -0.7017  0.2692
  623DG     C1214318   1.727   2.470   3.564 -0.1036  0.4489  0.2993
  623DG     H1314319   2.098   2.231   3.837  0.1458  2.1409 -1.8741
  623DG     H1414320   2.058   2.278   4.007 -0.6527 -1.8117  1.0571
  623DG     H1514321   1.700   2.569   3.527 -0.3971  0.3314  0.1980
  623DG     H1614322   1.801   2.416   3.505 -1.9406 -1.3988 -0.4200
  623DG     C1714323   1.948   2.387   3.858  0.3530 -0.4149  0.3963
  623DG     C1814324   1.791   2.489   3.703  0.8545  0.1867 -1.0089
  623DG     O1914325   1.854   2.369   3.746  0.3447  0.0853  0.3936
  623DG     H2014326   2.017   2.469   3.837  0.7971 -1.1548 -1.2056
  623DG     H2114327   1.894   2.430   3.942 -0.3867  0.6968 -0.6083
  623DG     H2214328   1.867   2.564   3.684  0.8852 -0.5485 -4.3711
  623DG     H2314329   1.716   2.530   3.770 -0.5150 -1.5428 -1.3937
  624DG      C114330   1.145   0.095   5.216  0.0380  0.3561 -0.7445
  624DG      C214331   1.373  -0.672   4.997 -0.2053  0.8159 -0.0367
  624DG      H314332   1.045   0.083   5.174 -0.5919 -0.2760  0.8437
  624DG      H414333   1.164   0.200   5.238  0.1187 -0.1387  1.8446
  624DG      H514334   1.135   0.046   5.313  0.1259 -2.0968 -1.8795
  624DG      H614335   1.442  -0.735   4.940 -0.0690 -0.4997  1.5180
  624DG      H714336   1.365  -0.694   5.103 -2.4945 -2.3066 -0.7065
  624DG      H814337   1.280  -0.715   4.960  1.3735 -3.4490  0.3397
  624DG      O914338   1.255   0.045   5.139 -0.0980  0.5381 -0.2631
  624DG     O1014339   1.391  -0.530   4.984 -0.2623  0.5084 -0.1894
  624DG     C1114340   1.224  -0.083   5.086 -0.0063 -0.1228 -0.2210
  624DG     C1214341   1.365  -0.477   4.858  0.2030  0.4043  0.9898
  624DG     H1314342   1.122  -0.087   5.046 -0.1114 -0.5910  0.0717
  624DG     H1414343   1.222  -0.157   5.167  2.8129  0.7840  0.8049
  624DG     H1514344   1.261  -0.479   4.827  0.2293  1.6509  0.7633
  624DG     H1614345   1.432  -0.511   4.779 -1.6333  1.0300 -0.9345
  624DG     C1714346   1.337  -0.127   4.985  0.1731 -0.3590 -0.0068
  624DG     C1814347   1.391  -0.328   4.870  0.0551 -0.7072 -0.3229
  624DG     O1914348   1.299  -0.257   4.949 -0.7506 -0.7831  0.4801
  624DG     H2014349   1.429  -0.122   5.043 -0.6295  0.1424  1.2647
  624DG     H2114350   1.345  -0.055   4.903 -1.9406 -0.8551 -0.7127
  624DG     H2214351   1.491  -0.320   4.913  0.0972 -0.0874 -0.5133
  624DG     H2314352   1.392  -0.293   4.767  0.3129  0.6078  0.1032
  625DG      C114353   4.595   4.417   2.963  0.5419 -0.6036 -0.2988
  625DG      C214354   4.177   4.899   2.674  0.5763 -0.4132 -0.7094
  625DG      H314355   4.555   4.463   3.053  0.9797 -1.4218  0.3282
  625DG      H414356   4.703   4.426   2.954  0.3423  0.6674 -2.1333
  625DG      H514357   4.561   4.314   2.972  0.0567 -0.4161  0.0735
  625DG      H614358   4.124   4.918   2.581 -1.4042 -1.7251  0.0718
  625DG      H714359   4.107   4.920   2.755  1.2837  2.5035 -0.7413
  625DG      H814360   4.253   4.973   2.697  2.0805 -2.4102  1.2195
  625DG      O914361   4.531   4.481   2.851 -0.3422 -0.2080 -0.2798
  625DG     O1014362   4.234   4.768   2.662 -0.1955  0.1834 -0.5907
  625DG     C1114363   4.598   4.435   2.729  0.5481 -0.4710 -0.3056
  625DG     C1214364   4.312   4.759   2.544 -0.8003  0.0524  0.0076
  625DG     H1314365   4.626   4.329   2.734  0.3368 -0.4715  2.2229
  625DG     H1414366   4.689   4.495   2.720 -0.3296  0.6125 -2.4791
  625DG     H1514367   4.391   4.834   2.539 -0.9809  0.3298  1.0897
  625DG     H1614368   4.259   4.779   2.451  0.2750 -3.3163 -1.4691
  625DG     C1714369   4.503   4.456   2.605  0.1199 -0.5539 -0.0461
  625DG     C1814370   4.362   4.615   2.517  0.2921  0.6929 -0.0109
  625DG     O1914371   4.451   4.585   2.621  0.0378  0.2485  0.0009
  625DG     H2014372   4.417   4.389   2.612  1.2687 -2.4734 -2.6508
  625DG     H2114373   4.548   4.447   2.506  0.0868  1.1168 -0.2373
  625DG     H2214374   4.278   4.546   2.523  0.1974  0.7041 -1.0123
  625DG     H2314375   4.402   4.612   2.416 -0.2189  0.0180 -0.2009
  626DG      C114376   2.924   3.932   1.269 -1.0554 -0.2271  0.2840
  626DG      C214377   3.104   3.950   1.802  0.6618 -0.0625 -0.5996
  626DG      H314378   2.958   3.833   1.300  1.8551  0.8109  0.6492
  626DG      H414379   2.993   3.967   1.193 -0.0928 -0.5166  1.0062
  626DG      H514380   2.819   3.926   1.238 -0.2374 -0.5985 -2.6715
  626DG      H614381   3.130   3.847   1.777  1.6423  0.2826 -1.0359
  626DG      H714382   3.130   3.964   1.907 -0.1180 -0.0895 -0.3967
  626DG      H814383   2.995   3.946   1.802  0.6754 -0.5491 -0.7241
  626DG      O914384   2.927   4.006   1.387 -0.0863  0.5200  0.5975
  626DG     O1014385   3.155   4.046   1.716  0.4986 -0.0138  0.3511
  626DG     C1114386   2.853   4.127   1.383  0.0102  0.1947  0.4921
  626DG     C1214387   3.130   4.184   1.741  0.1630  0.4301  0.3518
  626DG     H1314388   2.752   4.113   1.345 -0.7976  0.1956  2.4858
  626DG     H1414389   2.897   4.200   1.316 -1.8880  1.3860  0.4669
  626DG     H1514390   3.205   4.251   1.699 -2.0491  1.3529 -2.5106
  626DG     H1614391   3.138   4.199   1.849  0.2126  2.5534  0.0905
  626DG     C1714392   2.842   4.188   1.524 -0.4858 -0.2978  1.0148
  626DG     C1814393   2.991   4.222   1.701 -0.5222 -0.6036  0.2068
  626DG     O1914394   2.975   4.189   1.566 -0.0369 -0.0359 -0.4012
  626DG     H2014395   2.772   4.144   1.595  0.5380  1.0586  2.9791
  626DG     H2114396   2.815   4.293   1.513  1.7972  0.4172  1.7375
  626DG     H2214397   2.928   4.170   1.774  0.1579 -0.9553  0.5560
  626DG     H2314398   2.980   4.330   1.712  0.5115 -0.3874 -0.7124
  627DG      C114399   0.409   4.466   1.357  0.3981 -0.0408  0.0955
  627DG      C214400  -0.060   4.975   1.314  0.7066 -0.7310  0.4771
  627DG      H314401   0.393   4.486   1.463 -0.3048  1.1301 -0.2220
  627DG      H414402   0.506   4.420   1.336 -1.2028 -2.3725 -3.0212
  627DG      H514403   0.331   4.400   1.319 -0.8145  2.3161 -1.7554
  627DG      H614404  -0.117   5.023   1.393  2.3544 -0.6511  1.6803
  627DG      H714405  -0.088   5.023   1.221 -0.5234 -0.7667  0.8098
  627DG      H814406  -0.100   4.875   1.303 -0.2399 -0.5058  1.6955
  627DG      O914407   0.403   4.587   1.283 -0.0681  0.1495  0.2844
  627DG     O1014408   0.075   4.970   1.326 -0.1879 -0.3124 -0.2536
  627DG     C1114409   0.500   4.681   1.334 -0.3381  0.3568 -0.0657
  627DG     C1214410   0.125   4.894   1.437 -0.4660 -0.1039 -0.3983
  627DG     H1314411   0.595   4.654   1.289  0.4916 -0.1218  1.8542
  627DG     H1414412   0.509   4.674   1.443  1.5367 -0.4284 -0.2323
  627DG     H1514413   0.092   4.791   1.443  1.5934 -0.9041 -1.7586
  627DG     H1614414   0.087   4.947   1.524 -0.9452 -1.3677  0.1697
  627DG     C1714415   0.460   4.826   1.303  0.0408  0.3664 -0.2026
  627DG     C1814416   0.279   4.892   1.434  0.8096 -0.4391 -0.0972
  627DG     O1914417   0.321   4.845   1.306 -0.2516  0.2752 -0.3983
  627DG     H2014418   0.486   4.857   1.202 -1.2178  0.8150 -0.3985
  627DG     H2114419   0.506   4.901   1.368 -0.9243 -0.7893  1.9169
  627DG     H2214420   0.317   4.992   1.452  0.6496 -0.6296  1.4057
  627DG     H2314421   0.302   4.832   1.523  0.7029  0.7850  0.7796
  628DG      C114422   3.533   1.481   5.036  0.1889  0.7699  0.2106
  628DG      C214423   3.361   0.821   5.124  0.3357  0.2960 -0.9483
  628DG      H314424   3.612   1.517   5.103 -1.4479  4.4607  0.3954
  628DG      H414425   3.460   1.562   5.040 -0.7489 -0.0815  3.0650
  628DG      H514426   3.561   1.465   4.932  1.1656  1.7203  0.3040
  628DG      H614427   3.388   0.730   5.177 -0.0527  1.8090  2.0532
  628DG      H714428   3.326   0.799   5.023  1.4891 -1.3607 -1.0124
  628DG      H814429   3.449   0.885   5.120  0.9834 -0.5697 -0.5662
  628DG      O914430   3.483   1.361   5.083 -0.2661 -0.3207  0.3113
  628DG     O1014431   3.255   0.895   5.184 -0.5431 -0.3107 -0.2920
  628DG     C1114432   3.437   1.381   5.217 -0.0657  0.6841 -0.1780
  628DG     C1214433   3.209   1.014   5.119  0.0141  0.4821  0.8426
  628DG     H1314434   3.347   1.441   5.235 -1.3580 -1.4541  0.8589
  628DG     H1414435   3.516   1.432   5.273 -0.3219  0.6949  0.1744
  628DG     H1514436   3.122   1.041   5.180 -1.0048 -1.5574  0.3673
  628DG     H1614437   3.182   0.991   5.016  2.2421  2.6701 -0.3363
  628DG     C1714438   3.419   1.245   5.291  0.1422  0.1078 -0.0219
  628DG     C1814439   3.304   1.128   5.123 -0.5692 -0.4160  0.3400
  628DG     O1914440   3.303   1.176   5.253  0.1263  0.3577  0.1944
  628DG     H2014441   3.409   1.255   5.400  1.7697  3.7801 -0.0631
  628DG     H2114442   3.509   1.184   5.290  0.1961  0.0857  2.0029
  628DG     H2214443   3.403   1.106   5.084 -1.3423 -0.6711 -1.5653
  628DG     H2314444   3.267   1.202   5.052  1.5257  0.8693  0.5058
  629DG      C114445   1.108   4.919   2.581 -0.2255  0.3942 -0.6241
  629DG      C214446   0.516   4.707   3.204  0.3680 -0.4568 -0.5763
  629DG      H314447   1.181   4.867   2.519  2.1619  0.6562  1.7803
  629DG      H414448   1.166   4.993   2.636  2.0675 -1.3101 -0.5995
  629DG      H514449   1.042   4.972   2.513  3.4608  2.5353 -2.8274
  629DG      H614450   0.477   4.636   3.277 -0.0853  0.0838 -0.2869
  629DG      H714451   0.553   4.794   3.259  0.4475 -1.3921  0.9222
  629DG      H814452   0.444   4.733   3.127  0.4388 -0.1835 -0.5508
  629DG      O914453   1.032   4.845   2.673  0.1777 -0.1863  0.0522
  629DG     O1014454   0.621   4.647   3.140 -0.1801 -0.3916 -0.6875
  629DG     C1114455   1.091   4.812   2.801  0.2434 -0.4244  0.0054
  629DG     C1214456   0.697   4.722   3.050 -0.1368 -0.3745  0.1055
  629DG     H1314457   1.088   4.901   2.864 -0.2805  0.3534 -1.0844
  629DG     H1414458   1.191   4.779   2.772 -0.1440 -0.0235 -1.8858
  629DG     H1514459   0.725   4.811   3.107 -3.4116  1.0482 -0.2803
  629DG     H1614460   0.640   4.760   2.966  1.9425 -0.2111 -1.3076
  629DG     C1714461   1.017   4.699   2.874 -0.0026  0.2117  0.4934
  629DG     C1814462   0.820   4.654   3.006  0.5417  0.2864  0.2588
  629DG     O1914463   0.893   4.747   2.919  0.1025  0.5685  0.6684
  629DG     H2014464   1.074   4.666   2.962 -1.4303 -1.6222  0.7711
  629DG     H2114465   0.997   4.613   2.810 -1.4041  0.9665 -0.1090
  629DG     H2214466   0.885   4.639   3.092  1.6797  0.7903 -0.4835
  629DG     H2314467   0.811   4.552   2.969 -0.2855  0.6707 -0.6416
  630DG      C114468   5.444   3.261   5.341 -0.5896  0.0416  0.2297
  630DG      C214469   4.910   3.815   5.373 -0.4767 -0.1397 -0.3114
  630DG      H314470   5.358   3.215   5.292 -0.0944  0.1527 -0.7682
  630DG      H414471   5.501   3.181   5.389 -3.4972 -1.8479  0.7848
  630DG      H514472   5.508   3.296   5.260 -1.7094 -1.1224 -1.2051
  630DG      H614473   4.949   3.722   5.416  0.4972 -0.8236 -2.4748
  630DG      H714474   4.946   3.905   5.423 -2.4171 -0.5355  1.9542
  630DG      H814475   4.802   3.823   5.380 -0.4153 -0.3311  1.2011
  630DG      O914476   5.383   3.365   5.416 -0.5301  0.3339 -0.1833
  630DG     O1014477   4.943   3.820   5.232  0.4623 -0.2640 -0.0332
  630DG     C1114478   5.326   3.468   5.334  0.2137  0.3105 -0.6257
  630DG     C1214479   5.075   3.795   5.183  0.3919 -0.3934  0.2533
  630DG     H1314480   5.316   3.446   5.228  0.3487  0.0679 -0.5893
  630DG     H1414481   5.405   3.543   5.327  1.4398 -0.7419  0.9750
  630DG     H1514482   5.152   3.865   5.217  0.1181 -0.9448  2.1531
  630DG     H1614483   5.058   3.801   5.076 -2.4440  0.0139  0.6230
  630DG     C1714484   5.199   3.520   5.405 -0.1490  0.1337  0.0718
  630DG     C1814485   5.110   3.650   5.219 -1.1321  0.3304 -0.3574
  630DG     O1914486   5.163   3.645   5.348 -0.4515 -0.3412 -0.3306
  630DG     H2014487   5.215   3.536   5.511  2.1112 -0.6341 -0.0961
  630DG     H2114488   5.121   3.444   5.396 -0.5232  0.4049  0.8955
  630DG     H2214489   5.023   3.585   5.218  0.2518 -1.6565  1.1510
  630DG     H2314490   5.177   3.607   5.145  0.6652 -2.2899  2.5582
  631DG      C114491   2.711   2.119   2.632  0.5167  1.0886 -0.4039
  631DG      C214492   2.462   2.703   2.658  0.7779 -0.5106 -0.1597
  631DG      H314493   2.816   2.148   2.621  0.0924  2.6634 -0.5751
  631DG      H414494   2.702   2.014   2.607 -0.8025  1.0520  0.1185
  631DG      H514495   2.692   2.126   2.739 -0.5852  4.2398 -0.6742
  631DG      H614496   2.423   2.786   2.598  1.0453  0.5819  1.1400
  631DG      H714497   2.391   2.683   2.738  0.6178 -0.5574 -0.3115
  631DG      H814498   2.557   2.731   2.703  0.9564  0.1370 -0.9116
  631DG      O914499   2.621   2.185   2.545  0.1344 -0.2077  0.3373
  631DG     O1014500   2.466   2.595   2.561 -0.4430 -0.2529 -0.0646
  631DG     C1114501   2.645   2.161   2.405  1.0605  0.1929 -0.2708
  631DG     C1214502   2.537   2.626   2.441  0.3233 -0.9318  0.1966
  631DG     H1314503   2.603   2.063   2.381 -0.3653  0.9637 -1.0421
  631DG     H1414504   2.750   2.162   2.376  1.0239 -0.2702 -0.4253
  631DG     H1514505   2.640   2.652   2.467  0.3927  2.2499 -2.5197
  631DG     H1614506   2.502   2.723   2.406 -0.0138 -0.9099  0.5861
  631DG     C1714507   2.574   2.276   2.332  0.3949  0.5173 -0.6247
  631DG     C1814508   2.527   2.511   2.341 -0.3431  0.6095 -0.0442
  631DG     O1914509   2.598   2.399   2.393  0.8433  0.2331 -0.5813
  631DG     H2014510   2.467   2.258   2.338  0.4079  0.7019  0.3762
  631DG     H2114511   2.601   2.286   2.227 -0.7099  0.5063 -0.9162
  631DG     H2214512   2.419   2.499   2.328 -0.3853 -1.8783  1.8329
  631DG     H2314513   2.573   2.529   2.244  2.0408 -1.6583  0.5332
  632DG      C114514   0.174   1.706   2.314 -0.4026  0.1629  0.7718
  632DG      C214515  -0.325   1.098   2.495  0.2566  0.4614  0.1501
  632DG      H314516   0.134   1.788   2.373  0.2568  0.0675  1.3659
  632DG      H414517   0.216   1.751   2.224  1.2204  1.8676  2.3222
  632DG      H514518   0.256   1.665   2.373 -1.3659 -0.9234  1.3972
  632DG      H614519  -0.252   1.028   2.534 -0.1931 -0.2430 -0.2496
  632DG      H714520  -0.390   1.118   2.580 -1.8162 -2.0083 -0.7178
  632DG      H814521  -0.383   1.030   2.432  0.1000 -1.5723  2.3790
  632DG      O914522   0.073   1.610   2.277 -0.4612 -0.2891  0.3646
  632DG     O1014523  -0.290   1.207   2.420  0.2391  0.3438  0.3790
  632DG     C1114524   0.021   1.556   2.396  0.5511  0.6443  0.0087
  632DG     C1214525  -0.184   1.168   2.323  0.0430  0.2664 -0.2396
  632DG     H1314526   0.005   1.629   2.475  2.0337  0.5713  0.4168
  632DG     H1414527   0.096   1.489   2.438 -0.4343 -0.5054 -0.0074
  632DG     H1514528  -0.221   1.078   2.273 -0.0704  0.2815 -0.1829
  632DG     H1614529  -0.099   1.139   2.385  1.6327 -2.6415 -3.4425
  632DG     C1714530  -0.096   1.466   2.362  0.2826 -0.3980 -0.5536
  632DG     C1814531  -0.138   1.271   2.224  0.0003 -0.0401 -0.7120
  632DG     O1914532  -0.047   1.364   2.286  0.3379 -0.1827  0.2239
  632DG     H2014533  -0.173   1.522   2.308 -0.4028  0.5815  1.3505
  632DG     H2114534  -0.156   1.432   2.446  0.8700 -2.2171 -0.8393
  632DG     H2214535  -0.062   1.229   2.158 -0.9173 -0.7030 -1.3778
  632DG     H2314536  -0.212   1.316   2.158  1.9540  2.5091 -1.3358
  633DG      C114537   2.122   2.897   5.129  0.6339 -0.0106  0.6633
  633DG      C214538   2.020   2.524   4.638 -0.2274 -0.0202  0.8138
  633DG      H314539   2.212   2.958   5.122  0.7685 -0.1082  1.4656
  633DG      H414540   2.046   2.955   5.181 -1.2262 -2.0286  0.3242
  633DG      H514541   2.072   2.880   5.033  0.2855  1.5537  0.5452
  633DG      H614542   2.063   2.611   4.587  2.1413 -1.2916  0.4807
  633DG      H714543   2.089   2.441   4.623  0.9369  1.1605 -0.8123
  633DG      H814544   1.921   2.502   4.597  0.2211 -0.3363 -0.1443
  633DG      O914545   2.153   2.767   5.193  0.0975 -0.4582  0.1627
  633DG     O1014546   1.997   2.556   4.778 -0.1755  0.3113  0.3653
  633DG     C1114547   2.039   2.709   5.256  0.3144 -0.2781 -0.2242
  633DG     C1214548   1.914   2.465   4.848  0.7713  0.3074 -0.5306
  633DG     H1314549   2.014   2.783   5.332  0.3856 -2.9354  2.5899
  633DG     H1414550   2.076   2.626   5.317 -0.3223  0.0635  0.6370
  633DG     H1514551   1.967   2.370   4.857 -0.8763 -0.5467  0.7691
  633DG     H1614552   1.824   2.442   4.791  1.5785  2.4090 -2.8043
  633DG     C1714553   1.919   2.662   5.167 -0.2337 -0.7654 -1.1819
  633DG     C1814554   1.874   2.518   4.986  0.3683 -0.0676 -0.4117
  633DG     O1914555   1.972   2.579   5.067  0.7054 -0.7106 -0.5156
  633DG     H2014556   1.873   2.754   5.131 -0.8432  0.2220  1.8058
  633DG     H2114557   1.854   2.616   5.242  1.7471 -0.9766  0.5139
  633DG     H2214558   1.790   2.585   4.973  1.1545  1.0042 -0.0785
  633DG     H2314559   1.842   2.429   5.040  0.1875 -0.2542 -0.8201
  634DG      C114560   2.428   3.399   1.685  0.5160  0.3885  0.1139
  634DG      C214561   2.397   4.034   1.605 -0.1830 -0.5953 -0.0491
  634DG      H314562   2.417   3.312   1.620 -1.0616 -0.4973  1.4849
  634DG      H414563   2.412   3.348   1.780 -1.2873 -0.3370 -0.5333
  634DG      H514564   2.530   3.438   1.682  0.5922  0.2015  0.2704
  634DG      H614565   2.482   4.012   1.540  1.2995  2.6644  0.6032
  634DG      H714566   2.363   4.130   1.566  1.3656  0.3949  0.9233
  634DG      H814567   2.429   4.045   1.709 -2.8418 -2.7045  1.1009
  634DG      O914568   2.344   3.503   1.649  0.3880 -0.5413  0.3429
  634DG     O1014569   2.305   3.931   1.591  0.6025 -0.0212 -0.5349
  634DG     C1114570   2.210   3.472   1.677 -0.2609  0.3900  0.3425
  634DG     C1214571   2.179   3.939   1.667  0.3025  0.5294 -0.0784
  634DG     H1314572   2.191   3.448   1.781 -0.1168  0.1780  0.3211
  634DG     H1414573   2.186   3.385   1.617  1.1539  0.1946  0.0331
  634DG     H1514574   2.116   4.023   1.637  0.5141  0.3752 -0.9989
  634DG     H1614575   2.197   3.952   1.773  1.5588 -0.8513 -0.1005
  634DG     C1714576   2.115   3.584   1.633  0.2930 -0.1501  0.6747
  634DG     C1814577   2.090   3.820   1.641 -0.2893  0.2490 -0.4254
  634DG     O1914578   2.182   3.709   1.653 -0.1143 -0.5783  0.2109
  634DG     H2014579   2.022   3.567   1.688 -0.7023 -0.3029 -0.9740
  634DG     H2114580   2.087   3.570   1.528  2.7762 -0.4044 -0.0197
  634DG     H2214581   2.003   3.813   1.706 -0.0768  1.1902 -0.0255
  634DG     H2314582   2.058   3.831   1.537 -0.1630  4.0303 -0.2105
  635DG      C114583   1.197   1.657   1.631  0.3548  0.2605  0.0197
  635DG      C214584   1.309   0.990   1.149  0.4428 -0.6758 -0.5080
  635DG      H314585   1.238   1.702   1.722 -1.8786  2.2059  0.1675
  635DG      H414586   1.090   1.675   1.625  0.3416 -0.1125 -0.8701
  635DG      H514587   1.242   1.707   1.546  0.5032 -0.1909 -0.1668
  635DG      H614588   1.231   1.035   1.087 -0.8797 -1.8952  0.2299
  635DG      H714589   1.390   0.980   1.076  1.0375  2.2158 -0.3826
  635DG      H814590   1.261   0.896   1.177 -1.8438 -0.3313 -2.8506
  635DG      O914591   1.219   1.519   1.618  0.2874  0.8923  0.3511
  635DG     O1014592   1.344   1.078   1.259  0.6220  0.1064  0.2357
  635DG     C1114593   1.363   1.483   1.624  0.8427 -0.5848 -0.4833
  635DG     C1214594   1.227   1.096   1.335 -0.2795 -0.2302 -0.0051
  635DG     H1314595   1.398   1.509   1.724  0.3685  1.5770 -0.8390
  635DG     H1414596   1.417   1.548   1.556 -0.1841  0.7595 -0.0432
  635DG     H1514597   1.171   1.003   1.347 -0.5755 -0.2699 -1.4990
  635DG     H1614598   1.168   1.181   1.300 -1.5704 -0.0344  2.4304
  635DG     C1714599   1.376   1.333   1.598 -0.1413  0.1410 -0.1350
  635DG     C1814600   1.286   1.151   1.474  0.3118 -0.3384  0.1609
  635DG     O1914601   1.319   1.289   1.475 -0.1356 -0.3593  0.1681
  635DG     H2014602   1.345   1.276   1.686  1.3363 -1.4892 -0.6163
  635DG     H2114603   1.483   1.320   1.579 -0.1781 -1.4872  0.5901
  635DG     H2214604   1.205   1.143   1.547  0.1456  1.6337  0.2306
  635DG     H2314605   1.376   1.097   1.506  1.5821  1.7369  0.2423
  636DG      C114606   4.646   1.678   4.152 -0.6658 -0.3937 -0.7511
  636DG      C214607   5.221   1.736   4.426  0.5207 -0.8144 -0.2466
  636DG      H314608   4.734   1.655   4.212 -2.5520  1.3565  3.0159
  636DG      H414609   4.669   1.644   4.051  0.6390  0.6969 -0.8510
  636DG      H514610   4.562   1.634   4.206  0.1470  0.3581  1.2304
  636DG      H614611   5.301   1.787   4.479 -0.2804  0.2831 -0.0565
  636DG      H714612   5.184   1.651   4.485 -0.8508  0.3703  0.6708
  636DG      H814613   5.260   1.695   4.334  2.0211 -1.6453  0.7224
  636DG      O914614   4.633   1.822   4.155 -0.1121  0.1109 -0.0191
  636DG     O1014615   5.126   1.837   4.396  0.3432  0.3056  0.0881
  636DG     C1114616   4.606   1.872   4.285 -0.1795 -0.1798  0.4440
  636DG     C1214617   5.042   1.866   4.510 -0.4653 -0.4410 -0.1168
  636DG     H1314618   4.565   1.798   4.353  0.6405 -0.8033  0.2638
  636DG     H1414619   4.520   1.937   4.269 -1.2268 -1.4339  0.7954
  636DG     H1514620   5.106   1.902   4.591 -2.3045  0.8002  0.8669
  636DG     H1614621   4.992   1.773   4.538 -0.2333 -0.4788  0.1804
  636DG     C1714622   4.723   1.955   4.354  0.0507 -0.1376  0.5498
  636DG     C1814623   4.930   1.965   4.467  0.4010 -0.0153 -0.4419
  636DG     O1914624   4.842   1.883   4.392 -0.1705  0.2465 -0.1543
  636DG     H2014625   4.682   2.012   4.438 -1.9846 -1.0545  0.2337
  636DG     H2114626   4.751   2.039   4.291  1.0472 -0.1672  0.9312
  636DG     H2214627   4.893   2.002   4.563 -3.3473  0.0960 -1.7839
  636DG     H2314628   4.967   2.051   4.412 -0.1688 -0.9911 -2.4335
  637DG      C114629   2.784   1.106   2.843 -0.5989  0.2044 -0.3650
  637DG      C214630   3.415   1.118   2.435  0.4817  0.5952  0.4228
  637DG      H314631   2.683   1.091   2.805 -0.6482 -1.8170  0.4308
  637DG      H414632   2.808   1.211   2.858 -0.5964  0.1052  0.3366
  637DG      H514633   2.787   1.054   2.939 -0.6267 -0.4770 -0.7237
  637DG      H614634   3.505   1.179   2.428  1.8308 -1.4627 -1.3487
  637DG      H714635   3.449   1.032   2.492 -0.6742 -1.0384 -1.2534
  637DG      H814636   3.395   1.068   2.341 -2.1897 -1.0509  1.7409
  637DG      O914637   2.879   1.061   2.744  0.0953  0.1007 -0.0326
  637DG     O1014638   3.314   1.195   2.492  0.1759  0.3567 -0.7536
  637DG     C1114639   2.891   1.122   2.615 -0.2043 -0.0406 -0.4330
  637DG     C1214640   3.274   1.318   2.441 -0.4004 -0.0951  0.1332
  637DG     H1314641   2.798   1.168   2.581  0.8304  2.9590  0.4977
  637DG     H1414642   2.916   1.038   2.550 -0.7822 -2.0478  1.7962
  637DG     H1514643   3.251   1.303   2.335  1.0766  1.4277 -0.4480
  637DG     H1614644   3.354   1.392   2.451  0.7332 -1.2400 -0.2178
  637DG     C1714645   3.003   1.227   2.633  0.0345 -0.1664 -0.5078
  637DG     C1814646   3.147   1.369   2.505  0.4830 -0.2169 -0.4944
  637DG     O1914647   3.040   1.273   2.506  0.5673 -0.2002 -0.0338
  637DG     H2014648   3.094   1.190   2.679  0.7818  1.8099 -0.3162
  637DG     H2114649   2.970   1.311   2.694 -1.9990 -1.4817  0.3045
  637DG     H2214650   3.165   1.422   2.599  0.7673  0.2126 -0.7917
  637DG     H2314651   3.108   1.450   2.444  0.8648  1.1396  0.9734
  638DG      C114652   0.470   1.714   5.325  0.6870 -0.5831 -0.3328
  638DG      C214653   0.149   1.368   5.059  0.0808 -0.1520 -0.2669
  638DG      H314654   0.550   1.741   5.394 -0.9548 -0.0908  1.4866
  638DG      H414655   0.382   1.738   5.385  2.1106  3.7252  0.2986
  638DG      H514656   0.473   1.789   5.246  1.3090 -0.4715 -0.2053
  638DG      H614657   0.199   1.438   5.126 -0.7651 -0.9846  1.3160
  638DG      H714658   0.144   1.404   4.957  0.3834  0.2402 -0.1434
  638DG      H814659   0.045   1.371   5.094 -0.6490 -1.6826 -2.1061
  638DG      O914660   0.480   1.587   5.262 -0.1529  0.0759 -0.0184
  638DG     O1014661   0.190   1.233   5.078 -0.0345 -0.1847 -0.2585
  638DG     C1114662   0.597   1.571   5.184 -0.1403 -0.1170 -0.8557
  638DG     C1214663   0.322   1.196   5.030  0.2727  0.2008 -0.4337
  638DG     H1314664   0.682   1.593   5.249 -2.0400  0.4233  1.5987
  638DG     H1414665   0.600   1.639   5.099  0.7170  1.3556  0.3031
  638DG     H1514666   0.342   1.236   4.930  1.8603  1.4484  0.3247
  638DG     H1614667   0.312   1.088   5.027 -3.1054  0.2146  2.8666
  638DG     C1714668   0.595   1.424   5.143 -0.1221 -0.1917 -0.2729
  638DG     C1814669   0.435   1.252   5.115  0.1013  0.5138  0.0134
  638DG     O1914670   0.463   1.394   5.090  0.1777  0.4997 -0.2240
  638DG     H2014671   0.617   1.369   5.234 -0.6371  0.3487  0.1944
  638DG     H2114672   0.673   1.411   5.068 -2.2233  1.5857 -2.9600
  638DG     H2214673   0.404   1.263   5.218 -0.6051 -1.3285  0.0221
  638DG     H2314674   0.527   1.194   5.102 -0.6059 -0.7434  0.5006
  639DG      C114675   1.968   1.429   0.126  0.0795  0.2500 -0.5688
  639DG      C214676   2.284   1.243  -0.757  0.1147  0.7303  0.3092
  639DG      H314677   1.902   1.344   0.142 -0.9290  0.9376 -0.9980
  639DG      H414678   1.912   1.513   0.166 -0.6392  0.0858 -1.2115
  639DG      H514679   2.057   1.430   0.189  0.0159 -0.1381 -0.4685
  639DG      H614680   2.350   1.327  -0.775 -0.3704  1.4593  1.8093
  639DG      H714681   2.346   1.158  -0.727 -0.3722 -0.5847 -2.1197
  639DG      H814682   2.229   1.229  -0.851  2.3019 -0.0726 -0.9337
  639DG      O914683   1.992   1.472  -0.007  0.6350 -0.1281 -0.2390
  639DG     O1014684   2.192   1.279  -0.661  0.6640 -0.0336  0.2914
  639DG     C1114685   2.071   1.383  -0.081  0.5018  0.0890  0.6893
  639DG     C1214686   2.246   1.295  -0.533  0.3227  0.0824 -0.0729
  639DG     H1314687   2.027   1.283  -0.078  0.7012 -0.1577 -2.0115
  639DG     H1414688   2.170   1.377  -0.035  0.7685 -2.2739 -0.0832
  639DG     H1514689   2.344   1.341  -0.528  0.2807  0.1374  0.2323
  639DG     H1614690   2.256   1.196  -0.489  1.4478  0.4718  0.5809
  639DG     C1714691   2.050   1.423  -0.231  0.0729  0.3674 -0.1643
  639DG     C1814692   2.142   1.375  -0.443  0.2347 -0.0250  0.6701
  639DG     O1914693   2.131   1.333  -0.307  0.5597 -0.1651  0.2741
  639DG     H2014694   2.091   1.524  -0.234 -1.0447  1.0100  2.7885
  639DG     H2114695   1.943   1.410  -0.250  0.4029 -3.0579 -0.2444
  639DG     H2214696   2.167   1.481  -0.448  1.7400 -0.3414  1.1704
  639DG     H2314697   2.041   1.377  -0.486  0.6247  0.0174 -0.2633
  640DG      C114698   0.613   0.758   1.023  0.0328  0.0664  0.0328
  640DG      C214699   0.790   1.058   0.475  0.2110 -0.2654 -0.3041
  640DG      H314700   0.697   0.762   0.954  1.5539  0.5496  1.8528
  640DG      H414701   0.606   0.652   1.049 -0.0514 -0.2839 -1.3033
  640DG      H514702   0.622   0.813   1.116  0.4197 -0.4871  0.3242
  640DG      H614703   0.834   1.097   0.567  0.2451 -0.4533 -0.2404
  640DG      H714704   0.847   0.992   0.410  0.3071  0.1358 -0.6317
  640DG      H814705   0.779   1.147   0.413  0.7080 -0.3468 -0.5166
  640DG      O914706   0.510   0.815   0.944 -0.2396  0.0010  0.0388
  640DG     O1014707   0.665   0.994   0.489 -0.5896  0.0504  0.4033
  640DG     C1114708   0.478   0.724   0.840  0.6082 -0.0299 -0.4692
  640DG     C1214709   0.561   1.067   0.544  0.3459 -0.3042 -0.6088
  640DG     H1314710   0.414   0.647   0.883  0.1257  0.2499 -0.6726
  640DG     H1414711   0.558   0.667   0.792  2.1390  0.9679  0.8171
  640DG     H1514712   0.538   1.150   0.478  1.6911 -1.0995 -2.1523
  640DG     H1614713   0.598   1.108   0.638 -0.0403  2.2149 -1.4978
  640DG     C1714714   0.399   0.802   0.735  0.3269 -0.2903  0.0021
  640DG     C1814715   0.441   0.977   0.572 -0.9879  0.4096 -0.4573
  640DG     O1914716   0.481   0.898   0.680 -0.0369  0.5019  0.5841
  640DG     H2014717   0.308   0.851   0.768  0.8631 -0.1733  1.3796
  640DG     H2114718   0.363   0.747   0.648  2.9942 -1.3766 -0.5063
  640DG     H2214719   0.355   1.041   0.589 -1.5536 -0.1287 -1.2242
  640DG     H2314720   0.425   0.906   0.490  2.7679 -2.2525  0.8383
  641DG      C114721   2.394   0.350   3.466 -0.2132 -0.1521  0.0804
  641DG      C214722   1.923   0.986   3.358 -0.3558  0.0187  0.5092
  641DG      H314723   2.493   0.319   3.432  0.8142  1.2660  1.5938
  641DG      H414724   2.316   0.276   3.447 -1.9746  0.7677  3.0598
  641DG      H514725   2.410   0.348   3.574  1.2541  3.2932  0.0687
  641DG      H614726   1.835   0.967   3.420 -0.1852  0.5547  0.9122
  641DG      H714727   1.939   1.093   3.357  0.8278 -0.1444  0.7089
  641DG      H814728   1.901   0.955   3.256  3.0579 -1.1445 -0.0073
  641DG      O914729   2.363   0.487   3.428  0.1435  0.4860  0.0657
  641DG     O1014730   2.038   0.914   3.397  0.2618  0.1143 -0.9351
  641DG     C1114731   2.460   0.580   3.481 -0.0831  0.7186  0.3938
  641DG     C1214732   2.158   0.942   3.330 -0.4320 -0.3101 -0.7073
  641DG     H1314733   2.561   0.543   3.461  0.0895  2.3279 -2.1148
  641DG     H1414734   2.451   0.594   3.589 -1.1473  1.2277  0.2531
  641DG     H1514735   2.168   1.051   3.329  1.7634 -0.4572 -0.3220
  641DG     H1614736   2.150   0.909   3.227 -0.1240 -0.7373 -0.5938
  641DG     C1714737   2.428   0.711   3.407 -0.0140 -0.8371 -0.3307
  641DG     C1814738   2.285   0.901   3.405  0.4320 -0.4580 -0.4320
  641DG     O1914739   2.293   0.765   3.427  0.1977  0.0448 -0.6015
  641DG     H2014740   2.441   0.702   3.299 -1.5790 -0.0331 -0.6209
  641DG     H2114741   2.489   0.786   3.457 -0.2287 -1.2132  0.5212
  641DG     H2214742   2.366   0.933   3.339 -0.9613 -0.7818 -2.3599
  641DG     H2314743   2.309   0.950   3.500 -1.0201 -2.3304  0.9665
  642DG      C114744   1.016   2.969   5.479 -0.7468 -0.0671  0.5818
  642DG      C214745   0.866   2.884   4.994 -0.4061  0.2045 -0.1199
  642DG      H314746   0.990   3.074   5.490 -0.6672 -0.1420  1.5694
  642DG      H414747   1.107   2.952   5.537 -0.4256 -0.2035  0.0507
  642DG      H514748   0.939   2.904   5.518 -0.1305 -1.9179 -1.1161
  642DG      H614749   0.925   2.824   5.063 -1.2463  0.5050  0.8915
  642DG      H714750   0.848   2.980   5.042  2.1385  1.5331 -1.5935
  642DG      H814751   0.765   2.844   4.992 -0.2376 -0.2520  0.2825
  642DG      O914752   1.056   2.935   5.339  0.0466 -0.1395 -0.0593
  642DG     O1014753   0.928   2.903   4.859  0.0507  0.2232 -0.2457
  642DG     C1114754   1.181   2.990   5.309 -0.5562 -0.4194 -0.4267
  642DG     C1214755   1.033   3.001   4.863 -0.0213  0.1187 -0.3408
  642DG     H1314756   1.248   2.945   5.382 -0.6131 -2.0043 -1.3155
  642DG     H1414757   1.178   3.097   5.329 -1.3393 -0.7335  1.2647
  642DG     H1514758   0.999   3.089   4.918  0.3990  0.1364 -0.1074
  642DG     H1614759   1.060   3.031   4.762 -2.8451  1.8570 -0.7169
  642DG     C1714760   1.220   2.954   5.165 -0.6242 -0.1636 -0.0032
  642DG     C1814761   1.155   2.956   4.942  0.1768  0.3630  0.0380
  642DG     O1914762   1.128   3.005   5.072  0.1598  0.0145 -0.2064
  642DG     H2014763   1.227   2.847   5.147 -0.1393 -0.0770 -0.3690
  642DG     H2114764   1.318   2.997   5.144 -1.0566 -0.0305 -1.9324
  642DG     H2214765   1.170   2.849   4.933 -2.9701 -0.1768  0.0310
  642DG     H2314766   1.245   3.003   4.900 -0.2401  0.8823 -0.2923
  643DG      C114767   2.431   2.506   0.363  0.8392  0.4711 -0.6789
  643DG      C214768   1.971   3.119   0.773  0.4092 -0.3802  0.3377
  643DG      H314769   2.490   2.567   0.294  1.4134 -0.1742 -0.7583
  643DG      H414770   2.422   2.407   0.318 -0.0876  0.7538 -1.1518
  643DG      H514771   2.478   2.499   0.461  0.5977  0.7982 -0.5358
  643DG      H614772   1.938   3.153   0.871  1.2742  2.0316 -0.1320
  643DG      H714773   1.941   3.201   0.707  1.6883  0.8286  1.2120
  643DG      H814774   1.923   3.026   0.741 -0.5028  0.5160 -1.0050
  643DG      O914775   2.301   2.562   0.389 -0.6471  0.4397 -0.1212
  643DG     O1014776   2.117   3.124   0.794  0.1343  0.3131 -0.3805
  643DG     C1114777   2.315   2.699   0.418 -0.0253  0.0529 -0.1181
  643DG     C1214778   2.192   3.071   0.686 -0.3679  0.8925  0.1823
  643DG     H1314779   2.308   2.766   0.333  0.3226 -2.3045 -2.1297
  643DG     H1414780   2.400   2.722   0.482  1.1503 -0.2047 -1.5342
  643DG     H1514781   2.299   3.086   0.702 -0.8427  4.7026  0.7439
  643DG     H1614782   2.183   3.138   0.600 -0.4318 -0.1750 -0.6707
  643DG     C1714783   2.196   2.734   0.502 -0.1469  0.2483 -0.0731
  643DG     C1814784   2.156   2.917   0.658  0.5288  0.2885  0.2227
  643DG     O1914785   2.210   2.871   0.545 -0.2546 -0.1835 -0.0422
  643DG     H2014786   2.210   2.673   0.591  0.0615  0.2020 -0.1383
  643DG     H2114787   2.102   2.705   0.453  0.5299  0.6590 -1.6852
  643DG     H2214788   2.173   2.854   0.746 -1.2251 -0.5235  0.0213
  643DG     H2314789   2.053   2.899   0.630  1.0850 -1.6982 -0.7654
  644DG      C114790   0.521   5.453   3.143 -0.5908  0.0589  0.3426
  644DG      C214791   1.004   5.774   3.594  0.4463 -1.3197 -0.1524
  644DG      H314792   0.419   5.441   3.108 -0.9812 -1.7655  1.9319
  644DG      H414793   0.547   5.383   3.223  0.5500 -1.4347 -1.2740
  644DG      H514794   0.604   5.432   3.076  0.5892  0.4084  1.6409
  644DG      H614795   1.025   5.702   3.673  0.2063 -0.9544  0.2498
  644DG      H714796   1.061   5.750   3.505  0.9296  0.5170 -0.3858
  644DG      H814797   1.042   5.871   3.626 -1.5426 -0.4619 -0.2420
  644DG      O914798   0.544   5.577   3.198 -0.0977 -0.4729 -0.2428
  644DG     O1014799   0.866   5.771   3.557  0.2444  0.3720 -0.1030
  644DG     C1114800   0.468   5.599   3.321  0.2114  0.2929 -0.7394
  644DG     C1214801   0.817   5.886   3.492 -0.7601  0.7166 -0.4406
  644DG     H1314802   0.489   5.521   3.394 -1.5381 -0.8715 -1.4162
  644DG     H1414803   0.360   5.590   3.311  0.3518 -0.8123 -1.4061
  644DG     H1514804   0.878   5.908   3.404  0.7512  2.4264  0.9601
  644DG     H1614805   0.835   5.973   3.556  3.1864 -0.9664  1.0195
  644DG     C1714806   0.503   5.739   3.377 -0.0388 -0.8324 -0.0068
  644DG     C1814807   0.674   5.875   3.474 -0.5381  0.6368  0.2969
  644DG     O1914808   0.637   5.750   3.415 -1.1314 -0.4812  0.1047
  644DG     H2014809   0.444   5.764   3.465 -0.6518  1.0843 -0.8841
  644DG     H2114810   0.477   5.807   3.295 -1.8219 -0.9110  0.4543
  644DG     H2214811   0.613   5.892   3.563  1.3359 -0.5123  1.8822
  644DG     H2314812   0.651   5.956   3.406  1.0303  1.0338  0.1931
  645DG      C114813   3.160   2.097   2.507 -0.1184 -0.0957 -0.4133
  645DG      C214814   3.684   1.999   2.094  0.2818 -0.3522 -0.5137
  645DG      H314815   3.221   2.054   2.587  1.9143  2.0414 -0.7047
  645DG      H414816   3.133   2.013   2.442  2.3172 -2.0523  0.9132
  645DG      H514817   3.071   2.148   2.542 -0.0937 -0.6510  0.4676
  645DG      H614818   3.783   1.992   2.140 -0.4264 -0.7074  1.0335
  645DG      H714819   3.644   1.900   2.077  0.3270 -0.4349 -0.1531
  645DG      H814820   3.698   2.043   1.996  1.0340  0.1321 -0.2023
  645DG      O914821   3.240   2.168   2.424 -0.2007  0.2245  0.4626
  645DG     O1014822   3.593   2.081   2.170 -0.5898  0.2034  0.4340
  645DG     C1114823   3.251   2.303   2.461  0.0013  0.6450  0.3031
  645DG     C1214824   3.627   2.219   2.172  0.8770 -0.2511  0.0495
  645DG     H1314825   3.310   2.308   2.552 -0.7124 -0.3434  0.8391
  645DG     H1414826   3.157   2.355   2.476 -0.8923 -0.9108  0.2763
  645DG     H1514827   3.660   2.246   2.072  0.4820  0.1588  0.0268
  645DG     H1614828   3.704   2.231   2.247  0.5220 -1.8639  0.7321
  645DG     C1714829   3.330   2.355   2.346 -0.1069 -0.0521  0.2171
  645DG     C1814830   3.498   2.300   2.194  0.3480  0.0462  0.3712
  645DG     O1914831   3.450   2.287   2.327 -0.3509  0.3312 -0.1788
  645DG     H2014832   3.340   2.464   2.342 -1.0648  0.0499  0.1394
  645DG     H2114833   3.275   2.338   2.254  2.8151  0.8554 -1.8355
  645DG     H2214834   3.512   2.408   2.186  1.0428 -0.1368 -1.1620
  645DG     H2314835   3.435   2.281   2.107  0.9678 -0.0116 -0.0689
  646DG      C114836   1.773   1.380   0.959 -0.6406 -0.2817 -0.1273
  646DG      C214837   1.224   1.874   1.286  0.3066  0.8298  0.1895
  646DG      H314838   1.785   1.479   0.916 -0.6164 -1.0578 -1.9871
  646DG      H414839   1.793   1.319   0.871 -1.0034  0.2241 -0.5634
  646DG      H514840   1.861   1.363   1.021 -0.0326  0.0673 -0.8823
  646DG      H614841   1.125   1.910   1.313 -0.0731  0.6939 -0.9974
  646DG      H714842   1.300   1.936   1.334  0.7001 -1.6096  3.0520
  646DG      H814843   1.238   1.880   1.178  2.2926 -0.1124  0.3522
  646DG      O914844   1.647   1.357   1.019  0.4795 -0.0278  0.6504
  646DG     O1014845   1.251   1.739   1.318 -0.1141  0.2456  0.8248
  646DG     C1114846   1.592   1.465   1.096 -1.1517  0.5016 -0.0326
  646DG     C1214847   1.183   1.652   1.234  0.2957 -0.1704  0.4747
  646DG     H1314848   1.591   1.556   1.037 -1.8369  1.1559  0.9667
  646DG     H1414849   1.662   1.494   1.174 -0.1300  1.1635 -1.1675
  646DG     H1514850   1.196   1.683   1.130  1.3713 -0.2755  0.5684
  646DG     H1614851   1.075   1.661   1.246 -0.2961  4.3376 -4.2932
  646DG     C1714852   1.452   1.421   1.154  0.1282  0.0370 -0.8989
  646DG     C1814853   1.251   1.517   1.246 -0.2182  0.2286  0.4876
  646DG     O1914854   1.380   1.537   1.189  0.1032 -0.0039 -0.2763
  646DG     H2014855   1.451   1.334   1.220 -0.3386  0.9829  0.3764
  646DG     H2114856   1.392   1.380   1.072 -1.2710 -0.2604  0.2348
  646DG     H2214857   1.266   1.484   1.349 -3.2175 -2.2722  0.2615
  646DG     H2314858   1.187   1.444   1.196  0.8721 -0.0298 -0.5641
  647DG      C114859   1.511   2.899   3.563  0.3616  0.0395 -0.2290
  647DG      C214860   1.404   2.716   2.779  0.2327 -0.2395 -0.1453
  647DG      H314861   1.532   2.829   3.644 -2.2821  0.1140  0.6191
  647DG      H414862   1.412   2.937   3.589  1.4868  2.1512  1.2973
  647DG      H514863   1.579   2.985   3.569  1.2558 -0.7558  3.0120
  647DG      H614864   1.300   2.687   2.795  0.4518  0.5080  3.2850
  647DG      H714865   1.412   2.817   2.740 -1.2148  0.0671  0.3184
  647DG      H814866   1.443   2.637   2.714  2.6589 -0.3269  1.3038
  647DG      O914867   1.510   2.839   3.435  0.2216  0.3353 -0.0391
  647DG     O1014868   1.490   2.712   2.888 -0.1387  0.0949 -0.7337
  647DG     C1114869   1.642   2.830   3.379  0.6519  0.1570 -0.2056
  647DG     C1214870   1.445   2.804   2.989 -0.4743 -0.1018 -0.2319
  647DG     H1314871   1.719   2.818   3.456  0.6094 -1.7874 -0.4129
  647DG     H1414872   1.646   2.920   3.318  0.3993  1.0820  1.0927
  647DG     H1514873   1.344   2.771   3.013 -0.0160 -0.6179  1.1159
  647DG     H1614874   1.442   2.904   2.946  0.6680  0.4667  0.9162
  647DG     C1714875   1.647   2.710   3.265  0.3104 -0.1181  0.0279
  647DG     C1814876   1.536   2.832   3.105  0.2080  0.6575 -0.0097
  647DG     O1914877   1.536   2.719   3.180  0.0512 -0.3843 -0.3438
  647DG     H2014878   1.653   2.607   3.301 -1.7372 -1.1724 -2.2653
  647DG     H2114879   1.737   2.729   3.206  1.1386  0.5490  1.4753
  647DG     H2214880   1.636   2.854   3.069 -0.2243  1.9882 -0.4857
  647DG     H2314881   1.506   2.918   3.166 -0.3940 -0.3084  1.0948
  648DG      C114882   1.123   3.835   2.072  0.0714  0.3534 -0.1007
  648DG      C214883   1.325   3.347   2.621 -0.1003  0.1037  0.0830
  648DG      H314884   1.083   3.921   2.127 -3.1249 -0.2345 -1.3452
  648DG      H414885   1.042   3.763   2.070  0.2601  0.1230  0.4414
  648DG      H514886   1.140   3.878   1.973 -1.1191  0.5721 -0.2230
  648DG      H614887   1.420   3.310   2.660 -0.6899 -1.0516  0.4592
  648DG      H714888   1.286   3.429   2.683 -1.0095  0.7412 -1.2907
  648DG      H814889   1.253   3.269   2.647  1.0365 -0.8280  0.4950
  648DG      O914890   1.241   3.781   2.128  0.5948 -0.1646 -0.6674
  648DG     O1014891   1.320   3.369   2.477 -0.9777 -0.0215  0.0983
  648DG     C1114892   1.275   3.660   2.058  0.2996  0.3424 -0.3128
  648DG     C1214893   1.212   3.447   2.433  0.5324 -0.6040 -0.5646
  648DG     H1314894   1.307   3.703   1.964  1.0522  2.0703  0.6789
  648DG     H1414895   1.193   3.597   2.024  0.3777 -0.2443  0.5378
  648DG     H1514896   1.224   3.539   2.490 -0.4795 -0.7212 -0.1433
  648DG     H1614897   1.119   3.406   2.470  0.3390 -0.2072 -0.6016
  648DG     C1714898   1.387   3.577   2.130  0.0694 -0.1470 -0.3373
  648DG     C1814899   1.232   3.469   2.287 -0.2481 -0.8563 -0.4773
  648DG     O1914900   1.352   3.553   2.268  0.4702 -0.0546  0.6668
  648DG     H2014901   1.479   3.634   2.138 -0.7908  1.1486  1.0760
  648DG     H2114902   1.416   3.482   2.086  2.2988  0.0327  0.6331
  648DG     H2214903   1.236   3.372   2.238  0.2395 -0.6941 -0.7591
  648DG     H2314904   1.138   3.514   2.255 -0.3049 -0.9710 -0.4733
  649DG      C114905   0.015   2.782   2.484 -0.2335 -0.4672  0.8705
  649DG      C214906  -0.010   2.173   2.272 -0.6351  0.0900 -1.1305
  649DG      H314907   0.019   2.759   2.590  0.0511  0.7991  1.1532
  649DG      H414908  -0.090   2.774   2.458 -0.7280  0.0024  2.5842
  649DG      H514909   0.042   2.880   2.445 -1.8105 -1.0286 -1.9232
  649DG      H614910  -0.095   2.187   2.339 -0.2694 -0.3083 -0.5747
  649DG      H714911  -0.022   2.224   2.177  0.2592 -0.6546 -1.6587
  649DG      H814912  -0.006   2.066   2.255  0.1483 -0.0912  0.0665
  649DG      O914913   0.100   2.688   2.416  0.3952 -0.4209  0.1564
  649DG     O1014914   0.098   2.209   2.352 -0.1402 -0.5178  0.0775
  649DG     C1114915   0.086   2.694   2.274 -0.3103 -0.0324  0.3410
  649DG     C1214916   0.215   2.230   2.265 -0.2168 -0.4710  0.9457
  649DG     H1314917   0.115   2.793   2.238 -1.2805  0.2749  0.3495
  649DG     H1414918  -0.020   2.691   2.246 -0.1533  2.1195 -0.7679
  649DG     H1514919   0.224   2.148   2.194 -0.4387  0.7971 -0.6123
  649DG     H1614920   0.307   2.225   2.323  0.9517  0.7180 -0.7135
  649DG     C1714921   0.163   2.582   2.200 -0.1717  0.2018 -0.1045
  649DG     C1814922   0.220   2.361   2.185  0.8191 -0.0400 -0.4837
  649DG     O1914923   0.161   2.459   2.267  0.7041  0.0494 -0.2138
  649DG     H2014924   0.265   2.620   2.190 -0.7020  1.6464 -0.3155
  649DG     H2114925   0.129   2.572   2.097 -1.6075 -1.5776  0.4954
  649DG     H2214926   0.324   2.384   2.163  0.9729 -0.8780 -0.6765
  649DG     H2314927   0.170   2.359   2.088  0.6354 -2.2053 -0.3787
  650DG      C114928   4.108   4.240   4.311  0.1950 -0.0044  0.2488
  650DG      C214929   3.710   4.933   4.344 -0.2686  0.3676  0.5510
  650DG      H314930   4.193   4.240   4.380  0.9981  0.1960 -0.7102
  650DG      H414931   4.126   4.277   4.210  0.9608  0.0407  0.3914
  650DG      H514932   4.068   4.139   4.298 -2.0952  0.7629  0.8136
  650DG      H614933   3.722   4.972   4.243  1.1722  3.1094  1.6851
  650DG      H714934   3.638   4.851   4.352  0.7388 -0.4100  2.1063
  650DG      H814935   3.659   5.021   4.385 -0.0856  0.0544  1.4753
  650DG      O914936   3.994   4.309   4.373  0.3370  0.0720  0.2686
  650DG     O1014937   3.821   4.905   4.418 -0.7907 -0.0682  0.3932
  650DG     C1114938   4.030   4.448   4.390 -0.8337 -0.2152 -0.6476
  650DG     C1214939   3.799   4.850   4.548 -0.7194  0.6420 -0.2746
  650DG     H1314940   4.041   4.495   4.292 -2.4544  0.7803 -0.3842
  650DG     H1414941   4.120   4.473   4.444 -0.8186  1.7270 -1.5092
  650DG     H1514942   3.712   4.884   4.603 -1.1884  0.1267 -0.6845
  650DG     H1614943   3.877   4.870   4.621 -0.3579 -2.0632  0.1984
  650DG     C1714944   3.906   4.512   4.446  0.2343 -0.8823  0.0222
  650DG     C1814945   3.801   4.695   4.544  0.7348 -0.1730  0.6848
  650DG     O1914946   3.925   4.649   4.489 -0.1101  0.0312 -0.7498
  650DG     H2014947   3.876   4.454   4.534 -2.6244 -1.4851 -1.2245
  650DG     H2114948   3.834   4.508   4.364 -3.1784  0.2279  2.7050
  650DG     H2214949   3.786   4.648   4.641 -0.5437 -0.8308  0.1899
  650DG     H2314950   3.713   4.659   4.490 -0.4550 -1.5368  3.3201
  651PF6-    P114951   4.334   3.024   1.045 -0.2401 -0.2528  0.0846
  651PF6-    F214952   4.468   2.942   1.010 -0.9794  0.3721 -0.3348
  651PF6-    F314953   4.204   3.108   1.083 -0.1529  0.5953  0.0180
  651PF6-    F414954   4.261   2.966   0.914 -0.4300 -0.3945 -0.5884
  651PF6-    F514955   4.409   3.076   1.181  0.2999  0.5802 -0.3861
  651PF6-    F614956   4.386   3.156   0.973 -0.1387 -0.3591 -0.2065
  651PF6-    F714957   4.281   2.899   1.121  0.4470  0.0647 -0.2065
  652PF6-    P114958   5.232   0.448   2.132 -0.1040 -0.0542  0.1820
  652PF6-    F214959   5.149   0.405   2.264 -0.4862  0.3456  0.1480
  652PF6-    F314960   5.312   0.491   2.005  0.0539 -0.3087  0.4579
  652PF6-    F414961   5.091   0.418   2.053  0.2343 -0.1828  0.1491
  652PF6-    F514962   5.368   0.478   2.218  0.1700 -0.1938  0.2840
  652PF6-    F614963   5.274   0.294   2.104  0.2841 -0.1511 -0.4902
  652PF6-    F714964   5.187   0.601   2.151  0.2597  0.1534 -0.1022
  653PF6-    P114965   3.098   0.312   5.370  0.2019 -0.1681 -0.0192
  653PF6-    F214966   3.196   0.431   5.389 -0.2684 -0.1394  0.7253
  653PF6-    F314967   2.990   0.192   5.349  0.3188  0.2164 -0.2613
  653PF6-    F414968   3.033   0.399   5.247 -0.2009 -0.3481  0.6089
  653PF6-    F514969   3.160   0.241   5.497 -0.0540  0.6544 -0.3138
  653PF6-    F614970   2.991   0.387   5.465  0.4670 -1.0153  0.5002
  653PF6-    F714971   3.200   0.234   5.273 -0.1611 -0.1194 -0.1012
  654PF6-    P114972   0.565   0.806   5.194  0.1911  0.2041 -0.4378
  654PF6-    F214973   0.602   0.890   5.330  0.3886  0.3415  0.4569
  654PF6-    F314974   0.537   0.720   5.061 -0.5505  1.2503  0.2672
  654PF6-    F414975   0.650   0.683   5.244  0.1685 -0.2010 -0.0718
  654PF6-    F514976   0.479   0.927   5.139  0.3500 -0.0223 -0.3864
  654PF6-    F614977   0.701   0.863   5.127 -0.3235  0.3190 -0.2028
  654PF6-    F714978   0.435   0.753   5.267 -0.0091 -0.4773  0.4939
  655PF6-    P114979   4.619   2.730   0.015 -0.1819 -0.9731  0.4859
  655PF6-    F214980   4.697   2.871   0.002 -0.3192 -0.9761  0.5477
  655PF6-    F314981   4.542   2.589   0.021  0.1623 -0.2005 -0.4756
  655PF6-    F414982   4.475   2.811   0.011 -0.2718 -0.6400  0.1271
  655PF6-    F514983   4.762   2.657   0.020 -0.3038  0.0415 -0.2901
  655PF6-    F614984   4.621   2.746   0.172  0.3646 -0.1302 -0.4061
  655PF6-    F714985   4.618   2.710  -0.140 -0.3724 -0.3745  0.2290
  656PF6-    P114986   3.908   5.466   1.134  0.2615 -0.1735 -0.3741
  656PF6-    F214987   3.960   5.316   1.148  0.4125  0.0432 -0.2765
  656PF6-    F314988   3.869   5.622   1.116  0.2110 -0.3210 -0.5752
  656PF6-    F414989   3.828   5.464   1.279 -0.1632 -0.1256 -0.2207
  656PF6-    F514990   3.981   5.476   0.987  0.1997 -0.0748  0.0536
  656PF6-    F614991   3.774   5.420   1.052  0.0712 -0.0582  0.2008
  656PF6-    F714992   4.042   5.510   1.206  0.4133  0.2458 -0.2078
  657PF6-    P114993   2.601   0.210   4.741  0.2406 -0.0252  0.2496
  657PF6-    F214994   2.516   0.087   4.791  0.3663  0.2667  0.1003
  657PF6-    F314995   2.692   0.329   4.685  0.4120 -0.1673 -0.0099
  657PF6-    F414996   2.519   0.200   4.606  0.4609 -0.2776 -0.0847
  657PF6-    F514997   2.682   0.211   4.882  0.3618 -0.4097  0.4268
  657PF6-    F614998   2.709   0.104   4.683  0.0685 -0.7337  0.0330
  657PF6-    F714999   2.499   0.312   4.800  0.1296 -0.2070 -0.1659
  658PF6-    P115000   4.740   0.672   1.056 -0.2574 -0.0441 -0.0794
  658PF6-    F215001   4.777   0.517   1.046 -0.0656  0.1434  0.0777
  658PF6-    F315002   4.701   0.824   1.069  0.5146 -0.3716  0.7175
  658PF6-    F415003   4.715   0.649   1.216  0.2320  0.0051 -0.2407
  658PF6-    F515004   4.767   0.699   0.899 -0.0776  0.0961  0.0389
  658PF6-    F615005   4.583   0.642   1.033 -0.3607  0.1003 -0.2421
  658PF6-    F715006   4.889   0.709   1.094  0.1659  0.5113  0.2379
  659PF6-    P115007   2.044   3.657   5.146 -0.0215 -0.6390 -0.1775
  659PF6-    F215008   1.943   3.530   5.135 -0.0392 -0.5138  0.1126
  659PF6-    F315009   2.139   3.783   5.149  0.0549  0.1193 -0.1857
  659PF6-    F415010   1.971   3.715   5.281 -0.3801  0.5457  0.4127
  659PF6-    F515011   2.115   3.607   5.014  0.3955 -0.2081  0.0177
  659PF6-    F615012   1.936   3.746   5.058 -0.3204  0.4251  0.3086
  659PF6-    F715013   2.146   3.574   5.241 -0.2094 -0.4635  0.1230
  660PF6-    P115014   2.972   1.756   2.750  0.0696 -0.1157  0.0438
  660PF6-    F215015   2.936   1.797   2.899 -0.0480  0.5832 -0.0996
  660PF6-    F315016   3.016   1.709   2.606  0.0963  0.4041  0.7369
  660PF6-    F415017   3.116   1.702   2.800 -0.2395 -0.2500  0.0998
  660PF6-    F515018   2.830   1.799   2.695 -0.2690  0.6695 -0.3099
  660PF6-    F615019   3.028   1.899   2.717  0.2595 -0.0823 -0.3966
  660PF6-    F715020   2.913   1.610   2.778 -0.4754 -0.3471  0.6406
  661PF6-    P115021   4.341   5.027   2.146  0.0603  0.7864  0.1950
  661PF6-    F215022   4.362   5.185   2.131 -0.6717  0.6861  0.0423
  661PF6-    F315023   4.322   4.868   2.165 -0.0765  0.6159  0.4763
  661PF6-    F415024   4.464   5.020   2.260 -0.2581 -0.8922  0.0690
  661PF6-    F515025   4.224   5.036   2.035  0.1105  0.5975 -0.1658
  661PF6-    F615026   4.446   4.996   2.028 -0.7807 -0.5233 -0.6923
  661PF6-    F715027   4.238   5.058   2.265  0.3662  0.8964 -0.1779
  662PF6-    P115028   4.945   1.165   4.041 -0.3634  0.3294  0.1737
  662PF6-    F215029   5.103   1.195   4.071  0.8701  0.1128  0.5417
  662PF6-    F315030   4.790   1.132   4.007 -0.3811 -0.4020  0.1432
  662PF6-    F415031   4.984   1.036   3.953  0.3049 -0.0496  0.1826
  662PF6-    F515032   4.907   1.290   4.124 -0.4975 -0.0027  0.0648
  662PF6-    F615033   4.950   1.266   3.914 -0.3420  0.2178  0.0682
  662PF6-    F715034   4.936   1.069   4.168 -0.1721 -0.5074  0.0495
  663PF6-    P115035   3.924   4.366   2.182  0.4461 -0.0430 -0.1207
  663PF6-    F215036   3.887   4.385   2.333  0.2688 -0.1107 -0.3426
  663PF6-    F315037   3.955   4.337   2.025  0.2764  0.0087 -0.4614
  663PF6-    F415038   3.821   4.485   2.146 -0.1502  0.0600  0.0805
  663PF6-    F515039   4.017   4.243   2.220  0.0910 -0.3822  0.2754
  663PF6-    F615040   3.800   4.262   2.172  0.2890 -0.1793 -0.0017
  663PF6-    F715041   4.053   4.466   2.181  0.1808 -0.3657 -0.0455
  664PF6-    P115042   5.184   3.133   0.965  0.6122  0.1436 -0.1380
  664PF6-    F215043   5.139   3.228   0.843  0.5689  0.2041  0.2321
  664PF6-    F315044   5.242   3.030   1.081  0.3748  0.3390 -0.1630
  664PF6-    F415045   5.194   3.259   1.063  0.1325 -0.3650  0.1213
  664PF6-    F515046   5.176   3.009   0.856 -0.5056  0.3384 -0.5255
  664PF6-    F615047   5.332   3.161   0.916  0.2403  0.4860 -0.3748
  664PF6-    F715048   5.028   3.102   1.011 -0.3057 -0.2599 -0.3198
  665PF6-    P115049   0.552   4.150   2.535  0.2414  0.0941  0.1486
  665PF6-    F215050   0.464   4.266   2.471 -0.1336  0.3300 -0.6984
  665PF6-    F315051   0.646   4.030   2.589  0.5104  0.7571 -0.2992
  665PF6-    F415052   0.671   4.256   2.551 -0.1084 -0.0174  0.3649
  665PF6-    F515053   0.429   4.047   2.521  0.1584 -0.0698  0.4865
  665PF6-    F615054   0.601   4.103   2.389  0.2551  0.0258  0.3373
  665PF6-    F715055   0.497   4.187   2.682  0.2329 -0.4124  0.3235
  666PF6-    P115056   2.717   2.875   4.614 -0.0474  0.2256  0.1718
  666PF6-    F215057   2.866   2.931   4.634  0.2956 -0.0511  0.4020
  666PF6-    F315058   2.565   2.820   4.589 -0.8392 -0.5489 -0.2611
  666PF6-    F415059   2.768   2.772   4.506  0.8946 -0.0648  0.3492
  666PF6-    F515060   2.658   2.986   4.713  0.3671  0.2703  0.3405
  666PF6-    F615061   2.694   2.971   4.485  0.3559  0.0624 -1.1663
  666PF6-    F715062   2.735   2.763   4.728 -0.2613 -0.1203 -1.0231
  667PF6-    P115063   1.035   3.413   4.466 -0.3378 -0.1550 -0.0213
  667PF6-    F215064   1.007   3.568   4.429 -0.4969  0.1120  0.4775
  667PF6-    F315065   1.065   3.249   4.511 -0.2942 -0.3438 -0.2601
  667PF6-    F415066   1.052   3.453   4.620 -0.2793 -0.3777  0.0787
  667PF6-    F515067   1.021   3.377   4.312 -0.6087 -0.1135 -0.0141
  667PF6-    F615068   1.191   3.439   4.449  0.1430  0.4547  0.0139
  667PF6-    F715069   0.878   3.394   4.484  0.5785 -0.3468  0.5073
  668PF6-    P115070   3.199   2.560   3.807 -0.6129 -0.4700  0.1958
  668PF6-    F215071   3.181   2.486   3.663  0.3891 -0.5201  0.0501
  668PF6-    F315072   3.223   2.628   3.948 -0.1762  0.1496 -0.0787
  668PF6-    F415073   3.336   2.628   3.757  0.3158 -1.2324  0.0540
  668PF6-    F515074   3.064   2.501   3.864  0.2060 -0.4956  0.3028
  668PF6-    F615075   3.283   2.437   3.857 -0.1876 -0.1382  0.4466
  668PF6-    F715076   3.117   2.687   3.752 -0.2909 -0.4419 -0.7593
  669PF6-    P115077   1.197   0.110   2.265 -0.7508  0.1080  0.0879
  669PF6-    F215078   1.271   0.050   2.140  0.4918 -0.4450  0.7092
  669PF6-    F315079   1.111   0.172   2.392  0.0736  0.6554 -0.2330
  669PF6-    F415080   1.319   0.214   2.282 -0.1858 -0.2936 -0.2180
  669PF6-    F515081   1.077   0.007   2.243  0.2305  0.1766 -0.0051
  669PF6-    F615082   1.277   0.003   2.357  0.1584  0.3005 -0.3382
  669PF6-    F715083   1.122   0.211   2.180  0.7075 -0.2242  0.7573
  670PF6-    P115084   1.143   1.329   2.838 -0.2350 -0.4043 -0.0034
  670PF6-    F215085   0.995   1.316   2.891 -0.0008  0.0272 -0.6879
  670PF6-    F315086   1.294   1.343   2.786 -0.3932 -0.2975 -0.2288
  670PF6-    F415087   1.182   1.190   2.915 -0.0996 -0.4106  0.1794
  670PF6-    F515088   1.109   1.465   2.766  0.0211  0.0304  0.1930
  670PF6-    F615089   1.183   1.408   2.968 -0.5564 -0.1752  0.1192
  670PF6-    F715090   1.108   1.243   2.702  0.4516  0.0046 -0.6234
  671PF6-    P115091   4.442   2.895   1.951  0.3127 -0.0619 -0.0647
  671PF6-    F215092   4.546   2.841   1.840  0.2351  0.6242 -0.2978
  671PF6-    F315093   4.346   2.955   2.070  0.1993  0.1149 -0.3109
  671PF6-    F415094   4.560   2.971   2.028 -0.1056 -0.0956  0.3887
  671PF6-    F515095   4.314   2.831   1.875 -0.3484  0.8203 -0.2066
  671PF6-    F615096   4.465   2.757   2.040  0.0456  0.0733 -0.0058
  671PF6-    F715097   4.419   3.026   1.865  0.0216  0.0400  0.2067
  672PF6-    P115098   3.607   3.805   4.042 -0.1699 -0.3064  0.3086
  672PF6-    F215099   3.737   3.737   3.986  0.3553 -0.1838 -0.3405
  672PF6-    F315100   3.478   3.879   4.106  0.0203  0.3492 -0.2265
  672PF6-    F415101   3.622   3.712   4.173  0.3791 -0.7949  0.2931
  672PF6-    F515102   3.605   3.895   3.914 -0.4535  0.3133 -0.6752
  672PF6-    F615103   3.518   3.693   3.977 -0.4926  0.4114 -0.0563
  672PF6-    F715104   3.703   3.918   4.112 -0.5267 -0.5122 -0.8398
  673PF6-    P115105   0.750   2.052   0.156 -0.2936 -0.5759 -0.3950
  673PF6-    F215106   0.590   2.053   0.119 -0.1992  0.0974 -0.3634
  673PF6-    F315107   0.906   2.048   0.191 -0.0895 -0.2082  0.1354
  673PF6-    F415108   0.771   1.946   0.043 -0.1946  0.3353  0.1312
  673PF6-    F515109   0.720   2.166   0.264  0.0894  0.6203 -0.0820
  673PF6-    F615110   0.724   1.940   0.263  0.3139  0.7502  0.5037
  673PF6-    F715111   0.782   2.165   0.049 -0.1031  0.0088  0.1514
  674PF6-    P115112   4.263   1.170   3.294 -0.0189 -0.2138  0.3262
  674PF6-    F215113   4.157   1.138   3.174 -0.1947 -0.2256 -0.1337
  674PF6-    F315114   4.367   1.191   3.414 -0.3025 -0.0823 -0.0092
  674PF6-    F415115   4.330   1.032   3.264  0.0406  0.0005 -0.0513
  674PF6-    F515116   4.200   1.312   3.328  0.4582 -0.8307 -0.0360
  674PF6-    F615117   4.159   1.101   3.397  0.4188 -0.0210 -0.0091
  674PF6-    F715118   4.362   1.242   3.189 -0.9387  0.7559 -0.0933
  675PF6-    P115119   4.845   4.067   0.890  0.5334 -0.2957 -0.2685
  675PF6-    F215120   4.807   3.927   0.820  0.0016  0.3262 -0.2231
  675PF6-    F315121   4.882   4.210   0.956  0.1148 -0.4655 -0.3059
  675PF6-    F415122   5.000   4.023   0.908 -0.3133 -0.1302  0.3170
  675PF6-    F515123   4.693   4.125   0.883 -0.6389  0.6728  0.5923
  675PF6-    F615124   4.821   4.008   1.030  0.4893 -0.0702 -0.9566
  675PF6-    F715125   4.875   4.127   0.754  0.0706  0.0771  0.1964
  676PF6-    P115126   5.355   3.364   1.872  0.2668  0.3482 -0.1518
  676PF6-    F215127   5.240   3.357   1.986 -0.1579 -0.3958 -0.0774
  676PF6-    F315128   5.468   3.371   1.754 -0.1329 -0.4966 -0.0268
  676PF6-    F415129   5.445   3.460   1.961  0.2712  0.1969 -0.1415
  676PF6-    F515130   5.261   3.276   1.772 -0.7293 -0.8923  0.0613
  676PF6-    F615131   5.283   3.496   1.815  0.2768 -0.3182  0.1448
  676PF6-    F715132   5.424   3.232   1.930 -0.1143  0.0296 -0.0835
  677PF6-    P115133   3.575   5.291   4.125 -0.2453  0.2145  0.3802
  677PF6-    F215134   3.605   5.168   4.028 -0.0164  0.1932  0.3235
  677PF6-    F315135   3.532   5.412   4.219  0.1209  0.2784  0.1092
  677PF6-    F415136   3.682   5.383   4.049  0.2409  0.3937 -0.2589
  677PF6-    F515137   3.469   5.197   4.199  0.0812 -0.4498  0.1529
  677PF6-    F615138   3.691   5.250   4.231  0.1055 -0.1707  0.0382
  677PF6-    F715139   3.469   5.339   4.007  0.3543 -0.3429  0.2484
  678PF6-    P115140   4.108   5.138   3.095 -0.6472  0.0883  0.3281
  678PF6-    F215141   4.087   5.298   3.106  0.3893  0.3987 -0.4554
  678PF6-    F315142   4.125   4.978   3.087  0.1047  0.2775 -0.0335
  678PF6-    F415143   4.227   5.140   3.201 -0.4245  0.4547  0.7539
  678PF6-    F515144   3.995   5.124   2.985 -0.2282  0.1315 -0.4913
  678PF6-    F615145   4.215   5.151   2.983  0.3117  0.0358  0.1992
  678PF6-    F715146   3.997   5.120   3.207  0.0264 -0.4460  0.2669
  679PF6-    P115147   3.456   0.617   0.751 -0.1856  0.7983  0.3880
  679PF6-    F215148   3.484   0.708   0.619 -0.3792 -0.3024 -0.6882
  679PF6-    F315149   3.433   0.515   0.880  0.4757  0.1792 -0.1871
  679PF6-    F415150   3.348   0.534   0.665 -0.2815 -0.1444  0.0224
  679PF6-    F515151   3.562   0.699   0.836 -0.0364  0.2498 -0.0605
  679PF6-    F615152   3.339   0.716   0.797  0.3416 -0.2364  0.1506
  679PF6-    F715153   3.569   0.518   0.707 -0.0190 -0.2086 -0.6082
  680PF6-    P115154   2.573   0.968   1.202  0.2137  0.0165 -0.0286
  680PF6-    F215155   2.453   1.004   1.299 -0.0824  0.4884  0.1380
  680PF6-    F315156   2.699   0.930   1.104  0.3384 -0.0293 -0.0037
  680PF6-    F415157   2.680   0.993   1.318 -0.6415  0.4257  0.0785
  680PF6-    F515158   2.474   0.944   1.084  0.6020 -0.0374  0.3346
  680PF6-    F615159   2.582   1.125   1.156 -0.1214  0.1201  0.0986
  680PF6-    F715160   2.569   0.814   1.247 -0.0553 -0.4205  0.2566
  681PF6-    P115161   5.418   1.734   0.417 -0.0054 -0.2574  0.3381
  681PF6-    F215162   5.275   1.682   0.372 -0.0301 -0.2843 -0.0626
  681PF6-    F315163   5.558   1.774   0.464  0.0569  0.0455 -0.0057
  681PF6-    F415164   5.479   1.667   0.286 -0.0768  0.1413 -0.4182
  681PF6-    F515165   5.351   1.804   0.540  0.1791 -0.1784 -0.4580
  681PF6-    F615166   5.433   1.599   0.498  0.5113  0.1697  0.1359
  681PF6-    F715167   5.401   1.868   0.336  0.2994 -0.0903 -0.1823
  682PF6-    P115168   3.246   4.996   5.427 -0.1597  0.3746 -0.4179
  682PF6-    F215169   3.098   4.999   5.492  0.2386 -0.2062  0.4355
  682PF6-    F315170   3.396   4.990   5.370 -0.1976 -0.6299 -0.2061
  682PF6-    F415171   3.199   4.887   5.320 -0.1577 -0.0076 -0.4265
  682PF6-    F515172   3.291   5.108   5.543 -0.3132 -0.1020  0.1443
  682PF6-    F615173   3.294   4.879   5.531 -0.0002  0.2102  0.1179
  682PF6-    F715174   3.208   5.115   5.318 -0.2477  0.1539 -0.4168
  683PF6-    P115175   1.326   0.840   4.153 -0.5341 -0.2145  0.0080
  683PF6-    F215176   1.442   0.886   4.257  0.4673  0.0640  0.0428
  683PF6-    F315177   1.214   0.799   4.047 -0.7694  0.6303 -0.4350
  683PF6-    F415178   1.300   0.990   4.117  0.0517 -0.4678  0.4521
  683PF6-    F515179   1.349   0.688   4.195  0.4670  0.4212  0.2475
  683PF6-    F615180   1.225   0.859   4.272  0.3947 -0.5596 -0.7543
  683PF6-    F715181   1.439   0.831   4.041 -0.4545  0.3689 -0.6040
  684PF6-    P115182   0.076   1.929   1.332  0.3212  0.0599  0.2267
  684PF6-    F215183   0.130   1.819   1.221  0.1041  0.0811  0.3220
  684PF6-    F315184   0.014   2.033   1.443 -0.2244  0.2079 -0.1591
  684PF6-    F415185  -0.035   1.825   1.368  0.0270  0.2233  0.6752
  684PF6-    F515186   0.185   2.032   1.282  0.1442  0.3292 -0.4952
  684PF6-    F615187  -0.022   1.987   1.224 -0.0922 -0.3225  0.3657
  684PF6-    F715188   0.174   1.868   1.444 -0.1556 -0.3842  0.8621
  685PF6-    P115189   2.472   3.281   2.629 -0.0280 -0.0997  0.7797
  685PF6-    F215190   2.368   3.403   2.614 -0.0988  0.1209  0.3099
  685PF6-    F315191   2.567   3.145   2.642  0.1310 -0.0391  0.5719
  685PF6-    F415192   2.368   3.205   2.726 -0.4360 -0.4061  0.4685
  685PF6-    F515193   2.575   3.346   2.531 -0.2491  0.1057 -0.0297
  685PF6-    F615194   2.543   3.352   2.750 -0.2355  0.0811  0.1907
  685PF6-    F715195   2.412   3.208   2.499 -0.0015  0.2752 -0.0685
  686PF6-    P115196   2.998   0.749   3.631 -0.3366 -0.1115  0.1623
  686PF6-    F215197   2.902   0.835   3.535 -0.5079  0.1080  0.3602
  686PF6-    F315198   3.094   0.662   3.719 -0.1440  0.1316  0.0625
  686PF6-    F415199   2.965   0.616   3.548 -0.2345  0.5393 -0.0513
  686PF6-    F515200   3.023   0.881   3.716  0.3295  0.6991 -0.0742
  686PF6-    F615201   2.882   0.708   3.727 -0.5202 -0.2114 -0.0156
  686PF6-    F715202   3.127   0.783   3.541  0.0222  0.2292 -0.1859
  687PF6-    P115203   2.954   1.845   0.617  0.0205 -0.0003  0.3689
  687PF6-    F215204   3.095   1.874   0.557 -0.1169  0.0585 -0.1907
  687PF6-    F315205   2.807   1.815   0.682  0.3239  0.1635  0.1897
  687PF6-    F415206   2.959   1.698   0.556  0.0003  0.0844 -0.2263
  687PF6-    F515207   2.949   1.994   0.680 -0.1615 -0.0248  0.4147
  687PF6-    F615208   2.882   1.900   0.479 -0.1634  0.1445 -0.0387
  687PF6-    F715209   3.019   1.790   0.757  0.3678 -0.0770 -0.0602
  688PF6-    P115210   4.958   2.265   3.273  0.6016 -0.1554  0.3145
  688PF6-    F215211   4.832   2.162   3.293 -0.0348 -0.0074 -0.0503
  688PF6-    F315212   5.083   2.359   3.256  0.4812  0.0514  0.5927
  688PF6-    F415213   4.902   2.358   3.391 -0.2552 -0.5363 -0.4579
  688PF6-    F515214   5.012   2.178   3.146  0.2103  0.1387 -0.0613
  688PF6-    F615215   4.874   2.348   3.164 -0.5463  0.2140 -0.6075
  688PF6-    F715216   5.035   2.172   3.379 -0.0825 -0.2218 -0.1352
  689PF6-    P115217   3.622   0.799   2.212  0.0738 -0.3137  0.2207
  689PF6-    F215218   3.523   0.751   2.331 -0.1366 -0.0868 -0.2815
  689PF6-    F315219   3.706   0.846   2.087 -0.0132 -0.2729  0.4188
  689PF6-    F415220   3.558   0.691   2.116  0.8462 -0.0474 -0.3030
  689PF6-    F515221   3.693   0.904   2.307  0.2721 -0.0832  0.5128
  689PF6-    F615222   3.730   0.692   2.250 -0.4257  0.4008  0.7198
  689PF6-    F715223   3.512   0.902   2.172  0.6389 -0.3015 -0.5994
  690PF6-    P115224   0.218   3.415   3.120  0.3271  0.0524 -0.0905
  690PF6-    F215225   0.186   3.298   3.229  0.0696  0.2268 -0.1865
  690PF6-    F315226   0.257   3.521   3.014 -0.0691  0.2718  0.1693
  690PF6-    F415227   0.169   3.313   3.005 -0.4833 -0.0168 -0.7895
  690PF6-    F515228   0.262   3.515   3.240  0.0083 -0.0247 -0.1539
  690PF6-    F615229   0.368   3.357   3.113 -0.2710 -0.2224 -0.0839
  690PF6-    F715230   0.063   3.464   3.134  0.3467  0.1396  0.4591
  691PF6-    P115231   0.173   4.739   3.517 -0.3764  0.1014  0.0470
  691PF6-    F215232   0.234   4.600   3.576 -0.2602  0.4029  0.5266
  691PF6-    F315233   0.115   4.879   3.454 -1.0301  1.1507 -0.2503
  691PF6-    F415234   0.042   4.670   3.467 -0.1884  0.1813  0.1592
  691PF6-    F515235   0.303   4.812   3.567  0.0511 -0.1861  0.1956
  691PF6-    F615236   0.251   4.712   3.378 -0.0386 -0.0283 -0.7562
  691PF6-    F715237   0.109   4.768   3.661  0.5130 -0.3621  0.7471
  692PF6-    P115238   0.885   1.508   0.575 -0.2827 -0.3060  0.1922
  692PF6-    F215239   0.920   1.368   0.503 -0.2969  0.1052 -0.2247
  692PF6-    F315240   0.846   1.644   0.651  0.2014  0.2185 -0.3409
  692PF6-    F415241   0.729   1.471   0.581  0.0506 -0.4356 -0.1536
  692PF6-    F515242   1.041   1.547   0.572 -0.6001 -0.0052  0.2436
  692PF6-    F615243   0.862   1.579   0.433 -0.0659  0.3485  0.3201
  692PF6-    F715244   0.912   1.434   0.716  0.0480 -0.3917  0.1080
  693PF6-    P115245   2.506   2.478   5.334  0.2178  0.2204  0.3734
  693PF6-    F215246   2.414   2.611   5.325 -0.1096  0.4597  0.8218
  693PF6-    F315247   2.590   2.345   5.339  0.0063 -0.2720 -0.1088
  693PF6-    F415248   2.370   2.389   5.338  0.4083 -0.4019 -0.1899
  693PF6-    F515249   2.643   2.557   5.322 -0.2988 -0.1292 -0.5090
  693PF6-    F615250   2.512   2.493   5.492  0.1589 -0.5662  0.5098
  693PF6-    F715251   2.493   2.470   5.174  0.1761 -0.0444 -0.4585
  694PF6-    P115252   0.733   3.304   2.303 -0.3120 -0.0262  0.4140
  694PF6-    F215253   0.669   3.395   2.413  0.2583  0.3936 -0.2383
  694PF6-    F315254   0.794   3.216   2.191 -0.3612 -0.0224 -0.2700
  694PF6-    F415255   0.616   3.351   2.201  0.3440 -0.8152  0.1023
  694PF6-    F515256   0.849   3.255   2.405 -0.3591  0.2344  0.0988
  694PF6-    F615257   0.643   3.178   2.353  0.1508  0.1988  0.1459
  694PF6-    F715258   0.827   3.424   2.265  0.3118 -0.3798  0.5852
  695PF6-    P115259   2.633   0.127   1.887 -0.0996  0.2633 -0.1042
  695PF6-    F215260   2.707  -0.003   1.830 -0.1161  0.4026 -0.3450
  695PF6-    F315261   2.568   0.261   1.944  0.4743 -0.1891 -0.0679
  695PF6-    F415262   2.725   0.221   1.788 -0.0076  0.2810  0.2205
  695PF6-    F515263   2.554   0.033   1.988 -0.2403  0.0217 -0.1468
  695PF6-    F615264   2.752   0.136   1.992 -0.4330  0.0613 -0.1724
  695PF6-    F715265   2.524   0.117   1.772 -0.2050  0.2900 -0.4417
  696PF6-    P115266   1.559   5.066   3.909  0.2726  0.6037 -0.1051
  696PF6-    F215267   1.533   5.038   3.753  0.2194  0.0559 -0.1789
  696PF6-    F315268   1.581   5.099   4.061  0.5147  0.2513  0.1026
  696PF6-    F415269   1.619   4.913   3.933  0.0916  0.0582  0.1127
  696PF6-    F515270   1.495   5.213   3.891 -0.2786  0.5582  0.2106
  696PF6-    F615271   1.410   5.012   3.946  0.2508  0.5114  0.5563
  696PF6-    F715272   1.706   5.120   3.875  0.5082 -0.1456 -0.0628
  697PF6-    P115273   0.014   0.528   0.724 -0.0866  0.0670  0.0301
  697PF6-    F215274  -0.119   0.584   0.657  0.1599 -0.0899 -0.5187
  697PF6-    F315275   0.150   0.485   0.793 -0.4166  0.3484  0.3316
  697PF6-    F415276  -0.065   0.467   0.841 -0.2846 -0.0534 -0.2198
  697PF6-    F515277   0.093   0.586   0.597 -0.1957 -0.0987  0.1142
  697PF6-    F615278   0.028   0.672   0.804  0.4032  0.2743 -0.2177
  697PF6-    F715279  -0.005   0.388   0.650 -0.3982  0.4349 -0.1524
  698PF6-    P115280   2.458   4.581   4.189 -0.5222  0.2701 -0.9585
  698PF6-    F215281   2.315   4.511   4.158 -0.5159  0.5397  0.4409
  698PF6-    F315282   2.601   4.651   4.228  0.1979 -0.3951  0.2386
  698PF6-    F415283   2.430   4.545   4.339 -0.4533  0.4309  0.2882
  698PF6-    F515284   2.480   4.613   4.037 -0.3721 -0.0845  0.1410
  698PF6-    F615285   2.384   4.722   4.212  0.0747 -0.0098 -0.1189
  698PF6-    F715286   2.528   4.439   4.169  0.3321 -0.0825  0.5653
  699PF6-    P115287   1.569   4.600   3.115 -0.3927  0.1395  0.0600
  699PF6-    F215288   1.534   4.536   2.964  0.2748 -0.3766 -0.2165
  699PF6-    F315289   1.598   4.666   3.261 -0.2298 -0.1909  0.1559
  699PF6-    F415290   1.467   4.718   3.086  0.0064 -0.1037 -0.1486
  699PF6-    F515291   1.679   4.487   3.151 -0.0343  0.2031  0.0568
  699PF6-    F615292   1.685   4.688   3.048 -0.3810 -0.0910  0.1109
  699PF6-    F715293   1.454   4.507   3.183 -0.0195 -0.2514  0.1525
  700PF6-    P115294   2.070   2.542   3.302 -0.5626 -0.2270  0.1984
  700PF6-    F215295   2.094   2.702   3.281 -0.4959 -0.3778  0.6411
  700PF6-    F315296   2.041   2.386   3.321 -0.2202  0.0461  0.1881
  700PF6-    F415297   2.079   2.571   3.460 -0.0132  0.5656 -0.4223
  700PF6-    F515298   2.069   2.518   3.147  0.3609  0.1297 -0.4673
  700PF6-    F615299   2.234   2.513   3.292  0.6787  0.5773 -0.5895
  700PF6-    F715300   1.912   2.567   3.304 -0.4817 -0.0046 -0.1106
  701PF6-    P115301   4.721   1.567   2.249  0.0466 -0.0460  0.1085
  701PF6-    F215302   4.819   1.451   2.273 -0.0872  0.0096  0.6187
  701PF6-    F315303   4.609   1.680   2.216 -0.3503  0.0964  0.5878
  701PF6-    F415304   4.621   1.460   2.165  0.9467 -0.5862 -0.2151
  701PF6-    F515305   4.812   1.669   2.333 -0.6068 -0.0018  0.5924
  701PF6-    F615306   4.801   1.597   2.114 -0.5693  0.3948 -0.2602
  701PF6-    F715307   4.649   1.523   2.384 -0.4204  0.2414  0.0448
  702PF6-    P115308   4.944   5.013   3.251 -0.4154 -0.3235 -0.2676
  702PF6-    F215309   4.963   4.882   3.157 -0.3269  0.0123  0.1057
  702PF6-    F315310   4.924   5.145   3.337 -0.2584 -0.1810  0.1167
  702PF6-    F415311   4.851   4.928   3.348 -0.0852  0.5016  0.3224
  702PF6-    F515312   5.040   5.088   3.144  0.2290  0.3268 -0.1088
  702PF6-    F615313   4.815   5.053   3.166  0.1043 -0.3761 -0.3427
  702PF6-    F715314   5.070   4.963   3.339 -0.1806  0.5590 -0.0940
  703PF6-    P115315   4.895   4.864   4.517 -0.0518 -0.4124 -0.3838
  703PF6-    F215316   4.976   4.953   4.627  0.5264 -0.0460 -0.3832
  703PF6-    F315317   4.814   4.786   4.403  0.0610 -0.4257 -0.8583
  703PF6-    F415318   4.850   4.999   4.447  0.0284  0.1226  0.5078
  703PF6-    F515319   4.941   4.727   4.588  0.0217  0.0532 -0.0370
  703PF6-    F615320   4.762   4.868   4.602 -0.1637 -0.5262 -0.8169
  703PF6-    F715321   5.024   4.856   4.431  0.3724  0.4506 -0.0478
  704PF6-    P115322   0.316   4.049   0.591  0.2569 -0.0025 -0.3202
  704PF6-    F215323   0.469   4.039   0.545  0.0206 -0.4462  0.0840
  704PF6-    F315324   0.159   4.047   0.636  0.4449  0.9235  0.7918
  704PF6-    F415325   0.282   3.943   0.477  0.1948  0.3012 -0.2573
  704PF6-    F515326   0.350   4.150   0.704 -0.0769 -0.1093 -0.1695
  704PF6-    F615327   0.284   4.176   0.486 -0.0138 -0.0907 -1.1364
  704PF6-    F715328   0.349   3.927   0.693  0.3872 -0.3385 -0.1920
  705PF6-    P115329   4.038   3.725   3.240  0.1700  0.1745  0.5109
  705PF6-    F215330   4.039   3.608   3.348 -0.2878 -0.2943  0.3090
  705PF6-    F315331   4.027   3.844   3.133 -0.0181  0.3639 -0.2099
  705PF6-    F415332   4.053   3.825   3.359 -0.0272  0.2202 -0.1252
  705PF6-    F515333   4.031   3.614   3.123  0.2604  0.0500 -0.5827
  705PF6-    F615334   3.874   3.732   3.245  0.0234 -0.1861 -0.2834
  705PF6-    F715335   4.199   3.727   3.225 -0.0973  0.2686 -0.0197
  706PF6-    P115336   2.780   4.313   1.032 -0.0518  0.0067 -0.2053
  706PF6-    F215337   2.913   4.367   1.106 -0.0292 -0.1344 -0.1695
  706PF6-    F315338   2.649   4.249   0.971  0.4560 -0.3625  0.4131
  706PF6-    F415339   2.807   4.169   1.101 -0.0034  0.2399 -0.1951
  706PF6-    F515340   2.756   4.459   0.963  0.4467 -0.1827 -0.0151
  706PF6-    F615341   2.862   4.261   0.907 -0.5453 -0.1977 -0.2115
  706PF6-    F715342   2.697   4.363   1.160  0.0842  0.1160  0.0105
  707PF6-    P115343   2.994   2.932   2.844 -0.0964  0.4200  0.0736
  707PF6-    F215344   3.138   2.864   2.825  0.2244  0.3410 -0.3843
  707PF6-    F315345   2.850   2.994   2.854 -0.6002  0.4689  0.3489
  707PF6-    F415346   2.988   2.972   2.688 -0.2089 -0.2681  0.0444
  707PF6-    F515347   2.991   2.888   2.998  0.3554 -0.8569  0.4848
  707PF6-    F615348   3.064   3.074   2.875  0.6584 -0.5544 -0.6518
  707PF6-    F715349   2.934   2.795   2.803  0.6318  0.5082 -0.4298
  708PF6-    P115350   2.958   1.478   1.744 -0.1016  0.1166  0.5337
  708PF6-    F215351   3.091   1.558   1.726  0.2852 -0.0588  0.4030
  708PF6-    F315352   2.818   1.402   1.757 -0.2336 -0.3675 -0.0869
  708PF6-    F415353   2.875   1.610   1.708 -0.0029  0.1771 -0.1623
  708PF6-    F515354   3.029   1.340   1.777  0.1418 -0.5359  0.0808
  708PF6-    F615355   2.952   1.514   1.900  0.2092  0.1072 -0.8763
  708PF6-    F715356   2.953   1.440   1.590 -0.5017  0.0503 -0.3668
  709PF6-    P115357   1.797   2.809   4.024 -0.8193  0.3512 -0.0020
  709PF6-    F215358   1.901   2.861   4.126 -0.3803  1.0438 -0.6073
  709PF6-    F315359   1.686   2.755   3.920 -0.5943  0.1615  0.0815
  709PF6-    F415360   1.727   2.715   4.140  0.4465 -0.2488  0.0895
  709PF6-    F515361   1.870   2.899   3.917  1.0042 -0.0648  0.0311
  709PF6-    F615362   1.894   2.695   3.982 -0.4661 -0.5587  0.1421
  709PF6-    F715363   1.700   2.929   4.063  0.2348  0.0926 -0.0076
  710PF6-    P115364   1.010   2.304   3.826  0.2826  0.4501  0.2605
  710PF6-    F215365   1.046   2.166   3.904  0.4601 -0.5124 -0.4635
  710PF6-    F315366   0.967   2.442   3.752 -0.3782 -0.2757  0.0765
  710PF6-    F415367   0.921   2.351   3.950 -0.0396 -0.1368  0.1168
  710PF6-    F515368   1.096   2.252   3.702  0.1567  0.9668  0.5780
  710PF6-    F615369   0.878   2.231   3.763 -0.2436  0.2444 -0.0178
  710PF6-    F715370   1.133   2.380   3.893  0.0768  0.3701  0.3922
  711PF6-    P115371   3.926   1.649   2.562 -0.2850  0.0026  0.0035
  711PF6-    F215372   3.955   1.583   2.419  0.0853 -0.0936  0.1393
  711PF6-    F315373   3.895   1.717   2.703  0.1192 -0.6146 -0.1670
  711PF6-    F415374   4.006   1.531   2.642 -0.1444 -0.1604 -0.2204
  711PF6-    F515375   3.843   1.760   2.485  0.3989 -0.4649 -0.1374
  711PF6-    F615376   3.792   1.568   2.573 -0.1321 -0.1566  0.1495
  711PF6-    F715377   4.061   1.733   2.548  0.2427 -0.2489 -0.1624
  712PF6-    P115378   1.221   2.517   2.451 -0.2801  0.5263 -0.2999
  712PF6-    F215379   1.326   2.626   2.402 -0.3312 -0.0625 -0.0310
  712PF6-    F315380   1.115   2.410   2.509 -0.6047  0.1191 -0.0506
  712PF6-    F415381   1.287   2.405   2.360  0.7286 -0.6706 -0.1815
  712PF6-    F515382   1.156   2.624   2.541  0.4074 -0.3735 -0.1937
  712PF6-    F615383   1.125   2.551   2.327  0.7654  0.6375 -0.0200
  712PF6-    F715384   1.326   2.471   2.575  0.2654 -0.4938  0.1088
  713PF6-    P115385   3.300   1.010   4.631  0.1627  0.0203 -0.0159
  713PF6-    F215386   3.281   1.087   4.489  0.4412 -0.0681  0.0863
  713PF6-    F315387   3.322   0.929   4.769  0.1700 -0.6388  0.3472
  713PF6-    F415388   3.445   0.969   4.582 -0.2328 -0.9411  0.3052
  713PF6-    F515389   3.154   1.050   4.687 -0.0937  0.5986  0.1073
  713PF6-    F615390   3.239   0.873   4.570 -0.2814 -0.0974  0.3361
  713PF6-    F715391   3.361   1.140   4.697 -0.0232 -0.2103  0.4290
  714PF6-    P115392   1.761   2.083   0.577  0.0731  0.1233  0.2531
  714PF6-    F215393   1.717   2.176   0.702  0.1489 -0.2375 -0.2454
  714PF6-    F315394   1.798   1.985   0.450 -0.3017 -0.2580  0.2009
  714PF6-    F415395   1.690   1.960   0.653  0.3328  0.1975 -0.2769
  714PF6-    F515396   1.823   2.205   0.503 -0.1746 -0.2320 -0.4000
  714PF6-    F615397   1.902   2.059   0.647  0.1306  0.6137  0.5566
  714PF6-    F715398   1.617   2.112   0.510 -0.7296  0.4427  0.0110
  715PF6-    P115399   5.041   4.833   1.504 -0.2771  0.1052 -0.2060
  715PF6-    F215400   5.040   4.990   1.502 -0.0032  0.4222 -0.5055
  715PF6-    F315401   5.042   4.671   1.499  0.1063  0.3777 -0.1649
  715PF6-    F415402   4.950   4.832   1.364  0.0616 -0.3073 -0.3298
  715PF6-    F515403   5.133   4.833   1.629  0.0872 -0.1301 -0.0463
  715PF6-    F615404   4.920   4.825   1.601 -0.3369  0.3963 -0.5794
  715PF6-    F715405   5.170   4.840   1.419  0.5263  0.3275  0.4518
  716PF6-    P115406   1.583   4.066   4.060 -0.2419  0.4703 -0.0677
  716PF6-    F215407   1.577   4.158   3.927 -0.6555  0.2702 -0.0113
  716PF6-    F315408   1.580   3.978   4.195 -0.1750 -0.1889 -0.6307
  716PF6-    F415409   1.447   3.991   4.013 -0.3581  0.2300  0.6045
  716PF6-    F515410   1.718   4.139   4.110  0.1470  0.1221  0.0553
  716PF6-    F615411   1.495   4.184   4.129 -0.2720  0.1324  0.0145
  716PF6-    F715412   1.674   3.955   3.996  0.5762  0.0507 -0.5725
  717PF6-    P115413   5.096   1.320   1.550  0.1284 -0.0476  0.5753
  717PF6-    F215414   4.986   1.294   1.657  0.1300  0.2277  0.2751
  717PF6-    F315415   5.206   1.339   1.434 -0.3774  0.4771  0.0277
  717PF6-    F415416   5.131   1.465   1.618  0.1655 -0.6640  0.5143
  717PF6-    F515417   5.054   1.178   1.488  0.6536 -0.2089  0.0327
  717PF6-    F615418   4.991   1.393   1.450 -0.2078 -0.0970  0.5807
  717PF6-    F715419   5.207   1.245   1.644 -0.6546 -0.3865  0.9421
  718PF6-    P115420   5.130   5.403   5.208  0.0640 -0.6649 -0.3148
  718PF6-    F215421   4.995   5.378   5.129  0.2041 -0.6386  0.1349
  718PF6-    F315422   5.262   5.428   5.292 -0.2366 -0.2275 -0.1164
  718PF6-    F415423   5.065   5.349   5.341  0.4248 -0.2940  0.1908
  718PF6-    F515424   5.196   5.457   5.068  0.1665 -0.2743 -0.2445
  718PF6-    F615425   5.082   5.554   5.240 -0.5008 -0.1630 -0.2792
  718PF6-    F715426   5.182   5.253   5.181  0.8690 -0.1780  0.5375
  719PF6-    P115427   2.955   4.557   2.092  0.4612  0.3615  0.0935
  719PF6-    F215428   2.799   4.608   2.120 -0.3968 -0.0521  0.3151
  719PF6-    F315429   3.108   4.511   2.063  0.2051 -0.0176 -0.3071
  719PF6-    F415430   2.996   4.709   2.097  0.1173  0.3134 -0.3240
  719PF6-    F515431   2.911   4.405   2.085  0.0947 -0.6505  0.2175
  719PF6-    F615432   2.938   4.568   1.935 -0.2299  0.0391  0.3039
  719PF6-    F715433   2.971   4.549   2.251 -1.1172 -0.4010  0.1199
  720PF6-    P115434   4.172   0.037   0.453 -0.1353  0.0290  0.5801
  720PF6-    F215435   4.039   0.098   0.387 -0.4676 -0.1423 -0.3994
  720PF6-    F315436   4.301  -0.030   0.520 -0.1036 -0.2566 -0.2691
  720PF6-    F415437   4.101  -0.101   0.442  0.3167  0.3546  0.0878
  720PF6-    F515438   4.235   0.183   0.462 -0.1702  0.3968 -0.6684
  720PF6-    F615439   4.117   0.057   0.603 -0.1219  0.0298  0.4547
  720PF6-    F715440   4.233   0.018   0.303 -0.4297 -0.0872 -0.0315
  721PF6-    P115441   0.754   4.503   1.662  0.0965 -0.3563 -0.5329
  721PF6-    F215442   0.746   4.356   1.599 -0.4129 -0.2769 -0.0508
  721PF6-    F315443   0.773   4.650   1.727  0.1721  0.2592  0.3790
  721PF6-    F415444   0.899   4.512   1.606 -0.0555 -0.7089 -0.0088
  721PF6-    F515445   0.610   4.486   1.732 -0.2194 -0.0592  0.2925
  721PF6-    F615446   0.816   4.440   1.791  0.0848  0.1168  0.1712
  721PF6-    F715447   0.690   4.562   1.529 -0.0838 -0.0228 -0.4164
  722PF6-    P115448   0.496   1.976   2.057 -0.2320 -0.2418  0.0588
  722PF6-    F215449   0.464   1.887   1.929 -0.1634 -0.4025  0.2548
  722PF6-    F315450   0.536   2.067   2.185  0.0384  0.0410 -0.1476
  722PF6-    F415451   0.382   2.086   2.023 -0.5791 -0.0177  0.5176
  722PF6-    F515452   0.616   1.874   2.089 -0.1025 -0.4502  0.1956
  722PF6-    F615453   0.597   2.065   1.962  0.2067 -0.3358 -0.0824
  722PF6-    F715454   0.390   1.893   2.152  0.3634  0.1538  0.5834
  723PF6-    P115455   3.895   2.978   2.884 -0.1838  0.1643 -0.2077
  723PF6-    F215456   3.776   2.871   2.891 -0.1984 -0.0433 -0.1228
  723PF6-    F315457   4.007   3.087   2.879 -0.5764  0.2974  0.0923
  723PF6-    F415458   3.915   2.940   2.732  0.3591 -0.3283  0.0452
  723PF6-    F515459   3.881   3.005   3.043  0.2936 -1.0153  0.6075
  723PF6-    F615460   4.002   2.862   2.919  0.4817  0.2922 -0.1033
  723PF6-    F715461   3.787   3.095   2.848 -0.1952  0.1400 -0.0219
  724PF6-    P115462   0.050   0.282   4.219  0.1606  0.3721  0.2672
  724PF6-    F215463   0.043   0.386   4.101 -0.8236  0.7054  0.0940
  724PF6-    F315464   0.060   0.166   4.328  0.0248  0.2387 -0.0932
  724PF6-    F415465   0.065   0.167   4.108  0.6497 -0.1500 -0.1588
  724PF6-    F515466   0.033   0.397   4.336 -0.2820 -0.3767  0.3045
  724PF6-    F615467  -0.111   0.261   4.218 -0.4979 -0.1953  0.0209
  724PF6-    F715468   0.209   0.294   4.219 -0.0962 -0.5063 -0.3814
  725PF6-    P115469   4.983   4.217   2.668 -0.2648  0.2565 -0.1390
  725PF6-    F215470   4.874   4.098   2.652 -0.4306 -0.3930 -0.4660
  725PF6-    F315471   5.093   4.336   2.669  0.6480  0.2240  0.3646
  725PF6-    F415472   4.889   4.295   2.774 -0.4660  0.1337  0.1050
  725PF6-    F515473   5.083   4.144   2.573 -0.4703  0.6879 -0.3067
  725PF6-    F615474   4.912   4.287   2.547 -0.1984 -0.0715 -0.3568
  725PF6-    F715475   5.050   4.143   2.794 -0.3058 -0.2411 -0.3362
  726PF6-    P115476   2.156   1.593   4.023 -0.2706 -0.4044 -0.4807
  726PF6-    F215477   2.311   1.613   3.995 -0.1513 -0.2558 -0.0270
  726PF6-    F315478   2.000   1.569   4.052  0.6996 -0.1726 -0.0997
  726PF6-    F415479   2.153   1.479   3.908 -0.2789 -0.2535 -0.0201
  726PF6-    F515480   2.163   1.706   4.141  0.3240  0.1656  0.1003
  726PF6-    F615481   2.118   1.708   3.913 -0.2114  0.2926 -1.0297
  726PF6-    F715482   2.191   1.479   4.132  0.8281  0.1632  0.1084
  727PF6-    P115483   0.334   4.258   4.663  0.2052  0.0937 -0.0352
  727PF6-    F215484   0.486   4.302   4.653 -0.2309  0.4000 -0.0471
  727PF6-    F315485   0.177   4.212   4.684 -0.1093  0.5315 -0.3236
  727PF6-    F415486   0.294   4.410   4.701 -0.5891 -0.1845  0.2874
  727PF6-    F515487   0.369   4.108   4.628  0.0618  0.0015 -0.1213
  727PF6-    F615488   0.351   4.226   4.817 -0.1754  0.1314 -0.0425
  727PF6-    F715489   0.314   4.291   4.508  0.2483 -0.1114  0.5657
  728PF6-    P115490   2.981   3.539   1.977 -0.0004 -0.6036  0.2351
  728PF6-    F215491   2.955   3.395   2.044 -0.3186 -0.0818  0.1612
  728PF6-    F315492   3.005   3.683   1.906 -0.3382  0.3579 -0.1591
  728PF6-    F415493   3.055   3.589   2.111  0.4545  0.0135 -0.1581
  728PF6-    F515494   2.907   3.491   1.839  0.0404 -0.3324 -0.3798
  728PF6-    F615495   2.841   3.589   2.028 -0.4346 -0.1002  0.5721
  728PF6-    F715496   3.123   3.484   1.923 -0.7421 -0.6867 -0.1526
  729PF6-    P115497   1.284   4.399   5.373 -0.4740  0.1046  0.1225
  729PF6-    F215498   1.443   4.414   5.360 -0.0982  0.2865 -0.0669
  729PF6-    F315499   1.125   4.385   5.397 -0.6386  0.0309  0.1340
  729PF6-    F415500   1.259   4.553   5.413  0.1941  0.2502 -0.0040
  729PF6-    F515501   1.304   4.241   5.345 -0.0065 -0.2340  0.2619
  729PF6-    F615502   1.305   4.374   5.531  0.0328  0.1600 -0.0544
  729PF6-    F715503   1.270   4.428   5.219  0.2163 -0.4007  0.1312
  730PF6-    P115504   2.676   4.903   3.483 -0.2133 -0.1483  0.2552
  730PF6-    F215505   2.791   4.791   3.468  0.4309  0.1336 -0.1057
  730PF6-    F315506   2.556   5.018   3.500 -0.1109  0.9078  0.0826
  730PF6-    F415507   2.580   4.815   3.383  0.2397 -0.5829  0.0736
  730PF6-    F515508   2.774   4.986   3.581  0.6637  0.3839 -0.0565
  730PF6-    F615509   2.743   4.977   3.358  0.2622 -0.3921  0.2445
  730PF6-    F715510   2.614   4.823   3.606 -0.2361 -0.0459 -0.4358
  731PF6-    P115511   0.821   0.924   1.434  0.0948  0.1652  0.0396
  731PF6-    F215512   0.791   0.801   1.534 -0.6236  0.1868 -0.1456
  731PF6-    F315513   0.853   1.045   1.330  0.1110  0.1632 -0.0446
  731PF6-    F415514   0.671   0.916   1.370 -0.1270  0.2264  0.0441
  731PF6-    F515515   0.966   0.948   1.499 -0.2218 -0.3338 -0.4125
  731PF6-    F615516   0.879   0.819   1.324  0.0297 -0.4832  0.2732
  731PF6-    F715517   0.763   1.027   1.547  0.1039 -0.0771 -0.4684
  732PF6-    P115518   3.556   3.644   0.829 -0.3134 -0.4366 -0.5329
  732PF6-    F215519   3.545   3.668   0.671  0.3463 -0.2318  0.1302
  732PF6-    F315520   3.562   3.621   0.987 -0.2171 -0.2983 -0.2820
  732PF6-    F415521   3.670   3.758   0.835  0.4270 -0.2833 -0.5834
  732PF6-    F515522   3.443   3.523   0.822  0.2168  0.3636  0.2597
  732PF6-    F615523   3.672   3.538   0.808  0.3207 -0.0529 -0.0956
  732PF6-    F715524   3.442   3.755   0.857 -0.0267 -0.2901 -0.6844
  733PF6-    P115525   4.534   0.701   4.672 -0.2424 -0.3399  0.0658
  733PF6-    F215526   4.631   0.793   4.767  0.3897 -0.2491 -0.3683
  733PF6-    F315527   4.450   0.605   4.583  0.4018  0.4152  0.0320
  733PF6-    F415528   4.445   0.669   4.801  0.2563  0.2825 -0.1239
  733PF6-    F515529   4.627   0.731   4.550 -0.6238 -0.1692 -0.2529
  733PF6-    F615530   4.626   0.576   4.707 -0.0553 -0.0053 -0.3536
  733PF6-    F715531   4.441   0.828   4.634  0.4600  0.6444 -0.1518
  734PF6-    P115532   3.867   1.635   4.520 -0.0714 -0.2893 -0.2974
  734PF6-    F215533   3.842   1.783   4.459  0.1821 -0.0816 -0.0453
  734PF6-    F315534   3.888   1.488   4.586  0.5697  0.2439 -0.0445
  734PF6-    F415535   3.798   1.574   4.393  0.2787  0.0630  0.2607
  734PF6-    F515536   3.935   1.705   4.647 -0.0061  0.5164  0.2585
  734PF6-    F615537   3.723   1.643   4.596  0.4540 -0.2861 -0.2390
  734PF6-    F715538   4.013   1.619   4.447 -0.1364 -0.0009  0.4192
  735PF6-    P115539   1.308   4.024   0.957 -0.1383  0.0525 -0.0296
  735PF6-    F215540   1.150   4.068   0.958 -0.2877  0.2478  0.5914
  735PF6-    F315541   1.460   3.976   0.961  0.0531  0.2910  0.0115
  735PF6-    F415542   1.311   4.047   0.796 -0.7883  0.1579  0.1003
  735PF6-    F515543   1.297   4.001   1.120  0.1099  0.0374 -0.1662
  735PF6-    F615544   1.255   3.872   0.938  0.1955  0.2883 -0.4413
  735PF6-    F715545   1.357   4.175   0.991  0.6617  0.6764  0.1765
  736PF6-    P115546   3.910   2.889   4.304  0.1428  0.1736 -0.2810
  736PF6-    F215547   3.891   2.728   4.262  0.4393 -0.0908  0.3248
  736PF6-    F315548   3.925   3.045   4.341 -0.1841 -0.0951  0.4572
  736PF6-    F415549   3.858   2.933   4.161 -0.2198 -0.1638 -0.0489
  736PF6-    F515550   3.962   2.842   4.450  0.0354  0.6742  0.2294
  736PF6-    F615551   4.059   2.888   4.249 -0.5188  0.0532  0.9080
  736PF6-    F715552   3.762   2.892   4.356 -0.7318 -0.1266 -0.1912
  737PF6-    P115553   1.801   1.355   1.946  0.3115 -0.2868  0.3479
  737PF6-    F215554   1.929   1.275   1.883 -0.0557 -0.3081 -0.1082
  737PF6-    F315555   1.679   1.437   1.999  0.1519 -1.1131  0.0570
  737PF6-    F415556   1.899   1.467   2.008  0.1061  0.0418  0.2684
  737PF6-    F515557   1.699   1.253   1.888 -0.1291  0.8668  0.2773
  737PF6-    F615558   1.806   1.269   2.083  0.2351  0.1126  0.3643
  737PF6-    F715559   1.786   1.443   1.809  0.2280 -0.3507  0.4287
  738PF6-    P115560   1.319   3.410   1.720  0.2265 -0.0127  0.0674
  738PF6-    F215561   1.233   3.280   1.685  0.2414 -0.7663 -0.1125
  738PF6-    F315562   1.405   3.539   1.759 -0.3930 -0.4044 -0.1429
  738PF6-    F415563   1.295   3.384   1.875 -0.6565 -0.1346  0.6053
  738PF6-    F515564   1.347   3.430   1.565  0.3014  0.2372  0.9054
  738PF6-    F615565   1.189   3.502   1.713 -0.0121 -0.2615 -0.2646
  738PF6-    F715566   1.452   3.319   1.725  0.5983 -0.9157 -0.1210
  739PF6-    P115567   4.478   3.675   0.092  0.1010  0.1132  0.3337
  739PF6-    F215568   4.550   3.736   0.223  0.9558 -0.2920  0.4187
  739PF6-    F315569   4.413   3.603  -0.039  0.6070  0.3344 -0.3362
  739PF6-    F415570   4.595   3.566   0.096 -0.0034  0.2071  0.5250
  739PF6-    F515571   4.367   3.783   0.092 -0.7263  0.0847  0.5576
  739PF6-    F615572   4.570   3.774   0.007 -0.2767  0.0156 -0.1292
  739PF6-    F715573   4.382   3.579   0.184  0.0084  0.5450 -0.0702
  740PF6-    P115574   3.666   3.343   0.027 -0.2587  0.0724 -0.2684
  740PF6-    F215575   3.651   3.269   0.168 -0.2561 -0.1545 -0.1671
  740PF6-    F315576   3.681   3.421  -0.113 -0.1584  0.7617  0.4456
  740PF6-    F415577   3.673   3.486   0.105 -0.4806 -0.2798 -0.0533
  740PF6-    F515578   3.650   3.204  -0.054 -0.1680 -0.3783  0.4054
  740PF6-    F615579   3.508   3.362   0.021 -0.1015 -0.6447  0.1264
  740PF6-    F715580   3.825   3.315   0.033  0.5981 -0.2348 -0.4623
  741PF6-    P115581   3.621   2.107   1.083  0.1338  0.4545  0.1043
  741PF6-    F215582   3.703   2.188   0.973  0.7753 -0.3038 -0.1028
  741PF6-    F315583   3.536   2.022   1.191 -0.0207  0.2530  0.0008
  741PF6-    F415584   3.512   2.067   0.973  0.1158 -0.1980 -0.1525
  741PF6-    F515585   3.729   2.131   1.194  0.1833  0.3913  0.2886
  741PF6-    F615586   3.532   2.235   1.112 -0.3580  0.1087  0.6622
  741PF6-    F715587   3.705   1.977   1.037  0.0689 -0.2246  0.2521
  742PF6-    P115588   2.026   1.354   0.602 -0.2196 -0.4785  0.4292
  742PF6-    F215589   1.890   1.268   0.607  0.3655  0.2696 -0.5740
  742PF6-    F315590   2.165   1.436   0.583  0.1647 -0.0492  0.2680
  742PF6-    F415591   2.103   1.228   0.538  0.1489 -0.5792 -0.1050
  742PF6-    F515592   1.943   1.481   0.662 -0.1433  0.0351  0.7480
  742PF6-    F615593   2.054   1.309   0.752 -0.0427  0.4552 -0.3689
  742PF6-    F715594   1.986   1.403   0.461 -0.2074  0.3869  0.5756
  743PF6-    P115595   1.234   3.608   3.041 -0.2141 -0.0081 -0.1293
  743PF6-    F215596   1.201   3.698   2.912 -0.1219 -0.0573 -0.1527
  743PF6-    F315597   1.261   3.506   3.163  0.1154  0.0355 -0.1654
  743PF6-    F415598   1.351   3.534   2.963  0.6697  0.0442  0.5480
  743PF6-    F515599   1.111   3.677   3.119  0.0675  0.2308 -0.8678
  743PF6-    F615600   1.122   3.507   2.984 -0.3607  0.6158  0.6681
  743PF6-    F715601   1.340   3.718   3.092 -0.4295  0.1833 -0.6358
  744PF6-    P115602   4.690   1.378   0.170 -0.1228 -0.2244  0.3203
  744PF6-    F215603   4.828   1.333   0.235 -0.0590 -0.2712  0.1734
  744PF6-    F315604   4.545   1.416   0.109 -0.0671  0.4601 -0.4072
  744PF6-    F415605   4.752   1.377   0.025 -0.7159  0.0935 -0.0280
  744PF6-    F515606   4.625   1.374   0.315 -0.0634  0.2919 -0.1193
  744PF6-    F615607   4.728   1.537   0.193  0.4982 -0.2121  0.2588
  744PF6-    F715608   4.653   1.223   0.155  0.2019 -0.4040 -0.1835
  745PF6-    P115609   0.923   2.918   0.876  0.1547 -0.2602  0.3750
  745PF6-    F215610   1.014   3.023   0.958  0.1055  0.1671  0.0102
  745PF6-    F315611   0.827   2.824   0.783  0.2703  0.5447 -0.6022
  745PF6-    F415612   1.022   2.797   0.906  0.0856  0.5885  0.1546
  745PF6-    F515613   0.821   3.044   0.848  0.0397 -0.0874  0.2209
  745PF6-    F615614   1.006   2.968   0.746  0.5280  0.3026 -0.2396
  745PF6-    F715615   0.836   2.879   1.007  0.7998 -0.6134  0.0114
  746PF6-    P115616   0.133   1.730   2.855  0.1386  0.3171  0.2723
  746PF6-    F215617   0.222   1.824   2.761 -0.0302  0.0740  0.4833
  746PF6-    F315618   0.043   1.645   2.961  0.4178  0.3073  0.1502
  746PF6-    F415619   0.180   1.596   2.774  0.0463 -0.7008  0.2599
  746PF6-    F515620   0.081   1.860   2.930 -0.6335 -0.2230 -0.1549
  746PF6-    F615621  -0.001   1.740   2.763 -0.3990  0.4873  0.2619
  746PF6-    F715622   0.265   1.711   2.953  0.0878 -0.1997 -0.5565
  747PF6-    P115623   2.726   4.239   4.755  0.0858  0.3226 -0.1273
  747PF6-    F215624   2.856   4.303   4.695 -0.0638  0.1333 -0.2091
  747PF6-    F315625   2.595   4.175   4.826  0.2610  0.1891  0.5666
  747PF6-    F415626   2.642   4.287   4.626  0.3288 -0.5237  0.0002
  747PF6-    F515627   2.814   4.188   4.877  0.9230  0.3546  0.0609
  747PF6-    F615628   2.693   4.375   4.825  0.4427 -0.5183  0.2162
  747PF6-    F715629   2.759   4.100   4.682 -0.1507 -0.2256 -0.3320
  748PF6-    P115630   3.765   0.931   5.414 -0.5274  0.3091 -0.3118
  748PF6-    F215631   3.649   0.885   5.320 -0.4030 -0.2146 -0.0043
  748PF6-    F315632   3.890   0.978   5.507 -0.1901 -0.1911  0.2007
  748PF6-    F415633   3.668   1.011   5.510 -0.0236 -0.2856 -0.5738
  748PF6-    F515634   3.868   0.852   5.328  0.2134 -0.1607 -0.1171
  748PF6-    F615635   3.798   1.056   5.322  0.0198 -0.7463  0.4581
  748PF6-    F715636   3.736   0.808   5.508  0.3282 -0.0614 -1.0114
  749PF6-    P115637   2.572   2.455   1.312 -0.0065 -0.1586  0.2396
  749PF6-    F215638   2.485   2.585   1.326 -0.2395  0.0753 -0.6359
  749PF6-    F315639   2.660   2.323   1.292  0.0266  0.2497  0.1230
  749PF6-    F415640   2.710   2.538   1.340 -0.2793 -0.4684 -0.6641
  749PF6-    F515641   2.438   2.368   1.284  0.1388 -0.0203 -0.3321
  749PF6-    F615642   2.589   2.485   1.159  0.0296  0.1251  0.1026
  749PF6-    F715643   2.564   2.427   1.468 -0.4336 -0.0882  0.0306
  750PF6-    P115644   2.238   2.044   2.583  0.4331  0.1259  0.0950
  750PF6-    F215645   2.173   2.127   2.460 -0.0109 -0.9262 -0.2683
  750PF6-    F315646   2.297   1.963   2.705 -0.2131  0.2419 -0.4757
  750PF6-    F415647   2.137   2.118   2.687  0.7705  0.2175 -0.3863
  750PF6-    F515648   2.351   1.983   2.485 -0.0044  0.0035  0.2000
  750PF6-    F615649   2.343   2.159   2.617  0.6215  0.2673  0.1511
  750PF6-    F715650   2.141   1.923   2.552  0.1912  0.0026 -0.2314
  751Na+     N115651   3.029   0.054   3.949  0.5583  0.2902 -0.1243
  752Na+     N115652   1.520   3.380   1.117 -0.1512 -0.2162 -0.2504
  753Na+     N115653   1.741   4.302   3.795 -0.5267 -0.3967 -0.5821
  754Na+     N115654   5.290   2.564   3.179  0.3901  0.0040 -0.5030
  755Na+     N115655   0.447   4.542   2.449  0.2391 -0.0476  0.3719
  756Na+     N115656   1.080   0.636   1.973 -0.0334 -0.2951  0.0423
  757Na+     N115657   1.896   3.453   4.385  0.1919 -0.0164 -0.3739
  758Na+     N115658   3.962   1.050   2.987  0.1543  0.0335  0.1281
  759Na+     N115659   0.248   0.676   0.322  0.0077  0.2418  0.2427
  760Na+     N115660   2.411   1.238   2.264 -0.1560 -0.1263  0.0325
  761Na+     N115661   1.078   4.555   1.392  0.3175 -0.2157  0.5070
  762Na+     N115662   0.692   4.933   0.122  0.4248  0.1265 -0.1357
  763Na+     N115663   3.237   1.246   4.272 -0.3321  0.1521  0.3685
  764Na+     N115664   2.970   4.570   3.267 -0.0043 -0.0931 -0.1438
  765Na+     N115665   0.120   4.720   4.170 -0.5829 -0.6104 -0.7320
  766Na+     N115666   1.285   4.133   2.632 -0.1442  0.4523  0.3678
  767Na+     N115667   0.525   3.975   3.167  0.3451  0.0740 -0.2566
  768Na+     N115668   1.992   4.238   4.653 -0.2623  0.1279  0.2761
  769Na+     N115669   2.411   3.481   2.925 -0.1803  0.5340 -0.2314
  770Na+     N115670   4.607   1.849   0.923 -0.2170  0.2702 -0.4115
  771Na+     N115671   2.256   4.064   0.231  0.0360  0.3297  0.6946
  772Na+     N115672   3.191   0.348   1.748  0.0756 -0.0641 -0.1294
  773Na+     N115673   3.452   2.065   2.369  0.1700 -0.2333 -0.0378
  774Na+     N115674   1.752   5.346   3.051  0.2029  0.3100 -0.2205
  775Na+     N115675   4.162   2.732   1.315 -0.3963 -0.2181  0.6305
  776Na+     N115676   3.476   3.522   4.392  0.1840 -0.5066  0.2105
  777Na+     N115677   2.339   1.741   1.019  0.4701 -0.2535  0.0581
  778Na+     N115678   0.036   3.701   1.141 -0.2894  0.3167 -0.1294
  779Na+     N115679   3.231   2.473   4.510  0.0125 -0.5099 -0.0519
  780Na+     N115680   3.698   0.866   4.711  0.4054 -0.0206  0.0717
  781Na+     N115681   1.848   2.262   2.109 -0.1415  0.2581  0.3924
  782Na+     N115682   1.964   1.063   1.347 -0.3053 -0.2915 -0.3645
  783Na+     N115683   3.148   1.141   0.669  0.1382  0.0226 -0.0267
  784Na+     N115684   5.276   0.581   1.432  0.0084  0.0631  0.0920
  785Na+     N115685   3.229   5.285   4.876 -0.0710 -0.0015 -0.2512
  786Na+     N115686   1.944   0.535   3.877 -0.2361 -0.0308  0.0798
  787Na+     N115687   1.765   1.434   4.116  0.0285 -0.0635 -0.2998
  788Na+     N115688   0.730   2.339   5.374  0.3126  0.0080  0.3321
  789Na+     N115689   4.336   3.308   5.156 -0.2149 -1.0483  0.1476
  790Na+     N115690   0.520   1.325   2.354  0.1322  0.2057  0.1430
  791Na+     N115691   4.451   5.113   3.775 -0.0741  0.1015  0.0540
  792Na+     N115692   0.387   3.475   2.342 -0.1945  0.3276 -0.3221
  793Na+     N115693   0.469   1.448   1.086  0.1859  0.2478 -0.2082
  794Na+     N115694   3.620   4.614   2.210 -0.0277  0.6377 -0.1534
  795Na+     N115695   2.497   2.851   3.918  0.6612  0.2162 -0.1514
  796Na+     N115696   3.546   3.309   2.605  0.0482 -0.1038  0.4545
  797Na+     N115697   1.308   1.660   0.499  0.4673 -0.1553 -0.2849
  798Na+     N115698   5.215   0.058   4.846  0.4101 -0.0732  0.2615
  799Na+     N115699   0.018   1.814   3.472  0.0012 -0.1146 -0.0262
  800Na+     N115700   4.804   3.505   1.309  0.2380  0.0896 -0.5654
  801Na+     N115701   5.428   4.571   0.913  0.5199 -0.8906 -0.0305
  802Na+     N115702   2.603   0.690   5.342  0.1945 -0.0569 -0.2628
  803Na+     N115703   4.858   5.296   0.461 -0.4327  0.5920  0.2178
  804Na+     N115704   0.753   2.957   2.957  0.2151 -0.2291  0.0617
  805Na+     N115705   3.819   0.623   0.130  0.4179 -0.3533  0.1558
  806Na+     N115706   1.731   2.175   3.743  0.1745  0.2132  0.3454
  807Na+     N115707   1.221   0.595   4.901 -0.2822  0.3233  0.0349
  808Na+     N115708   4.309   1.284   5.069 -0.2213 -0.0759 -0.1785
  809Na+     N115709   5.257   1.675   2.788  0.6813  0.0605  0.3295
  810Na+     N115710   4.582   0.991   3.957 -0.5786 -0.0324 -0.0515
  811Na+     N115711   2.485   2.372   2.649  0.0542  0.0753 -0.4633
  812Na+     N115712   5.257   2.017   1.867 -0.1632  0.4423 -0.6305
  813Na+     N115713   4.182   0.637   0.875 -0.5492  0.1821 -0.1031
  814Na+     N115714   5.056   1.144   0.719 -0.1035 -0.1765 -0.3110
  815Na+     N115715   4.224   3.604   2.211 -0.1098 -0.1149 -0.0437
  816Na+     N115716   4.390   4.671   2.857  0.2609 -0.3473  0.5903
  817Na+     N115717   2.404   3.734   1.679 -0.0673 -0.3739  0.2678
  818Na+     N115718   4.807   3.124   0.513 -0.0419 -0.3897  0.3805
  819Na+     N115719   4.717   4.841   5.250  0.3848 -0.5723  0.2819
  820Na+     N115720   2.912   2.970   5.333 -0.3282 -0.0828 -0.0476
  821Na+     N115721   2.367   1.952   0.226  0.1398  0.0389 -0.7080
  822Na+     N115722   3.940   3.900   0.307 -0.1536  0.0089 -0.3513
  823Na+     N115723   4.662   4.055   3.344  0.1820  0.4920  0.0172
  824Na+     N115724   3.971   1.360   2.223  0.1165  0.0260 -0.1657
  825Na+     N115725   2.813   3.121   2.604 -0.1494  0.5004 -0.3157
  826Na+     N115726   1.614   2.051   2.954 -0.3433 -0.2569  0.3680
  827Na+     N115727   5.235   1.019   4.653 -0.2540  0.0976  0.0846
  828Na+     N115728   1.024   4.130   4.685  0.1811  0.1031  0.0927
  829Na+     N115729   3.288   2.204   3.352 -0.0478  0.3248 -0.0895
  830Na+     N115730   0.914   3.023   1.982 -0.4739 -0.3105 -0.4111
  831Na+     N115731   4.642   0.095   3.024  0.3327 -0.3411 -0.2710
  832Na+     N115732   4.450   0.206   1.456  0.3326 -0.1468  0.0073
  833Na+     N115733   3.156   4.041   1.488  0.1787  0.2456 -0.6707
  834Na+     N115734   0.211   2.293   0.740 -0.6213  0.4172 -0.4524
  835Na+     N115735   0.830   5.343   3.892  0.0283 -0.0904  1.0438
  836Na+     N115736   4.201   4.821   1.576  0.2434 -0.4849 -0.2470
  837Na+     N115737   2.280   2.560   5.078  0.1387  0.2850  0.2571
  838Na+     N115738   2.678   0.479   2.550 -0.1387  0.1176  0.3889
  839Na+     N115739   0.869   2.089   1.902  0.1114 -0.2987 -0.0869
  840Na+     N115740   0.165   1.506   0.238  0.1213  0.7523 -0.1002
  841Na+     N115741   3.025   1.943   1.313  0.4814  0.1560 -0.3114
  842Na+     N115742   5.012   4.961   2.540 -0.1443 -0.0597 -0.2885
  843Na+     N115743   3.357   2.459   0.640 -0.0211 -0.6656 -0.5798
  844Na+     N115744   0.876   3.641   0.610 -0.0684 -0.4106  0.0104
  845Na+     N115745   1.150   2.963   3.838 -0.1811 -0.4962  0.1397
  846Na+     N115746   4.495   1.856   2.917 -0.2223 -0.0671 -0.7074
  847Na+     N115747   4.076   3.315   3.720  0.1703 -0.1069  0.2574
  848Na+     N115748   2.514   5.331   5.384 -0.0273 -0.2991  0.2943
  849Na+     N115749   3.489   5.472   0.587 -0.2448  0.5548  0.3044
  850Na+     N115750   3.020   4.219   4.220 -0.1051  0.0103  0.1477
   5.50274   5.50274   5.50274
