DG-PF6-Na           Amber RESP
15750
    1DG      C1    1   3.084   0.494   2.025  0.1255 -0.1720  0.2519
    1DG      C2    2   3.081  -0.065   2.274 -0.3987 -0.1012  0.0150
    1DG      H3    3   3.015   0.527   2.100  0.9542  0.1405 -1.2509
    1DG      H4    4   3.048   0.566   1.947 -3.4635  0.3191  1.1925
    1DG      H5    5   3.184   0.518   2.052  2.4598  1.2019 -2.3806
    1DG      H6    6   3.098  -0.030   2.383  1.1798 -1.4751  3.6387
    1DG      H7    7   3.086  -0.172   2.265 -1.6608 -2.3293 -0.5759
    1DG      H8    8   3.162  -0.026   2.222  1.4244  1.8970 -1.5096
    1DG      O9    9   3.045   0.361   2.015  0.1703 -0.3281 -0.1319
    1DG     O10   10   2.955   0.000   2.248 -0.3150  0.5174  0.4524
    1DG     C11   11   3.119   0.289   1.924 -0.0942 -0.0464  0.3237
    1DG     C12   12   2.890  -0.059   2.133  0.1393  0.1312 -0.9718
    1DG     H13   13   3.212   0.258   1.971  0.0228 -0.4602 -0.0689
    1DG     H14   14   3.157   0.340   1.831  1.2918 -2.8958 -2.9027
    1DG     H15   15   2.791  -0.017   2.113  2.4495 -1.1514 -2.9164
    1DG     H16   16   2.866  -0.162   2.147 -0.9395 -0.9581  1.1788
    1DG     C17   17   3.051   0.154   1.886 -0.5824  0.0104 -0.3183
    1DG     C18   18   2.967  -0.034   2.003 -0.5115  0.2392 -0.0324
    1DG     O19   19   2.984   0.112   2.000  0.1005  0.1412 -0.4278
    1DG     H20   20   3.133   0.086   1.855 -0.3959 -0.4594 -1.4860
    1DG     H21   21   2.982   0.161   1.801 -1.9153  0.3536 -1.1077
    1DG     H22   22   3.061  -0.086   1.993  0.1000  1.5631  0.6615
    1DG     H23   23   2.907  -0.067   1.920  0.6102 -0.1252 -1.9601
    2DG      C1   24   3.583   3.466   4.138  0.2377  0.1097 -0.6702
    2DG      C2   25   3.729   3.223   3.550 -0.1501  0.8229  0.6418
    2DG      H3   26   3.517   3.496   4.212 -1.3906  0.2134 -1.6411
    2DG      H4   27   3.675   3.525   4.150 -2.0516  0.5587 -0.5317
    2DG      H5   28   3.594   3.362   4.172 -0.6581  2.8783  0.1345
    2DG      H6   29   3.814   3.194   3.618  1.7366 -0.3253 -1.0882
    2DG      H7   30   3.672   3.137   3.507 -2.1001 -2.9412 -0.1815
    2DG      H8   31   3.775   3.270   3.466 -0.5808 -1.0729  2.4606
    2DG      O9   32   3.541   3.479   4.008 -0.8144 -0.4088  0.1177
    2DG     O10   33   3.635   3.308   3.612 -0.0694 -0.1989 -0.1695
    2DG     C11   34   3.549   3.613   3.953  0.1165 -0.9015  0.1540
    2DG     C12   35   3.580   3.405   3.523  0.2246 -0.5983  0.7296
    2DG     H13   36   3.647   3.654   3.955  0.4801  1.0634  3.7847
    2DG     H14   37   3.494   3.684   4.023 -0.6016 -1.0002 -1.1554
    2DG     H15   38   3.523   3.355   3.446 -0.5658 -1.8474  1.2347
    2DG     H16   39   3.652   3.473   3.482  0.8210 -1.6585  0.6080
    2DG     C17   40   3.480   3.620   3.819  0.3044 -1.2459  0.1824
    2DG     C18   41   3.489   3.496   3.606  0.0343  0.0152  0.7794
    2DG     O19   42   3.541   3.521   3.737  0.1640  0.0310  0.5170
    2DG     H20   43   3.500   3.716   3.780 -2.4199 -0.1606 -1.0728
    2DG     H21   44   3.377   3.584   3.834 -1.9305 -1.1744  1.6076
    2DG     H22   45   3.471   3.587   3.560  1.3010  1.2466  0.8909
    2DG     H23   46   3.386   3.450   3.614 -2.6440  0.7827  1.3600
    3DG      C1   47   5.094   2.123   2.960  0.2036 -0.2021  0.4448
    3DG      C2   48   5.429   1.832   3.230  0.2171  0.6217  0.0243
    3DG      H3   49   5.009   2.157   2.901  3.0794  0.8304  0.4166
    3DG      H4   50   5.127   2.208   3.014 -0.3117  0.2147 -2.3786
    3DG      H5   51   5.064   2.051   3.031  0.6326 -0.1035 -0.3157
    3DG      H6   52   5.383   1.908   3.297 -0.2562  3.0209  0.3148
    3DG      H7   53   5.368   1.741   3.234 -3.4152 -0.2954 -0.9757
    3DG      H8   54   5.525   1.808   3.263 -4.1924  0.4807  0.0709
    3DG      O9   55   5.190   2.058   2.878  0.2213 -0.0592  0.3541
    3DG     O10   56   5.428   1.891   3.101  0.2177  0.2860 -0.1009
    3DG     C11   57   5.254   2.143   2.787 -0.1587  0.4179  0.9499
    3DG     C12   58   5.523   2.000   3.093  0.0330 -0.0928 -0.1565
    3DG     H13   59   5.210   2.246   2.776 -3.4222  1.3077  1.1614
    3DG     H14   60   5.249   2.101   2.684 -2.0919  2.0433 -1.8258
    3DG     H15   61   5.607   1.979   3.165  1.7870  0.5843  0.7175
    3DG     H16   62   5.473   2.087   3.117  0.2136 -1.3193  4.1060
    3DG     C17   63   5.409   2.148   2.827  0.2451 -0.0007  0.0351
    3DG     C18   64   5.569   2.005   2.945 -0.1247 -0.4218  0.0559
    3DG     O19   65   5.445   2.010   2.860 -0.1832  0.3194 -0.1088
    3DG     H20   66   5.423   2.220   2.915  1.3559 -0.0347 -0.3442
    3DG     H21   67   5.474   2.173   2.740  0.4557 -1.3488 -0.8643
    3DG     H22   68   5.647   2.080   2.922  1.2754  0.7906 -0.8565
    3DG     H23   69   5.612   1.905   2.926  1.5168  0.5606 -0.4820
    4DG      C1   70   5.027   0.451   3.698  0.4363  0.0094 -0.4218
    4DG      C2   71   5.624   0.405   3.987  0.4919  0.0523 -0.3263
    4DG      H3   72   4.951   0.439   3.630  0.2005  1.3080  0.8498
    4DG      H4   73   5.045   0.563   3.692  2.1792 -0.5359 -0.2702
    4DG      H5   74   4.991   0.419   3.797 -3.1067 -2.0492  2.2251
    4DG      H6   75   5.644   0.512   3.995  1.9884 -0.6425 -0.9386
    4DG      H7   76   5.552   0.381   4.067  1.9689 -0.6169 -0.5378
    4DG      H8   77   5.711   0.348   3.991 -1.9604  1.0644  1.7890
    4DG      O9   78   5.149   0.387   3.664  0.3767  0.1601 -0.3897
    4DG     O10   79   5.553   0.371   3.868 -0.3460  0.2601 -0.2784
    4DG     C11   80   5.199   0.418   3.532  0.0791  0.9454  0.0699
    4DG     C12   81   5.626   0.411   3.757 -0.8708 -0.2199 -0.3863
    4DG     H13   82   5.192   0.525   3.517 -0.4174 -0.7347  1.6898
    4DG     H14   83   5.132   0.354   3.463  1.0907  0.3294  1.5033
    4DG     H15   84   5.733   0.395   3.762  0.8865 -2.5524  0.0184
    4DG     H16   85   5.622   0.521   3.749  0.8246 -1.2410 -2.1824
    4DG     C17   86   5.349   0.371   3.514  0.2962 -0.2411 -0.6962
    4DG     C18   87   5.558   0.363   3.627 -0.5658 -0.0671  0.1163
    4DG     O19   88   5.423   0.413   3.627 -0.2321  0.5366  0.7008
    4DG     H20   89   5.394   0.403   3.415  0.9521  0.3127 -3.6299
    4DG     H21   90   5.349   0.267   3.522 -0.0218  3.9573  1.6194
    4DG     H22   91   5.617   0.417   3.546 -3.1216  0.1570 -0.6414
    4DG     H23   92   5.571   0.257   3.612  0.1056 -1.2179  0.6175
    5DG      C1   93   2.821   4.092   4.022  0.2261  0.1438  0.1184
    5DG      C2   94   2.274   4.669   3.787  0.4029 -0.3543  0.4305
    5DG      H3   95   2.875   4.002   4.043  0.7972 -1.8029  1.9430
    5DG      H4   96   2.749   4.093   4.105  1.5506 -1.4283  0.0272
    5DG      H5   97   2.882   4.185   4.047  2.0333  2.0037 -0.5164
    5DG      H6   98   2.203   4.694   3.707  0.1527  0.1701 -0.7353
    5DG      H7   99   2.212   4.676   3.880 -1.4265  1.0070  1.7942
    5DG      H8  100   2.350   4.741   3.780 -2.8310  2.1400  3.0395
    5DG      O9  101   2.759   4.114   3.901 -0.0659  0.1682  0.3351
    5DG     O10  102   2.326   4.539   3.767 -0.3111  0.3248  0.1914
    5DG     C11  103   2.695   4.237   3.894  0.2951 -0.1508  0.1289
    5DG     C12  104   2.413   4.525   3.646  0.4085  0.1177  0.2500
    5DG     H13  105   2.763   4.321   3.921 -0.2619 -0.4065  0.8657
    5DG     H14  106   2.617   4.236   3.968 -0.5581  1.9889 -2.4833
    5DG     H15  107   2.492   4.595   3.628  1.1003 -1.5859 -3.5567
    5DG     H16  108   2.353   4.546   3.560 -0.4828 -0.2221  0.1604
    5DG     C17  109   2.628   4.250   3.753 -0.1497 -0.8839 -0.4937
    5DG     C18  110   2.472   4.388   3.646 -0.4969  0.6176 -0.1176
    5DG     O19  111   2.545   4.371   3.770 -0.3512 -0.2815  0.4265
    5DG     H20  112   2.572   4.156   3.727 -1.4155 -0.8139 -0.3054
    5DG     H21  113   2.706   4.268   3.671 -0.8137  0.4659 -5.0150
    5DG     H22  114   2.394   4.313   3.634  2.1870  0.7492  0.3102
    5DG     H23  115   2.545   4.364   3.567  1.3552 -1.9958  0.8053
    6DG      C1  116   3.080   3.873   1.533 -0.1586 -0.1429  0.5702
    6DG      C2  117   3.410   4.146   1.091 -0.6591 -0.4463  0.3126
    6DG      H3  118   3.044   3.789   1.593  1.9211 -2.6085 -0.3523
    6DG      H4  119   3.035   3.879   1.433 -1.4079  3.3787 -0.6924
    6DG      H5  120   3.061   3.970   1.576 -0.6634  3.3281 -2.2879
    6DG      H6  121   3.425   4.245   1.132  0.6458  0.7941  0.8017
    6DG      H7  122   3.470   4.132   1.000 -1.6791 -1.1945 -2.5133
    6DG      H8  123   3.308   4.130   1.066  2.5466  1.1196 -0.3879
    6DG      O9  124   3.221   3.848   1.508 -0.0142 -0.1406  0.1384
    6DG     O10  125   3.438   4.044   1.183 -0.2414  0.4064  0.4109
    6DG     C11  126   3.320   3.870   1.605 -0.2342  0.2962  0.0088
    6DG     C12  127   3.549   4.070   1.269 -0.8532  0.1229 -0.9215
    6DG     H13  128   3.302   3.798   1.679  0.4684 -2.2866 -3.2698
    6DG     H14  129   3.305   3.967   1.644 -3.4616  1.8964  1.8861
    6DG     H15  130   3.528   4.158   1.331  2.0866  1.3135 -0.1389
    6DG     H16  131   3.641   4.077   1.211  2.2982 -0.8276 -2.3303
    6DG     C17  132   3.454   3.859   1.543 -0.7308 -0.1418  0.1292
    6DG     C18  133   3.573   3.956   1.368 -0.3128  0.2710 -0.2253
    6DG     O19  134   3.451   3.953   1.437 -0.0382  0.4643 -0.4131
    6DG     H20  135   3.478   3.759   1.504 -1.9769  2.2982 -0.1848
    6DG     H21  136   3.537   3.888   1.612  1.1001 -0.5839  2.8532
    6DG     H22  137   3.599   3.869   1.309  3.3969 -1.2331  0.7517
    6DG     H23  138   3.655   3.975   1.438  0.4361  1.4719 -2.0034
    7DG      C1  139   1.390   5.171   5.031 -0.1188  0.2213  1.0542
    7DG      C2  140   1.711   5.402   4.496 -0.2186  0.2725  0.7090
    7DG      H3  141   1.323   5.247   5.069 -0.1927 -0.3974 -0.7302
    7DG      H4  142   1.443   5.125   5.112  1.2973  1.6234 -0.9894
    7DG      H5  143   1.329   5.088   4.978  0.8776 -0.1987 -2.5246
    7DG      H6  144   1.679   5.415   4.394  1.6943 -2.1217 -1.6297
    7DG      H7  145   1.630   5.440   4.568  1.2487 -0.6054  0.2696
    7DG      H8  146   1.802   5.465   4.513 -0.8167 -0.5256  3.9090
    7DG      O9  147   1.482   5.227   4.939 -0.7533 -0.0054 -0.2058
    7DG     O10  148   1.734   5.272   4.527  0.8937 -0.5961  0.2301
    7DG     C11  149   1.593   5.137   4.924 -0.6081 -0.6460  0.6760
    7DG     C12  150   1.629   5.188   4.468  0.0362 -0.3822 -0.1896
    7DG     H13  151   1.577   5.025   4.938  0.3889 -3.7592  2.3689
    7DG     H14  152   1.667   5.163   4.998  0.7698 -0.9918  1.3728
    7DG     H15  153   1.672   5.166   4.370 -0.3540  0.5705 -1.6797
    7DG     H16  154   1.532   5.238   4.439  0.1023 -2.7189 -0.5806
    7DG     C17  155   1.639   5.148   4.775  0.8597 -0.5104 -0.0439
    7DG     C18  156   1.593   5.069   4.553  0.0651  0.1995 -0.2667
    7DG     O19  157   1.544   5.108   4.682  0.3725  0.3320 -0.1956
    7DG     H20  158   1.730   5.093   4.765  0.0073  1.4331 -2.2356
    7DG     H21  159   1.665   5.254   4.764 -0.7914  2.0124 -0.8672
    7DG     H22  160   1.517   5.014   4.502  0.9604  2.4497  0.9001
    7DG     H23  161   1.671   5.004   4.575 -3.0924 -1.2532  2.6911
    8DG      C1  162   3.092   0.933   1.743  0.2373  1.0874  0.1369
    8DG      C2  163   2.990   1.049   2.413  0.0593 -0.3901 -1.3459
    8DG      H3  164   3.185   0.969   1.697 -0.2928  3.1606 -1.9326
    8DG      H4  165   3.025   1.015   1.768 -2.2639 -0.5376 -1.9781
    8DG      H5  166   3.031   0.873   1.673  1.0832 -1.4536 -1.8823
    8DG      H6  167   2.911   0.982   2.396  0.6748 -1.1954 -1.5124
    8DG      H7  168   3.008   1.060   2.519 -2.5004 -1.9460 -3.8744
    8DG      H8  169   2.965   1.148   2.377  2.9518 -0.9189  0.4940
    8DG      O9  170   3.122   0.845   1.844 -0.2332  0.7411 -0.3162
    8DG     O10  171   3.115   1.013   2.354  0.2845 -0.3939 -0.4758
    8DG     C11  172   3.192   0.924   1.947 -0.4303  0.5868  0.1282
    8DG     C12  173   3.151   0.874   2.376  0.7600 -0.4175 -0.0657
    8DG     H13  174   3.149   1.017   1.963  1.9063 -0.4299 -0.6467
    8DG     H14  175   3.288   0.953   1.905 -0.1893  0.2261  0.2198
    8DG     H15  176   3.142   0.847   2.485 -1.1774 -0.1666  1.7590
    8DG     H16  177   3.257   0.869   2.360 -0.2465  1.2193 -0.7574
    8DG     C17  178   3.196   0.847   2.079 -0.2789  0.8677  0.0301
    8DG     C18  179   3.071   0.791   2.275  0.1780  0.0129  0.2503
    8DG     O19  180   3.068   0.849   2.147 -0.0353  0.3728  0.2776
    8DG     H20  181   3.263   0.891   2.152 -1.2882  0.9513  0.4882
    8DG     H21  182   3.225   0.743   2.056  1.4996  0.4857 -1.7033
    8DG     H22  183   3.109   0.684   2.263 -2.5408 -0.9766 -0.1401
    8DG     H23  184   2.965   0.788   2.303 -2.3601  1.4484 -0.3448
    9DG      C1  185   5.469   1.155   0.722  0.1047 -0.5116 -0.1761
    9DG      C2  186   5.736   1.685   1.010  0.7062 -0.3346 -0.7162
    9DG      H3  187   5.571   1.167   0.680  2.2990 -2.3260 -0.2247
    9DG      H4  188   5.410   1.098   0.649  1.0133 -0.1134  0.1768
    9DG      H5  189   5.469   1.094   0.813 -3.1550  2.0596  1.2658
    9DG      H6  190   5.737   1.793   1.017 -3.1273 -0.7136 -0.6971
    9DG      H7  191   5.711   1.665   1.113  1.3622  3.6690 -0.7709
    9DG      H8  192   5.827   1.647   0.979 -4.1136  0.6065 -0.1799
    9DG      O9  193   5.410   1.280   0.746 -0.0905 -0.0838 -0.5213
    9DG     O10  194   5.640   1.643   0.913 -0.4789 -0.6635  0.4232
    9DG     C11  195   5.381   1.353   0.624 -0.0325  0.8286  0.6046
    9DG     C12  196   5.508   1.665   0.955  0.7568 -0.3244  0.0812
    9DG     H13  197   5.290   1.312   0.574 -0.4437  0.2701  1.5217
    9DG     H14  198   5.461   1.334   0.553 -0.6896 -3.3364  0.7311
    9DG     H15  199   5.473   1.764   0.933  1.4906 -1.9635  2.4450
    9DG     H16  200   5.496   1.645   1.061 -1.9777 -0.7839  0.0832
    9DG     C17  201   5.348   1.495   0.660  0.4702 -0.4112 -0.5161
    9DG     C18  202   5.411   1.575   0.877 -0.2117 -0.1698  0.5239
    9DG     O19  203   5.452   1.558   0.737 -0.0536  0.2057 -0.1560
    9DG     H20  204   5.246   1.508   0.709  0.0719  0.7321  0.7915
    9DG     H21  205   5.336   1.552   0.570 -1.0031 -3.4946 -1.1469
    9DG     H22  206   5.416   1.477   0.921  1.6984  2.0687  3.2384
    9DG     H23  207   5.309   1.611   0.882  0.2914  0.1592 -0.8464
   10DG      C1  208   0.790   1.748   4.376 -0.6526 -0.1338  0.4669
   10DG      C2  209   0.282   1.871   4.838 -0.1208 -0.3542 -0.6246
   10DG      H3  210   0.817   1.846   4.332  0.0042 -3.9596 -0.3323
   10DG      H4  211   0.710   1.712   4.316  2.7599  2.8963 -2.2330
   10DG      H5  212   0.873   1.684   4.373  0.3175  3.6759  3.8816
   10DG      H6  213   0.243   1.954   4.789 -1.6870 -3.5083  0.9158
   10DG      H7  214   0.234   1.785   4.798  1.2943  0.2137 -2.1121
   10DG      H8  215   0.252   1.878   4.940  0.0876 -1.2497 -1.5024
   10DG      O9  216   0.747   1.768   4.512 -0.1996 -0.1763  0.0760
   10DG     O10  217   0.423   1.865   4.824  0.0209 -0.2885 -0.1327
   10DG     C11  218   0.809   1.882   4.570  0.2106  0.2199 -0.2452
   10DG     C12  219   0.498   1.783   4.918  0.2574 -0.1593 -0.5547
   10DG     H13  220   0.770   1.968   4.527  0.2812  1.4868  0.9240
   10DG     H14  221   0.912   1.902   4.555  0.8435  0.3099 -3.1142
   10DG     H15  222   0.498   1.677   4.888 -0.9612  1.1052 -1.4166
   10DG     H16  223   0.460   1.785   5.022 -0.6410 -1.8113 -1.8474
   10DG     C17  224   0.792   1.868   4.720  0.0992  0.3244 -0.1531
   10DG     C18  225   0.636   1.834   4.905 -0.6027 -0.7682  0.6389
   10DG     O19  226   0.659   1.832   4.760 -0.3805 -0.2154  0.0239
   10DG     H20  227   0.821   1.972   4.749 -1.1722  0.3114 -0.3308
   10DG     H21  228   0.853   1.796   4.763  1.6954  2.6925  0.6216
   10DG     H22  229   0.651   1.938   4.940  0.7877 -2.1242 -0.4869
   10DG     H23  230   0.694   1.760   4.952 -1.2359 -1.1476  0.1548
   11DG      C1  231   3.331   1.312   1.740 -0.2059 -0.7550  0.8176
   11DG      C2  232   4.040   1.122   1.848  0.5336 -0.0234  0.5224
   11DG      H3  233   3.247   1.384   1.740  0.7079  1.6578 -0.5429
   11DG      H4  234   3.343   1.278   1.844 -0.1300  2.1066 -0.8984
   11DG      H5  235   3.306   1.234   1.671  0.5462  0.9766  0.5944
   11DG      H6  236   3.973   1.026   1.852 -1.0050 -1.7717 -0.6748
   11DG      H7  237   4.126   1.108   1.783 -1.7388 -0.5304  1.4626
   11DG      H8  238   4.076   1.146   1.949  2.1814 -1.0123 -2.8410
   11DG      O9  239   3.447   1.375   1.688  0.2083 -0.1417  0.4989
   11DG     O10  240   3.966   1.239   1.825 -0.6675 -0.2605 -0.1054
   11DG     C11  241   3.501   1.464   1.783 -0.5265 -0.6460  0.0119
   11DG     C12  242   3.946   1.274   1.694 -0.3499  0.7121 -0.0398
   11DG     H13  243   3.511   1.417   1.877  0.7562 -0.6700 -0.7066
   11DG     H14  244   3.426   1.546   1.804  0.3316  0.0545 -0.8525
   11DG     H15  245   3.904   1.189   1.639  0.9426 -2.2919  1.9525
   11DG     H16  246   4.049   1.288   1.652 -0.4595 -1.5619 -0.2680
   11DG     C17  247   3.653   1.509   1.764 -1.1013  0.2270 -0.0977
   11DG     C18  248   3.859   1.399   1.685  0.1083 -0.6926 -0.2256
   11DG     O19  249   3.736   1.386   1.759  0.1819  0.2000 -0.2266
   11DG     H20  250   3.679   1.578   1.850 -0.9202  1.2325 -3.0799
   11DG     H21  251   3.656   1.575   1.679  0.3080  1.3228  1.3846
   11DG     H22  252   3.909   1.491   1.712 -1.4232  0.0059 -1.9084
   11DG     H23  253   3.828   1.411   1.581  0.4873  1.2203 -1.4026
   12DG      C1  254   3.525   3.789   0.244  0.4705 -0.0748 -0.3082
   12DG      C2  255   3.968   4.068   0.485 -0.0502 -0.4001 -0.5181
   12DG      H3  256   3.447   3.869   0.260 -0.0296  1.9056 -0.2199
   12DG      H4  257   3.517   3.710   0.323 -2.5482  0.8382  1.0141
   12DG      H5  258   3.482   3.736   0.164 -2.4425 -1.4614 -0.1394
   12DG      H6  259   4.027   3.997   0.545  1.0092 -0.2802 -3.0745
   12DG      H7  260   3.928   4.149   0.546  1.7534 -0.2016 -0.3569
   12DG      H8  261   3.886   4.008   0.450  1.0139 -1.1651  0.4373
   12DG      O9  262   3.652   3.849   0.206 -0.4232  0.2708  0.5042
   12DG     O10  263   4.062   4.114   0.384  0.1639 -0.2180 -0.1000
   12DG     C11  264   3.743   3.757   0.152  0.0408  0.0407  0.2976
   12DG     C12  265   4.131   4.006   0.317 -0.9212 -0.2250  0.4706
   12DG     H13  266   3.697   3.706   0.069 -0.2033  0.4430 -1.2185
   12DG     H14  267   3.773   3.677   0.229 -0.9920  0.7172 -0.3897
   12DG     H15  268   4.143   3.919   0.387  1.2876  0.2534  0.3142
   12DG     H16  269   4.229   4.049   0.298  0.6514 -1.0350  0.3221
   12DG     C17  270   3.874   3.827   0.118  0.1872  1.0078  0.4836
   12DG     C18  271   4.058   3.961   0.186 -0.3265  0.2495  0.3465
   12DG     O19  272   3.936   3.903   0.225 -0.4317 -0.3576  0.1513
   12DG     H20  273   3.838   3.901   0.047  2.0576 -1.2079  1.6095
   12DG     H21  274   3.957   3.755   0.086  0.8071 -2.7151 -2.8126
   12DG     H22  275   4.040   4.056   0.122 -0.0432 -2.8091  2.5570
   12DG     H23  276   4.128   3.890   0.136  2.1048  4.1170  0.9380
   13DG      C1  277   3.565   4.771   0.010  0.2981 -0.3587 -0.6886
   13DG      C2  278   3.512   5.290  -0.376  0.3626  0.5181 -0.2175
   13DG      H3  279   3.593   4.674   0.052  1.2720 -1.2802  2.4735
   13DG      H4  280   3.460   4.763  -0.015  2.4449  1.1158 -3.8822
   13DG      H5  281   3.574   4.837   0.094  0.2216 -3.2675 -0.7867
   13DG      H6  282   3.429   5.264  -0.443 -2.3949  1.8189 -0.1549
   13DG      H7  283   3.472   5.319  -0.276 -2.2522 -0.1387  3.1261
   13DG      H8  284   3.577   5.367  -0.423  0.5852 -0.5240 -0.9802
   13DG      O9  285   3.653   4.813  -0.098 -0.0413  0.0908 -0.0443
   13DG     O10  286   3.594   5.171  -0.371  0.4188 -0.9026 -0.0277
   13DG     C11  287   3.627   4.727  -0.209 -0.1562 -0.5534 -0.0901
   13DG     C12  288   3.661   5.128  -0.490  0.4165 -0.2525 -0.3605
   13DG     H13  289   3.523   4.726  -0.233 -0.1459 -3.9792 -1.5902
   13DG     H14  290   3.659   4.627  -0.179  0.5281 -0.4533 -3.5290
   13DG     H15  291   3.743   5.197  -0.510  1.3553 -2.5962 -1.5006
   13DG     H16  292   3.583   5.120  -0.569  0.1105  1.5587 -0.7384
   13DG     C17  293   3.708   4.783  -0.333  0.2935 -0.5182  0.1335
   13DG     C18  294   3.731   4.989  -0.456  0.1993 -0.0586 -0.3637
   13DG     O19  295   3.656   4.912  -0.367 -0.6117  0.2546 -0.2958
   13DG     H20  296   3.692   4.726  -0.429  0.6797 -0.7897 -1.1836
   13DG     H21  297   3.816   4.798  -0.313 -2.1365  2.2908 -0.1994
   13DG     H22  298   3.749   4.931  -0.551  0.3806  2.4984  0.4926
   13DG     H23  299   3.828   5.020  -0.417  2.7253 -0.4045 -3.2640
   14DG      C1  300   4.661   4.975   4.757 -0.1216  1.0189 -0.3539
   14DG      C2  301   4.711   5.386   4.285  0.5566 -0.3533 -0.0453
   14DG      H3  302   4.591   4.911   4.805  0.2762  0.4256 -1.0250
   14DG      H4  303   4.749   4.911   4.741 -2.5452  0.0284 -1.7293
   14DG      H5  304   4.616   5.008   4.663 -2.2837  1.1448  0.6549
   14DG      H6  305   4.743   5.299   4.233 -0.9892  1.1008  0.1505
   14DG      H7  306   4.715   5.466   4.211 -1.9611 -1.6138 -2.9247
   14DG      H8  307   4.781   5.418   4.360 -0.9261  0.4747 -2.1851
   14DG      O9  308   4.697   5.088   4.837  0.2321 -0.2401  0.0668
   14DG     O10  309   4.575   5.375   4.317  0.3574 -0.4882 -0.2439
   14DG     C11  310   4.588   5.167   4.883 -0.0609 -0.0762 -0.3938
   14DG     C12  311   4.558   5.284   4.422 -0.0209  0.7055 -0.0193
   14DG     H13  312   4.597   5.214   4.978 -1.2330  0.3597  1.8254
   14DG     H14  313   4.495   5.113   4.901 -0.0011 -0.0834  0.9431
   14DG     H15  314   4.622   5.196   4.406 -1.1037 -0.6312 -1.6359
   14DG     H16  315   4.458   5.239   4.420  0.1027  0.0109  0.8459
   14DG     C17  316   4.582   5.288   4.782  0.0618 -0.0817 -1.0722
   14DG     C18  317   4.577   5.344   4.557  0.1216  0.0474  0.3289
   14DG     O19  318   4.543   5.252   4.647 -0.1755 -0.1502 -1.7559
   14DG     H20  319   4.684   5.337   4.779 -1.0214 -0.0100 -0.5951
   14DG     H21  320   4.513   5.367   4.811  1.6501  0.7335 -0.7090
   14DG     H22  321   4.673   5.396   4.561  0.8311  0.1159  0.2456
   14DG     H23  322   4.502   5.421   4.576 -0.7046  0.8601  0.5660
   15DG      C1  323   3.068   1.607   1.293 -0.9389 -0.1235 -0.4391
   15DG      C2  324   3.733   1.686   1.153 -0.3316  0.0607 -0.1267
   15DG      H3  325   2.994   1.571   1.363 -0.6956 -0.3586 -0.0929
   15DG      H4  326   3.041   1.563   1.199  2.3545  0.7150 -2.0854
   15DG      H5  327   3.058   1.714   1.298 -1.0712 -2.3643  2.6979
   15DG      H6  328   3.679   1.761   1.104  0.4414 -1.4746  0.0266
   15DG      H7  329   3.810   1.734   1.203  0.4721  0.0349 -0.8799
   15DG      H8  330   3.777   1.628   1.079  1.7808  0.7272 -0.5768
   15DG      O9  331   3.197   1.572   1.326  0.2977  0.6053  0.2023
   15DG     O10  332   3.642   1.607   1.223  0.2146  0.0858  0.2123
   15DG     C11  333   3.223   1.431   1.329  0.2401  0.2290 -0.5056
   15DG     C12  334   3.690   1.478   1.256  0.7783  0.7462 -0.1034
   15DG     H13  335   3.210   1.373   1.235 -0.0140  0.2243 -1.0667
   15DG     H14  336   3.154   1.391   1.402 -1.6927  2.4098  0.9007
   15DG     H15  337   3.791   1.474   1.297  1.4914 -0.9762  0.1446
   15DG     H16  338   3.693   1.410   1.166 -1.1893  0.1512 -1.5394
   15DG     C17  339   3.353   1.405   1.392 -0.1771 -0.7679  0.0722
   15DG     C18  340   3.586   1.418   1.349  0.1809 -0.0084 -0.2322
   15DG     O19  341   3.453   1.444   1.298  0.0332 -0.2474 -0.7609
   15DG     H20  342   3.371   1.295   1.423 -1.7492  0.1786  0.0103
   15DG     H21  343   3.370   1.452   1.489  1.4564  1.0957  2.2596
   15DG     H22  344   3.600   1.308   1.348 -0.7209 -2.8565 -2.2734
   15DG     H23  345   3.594   1.459   1.452 -0.9515  1.2045 -2.2557
   16DG      C1  346   3.280   3.113   5.288 -0.1382 -0.2640  0.2872
   16DG      C2  347   3.051   3.644   4.851  0.7565  0.6490 -0.5770
   16DG      H3  348   3.331   3.123   5.193 -0.0609 -1.2955  1.0488
   16DG      H4  349   3.231   3.022   5.269  1.4540  1.7614  1.6730
   16DG      H5  350   3.357   3.102   5.370 -1.8003  0.8816  1.9381
   16DG      H6  351   3.014   3.597   4.758  0.1413  0.1037  2.1174
   16DG      H7  352   2.995   3.738   4.858  0.2644  1.8315 -0.9279
   16DG      H8  353   3.156   3.670   4.839  2.0704 -0.5935 -0.1452
   16DG      O9  354   3.183   3.216   5.309  0.0697 -0.1406 -0.3014
   16DG     O10  355   3.009   3.560   4.959 -0.0941 -0.3137  0.1455
   16DG     C11  356   3.047   3.183   5.298  0.2178  0.0716  0.1363
   16DG     C12  357   3.045   3.608   5.092 -0.2495 -0.2938 -0.2867
   16DG     H13  358   3.014   3.123   5.384  2.4291  1.5304 -2.1796
   16DG     H14  359   3.010   3.140   5.198 -1.0632 -2.6729 -1.0915
   16DG     H15  360   3.012   3.717   5.086 -0.0977  2.6265 -0.0198
   16DG     H16  361   3.155   3.627   5.098 -2.8530  2.5415 -0.6175
   16DG     C17  362   2.972   3.321   5.300  0.3207  0.3733  0.2087
   16DG     C18  363   2.972   3.535   5.210 -0.7746  0.8871  0.0882
   16DG     O19  364   3.036   3.411   5.213  0.3982  0.0568  0.3365
   16DG     H20  365   2.984   3.348   5.408 -0.0550 -0.8900 -0.9967
   16DG     H21  366   2.873   3.312   5.268 -1.4901  0.2873  1.0906
   16DG     H22  367   2.995   3.587   5.302 -1.4573  0.4484 -2.1915
   16DG     H23  368   2.867   3.527   5.190  2.9133 -0.6960 -3.5724
   17DG      C1  369   2.650   3.730   2.255  0.2893 -0.1004  0.1703
   17DG      C2  370   2.443   4.237   2.838 -0.4539 -0.1171 -0.1601
   17DG      H3  371   2.608   3.627   2.265  0.9113  0.4411  3.3909
   17DG      H4  372   2.742   3.718   2.207 -1.5560  0.0069  1.2869
   17DG      H5  373   2.587   3.794   2.194 -0.2686  0.5834  1.5807
   17DG      H6  374   2.341   4.225   2.869  0.6588  0.3519  0.9300
   17DG      H7  375   2.493   4.274   2.926  1.6800  0.2065 -0.6904
   17DG      H8  376   2.445   4.311   2.762 -0.6749 -0.9699  2.7402
   17DG      O9  377   2.674   3.783   2.386 -0.3411  0.3564 -0.0502
   17DG     O10  378   2.509   4.121   2.790  0.2472 -0.1033  0.4659
   17DG     C11  379   2.566   3.865   2.440 -0.2383 -0.0032 -0.1541
   17DG     C12  380   2.644   4.163   2.758 -0.3879  0.0324 -0.0997
   17DG     H13  381   2.472   3.812   2.437 -0.2171  1.0238  3.7198
   17DG     H14  382   2.555   3.948   2.367  0.1928  0.0946 -0.3637
   17DG     H15  383   2.694   4.206   2.842  3.6175 -1.1616 -0.4698
   17DG     H16  384   2.642   4.243   2.675 -1.1034  0.3480  1.9230
   17DG     C17  385   2.592   3.912   2.585 -0.3694 -0.1888  0.7761
   17DG     C18  386   2.734   4.049   2.716  0.1811  0.7590 -0.1367
   17DG     O19  387   2.707   3.999   2.584  0.0825  0.1903 -0.1380
   17DG     H20  388   2.598   3.833   2.655  3.3652  2.4747  0.6506
   17DG     H21  389   2.504   3.973   2.620  1.5923  0.4504  3.0068
   17DG     H22  390   2.841   4.086   2.707  0.5762 -2.4335  0.8100
   17DG     H23  391   2.728   3.976   2.792  0.4408  4.3731  1.5911
   18DG      C1  392   1.278   2.116   2.108 -0.7725  0.0103  0.4777
   18DG      C2  393   0.552   2.351   2.229  0.9738  0.4350  0.0046
   18DG      H3  394   1.349   2.071   2.042  0.4750  0.7433  0.4333
   18DG      H4  395   1.224   2.030   2.151  0.3532  1.9996 -0.3365
   18DG      H5  396   1.319   2.169   2.189  0.1597 -0.3355 -0.0938
   18DG      H6  397   0.514   2.452   2.261  0.0311  3.9892  0.8879
   18DG      H7  398   0.477   2.301   2.164 -1.1083  1.3534 -0.1649
   18DG      H8  399   0.564   2.297   2.326 -1.4593  0.1649 -0.1971
   18DG      O9  400   1.196   2.203   2.016  0.5427  0.1200  0.1842
   18DG     O10  401   0.670   2.351   2.168  0.2876 -0.5315 -0.1500
   18DG     C11  402   1.087   2.264   2.083 -0.3182  0.1439  0.6417
   18DG     C12  403   0.667   2.457   2.076 -0.2363 -0.1403 -0.7633
   18DG     H13  404   1.125   2.330   2.160 -0.6059 -0.8967  3.1274
   18DG     H14  405   1.009   2.197   2.117  0.7642 -1.0650 -1.0203
   18DG     H15  406   0.666   2.551   2.137  3.3455  0.9004 -1.6892
   18DG     H16  407   0.570   2.457   2.011  1.3178  0.7617 -1.4083
   18DG     C17  408   1.020   2.367   1.997 -0.5008 -0.1670 -0.3972
   18DG     C18  409   0.786   2.456   1.987 -0.3338 -0.5016 -1.0863
   18DG     O19  410   0.903   2.412   2.064 -0.3836 -0.3518 -0.1532
   18DG     H20  411   1.013   2.351   1.894  0.8016  2.6682  2.2807
   18DG     H21  412   1.089   2.459   2.006  0.0710  2.4925  0.8993
   18DG     H22  413   0.755   2.378   1.920  1.3192  0.8549 -0.8481
   18DG     H23  414   0.801   2.549   1.924 -0.2163  1.3145 -2.2720
   19DG      C1  415   1.526   0.427   3.841 -0.0251  0.8607 -0.6912
   19DG      C2  416   1.413   1.150   3.426  0.0423  0.9111  0.4688
   19DG      H3  417   1.545   0.317   3.834  0.1921 -1.1971 -1.4574
   19DG      H4  418   1.429   0.442   3.879  2.6366 -1.1672 -0.8016
   19DG      H5  419   1.586   0.459   3.918 -2.7687  1.4037 -0.8952
   19DG      H6  420   1.383   1.209   3.332  0.0058  1.2875 -0.6204
   19DG      H7  421   1.334   1.156   3.496  3.3250  0.0409  1.3618
   19DG      H8  422   1.493   1.214   3.472 -0.0994  0.9319 -1.8292
   19DG      O9  423   1.547   0.513   3.733  0.6971  0.6248 -0.2961
   19DG     O10  424   1.437   1.013   3.388  0.3622  0.2797  0.0825
   19DG     C11  425   1.484   0.471   3.616  0.0003  0.1073  0.6295
   19DG     C12  426   1.440   0.929   3.500 -0.4218  0.2707  0.1441
   19DG     H13  427   1.371   0.470   3.634  0.7375  4.9546  0.3236
   19DG     H14  428   1.524   0.375   3.590 -1.9125  0.3003  2.8234
   19DG     H15  429   1.356   0.945   3.569  0.4943 -0.9859  1.5215
   19DG     H16  430   1.536   0.949   3.553  0.6551  2.7420  1.3345
   19DG     C17  431   1.504   0.576   3.503 -0.1780  0.3805  0.2510
   19DG     C18  432   1.436   0.792   3.442 -0.4156 -0.5983  0.1795
   19DG     O19  433   1.453   0.701   3.549 -0.0518  0.1670  0.5441
   19DG     H20  434   1.449   0.544   3.410  0.3568  0.5010 -1.0490
   19DG     H21  435   1.611   0.585   3.468  0.4953  1.6939  1.5471
   19DG     H22  436   1.350   0.762   3.385  0.4521 -1.5014 -0.1379
   19DG     H23  437   1.513   0.769   3.367 -1.4431  0.4077  0.5021
   20DG      C1  438   2.919   2.714   2.700  0.7938 -0.2043 -0.4110
   20DG      C2  439   2.973   2.017   2.617 -0.3781  0.1096 -0.6191
   20DG      H3  440   2.967   2.807   2.732  2.5381 -0.0090 -0.3375
   20DG      H4  441   2.816   2.705   2.737 -2.0095  0.0413  0.4856
   20DG      H5  442   2.910   2.712   2.589 -0.4426 -0.9201 -0.0249
   20DG      H6  443   3.014   1.954   2.539  0.6553 -1.2447 -0.0951
   20DG      H7  444   3.020   1.996   2.714 -0.0393  1.6720  1.8274
   20DG      H8  445   2.869   1.995   2.624 -0.9048  3.5684  1.4429
   20DG      O9  446   3.002   2.615   2.746  0.8584 -0.0499  0.3904
   20DG     O10  447   3.005   2.153   2.580 -0.7267 -0.2376 -0.5082
   20DG     C11  448   3.143   2.626   2.708 -0.2615 -0.7118 -0.1330
   20DG     C12  449   3.142   2.177   2.545 -1.1798 -0.3979 -0.2520
   20DG     H13  450   3.211   2.598   2.787 -2.8489  1.7176  0.1493
   20DG     H14  451   3.174   2.725   2.689  0.7587 -0.4701  0.3112
   20DG     H15  452   3.153   2.104   2.463 -1.7168 -0.5934 -0.5000
   20DG     H16  453   3.200   2.147   2.637  0.9575 -0.6208 -2.8667
   20DG     C17  454   3.162   2.542   2.581 -0.2105 -0.9327 -0.4731
   20DG     C18  455   3.151   2.318   2.501 -0.6794 -0.0593  0.0869
   20DG     O19  456   3.137   2.406   2.613 -0.0128  0.7198  0.1861
   20DG     H20  457   3.271   2.551   2.544 -0.8731 -0.0218  0.4727
   20DG     H21  458   3.101   2.566   2.495  0.0368 -1.6020 -2.6426
   20DG     H22  459   3.251   2.333   2.474 -2.3822  3.0372 -0.7473
   20DG     H23  460   3.092   2.347   2.418 -0.0344  0.2381 -0.7702
   21DG      C1  461   0.774   2.487   3.142 -0.8789 -0.6101 -0.9675
   21DG      C2  462   0.371   2.392   2.666  0.0092 -0.3064  0.8641
   21DG      H3  463   0.811   2.398   3.195  0.8411  1.7920  1.9658
   21DG      H4  464   0.823   2.569   3.197 -3.6162 -0.4619 -0.6720
   21DG      H5  465   0.810   2.485   3.035 -0.4767 -1.7348  0.2429
   21DG      H6  466   0.403   2.339   2.753 -0.5104  4.3639 -2.2709
   21DG      H7  467   0.267   2.404   2.659  0.2444 -2.2373 -0.1602
   21DG      H8  468   0.407   2.344   2.580  0.5911 -0.8184 -0.1794
   21DG      O9  469   0.635   2.508   3.142  0.3953  0.3827 -0.1325
   21DG     O10  470   0.427   2.521   2.686  0.2215 -0.1000  0.2726
   21DG     C11  471   0.562   2.392   3.128 -0.2850 -0.0424  0.1380
   21DG     C12  472   0.362   2.601   2.785 -0.9820 -0.1928 -0.3608
   21DG     H13  473   0.584   2.341   3.217 -1.3378  3.2633 -1.1983
   21DG     H14  474   0.596   2.321   3.051  0.8673  0.7375 -0.2406
   21DG     H15  475   0.253   2.601   2.769 -3.1983  1.6480  1.2636
   21DG     H16  476   0.397   2.701   2.777  2.7848  1.0282 -0.6396
   21DG     C17  477   0.412   2.403   3.104  0.4527  0.0162  0.3395
   21DG     C18  478   0.396   2.564   2.930 -0.7312 -0.0832  0.2386
   21DG     O19  479   0.361   2.431   2.972 -0.7063 -0.0724 -0.0236
   21DG     H20  480   0.369   2.483   3.169  2.3349  1.5497 -0.4138
   21DG     H21  481   0.360   2.315   3.144  0.8902 -0.0541  3.4082
   21DG     H22  482   0.500   2.590   2.954  0.3343 -5.4742 -1.0770
   21DG     H23  483   0.331   2.628   2.992  0.7350 -1.2701 -0.3697
   22DG      C1  484   2.765   1.562   3.420  0.4088 -0.4093 -0.6888
   22DG      C2  485   3.116   1.574   2.889  0.2181 -0.2528  0.0489
   22DG      H3  486   2.745   1.635   3.496  0.8295  0.3104 -0.6511
   22DG      H4  487   2.848   1.510   3.464 -2.6576  1.2772  0.0963
   22DG      H5  488   2.678   1.498   3.416  0.8312 -0.7972  1.4568
   22DG      H6  489   3.046   1.511   2.836  0.7673  0.6980 -0.7449
   22DG      H7  490   3.201   1.537   2.829  0.4905 -0.1245 -0.1197
   22DG      H8  491   3.125   1.528   2.985 -1.1193  1.8977  0.5450
   22DG      O9  492   2.819   1.614   3.298 -0.3662 -0.2523  0.4644
   22DG     O10  493   3.066   1.710   2.897 -0.0378  0.0123  0.1341
   22DG     C11  494   2.746   1.726   3.235  0.1085  1.0984 -0.0444
   22DG     C12  495   3.127   1.786   2.999  0.5092 -0.0943  0.3256
   22DG     H13  496   2.724   1.809   3.300 -1.6962 -0.4336  1.2568
   22DG     H14  497   2.647   1.690   3.197  1.6350  2.8283 -1.3148
   22DG     H15  498   3.214   1.834   2.950 -0.5306  2.2248  3.9434
   22DG     H16  499   3.158   1.732   3.085  0.7631 -2.6065  1.8516
   22DG     C17  500   2.820   1.780   3.116 -0.2319 -0.1034 -0.5571
   22DG     C18  501   3.025   1.902   3.040  0.4897  0.4768 -0.1654
   22DG     O19  502   2.942   1.856   3.152 -0.0792 -0.5946 -0.7277
   22DG     H20  503   2.767   1.858   3.058 -0.6417  1.2929  0.1315
   22DG     H21  504   2.834   1.706   3.043 -5.6026 -1.1518 -4.1533
   22DG     H22  505   3.083   1.974   3.092 -1.3899 -2.8396 -2.4827
   22DG     H23  506   2.967   1.946   2.964 -0.5495  0.7982  1.3981
   23DG      C1  507   4.020   0.164   3.125 -0.6832 -0.1323  0.0756
   23DG      C2  508   3.457  -0.029   2.699 -0.1744  0.5899 -0.1644
   23DG      H3  509   4.134   0.168   3.141  2.4355  0.8894 -1.4290
   23DG      H4  510   3.988   0.153   3.228  2.3738  0.7755 -0.8310
   23DG      H5  511   3.995   0.270   3.101  3.1193 -0.1517  1.0138
   23DG      H6  512   3.410  -0.105   2.642  1.6329  2.3816  0.4921
   23DG      H7  513   3.430  -0.034   2.808 -1.7079 -1.0179  3.9296
   23DG      H8  514   3.427   0.065   2.646  0.5865  0.5399 -1.2869
   23DG      O9  515   3.969   0.066   3.031 -0.4187 -0.0521 -0.1452
   23DG     O10  516   3.599  -0.051   2.700  0.0987  0.2343 -0.3855
   23DG     C11  517   4.015   0.104   2.901 -0.3375  0.3614  0.1433
   23DG     C12  518   3.656  -0.169   2.760  0.5342  0.0717  0.6804
   23DG     H13  519   4.120   0.141   2.888  1.0474 -1.5297 -0.4323
   23DG     H14  520   3.956   0.187   2.876  0.3061  0.3965  1.8143
   23DG     H15  521   3.635  -0.249   2.688  2.8504  0.9920 -2.5337
   23DG     H16  522   3.614  -0.208   2.853  1.0474 -1.1165  1.8867
   23DG     C17  523   3.975  -0.001   2.800  0.4383  0.0998 -0.3155
   23DG     C18  524   3.810  -0.156   2.769  0.3620 -0.2370 -0.4233
   23DG     O19  525   3.843  -0.035   2.829  0.3863 -0.1997 -0.2127
   23DG     H20  526   4.048  -0.081   2.816  3.9469  2.3060 -0.5237
   23DG     H21  527   3.995   0.032   2.701 -2.0929  0.6007 -0.4442
   23DG     H22  528   3.836  -0.239   2.829 -1.8023 -1.9082 -0.2616
   23DG     H23  529   3.838  -0.163   2.662  0.6437 -0.3411  0.1498
   24DG      C1  530   5.483   3.633   0.513 -0.5234  0.3094  0.3832
   24DG      C2  531   5.348   3.078  -0.036  0.1314  0.0172  0.5672
   24DG      H3  532   5.525   3.580   0.586 -0.0737  0.9187 -1.0658
   24DG      H4  533   5.402   3.664   0.564  0.6577 -1.4714 -1.0074
   24DG      H5  534   5.549   3.717   0.496  0.9784 -1.3001  0.0411
   24DG      H6  535   5.350   3.077  -0.146 -0.8000  2.0030 -1.8852
   24DG      H7  536   5.436   3.035   0.006 -1.2605 -3.1708  0.4506
   24DG      H8  537   5.255   3.020  -0.016  0.5110 -0.3307 -0.4306
   24DG      O9  538   5.461   3.555   0.393  1.1910 -0.5638 -0.0099
   24DG     O10  539   5.327   3.217  -0.003  0.1323  0.0227  0.3490
   24DG     C11  540   5.402   3.635   0.293 -1.4851  0.2427  0.1621
   24DG     C12  541   5.320   3.237   0.138 -0.4805  0.0747 -0.5512
   24DG     H13  542   5.435   3.739   0.301  1.1316  0.3438 -1.1110
   24DG     H14  543   5.294   3.615   0.315  0.1910 -3.7080 -0.8244
   24DG     H15  544   5.418   3.199   0.168 -0.3366  1.1505  0.0740
   24DG     H16  545   5.236   3.179   0.189 -0.3146  1.5264  0.8920
   24DG     C17  546   5.436   3.597   0.146  0.0548  0.4951 -0.9730
   24DG     C18  547   5.301   3.382   0.164  0.0787  1.1163 -0.1274
   24DG     O19  548   5.426   3.454   0.133 -0.2743  0.4972  0.3552
   24DG     H20  549   5.537   3.621   0.117  0.2508  0.1660  0.5305
   24DG     H21  550   5.367   3.634   0.075 -0.6886 -1.5135  0.9855
   24DG     H22  551   5.221   3.425   0.099 -1.4190  0.5313 -1.3732
   24DG     H23  552   5.281   3.396   0.266  0.0241  2.1443 -1.4814
   25DG      C1  553   4.799   3.198   5.302  0.6763 -0.9076 -0.0431
   25DG      C2  554   5.196   2.882   5.138  0.2765 -0.1070  0.1522
   25DG      H3  555   4.741   3.263   5.242  2.1875 -0.0284  0.3389
   25DG      H4  556   4.875   3.162   5.244 -0.3608 -1.1012  1.5940
   25DG      H5  557   4.835   3.267   5.377 -0.3274  0.3000  0.4953
   25DG      H6  558   5.246   2.791   5.101  0.6270 -2.6135 -0.2887
   25DG      H7  559   5.279   2.960   5.145  0.3240  0.2762  2.2675
   25DG      H8  560   5.161   2.858   5.244  0.3014  1.5611  1.1124
   25DG      O9  561   4.734   3.090   5.366 -0.4953 -0.2072 -0.3891
   25DG     O10  562   5.100   2.941   5.055 -0.1961 -0.2223  0.5720
   25DG     C11  563   4.654   3.018   5.272  0.1738  0.0085 -0.1092
   25DG     C12  564   5.010   2.863   4.977  0.4010  0.1733  0.5381
   25DG     H13  565   4.605   3.084   5.199 -0.6244  0.9703  1.6918
   25DG     H14  566   4.574   2.987   5.330  2.5799  1.4585  0.1327
   25DG     H15  567   5.059   2.776   4.935 -0.8358  1.5089  0.9080
   25DG     H16  568   4.974   2.921   4.898  0.4081 -1.3951  0.0247
   25DG     C17  569   4.715   2.891   5.211  0.0065  0.1052 -1.1253
   25DG     C18  570   4.881   2.816   5.057  0.4142 -0.6704 -0.6171
   25DG     O19  571   4.834   2.928   5.132  0.1980  0.0700 -0.4556
   25DG     H20  572   4.637   2.851   5.154  0.1454  0.0867 -0.5695
   25DG     H21  573   4.748   2.829   5.281 -2.8617  2.5327 -1.0924
   25DG     H22  574   4.795   2.791   4.990 -0.9534  0.0525  0.2432
   25DG     H23  575   4.905   2.724   5.107  1.0137 -0.3363 -0.4186
   26DG      C1  576   2.090   0.123   3.329  0.1244 -0.5168  0.2857
   26DG      C2  577   2.337  -0.004   3.974 -0.0714  0.0275 -0.0400
   26DG      H3  578   2.087   0.161   3.226 -0.1059 -0.3015 -2.2715
   26DG      H4  579   2.044   0.185   3.396 -0.5452 -1.5253 -2.3489
   26DG      H5  580   2.055   0.019   3.327 -2.6150 -0.8334  0.9292
   26DG      H6  581   2.251   0.039   4.026  0.8156  2.8830 -0.6627
   26DG      H7  582   2.307  -0.110   3.945 -0.0173  0.6701 -0.4689
   26DG      H8  583   2.415  -0.011   4.054  0.6303  2.2817 -1.6775
   26DG      O9  584   2.227   0.117   3.371 -0.5925  0.3816 -0.2156
   26DG     O10  585   2.367   0.089   3.866 -0.2390  0.2538  0.0578
   26DG     C11  586   2.286   0.246   3.387 -0.3900  0.2556 -1.3585
   26DG     C12  587   2.479   0.050   3.786 -0.0229  0.4143  0.4239
   26DG     H13  588   2.221   0.317   3.432  1.0682  2.5314 -1.0965
   26DG     H14  589   2.312   0.282   3.289 -0.8804 -3.4721 -1.0877
   26DG     H15  590   2.468  -0.051   3.746  0.9204  0.5391 -4.4553
   26DG     H16  591   2.564   0.045   3.848 -0.6454 -0.8338 -1.2327
   26DG     C17  592   2.418   0.238   3.469  0.0875 -0.3441 -0.4122
   26DG     C18  593   2.506   0.154   3.674 -0.1321 -0.5014 -0.8664
   26DG     O19  594   2.403   0.149   3.576 -0.2469 -0.5131 -0.0558
   26DG     H20  595   2.451   0.342   3.503 -2.3161  1.7344  2.8882
   26DG     H21  596   2.511   0.204   3.418  0.1467 -0.6372  3.1253
   26DG     H22  597   2.509   0.260   3.723 -1.5265  0.3518  0.4550
   26DG     H23  598   2.610   0.141   3.637  0.7070 -2.8059 -0.8611
   27DG      C1  599   1.484   1.828   4.541 -0.1522  0.5709  0.0079
   27DG      C2  600   1.768   1.994   5.232 -0.0319  0.4694  0.0817
   27DG      H3  601   1.464   1.757   4.462  1.6316  0.1223 -3.2782
   27DG      H4  602   1.519   1.912   4.486 -0.8418 -0.9546  0.7690
   27DG      H5  603   1.397   1.846   4.600 -0.7339 -0.2139  0.3098
   27DG      H6  604   1.788   2.051   5.143 -0.0294  0.4971  1.5522
   27DG      H7  605   1.737   2.074   5.298  1.0910  0.4955  0.3877
   27DG      H8  606   1.861   1.959   5.268 -0.6700  1.0041 -1.2615
   27DG      O9  607   1.590   1.788   4.625  0.4133 -0.3887 -0.2197
   27DG     O10  608   1.678   1.883   5.215  0.0057  0.2198 -0.0142
   27DG     C11  609   1.576   1.657   4.679  0.6157 -0.2974 -0.4002
   27DG     C12  610   1.719   1.802   5.107  0.0849 -0.3713 -0.2389
   27DG     H13  611   1.677   1.617   4.681  2.4559 -2.6868  0.0840
   27DG     H14  612   1.523   1.588   4.621 -4.1342  2.1574  1.0167
   27DG     H15  613   1.778   1.719   5.148  0.5832 -0.4992  1.3800
   27DG     H16  614   1.789   1.844   5.033  0.5491  0.3000 -0.9104
   27DG     C17  615   1.524   1.671   4.821 -1.0932 -0.4533  0.1472
   27DG     C18  616   1.588   1.760   5.037 -0.3476  0.2346 -0.4079
   27DG     O19  617   1.629   1.707   4.907 -0.4522  0.5855  0.6335
   27DG     H20  618   1.480   1.583   4.863  0.7442  1.6869 -1.3894
   27DG     H21  619   1.441   1.740   4.831  0.2700 -1.3071 -0.0928
   27DG     H22  620   1.533   1.682   5.093 -0.2108  0.3832  1.4381
   27DG     H23  621   1.527   1.847   5.031  0.1736  1.4652  0.4804
   28DG      C1  622   5.071   1.040   0.377  0.4428  0.0189  0.1725
   28DG      C2  623   5.356   0.542   0.906 -0.2427 -0.2423  0.3963
   28DG      H3  624   4.989   1.106   0.340  0.6557 -0.4449  0.9757
   28DG      H4  625   5.054   0.943   0.337  0.0987  0.6584 -0.8145
   28DG      H5  626   5.176   1.077   0.347 -1.0744 -1.7982 -1.4439
   28DG      H6  627   5.366   0.460   0.833  0.2964 -0.0771 -0.1600
   28DG      H7  628   5.413   0.509   0.993 -0.4132  1.0354 -1.0686
   28DG      H8  629   5.256   0.544   0.946 -1.5505  0.5969  0.7391
   28DG      O9  630   5.061   1.044   0.517 -0.0325  0.0234  0.6114
   28DG     O10  631   5.405   0.668   0.869  0.2784 -0.1521  0.0375
   28DG     C11  632   5.152   0.949   0.581  0.6038  0.0400  0.1165
   28DG     C12  633   5.380   0.772   0.960 -0.0296 -0.5751 -0.6745
   28DG     H13  634   5.256   0.972   0.550  0.8844 -1.4639 -1.4504
   28DG     H14  635   5.134   0.847   0.550  1.9998 -0.4029 -0.2089
   28DG     H15  636   5.455   0.858   0.947 -0.4374  0.6153  1.0937
   28DG     H16  637   5.370   0.744   1.068 -0.8328 -3.3821 -0.8578
   28DG     C17  638   5.139   0.949   0.733 -0.2529 -0.4896 -0.4691
   28DG     C18  639   5.248   0.839   0.918 -0.0460 -0.0426 -0.0319
   28DG     O19  640   5.237   0.853   0.778 -0.6639  0.0527 -0.9810
   28DG     H20  641   5.036   0.927   0.765 -1.0319 -1.0134  1.6822
   28DG     H21  642   5.175   1.045   0.773 -0.7559  1.5604  0.7291
   28DG     H22  643   5.163   0.780   0.950  1.7013 -2.1229  1.9667
   28DG     H23  644   5.234   0.941   0.961 -1.4015  0.9573 -1.3789
   29DG      C1  645   4.514   2.513   5.198 -0.0811  0.6210 -0.6158
   29DG      C2  646   5.110   2.158   5.130 -0.2099  0.0932 -0.1994
   29DG      H3  647   4.455   2.468   5.270  1.8865  0.8225 -1.7536
   29DG      H4  648   4.501   2.471   5.102  1.6717  0.0004  2.4975
   29DG      H5  649   4.494   2.622   5.192 -1.4071 -0.3342  1.4638
   29DG      H6  650   5.068   2.121   5.038  0.8374  2.6556 -0.0919
   29DG      H7  651   5.217   2.181   5.120 -1.5996  1.1813  2.9425
   29DG      H8  652   5.111   2.068   5.191  0.1813 -2.0618 -1.0308
   29DG      O9  653   4.650   2.494   5.230 -0.1567  0.8190  0.0292
   29DG     O10  654   5.038   2.270   5.175  0.1418 -0.5841 -0.1917
   29DG     C11  655   4.675   2.499   5.370 -0.5608 -0.6387  0.0464
   29DG     C12  656   5.100   2.317   5.293 -0.4701 -0.5183  0.2585
   29DG     H13  657   4.665   2.401   5.429 -0.4068  0.2948  0.8182
   29DG     H14  658   4.606   2.576   5.412 -0.7756  0.5925 -0.4689
   29DG     H15  659   5.207   2.344   5.283  1.8279 -2.4254  2.4561
   29DG     H16  660   5.088   2.240   5.373  2.0529 -0.2698 -1.1789
   29DG     C17  661   4.820   2.534   5.393 -0.0122  0.1984  0.2121
   29DG     C18  662   5.037   2.446   5.345 -0.1633  0.2036  0.8195
   29DG     O19  663   4.900   2.419   5.350  0.3026  0.0259  0.2065
   29DG     H20  664   4.847   2.578   5.490 -1.1431  0.1845  1.2017
   29DG     H21  665   4.833   2.619   5.329 -0.9287  2.2465  0.6931
   29DG     H22  666   5.084   2.454   5.444 -0.4634 -3.0612  0.3739
   29DG     H23  667   5.053   2.533   5.287 -4.5448 -0.5150  0.3444
   30DG      C1  668   2.616   0.228   1.238 -0.8816 -0.0845  0.3925
   30DG      C2  669   2.698  -0.012   0.428 -0.5296  0.1867 -0.0167
   30DG      H3  670   2.665   0.310   1.286  3.2973 -2.9251  1.2067
   30DG      H4  671   2.584   0.147   1.308 -0.9457 -0.3005  0.8906
   30DG      H5  672   2.535   0.273   1.190 -0.6369  0.4942  0.8037
   30DG      H6  673   2.723  -0.119   0.424  1.9529 -2.9604 -1.0259
   30DG      H7  674   2.638   0.027   0.347  2.5990  0.0004  0.4857
   30DG      H8  675   2.798   0.031   0.402  1.8740  2.6040  0.8173
   30DG      O9  676   2.714   0.176   1.151 -0.6958 -1.0069  0.3873
   30DG     O10  677   2.645   0.032   0.551 -0.5084 -0.5926  0.0673
   30DG     C11  678   2.679   0.048   1.103 -0.2024 -0.4587 -0.0975
   30DG     C12  679   2.741   0.036   0.654 -0.1208 -0.4489 -0.4168
   30DG     H13  680   2.575   0.058   1.068  0.5196  1.9768 -2.3494
   30DG     H14  681   2.665  -0.022   1.189  0.2579  1.8427 -0.0113
   30DG     H15  682   2.816   0.107   0.654 -0.0974 -1.0546 -1.9646
   30DG     H16  683   2.788  -0.062   0.661 -0.5413  0.6070 -0.4391
   30DG     C17  684   2.783   0.004   0.998  0.7578  0.0794  0.0202
   30DG     C18  685   2.672   0.054   0.798 -0.2547 -0.3358  0.1353
   30DG     O19  686   2.775   0.090   0.885  0.3478 -0.0206 -0.2329
   30DG     H20  687   2.784  -0.101   0.977 -4.2120 -1.6430 -0.5956
   30DG     H21  688   2.883   0.011   1.028 -0.1694  0.2598 -2.8641
   30DG     H22  689   2.605   0.139   0.796  0.8805 -1.7304  1.1218
   30DG     H23  690   2.604  -0.027   0.823 -0.0626  1.4506 -1.1755
   31DG      C1  691   3.713   4.208   0.083  0.0262  0.6187 -0.2699
   31DG      C2  692   3.130   4.649  -0.187 -0.0875 -0.2168 -0.4254
   31DG      H3  693   3.704   4.299   0.145  0.4428  0.9908 -0.9927
   31DG      H4  694   3.823   4.194   0.066  1.7574 -0.1167  2.2978
   31DG      H5  695   3.682   4.122   0.150 -0.3357 -0.2356 -0.7045
   31DG      H6  696   3.049   4.584  -0.159  0.8887 -2.0825  0.1782
   31DG      H7  697   3.142   4.725  -0.111 -1.1880  0.5208  0.8853
   31DG      H8  698   3.098   4.685  -0.282 -0.6158 -0.7211  3.5528
   31DG      O9  699   3.640   4.222  -0.036  0.1067  0.5205  0.3654
   31DG     O10  700   3.255   4.578  -0.195  0.3041  0.2267  0.1141
   31DG     C11  701   3.683   4.334  -0.107 -0.2607 -0.0375 -0.0881
   31DG     C12  702   3.266   4.482  -0.296 -0.3983 -0.1042  0.3839
   31DG     H13  703   3.780   4.307  -0.142 -2.2162  0.3292  0.2732
   31DG     H14  704   3.701   4.420  -0.041  0.0010 -2.0048  0.3945
   31DG     H15  705   3.231   4.529  -0.389 -2.5439  2.2578 -1.7653
   31DG     H16  706   3.210   4.395  -0.266  1.0763  0.9605 -0.0589
   31DG     C17  707   3.598   4.352  -0.236 -0.2503 -0.6487 -0.2591
   31DG     C18  708   3.411   4.449  -0.332 -0.0660 -0.0479  0.5379
   31DG     O19  709   3.466   4.406  -0.211  0.0305 -0.0799  0.2813
   31DG     H20  710   3.595   4.265  -0.291 -1.4638  0.0096 -0.2535
   31DG     H21  711   3.640   4.422  -0.299 -0.1357 -1.0039  1.4677
   31DG     H22  712   3.414   4.375  -0.403  0.6007 -0.3256  1.1481
   31DG     H23  713   3.463   4.541  -0.361 -1.1945 -0.3167  1.7566
   32DG      C1  714   4.922   1.294   5.403  0.2028 -0.9898  0.2233
   32DG      C2  715   5.489   1.070   5.769 -0.3796  0.0020  0.9712
   32DG      H3  716   4.824   1.279   5.355  0.4468 -1.6072 -3.3943
   32DG      H4  717   4.993   1.322   5.322  3.1402 -1.3059  0.5225
   32DG      H5  718   4.924   1.369   5.488  0.6163 -1.1692 -1.2906
   32DG      H6  719   5.489   1.047   5.873 -0.3584  0.4778 -0.3398
   32DG      H7  720   5.573   1.137   5.746 -3.7965  2.0516  1.7592
   32DG      H8  721   5.403   1.129   5.734  0.3339  1.0228  0.8044
   32DG      O9  722   4.942   1.163   5.453 -0.0431 -0.1409 -0.2414
   32DG     O10  723   5.489   0.947   5.694  0.3044 -0.5856  0.3963
   32DG     C11  724   5.073   1.140   5.485 -0.2914  0.4841  0.8133
   32DG     C12  725   5.373   0.863   5.728  0.7288  0.2467 -0.9856
   32DG     H13  726   5.083   1.204   5.574 -3.2079 -2.0124 -2.1586
   32DG     H14  727   5.142   1.172   5.408 -3.1817 -0.0802  0.1464
   32DG     H15  728   5.318   0.912   5.808 -0.8636 -2.7398 -1.9951
   32DG     H16  729   5.411   0.766   5.750 -1.0314  1.2264  0.2369
   32DG     C17  730   5.102   0.993   5.520  0.3867 -0.1780 -0.1458
   32DG     C18  731   5.271   0.853   5.612  0.3345  0.0418 -0.2420
   32DG     O19  732   5.225   0.983   5.587  0.2928  0.0185  0.0589
   32DG     H20  733   5.094   0.931   5.422  0.7065  0.2456 -1.9642
   32DG     H21  734   5.034   0.960   5.598  1.1652  1.2703 -3.7721
   32DG     H22  735   5.326   0.811   5.527 -0.5431  1.1906 -2.5510
   32DG     H23  736   5.193   0.789   5.639  1.3068  0.8745 -2.4228
   33DG      C1  737   4.266   5.264   1.170 -0.3386  0.0655  0.7061
   33DG      C2  738   4.183   6.038   1.320 -0.1047  0.2379 -0.4976
   33DG      H3  739   4.378   5.287   1.158  1.8945 -2.6064  0.9148
   33DG      H4  740   4.250   5.202   1.083  4.0648  2.1328 -2.8922
   33DG      H5  741   4.257   5.204   1.253 -1.0675 -2.6365 -0.4867
   33DG      H6  742   4.156   6.119   1.261 -0.8824  0.0601  2.5077
   33DG      H7  743   4.111   6.016   1.393 -0.0428 -0.5000 -0.9190
   33DG      H8  744   4.278   6.058   1.377  4.3397 -1.6211 -1.1567
   33DG      O9  745   4.182   5.380   1.173  0.2151 -0.3254  0.1913
   33DG     O10  746   4.187   5.926   1.237 -0.2908 -0.2605 -0.3523
   33DG     C11  747   4.191   5.454   1.300 -0.3275  0.0700 -0.3381
   33DG     C12  748   4.063   5.879   1.192 -0.5990 -0.1465 -0.6998
   33DG     H13  749   4.289   5.492   1.320 -1.1677  0.6545  0.3614
   33DG     H14  750   4.146   5.397   1.384 -0.5403 -1.4257 -2.2736
   33DG     H15  751   4.022   5.961   1.127  1.0108 -0.3318 -0.4474
   33DG     H16  752   4.004   5.855   1.283 -0.1643  3.5816  0.2625
   33DG     C17  753   4.110   5.584   1.278 -0.2000 -0.3735  0.3595
   33DG     C18  754   4.078   5.755   1.107 -1.1137  1.0819  0.3135
   33DG     O19  755   4.161   5.650   1.165 -0.6296  0.1241  0.5888
   33DG     H20  756   4.121   5.647   1.362 -0.3789  1.2195  0.4329
   33DG     H21  757   4.006   5.566   1.255  1.0532  0.6620  1.3627
   33DG     H22  758   3.982   5.708   1.089 -0.2541  0.8431  0.7845
   33DG     H23  759   4.107   5.782   1.009  1.5526  1.6843 -1.4259
   34DG      C1  760   3.199   2.916   2.969 -0.0098 -0.1967  0.2444
   34DG      C2  761   3.137   3.273   3.508  0.0146  0.2191 -0.1775
   34DG      H3  762   3.154   2.896   2.873 -0.4650 -0.0758 -0.1036
   34DG      H4  763   3.246   2.825   3.006 -0.7396  0.7200 -0.1393
   34DG      H5  764   3.283   2.980   2.947 -2.5880  0.0808  1.2394
   34DG      H6  765   3.243   3.297   3.538  0.5955  0.6554 -1.9476
   34DG      H7  766   3.120   3.327   3.411  1.0480  1.4618  0.4020
   34DG      H8  767   3.079   3.324   3.589  0.1204 -1.4549  1.5187
   34DG      O9  768   3.113   2.978   3.062 -0.3068  0.6709 -1.0369
   34DG     O10  769   3.124   3.130   3.512 -0.2700 -0.2536 -0.5785
   34DG     C11  770   2.996   2.913   3.088 -0.0555 -0.3531  0.3072
   34DG     C12  771   2.994   3.086   3.499  0.0086 -0.2694 -0.6078
   34DG     H13  772   3.014   2.809   3.102  0.6932  0.1328  1.5257
   34DG     H14  773   2.926   2.930   3.001 -0.5184  0.8768  0.8346
   34DG     H15  774   2.932   3.153   3.440  4.5902  0.0760  1.3225
   34DG     H16  775   2.946   3.098   3.595 -2.0156 -1.6658 -3.0368
   34DG     C17  776   2.934   2.964   3.220 -0.1924  0.4662 -0.3026
   34DG     C18  777   2.987   2.940   3.448 -0.4968 -0.3948 -0.5165
   34DG     O19  778   3.035   2.931   3.322 -0.0420  0.2078  0.4797
   34DG     H20  779   2.842   2.902   3.232 -3.3366 -2.3682  0.2185
   34DG     H21  780   2.901   3.067   3.212  0.6786  0.9933 -3.0618
   34DG     H22  781   3.048   2.874   3.510 -0.2479 -0.7101  2.9130
   34DG     H23  782   2.886   2.896   3.458 -0.9856 -1.6836 -1.6074
   35DG      C1  783   2.462   1.819   0.095  0.3936  0.2423 -0.7054
   35DG      C2  784   2.380   2.049  -0.366 -0.0656  0.5573 -0.0921
   35DG      H3  785   2.419   1.829  -0.005  0.3147  1.9453  1.1732
   35DG      H4  786   2.543   1.889   0.109 -0.7955  0.3795  2.5476
   35DG      H5  787   2.384   1.835   0.170  2.6642 -0.0279  1.3572
   35DG      H6  788   2.313   2.106  -0.298  1.9539 -0.5076  0.4588
   35DG      H7  789   2.476   2.104  -0.378 -0.7935  1.6939  0.2315
   35DG      H8  790   2.336   2.051  -0.467 -0.8195 -0.2349  1.3954
   35DG      O9  791   2.508   1.691   0.135 -0.1750  0.2457 -0.7388
   35DG     O10  792   2.399   1.931  -0.295  0.5194 -0.0821 -0.2937
   35DG     C11  793   2.618   1.638   0.054  0.2879 -0.0820  0.2115
   35DG     C12  794   2.490   1.844  -0.361  0.2304 -0.4214 -0.6695
   35DG     H13  795   2.637   1.543   0.094 -2.9567  0.2929 -0.3500
   35DG     H14  796   2.707   1.699   0.068  2.1386  0.4585 -0.3801
   35DG     H15  797   2.591   1.888  -0.367 -0.2236  3.2534 -3.2339
   35DG     H16  798   2.458   1.829  -0.465  0.9865 -0.5615 -0.7684
   35DG     C17  799   2.583   1.606  -0.093 -0.6185  0.5531  0.1433
   35DG     C18  800   2.494   1.709  -0.288  0.2320  0.3850  0.1261
   35DG     O19  801   2.559   1.732  -0.166  0.3509  0.3021  0.0869
   35DG     H20  802   2.492   1.542  -0.092  2.0112 -1.0686 -2.2454
   35DG     H21  803   2.658   1.549  -0.135 -1.8064  2.8517  2.5208
   35DG     H22  804   2.401   1.662  -0.258 -3.5735  0.4333 -3.7381
   35DG     H23  805   2.560   1.639  -0.342  2.6737 -0.6984  3.9056
   36DG      C1  806   2.035   1.743   2.425 -0.4549  0.0427 -0.7610
   36DG      C2  807   2.685   1.924   2.414  0.1530  0.3095 -0.7819
   36DG      H3  808   2.065   1.762   2.526  0.2817  3.0606 -1.0534
   36DG      H4  809   2.067   1.635   2.408  1.7428 -2.8274  0.4356
   36DG      H5  810   1.929   1.748   2.409 -2.0271  1.5861 -0.3874
   36DG      H6  811   2.728   1.858   2.341 -1.2163 -1.1592 -2.2768
   36DG      H7  812   2.764   2.001   2.411  0.4735 -1.1814  2.2111
   36DG      H8  813   2.662   1.888   2.517  0.7783  0.2969  1.0973
   36DG      O9  814   2.100   1.841   2.348  0.0833 -0.1764  0.4023
   36DG     O10  815   2.564   1.980   2.360  0.3673 -0.2876  0.0227
   36DG     C11  816   2.062   1.967   2.405 -0.3702 -0.1718 -0.7453
   36DG     C12  817   2.511   2.085   2.435  0.3272  0.9755  0.1022
   36DG     H13  818   2.049   1.979   2.507 -1.7951  1.9758  0.2787
   36DG     H14  819   1.955   1.985   2.369 -1.5981 -1.2065  1.2096
   36DG     H15  820   2.584   2.163   2.440  0.5643  0.6379 -0.8254
   36DG     H16  821   2.494   2.056   2.541 -1.5616 -3.2777  1.4922
   36DG     C17  822   2.156   2.081   2.370  0.3045  0.7171 -0.1761
   36DG     C18  823   2.379   2.139   2.389  0.0644  0.4655  0.3836
   36DG     O19  824   2.286   2.037   2.398 -0.1721 -0.2222 -0.3465
   36DG     H20  825   2.123   2.174   2.425 -0.5315  0.1940  0.3596
   36DG     H21  826   2.150   2.104   2.264  0.3749 -2.3704 -0.7022
   36DG     H22  827   2.339   2.214   2.460  0.6491  1.4080  1.8734
   36DG     H23  828   2.388   2.181   2.285 -0.4462  0.5437 -0.4129
   37DG      C1  829   1.711   1.678   2.666  0.7086 -0.1777  0.3117
   37DG      C2  830   1.840   1.051   2.750 -0.3312 -0.2211 -1.0930
   37DG      H3  831   1.701   1.782   2.693  0.2043 -0.2560  1.3807
   37DG      H4  832   1.617   1.647   2.640  1.1314  2.2022  0.9447
   37DG      H5  833   1.779   1.664   2.581  1.4242 -0.4212  2.2347
   37DG      H6  834   1.897   0.969   2.788 -1.2355 -1.2018 -0.2127
   37DG      H7  835   1.731   1.022   2.754 -0.5761  1.7889 -0.9160
   37DG      H8  836   1.874   1.072   2.648  0.0907 -3.0709 -4.3999
   37DG      O9  837   1.765   1.611   2.782  0.1428  0.5201 -0.0624
   37DG     O10  838   1.865   1.172   2.823  0.4279  0.0593  0.0050
   37DG     C11  839   1.902   1.651   2.813 -0.2935 -0.4383  0.4069
   37DG     C12  840   2.008   1.205   2.813 -0.6371  0.0180  0.0514
   37DG     H13  841   1.907   1.746   2.859  3.3482 -2.1850  1.2715
   37DG     H14  842   1.956   1.656   2.722 -0.7064  0.5105  0.8552
   37DG     H15  843   2.034   1.210   2.709  0.4355 -0.2922 -1.7311
   37DG     H16  844   2.068   1.122   2.851  0.0795  2.0928 -2.4063
   37DG     C17  845   1.967   1.541   2.904  0.0261 -0.1005  0.9594
   37DG     C18  846   2.048   1.320   2.891 -0.2433  0.5706  0.6804
   37DG     O19  847   1.946   1.414   2.854 -0.1618  0.6378  0.5445
   37DG     H20  848   1.944   1.543   3.008 -0.0949 -2.7223 -0.8101
   37DG     H21  849   2.077   1.561   2.916  0.6800  0.0699  2.0974
   37DG     H22  850   2.046   1.297   3.003 -0.0219 -1.4682 -0.4977
   37DG     H23  851   2.141   1.351   2.857 -0.0326 -2.1223  2.0483
   38DG      C1  852   3.074   0.533   0.941 -0.3158  0.0957 -0.5157
   38DG      C2  853   3.304   0.519   1.642 -0.0791  0.0458 -0.5992
   38DG      H3  854   3.107   0.641   0.932 -1.4357  1.6284 -0.8258
   38DG      H4  855   2.991   0.516   0.870 -0.5725 -0.5734 -1.9009
   38DG      H5  856   3.161   0.467   0.913 -1.3020 -1.4405 -1.5468
   38DG      H6  857   3.255   0.561   1.731  1.8292  0.2695  1.4366
   38DG      H7  858   3.386   0.460   1.676 -0.7622 -2.3461 -1.0375
   38DG      H8  859   3.339   0.599   1.571 -0.2735  0.0473 -0.4470
   38DG      O9  860   3.027   0.502   1.075  0.1396 -0.3405  0.2111
   38DG     O10  861   3.207   0.430   1.589  0.4147 -0.4431 -0.3007
   38DG     C11  862   3.043   0.369   1.112  0.8274  0.8385 -0.0939
   38DG     C12  863   3.084   0.498   1.567  0.3143 -0.0538 -1.0018
   38DG     H13  864   3.144   0.330   1.097  1.2402 -1.4025  0.3468
   38DG     H14  865   2.975   0.306   1.052 -0.4409 -0.6739 -0.0040
   38DG     H15  866   3.097   0.596   1.531  2.3145  1.0482 -0.0371
   38DG     H16  867   3.035   0.495   1.663 -0.2248  1.7749  1.4651
   38DG     C17  868   2.998   0.336   1.254 -0.0346 -0.2012 -0.0204
   38DG     C18  869   2.998   0.424   1.464  0.4766  0.4711  0.5032
   38DG     O19  870   3.046   0.437   1.339 -0.1966  0.9726 -0.5959
   38DG     H20  871   3.022   0.233   1.276 -1.0014 -2.1885 -1.6236
   38DG     H21  872   2.886   0.336   1.260 -2.8069 -0.4324  0.1856
   38DG     H22  873   2.998   0.316   1.485 -2.5141  2.2590  1.8860
   38DG     H23  874   2.890   0.457   1.469 -2.3846  1.7998 -0.4559
   39DG      C1  875   1.532   1.008   1.538 -0.3461 -1.0744 -1.0899
   39DG      C2  876   1.245   1.219   2.314 -0.7105  0.3974  0.6771
   39DG      H3  877   1.606   0.940   1.569  3.4809  1.2466  0.5384
   39DG      H4  878   1.538   1.032   1.432 -1.9795 -0.9303 -0.8689
   39DG      H5  879   1.442   0.959   1.550  1.8348 -0.9240  1.3390
   39DG      H6  880   1.287   1.298   2.373 -0.9138  0.2250  0.4992
   39DG      H7  881   1.138   1.219   2.339 -2.9919 -1.2051  0.6924
   39DG      H8  882   1.283   1.124   2.349  3.5346  1.7879  1.4468
   39DG      O9  883   1.533   1.125   1.605 -0.2121  0.1094  0.7897
   39DG     O10  884   1.260   1.248   2.174  0.1264  0.4474  0.2582
   39DG     C11  885   1.520   1.107   1.746 -0.2494 -0.2148  0.3696
   39DG     C12  886   1.395   1.280   2.149  0.0021  0.5946  0.0886
   39DG     H13  887   1.613   1.087   1.789 -2.3921  1.8521 -1.0951
   39DG     H14  888   1.446   1.045   1.788 -1.0237  1.7060  0.9248
   39DG     H15  889   1.458   1.198   2.178 -0.7160  0.7141  2.2909
   39DG     H16  890   1.424   1.369   2.205  1.6108  1.1211 -0.7904
   39DG     C17  891   1.482   1.245   1.798 -0.7181  0.4065  0.0245
   39DG     C18  892   1.423   1.336   2.011  0.5309  0.7315 -0.0885
   39DG     O19  893   1.426   1.224   1.929  1.0188  0.2498  0.4278
   39DG     H20  894   1.405   1.297   1.740 -0.5267  2.6367 -1.4164
   39DG     H21  895   1.567   1.320   1.806  1.4425 -0.2318 -3.3459
   39DG     H22  896   1.346   1.404   1.976 -1.4228 -0.9117 -1.2034
   39DG     H23  897   1.520   1.375   2.022 -1.3262  1.5124  2.1796
   40DG      C1  898   5.411   4.995   4.578  0.1115  0.0708  0.1796
   40DG      C2  899   5.570   4.841   5.167 -0.2743 -0.3403 -0.0448
   40DG      H3  900   5.372   5.095   4.561  1.5122 -1.8031  1.5891
   40DG      H4  901   5.377   4.938   4.497  0.8751  0.8645 -1.0921
   40DG      H5  902   5.516   5.011   4.580 -2.9070  0.1373 -1.0744
   40DG      H6  903   5.545   4.830   5.273  1.9403  2.1699  0.8197
   40DG      H7  904   5.645   4.769   5.137  0.6103  0.6976 -1.2175
   40DG      H8  905   5.622   4.938   5.150 -0.0014 -0.5828 -1.6063
   40DG      O9  906   5.371   4.953   4.709  0.0536 -0.0381  0.6104
   40DG     O10  907   5.457   4.826   5.077  0.5965 -0.0693 -0.3691
   40DG     C11  908   5.239   4.900   4.703 -0.0491 -0.2752  0.3872
   40DG     C12  909   5.381   4.711   5.100 -0.5759 -0.2398  0.1564
   40DG     H13  910   5.217   4.810   4.645  0.6396 -0.7946  0.1373
   40DG     H14  911   5.168   4.975   4.668  1.3624  1.0669 -3.0057
   40DG     H15  912   5.373   4.684   5.207  1.5501 -2.1736 -0.3368
   40DG     H16  913   5.432   4.626   5.049  4.5694 -2.1133 -1.0592
   40DG     C17  914   5.200   4.879   4.854  0.4256  0.0143  0.5486
   40DG     C18  915   5.244   4.718   5.026 -0.3396  0.4131 -0.2884
   40DG     O19  916   5.264   4.748   4.889 -0.0160 -0.2536  0.2122
   40DG     H20  917   5.085   4.867   4.856 -3.8992  0.3505 -1.2867
   40DG     H21  918   5.232   4.959   4.921  1.6186 -1.4010  4.3677
   40DG     H22  919   5.182   4.630   5.051 -1.3111  3.1822 -0.6108
   40DG     H23  920   5.178   4.792   5.076  0.7662 -0.6756 -1.5466
   41DG      C1  921   2.087   0.268   5.129 -0.9341  0.1083  0.6904
   41DG      C2  922   1.467   0.441   5.263  0.1247 -0.0277 -0.1123
   41DG      H3  923   2.160   0.198   5.127  0.5429  1.1586 -0.3344
   41DG      H4  924   2.125   0.375   5.143  0.2077  0.9142 -1.0274
   41DG      H5  925   2.050   0.256   5.027 -1.1899 -1.0913  1.0396
   41DG      H6  926   1.475   0.460   5.156 -1.1789 -0.6184 -0.2135
   41DG      H7  927   1.370   0.386   5.273  2.0193  1.0439 -1.7801
   41DG      H8  928   1.444   0.538   5.311 -1.5623  1.7226  0.5317
   41DG      O9  929   1.980   0.224   5.210 -0.3830  0.2622 -0.1661
   41DG     O10  930   1.575   0.363   5.306 -0.1161  0.2272  0.1210
   41DG     C11  931   2.017   0.170   5.337  0.0748 -0.3451 -0.5613
   41DG     C12  932   1.591   0.362   5.447  0.8335 -0.1650  0.0759
   41DG     H13  933   2.089   0.242   5.384  1.4044  0.2019 -1.4850
   41DG     H14  934   2.076   0.078   5.324 -0.3487  0.6803 -4.0083
   41DG     H15  935   1.499   0.348   5.500  2.6767 -2.2996  1.8529
   41DG     H16  936   1.622   0.461   5.486  1.6527  2.8410  1.4289
   41DG     C17  937   1.904   0.155   5.435  0.3857 -1.2281 -0.7369
   41DG     C18  938   1.690   0.244   5.484  0.4939  0.2393  0.4167
   41DG     O19  939   1.810   0.259   5.418 -0.0089 -0.1979  0.1562
   41DG     H20  940   1.951   0.186   5.529 -3.1249 -1.4947 -0.3189
   41DG     H21  941   1.865   0.056   5.433  0.8134 -2.3616  2.6300
   41DG     H22  942   1.710   0.243   5.590  3.4809 -0.8617 -0.9316
   41DG     H23  943   1.644   0.145   5.471 -1.3442 -0.1990  0.6147
   42DG      C1  944   1.931   0.448   3.713  0.3823 -0.1229 -0.6191
   42DG      C2  945   1.649   0.206   4.193  0.2414 -0.8492  0.3268
   42DG      H3  946   1.873   0.517   3.648  1.9570 -0.2765 -1.8388
   42DG      H4  947   1.992   0.511   3.783 -2.4223  0.2073 -0.9916
   42DG      H5  948   1.846   0.412   3.775  1.5879  0.4719 -0.2437
   42DG      H6  949   1.724   0.229   4.268  1.7684 -1.4688  0.0736
   42DG      H7  950   1.565   0.278   4.188 -0.3081 -1.0752  2.6408
   42DG      H8  951   1.597   0.118   4.221 -0.1422 -0.8193  0.9441
   42DG      O9  952   1.999   0.347   3.642 -0.5669 -0.1396  0.6760
   42DG     O10  953   1.702   0.187   4.062  0.5494 -0.0564 -0.0099
   42DG     C11  954   2.062   0.231   3.711  0.7571  0.2407  0.9420
   42DG     C12  955   1.781   0.071   4.046 -0.3090  0.3568 -0.3733
   42DG     H13  956   2.109   0.264   3.806 -0.2941 -2.2348  2.0837
   42DG     H14  957   2.140   0.190   3.645  0.6699 -0.7852 -1.0736
   42DG     H15  958   1.730  -0.016   4.093  1.9911 -1.8128 -0.0435
   42DG     H16  959   1.882   0.068   4.094 -0.3681  1.4684  0.1115
   42DG     C17  960   1.956   0.128   3.728 -0.0788 -0.3945 -0.5664
   42DG     C18  961   1.806   0.050   3.894 -0.3532 -0.3495 -0.1332
   42DG     O19  962   1.893   0.156   3.853  0.9422 -0.2193  0.0963
   42DG     H20  963   2.007   0.036   3.741 -1.4094  2.3108 -0.9446
   42DG     H21  964   1.893   0.123   3.641 -0.0985  1.5712  1.5440
   42DG     H22  965   1.851  -0.046   3.883 -2.1674 -1.6953 -1.1791
   42DG     H23  966   1.712   0.045   3.838 -0.4640 -0.0491 -0.8608
   43DG      C1  967   1.433   5.033   4.164 -0.9770  0.2218  0.7253
   43DG      C2  968   1.600   4.346   4.458  0.5703 -0.7495 -0.8126
   43DG      H3  969   1.493   5.060   4.253 -2.4382  1.4652  0.1609
   43DG      H4  970   1.336   5.063   4.179  1.9320 -1.2685 -1.6668
   43DG      H5  971   1.454   5.088   4.078 -1.1635  1.3981  0.6680
   43DG      H6  972   1.683   4.406   4.428  0.6934  2.6162 -0.6006
   43DG      H7  973   1.607   4.334   4.569 -0.7755 -0.4908  1.4599
   43DG      H8  974   1.590   4.245   4.412  0.4721 -0.9426  2.4037
   43DG      O9  975   1.434   4.893   4.143  0.1181  0.0839  0.3647
   43DG     O10  976   1.489   4.420   4.420  0.4583  0.0760  0.4984
   43DG     C11  977   1.569   4.836   4.138 -0.0020  0.1645  0.4235
   43DG     C12  978   1.465   4.543   4.492  0.6604  0.6736 -0.0406
   43DG     H13  979   1.648   4.892   4.075 -0.3416  1.1385  0.1126
   43DG     H14  980   1.561   4.748   4.079  0.5820  0.8257  1.6088
   43DG     H15  981   1.474   4.524   4.600 -0.4728  0.3430  0.6797
   43DG     H16  982   1.359   4.565   4.489 -0.2926 -0.1508  1.2857
   43DG     C17  983   1.624   4.810   4.281  0.4146 -0.4209 -0.0575
   43DG     C18  984   1.544   4.668   4.453 -0.3288  0.7911 -0.0536
   43DG     O19  985   1.539   4.705   4.319  0.6377 -0.1183  0.2167
   43DG     H20  986   1.607   4.894   4.345  1.2329  0.6614 -1.9712
   43DG     H21  987   1.729   4.793   4.286 -0.7699  1.5449  2.7158
   43DG     H22  988   1.514   4.747   4.528 -1.1070  1.4633  0.7814
   43DG     H23  989   1.651   4.657   4.464  1.4888 -1.8282 -1.7754
   44DG      C1  990   3.675   1.871   1.976  0.6915  0.8763  0.2318
   44DG      C2  991   3.218   1.358   2.241  0.4867 -0.0216  0.1260
   44DG      H3  992   3.655   1.978   1.977 -0.3058  2.0442  0.1379
   44DG      H4  993   3.681   1.834   1.873 -0.1027 -0.2518 -1.6235
   44DG      H5  994   3.766   1.848   2.034  0.1953  2.0051  0.5650
   44DG      H6  995   3.215   1.433   2.165 -0.4853  0.7447 -0.0585
   44DG      H7  996   3.246   1.259   2.208  0.9587  0.5633 -0.8510
   44DG      H8  997   3.122   1.349   2.295  0.3793 -2.2886  0.2102
   44DG      O9  998   3.569   1.800   2.048  0.7473 -0.2236 -0.3210
   44DG     O10  999   3.312   1.410   2.331 -0.4917 -0.0759  0.3629
   44DG     C11 1000   3.441   1.808   1.985  0.6549 -0.4543 -0.0894
   44DG     C12 1001   3.440   1.444   2.277 -0.3200  0.0511 -0.2604
   44DG     H13 1002   3.449   1.768   1.885  1.1512  0.4625  0.2780
   44DG     H14 1003   3.407   1.914   1.971 -1.4406  1.0295 -2.6060
   44DG     H15 1004   3.468   1.380   2.192 -0.3379 -0.4928 -0.6033
   44DG     H16 1005   3.515   1.426   2.346 -2.4570 -0.3457 -1.8624
   44DG     C17 1006   3.345   1.748   2.075 -0.0711  0.8203 -0.3288
   44DG     C18 1007   3.446   1.595   2.235  0.2337 -0.2565  0.7311
   44DG     O19 1008   3.386   1.618   2.107  0.1495  0.1820 -0.5564
   44DG     H20 1009   3.246   1.732   2.018  0.3139 -1.7178 -0.2365
   44DG     H21 1010   3.319   1.810   2.153  0.6160  0.5301 -2.1545
   44DG     H22 1011   3.383   1.651   2.304 -1.8269  0.4298 -0.0725
   44DG     H23 1012   3.546   1.633   2.236 -0.2076  1.8893 -0.4687
   45DG      C1 1013   0.786   2.618   1.210 -0.2203 -0.0406  0.3439
   45DG      C2 1014   1.455   2.394   1.358 -0.6783  0.5140  0.1629
   45DG      H3 1015   0.777   2.507   1.223 -0.8934  2.7708  1.4900
   45DG      H4 1016   0.774   2.626   1.102 -1.8841  2.0551  1.7123
   45DG      H5 1017   0.703   2.662   1.257 -1.3739  0.4259  1.5480
   45DG      H6 1018   1.415   2.306   1.395 -0.0215  0.3810  0.2041
   45DG      H7 1019   1.473   2.380   1.253  0.1331  0.2704 -2.6813
   45DG      H8 1020   1.558   2.418   1.409  1.7145 -2.3298  1.6863
   45DG      O9 1021   0.899   2.662   1.284  0.5199 -0.1074 -0.1828
   45DG     O10 1022   1.358   2.493   1.369 -0.3405 -0.7578 -0.3851
   45DG     C11 1023   1.022   2.636   1.219  0.1411  0.3615  0.1572
   45DG     C12 1024   1.340   2.536   1.501  0.3240  0.1901  0.3339
   45DG     H13 1025   1.038   2.685   1.122 -1.0764  1.1381 -0.9649
   45DG     H14 1026   1.024   2.529   1.193 -0.3786  3.8369 -0.2575
   45DG     H15 1027   1.437   2.560   1.550  0.1695  1.0872  1.0791
   45DG     H16 1028   1.306   2.452   1.555  1.2682  2.3057  0.2757
   45DG     C17 1029   1.133   2.666   1.315  0.0620 -0.3099  0.2043
   45DG     C18 1030   1.218   2.631   1.531  0.2821  0.1233 -0.0598
   45DG     O19 1031   1.113   2.613   1.440  0.6703 -0.6650 -0.0787
   45DG     H20 1032   1.134   2.767   1.335 -3.7451 -2.1401  1.3595
   45DG     H21 1033   1.223   2.653   1.264 -0.4841  1.9028  0.4611
   45DG     H22 1034   1.185   2.613   1.628  1.8935 -1.8610 -2.1228
   45DG     H23 1035   1.248   2.728   1.521  0.1328 -4.2004  1.7236
   46DG      C1 1036   2.303   2.744   2.923  0.1025 -0.5795 -0.9024
   46DG      C2 1037   2.277   3.115   2.312  0.1049  1.0610 -0.7743
   46DG      H3 1038   2.308   2.802   3.008  1.4246 -0.6955  0.1654
   46DG      H4 1039   2.406   2.759   2.883  2.8618 -1.3587 -2.7897
   46DG      H5 1040   2.293   2.642   2.969 -1.9283 -0.7109  1.5034
   46DG      H6 1041   2.195   3.106   2.241  1.2291  2.1353 -0.6231
   46DG      H7 1042   2.282   3.221   2.340  0.8520  3.1406  1.3522
   46DG      H8 1043   2.371   3.095   2.259  3.1287  0.0657 -0.0225
   46DG      O9 1044   2.197   2.800   2.845  0.6277  0.1850 -0.1457
   46DG     O10 1045   2.276   3.030   2.427  0.2060 -0.0289  0.3359
   46DG     C11 1046   2.154   2.711   2.741 -0.2990  0.0681 -0.1515
   46DG     C12 1047   2.202   3.095   2.532  0.0084 -0.1291  0.8612
   46DG     H13 1048   2.117   2.627   2.789 -1.5116  3.0049  1.7542
   46DG     H14 1049   2.252   2.688   2.688  0.2093  2.0464 -3.9864
   46DG     H15 1050   2.106   3.131   2.493  0.1723 -1.8137  0.3884
   46DG     H16 1051   2.252   3.176   2.585  0.4502 -3.1130  1.7223
   46DG     C17 1052   2.059   2.765   2.636 -0.1307 -0.6160  0.2899
   46DG     C18 1053   2.143   2.994   2.626 -0.6659 -0.3300  0.0077
   46DG     O19 1054   2.111   2.871   2.562  0.1269  0.1331 -0.4081
   46DG     H20 1055   1.973   2.809   2.689  0.6449  0.9595  0.5297
   46DG     H21 1056   2.027   2.696   2.571  1.9263  0.4445  2.8951
   46DG     H22 1057   2.217   2.965   2.692 -2.7150 -1.8322 -0.0653
   46DG     H23 1058   2.051   3.022   2.681 -0.2902  1.4632 -1.0620
   47DG      C1 1059   4.322   4.962   2.192 -1.1019 -0.2090  0.2631
   47DG      C2 1060   5.133   4.766   2.247  0.0998  0.2902 -0.0083
   47DG      H3 1061   4.213   4.939   2.221 -0.6932 -1.2881 -1.2947
   47DG      H4 1062   4.359   4.881   2.135 -2.3397  0.4870  0.9743
   47DG      H5 1063   4.330   5.049   2.125 -1.9282  3.4149 -0.0762
   47DG      H6 1064   5.210   4.805   2.316 -1.3728  0.6240  3.3337
   47DG      H7 1065   5.142   4.659   2.268  0.7119  1.5543 -2.5671
   47DG      H8 1066   5.160   4.774   2.145  0.8033 -1.4518  2.3260
   47DG      O9 1067   4.382   4.993   2.313  0.2523  0.0926  0.3369
   47DG     O10 1068   4.994   4.809   2.283  0.4987  0.0781  0.3351
   47DG     C11 1069   4.523   4.996   2.314  0.7163  0.0116  0.2487
   47DG     C12 1070   4.940   4.771   2.408 -0.0388 -0.2948 -0.1985
   47DG     H13 1071   4.562   5.050   2.403 -0.7445 -0.7713 -2.3217
   47DG     H14 1072   4.554   5.059   2.229  1.3043  2.1495 -1.1262
   47DG     H15 1073   4.954   4.840   2.488 -0.8056  0.0438 -1.4063
   47DG     H16 1074   4.991   4.682   2.445  1.7033  0.2133  1.9855
   47DG     C17 1075   4.600   4.865   2.296 -0.3381 -0.4129  0.1452
   47DG     C18 1076   4.790   4.755   2.387 -0.3485  0.0409 -0.2757
   47DG     O19 1077   4.732   4.880   2.353 -0.4095 -0.3607  0.1909
   47DG     H20 1078   4.593   4.825   2.193 -0.0771 -0.1679  0.1251
   47DG     H21 1079   4.543   4.791   2.361  1.3310 -0.8313 -0.2507
   47DG     H22 1080   4.764   4.675   2.318  0.3636  0.3367 -0.6389
   47DG     H23 1081   4.748   4.742   2.488 -1.5651 -0.1598 -2.1458
   48DG      C1 1082   2.692   3.185   0.415  0.5677  1.3521  0.5252
   48DG      C2 1083   2.332   3.770   0.367 -0.6839  0.5865 -0.4585
   48DG      H3 1084   2.792   3.206   0.372 -1.5471  1.3346  0.2876
   48DG      H4 1085   2.631   3.175   0.326  1.4569 -0.9345  1.4440
   48DG      H5 1086   2.702   3.094   0.474  0.0909 -0.3788  2.1503
   48DG      H6 1087   2.286   3.697   0.294  0.5270  0.1699  0.9426
   48DG      H7 1088   2.237   3.784   0.416  0.8636  1.4071 -1.7253
   48DG      H8 1089   2.369   3.853   0.321  1.0391 -1.9735 -0.0200
   48DG      O9 1090   2.650   3.290   0.501  0.0987 -0.0361  0.1041
   48DG     O10 1091   2.426   3.695   0.440  0.1042  0.1914 -0.1191
   48DG     C11 1092   2.748   3.333   0.596  0.0074  0.0166  0.0029
   48DG     C12 1093   2.479   3.754   0.557  0.0348 -0.6610 -0.3301
   48DG     H13 1094   2.844   3.347   0.534  1.7899  1.7705 -2.2325
   48DG     H14 1095   2.773   3.254   0.669 -0.9073  0.1437 -1.8655
   48DG     H15 1096   2.397   3.808   0.608 -0.8658 -0.6790  2.1819
   48DG     H16 1097   2.557   3.826   0.538  0.3399 -1.5330  1.3034
   48DG     C17 1098   2.695   3.453   0.676 -0.3984 -0.6902 -0.0886
   48DG     C18 1099   2.536   3.641   0.651  0.1909  0.2887  0.2554
   48DG     O19 1100   2.626   3.549   0.586 -0.0903 -0.2388 -0.2755
   48DG     H20 1101   2.781   3.501   0.727 -2.3410  1.3889 -0.1428
   48DG     H21 1102   2.629   3.418   0.757 -0.8717 -1.4574 -2.2129
   48DG     H22 1103   2.590   3.680   0.737 -1.0509 -2.0496  0.6861
   48DG     H23 1104   2.460   3.582   0.698  0.5039  1.3673 -1.1803
   49DG      C1 1105   4.142   1.197   2.993 -0.4816  0.7640 -0.4416
   49DG      C2 1106   4.305   1.915   3.174 -0.8323  0.0710 -0.8630
   49DG      H3 1107   4.061   1.125   2.976  1.1167 -0.5725 -1.1179
   49DG      H4 1108   4.183   1.176   3.093 -0.9616  1.7553  0.1036
   49DG      H5 1109   4.217   1.170   2.924  0.9537  0.4283 -0.2751
   49DG      H6 1110   4.311   1.931   3.281 -1.7199 -0.7780 -0.5027
   49DG      H7 1111   4.378   1.834   3.155  3.4224 -1.4113 -1.8660
   49DG      H8 1112   4.337   2.011   3.122 -2.6395 -0.4452  1.8315
   49DG      O9 1113   4.103   1.333   2.968  0.5690  0.1839  0.3247
   49DG     O10 1114   4.177   1.875   3.137  0.0415  0.5198  0.0013
   49DG     C11 1115   4.023   1.384   3.073  0.2160  0.1088  0.7451
   49DG     C12 1116   4.161   1.835   2.998  0.2895 -0.1804  0.0278
   49DG     H13 1117   4.087   1.377   3.162  2.5239 -3.4957  1.1923
   49DG     H14 1118   3.932   1.334   3.084 -0.7118  0.9369 -1.1117
   49DG     H15 1119   4.249   1.783   2.962  3.5873  0.5133  1.1428
   49DG     H16 1120   4.153   1.922   2.937 -2.7913 -0.0270 -0.4796
   49DG     C17 1121   3.972   1.523   3.030  0.0427 -0.4440 -0.6743
   49DG     C18 1122   4.032   1.753   2.993 -0.0387  0.8125  0.3496
   49DG     O19 1123   4.074   1.620   3.002  0.3429  0.1662 -0.1150
   49DG     H20 1124   3.906   1.554   3.108 -1.4443 -1.6232  0.7760
   49DG     H21 1125   3.899   1.518   2.946  1.2811  0.2918 -0.9517
   49DG     H22 1126   3.964   1.780   3.078  1.1969  0.4132  0.4832
   49DG     H23 1127   3.977   1.757   2.902  2.8541  2.3401  1.8157
   50DG      C1 1128   0.196   3.558   2.928 -0.5057  0.3797 -0.3171
   50DG      C2 1129  -0.174   3.423   2.484  0.4083 -0.0453 -0.0438
   50DG      H3 1130   0.234   3.587   2.834 -2.3548  1.1514  3.7267
   50DG      H4 1131   0.267   3.561   3.011 -0.6575 -3.2312 -1.0485
   50DG      H5 1132   0.106   3.622   2.947  1.0184 -1.9679  0.6620
   50DG      H6 1133  -0.198   3.327   2.455  0.5640  2.4817 -0.4406
   50DG      H7 1134  -0.253   3.488   2.444  0.1886 -0.9618  0.1638
   50DG      H8 1135  -0.085   3.456   2.440  1.0505 -0.1110  1.4977
   50DG      O9 1136   0.162   3.423   2.910  0.2859 -0.3236  0.0441
   50DG     O10 1137  -0.163   3.445   2.624 -0.7451 -0.1802 -0.0607
   50DG     C11 1138   0.081   3.368   3.017 -0.1738  0.1666 -0.1639
   50DG     C12 1139  -0.273   3.398   2.703  0.8637 -0.2341 -0.5512
   50DG     H13 1140   0.114   3.399   3.116 -0.3909 -0.1812 -0.9646
   50DG     H14 1141   0.085   3.257   3.016 -1.9489  0.1148 -0.8344
   50DG     H15 1142  -0.281   3.296   2.677 -1.2355 -0.6425 -3.4341
   50DG     H16 1143  -0.365   3.439   2.669 -0.4331 -2.2433 -0.5534
   50DG     C17 1144  -0.063   3.414   3.008 -0.3859  0.6137  0.2048
   50DG     C18 1145  -0.241   3.415   2.853 -0.1869 -0.3575  0.0613
   50DG     O19 1146  -0.112   3.372   2.882 -0.5809 -0.1583 -0.4646
   50DG     H20 1147  -0.062   3.517   3.024 -4.2675  0.6497 -2.4606
   50DG     H21 1148  -0.107   3.367   3.099 -1.7913 -0.0040 -1.0458
   50DG     H22 1149  -0.252   3.520   2.873 -0.6643  1.1153  4.2237
   50DG     H23 1150  -0.318   3.370   2.919 -1.6196  2.5234 -1.5944
   51DG      C1 1151   5.427   2.261   3.963  0.3954  0.1366  0.0225
   51DG      C2 1152   4.876   2.173   4.528  0.2940 -0.0027 -0.3075
   51DG      H3 1153   5.350   2.310   3.906 -0.8084 -2.2632  1.0225
   51DG      H4 1154   5.511   2.241   3.897 -1.3379 -2.9141  1.3754
   51DG      H5 1155   5.464   2.324   4.043  0.5089  0.5494  0.4948
   51DG      H6 1156   4.838   2.103   4.609 -0.7475  0.8755  2.8239
   51DG      H7 1157   4.939   2.255   4.561  2.1724 -1.4076 -1.9957
   51DG      H8 1158   4.777   2.209   4.499  1.8921 -0.7189  2.3819
   51DG      O9 1159   5.392   2.135   4.009  0.0434  0.0584  0.2426
   51DG     O10 1160   4.947   2.105   4.422  0.2524 -0.2679 -0.2460
   51DG     C11 1161   5.284   2.158   4.106 -0.1730  0.2534 -0.9517
   51DG     C12 1162   5.043   2.016   4.474 -0.0187 -0.6634  0.2884
   51DG     H13 1163   5.204   2.229   4.077  0.6623  2.1385 -0.2333
   51DG     H14 1164   5.321   2.217   4.197 -4.2412  0.5970  1.7206
   51DG     H15 1165   4.995   1.935   4.531  2.0790  2.2301  1.6357
   51DG     H16 1166   5.121   2.062   4.536  0.9596  0.3373  2.0560
   51DG     C17 1167   5.229   2.026   4.152  0.8727 -1.2149 -0.0835
   51DG     C18 1168   5.117   1.945   4.352 -0.9800  0.1873  0.0953
   51DG     O19 1169   5.142   2.052   4.262  0.2247 -0.0142  0.0143
   51DG     H20 1170   5.305   1.962   4.179 -0.1911  3.2383 -1.0478
   51DG     H21 1171   5.174   1.967   4.080  0.5277 -1.7625 -1.5316
   51DG     H22 1172   5.201   1.881   4.381  5.0908 -0.4265  0.7294
   51DG     H23 1173   5.053   1.875   4.299 -1.3262 -0.9209 -2.2631
   52DG      C1 1174   0.297   4.101   3.473 -0.1697 -0.1369 -0.0569
   52DG      C2 1175   0.517   3.500   3.312  0.4569 -0.6880  0.8878
   52DG      H3 1176   0.245   4.035   3.410  2.3150 -1.2854 -1.7337
   52DG      H4 1177   0.371   4.152   3.405 -2.0410  1.3950  0.0176
   52DG      H5 1178   0.231   4.182   3.519  5.0553 -2.6456  0.9350
   52DG      H6 1179   0.620   3.495   3.292 -1.7702 -0.4650 -0.2982
   52DG      H7 1180   0.479   3.397   3.323  1.1436  1.2141  1.5099
   52DG      H8 1181   0.463   3.540   3.228 -0.7362  0.4543  0.2173
   52DG      O9 1182   0.367   4.032   3.574  0.6861 -0.4544 -0.5305
   52DG     O10 1183   0.482   3.572   3.436  0.4416 -0.6208  0.0010
   52DG     C11 1184   0.288   3.954   3.661  0.5145  0.3706  0.1440
   52DG     C12 1185   0.580   3.578   3.540 -0.0884  0.5111  0.0191
   52DG     H13 1186   0.200   3.905   3.616 -2.2517 -1.5824  0.1077
   52DG     H14 1187   0.263   4.014   3.748 -0.6687 -1.9633  1.3632
   52DG     H15 1188   0.679   3.629   3.507 -0.0748  1.0255  1.4551
   52DG     H16 1189   0.601   3.476   3.567  0.8928 -1.6283  1.2794
   52DG     C17 1190   0.386   3.849   3.715  0.4166 -0.0862  0.9240
   52DG     C18 1191   0.523   3.656   3.663  1.4499  0.1762  0.3033
   52DG     O19 1192   0.466   3.779   3.620  0.2024 -0.4095  0.0236
   52DG     H20 1193   0.342   3.788   3.789  1.7859 -1.4865 -0.7731
   52DG     H21 1194   0.453   3.909   3.777  0.7593 -0.4826 -1.7120
   52DG     H22 1195   0.441   3.596   3.709 -1.5598 -0.0055  3.2271
   52DG     H23 1196   0.602   3.666   3.747 -0.8917 -1.4630  3.6715
   53DG      C1 1197   4.819   1.086   5.122 -0.0438  0.4880  0.3914
   53DG      C2 1198   5.037   0.676   4.681  0.4301  0.2733 -0.1131
   53DG      H3 1199   4.800   1.187   5.141  0.1512  1.0343 -1.8806
   53DG      H4 1200   4.837   1.035   5.222  0.1368  1.1860  1.0081
   53DG      H5 1201   4.726   1.038   5.087 -2.0076  2.7969  1.5278
   53DG      H6 1202   5.085   0.614   4.753 -0.8918  0.0623 -1.9686
   53DG      H7 1203   4.930   0.669   4.693  2.0315 -3.1761  2.6895
   53DG      H8 1204   5.049   0.632   4.584 -1.3691 -2.6339 -3.0912
   53DG      O9 1205   4.921   1.066   5.028 -0.3710  0.4335 -0.4662
   53DG     O10 1206   5.081   0.807   4.709  0.1952  0.1868 -0.1960
   53DG     C11 1207   5.055   1.098   5.080 -0.0246  0.5197  0.4680
   53DG     C12 1208   5.221   0.828   4.722  0.1519  0.4552  0.3135
   53DG     H13 1209   5.081   1.028   5.156 -0.0808 -1.3785 -1.1016
   53DG     H14 1210   5.058   1.195   5.131  1.5824  0.3154 -0.8375
   53DG     H15 1211   5.261   0.820   4.624 -2.7002 -2.2312  0.6041
   53DG     H16 1212   5.262   0.744   4.782  0.5327  0.0872  1.4774
   53DG     C17 1213   5.162   1.090   4.968 -0.1929  0.2254  0.0764
   53DG     C18 1214   5.252   0.963   4.794  0.0055 -0.5167 -0.0552
   53DG     O19 1215   5.161   0.962   4.902  0.1893  0.8638 -0.1863
   53DG     H20 1216   5.258   1.118   5.012  0.1974  0.2540  0.0460
   53DG     H21 1217   5.135   1.172   4.897 -1.5134  1.6450 -0.0893
   53DG     H22 1218   5.348   0.970   4.845  1.3448 -2.5105  3.7186
   53DG     H23 1219   5.229   1.045   4.724 -1.0316 -0.1400  1.4177
   54DG      C1 1220   1.093   2.048   2.425  0.4776 -0.7460 -0.3312
   54DG      C2 1221   0.783   1.690   1.978 -0.1293 -0.5123 -0.3361
   54DG      H3 1222   1.165   1.965   2.424  0.1594 -1.0664 -1.0295
   54DG      H4 1223   1.064   2.060   2.533 -0.1957 -0.2571  2.4329
   54DG      H5 1224   1.143   2.134   2.391 -0.2453  0.0232  1.0190
   54DG      H6 1225   0.794   1.795   1.947  2.4016  1.9733  3.4560
   54DG      H7 1226   0.868   1.631   1.935 -0.6013 -2.3264  0.1106
   54DG      H8 1227   0.690   1.647   1.942 -0.8978  0.9077  0.3855
   54DG      O9 1228   0.985   2.029   2.339 -0.4103  1.2770  0.0045
   54DG     O10 1229   0.797   1.682   2.118  0.0224 -0.5052  0.1468
   54DG     C11 1230   0.871   2.117   2.358 -0.1743  0.2318 -0.1607
   54DG     C12 1231   0.675   1.711   2.190 -0.6437 -0.6937  0.4898
   54DG     H13 1232   0.893   2.226   2.335  2.2486 -2.1217  1.0914
   54DG     H14 1233   0.855   2.112   2.467  0.0108  1.8918 -0.4452
   54DG     H15 1234   0.696   1.674   2.290 -0.4687  1.4269  3.5263
   54DG     H16 1235   0.588   1.645   2.158 -1.5395 -1.2287 -1.3153
   54DG     C17 1236   0.752   2.059   2.284  0.4460 -0.2652  1.0607
   54DG     C18 1237   0.645   1.865   2.206 -0.4061 -0.1832  0.3189
   54DG     O19 1238   0.761   1.919   2.268  0.0735 -0.0348  0.4184
   54DG     H20 1239   0.758   2.096   2.175 -0.6877 -0.8318 -0.0335
   54DG     H21 1240   0.662   2.097   2.337  0.2184  2.6164  2.0945
   54DG     H22 1241   0.633   1.921   2.109  0.9729  0.6386 -1.3867
   54DG     H23 1242   0.557   1.878   2.257  1.9035 -0.6850 -0.9168
   55DG      C1 1243   4.127   3.215   4.760 -0.4704  0.1143  1.0353
   55DG      C2 1244   3.804   3.373   5.457  0.2482 -0.0540 -0.6536
   55DG      H3 1245   4.233   3.199   4.780  0.8917 -1.9982 -1.8463
   55DG      H4 1246   4.119   3.302   4.692  1.8742  0.8053  0.0153
   55DG      H5 1247   4.087   3.141   4.702  2.6125 -0.9807 -1.5637
   55DG      H6 1248   3.833   3.274   5.496 -0.0042 -2.3531  0.0790
   55DG      H7 1249   3.836   3.441   5.540  1.9522 -0.3516 -2.4687
   55DG      H8 1250   3.696   3.377   5.438 -2.1443  1.5062 -1.7203
   55DG      O9 1251   4.046   3.241   4.879 -0.2530  0.1213  0.2150
   55DG     O10 1252   3.872   3.410   5.339  0.5247 -0.1869 -0.0050
   55DG     C11 1253   4.087   3.355   4.959  0.4140  0.1243  0.2696
   55DG     C12 1254   3.824   3.539   5.295 -0.2384 -0.2339  0.5797
   55DG     H13 1255   4.071   3.450   4.903  1.5506  3.4480 -0.4380
   55DG     H14 1256   4.196   3.372   4.977  0.5149  0.8377 -1.4316
   55DG     H15 1257   3.862   3.612   5.367  0.5548 -1.4982  1.5674
   55DG     H16 1258   3.720   3.548   5.282 -0.7088 -0.7729  0.4445
   55DG     C17 1259   4.008   3.355   5.093  0.3315  0.2839  0.4153
   55DG     C18 1260   3.901   3.558   5.160 -1.0665 -0.6010 -0.4026
   55DG     O19 1261   3.893   3.442   5.082 -0.5562 -0.2085 -0.0449
   55DG     H20 1262   4.072   3.381   5.172 -3.4056 -1.2611  1.5368
   55DG     H21 1263   3.975   3.253   5.115  1.8029  1.4726  0.6394
   55DG     H22 1264   3.867   3.650   5.108 -2.2726  0.2856 -0.8830
   55DG     H23 1265   4.004   3.583   5.191  1.4469 -0.3013 -1.0645
   56DG      C1 1266   1.148   3.217   0.132 -0.3411  0.3812 -0.0163
   56DG      C2 1267   0.898   3.581  -0.459  0.8598 -0.6512 -0.5257
   56DG      H3 1268   1.152   3.288   0.212 -0.4483 -0.1613 -2.3578
   56DG      H4 1269   1.247   3.191   0.104 -1.4494 -2.1395 -0.3788
   56DG      H5 1270   1.096   3.137   0.182  0.0582  1.4116 -1.0425
   56DG      H6 1271   0.814   3.578  -0.389  1.1483  1.8979 -3.2449
   56DG      H7 1272   0.901   3.686  -0.495 -3.0279  1.2409  1.1515
   56DG      H8 1273   0.879   3.524  -0.547  0.8488  0.2292 -1.6390
   56DG      O9 1274   1.083   3.268   0.015  0.3439  0.2365 -0.2594
   56DG     O10 1275   1.024   3.544  -0.408  0.5124  0.3937  0.2587
   56DG     C11 1276   0.945   3.296   0.030  0.7318 -0.5211  0.6830
   56DG     C12 1277   1.041   3.600  -0.279  0.5237  0.0967  0.0375
   56DG     H13 1278   0.944   3.381   0.099 -2.2183  0.3356 -2.5861
   56DG     H14 1279   0.894   3.211   0.068  0.1284  1.1923  2.4491
   56DG     H15 1280   1.041   3.706  -0.283  1.9140  0.2680  0.3016
   56DG     H16 1281   1.146   3.583  -0.250 -0.2573 -1.1807 -1.1920
   56DG     C17 1282   0.888   3.317  -0.109  0.0885 -0.0637  0.4136
   56DG     C18 1283   0.964   3.525  -0.165  0.6535  0.5786  0.7217
   56DG     O19 1284   0.972   3.389  -0.192 -0.2915  0.5772  0.1499
   56DG     H20 1285   0.786   3.362  -0.108 -2.8253 -0.9912 -0.9615
   56DG     H21 1286   0.881   3.215  -0.146 -3.0272  0.0892  2.7062
   56DG     H22 1287   1.002   3.563  -0.071  0.2529 -2.3746 -3.5914
   56DG     H23 1288   0.855   3.551  -0.173  1.0420  2.1399  2.7483
   57DG      C1 1289   1.636   0.802   5.414  0.0478 -0.1808  0.0214
   57DG      C2 1290   1.802   1.164   4.677 -0.5190  0.1984  0.4035
   57DG      H3 1291   1.742   0.800   5.441 -0.7632 -0.1424  0.6645
   57DG      H4 1292   1.611   0.696   5.419 -0.2187  1.1008  1.8630
   57DG      H5 1293   1.579   0.853   5.496  2.4686 -0.8681  0.2995
   57DG      H6 1294   1.893   1.172   4.734  0.6796  2.4485 -0.8230
   57DG      H7 1295   1.807   1.070   4.622  2.5681 -0.7149 -0.4001
   57DG      H8 1296   1.821   1.248   4.599 -1.8696  0.2234  0.4780
   57DG      O9 1297   1.612   0.872   5.292 -0.0858 -0.4785  0.0449
   57DG     O10 1298   1.689   1.176   4.759  0.4585 -0.2050  0.2098
   57DG     C11 1299   1.473   0.892   5.251 -0.0254  0.1265 -0.1016
   57DG     C12 1300   1.691   1.067   4.852  0.2928  0.7060 -0.4900
   57DG     H13 1301   1.411   0.914   5.336 -0.2448 -1.9012 -1.5517
   57DG     H14 1302   1.432   0.802   5.206  2.1560  2.0048 -3.1978
   57DG     H15 1303   1.785   1.062   4.911 -2.4197 -0.0040 -0.9454
   57DG     H16 1304   1.666   0.974   4.805  0.8961 -0.3120  1.1344
   57DG     C17 1305   1.469   1.010   5.154  0.0829 -0.1957  0.0732
   57DG     C18 1306   1.580   1.092   4.956 -0.4132  0.0746  0.7819
   57DG     O19 1307   1.577   1.001   5.064  0.2416 -0.1898  0.2285
   57DG     H20 1308   1.480   1.098   5.217  1.9742  0.5132  1.0815
   57DG     H21 1309   1.364   1.013   5.117 -0.7628 -0.6625  0.0548
   57DG     H22 1310   1.590   1.193   4.990 -0.5724 -2.6865  0.4687
   57DG     H23 1311   1.494   1.078   4.894  0.0695 -0.6284 -2.5620
   58DG      C1 1312   1.761   3.827   4.356 -0.5438 -0.0563  0.4603
   58DG      C2 1313   1.132   3.504   4.216 -0.2111 -0.0630  0.1407
   58DG      H3 1314   1.765   3.797   4.256  0.3894  0.9426  0.4363
   58DG      H4 1315   1.864   3.793   4.387 -1.3201  0.1364 -0.9152
   58DG      H5 1316   1.747   3.932   4.358  1.5987 -2.4040  0.4003
   58DG      H6 1317   1.077   3.412   4.238 -0.8093  0.4205 -0.6698
   58DG      H7 1318   1.067   3.587   4.180  0.1316 -2.7210  0.5562
   58DG      H8 1319   1.182   3.474   4.126  1.0583  0.4983  1.6616
   58DG      O9 1320   1.657   3.749   4.403  0.0659 -0.2530 -0.2170
   58DG     O10 1321   1.226   3.558   4.312 -0.1420 -0.5230 -0.1141
   58DG     C11 1322   1.591   3.815   4.516 -0.4060  0.0446  0.9649
   58DG     C12 1323   1.168   3.604   4.430 -0.3214  0.0231  0.3619
   58DG     H13 1324   1.548   3.917   4.480  0.9080 -2.4521 -0.7708
   58DG     H14 1325   1.664   3.851   4.587  2.2661  1.2710 -3.1708
   58DG     H15 1326   1.123   3.514   4.463 -2.9520 -0.8839 -2.4281
   58DG     H16 1327   1.106   3.691   4.411  0.1038 -0.3387  1.1004
   58DG     C17 1328   1.481   3.732   4.581  0.0770 -0.2709 -0.5033
   58DG     C18 1329   1.274   3.634   4.532 -0.2851  0.0104  0.6180
   58DG     O19 1330   1.383   3.715   4.489  0.6980 -0.1462  0.4554
   58DG     H20 1331   1.429   3.789   4.664  1.6003 -3.1120  1.1529
   58DG     H21 1332   1.523   3.650   4.636  0.6277  0.0281 -0.6452
   58DG     H22 1333   1.231   3.673   4.624 -1.4108 -1.8820 -1.5919
   58DG     H23 1334   1.312   3.540   4.559  1.3806  1.9133 -2.0346
   59DG      C1 1335   3.506   0.678   2.422 -0.6762 -0.2302 -0.4857
   59DG      C2 1336   3.586   0.433   3.064  0.0032  0.3434  0.1894
   59DG      H3 1337   3.511   0.654   2.321 -1.1093 -1.5960  1.8112
   59DG      H4 1338   3.562   0.773   2.444  0.4574 -0.3178  1.0199
   59DG      H5 1339   3.399   0.697   2.442 -0.7297  1.0615  1.3491
   59DG      H6 1340   3.664   0.508   3.089  0.7953 -2.2246 -0.5543
   59DG      H7 1341   3.492   0.493   3.073 -2.5298  0.6843  1.6272
   59DG      H8 1342   3.587   0.344   3.130 -0.9944  0.8814  0.0703
   59DG      O9 1343   3.552   0.569   2.506 -0.4620 -0.3818  0.7420
   59DG     O10 1344   3.598   0.411   2.928 -0.1818 -0.5418  0.1256
   59DG     C11 1345   3.670   0.500   2.458 -0.1679  0.4389 -0.4743
   59DG     C12 1346   3.712   0.329   2.901  0.3622  0.0054 -0.6459
   59DG     H13 1347   3.769   0.562   2.478  2.1965 -1.4910  0.7901
   59DG     H14 1348   3.654   0.472   2.353 -2.9362 -1.7784  3.0461
   59DG     H15 1349   3.717   0.242   2.968  0.3746  1.2114 -1.4156
   59DG     H16 1350   3.794   0.394   2.919 -2.8311  2.8250 -0.7114
   59DG     C17 1351   3.687   0.363   2.528 -0.2748  0.0547 -0.1540
   59DG     C18 1352   3.718   0.283   2.754 -0.4490  0.0382  1.0792
   59DG     O19 1353   3.696   0.392   2.669  0.3875 -0.0306  1.2465
   59DG     H20 1354   3.782   0.313   2.491  0.1663 -0.5941  0.5657
   59DG     H21 1355   3.602   0.291   2.507 -1.2018 -0.9038  1.1327
   59DG     H22 1356   3.810   0.232   2.721 -0.7939 -0.1342  2.1068
   59DG     H23 1357   3.639   0.206   2.743  1.7587  0.6470  0.6720
   60DG      C1 1358   3.799   3.971   5.237  0.7717  0.0419  0.0022
   60DG      C2 1359   3.117   3.725   5.518  0.8858  0.8134 -0.0030
   60DG      H3 1360   3.834   3.984   5.343  0.7068 -1.8009  2.4760
   60DG      H4 1361   3.803   4.067   5.187  0.0727 -2.1767 -1.2268
   60DG      H5 1362   3.864   3.903   5.189 -0.4966  0.0206  1.2695
   60DG      H6 1363   3.167   3.763   5.610 -0.2496  1.0369  1.0051
   60DG      H7 1364   3.039   3.791   5.488 -1.1235 -1.6083  1.4499
   60DG      H8 1365   3.069   3.626   5.540 -0.8449 -0.3494  0.9898
   60DG      O9 1366   3.675   3.905   5.238 -0.3916 -0.0818 -0.1489
   60DG     O10 1367   3.201   3.698   5.419 -0.8000  0.4104 -0.3057
   60DG     C11 1368   3.578   3.962   5.325 -0.5097  0.6747  0.2146
   60DG     C12 1369   3.303   3.599   5.451 -0.2976  0.8307 -0.7933
   60DG     H13 1370   3.539   4.061   5.290 -0.1281  2.7530  1.0416
   60DG     H14 1371   3.620   3.966   5.421 -0.0032  1.2299  0.6632
   60DG     H15 1372   3.262   3.495   5.439 -0.7095  0.4186 -0.4240
   60DG     H16 1373   3.321   3.616   5.560 -1.3615  0.6912  2.5583
   60DG     C17 1374   3.459   3.861   5.333 -0.4101 -0.6129 -0.1363
   60DG     C18 1375   3.432   3.607   5.361 -1.1902 -0.0875 -1.0094
   60DG     O19 1376   3.507   3.729   5.369  0.0960  0.1952 -0.5228
   60DG     H20 1377   3.405   3.867   5.237  0.0729  1.2356 -0.4539
   60DG     H21 1378   3.392   3.900   5.407  3.9484  0.0440 -0.2899
   60DG     H22 1379   3.486   3.526   5.396 -0.8507 -3.5698  0.6221
   60DG     H23 1380   3.414   3.585   5.253  0.3196  0.5999 -0.6282
   61DG      C1 1381   4.376   4.435   5.416  0.4469 -0.1949  0.3924
   61DG      C2 1382   4.940   4.356   5.744 -0.4770  0.0568  0.0345
   61DG      H3 1383   4.274   4.426   5.408 -1.8156 -2.1567  1.1707
   61DG      H4 1384   4.428   4.390   5.337 -0.6583  3.3378  1.1131
   61DG      H5 1385   4.398   4.540   5.433 -0.1378 -0.6951 -0.0673
   61DG      H6 1386   4.955   4.461   5.747 -0.6225  0.0798  2.0873
   61DG      H7 1387   5.009   4.334   5.821 -1.4747  1.6753  3.6890
   61DG      H8 1388   4.960   4.316   5.642 -1.1743 -1.6205 -0.4162
   61DG      O9 1389   4.423   4.368   5.536  0.1061 -0.2643  0.2522
   61DG     O10 1390   4.803   4.325   5.758  0.4057 -0.2513 -0.0935
   61DG     C11 1391   4.342   4.392   5.655 -0.5670  0.3060  0.8320
   61DG     C12 1392   4.757   4.354   5.890  0.3536  0.6282 -0.0199
   61DG     H13 1393   4.243   4.352   5.624  0.7525  1.5056 -0.8221
   61DG     H14 1394   4.338   4.498   5.669  1.8194 -2.9848 -0.0276
   61DG     H15 1395   4.777   4.455   5.928 -0.5155  0.8337 -0.0351
   61DG     H16 1396   4.812   4.295   5.965 -1.1758 -0.3882  0.3537
   61DG     C17 1397   4.404   4.320   5.779 -0.3224  0.5812  0.9123
   61DG     C18 1398   4.608   4.315   5.902  0.0014  0.1764  0.3777
   61DG     O19 1399   4.542   4.352   5.784 -0.4855 -0.0882  0.1127
   61DG     H20 1400   4.384   4.213   5.778 -0.1660  1.3762  0.6171
   61DG     H21 1401   4.351   4.350   5.871  1.7249  3.6047  0.7889
   61DG     H22 1402   4.596   4.206   5.923 -1.7476  1.7710  2.6307
   61DG     H23 1403   4.560   4.360   5.996 -0.0619 -2.3698 -2.0061
   62DG      C1 1404   2.137   3.025   4.295 -0.5739  0.2366  0.3538
   62DG      C2 1405   1.969   3.262   4.893 -0.3406 -0.2498  0.4899
   62DG      H3 1406   2.192   3.058   4.206 -0.5640 -1.0712 -0.7068
   62DG      H4 1407   2.031   3.044   4.268  0.8502  0.7453 -2.2393
   62DG      H5 1408   2.159   2.922   4.297 -0.4896  1.9151 -1.4312
   62DG      H6 1409   1.891   3.297   4.824  1.4080  0.0644 -1.1698
   62DG      H7 1410   1.939   3.162   4.920  5.3997  1.1750 -0.7614
   62DG      H8 1411   1.981   3.332   4.978  0.7032 -0.0382  1.6525
   62DG      O9 1412   2.196   3.090   4.405 -0.8450  0.1374  0.1071
   62DG     O10 1413   2.085   3.258   4.810  0.5492  0.1357 -0.1090
   62DG     C11 1414   2.322   3.041   4.438 -0.8433 -0.0088  0.2196
   62DG     C12 1415   2.198   3.218   4.872  0.3120  0.0525 -0.5500
   62DG     H13 1416   2.392   3.048   4.353 -1.1452 -0.2681 -1.3162
   62DG     H14 1417   2.312   2.938   4.462  0.1549 -2.1165  2.5834
   62DG     H15 1418   2.204   3.118   4.909 -0.8384 -1.3279  1.5576
   62DG     H16 1419   2.236   3.288   4.952  0.0127 -1.0191 -0.2989
   62DG     C17 1420   2.379   3.120   4.561  0.2829 -0.2866  0.1616
   62DG     C18 1421   2.306   3.220   4.759 -0.3280  0.1239  0.3291
   62DG     O19 1422   2.277   3.122   4.662 -0.3853  0.1073  0.2064
   62DG     H20 1423   2.404   3.224   4.537  0.6405  0.0543 -0.0542
   62DG     H21 1424   2.465   3.077   4.608 -0.7588 -0.7708  1.2063
   62DG     H22 1425   2.318   3.325   4.716  0.8150 -1.3621  4.1278
   62DG     H23 1426   2.401   3.199   4.808  1.7386 -1.0581 -0.9693
   63DG      C1 1427   0.568   2.361   4.224  0.1094 -0.2544  0.3326
   63DG      C2 1428   0.047   2.097   4.487  0.4683 -0.9715  0.1475
   63DG      H3 1429   0.586   2.426   4.147 -0.0350  0.2281  1.8325
   63DG      H4 1430   0.593   2.255   4.206 -0.3062 -1.8331  1.4667
   63DG      H5 1431   0.629   2.389   4.309 -1.3841 -1.5681  2.4077
   63DG      H6 1432  -0.062   2.080   4.510 -0.5018 -0.3373  1.7671
   63DG      H7 1433   0.088   2.018   4.429  2.5267  0.5745 -0.9123
   63DG      H8 1434   0.116   2.089   4.572  2.8268 -0.6092 -2.2008
   63DG      O9 1435   0.428   2.361   4.250  0.2241 -0.1420 -0.0918
   63DG     O10 1436   0.058   2.214   4.416 -0.0971 -0.8962  0.0207
   63DG     C11 1437   0.375   2.495   4.216  0.0902  0.1625 -0.4950
   63DG     C12 1438   0.008   2.332   4.478  0.1598  1.2202  0.1832
   63DG     H13 1439   0.389   2.508   4.111  0.2830 -2.6507  1.5659
   63DG     H14 1440   0.439   2.565   4.260 -0.1580 -1.7516 -3.1289
   63DG     H15 1441   0.052   2.351   4.581 -1.2880  2.7862 -0.1866
   63DG     H16 1442  -0.099   2.331   4.483  0.6203  3.7030  2.6273
   63DG     C17 1443   0.223   2.511   4.249  0.0762 -0.2385  0.4981
   63DG     C18 1444   0.044   2.450   4.388  0.2397 -0.6316  0.3218
   63DG     O19 1445   0.187   2.448   4.376  0.3347  0.4404  0.6847
   63DG     H20 1446   0.167   2.477   4.163 -0.9192  2.7028 -0.8649
   63DG     H21 1447   0.192   2.618   4.257 -1.6548  1.8489  1.1624
   63DG     H22 1448  -0.008   2.430   4.295  0.0506 -2.7638 -0.2030
   63DG     H23 1449   0.008   2.547   4.425  0.3490  0.4522  0.0124
   64DG      C1 1450   1.701   5.291   1.464 -0.2421  0.6440  0.4132
   64DG      C2 1451   1.101   5.095   1.388  0.0395 -0.3239 -0.2409
   64DG      H3 1452   1.702   5.216   1.386 -1.7765 -2.1678  1.5763
   64DG      H4 1453   1.803   5.308   1.500 -2.4937 -2.4780  0.8940
   64DG      H5 1454   1.648   5.382   1.430 -0.1367  0.5703 -0.3046
   64DG      H6 1455   1.011   5.045   1.430 -0.1755  1.1002  0.7790
   64DG      H7 1456   1.074   5.196   1.347 -0.4149 -0.9142 -1.3330
   64DG      H8 1457   1.130   5.027   1.305  1.1864  2.3268 -1.3174
   64DG      O9 1458   1.626   5.235   1.572  0.0396  0.0574  0.0039
   64DG     O10 1459   1.193   5.113   1.494  0.0294  0.0375 -0.4362
   64DG     C11 1460   1.586   5.333   1.666 -0.1147 -0.2445  0.1883
   64DG     C12 1461   1.140   5.188   1.603  0.7692 -0.2587 -0.2490
   64DG     H13 1462   1.555   5.423   1.615  1.8217  2.9516  0.3958
   64DG     H14 1463   1.672   5.353   1.719  0.1961  0.7039  0.1757
   64DG     H15 1464   1.051   5.128   1.638  0.5285 -1.8072 -0.5283
   64DG     H16 1465   1.104   5.286   1.577  1.4427 -0.6177 -0.7933
   64DG     C17 1466   1.468   5.278   1.746  0.3505  0.0253  0.1278
   64DG     C18 1467   1.246   5.186   1.715 -0.7863  0.7542 -0.3819
   64DG     O19 1468   1.369   5.227   1.656 -0.5812 -0.0215  0.3968
   64DG     H20 1469   1.431   5.350   1.811  2.0141  0.6226 -0.8933
   64DG     H21 1470   1.508   5.193   1.802 -0.0068 -2.2318 -2.4473
   64DG     H22 1471   1.217   5.253   1.799 -0.2855 -2.4983  2.7849
   64DG     H23 1472   1.261   5.085   1.752  1.2990 -0.1552  2.1340
   65DG      C1 1473   1.129   4.605   3.621  0.1192  0.3223 -0.3372
   65DG      C2 1474   1.474   5.090   3.373  0.0264 -0.0299  0.3917
   65DG      H3 1475   1.151   4.696   3.681  1.2077  0.6959  1.0097
   65DG      H4 1476   1.150   4.510   3.678 -1.8097 -0.3246  1.5907
   65DG      H5 1477   1.026   4.597   3.581  0.1454 -0.8750 -0.4657
   65DG      H6 1478   1.582   5.107   3.373  2.8407  0.2908 -2.0609
   65DG      H7 1479   1.430   5.148   3.285 -3.2282 -1.4514  1.9691
   65DG      H8 1480   1.443   5.130   3.470  0.5939 -1.8029  1.5858
   65DG      O9 1481   1.219   4.622   3.515 -0.3362  0.6034 -0.3368
   65DG     O10 1482   1.457   4.950   3.364 -0.1696 -0.3275 -0.0800
   65DG     C11 1483   1.218   4.523   3.415  0.4022 -0.5370  0.0288
   65DG     C12 1484   1.471   4.890   3.231  0.5861 -0.6689 -0.6175
   65DG     H13 1485   1.125   4.531   3.354  1.0663  0.4314  0.2068
   65DG     H14 1486   1.227   4.424   3.453  0.4652  1.5977 -0.2107
   65DG     H15 1487   1.557   4.926   3.175  1.4101 -2.2436  1.4985
   65DG     H16 1488   1.382   4.919   3.169 -1.0670 -2.5051  0.7857
   65DG     C17 1489   1.339   4.552   3.329  0.3457  0.2466  0.2324
   65DG     C18 1490   1.472   4.735   3.250 -0.3518 -0.0699 -0.4526
   65DG     O19 1491   1.350   4.687   3.305  0.4897  0.5064  0.8987
   65DG     H20 1492   1.320   4.481   3.244  1.8942  0.7730  0.0325
   65DG     H21 1493   1.434   4.526   3.388  0.8801  0.3876 -0.9214
   65DG     H22 1494   1.482   4.690   3.147  0.7867 -0.1546 -1.4964
   65DG     H23 1495   1.553   4.699   3.311 -2.1485 -3.2045 -1.2253
   66DG      C1 1496   5.425   4.865   0.424 -0.0886  0.4268 -0.5920
   66DG      C2 1497   4.874   4.863   0.891 -0.1254 -0.1109 -0.6349
   66DG      H3 1498   5.355   4.951   0.413 -3.2319  2.4747 -0.4115
   66DG      H4 1499   5.448   4.809   0.329 -1.3016 -0.8624 -0.7376
   66DG      H5 1500   5.511   4.912   0.461  0.3512 -1.9667  2.4456
   66DG      H6 1501   4.796   4.919   0.848 -1.0629 -1.6025 -0.6282
   66DG      H7 1502   4.832   4.835   0.980 -0.2062  1.8526 -0.4416
   66DG      H8 1503   4.950   4.935   0.919 -2.2406  0.6916  1.4502
   66DG      O9 1504   5.387   4.767   0.521  0.5136 -0.6155  0.5360
   66DG     O10 1505   4.922   4.758   0.806  0.1363 -0.7333  0.6049
   66DG     C11 1506   5.277   4.690   0.468  0.0474 -0.0391  0.1795
   66DG     C12 1507   5.033   4.681   0.864  0.2886  0.7696 -0.2015
   66DG     H13 1508   5.326   4.638   0.386  0.3521 -0.0013 -1.6271
   66DG     H14 1509   5.203   4.766   0.434 -0.5787  0.4561 -0.0879
   66DG     H15 1510   5.002   4.628   0.949  2.0161 -2.6710 -0.9836
   66DG     H16 1511   5.107   4.753   0.903  0.9430 -3.5217 -0.3258
   66DG     C17 1512   5.204   4.592   0.564  0.4556  0.0550  0.5352
   66DG     C18 1513   5.089   4.584   0.760 -0.5594  0.6081 -0.0253
   66DG     O19 1514   5.158   4.666   0.669 -0.3747  0.1385  0.2765
   66DG     H20 1515   5.278   4.512   0.587 -1.2110  0.5498  0.6999
   66DG     H21 1516   5.120   4.543   0.512 -1.4921  1.5437 -1.3989
   66DG     H22 1517   5.166   4.523   0.811  1.0605  0.2356  2.2191
   66DG     H23 1518   5.017   4.507   0.724  1.8205  0.7522 -0.2906
   67DG      C1 1519   2.952   2.216   1.910 -0.2292  0.5610 -0.1767
   67DG      C2 1520   2.284   1.870   1.813 -0.0373 -0.3166  0.3440
   67DG      H3 1521   2.966   2.231   2.025  0.7051  0.3819 -0.5195
   67DG      H4 1522   3.015   2.289   1.861  0.6756  0.0057  1.9128
   67DG      H5 1523   2.999   2.120   1.891  0.2994  0.2541 -0.2262
   67DG      H6 1524   2.321   1.963   1.765 -2.9763 -1.8504  0.6804
   67DG      H7 1525   2.363   1.797   1.818 -0.2626  2.1346  0.1307
   67DG      H8 1526   2.208   1.841   1.743  1.4023 -1.0134  0.1166
   67DG      O9 1527   2.812   2.221   1.873  0.4186 -0.4928  0.0481
   67DG     O10 1528   2.234   1.903   1.942  0.4918  0.3350  0.5394
   67DG     C11 1529   2.744   2.101   1.909 -0.6449  0.1147  0.1897
   67DG     C12 1530   2.332   1.899   2.046  0.3044 -0.6819  0.3487
   67DG     H13 1531   2.780   2.074   2.000  3.6821  0.5876  1.4724
   67DG     H14 1532   2.772   2.021   1.834 -0.5026  0.7916 -0.1285
   67DG     H15 1533   2.392   1.804   2.048 -2.0428 -0.2034  0.5540
   67DG     H16 1534   2.273   1.903   2.137 -0.6146 -0.2419 -1.7873
   67DG     C17 1535   2.593   2.127   1.908  0.1946  0.1886  1.0094
   67DG     C18 1536   2.439   2.007   2.048  0.4782  0.1640  0.0544
   67DG     O19 1537   2.510   2.007   1.925 -0.2205 -0.2046  0.2528
   67DG     H20 1538   2.570   2.158   1.809  1.3030  3.7397 -2.6993
   67DG     H21 1539   2.574   2.218   1.970 -0.5021  0.6814  1.7962
   67DG     H22 1540   2.406   2.106   2.076 -0.9102 -1.7338 -1.9789
   67DG     H23 1541   2.513   1.974   2.120 -0.8234 -1.6444 -0.2991
   68DG      C1 1542   4.986   5.027   4.193 -0.0137  0.2079  0.2271
   68DG      C2 1543   5.056   4.524   4.135 -0.0866  0.0148 -0.3580
   68DG      H3 1544   5.008   4.939   4.133 -4.3108  0.9028  0.8359
   68DG      H4 1545   4.883   5.048   4.173  0.9183 -0.5613  0.7509
   68DG      H5 1546   4.992   4.998   4.299  1.8777  0.9067  0.6831
   68DG      H6 1547   5.140   4.450   4.139 -2.3591 -0.1703  0.2248
   68DG      H7 1548   4.991   4.510   4.220  0.2461 -0.4319 -1.7595
   68DG      H8 1549   5.010   4.505   4.046  0.2363 -1.0007 -0.5565
   68DG      O9 1550   5.081   5.132   4.171  0.0443 -0.0804  0.3252
   68DG     O10 1551   5.109   4.654   4.138 -0.4077  0.0713  0.3912
   68DG     C11 1552   5.195   5.128   4.252 -0.9621  0.0488  1.4366
   68DG     C12 1553   5.220   4.660   4.223 -0.1995  0.5429  0.4061
   68DG     H13 1554   5.157   5.120   4.353 -0.4768  0.7583  1.2647
   68DG     H14 1555   5.242   5.225   4.227  2.1534 -0.1703 -2.3716
   68DG     H15 1556   5.293   4.573   4.221 -0.3334 -0.8141  1.5322
   68DG     H16 1557   5.194   4.652   4.328  0.1155 -0.6677  1.4317
   68DG     C17 1558   5.293   5.022   4.203 -0.3992  0.2895 -0.0465
   68DG     C18 1559   5.307   4.788   4.212 -0.2777 -0.0071  0.3554
   68DG     O19 1560   5.237   4.905   4.241  0.5329  0.6605  0.6693
   68DG     H20 1561   5.391   5.038   4.249  0.6458 -0.2606 -1.2740
   68DG     H21 1562   5.313   5.035   4.092  1.5762  0.8197  1.0536
   68DG     H22 1563   5.405   4.789   4.268 -2.2100  1.9058  2.0047
   68DG     H23 1564   5.351   4.793   4.116  0.2004 -1.7932  1.0426
   69DG      C1 1565   3.772   4.000   2.961 -0.4206  0.0783 -1.0918
   69DG      C2 1566   3.149   4.053   2.545  0.0115 -0.1493 -0.6604
   69DG      H3 1567   3.844   4.039   2.894 -0.1850 -1.6219 -0.1788
   69DG      H4 1568   3.761   3.892   2.955  0.6671  1.8074  4.3654
   69DG      H5 1569   3.808   4.040   3.059  1.0257 -1.2585  0.3086
   69DG      H6 1570   3.190   4.126   2.477 -0.3176  0.8860  1.2616
   69DG      H7 1571   3.156   3.948   2.506 -0.5387 -0.8800 -3.9679
   69DG      H8 1572   3.037   4.074   2.545 -0.2896 -2.9428  2.3649
   69DG      O9 1573   3.647   4.052   2.924  0.1328  0.1668  0.3145
   69DG     O10 1574   3.205   4.066   2.677 -0.0833  0.2078  1.0178
   69DG     C11 1575   3.533   3.991   2.978  0.4192 -0.3839  0.5469
   69DG     C12 1576   3.220   4.201   2.713 -0.1058 -0.4537 -0.5531
   69DG     H13 1577   3.570   3.952   3.074  0.3344 -1.1202  1.4311
   69DG     H14 1578   3.491   3.904   2.922  0.4130 -1.6237 -1.3035
   69DG     H15 1579   3.123   4.256   2.700  1.5380  0.5852  0.0033
   69DG     H16 1580   3.283   4.244   2.630 -3.0742 -0.3826 -1.2304
   69DG     C17 1581   3.422   4.102   2.989  0.1406 -0.0458 -0.2594
   69DG     C18 1582   3.265   4.223   2.860 -0.5599 -0.4030  0.2404
   69DG     O19 1583   3.387   4.150   2.866  0.5369 -0.3556  0.1423
   69DG     H20 1584   3.468   4.181   3.057 -0.5660  1.8026  0.0240
   69DG     H21 1585   3.341   4.049   3.039  0.8080 -0.6918  1.7393
   69DG     H22 1586   3.283   4.329   2.886  1.2235 -0.0301 -0.0875
   69DG     H23 1587   3.182   4.194   2.923 -1.0077 -1.0220  0.1798
   70DG      C1 1588   4.147   0.969   1.039 -0.3311 -0.0004  0.0322
   70DG      C2 1589   4.419   1.428   1.411 -0.0614  1.1405  0.6169
   70DG      H3 1590   4.104   0.867   1.026  2.2476 -1.9531  2.7775
   70DG      H4 1591   4.178   1.025   0.945  1.1973 -1.7857 -1.1575
   70DG      H5 1592   4.065   1.019   1.076 -0.5214 -1.7145 -3.6835
   70DG      H6 1593   4.326   1.421   1.465 -1.5835  1.8360  0.4172
   70DG      H7 1594   4.506   1.416   1.473 -2.2447  0.5311 -1.3274
   70DG      H8 1595   4.415   1.534   1.378 -0.9718  0.2323 -0.8408
   70DG      O9 1596   4.248   0.961   1.135  0.2734 -0.6513 -0.0408
   70DG     O10 1597   4.423   1.329   1.310  0.2474 -0.3455  0.2239
   70DG     C11 1598   4.377   0.903   1.108  0.4747 -0.0218  0.1310
   70DG     C12 1599   4.550   1.315   1.256 -0.0120  1.0785  0.1431
   70DG     H13 1600   4.369   0.825   1.043  1.3855  1.4595  0.5191
   70DG     H14 1601   4.411   0.850   1.207  0.6410  0.8799 -0.2734
   70DG     H15 1602   4.619   1.284   1.332 -1.7297 -0.7339 -1.8686
   70DG     H16 1603   4.585   1.408   1.225  0.2632 -2.5865 -1.4624
   70DG     C17 1604   4.470   1.010   1.056 -0.1606  0.7446  0.4221
   70DG     C18 1605   4.546   1.227   1.124 -0.5372  0.6416 -0.2794
   70DG     O19 1606   4.475   1.105   1.158  0.7057 -0.1851  0.1704
   70DG     H20 1607   4.430   1.052   0.964 -1.9928  0.9683  0.3779
   70DG     H21 1608   4.566   0.958   1.052 -0.7313  0.0977 -0.1695
   70DG     H22 1609   4.483   1.276   1.044 -1.0841 -1.9863 -3.2008
   70DG     H23 1610   4.648   1.208   1.086  0.4907 -1.0897 -0.5411
   71DG      C1 1611   0.337   3.537   4.211  0.0394 -0.3184 -1.2293
   71DG      C2 1612   0.748   3.027   4.254 -0.4256  0.1534 -0.1889
   71DG      H3 1613   0.237   3.497   4.222 -0.3736 -1.2347 -0.6056
   71DG      H4 1614   0.360   3.538   4.104  0.1465 -0.1907 -1.1305
   71DG      H5 1615   0.330   3.645   4.234 -0.3688  0.2761 -1.6900
   71DG      H6 1616   0.715   3.029   4.149  1.1261  0.6286  1.5454
   71DG      H7 1617   0.854   3.021   4.240 -0.5761  0.9127 -0.5516
   71DG      H8 1618   0.708   2.942   4.313 -0.2611 -0.7458  0.5460
   71DG      O9 1619   0.428   3.467   4.293  0.1216 -0.0903  0.6585
   71DG     O10 1620   0.702   3.146   4.318 -0.7241 -0.0201 -0.1570
   71DG     C11 1621   0.395   3.468   4.427  0.4161  0.1960  0.3580
   71DG     C12 1622   0.722   3.136   4.456 -0.9546  0.0092 -0.6681
   71DG     H13 1623   0.309   3.403   4.439  0.9043  0.3377  1.7702
   71DG     H14 1624   0.356   3.562   4.455  1.8775  1.6925  3.4055
   71DG     H15 1625   0.828   3.142   4.474  1.0052  0.7584 -1.0194
   71DG     H16 1626   0.703   3.040   4.503  0.6605 -1.4495  0.2199
   71DG     C17 1627   0.513   3.426   4.515 -0.9693 -0.6987 -0.2582
   71DG     C18 1628   0.671   3.262   4.535  0.3027 -0.4013  0.3679
   71DG     O19 1629   0.549   3.298   4.474  1.0769 -0.2110 -0.4764
   71DG     H20 1630   0.483   3.442   4.621  0.5860  1.7476  2.4202
   71DG     H21 1631   0.596   3.499   4.491  2.8028  1.5065 -1.7456
   71DG     H22 1632   0.662   3.251   4.643 -0.7975  2.6520 -1.7960
   71DG     H23 1633   0.740   3.347   4.528  1.0480  3.3493  1.4346
   72DG      C1 1634   3.744   3.659   1.416 -0.8409 -0.1636  0.0600
   72DG      C2 1635   3.744   4.344   1.657  0.3234 -0.0299 -1.3926
   72DG      H3 1636   3.794   3.561   1.422  1.3394 -4.7434  0.5697
   72DG      H4 1637   3.827   3.717   1.361 -0.9465  0.6652  0.5096
   72DG      H5 1638   3.667   3.643   1.337 -1.7127 -0.5699 -0.3048
   72DG      H6 1639   3.836   4.390   1.619  0.0845 -0.4594 -0.6541
   72DG      H7 1640   3.675   4.329   1.579  1.2492 -1.7471  0.3205
   72DG      H8 1641   3.706   4.407   1.728 -0.8075  0.9953 -2.4446
   72DG      O9 1642   3.703   3.699   1.542  0.1358 -0.3790  1.3349
   72DG     O10 1643   3.771   4.219   1.712  0.7206  0.6797  0.2258
   72DG     C11 1644   3.809   3.752   1.620  0.2178  0.0202 -0.5479
   72DG     C12 1645   3.644   4.159   1.757 -0.2068 -0.2972 -0.0491
   72DG     H13 1646   3.869   3.823   1.561 -2.1907 -0.2862 -2.1698
   72DG     H14 1647   3.875   3.674   1.634 -0.2813  1.6648 -1.8576
   72DG     H15 1648   3.574   4.167   1.676  0.9191  0.8844 -0.0372
   72DG     H16 1649   3.599   4.220   1.834  0.0907 -1.7575 -1.9901
   72DG     C17 1650   3.762   3.815   1.752  0.0407 -0.5246  0.0269
   72DG     C18 1651   3.664   4.027   1.817 -0.2506  0.3977 -0.1414
   72DG     O19 1652   3.739   3.948   1.720  0.0767 -0.2714 -0.1296
   72DG     H20 1653   3.830   3.795   1.832  2.5960 -1.7688 -1.2236
   72DG     H21 1654   3.666   3.770   1.786 -1.6754  1.3267  1.5821
   72DG     H22 1655   3.714   4.039   1.914 -0.0505 -1.0217  1.4613
   72DG     H23 1656   3.567   3.983   1.836  0.4009  0.6249 -1.2351
   73DG      C1 1657   1.497   2.945   0.395  0.3303  0.1129 -0.1109
   73DG      C2 1658   1.164   2.929   1.010  0.2534 -0.2045  0.1766
   73DG      H3 1659   1.509   3.049   0.371 -0.3026 -3.2325  0.2058
   73DG      H4 1660   1.487   2.897   0.295 -1.2600 -1.6689 -1.1753
   73DG      H5 1661   1.593   2.915   0.434  0.3919  0.2173 -0.9523
   73DG      H6 1662   1.066   2.925   1.057 -0.0812 -0.7474 -0.3245
   73DG      H7 1663   1.219   2.842   1.037 -1.7221 -1.2416 -1.6891
   73DG      H8 1664   1.215   3.016   1.054 -1.0391  2.3769 -0.0009
   73DG      O9 1665   1.375   2.919   0.475  0.2718  0.2772 -0.5021
   73DG     O10 1666   1.140   2.943   0.871  0.1514 -0.0639 -0.0027
   73DG     C11 1667   1.263   2.998   0.437  0.5602 -0.7349  0.6767
   73DG     C12 1668   1.053   2.842   0.817 -0.0679 -0.6730 -0.4024
   73DG     H13 1669   1.268   3.026   0.328  0.6094 -0.2522  0.1837
   73DG     H14 1670   1.268   3.095   0.481  2.2669 -0.5727 -1.7323
   73DG     H15 1671   0.962   2.817   0.875 -2.7423 -0.5541 -0.4312
   73DG     H16 1672   1.099   2.743   0.820  1.4282  2.3169 -0.1671
   73DG     C17 1673   1.133   2.931   0.472 -0.2448 -0.1764  0.5672
   73DG     C18 1674   1.019   2.873   0.676 -0.5171  0.6126  0.2376
   73DG     O19 1675   1.141   2.898   0.610 -0.6133 -0.0192 -0.9271
   73DG     H20 1676   1.130   2.837   0.411  1.2021  0.8838  1.4556
   73DG     H21 1677   1.055   2.999   0.446  0.4126 -0.3307 -1.0541
   73DG     H22 1678   0.955   2.793   0.631  0.2606 -1.7213 -1.8950
   73DG     H23 1679   0.953   2.962   0.668  0.0290  1.2691  0.0560
   74DG      C1 1680   4.978   5.146   0.612 -0.5693 -0.0363 -0.7476
   74DG      C2 1681   5.219   5.219   1.261 -0.1162 -0.1175  0.2175
   74DG      H3 1682   4.935   5.246   0.636 -3.3585 -0.2921 -0.4415
   74DG      H4 1683   4.913   5.076   0.660 -0.0425  0.6897  3.2827
   74DG      H5 1684   4.987   5.116   0.504  0.9295 -1.9807  0.8600
   74DG      H6 1685   5.107   5.220   1.266  0.6552 -2.0828 -0.1262
   74DG      H7 1686   5.246   5.177   1.353  3.1679 -0.3002  0.4552
   74DG      H8 1687   5.248   5.324   1.258  1.0333  1.1914 -0.8558
   74DG      O9 1688   5.108   5.140   0.670  0.1650  0.1030  0.7477
   74DG     O10 1689   5.267   5.162   1.142  0.5485 -0.1258  0.0698
   74DG     C11 1690   5.173   5.022   0.645 -0.1969 -0.0817  0.4978
   74DG     C12 1691   5.232   5.029   1.121 -0.1066 -0.1871 -0.2097
   74DG     H13 1692   5.214   5.007   0.553 -1.1913  0.9864  0.3462
   74DG     H14 1693   5.119   4.933   0.674  0.7201  0.0009  1.3667
   74DG     H15 1694   5.132   5.011   1.129  5.8369  2.2377  3.9943
   74DG     H16 1695   5.275   4.970   1.206  0.0709 -0.8271  0.7010
   74DG     C17 1696   5.280   5.002   0.753  0.3385 -0.4676 -0.4580
   74DG     C18 1697   5.285   4.975   0.986  0.7701 -0.7042 -1.2198
   74DG     O19 1698   5.217   5.022   0.875 -0.0955 -0.6580  0.0098
   74DG     H20 1699   5.373   5.073   0.755 -2.9688  0.3932  0.7179
   74DG     H21 1700   5.321   4.896   0.745  1.1029  1.4520 -0.3910
   74DG     H22 1701   5.392   4.994   0.982  0.7974 -3.1141 -3.1169
   74DG     H23 1702   5.288   4.866   0.969 -1.0754  1.5123 -1.1333
   75DG      C1 1703   5.476   2.941   4.002 -0.5359 -0.3836 -0.0996
   75DG      C2 1704   5.810   2.697   3.344 -0.2554 -0.0481 -0.8372
   75DG      H3 1705   5.565   2.877   3.991 -1.0464  0.7230 -1.2343
   75DG      H4 1706   5.422   2.902   4.087 -1.1001 -1.4789 -0.8294
   75DG      H5 1707   5.501   3.042   4.027  1.0766  0.2489  0.2492
   75DG      H6 1708   5.812   2.677   3.234  0.3600  1.6540 -0.5469
   75DG      H7 1709   5.902   2.754   3.360  1.6412  1.4449 -1.8488
   75DG      H8 1710   5.817   2.598   3.391  1.8869  0.2307 -0.8854
   75DG      O9 1711   5.397   2.931   3.881 -0.3623  0.2841 -0.2458
   75DG     O10 1712   5.708   2.780   3.402  0.9665 -0.5126  0.1012
   75DG     C11 1713   5.466   3.002   3.776  0.2857  0.7486  0.3333
   75DG     C12 1714   5.580   2.725   3.387 -0.1023  0.2204 -1.5889
   75DG     H13 1715   5.574   2.991   3.783 -0.2933  0.0697 -2.6156
   75DG     H14 1716   5.443   3.106   3.783  0.2877 -0.4295 -1.7063
   75DG     H15 1717   5.572   2.623   3.431 -0.7574 -0.1165 -0.7042
   75DG     H16 1718   5.551   2.720   3.287 -2.8553 -0.7906 -2.9929
   75DG     C17 1719   5.421   2.952   3.637  0.3107 -0.5902 -0.2121
   75DG     C18 1720   5.474   2.820   3.450 -0.4884 -0.2130 -0.8159
   75DG     O19 1721   5.507   2.849   3.585  0.3700  0.1424  0.0008
   75DG     H20 1722   5.434   3.040   3.574  1.1743 -0.8400 -1.0747
   75DG     H21 1723   5.317   2.923   3.631  0.5918 -0.3427 -0.2949
   75DG     H22 1724   5.470   2.920   3.391  3.0141  1.2403  2.1222
   75DG     H23 1725   5.371   2.788   3.448  1.5686  0.0056 -3.1980
   76DG      C1 1726   3.482   0.802   3.965  0.0876 -0.4635 -0.1822
   76DG      C2 1727   3.961   1.036   4.298 -0.0831  0.3303 -0.5780
   76DG      H3 1728   3.479   0.719   3.888  1.4863  0.9887 -1.7477
   76DG      H4 1729   3.381   0.820   3.997  3.0392 -0.0661 -1.3364
   76DG      H5 1730   3.544   0.768   4.048  1.6505  2.2084 -1.9481
   76DG      H6 1731   3.958   1.132   4.344 -0.7148  2.4665  1.7418
   76DG      H7 1732   3.925   0.961   4.369  0.7710  1.1879  0.0265
   76DG      H8 1733   4.066   1.026   4.277  0.3173 -4.1817 -1.1894
   76DG      O9 1734   3.544   0.918   3.902  0.2264 -0.0357 -0.4789
   76DG     O10 1735   3.884   1.027   4.184  0.2712  0.0044  0.2037
   76DG     C11 1736   3.666   0.881   3.830 -0.3503  0.1748  0.2590
   76DG     C12 1737   3.885   1.143   4.104 -0.0574 -0.0930  0.1487
   76DG     H13 1738   3.637   0.840   3.732 -0.3040 -1.3662  0.7609
   76DG     H14 1739   3.718   0.809   3.888 -0.2782  3.2239 -1.9815
   76DG     H15 1740   3.984   1.157   4.055  1.4937 -2.9655 -1.1705
   76DG     H16 1741   3.867   1.230   4.166  0.5580  0.9950 -1.2602
   76DG     C17 1742   3.756   0.996   3.786 -0.0951 -0.7801 -0.1195
   76DG     C18 1743   3.780   1.137   3.987 -0.1276 -0.0722 -0.6379
   76DG     O19 1744   3.840   1.047   3.889  0.1666  0.2862  0.0419
   76DG     H20 1745   3.704   1.071   3.728 -1.3217 -0.9064  2.1061
   76DG     H21 1746   3.832   0.963   3.715  5.2190  0.0136  0.6273
   76DG     H22 1747   3.691   1.098   4.036  0.4040  0.2958  2.4299
   76DG     H23 1748   3.752   1.228   3.947 -0.1372  1.1431  1.2191
   77DG      C1 1749   0.945   2.906   3.353 -0.2441 -0.1372 -0.2999
   77DG      C2 1750   0.813   2.569   3.969  0.7513  0.1284 -0.6996
   77DG      H3 1751   1.031   2.940   3.412 -0.8898 -1.2733 -2.6267
   77DG      H4 1752   0.894   2.999   3.318 -2.0486  0.4043  0.0549
   77DG      H5 1753   0.974   2.854   3.265  0.2117  1.2322  1.5060
   77DG      H6 1754   0.841   2.465   3.960 -0.4281  0.7637  1.2444
   77DG      H7 1755   0.898   2.622   4.007  1.6011  2.0538  1.6851
   77DG      H8 1756   0.733   2.574   4.042 -1.2924 -0.4929  1.2456
   77DG      O9 1757   0.863   2.815   3.428 -0.0463 -0.1306  0.5777
   77DG     O10 1758   0.773   2.623   3.845 -0.0003  0.1737 -0.5053
   77DG     C11 1759   0.741   2.782   3.360  0.0953 -0.1921 -0.1862
   77DG     C12 1760   0.671   2.553   3.784  0.1188 -0.2713  0.0217
   77DG     H13 1761   0.761   2.747   3.261  1.2353 -0.1409 -1.6949
   77DG     H14 1762   0.674   2.865   3.347  0.8667 -1.2341  2.4195
   77DG     H15 1763   0.585   2.590   3.822 -1.7487 -1.1118 -1.6253
   77DG     H16 1764   0.668   2.452   3.819  0.6855  2.4999  0.0286
   77DG     C17 1765   0.688   2.658   3.422 -0.0071 -0.1409 -0.4036
   77DG     C18 1766   0.690   2.549   3.632  0.3009  0.6598  0.3797
   77DG     O19 1767   0.668   2.668   3.564  0.1552 -0.3476  0.1372
   77DG     H20 1768   0.745   2.574   3.402 -0.1296  0.4318 -0.4251
   77DG     H21 1769   0.585   2.631   3.388  0.1024 -3.3825  1.5233
   77DG     H22 1770   0.792   2.515   3.618 -2.5095 -2.3636 -1.1210
   77DG     H23 1771   0.632   2.465   3.592 -2.2154 -0.6019 -0.3189
   78DG      C1 1772   0.935   1.782   0.242  0.0568 -0.2415  0.1568
   78DG      C2 1773   0.938   2.499   0.408 -0.7573  0.5888  0.5275
   78DG      H3 1774   0.863   1.720   0.299 -1.1265 -0.6030 -0.0573
   78DG      H4 1775   1.030   1.800   0.296  1.8153 -0.8320  0.5888
   78DG      H5 1776   0.969   1.738   0.152 -1.0256  0.6946  2.1478
   78DG      H6 1777   0.881   2.569   0.350 -1.3218  0.3320  1.8904
   78DG      H7 1778   0.869   2.442   0.454 -2.5152 -0.8079 -0.1973
   78DG      H8 1779   1.011   2.547   0.474  0.3611  0.9753 -0.7636
   78DG      O9 1780   0.874   1.901   0.192  0.1012 -0.2117 -0.5491
   78DG     O10 1781   1.022   2.420   0.318 -0.1231  0.3571 -0.1847
   78DG     C11 1782   0.956   1.998   0.131  0.1537  0.3657 -0.5714
   78DG     C12 1783   1.101   2.322   0.380  0.2113 -0.1968  0.7916
   78DG     H13 1784   0.885   2.066   0.087 -0.6889  0.9253  1.2996
   78DG     H14 1785   1.027   1.963   0.062 -3.2670  1.3899 -1.9145
   78DG     H15 1786   1.036   2.252   0.432  1.1102 -1.1371 -1.8859
   78DG     H16 1787   1.165   2.364   0.453  0.7036  0.8022  1.2456
   78DG     C17 1788   1.043   2.065   0.233 -0.1400 -0.2697  0.2158
   78DG     C18 1789   1.175   2.252   0.265 -0.5124 -0.2440 -0.2829
   78DG     O19 1790   1.090   2.184   0.178 -0.3780  0.5735 -0.5943
   78DG     H20 1791   1.122   1.999   0.270 -0.8491  3.0362 -0.9892
   78DG     H21 1792   0.975   2.084   0.312 -1.4290  2.2365 -0.3398
   78DG     H22 1793   1.236   2.330   0.212  1.1760 -0.7856  3.2025
   78DG     H23 1794   1.250   2.187   0.316  0.9587 -1.3612 -1.1727
   79DG      C1 1795   4.111   4.669   5.475  0.4249 -0.6728  0.4509
   79DG      C2 1796   3.527   4.515   6.087  0.1287 -0.3041 -0.9404
   79DG      H3 1797   4.201   4.662   5.419 -0.9830 -0.1487 -2.5035
   79DG      H4 1798   4.127   4.767   5.536  0.4589 -0.5371  2.2012
   79DG      H5 1799   4.032   4.690   5.403  0.7884  0.7993 -0.0237
   79DG      H6 1800   3.526   4.610   6.145  3.2414 -2.2456 -0.0518
   79DG      H7 1801   3.450   4.534   6.016  0.2598 -0.7145  2.5236
   79DG      H8 1802   3.486   4.422   6.138 -0.9872 -0.8461 -0.6893
   79DG      O9 1803   4.086   4.560   5.564  0.2987 -0.2615  0.4165
   79DG     O10 1804   3.650   4.504   6.020 -0.1995 -0.7427  0.2681
   79DG     C11 1805   3.963   4.577   5.635 -1.0153  0.4303 -0.1771
   79DG     C12 1806   3.655   4.382   5.947  0.3619  0.1456  0.6447
   79DG     H13 1807   3.878   4.572   5.580  1.8958 -1.3182  0.4912
   79DG     H14 1808   3.964   4.678   5.683  0.1662  1.9024  2.6325
   79DG     H15 1809   3.579   4.378   5.874 -0.7120  0.4109  1.1315
   79DG     H16 1810   3.643   4.289   6.005  0.0637 -1.0327 -1.7580
   79DG     C17 1811   3.959   4.471   5.741  0.2423  0.4373 -0.0314
   79DG     C18 1812   3.803   4.381   5.902  0.5875  0.2038  0.2511
   79DG     O19 1813   3.839   4.486   5.811  0.0226 -0.3322  0.3477
   79DG     H20 1814   4.044   4.492   5.808 -2.4164  2.7744  1.8238
   79DG     H21 1815   3.988   4.367   5.714  0.7700  1.1417  0.3999
   79DG     H22 1816   3.872   4.371   5.989  0.0255 -0.0292  4.4187
   79DG     H23 1817   3.814   4.290   5.845 -0.8459 -1.4911  0.0195
   80DG      C1 1818   0.855   3.954   0.662 -0.1072  0.2736  0.1181
   80DG      C2 1819   0.861   3.416   1.382 -0.4754  0.0740  0.3445
   80DG      H3 1820   0.867   4.054   0.714  0.8685 -1.2198  3.2203
   80DG      H4 1821   0.767   3.958   0.596 -0.8264 -0.8614  3.1678
   80DG      H5 1822   0.943   3.924   0.598 -2.1481  1.9947  1.2921
   80DG      H6 1823   0.795   3.366   1.444  1.1427  0.0896 -2.2079
   80DG      H7 1824   0.940   3.342   1.353 -0.5529 -2.3646  0.2131
   80DG      H8 1825   0.908   3.499   1.436 -2.6683  0.3988  2.4982
   80DG      O9 1826   0.825   3.863   0.763  0.4204 -0.4595  0.5032
   80DG     O10 1827   0.799   3.451   1.258  0.8199 -0.2617 -0.0381
   80DG     C11 1828   0.800   3.723   0.718  0.0377 -0.0584 -0.1960
   80DG     C12 1829   0.882   3.506   1.151  1.1121 -0.3316 -0.0371
   80DG     H13 1830   0.895   3.687   0.670  0.0584 -0.1904  3.1670
   80DG     H14 1831   0.724   3.740   0.647  0.6678 -0.5111  1.2619
   80DG     H15 1832   0.961   3.440   1.137  1.0353 -1.1184  5.4263
   80DG     H16 1833   0.916   3.612   1.185 -1.0339  1.6611 -0.8614
   80DG     C17 1834   0.742   3.642   0.831 -0.0380  0.0612  0.0100
   80DG     C18 1835   0.787   3.525   1.028 -0.1737  0.0319  0.5255
   80DG     O19 1836   0.842   3.607   0.924 -0.1824 -0.1213  0.0330
   80DG     H20 1837   0.675   3.559   0.790 -0.1792 -1.3352  0.8482
   80DG     H21 1838   0.673   3.709   0.891 -0.6851  2.0418  2.2640
   80DG     H22 1839   0.773   3.421   0.987  1.4617  1.6933  2.0915
   80DG     H23 1840   0.688   3.559   1.061 -0.8275 -2.4658 -2.7609
   81DG      C1 1841   3.430   2.412   0.111 -1.0805 -0.1795  0.2949
   81DG      C2 1842   3.838   1.948  -0.462  0.4904 -0.2780 -0.4634
   81DG      H3 1843   3.403   2.374   0.213  1.5692  1.8343  1.8716
   81DG      H4 1844   3.357   2.382   0.041  0.5496  0.3023 -0.5921
   81DG      H5 1845   3.432   2.520   0.124  0.1562  1.4883  0.3417
   81DG      H6 1846   3.948   1.918  -0.470  0.6395  1.6309  0.3601
   81DG      H7 1847   3.812   1.859  -0.400 -0.1058 -3.4042 -0.4108
   81DG      H8 1848   3.795   1.943  -0.566 -1.2152 -0.9130  0.6996
   81DG      O9 1849   3.552   2.375   0.049 -0.1640  0.0822 -0.4374
   81DG     O10 1850   3.806   2.072  -0.405  0.0937  0.3434 -0.1214
   81DG     C11 1851   3.542   2.242   0.003 -0.8490 -0.6212  0.1344
   81DG     C12 1852   3.868   2.087  -0.277  0.2709  0.9314 -1.0313
   81DG     H13 1853   3.477   2.223  -0.089 -0.3414 -2.8061 -3.7658
   81DG     H14 1854   3.505   2.169   0.077 -1.9844  2.0979  0.0784
   81DG     H15 1855   3.979   2.068  -0.293  1.7710 -1.8990 -1.6768
   81DG     H16 1856   3.835   2.011  -0.211 -0.3083  0.5438 -2.8989
   81DG     C17 1857   3.678   2.191  -0.048 -0.5415  0.2401  0.2017
   81DG     C18 1858   3.855   2.227  -0.204  0.2408 -0.1853  0.7476
   81DG     O19 1859   3.724   2.263  -0.164 -0.0221 -0.1844  0.6309
   81DG     H20 1860   3.669   2.088  -0.078  1.0367 -1.2196  0.9045
   81DG     H21 1861   3.757   2.189   0.029 -0.3373 -1.7119  1.0102
   81DG     H22 1862   3.920   2.225  -0.114 -2.6531  0.3147 -1.8812
   81DG     H23 1863   3.890   2.297  -0.281 -0.6653 -0.6609  0.7981
   82DG      C1 1864   1.314   2.558   0.650 -0.5912 -0.2628  0.4125
   82DG      C2 1865   1.382   3.220   0.750 -0.2074  0.3302 -0.8420
   82DG      H3 1866   1.219   2.602   0.645  1.8024  0.5131  1.3492
   82DG      H4 1867   1.312   2.468   0.719  1.5448 -0.3979 -0.1942
   82DG      H5 1868   1.331   2.528   0.548 -0.6734 -1.9167  0.6335
   82DG      H6 1869   1.280   3.200   0.782 -2.8415  2.4031 -3.4874
   82DG      H7 1870   1.415   3.309   0.799  1.2543 -0.3026  0.3937
   82DG      H8 1871   1.375   3.232   0.634 -1.2129  1.8349  0.5137
   82DG      O9 1872   1.397   2.666   0.704 -0.1052 -0.8727  0.6112
   82DG     O10 1873   1.466   3.105   0.772  0.5265  0.2770  0.4838
   82DG     C11 1874   1.534   2.634   0.701 -0.1962  0.4275 -0.0637
   82DG     C12 1875   1.603   3.121   0.776 -0.7033  0.1898  0.5436
   82DG     H13 1876   1.558   2.610   0.598  1.0898  0.2137  0.3918
   82DG     H14 1877   1.541   2.539   0.759 -1.1789  1.0328  2.2941
   82DG     H15 1878   1.634   3.203   0.846 -0.4015  0.8641  0.3187
   82DG     H16 1879   1.642   3.158   0.683 -0.7361  0.6722 -0.0855
   82DG     C17 1880   1.629   2.739   0.760  0.6715 -0.4594  0.0467
   82DG     C18 1881   1.660   2.976   0.804 -0.7325 -0.2042  0.0827
   82DG     O19 1882   1.584   2.871   0.731 -0.5967 -0.1651 -0.1035
   82DG     H20 1883   1.730   2.718   0.717  1.4833 -0.0018  0.6159
   82DG     H21 1884   1.641   2.731   0.865 -0.7726  0.0935  1.3542
   82DG     H22 1885   1.762   2.970   0.763 -1.0903  0.3043 -0.5386
   82DG     H23 1886   1.675   2.951   0.907  3.2676  0.7207 -0.4959
   83DG      C1 1887   5.239   1.986   1.559 -0.1033 -0.0408 -0.2812
   83DG      C2 1888   4.602   2.556   1.374 -0.6836 -0.6980 -0.0906
   83DG      H3 1889   5.219   1.918   1.652 -0.5940 -2.0462  0.5406
   83DG      H4 1890   5.304   2.061   1.590 -0.1275  0.7610  0.4260
   83DG      H5 1891   5.291   1.921   1.490  2.2745  1.6555 -1.3773
   83DG      H6 1892   4.598   2.567   1.488  0.0395  0.5272  2.4682
   83DG      H7 1893   4.675   2.630   1.336  1.4911  1.2227  1.4247
   83DG      H8 1894   4.508   2.581   1.325  3.3313  0.4177 -1.8482
   83DG      O9 1895   5.113   2.032   1.514  0.0988  0.2573 -0.3128
   83DG     O10 1896   4.644   2.428   1.341 -0.4205  0.7959  0.2495
   83DG     C11 1897   5.120   2.089   1.381 -0.9231 -0.3388  0.7966
   83DG     C12 1898   4.764   2.390   1.406  0.5848 -0.0081  0.2787
   83DG     H13 1899   5.183   2.035   1.314  0.9721  0.2056 -2.5248
   83DG     H14 1900   5.180   2.182   1.387  1.6476  1.9030  0.7401
   83DG     H15 1901   4.745   2.375   1.509  0.4091 -0.5459 -0.6924
   83DG     H16 1902   4.843   2.465   1.413 -0.1737 -0.9576 -0.0891
   83DG     C17 1903   4.983   2.116   1.321  0.3089  0.8214 -0.2872
   83DG     C18 1904   4.804   2.264   1.332  0.6421  0.0887  0.0354
   83DG     O19 1905   4.903   2.193   1.412 -0.3028 -0.1180 -0.1448
   83DG     H20 1906   4.930   2.026   1.284 -0.1780  1.1474  0.5928
   83DG     H21 1907   5.007   2.173   1.230  0.2169 -0.4644 -1.0782
   83DG     H22 1908   4.722   2.191   1.298 -1.2624  0.2216 -2.4058
   83DG     H23 1909   4.846   2.301   1.238 -3.5409  2.9638 -1.4831
   84DG      C1 1910   0.181   0.182   4.736 -0.9805 -0.3785  0.2690
   84DG      C2 1911   0.482   0.539   5.179  0.0566 -0.4909 -0.7918
   84DG      H3 1912   0.174   0.087   4.785  2.4267 -0.3983 -1.1164
   84DG      H4 1913   0.180   0.166   4.629  0.0086 -0.6689  0.0516
   84DG      H5 1914   0.100   0.246   4.768 -0.0509  0.1996 -2.5831
   84DG      H6 1915   0.382   0.585   5.162 -1.0653 -0.2340  0.1412
   84DG      H7 1916   0.457   0.469   5.262 -0.0175 -1.7194  2.7063
   84DG      H8 1917   0.552   0.609   5.217 -1.7534 -1.7648  1.6784
   84DG      O9 1918   0.301   0.246   4.775 -0.2809 -0.1088  0.5510
   84DG     O10 1919   0.516   0.471   5.059 -0.0475  0.0102 -0.1223
   84DG     C11 1920   0.413   0.181   4.710 -0.1401  0.4395 -0.2870
   84DG     C12 1921   0.622   0.383   5.072 -0.3486 -0.0818 -0.0548
   84DG     H13 1922   0.401   0.205   4.603  3.8425  1.2997  3.3811
   84DG     H14 1923   0.409   0.076   4.732 -0.8566  0.4212 -2.3331
   84DG     H15 1924   0.580   0.311   5.140  0.5259  1.5792 -1.7577
   84DG     H16 1925   0.713   0.440   5.114  0.4535  0.0643  2.4045
   84DG     C17 1926   0.540   0.255   4.758 -0.5326 -0.5318  0.2450
   84DG     C18 1927   0.661   0.312   4.949 -0.0918 -0.2874 -0.5119
   84DG     O19 1928   0.545   0.255   4.897  0.1242 -0.3728  0.2087
   84DG     H20 1929   0.544   0.360   4.717 -1.0584  1.8574  0.4862
   84DG     H21 1930   0.620   0.207   4.714  0.3343  2.6451 -1.3790
   84DG     H22 1931   0.707   0.382   4.875  1.2091  1.8131  0.9092
   84DG     H23 1932   0.731   0.235   4.971 -1.3195 -0.6314 -0.2589
   85DG      C1 1933   3.362   0.418   3.899 -0.1473 -0.8963  0.3648
   85DG      C2 1934   2.981   0.008   4.466  0.3499  0.7783 -0.2411
   85DG      H3 1935   3.274   0.484   3.875 -0.4972 -0.6377  1.8497
   85DG      H4 1936   3.361   0.342   3.824  0.3938  0.9463 -0.0987
   85DG      H5 1937   3.449   0.485   3.884 -2.5021 -2.2009 -0.6665
   85DG      H6 1938   2.901   0.042   4.525  2.8745  0.7338  3.3576
   85DG      H7 1939   2.940  -0.059   4.382 -0.2709  0.1551 -0.0397
   85DG      H8 1940   3.045  -0.058   4.527 -0.6801 -0.4807  1.3926
   85DG      O9 1941   3.337   0.367   4.026  0.3201 -0.6230  0.3047
   85DG     O10 1942   3.066   0.116   4.422 -0.1234 -0.4289 -0.0391
   85DG     C11 1943   3.301   0.466   4.117  0.4472  0.3776 -0.3156
   85DG     C12 1944   3.137   0.082   4.295 -1.1432 -0.1158  0.3530
   85DG     H13 1945   3.203   0.501   4.092  1.8244  2.4212  0.4465
   85DG     H14 1946   3.371   0.550   4.110  0.9613  1.4995  2.1419
   85DG     H15 1947   3.060   0.084   4.226  2.0266  2.5244  0.6131
   85DG     H16 1948   3.186  -0.017   4.298 -0.2994 -0.0376  0.0068
   85DG     C17 1949   3.305   0.407   4.250 -0.2602 -0.0882  1.4240
   85DG     C18 1950   3.247   0.183   4.248  0.1146 -0.1279 -0.6162
   85DG     O19 1951   3.202   0.315   4.275 -0.2813 -0.0385 -0.5381
   85DG     H20 1952   3.295   0.490   4.313  2.1706 -1.8137  2.8889
   85DG     H21 1953   3.410   0.370   4.265 -0.1217  1.6059  2.9954
   85DG     H22 1954   3.338   0.159   4.310 -1.6554 -0.0537 -0.5145
   85DG     H23 1955   3.265   0.170   4.143 -1.6119  2.2891 -1.4287
   86DG      C1 1956   2.092   0.331   0.361 -0.2894  0.7226 -0.2955
   86DG      C2 1957   1.686   0.350   1.045 -0.3024  0.4066 -0.1192
   86DG      H3 1958   2.132   0.432   0.359 -1.2724 -0.2374 -0.0627
   86DG      H4 1959   2.001   0.331   0.298 -2.4181 -0.5632 -1.2919
   86DG      H5 1960   2.172   0.274   0.304  0.3938 -0.8803  0.6068
   86DG      H6 1961   1.600   0.281   1.070 -1.9799 -1.3683 -0.0254
   86DG      H7 1962   1.737   0.382   1.140 -0.0433 -0.3270  1.4700
   86DG      H8 1963   1.624   0.431   1.001 -2.2654 -1.0790  3.2916
   86DG      O9 1964   2.078   0.277   0.496 -0.2459  0.1144 -0.7635
   86DG     O10 1965   1.769   0.281   0.949 -0.1679 -0.7323 -0.5218
   86DG     C11 1966   2.006   0.161   0.499 -0.1576 -0.4788  0.1442
   86DG     C12 1967   1.865   0.365   0.897  0.0782 -0.0668 -0.1060
   86DG     H13 1968   2.058   0.077   0.453  4.3192 -1.1757 -2.5537
   86DG     H14 1969   1.914   0.168   0.443  1.6029 -0.4520 -1.5961
   86DG     H15 1970   1.923   0.408   0.973 -1.5163 -0.7660  1.4606
   86DG     H16 1971   1.810   0.432   0.841 -0.7361 -1.7865 -0.1802
   86DG     C17 1972   1.993   0.121   0.647  0.9570 -0.1257  0.2946
   86DG     C18 1973   1.964   0.301   0.798  0.5636  0.5237 -0.0666
   86DG     O19 1974   1.901   0.194   0.728 -0.4406 -0.6502  0.0984
   86DG     H20 1975   2.095   0.116   0.687  0.3093  0.0217 -1.2712
   86DG     H21 1976   1.954   0.020   0.647 -2.3325  0.4832 -1.2685
   86DG     H22 1977   2.013   0.376   0.729  0.4919  0.9558 -1.0337
   86DG     H23 1978   2.044   0.246   0.856  2.9652 -2.5065 -1.7302
   87DG      C1 1979   1.033   1.385   1.870  0.3269  0.4293  0.1816
   87DG      C2 1980   0.840   0.959   2.363  0.2551 -0.4272 -0.0268
   87DG      H3 1981   0.962   1.445   1.919  2.0765 -1.4779  0.8355
   87DG      H4 1982   1.053   1.429   1.764  0.6144  0.1582 -1.7745
   87DG      H5 1983   1.117   1.411   1.930  0.0357 -0.8128  2.8976
   87DG      H6 1984   0.897   0.924   2.437 -0.2924 -0.6877 -2.4950
   87DG      H7 1985   0.772   1.043   2.397 -4.1396  1.0512  0.3963
   87DG      H8 1986   0.760   0.892   2.335 -0.5797  0.2836  3.7779
   87DG      O9 1987   0.992   1.250   1.876 -0.4213 -0.2083  0.4957
   87DG     O10 1988   0.911   1.012   2.252 -0.1967 -0.2941  0.1257
   87DG     C11 1989   1.077   1.158   1.815 -0.1197 -0.0837 -0.6639
   87DG     C12 1990   1.013   0.922   2.198  0.4739 -0.1012  0.3495
   87DG     H13 1991   1.172   1.172   1.865 -1.2618  1.8863 -1.6889
   87DG     H14 1992   1.070   1.179   1.707 -0.8692 -1.7263 -1.2323
   87DG     H15 1993   0.987   0.820   2.181  1.7137  1.1328 -0.1377
   87DG     H16 1994   1.094   0.913   2.280  0.1122 -1.0061  0.6498
   87DG     C17 1995   1.023   1.018   1.839  0.3624  0.3002 -0.6495
   87DG     C18 1996   1.079   0.973   2.070 -0.4118 -0.3800 -0.6432
   87DG     O19 1997   0.986   0.985   1.967  0.3675 -0.5334 -0.2996
   87DG     H20 1998   1.094   0.948   1.813 -0.3420  1.8715 -3.1962
   87DG     H21 1999   0.931   1.004   1.778 -0.0913  2.5099  0.1733
   87DG     H22 2000   1.134   1.060   2.096  1.9140 -0.9731 -0.5326
   87DG     H23 2001   1.159   0.907   2.037 -1.3213 -1.2315  0.0517
   88DG      C1 2002   2.485   5.450   5.177 -0.7921  0.1049  0.5626
   88DG      C2 2003   1.673   5.086   5.336  0.0487 -0.3270 -0.5131
   88DG      H3 2004   2.464   5.506   5.269  2.9377  1.5567  0.7549
   88DG      H4 2005   2.559   5.495   5.117 -1.8317 -0.1311  1.9328
   88DG      H5 2006   2.522   5.353   5.223 -0.7562 -1.1041  1.8215
   88DG      H6 2007   1.578   5.136   5.368 -2.0195  0.9148 -0.2196
   88DG      H7 2008   1.645   4.993   5.280 -1.1520 -0.4039  0.4536
   88DG      H8 2009   1.726   5.062   5.433  2.8703  1.2923  1.0955
   88DG      O9 2010   2.365   5.401   5.109 -0.2495 -0.4680  0.3803
   88DG     O10 2011   1.755   5.165   5.246  0.0843 -0.4006 -0.0422
   88DG     C11 2012   2.274   5.341   5.189 -0.1288  0.3073 -0.1807
   88DG     C12 2013   1.858   5.103   5.179  0.1635 -0.1434  0.2627
   88DG     H13 2014   2.256   5.415   5.265  5.1784 -2.2928 -0.7524
   88DG     H14 2015   2.331   5.253   5.234  1.5947  0.1102 -0.3686
   88DG     H15 2016   1.821   5.017   5.117  0.0827 -1.1734  0.5767
   88DG     H16 2017   1.921   5.055   5.253 -3.3706 -0.5555 -3.2405
   88DG     C17 2018   2.144   5.319   5.111 -0.4208 -0.5425 -0.3695
   88DG     C18 2019   1.949   5.193   5.094 -0.3816 -0.3272  0.5892
   88DG     O19 2020   2.054   5.233   5.174 -0.0325  0.0629 -0.2324
   88DG     H20 2021   2.159   5.272   5.012 -1.2589 -1.6302  0.1217
   88DG     H21 2022   2.089   5.417   5.093 -2.5915  2.1331 -0.7081
   88DG     H22 2023   1.992   5.149   5.005 -1.2260  0.8322 -0.4426
   88DG     H23 2024   1.893   5.284   5.068 -1.2624  1.3100  0.5713
   89DG      C1 2025   4.371   3.155   2.305  0.1040 -0.2389 -0.2681
   89DG      C2 2026   4.443   2.540   2.058 -0.6419  0.1089 -0.3727
   89DG      H3 2027   4.369   3.219   2.388 -0.0381  0.4599 -1.3592
   89DG      H4 2028   4.343   3.236   2.227  1.6018  1.4244 -1.1818
   89DG      H5 2029   4.476   3.122   2.302  0.5821  1.1315  1.9575
   89DG      H6 2030   4.550   2.521   2.089  1.9208  1.0879  2.7165
   89DG      H7 2031   4.401   2.439   2.067  0.9909  3.3688 -1.4298
   89DG      H8 2032   4.445   2.566   1.956  0.3028 -2.0036  3.3728
   89DG      O9 2033   4.280   3.048   2.305 -0.0728 -0.0341 -0.3394
   89DG     O10 2034   4.373   2.628   2.148 -0.5099  0.5908 -0.2474
   89DG     C11 2035   4.271   2.979   2.427  0.6056 -0.4478 -0.0652
   89DG     C12 2036   4.235   2.624   2.130 -0.0169 -0.0785  0.0728
   89DG     H13 2037   4.242   3.045   2.511  1.0532  1.4754  0.5871
   89DG     H14 2038   4.369   2.939   2.455  0.4507 -0.5346 -0.0498
   89DG     H15 2039   4.198   2.533   2.164  1.5402 -0.4663 -2.2183
   89DG     H16 2040   4.205   2.640   2.025  2.2946  0.5018  1.0762
   89DG     C17 2041   4.167   2.866   2.406  0.0758  0.6816 -0.9250
   89DG     C18 2042   4.177   2.747   2.202  0.0969  0.7218 -0.6945
   89DG     O19 2043   4.212   2.749   2.340  0.2227  0.6194 -0.1286
   89DG     H20 2044   4.074   2.897   2.362  2.0314  0.1909  1.4944
   89DG     H21 2045   4.138   2.826   2.504  0.1772  1.7951 -0.8593
   89DG     H22 2046   4.223   2.840   2.165  0.7800  2.6418  2.3872
   89DG     H23 2047   4.079   2.756   2.184  1.2195  0.4130  2.1602
   90DG      C1 2048   0.423   1.649   4.580  0.1267 -0.1149  1.1930
   90DG      C2 2049   0.133   1.155   4.819 -0.0070  1.4095  0.0497
   90DG      H3 2050   0.473   1.624   4.670  0.8077  1.9248 -0.7081
   90DG      H4 2051   0.333   1.708   4.605 -0.5283  1.7142 -0.2189
   90DG      H5 2052   0.498   1.713   4.513  0.3336 -0.4927 -2.0229
   90DG      H6 2053   0.228   1.102   4.820  1.4955 -4.4639  0.0158
   90DG      H7 2054   0.131   1.215   4.906  1.3383 -0.2393 -0.4663
   90DG      H8 2055   0.060   1.075   4.823 -0.1422 -1.6116  0.7912
   90DG      O9 2056   0.390   1.520   4.518 -0.0746 -0.3480 -0.0823
   90DG     O10 2057   0.124   1.224   4.696  0.7207  0.0869 -0.9400
   90DG     C11 2058   0.313   1.517   4.398 -0.2903  0.3164  0.4168
   90DG     C12 2059   0.002   1.301   4.695 -0.7913 -1.5295 -0.2733
   90DG     H13 2060   0.330   1.421   4.354 -0.6031 -1.5869 -1.1950
   90DG     H14 2061   0.347   1.592   4.325  0.9263  2.9837 -1.3441
   90DG     H15 2062   0.003   1.382   4.776  0.5305 -0.1818 -1.0318
   90DG     H16 2063  -0.084   1.241   4.708  0.1792  2.2239 -2.1483
   90DG     C17 2064   0.164   1.518   4.430  0.1583 -0.2886 -0.3956
   90DG     C18 2065   0.003   1.382   4.561  0.0724 -0.3757  0.1671
   90DG     O19 2066   0.139   1.419   4.535  0.1826  0.4138 -0.0417
   90DG     H20 2067   0.121   1.484   4.337  2.1246  0.3672 -0.3548
   90DG     H21 2068   0.130   1.620   4.444  0.3391  0.9155  1.0258
   90DG     H22 2069  -0.037   1.313   4.493  0.8616  4.4053  0.1212
   90DG     H23 2070  -0.069   1.466   4.571 -1.6233  0.6740 -1.4035
   91DG      C1 2071   2.508   3.898   4.366 -0.0264  0.4734 -0.0743
   91DG      C2 2072   2.941   4.553   4.474  0.3775  0.0882  0.0827
   91DG      H3 2073   2.422   3.924   4.308  2.0813  0.2947 -0.3098
   91DG      H4 2074   2.466   3.885   4.464 -1.0743  2.4447 -0.5102
   91DG      H5 2075   2.554   3.808   4.317  0.2459 -1.1254 -0.8187
   91DG      H6 2076   3.030   4.536   4.412  2.1458  2.4578  3.7941
   91DG      H7 2077   2.931   4.660   4.479  1.8467 -0.2217  1.5136
   91DG      H8 2078   2.967   4.513   4.575  1.9454 -0.8024 -1.2800
   91DG      O9 2079   2.600   4.008   4.379  0.2482 -0.2015  0.7337
   91DG     O10 2080   2.826   4.483   4.429 -0.2807 -0.1319 -0.4159
   91DG     C11 2081   2.529   4.132   4.383 -0.0815  1.0438 -1.1582
   91DG     C12 2082   2.807   4.506   4.292 -0.2458 -0.4106 -0.3243
   91DG     H13 2083   2.457   4.115   4.468 -1.0599  0.6836 -0.6399
   91DG     H14 2084   2.473   4.142   4.284 -0.7236 -0.6193 -0.2458
   91DG     H15 2085   2.895   4.465   4.249  1.0452 -1.5981  0.6411
   91DG     H16 2086   2.800   4.613   4.276  0.9373  3.4621 -3.0779
   91DG     C17 2087   2.604   4.264   4.394  0.0151 -0.0617  0.0252
   91DG     C18 2088   2.688   4.432   4.231  0.1831 -0.7558  0.5924
   91DG     O19 2089   2.666   4.293   4.270  0.5577  0.3551  0.0593
   91DG     H20 2090   2.684   4.251   4.472  0.6530  0.5598 -0.1057
   91DG     H21 2091   2.530   4.339   4.411  0.3100 -1.4010  0.7164
   91DG     H22 2092   2.600   4.482   4.261  1.1700 -0.8315  0.1120
   91DG     H23 2093   2.707   4.440   4.121  1.2293 -1.2289 -0.8922
   92DG      C1 2094   0.367   0.703   3.754 -0.7166 -0.7854  0.1863
   92DG      C2 2095   0.336   0.325   4.277  0.1003 -0.0989 -0.8190
   92DG      H3 2096   0.413   0.609   3.744  2.1874  1.5103  2.9265
   92DG      H4 2097   0.449   0.780   3.736 -0.2107  3.9597 -1.2128
   92DG      H5 2098   0.287   0.710   3.681 -3.0674  2.3452  2.1482
   92DG      H6 2099   0.328   0.296   4.379 -0.8062 -0.6400 -1.5801
   92DG      H7 2100   0.233   0.335   4.249  2.2457 -0.0118  2.0137
   92DG      H8 2101   0.377   0.243   4.216 -2.7793  1.7486 -1.6591
   92DG      O9 2102   0.316   0.729   3.889 -0.2145  0.1523  0.1886
   92DG     O10 2103   0.424   0.433   4.264  0.5012  0.2359  0.4491
   92DG     C11 2104   0.427   0.727   3.985 -0.3183 -0.2190 -0.5323
   92DG     C12 2105   0.418   0.530   4.364 -0.0336  0.2839 -0.1539
   92DG     H13 2106   0.473   0.827   3.972  1.6001  2.2166  0.2688
   92DG     H14 2107   0.505   0.655   3.957  2.0271  0.3984 -1.0600
   92DG     H15 2108   0.471   0.481   4.450  2.7818 -0.9416 -2.0727
   92DG     H16 2109   0.308   0.559   4.374 -0.8623  0.4120 -3.7286
   92DG     C17 2110   0.389   0.703   4.130 -0.0845  0.0245  0.3805
   92DG     C18 2111   0.500   0.659   4.337 -0.5365 -0.7132  0.1187
   92DG     O19 2112   0.510   0.686   4.196 -0.1490 -0.3515 -0.5283
   92DG     H20 2113   0.322   0.618   4.133 -2.2639  0.8289 -1.5456
   92DG     H21 2114   0.349   0.800   4.153 -2.8055 -0.4138 -0.9855
   92DG     H22 2115   0.458   0.745   4.397  2.7250 -0.9123  0.5067
   92DG     H23 2116   0.604   0.657   4.367 -0.0003  1.3249  1.0702
   93DG      C1 2117   2.256   3.029   1.692  0.2954  0.5862 -0.3753
   93DG      C2 2118   1.747   3.430   1.648 -0.2886  1.0624  0.1645
   93DG      H3 2119   2.188   2.985   1.763 -1.9278 -0.2420  0.7597
   93DG      H4 2120   2.351   3.036   1.747  0.8259 -1.7540  1.3381
   93DG      H5 2121   2.273   2.956   1.614 -0.3614  0.0139  0.7922
   93DG      H6 2122   1.676   3.444   1.566  1.2010  0.2099  1.5676
   93DG      H7 2123   1.708   3.342   1.697  1.6605 -2.6478 -2.5085
   93DG      H8 2124   1.734   3.525   1.709 -1.9064  1.3216 -1.7578
   93DG      O9 2125   2.209   3.156   1.633 -0.3207  0.1952 -0.0411
   93DG     O10 2126   1.881   3.405   1.617  0.3223 -0.5574 -0.0826
   93DG     C11 2127   2.310   3.215   1.549  0.9629  0.2715 -0.6393
   93DG     C12 2128   1.940   3.505   1.544  0.0365 -1.1193  0.2148
   93DG     H13 2129   2.290   3.162   1.455  0.3806 -0.8721 -1.1141
   93DG     H14 2130   2.412   3.200   1.577  3.0201 -0.3749 -1.1851
   93DG     H15 2131   1.900   3.598   1.582  0.3027 -2.9683  2.0848
   93DG     H16 2132   1.914   3.498   1.439  1.2079  0.2514 -0.7792
   93DG     C17 2133   2.272   3.358   1.576 -0.2970 -0.0629 -0.6111
   93DG     C18 2134   2.095   3.508   1.567  0.0169 -0.8345  0.6822
   93DG     O19 2135   2.129   3.372   1.556 -0.2084  0.3252  0.0979
   93DG     H20 2136   2.331   3.411   1.509 -4.0600  1.6090  0.4904
   93DG     H21 2137   2.303   3.397   1.677 -2.4117  1.5198 -2.9622
   93DG     H22 2138   2.139   3.573   1.479 -2.2032 -1.0447 -0.0668
   93DG     H23 2139   2.125   3.546   1.668  1.8280  1.1551  0.9587
   94DG      C1 2140   5.184   2.714   0.306  0.0490 -0.3699  0.3260
   94DG      C2 2141   5.720   2.540   0.680  0.9222  0.1453 -0.2785
   94DG      H3 2142   5.107   2.790   0.299  0.6925  0.2962  1.1021
   94DG      H4 2143   5.132   2.640   0.369  0.9526 -1.2305 -0.6309
   94DG      H5 2144   5.211   2.661   0.213  2.3555 -1.1552 -2.9550
   94DG      H6 2145   5.662   2.450   0.693 -0.8887 -1.8697  1.1202
   94DG      H7 2146   5.789   2.525   0.596  1.0267 -0.6060  0.9479
   94DG      H8 2147   5.787   2.558   0.767 -0.5740 -2.0040 -1.6237
   94DG      O9 2148   5.299   2.765   0.366  0.0697 -1.1764 -0.4465
   94DG     O10 2149   5.644   2.659   0.656 -0.2247  0.2416  0.2499
   94DG     C11 2150   5.365   2.860   0.292  0.4220 -0.1283  0.5104
   94DG     C12 2151   5.723   2.769   0.615 -0.6463 -0.7982 -0.2220
   94DG     H13 2152   5.305   2.940   0.254 -1.8799 -0.1477 -1.5931
   94DG     H14 2153   5.406   2.811   0.197  0.0726  2.3346 -2.5313
   94DG     H15 2154   5.776   2.729   0.531 -1.1586  1.2604 -1.3225
   94DG     H16 2155   5.800   2.789   0.692  1.4245 -0.9206  0.9634
   94DG     C17 2156   5.482   2.914   0.379  0.1225  0.3969  0.2215
   94DG     C18 2157   5.644   2.887   0.561  0.3884  0.4892  0.4518
   94DG     O19 2158   5.549   2.824   0.464 -0.1806 -1.3080  0.1948
   94DG     H20 2159   5.441   3.002   0.439  0.4363  0.7922  0.3198
   94DG     H21 2160   5.564   2.949   0.312 -2.5507 -2.6622  1.9038
   94DG     H22 2161   5.580   2.922   0.647  0.2328 -0.2700  2.0484
   94DG     H23 2162   5.698   2.969   0.511  3.4813  0.1664 -0.5058
   95DG      C1 2163   4.184   3.941   3.504 -0.1259 -0.0908 -0.4185
   95DG      C2 2164   4.679   3.753   3.430  0.2982 -0.1916  1.1207
   95DG      H3 2165   4.274   3.975   3.454  0.5102 -0.9127  1.2157
   95DG      H4 2166   4.101   3.921   3.442 -1.5055 -1.5826 -0.1141
   95DG      H5 2167   4.210   3.839   3.538  1.9891  0.1371  2.8723
   95DG      H6 2168   4.675   3.669   3.506 -0.8063 -2.5207 -0.5634
   95DG      H7 2169   4.623   3.715   3.340 -2.0949 -1.6699 -1.2653
   95DG      H8 2170   4.781   3.764   3.389 -0.5687 -1.3285 -1.5807
   95DG      O9 2171   4.155   4.025   3.619  0.2880 -0.2908 -0.2897
   95DG     O10 2172   4.622   3.877   3.468  0.0741 -0.2864  0.3526
   95DG     C11 2173   4.226   4.001   3.743  0.2610 -0.2202  0.2133
   95DG     C12 2174   4.673   3.920   3.593  0.4243 -0.0453 -0.2548
   95DG     H13 2175   4.220   3.895   3.764 -0.4321 -1.8381 -0.4476
   95DG     H14 2176   4.172   4.036   3.827  0.8883 -3.8340  1.2559
   95DG     H15 2177   4.775   3.957   3.587  1.1879  2.0414 -1.0955
   95DG     H16 2178   4.676   3.841   3.673 -0.1732 -1.9083  2.0153
   95DG     C17 2179   4.366   4.068   3.738 -0.4710  0.2811  0.5131
   95DG     C18 2180   4.586   4.035   3.646  0.2724 -0.3128 -0.0670
   95DG     O19 2181   4.451   3.993   3.650  0.5252 -0.0291  0.4078
   95DG     H20 2182   4.407   4.064   3.837 -0.3846  0.5793 -0.6907
   95DG     H21 2183   4.364   4.166   3.698 -1.0348  0.0888  0.6824
   95DG     H22 2184   4.621   4.063   3.747  0.0345  0.2074 -0.7425
   95DG     H23 2185   4.597   4.129   3.598 -0.8017  0.2217 -0.2266
   96DG      C1 2186   4.759   3.976   4.221 -0.2954  0.0067  0.0675
   96DG      C2 2187   4.232   3.820   4.441  0.1057 -0.4859  0.2153
   96DG      H3 2188   4.818   4.025   4.139 -1.4732 -0.3222 -1.7277
   96DG      H4 2189   4.831   3.931   4.283 -0.0963 -0.2439  1.2925
   96DG      H5 2190   4.704   4.068   4.260  0.0660 -0.3625 -1.4425
   96DG      H6 2191   4.294   3.732   4.451 -0.8684 -0.5013 -0.1472
   96DG      H7 2192   4.255   3.885   4.521 -0.5326  0.0193  1.3581
   96DG      H8 2193   4.128   3.787   4.451 -0.0070  0.9849 -0.1714
   96DG      O9 2194   4.660   3.881   4.177 -0.0723 -0.7491 -0.1173
   96DG     O10 2195   4.254   3.884   4.311  0.1799  0.5269  0.6201
   96DG     C11 2196   4.631   3.880   4.039 -0.2355 -0.5888 -0.0142
   96DG     C12 2197   4.240   3.798   4.210  0.2030  0.5857  0.1171
   96DG     H13 2198   4.700   3.820   3.991  1.2325  2.6084 -0.5742
   96DG     H14 2199   4.638   3.981   4.006 -0.2057  0.9891  2.1480
   96DG     H15 2200   4.140   3.755   4.210 -1.0553 -0.0128 -0.2893
   96DG     H16 2201   4.315   3.721   4.219  1.8298  0.3702 -0.0403
   96DG     C17 2202   4.489   3.820   4.008 -0.1817  0.6274  0.0383
   96DG     C18 2203   4.269   3.861   4.076 -0.0850 -0.3335  0.0771
   96DG     O19 2204   4.405   3.905   4.074  0.9527 -0.4398  0.0938
   96DG     H20 2205   4.484   3.714   4.043  0.7417 -2.2571 -2.3380
   96DG     H21 2206   4.470   3.822   3.904  1.9531  1.6205 -1.2329
   96DG     H22 2207   4.243   3.783   4.002 -0.9431 -0.5472 -0.8853
   96DG     H23 2208   4.202   3.945   4.059  1.0872 -1.0703 -2.9181
   97DG      C1 2209   0.590   2.965   2.633 -0.2130 -0.0194 -0.0844
   97DG      C2 2210   1.190   2.682   2.417 -0.5666 -0.0626  0.3098
   97DG      H3 2211   0.533   3.029   2.556  0.6384 -0.0828 -0.7500
   97DG      H4 2212   0.669   3.026   2.669 -0.3957 -2.2935 -0.7806
   97DG      H5 2213   0.525   2.927   2.713  2.9132 -0.0211 -3.4098
   97DG      H6 2214   1.210   2.718   2.314 -0.8516  0.2783 -0.3901
   97DG      H7 2215   1.241   2.757   2.476 -0.7301  2.4407  0.6523
   97DG      H8 2216   1.239   2.578   2.431  0.0983 -0.6164 -0.0977
   97DG      O9 2217   0.659   2.854   2.576  0.6068  0.2293 -0.0430
   97DG     O10 2218   1.052   2.677   2.443 -0.2484  0.4521  0.6348
   97DG     C11 2219   0.572   2.768   2.502  0.0088  0.3439  0.4740
   97DG     C12 2220   0.982   2.595   2.347 -0.3443  0.4775 -0.3193
   97DG     H13 2221   0.557   2.792   2.396 -0.9812 -0.0945 -1.2053
   97DG     H14 2222   0.477   2.758   2.555  0.6508 -1.3867 -2.2635
   97DG     H15 2223   1.046   2.506   2.314 -1.4474 -0.8546  1.8343
   97DG     H16 2224   0.977   2.661   2.262 -0.4291  0.9673  0.0516
   97DG     C17 2225   0.639   2.628   2.493  0.2761 -0.1962 -0.8442
   97DG     C18 2226   0.849   2.535   2.403 -0.7726  0.6851  0.0716
   97DG     O19 2227   0.759   2.648   2.422 -0.3127 -0.0606 -0.0895
   97DG     H20 2228   0.576   2.559   2.435 -1.4604 -0.1374 -0.8537
   97DG     H21 2229   0.657   2.587   2.593  0.6180 -0.8929  2.1552
   97DG     H22 2230   0.812   2.463   2.336  1.7472 -0.1666  1.4478
   97DG     H23 2231   0.867   2.481   2.499  0.6522 -1.2365 -0.2963
   98DG      C1 2232   0.380   1.439   0.432  0.7088 -0.4244 -0.4948
   98DG      C2 2233   0.582   0.911   0.747 -0.1773  0.1239 -0.1807
   98DG      H3 2234   0.299   1.498   0.390 -0.1213  0.9991  2.8684
   98DG      H4 2235   0.370   1.334   0.417  1.0429 -1.4694 -1.5488
   98DG      H5 2236   0.471   1.471   0.386 -1.1850 -1.8748  1.7227
   98DG      H6 2237   0.651   0.971   0.680  0.0036 -1.2688 -2.3668
   98DG      H7 2238   0.628   0.875   0.840  0.8680 -1.1172  0.3851
   98DG      H8 2239   0.555   0.821   0.692  1.3097  0.3726 -1.0049
   98DG      O9 2240   0.377   1.466   0.573  0.7544  0.1177 -0.0755
   98DG     O10 2241   0.472   0.985   0.779  0.2123 -0.5049  0.4707
   98DG     C11 2242   0.253   1.439   0.635 -0.6839  0.2462 -0.0070
   98DG     C12 2243   0.506   1.098   0.866  0.1950  0.3088 -0.2098
   98DG     H13 2244   0.200   1.361   0.580 -0.5339 -4.7240  0.3721
   98DG     H14 2245   0.190   1.530   0.639 -1.2134 -2.4766  2.1387
   98DG     H15 2246   0.591   1.150   0.834 -2.4344  2.6855  1.0104
   98DG     H16 2247   0.533   1.061   0.963  0.0967  0.8911 -1.1403
   98DG     C17 2248   0.281   1.381   0.763  0.0406 -0.1191  0.7313
   98DG     C18 2249   0.399   1.209   0.876 -0.3863 -0.3566  0.6248
   98DG     O19 2250   0.347   1.256   0.750  0.3784 -0.3522 -0.0844
   98DG     H20 2251   0.191   1.372   0.816  2.8838 -0.6880 -0.2063
   98DG     H21 2252   0.342   1.448   0.825  1.6654 -0.9266  0.6340
   98DG     H22 2253   0.316   1.179   0.942 -3.6438 -2.5982 -2.2479
   98DG     H23 2254   0.456   1.286   0.925  0.0321  0.5799 -1.6136
   99DG      C1 2255   5.091   2.335   1.701  0.4099  0.2399 -0.0491
   99DG      C2 2256   5.124   2.910   2.027  0.4946  0.6943  0.0570
   99DG      H3 2257   5.157   2.391   1.634  0.7497  0.9537 -1.2767
   99DG      H4 2258   4.985   2.354   1.666  2.3933  1.7207  4.3286
   99DG      H5 2259   5.126   2.232   1.689  1.3055  0.8044 -2.7699
   99DG      H6 2260   5.040   2.921   2.095  0.5330  1.4554 -1.8082
   99DG      H7 2261   5.205   2.966   2.068  0.8513  0.3426 -2.8366
   99DG      H8 2262   5.079   2.958   1.949  0.3772 -1.2841 -0.0637
   99DG      O9 2263   5.100   2.390   1.832  0.2826 -0.1155 -0.4318
   99DG     O10 2264   5.164   2.776   2.017  0.1813 -0.2256 -0.3768
   99DG     C11 2265   5.224   2.359   1.901  0.5036 -0.3806  0.3855
   99DG     C12 2266   5.240   2.734   2.129  1.0812 -0.4177  0.8648
   99DG     H13 2267   5.307   2.421   1.868  1.2744  1.3091  0.6870
   99DG     H14 2268   5.254   2.254   1.877  2.1693 -0.7498 -0.3499
   99DG     H15 2269   5.177   2.735   2.212  1.6789  0.2654  1.2290
   99DG     H16 2270   5.330   2.794   2.145  1.5508  2.1822 -1.0439
   99DG     C17 2271   5.210   2.362   2.053 -0.5133 -0.1481 -0.6645
   99DG     C18 2272   5.277   2.590   2.100 -0.4153 -0.0977  0.0365
   99DG     O19 2273   5.170   2.501   2.084 -0.1465  0.1992 -0.7307
   99DG     H20 2274   5.296   2.322   2.114  0.6997  2.0214  1.2432
   99DG     H21 2275   5.135   2.291   2.075  1.6570 -2.7136 -0.9650
   99DG     H22 2276   5.337   2.580   2.009 -2.0181 -0.2862 -2.5740
   99DG     H23 2277   5.338   2.552   2.184 -0.8406 -0.2275  0.7053
  100DG      C1 2278   0.391   1.703   1.829  0.4439 -0.9057 -0.4673
  100DG      C2 2279   0.915   2.076   1.769 -0.3230  0.1017 -0.1899
  100DG      H3 2280   0.327   1.678   1.913  1.0323  4.8249 -1.5420
  100DG      H4 2281   0.474   1.635   1.827 -3.7321  0.5369 -1.5982
  100DG      H5 2282   0.346   1.690   1.732  1.7206 -1.0191  0.5303
  100DG      H6 2283   0.984   2.095   1.690 -1.1421  1.0823 -0.5031
  100DG      H7 2284   0.946   2.117   1.866 -0.5989 -1.4137 -0.3558
  100DG      H8 2285   0.926   1.969   1.781  0.2209 -1.7596  0.3640
  100DG      O9 2286   0.437   1.832   1.841 -0.1398  0.3651  0.0123
  100DG     O10 2287   0.781   2.112   1.738  0.1447 -0.0554 -0.4976
  100DG     C11 2288   0.329   1.924   1.863 -0.1154  0.3499 -0.0360
  100DG     C12 2289   0.709   2.098   1.862 -0.6063 -0.4127  0.1167
  100DG     H13 2290   0.245   1.875   1.910  0.8882 -0.6496 -1.3515
  100DG     H14 2291   0.285   1.948   1.772  1.2495 -2.5096  0.8726
  100DG     H15 2292   0.747   2.162   1.952 -1.1048 -0.0029 -0.5465
  100DG     H16 2293   0.719   1.999   1.893  1.5157  0.7395  2.6867
  100DG     C17 2294   0.366   2.046   1.950 -0.7305 -0.3753 -0.0080
  100DG     C18 2295   0.561   2.137   1.850 -0.2320  0.3037 -0.7757
  100DG     O19 2296   0.508   2.067   1.959  0.5745  0.3655  0.5467
  100DG     H20 2297   0.335   2.023   2.048 -1.6571  0.2060 -0.9982
  100DG     H21 2298   0.314   2.136   1.912  1.5038  3.5545 -1.3261
  100DG     H22 2299   0.550   2.247   1.854 -1.7288 -0.4578  1.3404
  100DG     H23 2300   0.521   2.104   1.758  1.4964 -0.0524 -1.8034
  101DG      C1 2301   4.613   2.160   2.222 -1.3797 -0.9576  0.5522
  101DG      C2 2302   4.865   1.844   1.652 -0.1396  0.7977  0.7182
  101DG      H3 2303   4.557   2.071   2.210 -1.8524  0.9762 -0.7087
  101DG      H4 2304   4.550   2.240   2.267  0.6908  2.4310 -2.0772
  101DG      H5 2305   4.690   2.131   2.297 -0.9733  1.1420  1.6921
  101DG      H6 2306   4.880   1.745   1.697  0.8905  0.9441  0.8563
  101DG      H7 2307   4.895   1.825   1.541  1.7336 -0.7439 -2.0431
  101DG      H8 2308   4.935   1.910   1.698 -1.9766 -0.1721 -1.1150
  101DG      O9 2309   4.681   2.203   2.102  0.8125  0.5563 -0.0773
  101DG     O10 2310   4.735   1.894   1.678 -0.1759 -0.1245  0.8448
  101DG     C11 2311   4.814   2.150   2.090  0.0029  0.6580  0.2452
  101DG     C12 2312   4.706   2.029   1.646  0.4315 -0.3200 -0.3780
  101DG     H13 2313   4.806   2.042   2.102  0.2116 -2.3827  2.1764
  101DG     H14 2314   4.886   2.179   2.162  1.0822 -0.3988  0.1223
  101DG     H15 2315   4.596   2.040   1.665 -0.1360  0.2034  3.2399
  101DG     H16 2316   4.720   2.068   1.548 -0.9850  1.4494  0.7632
  101DG     C17 2317   4.863   2.169   1.948 -0.4328 -0.5356  0.3331
  101DG     C18 2318   4.789   2.128   1.729  0.3287  0.6532  0.3095
  101DG     O19 2319   4.780   2.090   1.867 -0.1974  0.4548 -0.1270
  101DG     H20 2320   4.969   2.157   1.934  2.7648 -0.5991 -1.2822
  101DG     H21 2321   4.850   2.274   1.919  1.1557 -1.4684  0.3115
  101DG     H22 2322   4.891   2.120   1.693  1.2105 -2.2226 -0.6449
  101DG     H23 2323   4.752   2.227   1.728 -0.6854 -0.8676 -0.9253
  102DG      C1 2324   2.631   1.419   2.044  0.1444  1.0512  0.7364
  102DG      C2 2325   3.149   1.658   2.563 -0.4860  0.2604 -0.2070
  102DG      H3 2326   2.549   1.457   1.985 -2.0996  3.0420  0.3108
  102DG      H4 2327   2.702   1.370   1.973  2.2956  2.5506 -0.0242
  102DG      H5 2328   2.676   1.507   2.078  2.3545 -0.9070 -0.1869
  102DG      H6 2329   3.166   1.729   2.648  1.9810  1.3390  0.0150
  102DG      H7 2330   3.193   1.561   2.595  1.6865  1.3623 -1.8659
  102DG      H8 2331   3.195   1.689   2.470  0.1510  1.3874  0.2976
  102DG      O9 2332   2.601   1.322   2.146 -0.0259  0.0969  0.2297
  102DG     O10 2333   3.006   1.652   2.546  0.3725 -0.0172  0.4445
  102DG     C11 2334   2.704   1.264   2.228 -0.0359 -0.1805  0.1659
  102DG     C12 2335   2.968   1.544   2.463 -0.0465 -0.0852 -0.5551
  102DG     H13 2336   2.788   1.221   2.172  1.4257  0.5410 -1.8300
  102DG     H14 2337   2.666   1.172   2.267 -0.6264 -0.1617 -1.5714
  102DG     H15 2338   2.954   1.452   2.518  0.2423  1.1213 -0.0964
  102DG     H16 2339   3.041   1.515   2.385 -0.1684 -1.7508 -2.2745
  102DG     C17 2340   2.741   1.368   2.340 -0.5488  0.8608  0.7979
  102DG     C18 2341   2.835   1.583   2.395  0.8664  0.8516 -0.5441
  102DG     O19 2342   2.797   1.489   2.290  0.0529 -0.1407  0.3384
  102DG     H20 2343   2.800   1.329   2.415 -0.3154  0.6006 -1.3576
  102DG     H21 2344   2.649   1.390   2.397 -1.5871 -1.0225  2.4006
  102DG     H22 2345   2.750   1.604   2.460 -1.5206  0.9371  0.6659
  102DG     H23 2346   2.855   1.674   2.337  1.2872  0.1917 -0.2225
  103DG      C1 2347   4.807   1.008   3.949  0.9249  0.1734 -0.4643
  103DG      C2 2348   4.135   0.885   3.879 -0.2904 -0.7630 -0.3508
  103DG      H3 2349   4.813   1.033   4.064  1.5126 -0.9295  3.0933
  103DG      H4 2350   4.773   1.114   3.914 -4.0010  1.1749 -0.1692
  103DG      H5 2351   4.907   0.979   3.928 -1.7923  0.3371 -2.3812
  103DG      H6 2352   4.065   0.808   3.837  2.0178 -0.3918 -3.5547
  103DG      H7 2353   4.101   0.901   3.985  0.4363 -0.6455  0.6670
  103DG      H8 2354   4.113   0.971   3.820  0.8140 -2.6038 -3.2708
  103DG      O9 2355   4.716   0.906   3.937 -0.1387  0.3348  0.0550
  103DG     O10 2356   4.271   0.857   3.863 -1.0646 -0.3075 -1.2113
  103DG     C11 2357   4.704   0.869   3.801  0.0916  0.4234 -0.1786
  103DG     C12 2358   4.300   0.738   3.934 -0.1903  0.4612 -0.2747
  103DG     H13 2359   4.803   0.846   3.755  2.3693 -2.6316 -0.6428
  103DG     H14 2360   4.657   0.959   3.755 -2.7365  0.1727  0.6307
  103DG     H15 2361   4.250   0.657   3.881  2.0096 -1.5259  0.9185
  103DG     H16 2362   4.272   0.740   4.039  0.2341 -0.3276 -0.5886
  103DG     C17 2363   4.634   0.730   3.773  0.1248  0.2431 -0.1758
  103DG     C18 2364   4.452   0.719   3.929 -1.0819 -0.4659 -0.5472
  103DG     O19 2365   4.490   0.723   3.793  0.0784 -0.4220  0.7650
  103DG     H20 2366   4.693   0.643   3.807 -0.7126 -1.4805 -0.6990
  103DG     H21 2367   4.637   0.715   3.667  0.2708  1.7195 -1.0428
  103DG     H22 2368   4.502   0.801   3.990 -1.4796 -0.0541  0.5311
  103DG     H23 2369   4.490   0.625   3.967 -0.1568 -0.1387 -0.3129
  104DG      C1 2370   1.746   0.682   5.061  0.3047  0.0611 -0.6362
  104DG      C2 2371   1.604  -0.042   5.223  0.1168  0.7705 -0.1533
  104DG      H3 2372   1.844   0.711   5.008  0.8934  3.3701 -2.8179
  104DG      H4 2373   1.759   0.699   5.169  1.3736 -1.1757  0.9422
  104DG      H5 2374   1.662   0.739   5.026  0.5126 -1.5949  1.0179
  104DG      H6 2375   1.601  -0.054   5.330 -0.7026 -0.7456 -0.7775
  104DG      H7 2376   1.505   0.002   5.198 -0.6864 -1.2174 -1.5150
  104DG      H8 2377   1.606  -0.145   5.184 -2.1198  1.6333  0.4855
  104DG      O9 2378   1.730   0.541   5.046 -0.2550  0.6315 -0.1521
  104DG     O10 2379   1.720   0.034   5.175 -0.6570  0.2507  0.0614
  104DG     C11 2380   1.694   0.499   4.916 -1.1073  0.4548  0.7725
  104DG     C12 2381   1.733   0.036   5.036 -0.0515 -0.2345 -0.6304
  104DG     H13 2382   1.785   0.479   4.858  1.9450 -3.0471  3.4995
  104DG     H14 2383   1.638   0.576   4.867  0.7932 -0.1709  1.5455
  104DG     H15 2384   1.712  -0.066   5.004 -1.5172  0.4887  1.7213
  104DG     H16 2385   1.837   0.053   5.007  0.6959  0.0427 -0.8103
  104DG     C17 2386   1.614   0.366   4.913  0.4839 -0.9067 -0.9266
  104DG     C18 2387   1.637   0.130   4.959  0.2742  0.3752 -0.5092
  104DG     O19 2388   1.691   0.266   4.979 -0.2890  0.0128 -0.2748
  104DG     H20 2389   1.585   0.332   4.815  0.5020 -2.6300 -2.3372
  104DG     H21 2390   1.517   0.377   4.957  1.2450 -0.0763  0.8494
  104DG     H22 2391   1.642   0.107   4.854  1.1935  1.7222  0.5889
  104DG     H23 2392   1.536   0.119   4.992 -3.3686  0.9795 -0.8967
  105DG      C1 2393   2.643   3.315   4.324 -0.0228 -0.5804  0.3244
  105DG      C2 2394   3.133   2.902   3.881  0.2014  0.4547 -0.1943
  105DG      H3 2395   2.700   3.354   4.407  2.4921 -0.2892  1.2355
  105DG      H4 2396   2.547   3.277   4.363 -3.6076 -0.8193  0.1902
  105DG      H5 2397   2.614   3.389   4.248 -0.6604 -1.4611  0.3821
  105DG      H6 2398   3.152   2.927   3.777 -1.2347  0.2757  0.2385
  105DG      H7 2399   3.234   2.930   3.926  2.2723  1.3036 -0.2918
  105DG      H8 2400   3.123   2.798   3.896 -2.4089  0.1379 -0.3101
  105DG      O9 2401   2.704   3.199   4.271  0.0048 -0.0601  0.1676
  105DG     O10 2402   3.021   2.985   3.920 -0.1944 -0.4274  0.4197
  105DG     C11 2403   2.842   3.191   4.275  0.2924 -0.6527 -0.3086
  105DG     C12 2404   3.044   3.127   3.887 -0.5109 -1.3393  0.9274
  105DG     H13 2405   2.871   3.082   4.278 -0.7407 -1.4554  0.5137
  105DG     H14 2406   2.882   3.241   4.370 -0.3889  2.7389  0.9411
  105DG     H15 2407   3.075   3.137   3.782 -1.2760 -1.9593  0.7956
  105DG     H16 2408   3.120   3.166   3.952  0.8622 -1.8844 -3.0421
  105DG     C17 2409   2.898   3.249   4.150  0.3044 -0.1484  0.6138
  105DG     C18 2410   2.925   3.212   3.914 -0.0424  0.1871 -0.5053
  105DG     O19 2411   2.862   3.177   4.039 -0.3228  0.5017 -0.0272
  105DG     H20 2412   3.006   3.257   4.157 -0.3113  2.0680  0.3233
  105DG     H21 2413   2.867   3.357   4.139  0.9633  3.0346 -0.2096
  105DG     H22 2414   2.942   3.311   3.884  1.8311 -2.7915 -0.3239
  105DG     H23 2415   2.856   3.173   3.840 -3.2607 -0.7257 -0.4460
  106DG      C1 2416   0.749   4.969   4.637  0.0748 -0.8691  0.3400
  106DG      C2 2417   0.183   4.978   4.282  0.3700 -0.7172 -0.6582
  106DG      H3 2418   0.692   5.015   4.710  1.0815 -1.7183  0.9918
  106DG      H4 2419   0.795   5.053   4.587 -0.9372 -0.2830  2.0662
  106DG      H5 2420   0.828   4.914   4.683 -0.5823  0.0695  0.0374
  106DG      H6 2421   0.235   5.062   4.236  0.6548 -0.5935  3.7523
  106DG      H7 2422   0.099   4.949   4.217 -1.4828 -1.4329  3.9548
  106DG      H8 2423   0.132   5.015   4.365  0.3463 -1.1335 -1.2390
  106DG      O9 2424   0.667   4.902   4.543  0.3323  0.1055 -0.1268
  106DG     O10 2425   0.280   4.878   4.327 -0.1184  0.0238 -0.4057
  106DG     C11 2426   0.739   4.805   4.471 -0.2760  0.6048 -1.0976
  106DG     C12 2427   0.337   4.802   4.216  0.2252  0.2429  0.3131
  106DG     H13 2428   0.806   4.740   4.531 -2.6467 -1.5705  1.4497
  106DG     H14 2429   0.817   4.860   4.410  0.6211  0.0200 -1.0329
  106DG     H15 2430   0.383   4.870   4.138  0.5750  0.7682  1.5726
  106DG     H16 2431   0.246   4.745   4.181 -2.2796  3.1978  0.8925
  106DG     C17 2432   0.653   4.707   4.395  0.3002  0.1836  0.0393
  106DG     C18 2433   0.442   4.712   4.285  0.9814  0.6419  0.0393
  106DG     O19 2434   0.560   4.784   4.325 -0.2045  0.2802  0.1178
  106DG     H20 2435   0.618   4.626   4.454  0.6884  1.4142  1.3404
  106DG     H21 2436   0.715   4.656   4.324 -0.8270  0.6751 -0.5552
  106DG     H22 2437   0.400   4.667   4.376 -1.1839  0.2523 -1.3058
  106DG     H23 2438   0.481   4.629   4.216 -0.9753 -3.1887 -1.9518
  107DG      C1 2439   1.364   5.316   1.298  0.4051 -1.0717  0.2938
  107DG      C2 2440   1.735   4.963   1.621 -0.4402 -0.2323 -0.2958
  107DG      H3 2441   1.279   5.356   1.241  1.8028 -0.2586  1.1868
  107DG      H4 2442   1.454   5.373   1.274 -2.4937  0.4288  2.7083
  107DG      H5 2443   1.338   5.325   1.400  0.8542 -0.9926  0.8249
  107DG      H6 2444   1.764   4.865   1.667  1.0123  0.0357 -2.6339
  107DG      H7 2445   1.824   5.019   1.588 -0.9217  1.2096  0.3328
  107DG      H8 2446   1.690   5.020   1.699  1.3221 -1.9592 -3.0902
  107DG      O9 2447   1.395   5.185   1.278 -0.6705  0.0232  0.3200
  107DG     O10 2448   1.636   4.922   1.521 -0.0129 -0.5383  0.1887
  107DG     C11 2449   1.454   5.163   1.153 -0.1112  0.0085  0.1274
  107DG     C12 2450   1.691   4.849   1.413 -0.1320  0.4283 -0.0856
  107DG     H13 2451   1.540   5.226   1.148 -0.3220 -4.1527 -0.2123
  107DG     H14 2452   1.385   5.192   1.071  1.7996 -1.3339  3.0536
  107DG     H15 2453   1.699   4.744   1.451  0.9629  0.8811 -0.2559
  107DG     H16 2454   1.790   4.882   1.386 -1.2239 -0.9822 -0.2970
  107DG     C17 2455   1.500   5.019   1.155 -0.2461 -0.4213 -0.5389
  107DG     C18 2456   1.598   4.856   1.291  0.6392  0.4108 -0.5262
  107DG     O19 2457   1.588   4.994   1.267 -0.4230 -0.5186  0.0525
  107DG     H20 2458   1.541   5.000   1.055  3.2002 -1.1779 -0.9827
  107DG     H21 2459   1.409   4.964   1.166 -0.1878  0.4394  0.0718
  107DG     H22 2460   1.639   4.805   1.201  0.5821 -0.8294 -2.2176
  107DG     H23 2461   1.501   4.800   1.307 -3.7945  0.0594 -0.2687
  108DG      C1 2462   5.185   0.922   4.128  0.3515  0.0364 -0.3677
  108DG      C2 2463   4.951   1.563   4.318 -0.2958  0.2275 -0.0611
  108DG      H3 2464   5.205   0.859   4.210 -1.2231 -4.2299  1.8024
  108DG      H4 2465   5.244   0.884   4.042  1.2262 -0.5946 -1.6374
  108DG      H5 2466   5.078   0.920   4.104 -2.3094  3.6748 -1.9745
  108DG      H6 2467   4.984   1.643   4.386  1.8364  2.1590 -1.4593
  108DG      H7 2468   4.926   1.610   4.223  0.2054  0.1804 -0.9363
  108DG      H8 2469   4.854   1.535   4.354 -2.4381  2.0411  2.4770
  108DG      O9 2470   5.213   1.057   4.159  0.4403 -0.0095 -0.6715
  108DG     O10 2471   5.053   1.458   4.306  0.0109  0.6269 -0.3428
  108DG     C11 2472   5.350   1.077   4.191  0.2368 -0.0013 -0.2337
  108DG     C12 2473   5.165   1.510   4.233 -0.4987  0.0540  0.4429
  108DG     H13 2474   5.424   1.011   4.141  0.6677  1.8179 -1.9537
  108DG     H14 2475   5.379   1.046   4.295  0.8933 -1.1443 -1.2851
  108DG     H15 2476   5.197   1.600   4.283 -0.1832 -0.6693  4.2487
  108DG     H16 2477   5.143   1.534   4.122 -2.0802 -0.9688  0.1283
  108DG     C17 2478   5.387   1.223   4.158  0.3888 -0.2011 -0.4162
  108DG     C18 2479   5.300   1.438   4.235  0.1844  0.3598  0.0738
  108DG     O19 2480   5.276   1.307   4.189  0.5321  0.1687 -0.5789
  108DG     H20 2481   5.439   1.245   4.067 -0.3867  0.5380 -0.8373
  108DG     H21 2482   5.460   1.255   4.239 -0.7289  0.4977  0.8062
  108DG     H22 2483   5.374   1.484   4.172 -1.0796  1.2318 -2.2500
  108DG     H23 2484   5.330   1.436   4.335  1.2227  1.3005  0.4259
  109DG      C1 2485   1.875   5.084   1.095 -0.4104  0.0463 -0.4534
  109DG      C2 2486   2.372   5.406   0.592 -0.6589 -0.4922 -0.4927
  109DG      H3 2487   1.926   4.989   1.108 -0.7497 -1.2612  0.6816
  109DG      H4 2488   1.804   5.084   1.007  2.3447 -1.6625 -3.3668
  109DG      H5 2489   1.824   5.103   1.187  0.2596  0.6045 -2.4238
  109DG      H6 2490   2.451   5.336   0.544  0.8220 -1.1521  0.0948
  109DG      H7 2491   2.341   5.485   0.514 -0.9345 -0.3912  1.2443
  109DG      H8 2492   2.432   5.467   0.663  0.3508  0.0972  0.5571
  109DG      O9 2493   1.982   5.165   1.077 -0.0626 -0.3361 -0.0121
  109DG     O10 2494   2.256   5.340   0.649  0.6170 -0.5681  0.6069
  109DG     C11 2495   1.936   5.300   1.053 -0.3296  0.9399 -0.4590
  109DG     C12 2496   2.285   5.286   0.771  0.2426 -0.8751 -0.4459
  109DG     H13 2497   1.868   5.325   1.129 -0.5185 -1.6026 -1.1450
  109DG     H14 2498   1.874   5.305   0.958  0.0987 -1.9037 -0.0767
  109DG     H15 2499   2.350   5.358   0.820  1.3887 -0.3080 -3.8025
  109DG     H16 2500   2.357   5.205   0.774 -1.2777  2.4828  3.0881
  109DG     C17 2501   2.063   5.385   1.039 -0.2268  0.5453 -0.0162
  109DG     C18 2502   2.180   5.253   0.873 -0.0962 -0.0181  0.0114
  109DG     O19 2503   2.125   5.379   0.912 -0.2698  0.0955 -0.7215
  109DG     H20 2504   2.127   5.356   1.120 -1.3840 -1.4524  0.2625
  109DG     H21 2505   2.047   5.485   1.060  0.2440 -2.5022  2.9200
  109DG     H22 2506   2.114   5.185   0.830  3.3038  0.8738  1.0944
  109DG     H23 2507   2.228   5.207   0.956 -0.8098 -1.0534  0.7163
  110DG      C1 2508   1.251   1.765   5.454  0.3923 -0.0558  0.1653
  110DG      C2 2509   0.563   2.013   5.275 -0.2852  0.1290  0.1080
  110DG      H3 2510   1.172   1.681   5.467 -0.9217 -1.8871 -0.8355
  110DG      H4 2511   1.255   1.805   5.553  0.1930 -1.1889 -0.1330
  110DG      H5 2512   1.336   1.702   5.423  0.7906 -0.8980 -0.8812
  110DG      H6 2513   0.491   2.076   5.215 -0.0331 -0.9632 -1.9238
  110DG      H7 2514   0.515   1.919   5.292 -2.2277  0.7030 -0.5021
  110DG      H8 2515   0.590   2.071   5.358  0.1458 -0.7386 -2.3668
  110DG      O9 2516   1.199   1.864   5.357 -0.0850 -0.4511  0.0229
  110DG     O10 2517   0.680   1.981   5.187  0.4996 -0.0242  0.8116
  110DG     C11 2518   1.176   1.826   5.225  0.0004  0.0732 -0.0460
  110DG     C12 2519   0.767   2.093   5.165  0.3039 -0.0925 -0.4158
  110DG     H13 2520   1.127   1.722   5.227  1.0976 -0.4531  0.3238
  110DG     H14 2521   1.269   1.818   5.170 -1.2044  1.6661 -1.1647
  110DG     H15 2522   0.788   2.127   5.270  0.3287 -1.1196 -0.1039
  110DG     H16 2523   0.727   2.181   5.109  0.4889  2.0589  0.6732
  110DG     C17 2524   1.085   1.930   5.149  0.1799  0.2851  0.3849
  110DG     C18 2525   0.897   2.045   5.107 -0.5242  0.2359 -0.9343
  110DG     O19 2526   0.949   1.952   5.191 -0.5219  0.0640 -0.2843
  110DG     H20 2527   1.081   1.886   5.053 -1.5062 -0.6144 -2.3660
  110DG     H21 2528   1.127   2.030   5.144  2.1351  2.2978  0.7075
  110DG     H22 2529   0.876   2.000   5.017  1.3940 -0.1880  0.7014
  110DG     H23 2530   0.961   2.138   5.098  1.9893  2.6002  1.5918
  111DG      C1 2531   3.797   2.307   2.046 -0.9509 -0.3690 -0.0535
  111DG      C2 2532   3.901   1.937   2.663 -0.1750 -0.9211 -0.0913
  111DG      H3 2533   3.698   2.336   2.073 -0.1308  1.1062 -2.8728
  111DG      H4 2534   3.786   2.202   2.007 -2.3884 -0.9093 -0.7615
  111DG      H5 2535   3.830   2.373   1.968 -2.1405  1.4666 -0.8015
  111DG      H6 2536   3.808   1.946   2.715  2.4508  0.0732  3.1971
  111DG      H7 2537   3.899   1.848   2.596 -0.0073 -2.1354 -0.5052
  111DG      H8 2538   3.979   1.912   2.731  0.1336 -0.6110 -1.8405
  111DG      O9 2539   3.885   2.308   2.162 -0.1615 -0.4218  0.6377
  111DG     O10 2540   3.915   2.059   2.595 -0.0861 -0.3366  0.8157
  111DG     C11 2541   3.906   2.420   2.240  0.1427 -1.1288 -0.6240
  111DG     C12 2542   3.952   2.182   2.662  0.8366 -0.4849 -1.2349
  111DG     H13 2543   3.807   2.456   2.263 -1.6114 -1.8018 -0.6575
  111DG     H14 2544   3.970   2.496   2.190 -0.4975 -1.4147 -0.2979
  111DG     H15 2545   4.015   2.159   2.747  0.1990  2.4995  0.6720
  111DG     H16 2546   3.870   2.234   2.716 -1.1876  0.6183  0.4407
  111DG     C17 2547   3.994   2.390   2.356  0.7875 -0.1763 -0.5220
  111DG     C18 2548   4.014   2.285   2.569 -0.3953 -0.8723  0.1721
  111DG     O19 2549   3.940   2.291   2.446  0.7206  0.0129 -0.1749
  111DG     H20 2550   4.026   2.484   2.416  0.7681  2.7226 -2.2033
  111DG     H21 2551   4.079   2.348   2.312 -2.6167 -0.0731  0.4878
  111DG     H22 2552   4.024   2.386   2.623 -3.5333 -0.9288  1.2120
  111DG     H23 2553   4.115   2.255   2.538  1.4371 -2.8649 -1.7823
  112DG      C1 2554   3.910   4.146   1.435 -0.2005 -0.2414  0.5226
  112DG      C2 2555   4.616   4.114   1.148 -0.2163  0.4349  0.5549
  112DG      H3 2556   3.917   4.226   1.374  1.0629 -4.9440 -0.7316
  112DG      H4 2557   3.973   4.164   1.520  0.8835 -0.0299  2.1217
  112DG      H5 2558   3.806   4.129   1.473 -1.9221 -0.6010  1.2944
  112DG      H6 2559   4.632   4.148   1.249 -0.0021  1.2242  1.9387
  112DG      H7 2560   4.709   4.066   1.122 -2.1089  1.6243 -2.4377
  112DG      H8 2561   4.605   4.206   1.095  2.0267 -0.3503  1.7728
  112DG      O9 2562   3.967   4.030   1.375 -0.5201 -0.0119 -0.2782
  112DG     O10 2563   4.505   4.025   1.133 -0.1647  0.6490  0.8223
  112DG     C11 2564   3.916   3.993   1.252 -0.5672 -0.0276 -0.2836
  112DG     C12 2565   4.378   4.086   1.166  0.5993  0.4190  0.0469
  112DG     H13 2566   3.880   4.088   1.205  0.1287  0.5021 -3.7324
  112DG     H14 2567   3.835   3.924   1.261  0.2829 -0.3483 -0.1682
  112DG     H15 2568   4.360   4.179   1.108  0.9205  2.2633  0.8094
  112DG     H16 2569   4.382   4.123   1.273 -0.5629  0.7992  2.8907
  112DG     C17 2570   4.036   3.937   1.166 -0.7410  0.6224 -0.5135
  112DG     C18 2571   4.272   3.975   1.142 -0.0885 -0.3008  0.1480
  112DG     O19 2572   4.145   4.024   1.179 -0.0984 -0.9637  0.6914
  112DG     H20 2573   4.010   3.903   1.061  0.9205 -2.1382 -1.9114
  112DG     H21 2574   4.067   3.837   1.215 -0.5211 -0.9010  2.6088
  112DG     H22 2575   4.263   3.957   1.037 -0.9836  1.7440  0.1421
  112DG     H23 2576   4.302   3.881   1.190  0.6021 -1.8614 -1.4513
  113DG      C1 2577   4.518   2.923   0.491  0.0662 -0.4668  0.2170
  113DG      C2 2578   3.852   3.156   0.935 -0.1753  1.1104 -0.9370
  113DG      H3 2579   4.478   2.840   0.433 -1.3700  0.4923  0.2170
  113DG      H4 2580   4.590   2.888   0.559 -0.3270 -1.4153  0.0050
  113DG      H5 2581   4.568   2.989   0.424  0.4548  2.0827 -0.5095
  113DG      H6 2582   3.787   3.238   0.887  0.0099 -0.4695  1.7498
  113DG      H7 2583   3.804   3.062   0.905  0.4105 -3.4671  0.2704
  113DG      H8 2584   3.847   3.156   1.036 -0.8807 -1.5463 -0.4104
  113DG      O9 2585   4.416   3.005   0.550 -0.2072  0.0114  0.5650
  113DG     O10 2586   3.986   3.181   0.894  0.0510  0.1252 -0.1645
  113DG     C11 2587   4.458   3.077   0.663 -0.0382  0.0861 -0.0714
  113DG     C12 2588   4.012   3.204   0.761  0.5688 -0.8223  1.3819
  113DG     H13 2589   4.562   3.112   0.656  0.6626  0.6098  0.0230
  113DG     H14 2590   4.456   3.021   0.759  0.1475 -4.1487  1.6881
  113DG     H15 2591   3.942   3.276   0.725  0.6401  2.5706 -0.2376
  113DG     H16 2592   3.995   3.112   0.696  2.2697 -1.9639 -1.4112
  113DG     C17 2593   4.373   3.206   0.671  0.2063  0.6269 -0.4508
  113DG     C18 2594   4.153   3.267   0.729  0.0460 -0.3729 -0.2661
  113DG     O19 2595   4.245   3.158   0.721  0.0406 -0.1902  0.2995
  113DG     H20 2596   4.376   3.251   0.574  0.2381 -0.5657  2.6906
  113DG     H21 2597   4.404   3.277   0.746  2.0268 -1.1798  3.0127
  113DG     H22 2598   4.147   3.309   0.633 -2.6331  0.1071 -1.2868
  113DG     H23 2599   4.178   3.336   0.816 -0.8565  0.1705 -0.6332
  114DG      C1 2600   2.338   1.487   0.891  0.2939 -0.4593 -0.2662
  114DG      C2 2601   1.621   1.647   1.218 -0.6033  0.0505  0.3258
  114DG      H3 2602   2.443   1.514   0.923  2.2731 -2.3600  0.1987
  114DG      H4 2603   2.352   1.459   0.787  0.1015 -2.7576  0.3269
  114DG      H5 2604   2.290   1.406   0.948 -4.4458 -0.0989 -1.4502
  114DG      H6 2605   1.599   1.596   1.125 -3.1650 -3.0556  0.5779
  114DG      H7 2606   1.651   1.585   1.298 -0.1556  3.0824 -0.9778
  114DG      H8 2607   1.533   1.689   1.259  1.1463  0.5559 -1.8643
  114DG      O9 2608   2.247   1.604   0.902 -0.2420  0.6718 -0.2246
  114DG     O10 2609   1.715   1.752   1.207 -0.4921  0.1241 -0.3389
  114DG     C11 2610   2.236   1.677   1.022 -1.0013  0.6431  0.5143
  114DG     C12 2611   1.844   1.710   1.161 -0.9210  0.1502 -0.1107
  114DG     H13 2612   2.304   1.755   1.043 -0.5283 -0.1366 -0.4916
  114DG     H14 2613   2.241   1.613   1.110 -1.1650  0.1940 -2.5169
  114DG     H15 2614   1.844   1.660   1.067 -1.1401  0.9402  1.6635
  114DG     H16 2615   1.882   1.643   1.237 -0.9416 -1.2421  0.5309
  114DG     C17 2616   2.105   1.749   1.009  0.0573 -0.6128 -0.6522
  114DG     C18 2617   1.933   1.839   1.158  0.0285  0.4094 -0.1510
  114DG     O19 2618   2.070   1.808   1.136 -0.3850  0.4896 -0.1406
  114DG     H20 2619   2.033   1.674   0.979  0.5009 -2.9845 -0.1890
  114DG     H21 2620   2.110   1.826   0.926  0.6858  0.9084 -0.9091
  114DG     H22 2621   1.890   1.900   1.083  0.3151 -0.2215 -1.8438
  114DG     H23 2622   1.931   1.900   1.247  0.2580 -0.1005  2.7423
  115DG      C1 2623   3.280   5.092   2.006  0.4623 -0.3373  0.0333
  115DG      C2 2624   2.958   4.871   1.307  0.4686  0.3518  0.9235
  115DG      H3 2625   3.392   5.100   1.998  1.0101 -1.7477 -0.4081
  115DG      H4 2626   3.254   5.094   2.111 -0.7339  0.1776 -0.9527
  115DG      H5 2627   3.247   5.183   1.953 -1.0283  4.0308  1.0233
  115DG      H6 2628   3.055   4.909   1.292  0.8915 -0.8378 -0.2122
  115DG      H7 2629   2.944   4.786   1.234 -2.5417  1.2110 -1.3997
  115DG      H8 2630   2.880   4.951   1.296  0.5891 -2.2229 -2.3639
  115DG      O9 2631   3.238   4.973   1.940 -0.5442  0.2560 -0.4173
  115DG     O10 2632   2.949   4.835   1.445  0.4660 -0.1639 -0.5251
  115DG     C11 2633   3.093   4.961   1.929  0.9012  0.2912  0.9033
  115DG     C12 2634   3.060   4.759   1.493  0.3485  0.0497  0.0402
  115DG     H13 2635   3.069   5.060   1.882 -0.1295  1.6713 -1.4417
  115DG     H14 2636   3.055   4.954   2.031 -0.2609  0.2639  0.4982
  115DG     H15 2637   3.156   4.808   1.467 -0.2346 -0.1312 -0.1896
  115DG     H16 2638   3.056   4.670   1.430  1.4984  1.1239 -2.2222
  115DG     C17 2639   3.039   4.843   1.849  0.1943  0.3611  0.0483
  115DG     C18 2640   3.047   4.729   1.642  0.4470  0.2386 -0.6164
  115DG     O19 2641   3.080   4.851   1.715  0.4176  0.0841 -0.6541
  115DG     H20 2642   2.933   4.830   1.862  2.0714 -0.5791 -0.8280
  115DG     H21 2643   3.096   4.753   1.889  2.0163  0.0097  0.7043
  115DG     H22 2644   2.942   4.693   1.664 -2.2510  0.9447  1.9429
  115DG     H23 2645   3.109   4.647   1.665 -3.1731 -4.5484  1.2532
  116DG      C1 2646   1.996   2.207   4.347 -0.9061  1.0075  0.2845
  116DG      C2 2647   2.247   1.777   4.858 -0.7440 -0.0645  0.2015
  116DG      H3 2648   2.106   2.192   4.337  0.5161 -1.9730  2.2581
  116DG      H4 2649   1.960   2.295   4.401 -1.4195 -1.2752 -0.3592
  116DG      H5 2650   1.952   2.214   4.244 -0.0459  0.6853 -1.7810
  116DG      H6 2651   2.227   1.873   4.904  0.6541  0.1221  0.5690
  116DG      H7 2652   2.238   1.696   4.927  1.8657 -3.1606 -0.8773
  116DG      H8 2653   2.356   1.775   4.831 -0.2043 -0.0920  0.0520
  116DG      O9 2654   1.952   2.087   4.410 -0.1228 -0.0191 -0.2138
  116DG     O10 2655   2.174   1.745   4.745 -0.3504  0.7053 -0.4576
  116DG     C11 2656   1.977   1.969   4.340  0.0365 -0.5979  0.0719
  116DG     C12 2657   2.033   1.735   4.755  0.2540  0.1281 -0.5846
  116DG     H13 2658   2.083   1.956   4.310 -1.4849  1.0286 -0.2605
  116DG     H14 2659   1.915   1.965   4.250  0.9092 -4.2408 -1.2130
  116DG     H15 2660   2.003   1.830   4.801 -1.0413 -2.8727 -2.0625
  116DG     H16 2661   2.008   1.643   4.813 -0.9149 -0.7790 -1.5489
  116DG     C17 2662   1.937   1.847   4.413 -0.3558 -0.3609 -0.0544
  116DG     C18 2663   1.959   1.726   4.621  0.1647  0.2997  0.0572
  116DG     O19 2664   2.005   1.839   4.541 -0.6222  0.1954 -0.6632
  116DG     H20 2665   1.948   1.753   4.361 -0.8126  1.6526 -0.0173
  116DG     H21 2666   1.829   1.843   4.432 -0.4374  0.5687  3.0576
  116DG     H22 2667   1.967   1.626   4.571 -0.5601  0.0660 -0.0109
  116DG     H23 2668   1.858   1.733   4.650  1.9284  1.7752  0.1173
  117DG      C1 2669   1.458   4.165   1.552 -0.1667  0.3307 -0.5722
  117DG      C2 2670   2.189   4.336   1.923  0.1340  0.2119 -0.7062
  117DG      H3 2671   1.363   4.223   1.525 -1.8070  2.5033 -1.0044
  117DG      H4 2672   1.432   4.070   1.608  1.1269 -1.7152 -0.4226
  117DG      H5 2673   1.505   4.143   1.455  2.3331  2.3370  0.1507
  117DG      H6 2674   2.162   4.294   2.022  0.8483 -1.4157 -0.5373
  117DG      H7 2675   2.204   4.248   1.860 -2.3414 -0.3382  0.4008
  117DG      H8 2676   2.278   4.390   1.937  2.0703 -0.2760  0.7276
  117DG      O9 2677   1.552   4.256   1.616 -0.1699  0.0040  0.3567
  117DG     O10 2678   2.105   4.415   1.845 -0.0446  0.0104  0.3590
  117DG     C11 2679   1.573   4.379   1.542 -0.3603 -0.5237  0.0095
  117DG     C12 2680   1.991   4.349   1.790  0.5274  0.2720  0.2806
  117DG     H13 2681   1.482   4.445   1.535  0.4777 -0.4553 -0.0881
  117DG     H14 2682   1.607   4.366   1.437 -1.4031  0.1021 -0.3032
  117DG     H15 2683   1.930   4.288   1.868  0.3311 -1.5694 -0.8891
  117DG     H16 2684   2.025   4.267   1.724  0.3918  0.0789  2.2132
  117DG     C17 2685   1.691   4.458   1.608 -0.0844 -0.1157  0.2754
  117DG     C18 2686   1.895   4.450   1.726 -0.0492 -0.1920 -0.1839
  117DG     O19 2687   1.789   4.377   1.660 -0.1423 -0.0876  0.1302
  117DG     H20 2688   1.660   4.519   1.697 -1.8763 -1.2434  1.6204
  117DG     H21 2689   1.734   4.525   1.534 -0.2344  1.4430  2.6774
  117DG     H22 2690   1.862   4.517   1.801  0.0602  0.2700 -4.2299
  117DG     H23 2691   1.949   4.515   1.664  0.5235  0.1900 -0.3947
  118DG      C1 2692   1.946   0.604   5.371 -0.9940  0.3530 -1.1445
  118DG      C2 2693   2.338   0.913   5.158  0.1709  0.0760  0.3075
  118DG      H3 2694   1.989   0.706   5.367  0.5594  2.5187  1.2299
  118DG      H4 2695   1.865   0.610   5.441  0.1953 -2.3230 -1.5221
  118DG      H5 2696   1.923   0.572   5.266  0.0673 -0.4474 -1.8259
  118DG      H6 2697   2.356   1.022   5.184  0.2284 -0.1754  2.1584
  118DG      H7 2698   2.425   0.869   5.115  0.5903 -0.8275  2.4368
  118DG      H8 2699   2.266   0.920   5.069  4.1544 -0.4605 -0.1691
  118DG      O9 2700   2.046   0.513   5.420 -0.0858 -0.3005  0.2209
  118DG     O10 2701   2.308   0.850   5.276  0.0138  0.0101  0.2757
  118DG     C11 2702   2.087   0.529   5.559  0.1363 -0.3543 -0.0164
  118DG     C12 2703   2.405   0.839   5.373 -0.4079  0.2868  0.0995
  118DG     H13 2704   2.146   0.443   5.573  0.1717  0.3679 -1.3041
  118DG     H14 2705   2.005   0.534   5.633  0.4321 -0.9083 -0.1895
  118DG     H15 2706   2.458   0.933   5.385  0.0953  0.7107  0.9796
  118DG     H16 2707   2.486   0.778   5.334  2.4406 -0.2745  1.2811
  118DG     C17 2708   2.168   0.654   5.587 -0.4490 -0.6762  0.3420
  118DG     C18 2709   2.347   0.793   5.504  0.1225 -0.8859 -0.0155
  118DG     O19 2710   2.257   0.689   5.482  0.0101  0.0102 -0.0548
  118DG     H20 2711   2.221   0.644   5.685  0.2583  1.0755  0.7933
  118DG     H21 2712   2.108   0.732   5.613 -0.5552 -3.4640 -0.2526
  118DG     H22 2713   2.427   0.772   5.575 -1.1750  1.4070 -0.1337
  118DG     H23 2714   2.292   0.879   5.542  0.1082  1.9002 -0.7922
  119DG      C1 2715   3.758   2.163   2.953  0.3598 -0.0049 -0.4344
  119DG      C2 2716   3.704   2.080   2.349 -0.3124 -0.6630  0.4332
  119DG      H3 2717   3.794   2.263   2.928  0.0924 -0.8955  2.5203
  119DG      H4 2718   3.834   2.083   2.967  3.4503 -3.6413 -1.6910
  119DG      H5 2719   3.720   2.184   3.049  0.5563 -0.6487  1.6799
  119DG      H6 2720   3.732   2.182   2.359 -0.1983  1.8642  1.0601
  119DG      H7 2721   3.779   2.017   2.406  0.1522 -1.6145  0.4600
  119DG      H8 2722   3.715   2.038   2.239  1.5482 -1.7119 -2.8277
  119DG      O9 2723   3.653   2.113   2.866  0.1354 -0.4755 -0.0592
  119DG     O10 2724   3.572   2.068   2.401  0.3517  0.0324 -0.4023
  119DG     C11 2725   3.588   1.996   2.901 -0.2684  0.0003 -0.7016
  119DG     C12 2726   3.534   1.937   2.434  0.6979 -0.3610  0.0083
  119DG     H13 2727   3.536   1.993   2.999 -0.6777 -1.2453 -0.2762
  119DG     H14 2728   3.663   1.915   2.905 -0.8326  1.0126  1.1918
  119DG     H15 2729   3.617   1.872   2.439  0.7842 -2.3472 -0.4889
  119DG     H16 2730   3.481   1.898   2.352  0.9055  0.3844  1.7910
  119DG     C17 2731   3.480   1.956   2.790 -0.3469 -0.3917  0.3205
  119DG     C18 2732   3.445   1.932   2.558 -0.6655 -0.0932 -1.0232
  119DG     O19 2733   3.536   1.962   2.661 -0.5856  0.1672 -0.7563
  119DG     H20 2734   3.397   2.021   2.806 -2.0594 -0.5959 -1.3820
  119DG     H21 2735   3.436   1.859   2.816  0.0692 -2.3013  0.7770
  119DG     H22 2736   3.355   1.995   2.558 -1.9557  0.4373  0.6153
  119DG     H23 2737   3.416   1.832   2.581 -0.3002  1.8642 -1.5227
  120DG      C1 2738   5.271   5.011   3.788  0.1039  0.3488  0.5799
  120DG      C2 2739   5.759   4.573   3.781  0.4999  0.7416  0.4303
  120DG      H3 2740   5.190   5.047   3.855 -0.1039  0.0691  1.6014
  120DG      H4 2741   5.229   5.033   3.691 -0.7060 -0.5128  1.8486
  120DG      H5 2742   5.346   5.080   3.800 -1.2750  0.9663 -1.3519
  120DG      H6 2743   5.768   4.586   3.673  2.6416  0.4896  1.5253
  120DG      H7 2744   5.805   4.666   3.826  0.5248 -3.0540 -1.7684
  120DG      H8 2745   5.810   4.480   3.808  1.7206 -1.4111 -1.9251
  120DG      O9 2746   5.319   4.884   3.807 -0.0824  0.0945 -0.6607
  120DG     O10 2747   5.624   4.579   3.828  0.3119 -0.6960  0.2957
  120DG     C11 2748   5.206   4.791   3.802 -0.3865  0.4456 -0.0438
  120DG     C12 2749   5.557   4.475   3.772 -0.3899 -0.3443  0.6539
  120DG     H13 2750   5.174   4.793   3.693  1.2440  1.4131  0.6896
  120DG     H14 2751   5.127   4.821   3.866 -0.7439  0.0535  2.9239
  120DG     H15 2752   5.602   4.379   3.793 -0.3401  1.0683  1.0061
  120DG     H16 2753   5.565   4.478   3.658 -0.8989  2.2822 -3.1932
  120DG     C17 2754   5.235   4.645   3.840  0.5148  0.1028 -0.2098
  120DG     C18 2755   5.411   4.487   3.816  0.0568 -0.3626  0.2762
  120DG     O19 2756   5.357   4.607   3.776 -0.2124 -0.9236  0.0332
  120DG     H20 2757   5.156   4.582   3.818  2.1597  3.0748 -0.1002
  120DG     H21 2758   5.255   4.643   3.942  0.8319 -1.7812  2.2776
  120DG     H22 2759   5.345   4.402   3.789 -1.4966 -1.0223  1.8129
  120DG     H23 2760   5.413   4.483   3.923 -0.3633  1.0172 -2.7033
  121DG      C1 2761   3.123   3.575   3.316 -0.1552 -0.3807 -0.1606
  121DG      C2 2762   2.538   3.905   3.544  0.0122 -0.0623 -0.1172
  121DG      H3 2763   3.168   3.496   3.255 -0.2309 -1.6181  2.9772
  121DG      H4 2764   3.173   3.578   3.412 -0.4913  0.4375  1.8869
  121DG      H5 2765   3.128   3.677   3.274 -3.1039  0.7904  2.0736
  121DG      H6 2766   2.485   3.972   3.468 -0.5827  1.1466  0.8332
  121DG      H7 2767   2.459   3.885   3.610 -0.6481  0.5036 -1.2218
  121DG      H8 2768   2.615   3.961   3.594 -0.1465  1.4991 -0.3129
  121DG      O9 2769   2.992   3.539   3.339 -0.1208 -0.2197 -0.1416
  121DG     O10 2770   2.587   3.794   3.474  0.0444  0.4588 -0.2408
  121DG     C11 2771   2.919   3.509   3.219 -0.2903  0.0140 -0.1438
  121DG     C12 2772   2.690   3.844   3.394  0.5190  0.0524 -0.6434
  121DG     H13 2773   2.817   3.484   3.256  1.4743  1.2978 -0.4771
  121DG     H14 2774   2.958   3.428   3.160  0.1202  1.1182  2.4192
  121DG     H15 2775   2.773   3.877   3.454 -0.1049  0.4796  1.6126
  121DG     H16 2776   2.650   3.908   3.316  0.7010 -1.5953  1.1158
  121DG     C17 2777   2.886   3.636   3.143 -0.8198 -1.0863 -0.8837
  121DG     C18 2778   2.740   3.720   3.322  0.0860 -0.0416 -0.2339
  121DG     O19 2779   2.860   3.752   3.234 -0.4493 -0.0739 -0.1300
  121DG     H20 2780   2.810   3.631   3.076  0.4814 -1.1810 -0.8778
  121DG     H21 2781   2.973   3.658   3.074  0.1048  0.6332 -1.1892
  121DG     H22 2782   2.768   3.643   3.393 -0.0694  1.1388  1.1277
  121DG     H23 2783   2.655   3.704   3.262 -0.6002  0.9185 -1.9687
  122DG      C1 2784   0.536   3.725   2.582  0.4796  0.2760 -0.2706
  122DG      C2 2785   1.064   3.861   3.380  0.2455 -0.6564  0.7159
  122DG      H3 2786   0.561   3.749   2.478 -0.3684  0.4148 -0.2596
  122DG      H4 2787   0.437   3.766   2.611 -1.2268  0.6684 -1.0423
  122DG      H5 2788   0.515   3.619   2.595 -2.9235  0.8780 -0.1908
  122DG      H6 2789   1.164   3.894   3.412  1.1778  2.4447  0.2820
  122DG      H7 2790   0.996   3.926   3.436  2.1539  0.1078 -1.7766
  122DG      H8 2791   1.052   3.756   3.420 -3.9848 -2.3065  0.0287
  122DG      O9 2792   0.637   3.783   2.653 -0.1642  0.1440 -0.2430
  122DG     O10 2793   1.052   3.861   3.240  0.0658 -0.0764 -0.0415
  122DG     C11 2794   0.661   3.734   2.783 -0.0524  0.3334 -0.0269
  122DG     C12 2795   0.945   3.787   3.188  0.6205  0.5061 -0.3602
  122DG     H13 2796   0.679   3.630   2.784  1.0230 -0.1749  1.2296
  122DG     H14 2797   0.568   3.754   2.836 -2.7604  1.4830 -3.1628
  122DG     H15 2798   0.860   3.795   3.253  0.5698  0.7192 -0.0961
  122DG     H16 2799   0.962   3.680   3.182  1.1287  0.4674 -0.0597
  122DG     C17 2800   0.779   3.810   2.848  0.8353  0.1066  0.2530
  122DG     C18 2801   0.908   3.836   3.045  0.0757  0.3140  0.4113
  122DG     O19 2802   0.802   3.760   2.983  0.2705 -0.0658  0.2345
  122DG     H20 2803   0.753   3.913   2.850  1.4725  0.7794 -0.6432
  122DG     H21 2804   0.867   3.804   2.793 -3.1725  0.1719 -0.6222
  122DG     H22 2805   0.906   3.944   3.052 -1.6778 -1.3814  1.9918
  122DG     H23 2806   0.994   3.825   2.983  0.8436  0.3148 -1.7721
  123DG      C1 2807   2.801   0.713   0.781  0.5381 -0.3746 -0.0080
  123DG      C2 2808   2.192   1.022   0.628  0.4725  0.0817  0.2212
  123DG      H3 2809   2.908   0.729   0.802 -1.1571 -0.6392  0.4156
  123DG      H4 2810   2.786   0.682   0.672  1.4336 -1.2402 -0.8212
  123DG      H5 2811   2.759   0.631   0.842 -0.6465 -0.3650 -1.4356
  123DG      H6 2812   2.193   1.045   0.521  1.0534  1.2360 -0.1015
  123DG      H7 2813   2.158   0.924   0.647 -1.2400 -1.4271  0.1513
  123DG      H8 2814   2.117   1.088   0.678  1.9370  0.1371  0.1379
  123DG      O9 2815   2.726   0.830   0.817 -0.0314 -0.0865 -0.1302
  123DG     O10 2816   2.312   1.043   0.711 -0.0823  0.1471  0.1072
  123DG     C11 2817   2.789   0.961   0.809 -0.3700  0.0762 -1.4448
  123DG     C12 2818   2.379   1.161   0.688 -0.0487  0.1193  0.0750
  123DG     H13 2819   2.823   0.973   0.704 -2.5719 -0.4316 -1.0065
  123DG     H14 2820   2.873   0.966   0.871  0.6031  0.9561 -3.6306
  123DG     H15 2821   2.314   1.249   0.684  1.5701  0.5736 -1.7859
  123DG     H16 2822   2.413   1.148   0.586 -1.2750 -2.0626 -0.1435
  123DG     C17 2823   2.693   1.081   0.835 -0.2953 -0.5184 -0.6527
  123DG     C18 2824   2.499   1.179   0.777  0.7409 -1.1403 -0.7136
  123DG     O19 2825   2.583   1.074   0.752 -0.0357 -0.3134 -0.3623
  123DG     H20 2826   2.750   1.174   0.821  2.2202  1.6602 -0.4290
  123DG     H21 2827   2.669   1.078   0.944  0.6087 -3.1225 -0.8952
  123DG     H22 2828   2.545   1.270   0.757 -0.7418  1.7802  3.0227
  123DG     H23 2829   2.469   1.190   0.881  1.1634  0.0480  2.2265
  124DG      C1 2830   3.699   0.803   4.428 -0.3143  1.1019 -0.2716
  124DG      C2 2831   3.282   0.103   4.723  0.2439 -0.2417 -1.0722
  124DG      H3 2832   3.780   0.750   4.471  0.2612  1.7576  0.7037
  124DG      H4 2833   3.719   0.910   4.445  0.1207  0.7198  4.0602
  124DG      H5 2834   3.698   0.787   4.320 -3.2722 -0.1161 -0.8723
  124DG      H6 2835   3.325   0.048   4.646 -1.1184 -0.9815 -1.4363
  124DG      H7 2836   3.332   0.065   4.813  3.3127 -0.8647 -0.4003
  124DG      H8 2837   3.173   0.081   4.727  2.3265 -1.1503 -1.1979
  124DG      O9 2838   3.576   0.779   4.488  0.3338 -0.2176 -0.3430
  124DG     O10 2839   3.307   0.239   4.704  0.4752  0.0686 -0.0301
  124DG     C11 2840   3.531   0.645   4.471 -0.4852  0.2284 -0.4537
  124DG     C12 2841   3.229   0.306   4.611  0.1294 -0.4190 -0.3423
  124DG     H13 2842   3.610   0.576   4.507  1.8526 -0.4351 -1.0357
  124DG     H14 2843   3.505   0.627   4.369 -1.6916  0.9267  1.9011
  124DG     H15 2844   3.122   0.280   4.609 -3.3754  3.1253  2.0256
  124DG     H16 2845   3.269   0.269   4.521  0.7237 -0.0108  2.9175
  124DG     C17 2846   3.404   0.631   4.560  0.4376  0.5621  0.6358
  124DG     C18 2847   3.252   0.452   4.618 -0.2912 -0.8186  0.2362
  124DG     O19 2848   3.370   0.495   4.548  0.0841  0.2841 -0.1852
  124DG     H20 2849   3.316   0.695   4.533 -1.2425  0.0538 -2.7286
  124DG     H21 2850   3.419   0.648   4.668 -2.2005 -1.2242 -0.2224
  124DG     H22 2851   3.169   0.503   4.561 -0.0248 -0.6560 -0.8516
  124DG     H23 2852   3.260   0.481   4.721 -2.7107  2.5623  1.0310
  125DG      C1 2853   3.423   3.614   1.967 -0.0378 -0.0329  0.5027
  125DG      C2 2854   3.169   2.991   2.048  0.1205 -0.1447 -0.0756
  125DG      H3 2855   3.408   3.719   2.001  0.5995  1.6536 -1.5143
  125DG      H4 2856   3.453   3.622   1.868 -1.0173 -0.4273 -0.1478
  125DG      H5 2857   3.503   3.559   2.021 -2.3803 -0.9019 -3.7780
  125DG      H6 2858   3.276   2.965   2.052  2.8310  1.5804 -3.4281
  125DG      H7 2859   3.125   3.010   2.150 -2.4701 -1.0028 -4.4351
  125DG      H8 2860   3.123   2.908   2.006  0.5981  1.7766 -2.4073
  125DG      O9 2861   3.309   3.527   1.967  0.2264  0.3741  0.4266
  125DG     O10 2862   3.154   3.111   1.976  0.3589  0.2270  0.3586
  125DG     C11 2863   3.197   3.588   1.907  0.0060 -0.5117 -0.1980
  125DG     C12 2864   3.031   3.177   1.989  0.2698  0.8441  0.0519
  125DG     H13 2865   3.216   3.592   1.801  2.4107  2.8938  1.4441
  125DG     H14 2866   3.169   3.686   1.947  0.5022 -0.2938 -0.6566
  125DG     H15 2867   3.036   3.234   2.081  2.9430  0.4780 -0.8868
  125DG     H16 2868   2.945   3.106   2.004  1.2576  0.2329  1.0308
  125DG     C17 2869   3.077   3.485   1.922  0.1854  0.1427  0.4986
  125DG     C18 2870   3.000   3.267   1.877 -0.3594 -0.0456  0.2519
  125DG     O19 2871   3.104   3.359   1.870 -0.2905  0.2467  0.1804
  125DG     H20 2872   2.988   3.530   1.870  1.2411 -1.9561 -0.0244
  125DG     H21 2873   3.061   3.466   2.032  0.6191  0.4854  0.5103
  125DG     H22 2874   3.005   3.220   1.778 -1.0110  2.8247 -3.3827
  125DG     H23 2875   2.902   3.302   1.898  1.2601  0.1006 -0.9423
  126DG      C1 2876   5.010   1.842   0.860 -1.0908  0.1225 -0.8339
  126DG      C2 2877   5.322   1.161   1.131 -0.5332 -0.4960 -0.2522
  126DG      H3 2878   5.111   1.851   0.802 -1.3199 -1.3490 -1.4396
  126DG      H4 2879   5.010   1.916   0.943 -0.2491  1.0070 -2.1478
  126DG      H5 2880   4.923   1.871   0.795  0.2084  0.6657  0.3450
  126DG      H6 2881   5.342   1.212   1.232  0.1962 -3.2356  1.0399
  126DG      H7 2882   5.347   1.054   1.148  1.1481 -0.4872 -0.7190
  126DG      H8 2883   5.386   1.205   1.053  1.5007 -1.3610  1.8692
  126DG      O9 2884   4.976   1.709   0.905  0.1252  0.3971  0.1599
  126DG     O10 2885   5.183   1.164   1.100  0.2915  0.2467 -0.1324
  126DG     C11 2886   4.942   1.613   0.804 -0.0983 -0.7955 -0.0507
  126DG     C12 2887   5.133   1.299   1.073 -0.2510 -1.1165 -0.2187
  126DG     H13 2888   5.021   1.615   0.723 -1.5202 -0.7841  2.4852
  126DG     H14 2889   4.839   1.640   0.765 -0.8625  1.2103  1.6683
  126DG     H15 2890   5.204   1.380   1.082  1.4294  1.2307 -2.1894
  126DG     H16 2891   5.046   1.321   1.140  1.1568 -0.8481  3.7569
  126DG     C17 2892   4.932   1.475   0.874  0.2575  0.2552 -0.3840
  126DG     C18 2893   5.096   1.302   0.927 -0.2652 -0.5210 -0.3393
  126DG     O19 2894   5.068   1.440   0.888 -0.1027  0.0190 -0.1339
  126DG     H20 2895   4.873   1.411   0.811 -0.6370  2.1437  2.3446
  126DG     H21 2896   4.891   1.477   0.970  0.6854 -0.2622 -0.3922
  126DG     H22 2897   5.171   1.277   0.851  2.6752  3.0145 -2.7900
  126DG     H23 2898   5.012   1.238   0.901  1.2191  0.2426 -0.4901
  127DG      C1 2899   3.911   2.309   0.322  0.3611  0.4413 -0.1839
  127DG      C2 2900   3.710   1.975   0.950 -0.0851 -0.4311 -0.4981
  127DG      H3 2901   4.006   2.340   0.366  1.4207 -0.2802 -0.3900
  127DG      H4 2902   3.868   2.397   0.278 -0.8785 -0.9541  0.4809
  127DG      H5 2903   3.935   2.243   0.237 -0.2833  0.9694  0.2789
  127DG      H6 2904   3.764   2.067   0.981  1.5001 -2.3073 -1.6613
  127DG      H7 2905   3.629   1.957   1.025 -0.4612 -1.0251 -0.3275
  127DG      H8 2906   3.785   1.893   0.949  0.1937 -0.9793 -0.8815
  127DG      O9 2907   3.819   2.244   0.417 -0.3295  0.2265 -0.4757
  127DG     O10 2908   3.664   1.987   0.815  0.1362 -0.0008  0.5805
  127DG     C11 2909   3.688   2.267   0.391 -0.5585 -0.4314  0.1560
  127DG     C12 2910   3.561   2.082   0.806 -0.1122 -0.1566  0.0345
  127DG     H13 2911   3.679   2.287   0.280 -0.9987  0.8379 -0.5567
  127DG     H14 2912   3.658   2.356   0.457  1.2504  2.7083  1.0714
  127DG     H15 2913   3.594   2.176   0.863  0.9178 -0.7814 -0.6411
  127DG     H16 2914   3.468   2.061   0.858  1.2485  0.1840 -0.2273
  127DG     C17 2915   3.604   2.157   0.444  0.6014  0.0223  0.4786
  127DG     C18 2916   3.529   2.097   0.660  0.4088 -0.8659 -0.2792
  127DG     O19 2917   3.641   2.138   0.583 -0.0177  0.7510  0.3148
  127DG     H20 2918   3.639   2.056   0.405 -0.2668 -0.6646  0.8937
  127DG     H21 2919   3.497   2.173   0.426 -1.4200  1.1551  2.2443
  127DG     H22 2920   3.490   1.998   0.631 -1.5601  1.5455  0.3425
  127DG     H23 2921   3.449   2.176   0.661 -1.0632  0.6051  0.4366
  128DG      C1 2922   3.050   1.184   0.979  0.4559  0.1085 -0.4170
  128DG      C2 2923   2.972   0.921   0.252  0.5212 -0.8504  0.4949
  128DG      H3 2924   2.993   1.265   0.936 -1.0975 -4.3327 -1.9630
  128DG      H4 2925   3.117   1.236   1.046  0.6173  0.8879  2.7422
  128DG      H5 2926   2.985   1.122   1.036 -1.4318  2.7587 -3.1638
  128DG      H6 2927   2.979   0.825   0.198 -0.5323 -1.0558 -0.4727
  128DG      H7 2928   2.873   0.926   0.294  0.7600 -0.6497  1.2441
  128DG      H8 2929   2.994   1.006   0.186  1.3674  1.0227  1.1184
  128DG      O9 2930   3.101   1.112   0.871 -0.1184 -0.3393  0.5721
  128DG     O10 2931   3.067   0.909   0.357  0.0013 -0.4895  0.4141
  128DG     C11 2932   3.166   0.984   0.898 -0.7107  0.2422 -0.2919
  128DG     C12 2933   3.040   0.805   0.448  0.7413 -0.1430  0.1489
  128DG     H13 2934   3.116   0.930   0.970  1.5631  1.0004 -1.9835
  128DG     H14 2935   3.254   1.009   0.947 -2.1352 -4.0681 -1.7262
  128DG     H15 2936   3.068   0.714   0.389  2.5669  0.3656 -0.4270
  128DG     H16 2937   2.933   0.796   0.481  1.4615 -1.4742  1.8968
  128DG     C17 2938   3.200   0.912   0.768 -0.3479  0.5666  0.2964
  128DG     C18 2939   3.132   0.810   0.569 -0.1454 -0.6033 -0.1358
  128DG     O19 2940   3.090   0.891   0.682 -0.2424 -0.2748 -0.0061
  128DG     H20 2941   3.241   0.815   0.796  0.7760  0.5157  2.1399
  128DG     H21 2942   3.276   0.971   0.707 -0.2706  0.7202 -0.9562
  128DG     H22 2943   3.151   0.706   0.612 -2.0895 -0.7749  0.4448
  128DG     H23 2944   3.225   0.852   0.534  2.8864 -0.5534 -0.4199
  129DG      C1 2945   0.029   4.733   0.880  0.1877 -0.6096 -0.1008
  129DG      C2 2946  -0.092   4.292   1.418 -0.1143 -0.0490  0.0340
  129DG      H3 2947  -0.064   4.709   0.824 -0.4564 -1.0238 -1.1825
  129DG      H4 2948   0.103   4.662   0.858  0.6192  1.0980 -3.4173
  129DG      H5 2949   0.057   4.829   0.844 -1.9767 -1.2538  2.1278
  129DG      H6 2950  -0.137   4.238   1.501  0.3106 -0.0297 -1.7530
  129DG      H7 2951  -0.156   4.247   1.336  0.9191  0.5392 -1.9119
  129DG      H8 2952   0.010   4.256   1.408  0.7560 -1.3737 -0.9139
  129DG      O9 2953  -0.016   4.735   1.013 -0.6449 -0.2424  0.3292
  129DG     O10 2954  -0.097   4.434   1.411 -0.2373 -0.4371  0.6503
  129DG     C11 2955   0.094   4.774   1.091 -0.0715  0.1797  0.2009
  129DG     C12 2956  -0.027   4.506   1.507  0.6092 -0.8158  0.0454
  129DG     H13 2957   0.119   4.884   1.074  0.6829  0.7701  1.4931
  129DG     H14 2958   0.186   4.720   1.076  1.8346  0.0247 -0.7407
  129DG     H15 2959   0.077   4.459   1.509 -0.2034  2.0380 -4.1984
  129DG     H16 2960  -0.072   4.507   1.615  1.4580 -1.1686 -2.3439
  129DG     C17 2961   0.065   4.761   1.240  0.0499 -0.4432  1.6154
  129DG     C18 2962   0.000   4.648   1.439  0.6258 -0.0567  0.6050
  129DG     O19 2963   0.040   4.636   1.297  0.4668  0.1453 -0.4541
  129DG     H20 2964  -0.015   4.830   1.259  1.7321 -0.2167 -1.0528
  129DG     H21 2965   0.154   4.804   1.289 -2.7636 -0.6918  0.7949
  129DG     H22 2966  -0.091   4.702   1.449  0.0530 -2.0400 -0.5921
  129DG     H23 2967   0.080   4.697   1.502 -2.4128  1.2449  0.6181
  130DG      C1 2968   2.462   5.026   1.026  0.4741 -0.1250  0.2495
  130DG      C2 2969   2.047   4.803   1.443 -0.7415  0.4949 -0.7725
  130DG      H3 2970   2.382   4.983   0.973 -1.4619  2.1075 -0.0793
  130DG      H4 2971   2.558   5.046   0.964 -2.9722 -1.6158  1.3995
  130DG      H5 2972   2.422   5.124   1.043  0.1507 -0.5502 -0.9237
  130DG      H6 2973   2.050   4.907   1.419  1.3708 -1.0759  0.7516
  130DG      H7 2974   1.972   4.763   1.390  1.8251  1.0023  1.7173
  130DG      H8 2975   2.018   4.793   1.551  0.1017 -0.0350 -0.4215
  130DG      O9 2976   2.484   4.963   1.151 -0.3009 -0.0698  0.5975
  130DG     O10 2977   2.167   4.739   1.406  0.3233 -0.1040 -0.3595
  130DG     C11 2978   2.537   4.834   1.127  0.2267  0.0887  0.0038
  130DG     C12 2979   2.177   4.715   1.274  0.3922  0.5630  0.7128
  130DG     H13 2980   2.629   4.838   1.075 -0.9893 -0.2370 -0.2305
  130DG     H14 2981   2.469   4.786   1.062 -2.4383  0.6112  0.1391
  130DG     H15 2982   2.168   4.807   1.212  0.3763 -0.0335 -0.3488
  130DG     H16 2983   2.096   4.640   1.257 -1.3253  0.8957 -1.6960
  130DG     C17 2984   2.532   4.740   1.247 -0.7058  0.0946 -0.0820
  130DG     C18 2985   2.314   4.645   1.252  0.9828 -0.1114  0.1095
  130DG     O19 2986   2.405   4.746   1.289  0.1092  0.4901  0.2125
  130DG     H20 2987   2.601   4.773   1.322 -2.7035  0.7239  2.0281
  130DG     H21 2988   2.546   4.634   1.218 -1.3746 -1.5276 -0.2095
  130DG     H22 2989   2.322   4.550   1.308 -0.7403 -3.1771  2.6774
  130DG     H23 2990   2.302   4.623   1.141 -1.3840 -0.7219 -0.0818
  131DG      C1 2991   1.217   4.377   0.065  0.0951 -0.0103  0.8606
  131DG      C2 2992   1.510   4.750   0.645 -0.1100  0.1611  0.0841
  131DG      H3 2993   1.125   4.435   0.062 -0.9266 -0.8959  1.3044
  131DG      H4 2994   1.198   4.265   0.053 -0.1834 -0.8592 -0.4280
  131DG      H5 2995   1.288   4.403  -0.013  1.1198  0.6239  0.2539
  131DG      H6 2996   1.419   4.804   0.667  0.8144 -0.3001  0.2553
  131DG      H7 2997   1.549   4.745   0.751  2.6016  1.1394  1.8263
  131DG      H8 2998   1.578   4.813   0.587 -1.1913  1.5478  2.4222
  131DG      O9 2999   1.290   4.397   0.184  0.2820  0.1498  0.4443
  131DG     O10 3000   1.488   4.625   0.584 -0.4837 -0.1339 -0.8038
  131DG     C11 3001   1.409   4.316   0.198 -0.0095 -0.1445  0.7530
  131DG     C12 3002   1.611   4.551   0.578 -0.4542 -0.8187  0.2201
  131DG     H13 3003   1.490   4.347   0.132  0.3730 -1.4271 -0.8599
  131DG     H14 3004   1.385   4.217   0.154 -3.5318  1.0242  0.1789
  131DG     H15 3005   1.647   4.533   0.680 -2.0062  2.8811 -0.4897
  131DG     H16 3006   1.693   4.605   0.525 -1.6500  0.5351 -1.8110
  131DG     C17 3007   1.454   4.311   0.340 -0.3048 -0.5909 -0.7740
  131DG     C18 3008   1.572   4.423   0.511  0.0752  0.6730  0.0752
  131DG     O19 3009   1.497   4.440   0.388  0.5895 -0.4316 -0.2385
  131DG     H20 3010   1.533   4.239   0.360  1.7937  1.5375 -0.6469
  131DG     H21 3011   1.368   4.294   0.404 -0.2923 -0.7705 -0.3725
  131DG     H22 3012   1.651   4.346   0.505 -1.1374 -0.1558 -1.7070
  131DG     H23 3013   1.500   4.374   0.580  0.2458 -2.2560  1.3894
  132DG      C1 3014   1.638   2.702   4.448  0.0479 -0.1822  0.3611
  132DG      C2 3015   2.458   2.393   4.362  0.3521 -0.1054  0.3525
  132DG      H3 3016   1.614   2.757   4.542  1.0367  2.1668 -0.8047
  132DG      H4 3017   1.591   2.603   4.452  0.6407 -0.3825 -0.6295
  132DG      H5 3018   1.603   2.766   4.365 -2.8948  0.7645  0.6494
  132DG      H6 3019   2.556   2.436   4.364 -3.4225  0.1972 -1.6813
  132DG      H7 3020   2.444   2.305   4.428 -0.0894 -1.1952  0.6378
  132DG      H8 3021   2.446   2.372   4.252  1.0372  0.7502 -1.5336
  132DG      O9 3022   1.779   2.697   4.449 -0.0439 -0.8151  0.4176
  132DG     O10 3023   2.369   2.494   4.395  0.1399 -0.0049  0.1312
  132DG     C11 3024   1.834   2.623   4.337  0.5187 -0.4796  0.4721
  132DG     C12 3025   2.248   2.447   4.449  0.0323  0.6880 -0.1940
  132DG     H13 3026   1.806   2.676   4.239  1.3989  1.3163 -1.0546
  132DG     H14 3027   1.782   2.529   4.342  2.6576  3.4195  4.1781
  132DG     H15 3028   2.273   2.388   4.543  1.8025  0.0197  1.1516
  132DG     H16 3029   2.202   2.382   4.385  2.4465 -0.4830 -2.8891
  132DG     C17 3030   1.980   2.599   4.350  0.1494 -0.6573 -0.1864
  132DG     C18 3031   2.158   2.561   4.507 -0.8111  0.2061  0.2439
  132DG     O19 3032   2.017   2.543   4.473  0.0396 -0.3886  0.3183
  132DG     H20 3033   2.019   2.701   4.344 -0.6488 -0.9905 -0.5419
  132DG     H21 3034   2.008   2.536   4.262 -0.2095  1.1304 -0.7383
  132DG     H22 3035   2.174   2.560   4.612  0.5040 -0.8376 -0.9304
  132DG     H23 3036   2.202   2.657   4.477 -1.0098 -1.4388 -2.8166
  133DG      C1 3037   2.388   5.137   4.302  0.4651  0.3901 -0.3627
  133DG      C2 3038   2.416   4.928   4.893  0.1892 -0.3202 -0.0695
  133DG      H3 3039   2.472   5.073   4.288  0.2789 -0.8652 -1.8717
  133DG      H4 3040   2.361   5.209   4.225  1.5085 -2.5189  0.4196
  133DG      H5 3041   2.300   5.072   4.315  1.8818 -1.2866 -2.4729
  133DG      H6 3042   2.382   4.975   4.982  0.2120 -0.2136  2.6567
  133DG      H7 3043   2.338   4.868   4.844  0.8746 -1.0327  0.0041
  133DG      H8 3044   2.486   4.861   4.932 -1.4120  0.8380  1.0049
  133DG      O9 3045   2.398   5.206   4.425 -0.7147  0.6242  0.0384
  133DG     O10 3046   2.459   5.021   4.793 -0.2596 -0.2119  0.3977
  133DG     C11 3047   2.516   5.281   4.446  0.0931  0.0769 -0.3413
  133DG     C12 3048   2.560   5.099   4.852  0.3830 -0.5944 -0.3310
  133DG     H13 3049   2.514   5.357   4.365 -0.9278  0.7957 -0.1407
  133DG     H14 3050   2.601   5.217   4.432 -1.7794 -0.5614 -1.5585
  133DG     H15 3051   2.644   5.040   4.890  1.6477  0.6479  2.7996
  133DG     H16 3052   2.520   5.157   4.938  1.1446 -0.9114  1.0123
  133DG     C17 3053   2.507   5.354   4.579 -0.3985 -0.1740 -0.2476
  133DG     C18 3054   2.603   5.203   4.743 -0.4363 -0.4913  0.3673
  133DG     O19 3055   2.485   5.263   4.688  0.2142 -0.4096  0.1763
  133DG     H20 3056   2.417   5.407   4.569 -0.3088 -0.4993 -0.4204
  133DG     H21 3057   2.583   5.434   4.601  1.2272 -0.6752  0.2388
  133DG     H22 3058   2.659   5.273   4.801  0.6718 -1.9220 -1.5209
  133DG     H23 3059   2.667   5.165   4.664 -2.1472 -1.0887  0.0632
  134DG      C1 3060   1.818   0.224   2.582  0.1960  0.3670 -0.6516
  134DG      C2 3061   1.768  -0.076   1.972  0.6006 -0.1594  0.3017
  134DG      H3 3062   1.901   0.286   2.607 -3.9506  2.2925  1.8902
  134DG      H4 3063   1.841   0.121   2.601 -0.3325  1.7019 -2.2786
  134DG      H5 3064   1.729   0.247   2.643 -1.9285 -2.3311 -0.9972
  134DG      H6 3065   1.841  -0.148   2.020 -1.4356  0.8867  0.6335
  134DG      H7 3066   1.675  -0.129   1.938  0.9242 -0.2917 -2.3603
  134DG      H8 3067   1.814  -0.035   1.882 -0.7638  1.6769  1.6828
  134DG      O9 3068   1.766   0.228   2.445 -0.0356  0.3983 -0.4699
  134DG     O10 3069   1.719   0.032   2.054 -0.1498  0.2445 -0.6235
  134DG     C11 3070   1.704   0.353   2.412  0.6438  0.1129  0.5139
  134DG     C12 3071   1.679   0.144   1.978 -0.5058  0.0066 -0.0692
  134DG     H13 3072   1.777   0.430   2.391 -0.6830  0.0300 -0.0610
  134DG     H14 3073   1.634   0.388   2.492  0.1980  3.2871 -0.6035
  134DG     H15 3074   1.618   0.122   1.896  1.5846  0.1239  0.4248
  134DG     H16 3075   1.774   0.178   1.933 -2.2546 -0.7259  2.6352
  134DG     C17 3076   1.608   0.338   2.285 -0.0289 -0.3978  0.9325
  134DG     C18 3077   1.615   0.246   2.065  0.1251  0.3717  0.6866
  134DG     O19 3078   1.671   0.241   2.194  0.7508 -0.0715  0.5089
  134DG     H20 3079   1.584   0.433   2.245 -0.6695  1.8548  1.3917
  134DG     H21 3080   1.516   0.292   2.314  0.8776 -2.0290 -0.3739
  134DG     H22 3081   1.613   0.353   2.032  0.4921  0.4842  1.5828
  134DG     H23 3082   1.506   0.233   2.069 -0.7644 -0.6105 -0.9121
  135DG      C1 3083   4.993   5.063   3.088 -0.4309  0.0498  0.7396
  135DG      C2 3084   4.787   4.720   3.893 -0.0800  0.2825 -0.1397
  135DG      H3 3085   5.062   5.062   3.005 -1.9168  0.0138  0.6591
  135DG      H4 3086   5.059   5.102   3.167 -1.7274  1.4839 -2.4833
  135DG      H5 3087   4.918   5.143   3.069  2.7785  1.5992  3.4651
  135DG      H6 3088   4.842   4.709   3.986  0.4753 -2.1040 -0.3288
  135DG      H7 3089   4.684   4.741   3.910  3.5656  0.5582 -1.6366
  135DG      H8 3090   4.798   4.615   3.859  2.1490 -1.1020  2.0280
  135DG      O9 3091   4.951   4.929   3.109  0.1199  0.5243  0.2796
  135DG     O10 3092   4.844   4.815   3.809  0.3888 -0.1496 -0.2788
  135DG     C11 3093   4.857   4.910   3.216 -0.1044  0.0952 -0.4966
  135DG     C12 3094   4.784   4.818   3.682 -0.4638 -0.3064  0.1021
  135DG     H13 3095   4.807   4.815   3.205 -0.2771 -1.6963  0.2821
  135DG     H14 3096   4.775   4.987   3.201  0.6894 -1.6017  0.6438
  135DG     H15 3097   4.702   4.880   3.687  1.8644 -1.3660  0.9854
  135DG     H16 3098   4.749   4.720   3.656  2.0098  2.7114 -0.8462
  135DG     C17 3099   4.927   4.923   3.357  0.6099 -0.4609  0.8471
  135DG     C18 3100   4.892   4.863   3.584 -0.2510 -0.2503  0.1018
  135DG     O19 3101   4.839   4.876   3.453 -0.4645  0.4408  0.2573
  135DG     H20 3102   4.949   5.028   3.377  2.7433 -0.5543  0.1259
  135DG     H21 3103   5.024   4.872   3.369  0.0299 -0.9864  1.1040
  135DG     H22 3104   4.939   4.956   3.609  0.4062 -0.9637 -0.0297
  135DG     H23 3105   4.968   4.787   3.586  0.2270 -1.5455  0.5928
  136DG      C1 3106   0.993   4.891   2.697 -0.0302 -0.0178  0.1118
  136DG      C2 3107   0.725   4.543   3.155 -0.2880 -0.5309 -0.1743
  136DG      H3 3108   1.054   4.917   2.604  1.5219  0.4396 -1.2265
  136DG      H4 3109   1.025   4.947   2.781 -0.9084 -0.2632  0.7908
  136DG      H5 3110   0.888   4.913   2.679  0.3736 -0.1123  0.4001
  136DG      H6 3111   0.725   4.647   3.190  1.2465 -0.4354 -0.0801
  136DG      H7 3112   0.622   4.511   3.149  0.3669  0.7917  1.0599
  136DG      H8 3113   0.776   4.483   3.232  0.5697  2.3690  0.8854
  136DG      O9 3114   1.007   4.757   2.729 -0.2808  0.8328 -0.4776
  136DG     O10 3115   0.790   4.531   3.024 -0.3394  0.0513 -0.1865
  136DG     C11 3116   1.021   4.662   2.618  0.1417  0.2669  0.1303
  136DG     C12 3117   0.770   4.409   2.959 -0.3593  0.1095  0.2121
  136DG     H13 3118   1.108   4.684   2.549 -0.7125  1.7937 -1.2119
  136DG     H14 3119   0.934   4.677   2.561 -1.2138 -0.7014  0.6908
  136DG     H15 3120   0.675   4.406   2.916  2.3874  2.2624 -0.2768
  136DG     H16 3121   0.776   4.318   3.032  1.2961 -2.7079  2.2339
  136DG     C17 3122   1.009   4.525   2.673  0.3418  0.4199 -0.5313
  136DG     C18 3123   0.881   4.406   2.852  0.3594  0.7637  0.4685
  136DG     O19 3124   0.901   4.524   2.771 -0.0735  0.2802 -0.6329
  136DG     H20 3125   1.101   4.500   2.722  0.1636 -1.1204  0.8086
  136DG     H21 3126   0.980   4.447   2.603 -0.2911  0.1700  1.4234
  136DG     H22 3127   0.973   4.373   2.894 -1.1309  1.6961 -0.5833
  136DG     H23 3128   0.854   4.328   2.782 -0.4682  0.7641  1.1430
  137DG      C1 3129   2.015   4.311   0.509  0.7266  0.0484  0.1139
  137DG      C2 3130   2.322   4.569  -0.024  0.1382  0.2004  0.1347
  137DG      H3 3131   2.097   4.320   0.579 -0.2088  1.0601  0.9748
  137DG      H4 3132   2.045   4.229   0.448  0.9836 -0.6033  1.4156
  137DG      H5 3133   1.927   4.272   0.565  1.7762 -0.8125 -0.6417
  137DG      H6 3134   2.396   4.500   0.011  0.7727  0.8996 -0.7737
  137DG      H7 3135   2.275   4.510  -0.102  0.5018  0.4297  1.5529
  137DG      H8 3136   2.381   4.649  -0.076 -0.1999 -0.2472 -1.8263
  137DG      O9 3137   1.999   4.435   0.434 -0.0474  0.4813  0.2441
  137DG     O10 3138   2.219   4.600   0.069  0.3578  0.1527  0.6557
  137DG     C11 3139   2.016   4.549   0.510  0.0288 -0.2067  0.3699
  137DG     C12 3140   2.253   4.718   0.138  0.6611 -0.3544 -0.7501
  137DG     H13 3141   2.106   4.558   0.562 -1.1484 -0.8968 -1.2840
  137DG     H14 3142   1.948   4.557   0.593 -0.0855  1.6356 -0.6928
  137DG     H15 3143   2.247   4.802   0.064 -2.2428  3.2682 -2.2947
  137DG     H16 3144   2.353   4.711   0.184 -1.5561 -0.1006 -3.4569
  137DG     C17 3145   2.020   4.655   0.411  0.4672 -0.4971  0.0132
  137DG     C18 3146   2.152   4.752   0.240  0.0728  0.3494 -0.7836
  137DG     O19 3147   2.114   4.633   0.308 -0.1051  0.6025  0.8260
  137DG     H20 3148   2.023   4.746   0.451  2.1405 -2.7114 -1.7415
  137DG     H21 3149   1.916   4.657   0.369  3.5278  0.1386 -2.1909
  137DG     H22 3150   2.183   4.828   0.313 -0.7386  1.3974  0.5811
  137DG     H23 3151   2.064   4.793   0.185  1.9657  0.1585  0.8799
  138DG      C1 3152   4.534   4.299   4.090  0.0899 -0.2116 -0.2928
  138DG      C2 3153   4.581   3.692   4.436 -0.6227  0.5516  0.4810
  138DG      H3 3154   4.642   4.331   4.090  2.0903  0.4695 -2.4830
  138DG      H4 3155   4.478   4.385   4.066 -1.7920 -0.7325 -3.4935
  138DG      H5 3156   4.512   4.236   4.009  2.9319  2.4131 -0.9795
  138DG      H6 3157   4.681   3.681   4.386  1.6526 -1.0300 -0.7930
  138DG      H7 3158   4.583   3.637   4.524  1.1431 -2.3901 -3.5754
  138DG      H8 3159   4.517   3.657   4.359  1.3323 -0.5780 -0.4606
  138DG      O9 3160   4.497   4.236   4.214 -0.6697  0.2922 -0.5892
  138DG     O10 3161   4.547   3.829   4.463  0.9156 -0.1952  0.5935
  138DG     C11 3162   4.523   4.313   4.335 -0.3970 -0.0925 -0.6809
  138DG     C12 3163   4.632   3.898   4.554 -0.9058  0.0777 -0.2638
  138DG     H13 3164   4.451   4.390   4.338  0.6350 -1.4906  0.4316
  138DG     H14 3165   4.624   4.353   4.334 -0.3411  2.0687 -0.9165
  138DG     H15 3166   4.739   3.898   4.520  1.4897 -1.5833 -1.1406
  138DG     H16 3167   4.628   3.840   4.644  1.2709 -0.0621  4.3182
  138DG     C17 3168   4.509   4.222   4.466 -0.1708  0.1686  0.1294
  138DG     C18 3169   4.576   4.039   4.582  0.2282  0.4683  0.9265
  138DG     O19 3170   4.587   4.107   4.459  0.7798  0.3025  0.3781
  138DG     H20 3171   4.398   4.203   4.477  0.2003  1.2845 -0.0715
  138DG     H21 3172   4.555   4.288   4.543  2.1617 -0.9679 -1.2561
  138DG     H22 3173   4.474   4.023   4.617 -0.3293  0.7414 -1.5763
  138DG     H23 3174   4.632   4.093   4.660  0.7680 -1.4288 -0.5854
  139DG      C1 3175   0.759   3.464   4.148  0.4520 -0.6139 -0.3756
  139DG      C2 3176   0.444   2.904   4.200 -0.0274  0.4520  0.0484
  139DG      H3 3177   0.710   3.565   4.149 -4.1266  0.4618 -0.7945
  139DG      H4 3178   0.847   3.479   4.089  1.0033 -2.3278  0.4581
  139DG      H5 3179   0.794   3.422   4.252 -0.0729 -3.0816  2.6262
  139DG      H6 3180   0.507   2.905   4.287 -1.1752  0.2375 -1.6938
  139DG      H7 3181   0.346   2.875   4.227  1.0778 -2.4655 -2.0204
  139DG      H8 3182   0.478   2.828   4.124 -0.6770  0.3236  0.9271
  139DG      O9 3183   0.657   3.378   4.091  0.1905 -0.2700 -0.3781
  139DG     O10 3184   0.436   3.031   4.140 -0.4823  0.3981 -0.2782
  139DG     C11 3185   0.638   3.396   3.950  0.7387 -0.0598 -0.2965
  139DG     C12 3186   0.381   3.029   4.007  0.8198 -0.3432  0.7033
  139DG     H13 3187   0.741   3.397   3.896  0.1408  0.0977 -4.1766
  139DG     H14 3188   0.575   3.486   3.924 -1.9856  3.8666 -1.8436
  139DG     H15 3189   0.281   2.978   4.010  0.0366  0.2590 -0.2889
  139DG     H16 3190   0.440   2.968   3.937  0.3917  1.0063 -0.1417
  139DG     C17 3191   0.553   3.283   3.903  0.3309  0.0734  0.3460
  139DG     C18 3192   0.345   3.170   3.953 -0.0943 -0.0993  0.2029
  139DG     O19 3193   0.437   3.275   3.983 -0.4117 -0.4932 -0.3398
  139DG     H20 3194   0.615   3.191   3.913  0.6275 -0.9942  0.2733
  139DG     H21 3195   0.538   3.309   3.798  2.3539 -1.4305  1.5262
  139DG     H22 3196   0.343   3.174   3.846 -0.9220 -1.5396 -2.5346
  139DG     H23 3197   0.248   3.197   3.979  2.6652 -0.8375  3.2457
  140DG      C1 3198   2.307   2.412   0.588  0.2095  0.0285  0.0671
  140DG      C2 3199   2.320   2.805   0.718  0.2110  0.4516  0.1030
  140DG      H3 3200   2.317   2.477   0.675  0.2543  1.7549 -1.4378
  140DG      H4 3201   2.383   2.336   0.586  1.4230  0.5814 -0.8525
  140DG      H5 3202   2.205   2.375   0.582 -0.8298  1.8713  1.1173
  140DG      H6 3203   2.418   2.770   0.715  1.1763 -0.2847 -1.1281
  140DG      H7 3204   2.307   2.873   0.805 -2.5776  1.5909 -1.8319
  140DG      H8 3205   2.258   2.711   0.720  2.9204  0.9908 -0.0231
  140DG      O9 3206   2.331   2.513   0.489 -0.3141 -0.0157  0.0819
  140DG     O10 3207   2.290   2.876   0.595 -0.1623 -0.4334  0.3011
  140DG     C11 3208   2.466   2.526   0.459  0.2005 -0.0435  0.3400
  140DG     C12 3209   2.402   2.943   0.535 -0.9863  0.5025 -0.1793
  140DG     H13 3210   2.510   2.426   0.442 -3.7837 -1.5549 -0.0033
  140DG     H14 3211   2.523   2.559   0.553  4.1108  3.8731 -0.2940
  140DG     H15 3212   2.454   3.002   0.610  1.8032  0.7862 -0.5313
  140DG     H16 3213   2.356   3.012   0.466 -1.7941  0.5533 -1.7654
  140DG     C17 3214   2.488   2.632   0.349 -0.3153  0.7650  0.5470
  140DG     C18 3215   2.499   2.846   0.452  0.5067  0.1293  0.7849
  140DG     O19 3216   2.424   2.756   0.378  0.6114 -0.5716 -0.0190
  140DG     H20 3217   2.446   2.593   0.255  1.0234  0.1791 -0.6835
  140DG     H21 3218   2.593   2.643   0.320 -1.6067  0.2613 -0.2852
  140DG     H22 3219   2.570   2.908   0.392 -0.8426 -1.4309  2.6522
  140DG     H23 3220   2.558   2.794   0.524 -1.4336 -2.7229  1.7592
  141DG      C1 3221   2.181   3.029   5.247  0.1676 -0.9135  0.4418
  141DG      C2 3222   1.599   3.214   4.839  0.0318 -0.8851  1.0989
  141DG      H3 3223   2.209   3.062   5.141 -1.0305  0.9796 -2.7825
  141DG      H4 3224   2.231   2.937   5.277  0.5125 -0.5945 -1.6183
  141DG      H5 3225   2.200   3.119   5.311 -2.9017  1.1548  0.8092
  141DG      H6 3226   1.573   3.301   4.898  0.1167  1.8683 -0.6383
  141DG      H7 3227   1.686   3.252   4.776 -1.0204  1.7574 -2.0522
  141DG      H8 3228   1.515   3.199   4.769 -1.3836 -1.4294 -0.6258
  141DG      O9 3229   2.039   3.005   5.259  0.6299 -0.3803  0.3888
  141DG     O10 3230   1.645   3.099   4.903  0.2429 -0.4070  0.4153
  141DG     C11 3231   1.993   2.895   5.175 -0.0889  0.1522 -0.9008
  141DG     C12 3232   1.578   3.073   5.031 -0.4226  0.2566 -0.9704
  141DG     H13 3233   2.039   2.801   5.199  0.4809  0.0969  1.6724
  141DG     H14 3234   2.011   2.907   5.070  1.5970  2.3511  1.5887
  141DG     H15 3235   1.472   3.056   5.022  0.3443  0.4856  0.7434
  141DG     H16 3236   1.588   3.164   5.088 -0.4841  2.0671  0.0688
  141DG     C17 3237   1.844   2.883   5.201 -0.1134 -0.9625  0.6066
  141DG     C18 3238   1.640   2.965   5.112 -0.0213  0.0920  0.4317
  141DG     O19 3239   1.785   2.984   5.113  0.1297  0.3127  0.7143
  141DG     H20 3240   1.818   2.898   5.304 -0.2020  1.5823 -0.4486
  141DG     H21 3241   1.807   2.787   5.173  2.8162 -1.2534  0.3063
  141DG     H22 3242   1.598   2.967   5.216 -0.5301  1.8334  0.0480
  141DG     H23 3243   1.613   2.871   5.068  0.9094  1.2288  1.2532
  142DG      C1 3244   0.145   0.821   2.111  0.8790 -0.3705 -0.2996
  142DG      C2 3245  -0.400   1.361   2.302  0.4377 -0.0610 -0.8078
  142DG      H3 3246   0.071   0.738   2.088 -1.5069 -3.3703  0.6204
  142DG      H4 3247   0.237   0.762   2.131  1.7092 -2.0034 -0.3431
  142DG      H5 3248   0.152   0.879   2.023 -1.4718  1.4479  2.1924
  142DG      H6 3249  -0.489   1.303   2.277 -0.3941  0.8266 -1.8826
  142DG      H7 3250  -0.414   1.419   2.394  2.3334  1.3662 -0.7837
  142DG      H8 3251  -0.374   1.438   2.234 -1.4980  0.0729  3.1263
  142DG      O9 3252   0.085   0.888   2.225  0.1382  0.0927 -0.0006
  142DG     O10 3253  -0.290   1.281   2.299 -0.3603 -0.0298 -0.3909
  142DG     C11 3254   0.159   1.001   2.267  0.3625 -0.0307 -0.2009
  142DG     C12 3255  -0.172   1.354   2.325 -0.4044 -0.2960 -0.0934
  142DG     H13 3256   0.183   1.066   2.186  2.0629  0.7443  1.4336
  142DG     H14 3257   0.258   0.963   2.305  0.6719 -1.5490 -1.2175
  142DG     H15 3258  -0.191   1.430   2.407 -0.0121  1.9150 -1.6267
  142DG     H16 3259  -0.146   1.404   2.230  0.3454 -1.3108  0.5727
  142DG     C17 3260   0.085   1.091   2.366  0.2297 -0.3773  0.1998
  142DG     C18 3261  -0.061   1.266   2.386 -0.6348 -0.2981 -0.7489
  142DG     O19 3262  -0.019   1.161   2.299 -0.0573 -0.2884  0.1813
  142DG     H20 3263   0.153   1.157   2.412  1.5906 -1.9928  0.2753
  142DG     H21 3264   0.050   1.022   2.447 -1.1987  3.0299 -0.5460
  142DG     H22 3265   0.016   1.334   2.411 -1.6252 -1.5178  0.2900
  142DG     H23 3266  -0.079   1.227   2.491  4.6169  1.1756 -1.7669
  143DG      C1 3267   1.531   3.563   3.697  0.0688  0.2394 -0.0364
  143DG      C2 3268   1.872   3.545   3.011 -0.0381 -0.2181 -0.1910
  143DG      H3 3269   1.625   3.619   3.720  0.6042  1.2087  0.5973
  143DG      H4 3270   1.545   3.463   3.734  0.2437 -0.7425 -1.5488
  143DG      H5 3271   1.463   3.607   3.768  1.7371 -1.5072 -0.3063
  143DG      H6 3272   1.834   3.455   2.960 -0.8631 -2.1684 -0.9247
  143DG      H7 3273   1.831   3.628   2.964  1.7017 -0.5938 -1.6170
  143DG      H8 3274   1.974   3.550   2.994 -0.8210  0.3895  1.6890
  143DG      O9 3275   1.480   3.573   3.562 -0.1965 -0.3598  0.2442
  143DG     O10 3276   1.843   3.542   3.146  0.5347  1.0058 -0.1923
  143DG     C11 3277   1.492   3.705   3.503  0.1647  0.1467 -0.1327
  143DG     C12 3278   1.702   3.518   3.159  0.6472  0.6470  0.0512
  143DG     H13 3279   1.477   3.773   3.588 -0.2323  0.8425  3.2666
  143DG     H14 3280   1.414   3.721   3.422 -1.7935  0.4830  2.5341
  143DG     H15 3281   1.675   3.413   3.134 -1.2596 -0.1100  4.2652
  143DG     H16 3282   1.650   3.581   3.089  1.8733 -0.7074  3.8966
  143DG     C17 3283   1.626   3.748   3.443  0.5827  0.7664 -0.3952
  143DG     C18 3284   1.655   3.547   3.299  0.1578 -0.4663 -0.3312
  143DG     O19 3285   1.657   3.692   3.319 -0.9997 -0.3539 -0.3370
  143DG     H20 3286   1.703   3.692   3.500 -0.1657  0.5610 -0.6312
  143DG     H21 3287   1.636   3.862   3.442  0.0423  0.5624 -1.7519
  143DG     H22 3288   1.559   3.489   3.316 -1.3498  0.5562 -0.4191
  143DG     H23 3289   1.718   3.496   3.367 -2.5263  0.7815 -1.0487
  144DG      C1 3290   4.114   4.496   3.409  0.9071 -0.7810 -0.2882
  144DG      C2 3291   4.540   4.657   3.348  0.4385  0.0637 -0.1791
  144DG      H3 3292   4.067   4.502   3.511  1.7219 -0.0524  0.5207
  144DG      H4 3293   4.025   4.503   3.347  2.0633  0.2244  0.3102
  144DG      H5 3294   4.183   4.577   3.392  2.8104  0.5317  1.5204
  144DG      H6 3295   4.441   4.633   3.400  0.9166  0.4977  2.1914
  144DG      H7 3296   4.623   4.645   3.418 -0.5213  1.2475  1.2389
  144DG      H8 3297   4.530   4.771   3.316  2.0949  4.6115 -4.9470
  144DG      O9 3298   4.178   4.376   3.378  0.3099 -0.8333 -0.4363
  144DG     O10 3299   4.545   4.583   3.221  0.0277 -0.2794  0.0559
  144DG     C11 3300   4.276   4.339   3.471 -1.1282  0.8822 -0.0614
  144DG     C12 3301   4.617   4.460   3.232  0.0877 -0.1179 -0.5064
  144DG     H13 3302   4.225   4.285   3.548 -0.9026  2.7934 -0.6783
  144DG     H14 3303   4.327   4.426   3.520  0.3687  0.1188 -0.7079
  144DG     H15 3304   4.717   4.485   3.252 -0.2345 -3.5874 -1.0096
  144DG     H16 3305   4.622   4.416   3.131  0.8293 -0.5281 -3.1809
  144DG     C17 3306   4.377   4.243   3.397  0.1016  0.1371 -0.2844
  144DG     C18 3307   4.579   4.357   3.338 -0.0077 -0.0430 -0.3829
  144DG     O19 3308   4.453   4.304   3.290 -0.6658 -0.4048  0.0574
  144DG     H20 3309   4.321   4.162   3.356 -3.2030 -1.8139 -2.5785
  144DG     H21 3310   4.441   4.193   3.470 -0.3011 -0.2699  0.5359
  144DG     H22 3311   4.653   4.277   3.344  0.9789  1.7346 -0.1558
  144DG     H23 3312   4.563   4.400   3.438  0.2098  1.9506  0.0332
  145DG      C1 3313   1.495   0.927   2.197 -0.5653  0.9908 -0.5011
  145DG      C2 3314   1.657   1.624   2.225 -0.3071  0.3131 -0.9059
  145DG      H3 3315   1.527   0.825   2.187 -1.2641  2.7094 -2.2277
  145DG      H4 3316   1.462   0.961   2.101  0.3965  1.4608 -2.7253
  145DG      H5 3317   1.403   0.936   2.260  0.0936  0.0035  0.8693
  145DG      H6 3318   1.561   1.640   2.267  0.4339 -1.2176 -1.3247
  145DG      H7 3319   1.718   1.665   2.304 -2.1874 -0.6055 -2.0120
  145DG      H8 3320   1.665   1.679   2.132 -0.4270  2.5066  0.9975
  145DG      O9 3321   1.589   1.019   2.245 -0.1318 -0.1296 -0.4337
  145DG     O10 3322   1.673   1.485   2.206  0.1354 -0.3941 -0.3255
  145DG     C11 3323   1.703   1.011   2.165 -0.0171 -0.2438 -0.1522
  145DG     C12 3324   1.787   1.454   2.134 -0.5337 -0.3104  0.2196
  145DG     H13 3325   1.695   1.037   2.062 -0.7366 -1.7452 -1.8049
  145DG     H14 3326   1.733   0.911   2.165 -0.7036  3.5825  0.5368
  145DG     H15 3327   1.876   1.487   2.184 -1.8578 -1.6478  1.9564
  145DG     H16 3328   1.791   1.511   2.044 -1.1174  2.0344 -1.1126
  145DG     C17 3329   1.823   1.089   2.224  0.0460  0.2764  0.1536
  145DG     C18 3330   1.799   1.300   2.117  0.1552  0.0551 -0.1239
  145DG     O19 3331   1.807   1.228   2.238 -0.1120 -0.6551  0.1779
  145DG     H20 3332   1.912   1.067   2.170  0.3692  0.0008 -1.0396
  145DG     H21 3333   1.845   1.048   2.326  1.3262 -1.4985  0.4992
  145DG     H22 3334   1.725   1.259   2.046  1.1538  0.4904 -2.1171
  145DG     H23 3335   1.901   1.280   2.078  0.4811 -1.7435 -0.8248
  146DG      C1 3336   1.645   0.755   3.104  0.1702  0.1655  0.2597
  146DG      C2 3337   1.359   0.466   2.474  0.8911 -0.3914  0.6042
  146DG      H3 3338   1.663   0.655   3.139 -1.8358  0.6284 -0.0275
  146DG      H4 3339   1.629   0.815   3.192 -0.9571  1.5806 -0.1246
  146DG      H5 3340   1.734   0.798   3.059  0.3300  0.5763  2.4711
  146DG      H6 3341   1.435   0.529   2.435 -3.0241 -1.1335  0.9868
  146DG      H7 3342   1.390   0.358   2.486  1.1911  0.3181 -0.8077
  146DG      H8 3343   1.283   0.468   2.394 -0.9412 -0.2110 -0.5787
  146DG      O9 3344   1.546   0.771   3.006 -0.1965  0.0682  0.4286
  146DG     O10 3345   1.308   0.522   2.598 -0.0173 -0.0879 -0.0255
  146DG     C11 3346   1.416   0.716   3.043  0.0718  0.0992  0.2542
  146DG     C12 3347   1.261   0.655   2.585  0.6796  0.5960  0.4880
  146DG     H13 3348   1.402   0.761   3.142  3.4115  1.3875  3.9467
  146DG     H14 3349   1.419   0.609   3.040  2.1386  2.3817 -1.3806
  146DG     H15 3350   1.182   0.671   2.515 -0.5136 -0.8862  0.8465
  146DG     H16 3351   1.346   0.712   2.551  1.7791 -0.0807  3.0508
  146DG     C17 3352   1.309   0.766   2.946 -0.2076  0.2057 -0.2123
  146DG     C18 3353   1.222   0.726   2.717  0.5592 -0.0483 -0.3766
  146DG     O19 3354   1.337   0.712   2.808  0.4527  0.2543  0.3216
  146DG     H20 3355   1.312   0.877   2.934 -1.6282  1.3503  0.5301
  146DG     H21 3356   1.211   0.728   2.968 -1.1004 -0.2583 -0.3463
  146DG     H22 3357   1.195   0.825   2.686  0.0249  1.0480 -1.6744
  146DG     H23 3358   1.129   0.683   2.774  2.4284  1.7578  0.6072
  147DG      C1 3359   5.215   1.926   0.018  0.2056  0.3293  0.2198
  147DG      C2 3360   5.936   1.583  -0.238  0.2751 -0.8700 -0.1387
  147DG      H3 3361   5.266   2.002   0.076  0.1224  3.3031 -0.1439
  147DG      H4 3362   5.179   1.845   0.080 -0.0506  0.6306 -3.4243
  147DG      H5 3363   5.135   1.978  -0.033 -1.6518  0.2590  0.1591
  147DG      H6 3364   5.909   1.482  -0.263  0.1198  2.7966  1.0177
  147DG      H7 3365   6.032   1.609  -0.293  1.2330  0.0556  0.1979
  147DG      H8 3366   5.948   1.591  -0.127  1.9297  0.4577 -0.4028
  147DG      O9 3367   5.311   1.870  -0.075 -1.4337  0.2808 -0.3290
  147DG     O10 3368   5.829   1.654  -0.296  0.0056  0.6434 -0.5387
  147DG     C11 3369   5.254   1.786  -0.168 -0.1169 -0.1044  0.1343
  147DG     C12 3370   5.706   1.619  -0.225  0.0991  0.1962 -0.0382
  147DG     H13 3371   5.173   1.843  -0.225  2.5046  0.7109 -0.0365
  147DG     H14 3372   5.216   1.701  -0.114 -1.1113  0.5396 -1.0620
  147DG     H15 3373   5.704   1.667  -0.133 -1.0652  1.2061  0.2432
  147DG     H16 3374   5.686   1.517  -0.207  1.5088  1.9326  1.8467
  147DG     C17 3375   5.364   1.767  -0.273 -0.6549  0.1100  0.5259
  147DG     C18 3376   5.585   1.684  -0.301  0.0821  0.6435  0.2540
  147DG     O19 3377   5.479   1.700  -0.212  0.7393  0.2146  0.1378
  147DG     H20 3378   5.389   1.867  -0.315  0.4347 -1.0081 -0.1098
  147DG     H21 3379   5.322   1.718  -0.364  0.7267  2.9494 -1.2914
  147DG     H22 3380   5.627   1.781  -0.331  3.1649 -0.8053 -2.0107
  147DG     H23 3381   5.560   1.617  -0.388 -1.3825  0.6244  1.1117
  148DG      C1 3382   0.169   0.810   5.449  0.3427 -0.8866 -0.1487
  148DG      C2 3383   0.613   0.665   5.922 -0.0867  0.2242 -0.6235
  148DG      H3 3384   0.063   0.792   5.436  0.5453  3.0375  1.3228
  148DG      H4 3385   0.221   0.825   5.352 -0.6325  0.3040  0.9776
  148DG      H5 3386   0.170   0.911   5.491 -1.1249 -0.2954  0.9412
  148DG      H6 3387   0.639   0.596   6.006  0.6706 -0.6905  0.0283
  148DG      H7 3388   0.686   0.644   5.843  1.1271  0.0528 -1.9609
  148DG      H8 3389   0.614   0.768   5.953  2.5373 -0.3598  0.6762
  148DG      O9 3390   0.241   0.726   5.531 -0.3555  0.2945 -0.0721
  148DG     O10 3391   0.484   0.631   5.873  0.1762  0.1527  0.2763
  148DG     C11 3392   0.227   0.591   5.488  0.8400  0.0514  0.2863
  148DG     C12 3393   0.475   0.489   5.850 -0.0027 -0.4693 -0.1517
  148DG     H13 3394   0.228   0.571   5.381 -2.6246 -2.5282 -0.8362
  148DG     H14 3395   0.126   0.563   5.514  1.8955 -2.3001  2.1077
  148DG     H15 3396   0.502   0.436   5.943  0.1253 -0.1440  0.7003
  148DG     H16 3397   0.547   0.450   5.774  1.8757  2.9327  0.0739
  148DG     C17 3398   0.312   0.501   5.575 -0.6010 -0.4844 -0.2025
  148DG     C18 3399   0.330   0.441   5.805 -0.4280 -0.2653  0.2997
  148DG     O19 3400   0.272   0.521   5.706  0.3107  0.0721 -0.4904
  148DG     H20 3401   0.414   0.512   5.558 -1.1667  1.1599  1.7460
  148DG     H21 3402   0.287   0.393   5.538 -2.8535  1.4983 -0.4331
  148DG     H22 3403   0.322   0.335   5.770 -3.0174 -0.0594  0.4506
  148DG     H23 3404   0.265   0.445   5.893  0.0861  2.2085  0.6467
  149DG      C1 3405   4.281   0.422   3.026  0.2820 -0.6878 -0.1157
  149DG      C2 3406   4.671   1.049   2.998  0.6307  0.6170 -0.6530
  149DG      H3 3407   4.280   0.324   2.977 -3.0072 -2.7967  3.0548
  149DG      H4 3408   4.195   0.479   2.983  1.0917  2.1758  0.9404
  149DG      H5 3409   4.266   0.396   3.129 -1.7916  3.7276 -2.9709
  149DG      H6 3410   4.605   1.096   2.925  0.8185 -0.9418  1.2038
  149DG      H7 3411   4.616   1.045   3.096 -0.5698  0.1372  1.8783
  149DG      H8 3412   4.757   1.106   3.002  1.6617  2.3182  0.3517
  149DG      O9 3413   4.415   0.472   3.005  0.2063  0.2670 -0.3535
  149DG     O10 3414   4.685   0.916   2.948  0.0942 -0.4478 -1.0275
  149DG     C11 3415   4.440   0.485   2.871 -0.7431  0.7077  0.2412
  149DG     C12 3416   4.731   0.817   3.045 -0.3258 -0.1926  0.9029
  149DG     H13 3417   4.373   0.556   2.830  1.7872  1.0715 -1.0243
  149DG     H14 3418   4.424   0.388   2.816 -0.2906  0.0514 -1.2222
  149DG     H15 3419   4.672   0.827   3.140  3.0787  1.0382 -2.4447
  149DG     H16 3420   4.841   0.833   3.070  1.2552 -3.2301  1.1607
  149DG     C17 3421   4.589   0.528   2.862  0.0444 -0.7401 -0.2672
  149DG     C18 3422   4.729   0.673   2.988  0.4614  0.7979  0.0857
  149DG     O19 3423   4.598   0.646   2.932  0.0311 -0.2382 -0.3780
  149DG     H20 3424   4.605   0.543   2.762 -0.0907  0.0203  0.4410
  149DG     H21 3425   4.645   0.451   2.909  2.7603  1.5933  2.5877
  149DG     H22 3426   4.806   0.657   2.915 -0.3640  1.8618  0.4681
  149DG     H23 3427   4.750   0.593   3.060  1.0715  0.6358  0.2219
  150DG      C1 3428   0.853   1.498   5.004  0.7861 -0.3524 -0.3805
  150DG      C2 3429   1.323   1.232   4.630 -0.0603  0.0194  0.0105
  150DG      H3 3430   0.928   1.530   5.078  0.2930 -1.1771  2.4427
  150DG      H4 3431   0.759   1.504   5.058  1.8867 -3.3187 -2.6306
  150DG      H5 3432   0.851   1.568   4.918  2.0104  0.9181  0.7995
  150DG      H6 3433   1.417   1.179   4.651  1.2566 -2.0066 -0.8878
  150DG      H7 3434   1.306   1.208   4.526  1.9748  1.6106 -1.1523
  150DG      H8 3435   1.322   1.339   4.628  1.5865  1.6010  1.2704
  150DG      O9 3436   0.880   1.371   4.957  0.1547  0.0513  0.9147
  150DG     O10 3437   1.210   1.201   4.718 -0.0245 -0.6005  0.4813
  150DG     C11 3438   0.871   1.265   5.046 -0.0317  0.3052 -0.9345
  150DG     C12 3439   1.193   1.059   4.731  0.4959 -0.1179  0.3042
  150DG     H13 3440   0.766   1.261   5.092 -1.5144 -2.3585  3.4435
  150DG     H14 3441   0.938   1.273   5.138 -0.4948  1.4327  1.2823
  150DG     H15 3442   1.287   1.016   4.767  1.7227  1.5120  1.1333
  150DG     H16 3443   1.178   1.009   4.639  0.5881  1.3699  0.3978
  150DG     C17 3444   0.904   1.135   4.977  0.5643  0.3274 -0.0476
  150DG     C18 3445   1.081   1.026   4.839  0.1162  0.3077 -0.4028
  150DG     O19 3446   1.018   1.147   4.892 -0.4948  0.0960  0.0515
  150DG     H20 3447   0.818   1.104   4.916 -2.0035  3.2880  3.1915
  150DG     H21 3448   0.919   1.052   5.048 -0.9304  0.3359  1.0887
  150DG     H22 3449   1.009   0.964   4.788 -3.5307  0.8315 -0.9253
  150DG     H23 3450   1.122   0.968   4.922 -2.3225 -3.4997 -0.5811
  151DG      C1 3451   2.905   3.004   1.618  0.7084 -0.1577  0.7413
  151DG      C2 3452   3.100   3.307   1.391 -0.5113 -0.3419 -0.0065
  151DG      H3 3453   2.958   2.940   1.686 -2.3541 -0.8868 -3.4516
  151DG      H4 3454   2.960   3.084   1.568  0.2796  1.9168  1.7428
  151DG      H5 3455   2.877   2.930   1.547  2.0124  0.6661  1.6203
  151DG      H6 3456   3.176   3.236   1.427  0.2785  0.8199  0.1373
  151DG      H7 3457   3.006   3.256   1.380  0.4835 -2.6546 -2.3576
  151DG      H8 3458   3.133   3.360   1.300 -1.0601 -0.1023 -0.9535
  151DG      O9 3459   2.799   3.057   1.690  0.1437 -0.2723  0.4495
  151DG     O10 3460   3.090   3.413   1.489 -0.0354  0.6782  0.4495
  151DG     C11 3461   2.702   3.129   1.612 -0.4785  0.2240 -0.4065
  151DG     C12 3462   2.967   3.489   1.479 -0.5399 -0.0620 -0.6655
  151DG     H13 3463   2.602   3.100   1.651 -2.8342  0.2997 -0.9107
  151DG     H14 3464   2.706   3.108   1.504  2.6703  3.0118  1.1968
  151DG     H15 3465   2.939   3.506   1.380  1.0376  2.6218  0.3262
  151DG     H16 3466   2.998   3.587   1.511 -1.0360 -1.7008 -1.7476
  151DG     C17 3467   2.713   3.280   1.635  0.5071  0.7358  0.0961
  151DG     C18 3468   2.856   3.456   1.580 -0.7151  0.2387  0.2763
  151DG     O19 3469   2.811   3.331   1.542  0.1900 -0.4566 -0.1122
  151DG     H20 3470   2.739   3.305   1.735 -0.4044  0.1514 -1.4404
  151DG     H21 3471   2.620   3.328   1.618  2.3555 -1.2609 -1.0527
  151DG     H22 3472   2.898   3.451   1.680 -2.0813 -1.7812 -2.4745
  151DG     H23 3473   2.772   3.528   1.578 -4.4764  1.3632  1.1448
  152DG      C1 3474   4.462   0.396   2.109  0.1313  0.0932 -0.2496
  152DG      C2 3475   4.908   0.910   2.609  0.2327  0.3150 -0.2526
  152DG      H3 3476   4.524   0.308   2.097 -0.6436  0.1743 -0.7893
  152DG      H4 3477   4.424   0.408   2.007  0.5883  0.1446  0.8984
  152DG      H5 3478   4.391   0.368   2.190 -1.0264  0.0262 -3.0650
  152DG      H6 3479   5.015   0.880   2.597  0.8434 -1.5529  0.2707
  152DG      H7 3480   4.907   1.014   2.576 -3.1818 -0.1359 -1.3165
  152DG      H8 3481   4.882   0.916   2.716 -1.5334  2.6091 -0.5502
  152DG      O9 3482   4.534   0.511   2.152  0.3115  0.4430 -0.0626
  152DG     O10 3483   4.822   0.822   2.537  0.4298  0.1595  0.1189
  152DG     C11 3484   4.464   0.608   2.235  0.2308  0.6866 -0.0670
  152DG     C12 3485   4.683   0.841   2.553 -0.1312  1.0348  0.2006
  152DG     H13 3486   4.437   0.560   2.333 -0.4837 -0.5123 -1.5209
  152DG     H14 3487   4.364   0.632   2.193  0.1657  0.7761  0.9418
  152DG     H15 3488   4.644   0.939   2.512 -1.9787  2.2597  1.2923
  152DG     H16 3489   4.650   0.839   2.655 -1.3578 -1.8597  0.4390
  152DG     C17 3490   4.541   0.739   2.257 -0.4817 -0.9478 -0.3509
  152DG     C18 3491   4.617   0.722   2.484 -0.1664 -0.0023  0.0917
  152DG     O19 3492   4.649   0.712   2.348 -0.1021 -0.1805 -0.1594
  152DG     H20 3493   4.477   0.822   2.290 -0.3647  1.4815 -1.6719
  152DG     H21 3494   4.570   0.767   2.160 -1.8096 -1.7880  3.1373
  152DG     H22 3495   4.643   0.632   2.535  1.6018  0.4952  0.0102
  152DG     H23 3496   4.508   0.722   2.496 -2.7140  1.8181 -1.6445
  153DG      C1 3497   3.154   2.593   3.649  0.4947  0.0384 -0.0486
  153DG      C2 3498   2.894   2.052   3.978  0.1866 -0.0723 -0.0381
  153DG      H3 3499   3.103   2.688   3.624 -2.2772  1.6947 -2.0577
  153DG      H4 3500   3.227   2.560   3.575  0.5009 -2.3301 -2.1240
  153DG      H5 3501   3.197   2.579   3.750  2.6751 -2.1806 -0.9662
  153DG      H6 3502   2.818   1.984   4.004  0.1221  2.1807  0.2303
  153DG      H7 3503   2.990   1.996   3.980  2.6163  1.1118  1.7643
  153DG      H8 3504   2.889   2.138   4.045  0.3503  0.4530  0.3636
  153DG      O9 3505   3.071   2.478   3.633  0.4883 -0.0455 -0.7182
  153DG     O10 3506   2.880   2.110   3.850 -0.2101 -0.1928 -0.3202
  153DG     C11 3507   2.978   2.478   3.522  0.8371 -0.1260  0.6640
  153DG     C12 3508   2.753   2.170   3.827 -0.0204  0.2227  0.1364
  153DG     H13 3509   3.029   2.466   3.424  1.0744  0.5014  1.4253
  153DG     H14 3510   2.931   2.576   3.507  1.6395 -1.8545  3.1861
  153DG     H15 3511   2.725   2.242   3.905 -0.8206 -1.1792 -0.1326
  153DG     H16 3512   2.681   2.096   3.837  0.1723 -0.6962  0.1164
  153DG     C17 3513   2.877   2.363   3.538 -0.4445  0.0598  0.0035
  153DG     C18 3514   2.759   2.230   3.689  0.0682  0.5248 -0.3408
  153DG     O19 3515   2.855   2.333   3.676 -0.0003  0.0032  0.5102
  153DG     H20 3516   2.920   2.281   3.484 -0.4931  2.4013 -1.6560
  153DG     H21 3517   2.780   2.393   3.493 -1.3602  1.4712  0.6366
  153DG     H22 3518   2.776   2.143   3.620  1.1057  2.2572  2.1147
  153DG     H23 3519   2.667   2.278   3.680  3.8482 -0.3255  0.2516
  154DG      C1 3520   4.434   4.784   5.031  1.3094 -0.1397 -0.1282
  154DG      C2 3521   4.948   4.603   4.543 -0.6987 -0.1071 -0.2224
  154DG      H3 3522   4.374   4.806   4.946  1.2567  0.1141 -3.0203
  154DG      H4 3523   4.479   4.870   5.083  0.4555 -0.7294 -0.4322
  154DG      H5 3524   4.368   4.732   5.098  1.5072 -0.4056 -1.5324
  154DG      H6 3525   4.989   4.678   4.610  1.7015  3.0859 -1.4663
  154DG      H7 3526   5.025   4.522   4.547 -2.4181 -1.8377 -0.0264
  154DG      H8 3527   4.948   4.655   4.440 -1.4450  1.6870 -0.6865
  154DG      O9 3528   4.522   4.692   4.987  0.3519 -0.4518  0.0810
  154DG     O10 3529   4.820   4.551   4.562 -0.4651  0.3285 -0.4928
  154DG     C11 3530   4.465   4.567   4.928  0.5457 -0.1880 -0.2823
  154DG     C12 3531   4.718   4.652   4.544 -0.1558  0.7184  0.3099
  154DG     H13 3532   4.376   4.534   4.977 -1.4799 -0.6234  1.6136
  154DG     H14 3533   4.537   4.495   4.961  0.6382  1.2966  4.9968
  154DG     H15 3534   4.717   4.698   4.436 -2.2286  1.3719 -0.0947
  154DG     H16 3535   4.744   4.740   4.608 -0.2602 -0.1034 -0.2545
  154DG     C17 3536   4.443   4.577   4.774  0.1990  0.6600  0.6336
  154DG     C18 3537   4.576   4.608   4.580  0.2461 -0.2617 -0.3368
  154DG     O19 3538   4.574   4.602   4.723  0.1226  0.3033  0.6828
  154DG     H20 3539   4.378   4.657   4.740  2.2427  1.7204  1.3395
  154DG     H21 3540   4.415   4.478   4.741  1.8367  1.2228  1.4004
  154DG     H22 3541   4.504   4.679   4.545  0.6254  1.5079 -2.3391
  154DG     H23 3542   4.553   4.518   4.528  0.2646  0.0665 -0.4190
  155DG      C1 3543   4.361   0.185   2.419 -0.4581  0.1411  0.4428
  155DG      C2 3544   4.869   0.157   3.071  0.5782  0.3252 -0.0310
  155DG      H3 3545   4.420   0.148   2.334 -2.7548 -3.3841  0.1569
  155DG      H4 3546   4.374   0.294   2.433  1.2637 -0.0061 -0.2707
  155DG      H5 3547   4.260   0.164   2.398  0.3799  1.7858  0.0875
  155DG      H6 3548   4.899   0.234   2.999 -0.7828  0.1257 -0.4394
  155DG      H7 3549   4.855   0.207   3.164  1.1320  3.2050  1.1418
  155DG      H8 3550   4.942   0.077   3.089 -0.3496  0.7732  1.5618
  155DG      O9 3551   4.401   0.102   2.524 -0.2625 -0.1601  0.4192
  155DG     O10 3552   4.747   0.093   3.047  0.3792  0.3731 -0.1425
  155DG     C11 3553   4.332   0.127   2.640  0.7045 -0.0729 -0.2776
  155DG     C12 3554   4.704   0.105   2.912 -0.1660 -0.2585 -0.5682
  155DG     H13 3555   4.226   0.102   2.626 -4.3179  0.6707 -0.3742
  155DG     H14 3556   4.343   0.233   2.669 -0.1297  2.3398  1.4075
  155DG     H15 3557   4.766   0.046   2.846  1.3356  2.7376 -0.9646
  155DG     H16 3558   4.694   0.210   2.877 -1.0017 -0.5921  3.4272
  155DG     C17 3559   4.384   0.033   2.746 -0.0227  0.7650 -0.5049
  155DG     C18 3560   4.556   0.059   2.905  0.4615 -0.1760  0.1812
  155DG     O19 3561   4.506   0.090   2.777  0.2088 -0.0564 -0.5825
  155DG     H20 3562   4.401  -0.068   2.701  0.1748 -0.0761  1.4257
  155DG     H21 3563   4.324   0.030   2.836 -0.7053  3.8202 -0.7462
  155DG     H22 3564   4.548  -0.049   2.925  0.6408 -2.1497  2.1654
  155DG     H23 3565   4.505   0.114   2.984  1.9646  1.9747 -0.7459
  156DG      C1 3566   4.835   3.477   3.876  0.0844  0.1767  0.2813
  156DG      C2 3567   5.272   3.291   3.500  0.0559  0.0843  0.3158
  156DG      H3 3568   4.738   3.471   3.828 -1.5204  1.2417  0.2871
  156DG      H4 3569   4.830   3.539   3.962  1.5207  1.2141 -0.3611
  156DG      H5 3570   4.852   3.378   3.929  1.1693  1.6337  2.8811
  156DG      H6 3571   5.263   3.211   3.577  0.3629 -1.9567 -0.3220
  156DG      H7 3572   5.187   3.269   3.433  0.8109  2.2561  0.0405
  156DG      H8 3573   5.364   3.266   3.449 -0.1682 -0.4119  1.5732
  156DG      O9 3574   4.943   3.516   3.790  0.6507  0.1734  0.2847
  156DG     O10 3575   5.271   3.422   3.558 -0.2049  0.0235 -0.1989
  156DG     C11 3576   4.916   3.637   3.726 -0.5031  0.5264  0.2033
  156DG     C12 3577   5.278   3.532   3.464 -0.2407 -0.0632  0.9576
  156DG     H13 3578   4.911   3.718   3.797  1.4134  0.1263  0.8223
  156DG     H14 3579   4.820   3.629   3.677  0.5763 -0.4438  0.0375
  156DG     H15 3580   5.214   3.526   3.372 -1.7987  1.8260  2.2045
  156DG     H16 3581   5.375   3.546   3.429 -1.8667  0.0427 -2.4720
  156DG     C17 3582   5.013   3.662   3.612  0.4272  0.1999 -0.2824
  156DG     C18 3583   5.251   3.666   3.540  0.4766 -0.0723 -0.0579
  156DG     O19 3584   5.154   3.660   3.651  0.4887  0.2019  0.4525
  156DG     H20 3585   4.986   3.748   3.551  0.3182  1.5539 -3.7393
  156DG     H21 3586   5.000   3.585   3.532  0.5668 -0.2320 -0.1135
  156DG     H22 3587   5.340   3.689   3.587  0.0768 -3.7990 -0.3608
  156DG     H23 3588   5.226   3.740   3.468 -0.2222 -2.0261 -3.2794
  157DG      C1 3589   1.045   4.980   4.122 -0.0733  0.3973 -0.3607
  157DG      C2 3590   0.771   4.319   4.190 -0.3994  0.8008  0.1379
  157DG      H3 3591   1.101   4.923   4.198 -1.2436 -1.4151  1.7734
  157DG      H4 3592   0.987   5.046   4.178 -1.3620 -2.3173 -0.8010
  157DG      H5 3593   1.113   5.049   4.073 -0.8280 -1.6066 -0.8069
  157DG      H6 3594   0.745   4.223   4.143 -2.4735 -1.6248  3.7495
  157DG      H7 3595   0.869   4.327   4.224  0.7635  1.2099 -1.2731
  157DG      H8 3596   0.704   4.341   4.270 -1.4158 -0.1108  0.0549
  157DG      O9 3597   0.958   4.906   4.043 -0.3091  0.0119  0.2074
  157DG     O10 3598   0.764   4.412   4.087 -0.0279 -0.8031 -0.2125
  157DG     C11 3599   0.858   4.831   4.113  0.6088 -0.2120 -0.0646
  157DG     C12 3600   0.842   4.396   3.971 -0.8287  0.2343 -0.2522
  157DG     H13 3601   0.781   4.898   4.150 -0.4231 -0.8338  1.0534
  157DG     H14 3602   0.903   4.770   4.191 -0.9345 -0.0309  0.6546
  157DG     H15 3603   0.800   4.319   3.910 -0.6222 -1.5774 -0.0277
  157DG     H16 3604   0.934   4.357   4.010  0.2451 -1.6657 -1.3533
  157DG     C17 3605   0.799   4.734   4.007 -0.1452  0.3068 -0.3436
  157DG     C18 3606   0.848   4.523   3.884 -1.2286  0.2641 -0.0500
  157DG     O19 3607   0.894   4.632   3.967 -1.0253  0.1520  0.1349
  157DG     H20 3608   0.775   4.793   3.914  2.1553  1.1021 -0.7580
  157DG     H21 3609   0.695   4.691   4.028 -1.7711  2.3125 -1.7465
  157DG     H22 3610   0.913   4.497   3.801  0.7587 -0.3274  1.6738
  157DG     H23 3611   0.750   4.538   3.846 -0.9614 -2.4910 -2.0971
  158DG      C1 3612   3.767   1.167   4.672  0.5117 -0.4730  0.4620
  158DG      C2 3613   3.137   0.784   5.050 -0.6399 -0.1249 -0.1098
  158DG      H3 3614   3.824   1.092   4.615  0.5537 -0.0643  1.0763
  158DG      H4 3615   3.783   1.163   4.778  1.4057  2.2147  1.1746
  158DG      H5 3616   3.798   1.270   4.644  0.6385 -0.8911 -0.8460
  158DG      H6 3617   3.058   0.712   5.036  2.8030  0.4196 -0.8724
  158DG      H7 3618   3.228   0.725   5.068 -1.1332 -2.2942 -0.0328
  158DG      H8 3619   3.114   0.849   5.135 -4.1694 -1.6022 -2.0173
  158DG      O9 3620   3.622   1.148   4.648  0.1617  0.4533 -0.2240
  158DG     O10 3621   3.168   0.880   4.941  0.4929  0.0975  0.8037
  158DG     C11 3622   3.562   1.038   4.707 -0.2150 -0.9322 -0.5380
  158DG     C12 3623   3.148   0.827   4.813 -0.9766 -0.7442 -0.6709
  158DG     H13 3624   3.544   1.070   4.807  0.5566 -0.1011 -0.1321
  158DG     H14 3625   3.617   0.949   4.720 -0.1914 -1.4970 -0.3173
  158DG     H15 3626   3.041   0.798   4.795 -1.4729  0.1473  0.4566
  158DG     H16 3627   3.205   0.733   4.801  2.9660 -0.3910  1.5509
  158DG     C17 3628   3.420   1.016   4.657 -0.6545 -0.1356 -0.1345
  158DG     C18 3629   3.208   0.925   4.706  0.8755  0.4597  0.5502
  158DG     O19 3630   3.343   0.944   4.747  0.0148  0.1563  0.0482
  158DG     H20 3631   3.421   0.967   4.568  2.4612 -1.2800  1.4583
  158DG     H21 3632   3.373   1.110   4.631  0.6066 -1.9731 -1.0678
  158DG     H22 3633   3.199   0.888   4.605 -0.9604  0.8515  1.3204
  158DG     H23 3634   3.164   1.029   4.693 -0.8451  1.0803 -1.4718
  159DG      C1 3635   0.849   2.885   1.549  0.0753 -0.3391 -0.0937
  159DG      C2 3636   0.377   3.044   2.020  0.6670  0.5329 -1.1371
  159DG      H3 3637   0.765   2.940   1.506 -0.2109  0.0726  0.6184
  159DG      H4 3638   0.852   2.788   1.512  0.7093  3.2446  2.5274
  159DG      H5 3639   0.945   2.936   1.524 -1.6512  1.7533 -0.8692
  159DG      H6 3640   0.323   3.077   1.935 -0.6067 -0.9653  1.1703
  159DG      H7 3641   0.339   2.953   2.059 -2.6213  0.4545  0.7573
  159DG      H8 3642   0.377   3.128   2.094 -2.9064  0.0859  1.4001
  159DG      O9 3643   0.828   2.900   1.682 -0.6095 -0.5694 -0.1829
  159DG     O10 3644   0.508   3.016   1.985  0.1004 -0.0461  0.0549
  159DG     C11 3645   0.910   2.822   1.768 -0.0905  0.2382  0.4597
  159DG     C12 3646   0.581   2.959   2.097  0.2481 -0.8361 -0.1899
  159DG     H13 3647   1.010   2.830   1.732  0.2702 -0.0610  0.0967
  159DG     H14 3648   0.887   2.720   1.766  1.3392  0.4144 -1.9128
  159DG     H15 3649   0.550   2.859   2.127  0.7340 -0.3839 -0.0625
  159DG     H16 3650   0.564   3.011   2.189 -2.0868 -0.6986 -0.0518
  159DG     C17 3651   0.897   2.884   1.904 -0.6271  0.4155 -0.2887
  159DG     C18 3652   0.734   2.956   2.071  0.2470  0.2599  0.0656
  159DG     O19 3653   0.768   2.894   1.948 -0.2091  0.3388  0.5966
  159DG     H20 3654   0.936   2.982   1.908  3.7010  1.5571  1.9475
  159DG     H21 3655   0.949   2.826   1.982 -1.8002 -0.3960  1.5438
  159DG     H22 3656   0.771   3.055   2.075 -0.2560 -1.6577  1.6071
  159DG     H23 3657   0.794   2.911   2.153 -1.2366  0.3558  2.4521
  160DG      C1 3658   0.393   4.557   2.822  0.0203  0.3063 -0.0386
  160DG      C2 3659   0.879   4.027   2.554  0.0508  0.3718 -0.2733
  160DG      H3 3660   0.409   4.577   2.930 -1.1280  1.2137 -1.0364
  160DG      H4 3661   0.345   4.466   2.790 -0.6316 -0.4163  0.0388
  160DG      H5 3662   0.322   4.634   2.773 -0.9376 -2.3643 -2.5669
  160DG      H6 3663   0.843   4.003   2.656  1.6409  0.4148 -0.1277
  160DG      H7 3664   0.863   3.940   2.491  1.2047 -1.1191 -0.7163
  160DG      H8 3665   0.991   4.029   2.569 -0.1457 -1.2821 -1.1618
  160DG      O9 3666   0.521   4.582   2.764 -0.4279  0.0462 -0.1567
  160DG     O10 3667   0.814   4.138   2.504  0.4014 -0.3171  0.1277
  160DG     C11 3668   0.537   4.552   2.625 -0.0639  0.1485 -0.6711
  160DG     C12 3669   0.672   4.131   2.497  0.5493 -0.1462 -0.6975
  160DG     H13 3670   0.635   4.591   2.589 -0.0096 -1.2216  0.0401
  160DG     H14 3671   0.455   4.607   2.583 -1.7952  3.2533  2.4359
  160DG     H15 3672   0.628   4.123   2.593 -1.9931 -0.5539 -3.2976
  160DG     H16 3673   0.646   4.039   2.441  1.1361 -0.5419 -0.2921
  160DG     C17 3674   0.534   4.403   2.587 -0.7770  0.5308  0.2216
  160DG     C18 3675   0.614   4.240   2.413 -0.4890 -0.5314  0.2688
  160DG     O19 3676   0.620   4.372   2.476 -0.0547 -0.4190 -0.3977
  160DG     H20 3677   0.434   4.371   2.551  0.4706 -1.1918  2.5664
  160DG     H21 3678   0.547   4.343   2.674 -0.2696  2.2333  1.5620
  160DG     H22 3679   0.657   4.244   2.316 -1.0395  0.3822  1.7433
  160DG     H23 3680   0.505   4.233   2.399  1.3960 -0.0657 -0.7027
  161DG      C1 3681   4.069   3.104   4.380  0.5292 -0.1320  0.3704
  161DG      C2 3682   3.385   3.042   4.160 -0.0461  0.5423  0.8544
  161DG      H3 3683   4.129   3.165   4.447  1.1173 -2.1154 -0.3585
  161DG      H4 3684   4.123   3.130   4.284  0.4691  0.2872 -0.3665
  161DG      H5 3685   4.081   2.996   4.398  1.2143 -0.8168 -1.4031
  161DG      H6 3686   3.276   3.067   4.171 -0.3294  0.2952  0.4929
  161DG      H7 3687   3.434   3.135   4.162 -1.1673 -1.1190 -0.4695
  161DG      H8 3688   3.393   2.995   4.064 -0.3556  1.2529  0.2227
  161DG      O9 3689   3.933   3.144   4.381 -0.1093 -0.6649  0.2407
  161DG     O10 3690   3.441   2.957   4.255 -0.0891  1.0706 -0.2369
  161DG     C11 3691   3.861   3.137   4.504  0.2832 -0.1039 -0.1310
  161DG     C12 3692   3.410   2.999   4.390 -0.2440 -0.1427 -0.1418
  161DG     H13 3693   3.901   3.214   4.557 -3.6728 -1.1147  1.3041
  161DG     H14 3694   3.886   3.047   4.560 -3.7942  2.4480 -2.6149
  161DG     H15 3695   3.418   2.916   4.454  2.4269 -1.9840 -0.5934
  161DG     H16 3696   3.309   3.023   4.399 -0.1653  0.8356  0.7204
  161DG     C17 3697   3.715   3.171   4.506 -0.1872 -0.3810  0.6005
  161DG     C18 3698   3.492   3.119   4.433 -0.0966  0.6081 -0.5239
  161DG     O19 3699   3.632   3.081   4.433  0.1663 -0.4273 -0.4552
  161DG     H20 3700   3.694   3.270   4.457  0.2688  0.0228 -0.3437
  161DG     H21 3701   3.685   3.174   4.609 -0.0568  0.1542  0.7578
  161DG     H22 3702   3.484   3.200   4.361  0.6132  1.1970  0.2247
  161DG     H23 3703   3.462   3.155   4.527 -0.5038 -2.3015 -1.4051
  162DG      C1 3704   4.200   3.235   3.518 -0.3077 -0.0861  0.1411
  162DG      C2 3705   4.685   3.468   3.129  0.1180  0.2888 -0.0641
  162DG      H3 3706   4.095   3.206   3.536  0.7090 -0.2909  0.2336
  162DG      H4 3707   4.210   3.341   3.503 -1.5693  1.4159  2.3094
  162DG      H5 3708   4.257   3.206   3.613  3.6259  2.6792  0.5038
  162DG      H6 3709   4.707   3.524   3.222 -1.0305  0.0488 -0.4423
  162DG      H7 3710   4.755   3.387   3.125  2.0276  2.4938 -1.1886
  162DG      H8 3711   4.682   3.537   3.042 -2.5131 -1.9584 -0.3776
  162DG      O9 3712   4.257   3.180   3.392 -0.3165 -0.1253  0.7371
  162DG     O10 3713   4.552   3.428   3.143 -0.2172  0.1340  0.3085
  162DG     C11 3714   4.170   3.213   3.286  0.2606  0.4751  0.2550
  162DG     C12 3715   4.474   3.396   3.027 -0.3524  0.3525  0.1308
  162DG     H13 3716   4.155   3.314   3.271 -0.4427 -0.6915  0.8494
  162DG     H14 3717   4.068   3.166   3.299 -0.6024  2.8894  0.9517
  162DG     H15 3718   4.535   3.329   2.964  2.9166 -0.9358  2.7818
  162DG     H16 3719   4.428   3.485   2.978 -2.4556  0.7162  1.3274
  162DG     C17 3720   4.238   3.140   3.170  0.3857  1.0233 -1.1712
  162DG     C18 3721   4.349   3.318   3.063  1.0628 -0.0057 -0.7322
  162DG     O19 3722   4.362   3.198   3.145 -0.3551 -0.2728  0.2902
  162DG     H20 3723   4.181   3.138   3.075  1.2690  0.7529 -0.5279
  162DG     H21 3724   4.248   3.032   3.193  0.2229 -1.8573 -0.8902
  162DG     H22 3725   4.293   3.396   3.114  0.9234  0.9366  1.6781
  162DG     H23 3726   4.294   3.294   2.970  0.7423  0.6763 -0.6385
  163DG      C1 3727   1.117   2.244   3.181 -0.3620  0.0872  0.4976
  163DG      C2 3728   1.149   3.122   3.143 -0.5250 -0.2253 -0.0565
  163DG      H3 3729   1.031   2.258   3.118  2.6336 -1.2842 -2.3710
  163DG      H4 3730   1.111   2.172   3.261 -0.3359  1.3875  0.6514
  163DG      H5 3731   1.197   2.219   3.103 -1.6756  0.4082  2.1479
  163DG      H6 3732   1.041   3.137   3.134 -1.1063  0.5754 -0.6638
  163DG      H7 3733   1.197   3.188   3.215 -0.3525 -2.9150  1.0141
  163DG      H8 3734   1.190   3.157   3.047  0.1535  0.9724 -0.6802
  163DG      O9 3735   1.155   2.359   3.251 -0.5811 -0.0447 -0.4277
  163DG     O10 3736   1.171   2.985   3.172  0.1778  0.2903 -0.3764
  163DG     C11 3737   1.159   2.473   3.175 -0.4380  0.1395  0.3348
  163DG     C12 3738   1.301   2.949   3.211  0.4060 -0.1204 -0.2793
  163DG     H13 3739   1.072   2.488   3.110 -0.1078 -0.8188  2.1099
  163DG     H14 3740   1.240   2.464   3.105 -1.1946 -1.3172 -2.7191
  163DG     H15 3741   1.334   3.022   3.284  0.2171  0.5779  0.7501
  163DG     H16 3742   1.362   2.954   3.124 -3.7727  0.1973 -1.4666
  163DG     C17 3743   1.184   2.592   3.267  0.7059  0.4115 -0.0506
  163DG     C18 3744   1.289   2.812   3.286 -0.6258  0.2986 -0.5636
  163DG     O19 3745   1.239   2.706   3.205  0.1781 -0.5008 -0.0206
  163DG     H20 3746   1.262   2.561   3.339 -1.2726  3.5170  0.8086
  163DG     H21 3747   1.093   2.620   3.319  1.7363  1.2601  2.0061
  163DG     H22 3748   1.385   2.789   3.322  1.7422 -0.0884  1.4527
  163DG     H23 3749   1.235   2.822   3.378  0.1817  0.1097 -1.7789
  164DG      C1 3750   3.708   0.152   1.230  1.1051  0.8864 -0.3231
  164DG      C2 3751   4.191  -0.170   1.696  0.9752 -0.2732  0.3550
  164DG      H3 3752   3.768   0.106   1.151 -2.0680  1.1775  0.1295
  164DG      H4 3753   3.686   0.252   1.212 -1.3425 -0.9054  0.4173
  164DG      H5 3754   3.619   0.087   1.242 -1.1744 -0.8219 -1.9897
  164DG      H6 3755   4.144  -0.223   1.782  1.2873  0.8110  0.9671
  164DG      H7 3756   4.201  -0.245   1.620  0.8971  0.1423  0.4524
  164DG      H8 3757   4.296  -0.134   1.714  3.8945 -0.7403  0.5063
  164DG      O9 3758   3.775   0.139   1.354 -0.1659  0.0879 -0.0360
  164DG     O10 3759   4.105  -0.062   1.651  0.2911 -0.0590 -0.5287
  164DG     C11 3760   3.708   0.198   1.461 -0.3662 -0.1722 -0.3093
  164DG     C12 3761   4.054   0.012   1.757  0.8219  0.2945 -0.0568
  164DG     H13 3762   3.622   0.139   1.498 -1.0748  1.6172 -0.8347
  164DG     H14 3763   3.676   0.303   1.433  0.4269  0.5290 -1.4511
  164DG     H15 3764   4.133   0.026   1.831  2.0899 -0.6142 -1.1745
  164DG     H16 3765   3.984  -0.056   1.807  1.5979  0.3691 -0.7387
  164DG     C17 3766   3.809   0.222   1.573  0.0101  0.1911  0.1265
  164DG     C18 3767   3.985   0.144   1.711 -0.3409  0.5813 -0.1866
  164DG     O19 3768   3.884   0.108   1.618 -0.1734 -0.7537 -0.0755
  164DG     H20 3769   3.758   0.265   1.661 -0.9688 -0.4616  1.4221
  164DG     H21 3770   3.872   0.303   1.528  0.6148  0.6856 -3.7162
  164DG     H22 3771   3.929   0.191   1.792 -2.1446 -0.0481  2.1964
  164DG     H23 3772   4.053   0.211   1.657  2.5211 -1.5658 -1.2716
  165DG      C1 3773   4.949   2.954   2.794 -0.1082 -0.0575  0.7967
  165DG      C2 3774   4.772   3.055   2.229 -0.2188 -0.4282 -0.5499
  165DG      H3 3775   5.009   3.012   2.862 -0.1005 -0.2019 -1.2566
  165DG      H4 3776   5.006   2.864   2.765  1.2019 -0.8213  0.0307
  165DG      H5 3777   4.862   2.925   2.856  2.6232 -0.4204 -3.1785
  165DG      H6 3778   4.856   2.986   2.240  0.1870 -0.3273 -3.3223
  165DG      H7 3779   4.675   3.006   2.268 -1.2814 -0.5202  0.3976
  165DG      H8 3780   4.759   3.073   2.123  1.8995  2.0082 -2.9437
  165DG      O9 3781   4.887   3.020   2.684  0.1793  0.1665 -0.1217
  165DG     O10 3782   4.801   3.177   2.301 -0.0204 -0.1209  0.3492
  165DG     C11 3783   4.842   3.144   2.720  0.3837 -0.1116  0.4608
  165DG     C12 3784   4.937   3.222   2.292  0.1422 -0.2785 -0.3565
  165DG     H13 3785   4.912   3.187   2.793 -1.5511 -1.1560  1.4545
  165DG     H14 3786   4.741   3.129   2.767  1.1182  0.5373  1.8845
  165DG     H15 3787   4.950   3.272   2.195 -1.4346 -0.7388 -1.2665
  165DG     H16 3788   5.005   3.140   2.291 -0.0741 -0.0273 -1.0570
  165DG     C17 3789   4.826   3.251   2.603 -0.4255 -0.4190 -0.0623
  165DG     C18 3790   4.963   3.314   2.412  0.0112 -0.0089  0.2365
  165DG     O19 3791   4.954   3.244   2.539  0.0385 -0.7265  0.3043
  165DG     H20 3792   4.812   3.354   2.643 -0.2409 -0.8447  0.4914
  165DG     H21 3793   4.753   3.216   2.531 -0.6419 -0.5047 -0.3013
  165DG     H22 3794   5.070   3.322   2.409 -0.2442 -0.0485 -0.9618
  165DG     H23 3795   4.925   3.416   2.394  0.8114 -0.7732 -1.3229
  166DG      C1 3796   3.204   2.064   0.201  0.0781  0.0928  0.0950
  166DG      C2 3797   2.788   2.096  -0.428 -0.3834 -0.4475 -0.6003
  166DG      H3 3798   3.260   2.086   0.101  0.4842  5.7914  1.0857
  166DG      H4 3799   3.244   1.985   0.265 -1.5381 -1.3832  0.0867
  166DG      H5 3800   3.207   2.155   0.259  1.3014 -1.0890 -0.0629
  166DG      H6 3801   2.845   2.189  -0.409  0.5992 -1.8747 -1.4929
  166DG      H7 3802   2.833   2.030  -0.506  1.8071 -0.9989 -1.9265
  166DG      H8 3803   2.688   2.121  -0.463  0.8190 -2.1391  0.1579
  166DG      O9 3804   3.080   2.027   0.159 -0.2254  0.2340  0.6452
  166DG     O10 3805   2.807   2.009  -0.318 -0.2549 -0.3574 -0.3178
  166DG     C11 3806   3.080   1.900   0.104  0.0752  0.3741 -0.3733
  166DG     C12 3807   2.736   2.051  -0.204 -0.0737 -0.2277  0.0751
  166DG     H13 3808   3.114   1.835   0.187 -0.2752 -1.5297  0.0930
  166DG     H14 3809   3.155   1.893   0.031  0.4072  0.0131  1.9606
  166DG     H15 3810   2.625   2.038  -0.223 -0.4302 -1.2337 -1.4285
  166DG     H16 3811   2.760   2.155  -0.175  0.9223  1.5908  0.4451
  166DG     C17 3812   2.930   1.876   0.051 -0.3144 -0.1423  0.2544
  166DG     C18 3813   2.764   1.953  -0.093 -0.0167  0.0414  0.2100
  166DG     O19 3814   2.899   1.972  -0.051 -0.4377 -0.2149  0.1778
  166DG     H20 3815   2.856   1.882   0.128 -1.7407 -0.2870  0.6721
  166DG     H21 3816   2.937   1.777   0.005 -1.4684  0.7941  0.6364
  166DG     H22 3817   2.696   1.970  -0.011  1.2558  2.9392  0.9739
  166DG     H23 3818   2.755   1.852  -0.136 -0.1624 -2.4415 -2.0300
  167DG      C1 3819   4.900   1.874   5.205 -0.1343  0.0152  0.2842
  167DG      C2 3820   4.982   1.931   5.994 -0.0258 -0.0457 -0.2745
  167DG      H3 3821   4.849   1.813   5.126 -1.0810  2.0537  0.4002
  167DG      H4 3822   4.997   1.892   5.158  0.7681 -1.0888 -1.3151
  167DG      H5 3823   4.841   1.965   5.221 -1.1485 -0.7126 -0.5792
  167DG      H6 3824   4.932   2.021   6.013  1.6546 -2.7257 -1.9165
  167DG      H7 3825   4.938   1.861   6.071 -1.0077 -0.4887  3.2183
  167DG      H8 3826   5.085   1.951   6.012 -1.3998  0.1726  1.5075
  167DG      O9 3827   4.927   1.812   5.330 -0.6971  0.3902  0.2994
  167DG     O10 3828   4.979   1.888   5.861 -0.3205 -0.3666  0.2965
  167DG     C11 3829   4.813   1.762   5.389  0.2840 -0.4815  0.5346
  167DG     C12 3830   4.842   1.866   5.824 -0.3792 -0.4867  0.5817
  167DG     H13 3831   4.776   1.683   5.316 -1.7072  0.1485  0.1553
  167DG     H14 3832   4.736   1.844   5.401  0.2644  2.8031 -0.1413
  167DG     H15 3833   4.771   1.927   5.877  0.6070 -1.9274 -1.1636
  167DG     H16 3834   4.810   1.760   5.846 -0.3603 -0.2771  0.9542
  167DG     C17 3835   4.845   1.705   5.526 -0.3094  0.3366 -0.1449
  167DG     C18 3836   4.822   1.894   5.668  0.8354 -0.3069  0.1434
  167DG     O19 3837   4.906   1.799   5.600  0.8194 -0.3542  0.4837
  167DG     H20 3838   4.910   1.618   5.513  2.9317  1.0490  1.9686
  167DG     H21 3839   4.755   1.669   5.574 -0.7199 -2.9236  2.8667
  167DG     H22 3840   4.718   1.890   5.646 -1.5203  0.3390 -0.9929
  167DG     H23 3841   4.858   1.994   5.638  0.6168  0.6550  1.7817
  168DG      C1 3842   2.498   1.142   2.550  0.2199 -1.0243 -0.2198
  168DG      C2 3843   2.090   1.648   2.055  0.2748 -0.1371  0.0423
  168DG      H3 3844   2.522   1.039   2.543 -2.2215 -0.3992 -0.5125
  168DG      H4 3845   2.426   1.164   2.637 -2.3234  1.6616  2.8029
  168DG      H5 3846   2.583   1.207   2.569 -1.0450  2.4392 -1.4703
  168DG      H6 3847   2.162   1.675   1.979  2.1712 -0.2833  0.0644
  168DG      H7 3848   1.995   1.626   2.010  3.2552  0.4364  1.4014
  168DG      H8 3849   2.067   1.727   2.130 -0.4518  0.3105  1.1652
  168DG      O9 3850   2.437   1.187   2.430 -0.1204 -0.0335  0.4371
  168DG     O10 3851   2.130   1.529   2.115 -0.5569  0.0595  0.0231
  168DG     C11 3852   2.314   1.118   2.422  0.8085  0.3828 -0.0914
  168DG     C12 3853   2.247   1.534   2.198 -0.3145  0.2190 -0.8952
  168DG     H13 3854   2.247   1.123   2.508 -1.2475 -0.1853  1.6980
  168DG     H14 3855   2.328   1.005   2.416  0.4565  1.4530 -0.0534
  168DG     H15 3856   2.231   1.582   2.295  2.2251 -1.9735 -0.8918
  168DG     H16 3857   2.319   1.594   2.151  0.4138 -2.4186  0.2239
  168DG     C17 3858   2.239   1.169   2.288 -0.6388  0.1585  0.0446
  168DG     C18 3859   2.297   1.393   2.220  0.7832  0.3666  0.7739
  168DG     O19 3860   2.214   1.313   2.303  0.0366 -0.7615  0.3006
  168DG     H20 3861   2.134   1.129   2.294 -2.1738 -1.2931 -0.0285
  168DG     H21 3862   2.268   1.136   2.189 -1.0990 -1.1507  2.4814
  168DG     H22 3863   2.308   1.351   2.114 -1.8392  0.1143  0.0360
  168DG     H23 3864   2.391   1.397   2.272  1.1418  1.1874  1.6640
  169DG      C1 3865   1.201   4.387   5.160 -0.3849 -0.9321  0.0863
  169DG      C2 3866   0.470   4.144   5.467  0.4649 -0.5327  0.3221
  169DG      H3 3867   1.225   4.480   5.121 -0.3586 -1.6891  0.2293
  169DG      H4 3868   1.269   4.307   5.126 -3.9997 -0.7024  0.2481
  169DG      H5 3869   1.205   4.377   5.263 -0.0944  0.3538  1.4565
  169DG      H6 3870   0.452   4.042   5.435  0.4833  0.6464  2.0817
  169DG      H7 3871   0.538   4.150   5.557 -1.9721  0.8257  1.3112
  169DG      H8 3872   0.365   4.173   5.501 -2.9314  1.0795 -0.0593
  169DG      O9 3873   1.070   4.356   5.106 -0.5157  0.1681  0.2438
  169DG     O10 3874   0.511   4.231   5.361  0.0651 -0.1582 -0.7425
  169DG     C11 3875   0.982   4.464   5.108  0.2969  0.3505  0.5031
  169DG     C12 3876   0.645   4.210   5.311  0.4873 -0.5423 -0.1966
  169DG     H13 3877   0.997   4.531   5.032  0.9922 -1.3253  0.4359
  169DG     H14 3878   0.982   4.512   5.205 -0.7379 -0.0129 -2.0969
  169DG     H15 3879   0.667   4.116   5.261 -0.9292  0.4870 -0.9801
  169DG     H16 3880   0.724   4.227   5.384 -0.3020 -2.0915 -1.0929
  169DG     C17 3881   0.838   4.414   5.089  0.1140  0.0424 -0.3623
  169DG     C18 3882   0.665   4.311   5.202 -0.1012 -0.1684  0.7813
  169DG     O19 3883   0.805   4.310   5.172 -0.1798 -1.1161  0.2319
  169DG     H20 3884   0.828   4.378   4.990  0.7932  2.3242 -0.9866
  169DG     H21 3885   0.777   4.503   5.088  2.5901  0.2370  0.6007
  169DG     H22 3886   0.614   4.299   5.103  0.3031  1.6219  1.7257
  169DG     H23 3887   0.629   4.411   5.241  0.6073  2.2238 -1.0478
  170DG      C1 3888   4.215   5.258   4.671 -0.2180  0.3124 -0.0644
  170DG      C2 3889   3.681   5.894   4.744 -0.9559 -0.8926 -0.8209
  170DG      H3 3890   4.291   5.272   4.749 -4.8885  0.1975 -0.8356
  170DG      H4 3891   4.262   5.237   4.576 -1.5066 -0.7520 -1.1036
  170DG      H5 3892   4.149   5.179   4.713 -1.2416 -2.7440 -0.4832
  170DG      H6 3893   3.612   5.815   4.760 -1.6526  0.0788 -0.1605
  170DG      H7 3894   3.617   5.985   4.750 -2.1453  1.1230  0.8028
  170DG      H8 3895   3.721   5.889   4.644  1.3754  1.9174  0.3917
  170DG      O9 3896   4.141   5.379   4.656  0.3949  0.0697  0.0651
  170DG     O10 3897   3.785   5.892   4.845  0.5605 -0.1062  0.4293
  170DG     C11 3898   4.213   5.501   4.638 -0.1094 -0.4386 -0.1108
  170DG     C12 3899   3.857   5.773   4.835 -0.7551 -0.3713 -0.9061
  170DG     H13 3900   4.288   5.498   4.554  1.2366  1.2827  0.4987
  170DG     H14 3901   4.269   5.515   4.733 -2.7138  0.7290  0.6741
  170DG     H15 3902   3.787   5.688   4.847 -1.9331 -3.0170 -0.8194
  170DG     H16 3903   3.922   5.768   4.925  4.3153 -3.1425  1.8799
  170DG     C17 3904   4.121   5.627   4.611  0.1827  0.0380  0.4027
  170DG     C18 3905   3.946   5.763   4.703 -0.5235 -0.3053 -0.7895
  170DG     O19 3906   4.043   5.663   4.722 -0.0798 -0.9003 -0.6189
  170DG     H20 3907   4.053   5.601   4.539  4.7440 -1.0338 -1.3393
  170DG     H21 3908   4.174   5.714   4.590 -2.1145  1.7242 -1.5790
  170DG     H22 3909   3.885   5.739   4.616 -1.7571 -0.1722  1.7910
  170DG     H23 3910   4.002   5.859   4.701 -0.7688  1.4363 -0.0435
  171DG      C1 3911   3.793   5.007   3.702  0.3025 -0.2215 -0.5609
  171DG      C2 3912   4.196   5.337   4.255  0.2427 -0.7830  0.2107
  171DG      H3 3913   3.789   5.056   3.604  1.5075  1.5230  2.2466
  171DG      H4 3914   3.722   4.925   3.702  0.1569 -2.0824  1.5799
  171DG      H5 3915   3.888   4.963   3.721 -0.2226  2.8593  0.7002
  171DG      H6 3916   4.295   5.316   4.278 -2.5188 -0.3424 -0.3194
  171DG      H7 3917   4.144   5.361   4.348 -0.4896  1.0050  0.0317
  171DG      H8 3918   4.147   5.248   4.223 -0.4175  1.6589 -1.8562
  171DG      O9 3919   3.755   5.103   3.795 -0.1586  0.1174  0.2149
  171DG     O10 3920   4.199   5.434   4.148 -0.0863  0.6379 -0.2740
  171DG     C11 3921   3.854   5.206   3.803 -0.1865 -0.0408  0.3892
  171DG     C12 3922   4.080   5.493   4.130 -0.1418 -0.1285  0.1738
  171DG     H13 3923   3.824   5.269   3.720 -0.4391  0.8384 -1.5052
  171DG     H14 3924   3.958   5.173   3.793 -2.4761  1.2851 -0.7720
  171DG     H15 3925   4.092   5.570   4.050  0.6438 -1.7615 -0.3878
  171DG     H16 3926   4.061   5.556   4.217 -3.0809 -0.7740 -1.6743
  171DG     C17 3927   3.847   5.266   3.941 -0.2044 -0.8001 -0.0149
  171DG     C18 3928   3.958   5.415   4.089 -0.3191 -0.1561 -0.3082
  171DG     O19 3929   3.973   5.327   3.977  0.1520  0.0607 -0.7095
  171DG     H20 3930   3.808   5.195   4.008 -0.1910 -2.7189  0.6984
  171DG     H21 3931   3.764   5.336   3.942  0.9761  1.9953 -0.6421
  171DG     H22 3932   3.921   5.359   4.172  0.3251 -1.7742 -0.3005
  171DG     H23 3933   3.884   5.491   4.069  0.8766  1.0007 -3.0218
  172DG      C1 3934   2.325   3.303   0.641  0.5309  0.9705  0.3782
  172DG      C2 3935   2.733   3.509   0.115 -0.2316  0.6984  0.1693
  172DG      H3 3936   2.261   3.211   0.651 -2.2878  1.7828  2.0740
  172DG      H4 3937   2.274   3.389   0.678 -0.7188 -3.1907  2.7019
  172DG      H5 3938   2.424   3.287   0.694  1.9485  0.5040 -0.3722
  172DG      H6 3939   2.706   3.600   0.064  1.4584  0.2092 -1.5713
  172DG      H7 3940   2.794   3.533   0.203  0.5471  1.8341 -0.7947
  172DG      H8 3941   2.797   3.448   0.048  4.2458 -0.7090  1.6009
  172DG      O9 3942   2.364   3.322   0.513 -0.4193 -0.4423 -0.1094
  172DG     O10 3943   2.625   3.423   0.147  1.0710 -0.3384  0.1962
  172DG     C11 3944   2.248   3.359   0.432 -0.1839  0.1507 -0.5112
  172DG     C12 3945   2.528   3.427   0.046 -0.0376  0.1538  0.8347
  172DG     H13 3946   2.221   3.466   0.453  0.2101 -2.9690 -1.5042
  172DG     H14 3947   2.159   3.294   0.441  3.8002 -0.2611 -0.4545
  172DG     H15 3948   2.560   3.385  -0.045  1.0842 -0.4999  0.0081
  172DG     H16 3949   2.490   3.535   0.025 -2.4186 -0.3458 -1.1986
  172DG     C17 3950   2.271   3.321   0.286  0.3214  0.7220 -0.0495
  172DG     C18 3951   2.414   3.342   0.103 -0.0573  0.1210 -0.4965
  172DG     O19 3952   2.388   3.386   0.237  0.4050  0.4003  0.0239
  172DG     H20 3953   2.183   3.354   0.240  0.5793 -1.0195 -0.8431
  172DG     H21 3954   2.276   3.212   0.277 -0.8904  0.1145  1.5735
  172DG     H22 3955   2.324   3.343   0.051 -0.4245 -0.5590  0.6456
  172DG     H23 3956   2.436   3.240   0.106 -0.2967  0.6647 -1.2316
  173DG      C1 3957   0.268   0.050   1.891 -0.0673  0.2799  0.7049
  173DG      C2 3958   0.741  -0.667   1.943  0.3379 -0.2116  0.3209
  173DG      H3 3959   0.343   0.083   1.958 -2.7285 -1.6043 -0.1698
  173DG      H4 3960   0.177   0.098   1.929 -0.4241 -1.5963  1.0778
  173DG      H5 3961   0.299   0.093   1.795  1.5465 -1.9493  0.9434
  173DG      H6 3962   0.792  -0.595   2.002  2.0305  1.9214  0.5199
  173DG      H7 3963   0.787  -0.760   1.974 -0.6437  1.2957 -0.3894
  173DG      H8 3964   0.766  -0.653   1.838  0.2769 -1.0781  0.5356
  173DG      O9 3965   0.265  -0.096   1.886 -0.7556 -0.3515 -0.3424
  173DG     O10 3966   0.605  -0.658   1.975  0.2498 -0.0286 -0.3174
  173DG     C11 3967   0.264  -0.153   2.013  0.2920  0.4701 -0.4096
  173DG     C12 3968   0.568  -0.520   1.959  0.7388 -1.0477 -0.7578
  173DG     H13 3969   0.164  -0.140   2.068 -2.0209  0.9044  0.8622
  173DG     H14 3970   0.342  -0.109   2.074  1.5542 -1.1039  1.2092
  173DG     H15 3971   0.574  -0.499   1.846  0.0177  2.4387 -2.2516
  173DG     H16 3972   0.642  -0.460   2.021  0.0568  0.9237  0.5999
  173DG     C17 3973   0.286  -0.305   1.997 -0.2341  0.5402 -0.0717
  173DG     C18 3974   0.428  -0.485   2.024 -0.3085  0.4187  0.6046
  173DG     O19 3975   0.417  -0.340   2.016  0.1598 -0.0370  0.1957
  173DG     H20 3976   0.249  -0.343   1.902  3.0871  1.1549 -0.1885
  173DG     H21 3977   0.222  -0.357   2.071  0.7681 -1.8962 -3.6974
  173DG     H22 3978   0.349  -0.543   1.978 -2.0271 -1.5840  0.1805
  173DG     H23 3979   0.424  -0.510   2.128 -0.6379 -1.6890 -0.1836
  174DG      C1 3980   4.300   1.488   2.705 -0.1177 -0.6893 -0.6218
  174DG      C2 3981   4.231   0.898   2.112 -0.5443  0.0985  0.1452
  174DG      H3 3982   4.310   1.589   2.755 -1.7317 -0.8619  1.0075
  174DG      H4 3983   4.378   1.424   2.746  0.3160 -0.6500 -1.5814
  174DG      H5 3984   4.201   1.457   2.746 -0.6821  5.3773  1.4494
  174DG      H6 3985   4.176   0.829   2.174 -0.2739  0.5780 -1.0351
  174DG      H7 3986   4.185   0.909   2.008  2.2405 -1.6487  1.9763
  174DG      H8 3987   4.330   0.857   2.099 -1.0185  0.8379  0.5626
  174DG      O9 3988   4.297   1.504   2.561  0.2883 -0.3651  0.1887
  174DG     O10 3989   4.250   1.022   2.174 -0.3718 -0.0211  0.7210
  174DG     C11 3990   4.258   1.386   2.499 -0.0857  0.7587 -0.3397
  174DG     C12 3991   4.321   1.119   2.104 -0.5327 -0.6834  0.5183
  174DG     H13 3992   4.148   1.362   2.521 -2.7965  2.6856 -1.1127
  174DG     H14 3993   4.325   1.303   2.519 -1.1010 -1.5427  1.5687
  174DG     H15 3994   4.307   1.111   1.996 -1.1056 -0.1605  0.0864
  174DG     H16 3995   4.424   1.091   2.119  0.4725 -1.3988  0.2620
  174DG     C17 3996   4.267   1.395   2.349  0.0856 -0.1970 -0.4076
  174DG     C18 3997   4.271   1.256   2.150 -0.1507 -0.2907 -0.0856
  174DG     O19 3998   4.289   1.264   2.291  0.0639 -0.1362 -0.4354
  174DG     H20 3999   4.344   1.450   2.299 -2.1338  0.8043 -2.7577
  174DG     H21 4000   4.180   1.448   2.304  1.3393  1.1017  1.4145
  174DG     H22 4001   4.338   1.328   2.104  3.2396  0.5000  3.0996
  174DG     H23 4002   4.176   1.279   2.106  1.5550  0.1004 -0.4353
  175DG      C1 4003   2.176   3.543   3.757  0.5902  0.3159  0.9659
  175DG      C2 4004   1.997   3.054   3.265  0.0373  0.0584  0.4637
  175DG      H3 4005   2.227   3.453   3.745 -0.2051  3.4115 -2.3692
  175DG      H4 4006   2.101   3.512   3.840 -1.9385 -2.1171 -0.7445
  175DG      H5 4007   2.248   3.614   3.802  0.1194 -2.8702  1.8530
  175DG      H6 4008   2.071   2.977   3.252 -0.4481 -0.3121 -1.3515
  175DG      H7 4009   1.917   3.019   3.331 -1.7677  2.5827 -1.6100
  175DG      H8 4010   1.958   3.059   3.172 -0.9383 -1.7317  1.7732
  175DG      O9 4011   2.106   3.596   3.642 -1.0584  0.4045 -0.1347
  175DG     O10 4012   2.050   3.180   3.310 -0.2013  0.1729 -0.0360
  175DG     C11 4013   2.200   3.596   3.532 -0.1197  0.4240 -0.0626
  175DG     C12 4014   1.953   3.282   3.319 -0.0169 -0.0849 -0.0052
  175DG     H13 4015   2.301   3.634   3.570 -0.1318 -2.0316 -1.6069
  175DG     H14 4016   2.155   3.664   3.460  1.0264 -0.9291 -1.9934
  175DG     H15 4017   1.886   3.271   3.408  1.3366  0.2792 -0.1648
  175DG     H16 4018   1.899   3.306   3.228  0.0894  2.4462  0.5358
  175DG     C17 4019   2.222   3.455   3.476  0.0213 -0.3136 -0.0112
  175DG     C18 4020   2.030   3.403   3.345 -0.6543  0.3088  1.0200
  175DG     O19 4021   2.104   3.375   3.463 -0.0415  0.4924 -0.3211
  175DG     H20 4022   2.296   3.391   3.537  1.7000  1.2358  0.5973
  175DG     H21 4023   2.267   3.461   3.379  3.1738  0.7132 -0.4055
  175DG     H22 4024   2.100   3.432   3.254 -0.8491  1.1120 -0.8544
  175DG     H23 4025   1.974   3.491   3.354  2.6485  2.2227  0.6015
  176DG      C1 4026   2.741   3.931   1.449  0.2257  0.2939 -0.2009
  176DG      C2 4027   2.790   4.550   1.967  1.0348 -0.3420 -0.1227
  176DG      H3 4028   2.758   3.837   1.498  0.6796 -0.1342  1.0023
  176DG      H4 4029   2.776   3.917   1.345  0.9090  1.9730  0.0200
  176DG      H5 4030   2.636   3.961   1.453  2.3908 -0.0298  2.5008
  176DG      H6 4031   2.689   4.588   1.977  0.5443  1.0987  0.0906
  176DG      H7 4032   2.805   4.494   2.054  1.7888  1.2463  0.4903
  176DG      H8 4033   2.854   4.639   1.987 -1.3135  2.2185 -2.4348
  176DG      O9 4034   2.813   4.029   1.514 -0.2678 -0.6335  0.1525
  176DG     O10 4035   2.819   4.488   1.848  0.1434 -0.1626 -0.5492
  176DG     C11 4036   2.767   4.063   1.640 -0.2025  0.2880 -0.0606
  176DG     C12 4037   2.942   4.419   1.851  1.1916  0.1303 -0.0837
  176DG     H13 4038   2.757   3.965   1.689  3.6373 -0.6866  0.9073
  176DG     H14 4039   2.667   4.116   1.637  2.7382  0.3418  0.3676
  176DG     H15 4040   2.939   4.342   1.932  0.3196 -0.5578 -1.5913
  176DG     H16 4041   3.016   4.490   1.884 -3.1048  0.7784  3.9900
  176DG     C17 4042   2.873   4.145   1.708 -0.2293  0.1233  0.0372
  176DG     C18 4043   2.976   4.361   1.715  0.0117 -0.3230 -0.1008
  176DG     O19 4044   2.871   4.288   1.661 -0.2057 -0.4902 -0.4031
  176DG     H20 4045   2.970   4.091   1.702 -1.7503  0.6014  1.4874
  176DG     H21 4046   2.857   4.156   1.822 -2.8115 -0.0357 -0.7317
  176DG     H22 4047   2.996   4.450   1.645  0.3851  1.0218 -1.8128
  176DG     H23 4048   3.062   4.297   1.723 -0.0675  0.2467 -1.4686
  177DG      C1 4049   4.623   3.964   1.737  0.0709  0.4829  0.4161
  177DG      C2 4050   4.339   3.407   1.434 -0.1991 -0.9135 -0.4629
  177DG      H3 4051   4.583   3.963   1.835  1.5495  0.2912 -2.2120
  177DG      H4 4052   4.646   4.069   1.722 -0.1255  1.6176 -0.1505
  177DG      H5 4053   4.712   3.896   1.725  1.0032  0.8176 -2.1641
  177DG      H6 4054   4.430   3.365   1.387  1.8847  2.6461 -2.8053
  177DG      H7 4055   4.323   3.353   1.528 -1.8253 -0.1447 -2.2508
  177DG      H8 4056   4.258   3.382   1.365  0.3239  2.4143 -0.0169
  177DG      O9 4057   4.522   3.917   1.641  0.1877  0.6667  0.2300
  177DG     O10 4058   4.338   3.551   1.438 -0.3348  0.3633  0.1261
  177DG     C11 4059   4.404   4.000   1.640 -0.3048 -0.4473 -0.2101
  177DG     C12 4060   4.218   3.593   1.503  0.3955  0.6876  0.6234
  177DG     H13 4061   4.424   4.103   1.617 -2.5999  3.5194 -0.6356
  177DG     H14 4062   4.359   3.984   1.740 -3.1984 -0.9736 -3.1156
  177DG     H15 4063   4.225   3.576   1.609 -1.2055  0.6971  1.3052
  177DG     H16 4064   4.137   3.534   1.461  1.8022  1.2700 -0.6188
  177DG     C17 4065   4.293   3.949   1.538  0.6359 -0.5501 -1.0589
  177DG     C18 4066   4.192   3.744   1.477 -0.0332  0.1231  0.3814
  177DG     O19 4067   4.305   3.807   1.530  0.1830 -0.5287 -0.3669
  177DG     H20 4068   4.313   3.998   1.447  0.4958 -0.0614 -0.7701
  177DG     H21 4069   4.198   3.989   1.564  0.8986  0.2950  1.7702
  177DG     H22 4070   4.164   3.767   1.377 -0.2255 -1.4106  1.1973
  177DG     H23 4071   4.109   3.775   1.540  0.8067 -0.1515  0.1524
  178DG      C1 4072   2.316   0.212   1.064 -0.1582  0.0202  0.7230
  178DG      C2 4073   2.088   0.056   1.796  0.2174  0.2755 -0.6513
  178DG      H3 4074   2.220   0.197   1.009  2.1383  0.3306 -1.7036
  178DG      H4 4075   2.393   0.171   1.000  2.2400 -1.3428 -1.0263
  178DG      H5 4076   2.337   0.317   1.075 -1.4485  0.9942 -2.0375
  178DG      H6 4077   2.144   0.071   1.893  0.9039  1.0139  1.5772
  178DG      H7 4078   2.033   0.153   1.776 -0.3643 -0.2242  0.0182
  178DG      H8 4079   2.005  -0.018   1.814  0.5264 -1.4433  1.3354
  178DG      O9 4080   2.317   0.139   1.178  0.2654  0.3010 -0.1856
  178DG     O10 4081   2.177   0.013   1.693 -0.4479 -0.2291 -0.4571
  178DG     C11 4082   2.213   0.165   1.272  0.6462 -0.2314 -0.2961
  178DG     C12 4083   2.294   0.098   1.691  0.0480 -0.2594  0.6877
  178DG     H13 4084   2.112   0.145   1.223  1.0367 -0.7938  2.3566
  178DG     H14 4085   2.217   0.266   1.311 -0.0087  3.3371  0.1521
  178DG     H15 4086   2.348   0.089   1.788  0.8260 -2.5516  2.4291
  178DG     H16 4087   2.270   0.203   1.688 -3.2370 -0.3525 -3.1565
  178DG     C17 4088   2.244   0.072   1.393 -0.0078 -0.3665  0.3516
  178DG     C18 4089   2.387   0.073   1.570 -0.6880  0.7392  0.3127
  178DG     O19 4090   2.342   0.149   1.461 -0.0165 -0.2156 -0.0815
  178DG     H20 4091   2.287  -0.023   1.366  0.8485  0.9708  1.5140
  178DG     H21 4092   2.159   0.061   1.456 -0.9642 -0.8633 -1.3810
  178DG     H22 4093   2.489   0.119   1.593 -0.3329  1.3567 -1.5279
  178DG     H23 4094   2.400  -0.036   1.558  0.3313 -1.1724  1.2995
  179DG      C1 4095   2.851   3.862   1.993  0.3722  0.0599 -0.0927
  179DG      C2 4096   2.301   4.078   1.567 -0.0545 -0.4846  0.0508
  179DG      H3 4097   2.909   3.775   2.020 -1.0361  0.1853 -0.4023
  179DG      H4 4098   2.852   3.919   2.083  0.8022 -3.0308  0.3006
  179DG      H5 4099   2.912   3.912   1.925 -2.9241  0.9023  0.4086
  179DG      H6 4100   2.334   4.176   1.586 -3.2704 -0.8185 -1.1779
  179DG      H7 4101   2.283   4.071   1.461 -2.3490 -0.1677  0.6608
  179DG      H8 4102   2.213   4.070   1.630  2.3410 -0.3005 -1.3302
  179DG      O9 4103   2.726   3.840   1.942  0.2010 -0.9697  0.3358
  179DG     O10 4104   2.396   3.984   1.614  0.1468 -0.1166 -0.1744
  179DG     C11 4105   2.742   3.724   1.861  0.4536  0.2868 -0.5595
  179DG     C12 4106   2.363   3.851   1.583  0.3416  0.2569  0.7841
  179DG     H13 4107   2.776   3.638   1.914 -0.0638 -2.7611 -0.1986
  179DG     H14 4108   2.811   3.732   1.775  1.2982 -0.0162  2.4503
  179DG     H15 4109   2.404   3.828   1.484 -0.9883 -2.8160  0.9287
  179DG     H16 4110   2.251   3.842   1.566 -2.5897  0.4127 -0.9043
  179DG     C17 4111   2.603   3.679   1.811 -1.1528 -0.5824  0.0302
  179DG     C18 4112   2.429   3.738   1.673 -0.7197  0.0742 -0.2740
  179DG     O19 4113   2.557   3.774   1.716  0.1494  0.3584 -0.4154
  179DG     H20 4114   2.544   3.669   1.906 -0.0461 -0.0073  2.1538
  179DG     H21 4115   2.620   3.586   1.760 -0.2241  0.5877 -1.2832
  179DG     H22 4116   2.370   3.710   1.758 -0.3440  0.6872  0.5689
  179DG     H23 4117   2.438   3.651   1.612  1.6115  0.6846  1.0715
  180DG      C1 4118   4.108   2.243   4.013 -0.3362 -0.0522 -0.3814
  180DG      C2 4119   4.258   2.756   3.930 -1.0196  0.0536  0.6894
  180DG      H3 4120   4.121   2.262   3.906  1.0291  0.3055  2.5229
  180DG      H4 4121   4.012   2.213   4.036  0.8821  0.8694  0.6598
  180DG      H5 4122   4.176   2.158   4.028  1.0711 -0.5748 -0.8137
  180DG      H6 4123   4.153   2.728   3.940  0.5838 -1.0505 -1.0549
  180DG      H7 4124   4.274   2.858   3.903  3.4023 -2.8081  0.2949
  180DG      H8 4125   4.292   2.696   3.842  1.9440  0.3371  0.9279
  180DG      O9 4126   4.155   2.359   4.086 -0.5483  0.0334  0.0979
  180DG     O10 4127   4.327   2.706   4.049 -0.3914  0.1019  0.6978
  180DG     C11 4128   4.120   2.363   4.231 -0.3238 -0.6811 -0.2869
  180DG     C12 4129   4.273   2.767   4.171  0.0848  0.4828 -0.3757
  180DG     H13 4130   4.102   2.267   4.281 -1.5070 -0.6771 -0.6847
  180DG     H14 4131   4.033   2.423   4.228  0.1408 -0.1229 -3.3563
  180DG     H15 4132   4.221   2.863   4.167  2.3426  0.9989  0.0148
  180DG     H16 4133   4.350   2.801   4.242 -1.3065  0.3576  0.6161
  180DG     C17 4134   4.225   2.431   4.327 -0.2592  0.6036 -0.1156
  180DG     C18 4135   4.205   2.662   4.253  0.0088 -0.2237  0.4439
  180DG     O19 4136   4.280   2.541   4.263 -0.2456 -0.8621  0.1654
  180DG     H20 4137   4.294   2.360   4.378 -0.9963 -1.0318 -1.6261
  180DG     H21 4138   4.165   2.470   4.403  0.2153  0.5503 -0.3583
  180DG     H22 4139   4.200   2.703   4.353 -2.4481  1.2319 -0.7269
  180DG     H23 4140   4.102   2.642   4.216 -3.5828  1.0612 -2.3199
  181DG      C1 4141   0.707   5.458   2.073 -0.5906 -0.9152 -0.3506
  181DG      C2 4142   1.237   4.839   2.337 -0.4014  0.4755  0.7140
  181DG      H3 4143   0.679   5.567   2.039 -1.1620  2.1152  0.7171
  181DG      H4 4144   0.660   5.443   2.171 -1.5260 -0.2588  1.2554
  181DG      H5 4145   0.655   5.383   2.005 -1.1256 -1.2582  1.6338
  181DG      H6 4146   1.307   4.875   2.410  0.2693  0.1179 -2.2284
  181DG      H7 4147   1.144   4.807   2.382  1.0287 -1.8176  0.6939
  181DG      H8 4148   1.292   4.758   2.294  0.9853  0.2831  3.0344
  181DG      O9 4149   0.846   5.435   2.070  0.5829  0.6871  0.0760
  181DG     O10 4150   1.212   4.951   2.248  0.1616  0.4404 -0.3246
  181DG     C11 4151   0.891   5.319   2.137  0.3033 -0.6735  0.0540
  181DG     C12 4152   1.118   4.915   2.145  0.1517 -0.0720  0.3872
  181DG     H13 4153   0.813   5.248   2.177 -0.2535 -1.0227  0.5947
  181DG     H14 4154   0.945   5.361   2.222 -2.2517 -0.9833  1.2017
  181DG     H15 4155   1.020   4.902   2.191 -1.6481  3.2097  1.0665
  181DG     H16 4156   1.145   4.821   2.096  0.5652 -0.3836 -2.5147
  181DG     C17 4157   0.979   5.243   2.038 -0.6358 -0.3348 -0.1365
  181DG     C18 4158   1.097   5.031   2.038  0.1183  0.2921 -0.2126
  181DG     O19 4159   1.023   5.128   2.111 -0.1951 -0.2411  0.4413
  181DG     H20 4160   1.062   5.306   2.004  1.2970 -2.0252 -2.2376
  181DG     H21 4161   0.920   5.209   1.948 -1.3355  1.0440 -1.4889
  181DG     H22 4162   1.191   5.048   1.989  1.2132 -0.6050 -1.1337
  181DG     H23 4163   1.021   4.996   1.967 -0.6354 -0.6016 -0.6205
  182DG      C1 4164   1.912   0.428   4.116  0.9522  0.7869 -0.0599
  182DG      C2 4165   2.087   0.923   4.779  0.0489 -0.0324 -0.6675
  182DG      H3 4166   1.956   0.335   4.086  2.0308 -1.1076 -1.0148
  182DG      H4 4167   1.882   0.478   4.022 -1.5624  0.7573  1.7060
  182DG      H5 4168   1.824   0.423   4.178 -0.9581 -0.0843 -1.0085
  182DG      H6 4169   2.124   0.991   4.856 -0.5153  3.5919 -1.0056
  182DG      H7 4170   2.083   0.980   4.687  0.0024  2.6712  0.2066
  182DG      H8 4171   1.989   0.880   4.811 -1.8652  1.2463 -0.1095
  182DG      O9 4172   2.012   0.512   4.171 -0.2274 -0.5134 -0.1555
  182DG     O10 4173   2.169   0.813   4.751  0.1197  0.4857  0.1414
  182DG     C11 4174   2.060   0.475   4.296  0.0551  0.2520 -0.3679
  182DG     C12 4175   2.109   0.743   4.640 -0.4335 -0.4473 -0.3065
  182DG     H13 4176   2.136   0.400   4.292  0.8494 -0.8981 -1.9800
  182DG     H14 4177   1.973   0.433   4.352  0.2015 -1.6279  0.7124
  182DG     H15 4178   2.076   0.808   4.565  0.7252  2.6303  3.9416
  182DG     H16 4179   2.023   0.688   4.659 -1.3993  0.7353  0.3930
  182DG     C17 4180   2.120   0.596   4.372 -0.1811  0.1419 -0.2433
  182DG     C18 4181   2.219   0.650   4.585 -0.3266  0.1411  0.4006
  182DG     O19 4182   2.175   0.548   4.493 -0.6360  0.1406  0.1571
  182DG     H20 4183   2.049   0.671   4.388 -4.8157 -0.4744  1.8772
  182DG     H21 4184   2.205   0.638   4.314  0.0271 -1.3677  0.5486
  182DG     H22 4185   2.298   0.715   4.547  0.4998 -1.1218 -3.5957
  182DG     H23 4186   2.274   0.594   4.659  0.3136 -1.6476 -2.8848
  183DG      C1 4187   3.423   5.011   1.244  0.4711 -0.1813 -0.5424
  183DG      C2 4188   3.280   5.111   0.599 -1.0726  0.5374 -0.1941
  183DG      H3 4189   3.321   4.980   1.233  0.7768 -1.9599 -1.5029
  183DG      H4 4190   3.433   5.118   1.276 -1.6937  1.5952  1.1764
  183DG      H5 4191   3.455   4.954   1.333 -0.3714 -0.5124 -1.5042
  183DG      H6 4192   3.184   5.068   0.599  1.5658  1.9607 -1.6107
  183DG      H7 4193   3.262   5.205   0.649  0.9998  0.0316 -0.8008
  183DG      H8 4194   3.297   5.127   0.492 -3.2056  0.9069 -0.7841
  183DG      O9 4195   3.498   4.957   1.134 -0.0821 -0.1805 -0.7448
  183DG     O10 4196   3.374   5.034   0.668 -0.1624  0.2734  0.0607
  183DG     C11 4197   3.637   4.979   1.118  0.0237 -0.8322  0.0958
  183DG     C12 4198   3.498   5.099   0.684 -0.4593 -0.1579 -0.4450
  183DG     H13 4199   3.701   4.929   1.191  1.4903 -2.7993 -3.1720
  183DG     H14 4200   3.646   5.086   1.135 -1.3847  3.4536 -1.6319
  183DG     H15 4201   3.483   5.190   0.729 -0.2784 -2.4466  0.5892
  183DG     H16 4202   3.524   5.124   0.581 -1.2515  0.6064 -1.3368
  183DG     C17 4203   3.661   4.935   0.973  0.5996 -0.3857  0.7867
  183DG     C18 4204   3.597   5.014   0.754 -0.3990 -0.8428  0.8493
  183DG     O19 4205   3.566   5.007   0.889  0.0326  0.2871 -0.2987
  183DG     H20 4206   3.661   4.826   0.961 -0.1054 -0.5608 -0.5494
  183DG     H21 4207   3.762   4.965   0.957 -1.1058  0.3168  1.1490
  183DG     H22 4208   3.595   4.909   0.709  0.7789 -2.7332 -0.3405
  183DG     H23 4209   3.695   5.058   0.757  0.1889  0.2985 -0.0706
  184DG      C1 4210   1.666   3.750   1.438 -0.3753 -0.2464 -0.4442
  184DG      C2 4211   2.232   3.683   1.235  0.1485  0.6435 -0.1759
  184DG      H3 4212   1.574   3.699   1.419  1.4623 -0.3940 -2.1273
  184DG      H4 4213   1.723   3.682   1.499  2.0321 -2.1826  0.7685
  184DG      H5 4214   1.720   3.752   1.341  0.1077 -1.8634 -0.8919
  184DG      H6 4215   2.268   3.684   1.136  0.2234 -0.3271  1.1471
  184DG      H7 4216   2.273   3.758   1.291  0.8241 -0.7794 -1.6359
  184DG      H8 4217   2.268   3.580   1.279 -0.3623  0.4371  2.0850
  184DG      O9 4218   1.655   3.879   1.485 -0.7713 -0.8656  0.4701
  184DG     O10 4219   2.087   3.679   1.243  0.3221  0.5554  0.5589
  184DG     C11 4220   1.776   3.947   1.535  0.1316  0.1999 -0.0991
  184DG     C12 4221   2.031   3.780   1.160 -0.6626  0.5001 -0.6742
  184DG     H13 4222   1.829   3.892   1.611  0.5295  1.7734  0.1680
  184DG     H14 4223   1.737   4.040   1.578 -2.2342 -2.8273  0.8521
  184DG     H15 4224   1.934   3.745   1.126  0.7456  2.3773  2.6272
  184DG     H16 4225   2.087   3.801   1.073  0.2297 -1.0102  3.3071
  184DG     C17 4226   1.870   3.988   1.422 -0.8612 -0.4738 -0.3486
  184DG     C18 4227   2.010   3.902   1.251 -0.1684  0.1979 -0.5678
  184DG     O19 4228   1.923   3.869   1.357  0.2463 -1.1633  0.6324
  184DG     H20 4229   1.960   4.036   1.462  0.2631  2.3844  1.4689
  184DG     H21 4230   1.814   4.054   1.359 -1.4153  1.4202  0.9520
  184DG     H22 4231   2.109   3.946   1.282  0.6553  1.2360 -1.2578
  184DG     H23 4232   1.961   3.990   1.198  0.4602  1.3252  0.0210
  185DG      C1 4233   2.766   2.115   3.288  0.3266 -0.3879  0.9426
  185DG      C2 4234   2.165   2.179   3.387  0.6931  0.3959  0.2120
  185DG      H3 4235   2.857   2.091   3.343 -0.9146 -0.8223  2.3078
  185DG      H4 4236   2.806   2.171   3.196 -2.7326 -0.2346 -0.7261
  185DG      H5 4237   2.712   2.022   3.257  0.4677 -0.9643 -1.5124
  185DG      H6 4238   2.089   2.174   3.315 -0.2237 -2.1641  1.8001
  185DG      H7 4239   2.255   2.178   3.324 -2.8483  0.9435 -2.8916
  185DG      H8 4240   2.172   2.083   3.445  0.6145 -2.7688 -1.6279
  185DG      O9 4241   2.672   2.198   3.352  0.0624  0.1894  0.4434
  185DG     O10 4242   2.151   2.280   3.483  0.1030 -0.0356 -0.3655
  185DG     C11 4243   2.605   2.286   3.265 -0.0604  0.0295 -0.4370
  185DG     C12 4244   2.250   2.281   3.587  0.1913 -0.4063 -0.2618
  185DG     H13 4245   2.554   2.226   3.199  0.4160  0.1312  0.3458
  185DG     H14 4246   2.680   2.350   3.204 -0.0689  1.9251  0.2083
  185DG     H15 4247   2.276   2.179   3.619 -1.4999  0.5540  2.5573
  185DG     H16 4248   2.213   2.322   3.683  2.2805  1.3750  0.3907
  185DG     C17 4249   2.513   2.375   3.351  0.1850 -0.1992 -1.1155
  185DG     C18 4250   2.370   2.374   3.547 -0.4407  0.4357 -0.5749
  185DG     O19 4251   2.434   2.300   3.442  0.0603 -0.4828  0.4648
  185DG     H20 4252   2.447   2.431   3.284  0.7603 -0.6178  0.9074
  185DG     H21 4253   2.567   2.448   3.408 -0.0137 -1.3060 -0.6818
  185DG     H22 4254   2.322   2.471   3.533 -0.5760 -0.7242 -0.3804
  185DG     H23 4255   2.447   2.388   3.619  0.0320  2.5874 -0.5566
  186DG      C1 4256   3.830   1.047   3.417 -0.1313  0.1039 -0.3895
  186DG      C2 4257   3.949   0.976   2.742 -0.2462 -0.4059 -0.0735
  186DG      H3 4258   3.778   1.078   3.505  1.1942 -1.5500 -0.1476
  186DG      H4 4259   3.919   1.007   3.465 -2.7871  2.0942  1.1993
  186DG      H5 4260   3.768   0.965   3.375 -1.7215 -1.0383  1.5614
  186DG      H6 4261   4.023   1.049   2.767 -1.1328  1.1946  0.8146
  186DG      H7 4262   4.002   0.882   2.759 -1.0867  0.2998 -1.7340
  186DG      H8 4263   3.917   0.994   2.636  1.1137  1.8725 -2.1992
  186DG      O9 4264   3.848   1.149   3.322 -0.0447 -0.3445  0.2575
  186DG     O10 4265   3.845   0.982   2.844 -0.0991 -0.1049  0.3858
  186DG     C11 4266   3.719   1.211   3.290 -0.3749  0.4192 -0.3499
  186DG     C12 4267   3.760   1.095   2.831  0.3400  0.6512  0.4022
  186DG     H13 4268   3.736   1.310   3.247  0.3796 -2.0407 -1.2021
  186DG     H14 4269   3.656   1.214   3.380 -3.6507 -0.5182  1.5039
  186DG     H15 4270   3.686   1.071   2.760 -0.4087 -0.5668  0.2668
  186DG     H16 4271   3.802   1.194   2.826 -2.8426 -2.5058  3.5992
  186DG     C17 4272   3.649   1.136   3.181 -0.2017  0.2059  0.1110
  186DG     C18 4273   3.665   1.099   2.955  0.0812  0.9694 -0.3471
  186DG     O19 4274   3.738   1.134   3.072  0.5390  0.5440 -0.2757
  186DG     H20 4275   3.555   1.182   3.156 -2.1425  1.5729 -0.5126
  186DG     H21 4276   3.627   1.037   3.216  1.5618 -0.1619 -0.8809
  186DG     H22 4277   3.596   1.186   2.943  1.6490 -0.5644  0.4444
  186DG     H23 4278   3.606   1.007   2.954 -0.9755 -1.1796 -1.9400
  187DG      C1 4279   4.968   5.169   0.154  0.6115 -0.4960  0.5615
  187DG      C2 4280   4.543   5.199   0.601 -0.5698 -0.6922 -0.2328
  187DG      H3 4281   4.989   5.063   0.145  2.1682  1.4519  1.6232
  187DG      H4 4282   5.011   5.196   0.242  1.9333  1.7262 -2.4410
  187DG      H5 4283   5.027   5.224   0.079  1.4577 -1.0085 -1.0385
  187DG      H6 4284   4.619   5.272   0.645 -0.7952  3.4356  0.9045
  187DG      H7 4285   4.459   5.257   0.571 -1.2854 -1.0790  0.5390
  187DG      H8 4286   4.530   5.120   0.675  0.2556 -1.3401  1.0607
  187DG      O9 4287   4.838   5.213   0.138 -0.0429  0.2099 -0.2042
  187DG     O10 4288   4.594   5.148   0.486 -0.2274  0.3657  0.6255
  187DG     C11 4289   4.761   5.136   0.050 -0.0908  0.2387  0.2150
  187DG     C12 4290   4.505   5.068   0.413  0.7501 -0.6420  0.1400
  187DG     H13 4291   4.756   5.034   0.080 -0.4612 -1.3176 -0.9606
  187DG     H14 4292   4.781   5.127  -0.061 -1.6214 -1.4783 -0.3082
  187DG     H15 4293   4.407   5.116   0.415  0.1051  2.0507  1.0285
  187DG     H16 4294   4.503   4.975   0.477 -0.0340 -0.8849  0.2401
  187DG     C17 4295   4.616   5.183   0.070 -0.6456  0.2307 -0.5749
  187DG     C18 4296   4.573   5.057   0.273 -0.5255  0.3488  0.1165
  187DG     O19 4297   4.580   5.185   0.203 -0.2341  0.8682  0.0208
  187DG     H20 4298   4.550   5.111   0.011 -0.6218  0.8812  0.7557
  187DG     H21 4299   4.606   5.284   0.024 -2.0884  0.9285  1.6602
  187DG     H22 4300   4.679   5.016   0.286 -0.4133 -1.2396 -0.1486
  187DG     H23 4301   4.521   4.987   0.210  0.9183 -0.7326 -0.6124
  188DG      C1 4302   2.664   1.269   2.817  0.1243  0.0499 -0.0380
  188DG      C2 4303   2.853   0.737   2.623 -0.0187  0.5992  0.2021
  188DG      H3 4304   2.702   1.319   2.907 -0.9216  0.3810  1.9566
  188DG      H4 4305   2.588   1.194   2.852  3.4301 -1.5437  1.3949
  188DG      H5 4306   2.617   1.338   2.748 -3.3077 -1.2058  1.3138
  188DG      H6 4307   2.861   0.842   2.615  4.3723 -0.3210  0.8178
  188DG      H7 4308   2.939   0.686   2.573  0.4251  0.3482 -0.6779
  188DG      H8 4309   2.763   0.701   2.570  1.0729 -0.9022  0.1905
  188DG      O9 4310   2.773   1.205   2.755  0.0108 -0.9012 -0.3372
  188DG     O10 4311   2.833   0.695   2.757 -0.3227 -0.3233 -0.0825
  188DG     C11 4312   2.888   1.181   2.836  0.0271  0.1651  0.2241
  188DG     C12 4313   2.716   0.729   2.828 -0.0000 -0.2170 -0.9266
  188DG     H13 4314   2.927   1.268   2.896  1.2706 -1.3122 -1.8579
  188DG     H14 4315   2.968   1.161   2.764  0.2215 -0.3597 -2.5450
  188DG     H15 4316   2.683   0.629   2.878  0.1100  0.1939  0.0946
  188DG     H16 4317   2.644   0.755   2.757  3.4297 -4.3139  0.2968
  188DG     C17 4318   2.857   1.060   2.925 -0.4905  0.5221  0.2386
  188DG     C18 4319   2.743   0.839   2.930 -0.4782  0.4108  0.4577
  188DG     O19 4320   2.780   0.957   2.855 -0.5812 -0.2102  0.5907
  188DG     H20 4321   2.797   1.085   3.016 -0.9100 -0.1557 -3.1377
  188DG     H21 4322   2.956   1.018   2.947  0.9686 -1.3560 -0.7548
  188DG     H22 4323   2.662   0.863   2.991 -1.1662  0.3506 -1.8194
  188DG     H23 4324   2.827   0.804   2.995 -2.6643 -1.8598 -1.7453
  189DG      C1 4325   2.013   2.865   0.914  0.5725  0.3623 -0.0109
  189DG      C2 4326   2.341   2.865   1.107 -0.6962 -0.1453 -0.1445
  189DG      H3 4327   1.962   2.963   0.915 -0.1592 -2.6065 -2.0112
  189DG      H4 4328   2.015   2.831   0.813  2.0607  0.7626  0.6894
  189DG      H5 4329   2.124   2.868   0.935 -0.7941 -1.0511  1.6573
  189DG      H6 4330   2.244   2.822   1.107  2.7463 -0.9296 -3.2627
  189DG      H7 4331   2.363   2.876   1.216  0.4037 -0.0634 -3.2638
  189DG      H8 4332   2.345   2.954   1.045 -0.5247  2.7883 -0.8713
  189DG      O9 4333   1.928   2.794   0.997 -0.0543  0.4981 -0.8793
  189DG     O10 4334   2.429   2.765   1.066 -0.2834  0.0316 -0.4122
  189DG     C11 4335   1.952   2.650   0.991 -0.2307 -0.2307  0.4273
  189DG     C12 4336   2.393   2.634   1.106 -0.8975  0.3226 -0.2214
  189DG     H13 4337   1.934   2.619   0.888 -2.7665  0.7019  1.3001
  189DG     H14 4338   1.872   2.603   1.047  0.6593 -0.5264 -0.6961
  189DG     H15 4339   2.334   2.644   1.198  1.6902  2.6451  0.7621
  189DG     H16 4340   2.487   2.570   1.128  0.3209  1.0266  0.2882
  189DG     C17 4341   2.084   2.599   1.044 -0.0576  0.1775  1.0271
  189DG     C18 4342   2.314   2.556   1.000 -0.6935 -0.1862 -0.0636
  189DG     O19 4343   2.192   2.624   0.954 -1.1079 -0.2258  0.5675
  189DG     H20 4344   2.068   2.489   1.061 -1.1201  0.9348 -1.1608
  189DG     H21 4345   2.103   2.637   1.148  0.6589  0.5115 -2.4987
  189DG     H22 4346   2.380   2.536   0.913 -2.3503 -1.5376  1.6553
  189DG     H23 4347   2.294   2.454   1.041 -3.9678 -0.9741  0.0327
  190DG      C1 4348   3.805   0.010   4.356  0.7027 -0.0553  0.1220
  190DG      C2 4349   4.132   0.421   3.873  0.0696  0.4338 -0.0528
  190DG      H3 4350   3.754   0.037   4.453 -0.4226 -1.2188  0.0159
  190DG      H4 4351   3.912   0.006   4.374 -2.1530 -1.3117 -1.1153
  190DG      H5 4352   3.769  -0.091   4.310 -0.1226 -0.6180  0.3779
  190DG      H6 4353   4.218   0.422   3.938  0.4090 -0.9464  0.5995
  190DG      H7 4354   4.170   0.456   3.774  0.8978  0.7851 -0.1177
  190DG      H8 4355   4.066   0.510   3.900 -1.0986 -0.7798  1.7599
  190DG      O9 4356   3.781   0.107   4.253 -0.2894 -0.1357 -0.0042
  190DG     O10 4357   4.064   0.302   3.887  0.1911 -0.0327 -0.2335
  190DG     C11 4358   3.790   0.241   4.285  0.0586  0.1235  0.3916
  190DG     C12 4359   3.932   0.306   3.835 -0.1654  0.0121  0.6518
  190DG     H13 4360   3.897   0.261   4.311 -2.9698  0.7600  0.3471
  190DG     H14 4361   3.741   0.263   4.376 -1.6707  2.1739 -0.8082
  190DG     H15 4362   3.904   0.206   3.817  1.4620 -0.2872 -1.6979
  190DG     H16 4363   3.923   0.354   3.742 -1.9201  0.1471 -1.9111
  190DG     C17 4364   3.752   0.317   4.160  0.6402 -0.5123 -0.1794
  190DG     C18 4365   3.831   0.358   3.940 -0.7057  0.0778  0.1540
  190DG     O19 4366   3.825   0.265   4.044 -0.3678 -0.6943 -0.2064
  190DG     H20 4367   3.756   0.426   4.171  3.6368  1.5181 -0.7897
  190DG     H21 4368   3.641   0.290   4.142 -0.9554  3.2903  0.8310
  190DG     H22 4369   3.866   0.458   3.965 -2.5523 -1.7767  0.2554
  190DG     H23 4370   3.737   0.363   3.904  0.1952  1.8650 -0.3232
  191DG      C1 4371   1.666   4.782   0.284 -0.2384 -0.3866 -1.0025
  191DG      C2 4372   1.420   4.704  -0.492  0.1387  0.7410  0.5499
  191DG      H3 4373   1.768   4.808   0.315 -0.4944 -1.5428  2.5220
  191DG      H4 4374   1.671   4.671   0.297 -0.1457 -0.3095 -0.4248
  191DG      H5 4375   1.591   4.828   0.350 -0.7469 -2.0809  1.8108
  191DG      H6 4376   1.363   4.776  -0.550  1.8132  0.3170  0.2933
  191DG      H7 4377   1.517   4.700  -0.550 -0.2455  0.6738 -3.3348
  191DG      H8 4378   1.376   4.605  -0.493  0.0670 -1.1184  3.8916
  191DG      O9 4379   1.633   4.812   0.153 -0.1523 -0.0269  0.1401
  191DG     O10 4380   1.420   4.746  -0.359 -0.2378 -0.3153  0.2698
  191DG     C11 4381   1.492   4.800   0.127 -0.5958  0.1187  0.1213
  191DG     C12 4382   1.497   4.644  -0.284 -0.5189 -0.0088 -0.0768
  191DG     H13 4383   1.436   4.850   0.207  2.1821  1.7757  0.2259
  191DG     H14 4384   1.458   4.694   0.127 -1.4321  0.8571  1.4972
  191DG     H15 4385   1.601   4.648  -0.313  1.2342  1.0393  1.9032
  191DG     H16 4386   1.462   4.542  -0.303 -1.8113 -0.4728  1.8566
  191DG     C17 4387   1.440   4.868  -0.001 -0.0288  0.3038  0.0784
  191DG     C18 4388   1.471   4.671  -0.137 -0.7312 -0.5104 -1.1172
  191DG     O19 4389   1.508   4.809  -0.112  0.0896  0.2588  0.4415
  191DG     H20 4390   1.461   4.975   0.004 -0.4918 -0.8506  0.4386
  191DG     H21 4391   1.335   4.861  -0.019 -1.4479 -2.3562 -2.5624
  191DG     H22 4392   1.368   4.654  -0.103  0.5596 -0.3166  1.3856
  191DG     H23 4393   1.530   4.612  -0.067 -0.2813 -0.2254  0.8536
  192DG      C1 4394   3.156   4.718   0.562 -0.2175 -0.1783  0.1620
  192DG      C2 4395   3.218   4.072   0.138 -0.2454  1.0979  1.0022
  192DG      H3 4396   3.072   4.652   0.580 -0.7818  2.1975  0.6301
  192DG      H4 4397   3.136   4.821   0.541  1.2042  0.3942 -0.8991
  192DG      H5 4398   3.223   4.716   0.648  3.2005 -0.5961  0.7389
  192DG      H6 4399   3.139   4.092   0.067 -1.4335  2.4464 -0.6421
  192DG      H7 4400   3.287   3.995   0.104 -1.0825  0.4428  1.0676
  192DG      H8 4401   3.168   4.039   0.225  2.3870 -0.8595 -1.6652
  192DG      O9 4402   3.244   4.670   0.458 -0.3770  0.6533  0.1558
  192DG     O10 4403   3.287   4.192   0.167  0.8240  0.8803  0.0688
  192DG     C11 4404   3.190   4.671   0.328 -0.4070 -0.4711  0.1405
  192DG     C12 4405   3.308   4.268   0.052 -0.4648 -0.2081  0.2637
  192DG     H13 4406   3.180   4.777   0.304  3.0889  0.3965 -0.1457
  192DG     H14 4407   3.091   4.626   0.333  0.1131 -1.1320 -2.5286
  192DG     H15 4408   3.212   4.288   0.010  0.9483 -0.5064 -3.0033
  192DG     H16 4409   3.383   4.214  -0.009  1.5591 -2.6851  2.3846
  192DG     C17 4410   3.289   4.603   0.232 -0.0694  0.2378 -0.1072
  192DG     C18 4411   3.353   4.407   0.104  0.0303  0.4423 -0.0377
  192DG     O19 4412   3.271   4.463   0.205 -0.2566 -0.3404  0.5696
  192DG     H20 4413   3.384   4.621   0.277  0.8563  1.1885 -0.9950
  192DG     H21 4414   3.292   4.656   0.137 -1.3578 -2.7597 -1.5890
  192DG     H22 4415   3.460   4.404   0.142 -0.0291  1.9694 -0.2098
  192DG     H23 4416   3.353   4.468   0.017 -1.5249 -0.5579 -0.5193
  193DG      C1 4417   1.954   4.116   0.174  0.2773 -0.2572 -0.3139
  193DG      C2 4418   2.034   4.549  -0.332  0.1453  0.2863  0.0010
  193DG      H3 4419   2.050   4.080   0.199 -1.4440  0.6906 -4.7125
  193DG      H4 4420   1.924   4.069   0.084  2.4711 -0.1553  3.9125
  193DG      H5 4421   1.891   4.078   0.257  1.9867 -0.8152  0.3680
  193DG      H6 4422   2.127   4.509  -0.365 -1.3989 -1.5947  2.0970
  193DG      H7 4423   1.957   4.474  -0.360 -2.2291 -1.2735  1.4178
  193DG      H8 4424   2.021   4.641  -0.388 -0.0093 -0.5537 -2.0676
  193DG      O9 4425   1.941   4.256   0.158  0.4446  0.0733 -0.1099
  193DG     O10 4426   2.015   4.553  -0.192 -0.0453 -0.4595  0.2007
  193DG     C11 4427   1.806   4.288   0.141 -0.1629 -0.4933  0.0170
  193DG     C12 4428   1.914   4.647  -0.162  0.2290 -0.0305 -0.6240
  193DG     H13 4429   1.750   4.261   0.229 -0.4790 -0.1623 -3.5063
  193DG     H14 4430   1.761   4.248   0.054 -1.3105  0.6545 -1.0985
  193DG     H15 4431   1.828   4.630  -0.228  1.6397 -2.5282 -0.7845
  193DG     H16 4432   1.945   4.751  -0.194  1.6029  0.1796 -0.5211
  193DG     C17 4433   1.809   4.436   0.124 -0.4571 -0.4857 -0.5022
  193DG     C18 4434   1.865   4.616  -0.017  0.0495  0.2914  0.0197
  193DG     O19 4435   1.870   4.473   0.005  0.0305  0.0635 -0.2464
  193DG     H20 4436   1.865   4.474   0.218  0.2848  1.7270  2.2424
  193DG     H21 4437   1.701   4.465   0.130 -1.5958 -0.2214  1.3644
  193DG     H22 4438   1.924   4.664   0.064 -1.8130 -1.9131  0.9106
  193DG     H23 4439   1.769   4.668  -0.004 -0.0740 -2.3722  1.6160
  194DG      C1 4440   3.729   1.187   2.071  0.7818  0.3897 -0.4783
  194DG      C2 4441   3.546   1.566   2.657  0.2840 -0.5115 -0.6910
  194DG      H3 4442   3.778   1.256   2.002  0.6465  0.6879 -0.3802
  194DG      H4 4443   3.619   1.187   2.045  0.6182 -0.6417  1.3897
  194DG      H5 4444   3.769   1.086   2.061  1.0236 -1.9138 -2.5793
  194DG      H6 4445   3.496   1.631   2.588  1.3174 -2.1835  0.7105
  194DG      H7 4446   3.464   1.501   2.699 -1.1570 -0.5158 -3.0190
  194DG      H8 4447   3.591   1.627   2.735  1.3866 -0.2484  1.7354
  194DG      O9 4448   3.728   1.256   2.195 -0.3530 -0.2203 -0.2298
  194DG     O10 4449   3.655   1.504   2.591  0.8741  0.0484  0.0672
  194DG     C11 4450   3.841   1.235   2.275  0.5825  0.4861 -0.4068
  194DG     C12 4451   3.733   1.601   2.526 -0.3784 -0.3138 -0.9494
  194DG     H13 4452   3.936   1.246   2.222  0.1874  3.3339  1.3071
  194DG     H14 4453   3.830   1.128   2.304  0.6135 -0.4437  1.7654
  194DG     H15 4454   3.733   1.700   2.571  0.0297  0.7572 -1.8386
  194DG     H16 4455   3.695   1.636   2.428 -1.1352  1.3475  1.6256
  194DG     C17 4456   3.843   1.332   2.397  0.4404 -0.5579 -0.2899
  194DG     C18 4457   3.873   1.546   2.487  0.0474  0.0127  0.2952
  194DG     O19 4458   3.866   1.466   2.364  0.2013  0.2957 -0.5769
  194DG     H20 4459   3.911   1.289   2.475 -0.4583  2.6036 -0.2113
  194DG     H21 4460   3.748   1.320   2.448 -0.0814 -2.5982 -0.2838
  194DG     H22 4461   3.938   1.629   2.477 -1.3254 -2.0160 -1.1517
  194DG     H23 4462   3.923   1.489   2.561  0.0420  3.3320  0.9824
  195DG      C1 4463   3.835   2.069   3.772  0.3225  0.0355 -0.7034
  195DG      C2 4464   3.841   1.575   4.368  0.2041 -0.4974 -1.1442
  195DG      H3 4465   3.748   2.061   3.706 -0.0995  1.2246 -1.2295
  195DG      H4 4466   3.911   2.024   3.715 -0.4613 -3.3058  0.1201
  195DG      H5 4467   3.879   2.172   3.780  1.3619 -0.2396 -0.3874
  195DG      H6 4468   3.935   1.617   4.391  2.3254  1.6954 -0.0623
  195DG      H7 4469   3.782   1.568   4.458  0.2442  0.3728  1.0146
  195DG      H8 4470   3.862   1.484   4.323 -1.0614 -1.1504 -1.2498
  195DG      O9 4471   3.816   2.010   3.898  0.5276  0.5390  0.0016
  195DG     O10 4472   3.765   1.657   4.281  0.0522 -0.1524 -0.2558
  195DG     C11 4473   3.722   1.906   3.892 -0.4920 -0.1945  0.1426
  195DG     C12 4474   3.640   1.598   4.237 -0.7948 -0.1090  0.0355
  195DG     H13 4475   3.754   1.823   3.820 -0.1270 -4.3688  0.7506
  195DG     H14 4476   3.624   1.933   3.849  0.6912  0.4493 -1.2975
  195DG     H15 4477   3.577   1.547   4.313 -4.2862 -0.1035 -1.6757
  195DG     H16 4478   3.653   1.514   4.163 -0.2360  0.0236  0.3805
  195DG     C17 4479   3.702   1.855   4.045  0.3882 -0.7794 -0.1302
  195DG     C18 4480   3.562   1.714   4.173  0.3463  0.3718 -0.4254
  195DG     O19 4481   3.608   1.747   4.048 -0.7030 -0.1692 -0.0465
  195DG     H20 4482   3.652   1.937   4.095 -3.3492 -1.6301 -1.4759
  195DG     H21 4483   3.794   1.834   4.104  2.1159  0.7367  3.9641
  195DG     H22 4484   3.463   1.663   4.157  1.7366 -0.3182  0.2934
  195DG     H23 4485   3.540   1.799   4.241  1.7304  0.9392  1.4152
  196DG      C1 4486   0.154   3.245   3.387  0.6953  0.0412  0.1111
  196DG      C2 4487   0.908   3.400   3.402  0.2758 -0.0868 -0.0325
  196DG      H3 4488   0.130   3.309   3.472 -2.0165  2.5304 -0.2838
  196DG      H4 4489   0.080   3.162   3.391  0.5435 -1.9825  0.4515
  196DG      H5 4490   0.127   3.300   3.292 -0.7285  0.6806 -0.6445
  196DG      H6 4491   0.924   3.473   3.482  2.7950 -1.6356  1.0504
  196DG      H7 4492   1.003   3.346   3.403 -0.9309 -3.1360  1.8694
  196DG      H8 4493   0.891   3.460   3.312  3.2177  1.9722 -1.1015
  196DG      O9 4494   0.287   3.200   3.368  0.2206  0.1331 -0.3308
  196DG     O10 4495   0.797   3.319   3.431  0.6362 -0.0983  0.6563
  196DG     C11 4496   0.316   3.119   3.480  0.0835 -0.1565  0.7120
  196DG     C12 4497   0.791   3.249   3.559  0.0770 -0.7752  0.1466
  196DG     H13 4498   0.267   3.024   3.462  0.6220  0.7549 -2.4737
  196DG     H14 4499   0.298   3.166   3.574 -0.4434  0.9777  2.6985
  196DG     H15 4500   0.768   3.323   3.637  0.1693 -1.9278  0.0822
  196DG     H16 4501   0.881   3.205   3.585 -0.1315 -1.3452  2.5924
  196DG     C17 4502   0.465   3.071   3.482 -0.0315  0.2450  0.2584
  196DG     C18 4503   0.687   3.136   3.540 -0.3013  0.3118 -0.5771
  196DG     O19 4504   0.552   3.182   3.510 -0.3232 -0.5048  0.6710
  196DG     H20 4505   0.484   3.041   3.372  0.2864  2.0750 -1.1371
  196DG     H21 4506   0.482   2.984   3.547  2.5272 -0.1036 -0.6563
  196DG     H22 4507   0.725   3.066   3.467 -0.6472 -0.5076  0.0743
  196DG     H23 4508   0.672   3.081   3.636 -1.4088 -0.7157  2.6731
  197DG      C1 4509   1.619   2.555   3.283 -0.5514  0.4388  0.4276
  197DG      C2 4510   1.815   1.845   3.548 -1.2345  0.1435 -0.6243
  197DG      H3 4511   1.654   2.664   3.299 -0.6512  2.4802 -1.2003
  197DG      H4 4512   1.525   2.559   3.232  1.9347 -0.0285 -0.0600
  197DG      H5 4513   1.698   2.508   3.221  0.4289  0.6310  0.1484
  197DG      H6 4514   1.734   1.804   3.491  2.3813  2.8759 -2.1961
  197DG      H7 4515   1.897   1.802   3.485 -0.0826  0.1379 -0.1014
  197DG      H8 4516   1.824   1.805   3.647  1.5635 -1.2393 -0.1724
  197DG      O9 4517   1.630   2.471   3.395  0.0085  0.3387  0.2027
  197DG     O10 4518   1.814   1.985   3.555  0.1424  0.1352 -0.1168
  197DG     C11 4519   1.757   2.478   3.468  0.0165  0.2973 -0.4673
  197DG     C12 4520   1.706   2.033   3.629 -0.9020  0.3302  0.0600
  197DG     H13 4521   1.787   2.587   3.487  1.6329 -0.0980 -2.2652
  197DG     H14 4522   1.831   2.421   3.401  0.3624  0.9134 -0.5257
  197DG     H15 4523   1.702   1.987   3.731 -1.5717  1.6522 -1.8733
  197DG     H16 4524   1.611   2.000   3.586 -3.3930  1.7060 -2.8634
  197DG     C17 4525   1.763   2.393   3.594 -0.3839  0.2485 -0.7432
  197DG     C18 4526   1.713   2.178   3.670 -0.1507  0.0203 -0.6030
  197DG     O19 4527   1.719   2.261   3.553 -0.3447 -0.2765 -0.4104
  197DG     H20 4528   1.697   2.427   3.676  0.1372 -1.0849 -0.5699
  197DG     H21 4529   1.858   2.395   3.636  0.8668  0.2625 -0.9695
  197DG     H22 4530   1.631   2.206   3.743 -0.9226 -0.5725  0.1351
  197DG     H23 4531   1.798   2.184   3.732 -3.0242  0.3162 -2.4209
  198DG      C1 4532   3.290   1.873   5.079 -0.2180  0.5186 -0.7368
  198DG      C2 4533   3.208   1.281   5.019  0.8451 -0.4617 -1.1753
  198DG      H3 4534   3.327   1.977   5.082  2.2586  2.4938  2.0297
  198DG      H4 4535   3.288   1.822   5.175 -0.1178 -1.5566 -1.4432
  198DG      H5 4536   3.192   1.893   5.035  0.2662 -0.1058  1.4434
  198DG      H6 4537   3.164   1.315   5.112  2.3243 -3.4616 -0.4810
  198DG      H7 4538   3.135   1.273   4.943  1.7088  0.1836 -1.1729
  198DG      H8 4539   3.246   1.183   5.031 -0.5421 -1.8018 -2.3814
  198DG      O9 4540   3.376   1.802   4.993 -0.4560 -0.2823  0.2887
  198DG     O10 4541   3.310   1.369   4.982  0.0497  0.1678 -0.1395
  198DG     C11 4542   3.516   1.797   5.031  0.8041 -0.1647 -0.4223
  198DG     C12 4543   3.433   1.336   5.035 -0.3091 -0.6341  0.1125
  198DG     H13 4544   3.533   1.804   5.141  2.4843 -0.8754  0.2328
  198DG     H14 4545   3.573   1.878   4.999 -1.0472 -2.0610  0.3317
  198DG     H15 4546   3.466   1.239   5.011 -1.2247  2.8642  2.5917
  198DG     H16 4547   3.418   1.354   5.143  1.0316  0.5513 -1.8968
  198DG     C17 4548   3.584   1.677   4.980  0.4466  0.0545  0.1442
  198DG     C18 4549   3.535   1.438   4.981 -0.1809  0.2867 -0.2748
  198DG     O19 4550   3.487   1.570   5.005 -0.1735  0.5010 -0.0509
  198DG     H20 4551   3.676   1.663   5.036  1.5165 -0.0521 -0.5977
  198DG     H21 4552   3.603   1.691   4.875  2.9554  0.5945  1.4697
  198DG     H22 4553   3.622   1.422   5.054  2.7020 -2.1449  1.2094
  198DG     H23 4554   3.573   1.424   4.875  1.7699 -1.5638 -1.2893
  199DG      C1 4555   2.821   3.017   1.157  0.3868  0.4893  0.1702
  199DG      C2 4556   3.142   3.073   0.480 -0.8769  0.3585  0.7360
  199DG      H3 4557   2.739   2.951   1.144 -1.3996 -1.3529  0.6849
  199DG      H4 4558   2.799   3.120   1.134 -1.6051  1.6893  0.8725
  199DG      H5 4559   2.828   2.999   1.270  0.7531 -2.1248 -0.1257
  199DG      H6 4560   3.160   3.176   0.467  0.0695  1.2095  1.2009
  199DG      H7 4561   3.220   3.026   0.424 -2.4407  0.1985  0.3723
  199DG      H8 4562   3.050   3.056   0.426  1.4902  0.5137 -2.0600
  199DG      O9 4563   2.944   2.985   1.098  0.3361  0.5002 -0.3747
  199DG     O10 4564   3.150   3.038   0.618  0.3555  0.0123 -0.1474
  199DG     C11 4565   3.053   3.063   1.143 -0.4022 -0.1549 -0.1324
  199DG     C12 4566   3.049   3.088   0.705 -0.4176  0.2663 -0.0035
  199DG     H13 4567   3.083   3.049   1.244  0.2606  1.0688 -2.1119
  199DG     H14 4568   3.033   3.165   1.139 -0.0560  0.2792  3.7791
  199DG     H15 4569   2.949   3.046   0.675 -0.5482 -2.9386  0.6953
  199DG     H16 4570   3.047   3.195   0.697  3.5529 -0.0502 -0.4496
  199DG     C17 4571   3.172   3.036   1.040 -0.7644  0.0290 -0.6601
  199DG     C18 4572   3.045   3.043   0.849  0.2155  0.1126  0.6378
  199DG     O19 4573   3.155   3.108   0.921 -0.5480  0.7093 -0.5011
  199DG     H20 4574   3.188   2.925   1.030 -1.0097 -0.6419 -0.9103
  199DG     H21 4575   3.265   3.074   1.090  3.5645 -2.0343  0.7068
  199DG     H22 4576   2.950   3.079   0.892  0.3475  1.1539 -1.9545
  199DG     H23 4577   3.053   2.924   0.840  0.1054 -1.9399 -1.4546
  200DG      C1 4578   0.283   3.926   0.359  0.0145  0.3923  0.2281
  200DG      C2 4579   0.274   4.181   1.152  0.5241 -0.5636 -0.0462
  200DG      H3 4580   0.217   3.854   0.404  1.2977 -0.1683  0.1359
  200DG      H4 4581   0.306   3.896   0.257  0.3288  0.9613  3.4374
  200DG      H5 4582   0.231   4.016   0.353 -0.7045 -2.8323  0.6755
  200DG      H6 4583   0.336   4.158   1.241 -1.9987 -1.3374  0.7167
  200DG      H7 4584   0.235   4.277   1.172  0.4435 -2.9191 -0.5770
  200DG      H8 4585   0.202   4.105   1.147  1.7871  1.1348 -1.8808
  200DG      O9 4586   0.397   3.931   0.446  0.1123 -0.4806  0.8125
  200DG     O10 4587   0.348   4.184   1.028 -0.2193  0.0925 -0.3191
  200DG     C11 4588   0.358   3.990   0.575 -0.5056 -0.4177 -0.5582
  200DG     C12 4589   0.455   4.087   1.014 -0.1624  0.3880 -0.2284
  200DG     H13 4590   0.283   3.926   0.621 -0.3752  1.5245 -0.3459
  200DG     H14 4591   0.297   4.078   0.557 -2.9084  1.1030 -0.0491
  200DG     H15 4592   0.418   3.983   1.042 -1.1548 -1.1236 -2.7127
  200DG     H16 4593   0.527   4.116   1.089  1.7123  1.3536 -3.0855
  200DG     C17 4594   0.475   4.026   0.662  0.2683 -0.3434  0.4350
  200DG     C18 4595   0.527   4.103   0.876 -0.4928 -0.3807 -0.1550
  200DG     O19 4596   0.426   4.096   0.777  0.5511 -0.6093 -0.3392
  200DG     H20 4597   0.541   4.096   0.608  0.3540 -0.1183 -0.8118
  200DG     H21 4598   0.536   3.940   0.681 -0.0837  0.8410  2.4873
  200DG     H22 4599   0.568   4.202   0.870  1.2997 -2.0779  0.1583
  200DG     H23 4600   0.613   4.034   0.878  1.8353 -0.7383 -2.0869
  201DG      C1 4601   4.798   0.240   3.455  0.0001 -0.0056  0.4622
  201DG      C2 4602   4.593  -0.384   3.534 -0.2303  0.1937 -0.2021
  201DG      H3 4603   4.868   0.277   3.375  2.2550  3.1526 -1.2610
  201DG      H4 4604   4.870   0.219   3.535 -1.3777 -0.9466 -0.3314
  201DG      H5 4605   4.731   0.328   3.479  0.7715  1.1521 -3.0698
  201DG      H6 4606   4.526  -0.418   3.613  0.8492  0.1599 -1.8895
  201DG      H7 4607   4.579  -0.470   3.469 -1.6329  1.6032 -0.5382
  201DG      H8 4608   4.689  -0.391   3.583 -3.2328 -0.1267  1.9223
  201DG      O9 4609   4.717   0.129   3.411 -0.5102  0.5822  0.0064
  201DG     O10 4610   4.565  -0.262   3.474 -0.5236 -0.4870  0.2814
  201DG     C11 4611   4.620   0.176   3.320  0.3685  0.3766  0.2986
  201DG     C12 4612   4.427  -0.233   3.463  0.0841  0.0291  0.7750
  201DG     H13 4613   4.661   0.244   3.243 -2.3551  1.9287 -0.0373
  201DG     H14 4614   4.547   0.228   3.388 -0.8244 -0.6717 -0.4224
  201DG     H15 4615   4.382  -0.200   3.561  1.6366  0.8984 -0.7899
  201DG     H16 4616   4.367  -0.323   3.432  0.2897 -1.8031  1.8237
  201DG     C17 4617   4.532   0.056   3.269  0.6163 -0.5627 -0.0612
  201DG     C18 4618   4.412  -0.133   3.350 -1.3971 -0.3768 -0.3304
  201DG     O19 4619   4.503  -0.027   3.373 -0.5973  0.4931 -0.1941
  201DG     H20 4620   4.584   0.009   3.190 -0.8967 -0.0679  0.0306
  201DG     H21 4621   4.442   0.092   3.215  2.1339 -1.0291  0.1851
  201DG     H22 4622   4.438  -0.171   3.248  1.5084  2.3392 -0.9116
  201DG     H23 4623   4.310  -0.094   3.344 -2.9296  1.6895 -0.0611
  202DG      C1 4624   1.332   3.036   4.380 -0.1326 -0.2161  0.0681
  202DG      C2 4625   0.987   2.472   4.287  0.1097  0.9429  0.3448
  202DG      H3 4626   1.354   3.113   4.459  1.1113 -1.1607 -0.9032
  202DG      H4 4627   1.243   3.052   4.329 -1.4968 -2.6547 -1.0418
  202DG      H5 4628   1.414   3.046   4.312 -0.0672 -2.3531  0.4339
  202DG      H6 4629   1.034   2.517   4.198  1.1923 -0.2215 -0.3629
  202DG      H7 4630   1.046   2.382   4.309 -1.2899  0.7822  1.0271
  202DG      H8 4631   0.882   2.448   4.279  3.0250  2.8250  1.8641
  202DG      O9 4632   1.345   2.912   4.441 -0.0301 -0.0223 -0.0688
  202DG     O10 4633   0.997   2.562   4.395 -0.0917  0.1893 -0.6380
  202DG     C11 4634   1.306   2.905   4.581  0.1159 -0.5083 -0.1320
  202DG     C12 4635   0.943   2.686   4.369  0.3006  0.0659  0.5898
  202DG     H13 4636   1.338   2.991   4.641 -0.9540  0.3400 -2.3163
  202DG     H14 4637   1.342   2.819   4.637 -1.9126  0.5506  0.8761
  202DG     H15 4638   0.840   2.663   4.357  3.6871 -0.8210  0.9522
  202DG     H16 4639   0.981   2.722   4.273 -0.6609 -0.0837  0.6500
  202DG     C17 4640   1.150   2.891   4.588 -0.4005 -0.5955 -0.9792
  202DG     C18 4641   0.965   2.783   4.490 -0.4292  0.6537  0.6975
  202DG     O19 4642   1.105   2.816   4.482  0.1713  0.1327 -0.1367
  202DG     H20 4643   1.092   2.982   4.610  2.6999  0.5298 -0.5866
  202DG     H21 4644   1.137   2.833   4.680 -2.0685  0.2060 -0.5222
  202DG     H22 4645   0.906   2.872   4.478  2.3528  2.0490 -1.2491
  202DG     H23 4646   0.923   2.729   4.578 -0.0911 -2.5665 -0.5496
  203DG      C1 4647   0.610   4.907   2.703  0.4951  0.6959  1.6082
  203DG      C2 4648   1.149   4.660   3.031  0.4908  0.0702 -0.1487
  203DG      H3 4649   0.664   4.859   2.619 -0.1951 -0.3879  1.0765
  203DG      H4 4650   0.570   5.003   2.671  0.7580 -1.3187  1.6219
  203DG      H5 4651   0.522   4.841   2.712  0.2225 -0.3672 -0.6795
  203DG      H6 4652   1.148   4.630   2.927 -1.5643  0.3286  0.7176
  203DG      H7 4653   1.238   4.698   3.075 -1.3550 -2.9871  1.6466
  203DG      H8 4654   1.110   4.570   3.085 -1.0469  0.4136 -1.0264
  203DG      O9 4655   0.683   4.913   2.826 -0.0766  0.0131 -0.1017
  203DG     O10 4656   1.047   4.758   3.043  0.3201  0.3933  0.3411
  203DG     C11 4657   0.614   4.983   2.928 -0.5452 -0.2969  0.1430
  203DG     C12 4658   0.995   4.797   3.168 -0.4506 -0.6814 -0.7623
  203DG     H13 4659   0.544   4.909   2.958 -1.0694  0.2129  0.9306
  203DG     H14 4660   0.575   5.073   2.880 -0.7926  0.8222  3.0589
  203DG     H15 4661   1.081   4.818   3.238 -1.7043  2.8299 -0.2455
  203DG     H16 4662   0.948   4.723   3.221 -0.7922 -2.0741  0.9298
  203DG     C17 4663   0.709   5.007   3.041  0.5625 -0.6836  0.1115
  203DG     C18 4664   0.907   4.921   3.164 -0.8434 -0.3215 -0.0549
  203DG     O19 4665   0.811   4.910   3.058  0.2131 -0.4088 -0.0447
  203DG     H20 4666   0.652   5.031   3.126 -0.5268 -2.1011 -3.2256
  203DG     H21 4667   0.755   5.104   3.009 -2.7581  1.0233 -1.4577
  203DG     H22 4668   0.858   4.935   3.256  1.5972 -3.3769  0.5313
  203DG     H23 4669   0.961   5.015   3.144  0.8572  1.9318  1.1457
  204DG      C1 4670   4.564   4.983   4.131  0.1372 -0.3191 -0.0538
  204DG      C2 4671   4.065   4.358   3.837  0.1315 -0.7404 -0.0778
  204DG      H3 4672   4.556   5.076   4.184  0.7304  0.3008  0.2416
  204DG      H4 4673   4.569   4.983   4.018 -4.2056 -2.4083  1.7779
  204DG      H5 4674   4.653   4.925   4.165 -0.3548 -0.9331 -1.5605
  204DG      H6 4675   4.088   4.356   3.722  1.9475 -0.7760  1.2840
  204DG      H7 4676   4.078   4.253   3.864  1.6979  2.4944 -0.0449
  204DG      H8 4677   3.962   4.378   3.863 -0.7323 -1.4263 -0.9157
  204DG      O9 4678   4.470   4.898   4.190  0.6575  0.2695  0.1068
  204DG     O10 4679   4.149   4.450   3.911  0.2350  0.1054 -0.2631
  204DG     C11 4680   4.449   4.781   4.108 -0.6734  0.3657  0.0232
  204DG     C12 4681   4.162   4.399   4.044  0.0376 -0.7825  0.1165
  204DG     H13 4682   4.540   4.718   4.103  0.6837 -0.9893  0.3748
  204DG     H14 4683   4.411   4.813   4.013  0.0967  1.6017 -0.8626
  204DG     H15 4684   4.236   4.314   4.030 -1.5298 -0.0719  0.3692
  204DG     H16 4685   4.072   4.352   4.085 -2.7883 -0.7585  1.4919
  204DG     C17 4686   4.331   4.701   4.174  0.2670 -0.1578 -0.2464
  204DG     C18 4687   4.202   4.504   4.152  0.2394 -0.2744 -0.2596
  204DG     O19 4688   4.302   4.588   4.096 -0.3775 -0.4510 -0.0782
  204DG     H20 4689   4.239   4.764   4.172 -0.9381 -0.4562  2.2584
  204DG     H21 4690   4.348   4.677   4.280 -2.4846  1.2579  2.7590
  204DG     H22 4691   4.112   4.560   4.176 -1.1864  0.1139 -1.4132
  204DG     H23 4692   4.236   4.450   4.240 -1.3939 -2.5831 -1.6649
  205DG      C1 4693   5.406   5.453   1.613  0.3519 -0.0675  0.5899
  205DG      C2 4694   5.284   6.246   1.339 -1.1085 -0.0745 -0.3577
  205DG      H3 4695   5.383   5.399   1.521 -1.3379 -3.0085  4.0399
  205DG      H4 4696   5.311   5.477   1.662 -1.5537 -1.3070  2.4921
  205DG      H5 4697   5.456   5.377   1.680  1.7149 -0.7304  0.9872
  205DG      H6 4698   5.352   6.323   1.295  0.2578 -2.6451  1.4736
  205DG      H7 4699   5.187   6.235   1.279 -1.2007  1.6997 -0.3805
  205DG      H8 4700   5.246   6.277   1.439  2.1683  2.4091  0.5079
  205DG      O9 4701   5.485   5.567   1.594 -0.3609  0.0095 -0.1569
  205DG     O10 4702   5.347   6.120   1.347  0.2198  0.5685 -0.7137
  205DG     C11 4703   5.418   5.678   1.553  0.0882  0.8917 -0.2151
  205DG     C12 4704   5.475   6.128   1.417  0.8795  0.3086 -0.0602
  205DG     H13 4705   5.346   5.707   1.634 -1.0874  2.9196  1.6875
  205DG     H14 4706   5.364   5.660   1.464 -2.2561  2.2252  0.0553
  205DG     H15 4707   5.451   6.166   1.518 -3.1473 -1.9184 -1.5414
  205DG     H16 4708   5.530   6.197   1.360  0.0955  2.1118 -1.7427
  205DG     C17 4709   5.517   5.796   1.531  0.3305 -0.1705 -0.5657
  205DG     C18 4710   5.539   5.989   1.426 -0.4734  0.5057  0.0439
  205DG     O19 4711   5.444   5.892   1.461  0.5438 -0.0049  0.0728
  205DG     H20 4712   5.601   5.755   1.476  0.7521  2.9025  0.0848
  205DG     H21 4713   5.563   5.822   1.630  0.8246 -2.0702  2.6625
  205DG     H22 4714   5.592   5.962   1.328 -0.9152  2.4913 -0.6493
  205DG     H23 4715   5.623   6.018   1.493  1.7986 -1.3100  1.3903
  206DG      C1 4716   0.995   1.274   1.387  0.2314 -0.5581  0.8786
  206DG      C2 4717   1.661   0.992   1.138  0.0890  0.4497 -0.1815
  206DG      H3 4718   0.938   1.365   1.421  0.0517  2.4514  2.2063
  206DG      H4 4719   0.998   1.202   1.472  1.7925  1.3642  0.3343
  206DG      H5 4720   0.933   1.230   1.308  1.6359 -1.3756 -1.7077
  206DG      H6 4721   1.748   1.034   1.081 -0.0384 -0.0205  0.1458
  206DG      H7 4722   1.704   0.921   1.209  0.1846 -0.8197  0.2306
  206DG      H8 4723   1.586   0.945   1.070 -1.3262  1.4846 -0.2230
  206DG      O9 4724   1.118   1.310   1.341 -0.3718 -0.4119 -0.4229
  206DG     O10 4725   1.605   1.105   1.207  0.2745 -0.5776 -0.0231
  206DG     C11 4726   1.211   1.313   1.449  0.4495  0.4159  0.4548
  206DG     C12 4727   1.528   1.197   1.128 -0.0022 -0.2994  0.5583
  206DG     H13 4728   1.236   1.224   1.509  0.3994 -1.1087  0.4436
  206DG     H14 4729   1.189   1.387   1.527  0.2701 -0.1795 -1.6814
  206DG     H15 4730   1.436   1.147   1.085 -0.6626 -0.8786  0.3952
  206DG     H16 4731   1.588   1.235   1.044  2.1127  0.1558  0.7250
  206DG     C17 4732   1.352   1.353   1.404 -0.0941  0.2356 -0.1589
  206DG     C18 4733   1.486   1.307   1.219  0.1669 -0.0979  0.0238
  206DG     O19 4734   1.401   1.254   1.317  0.4417  0.5881  0.4577
  206DG     H20 4735   1.418   1.341   1.493  0.2873 -1.3576  0.8197
  206DG     H21 4736   1.356   1.461   1.373  2.7473  1.1742  0.8376
  206DG     H22 4737   1.571   1.349   1.274 -0.7832 -1.5953 -0.5795
  206DG     H23 4738   1.443   1.383   1.155 -0.4704  1.4562  1.4697
  207DG      C1 4739   0.246   4.260   3.158  0.9038  0.5530  0.8482
  207DG      C2 4740  -0.095   4.062   3.786  0.0305  0.2351  0.4164
  207DG      H3 4741   0.329   4.296   3.207 -0.8791 -1.4552  0.0564
  207DG      H4 4742   0.226   4.335   3.081  2.2451 -1.7695  1.4325
  207DG      H5 4743   0.275   4.165   3.120  0.9862  3.1629 -0.3048
  207DG      H6 4744  -0.012   4.023   3.845 -0.4057 -2.6802  1.5024
  207DG      H7 4745  -0.087   4.171   3.781 -1.4303 -1.6227  2.6137
  207DG      H8 4746  -0.189   4.038   3.830  0.7415  0.0495  0.4095
  207DG      O9 4747   0.128   4.239   3.234  0.2123  0.3727  0.0445
  207DG     O10 4748  -0.084   4.006   3.656  0.2581  0.0364  0.3071
  207DG     C11 4749   0.089   4.357   3.299  0.3978 -0.0638  0.0109
  207DG     C12 4750  -0.182   4.046   3.561  0.4997  0.4779  0.2711
  207DG     H13 4751   0.080   4.435   3.225  0.1696 -0.9524  1.1287
  207DG     H14 4752   0.166   4.384   3.378 -1.9986  0.4041  0.2016
  207DG     H15 4753  -0.279   4.020   3.601 -0.1845 -0.4790 -1.8332
  207DG     H16 4754  -0.173   3.983   3.471  0.5463 -2.0537  2.1037
  207DG     C17 4755  -0.039   4.340   3.376 -0.4519 -0.3613  0.5240
  207DG     C18 4756  -0.165   4.187   3.514  0.1388  0.5379 -0.2145
  207DG     O19 4757  -0.036   4.220   3.454 -0.2387 -0.3817 -0.4522
  207DG     H20 4758  -0.117   4.336   3.297  0.2360  0.0638 -1.6832
  207DG     H21 4759  -0.063   4.424   3.436  1.6038 -1.2868 -0.3262
  207DG     H22 4760  -0.236   4.225   3.443  0.0650  0.0138  0.8355
  207DG     H23 4761  -0.171   4.254   3.598 -2.1158  0.0338  2.2362
  208DG      C1 4762   1.830   4.773   3.446  0.1327 -0.4562  0.0457
  208DG      C2 4763   1.393   4.087   3.523  0.0190  0.2230  0.4470
  208DG      H3 4764   1.930   4.797   3.443  1.6323  0.7972 -0.5594
  208DG      H4 4765   1.816   4.744   3.548  2.3709  2.4890 -1.1385
  208DG      H5 4766   1.795   4.875   3.438 -2.0173  2.1786 -0.3179
  208DG      H6 4767   1.374   4.138   3.619  0.2039 -1.0606  0.2606
  208DG      H7 4768   1.308   4.102   3.456  1.4897  0.7526 -1.1139
  208DG      H8 4769   1.399   3.981   3.539 -1.0897 -1.1833 -2.5508
  208DG      O9 4770   1.788   4.690   3.332 -0.2041  0.0535 -0.0258
  208DG     O10 4771   1.508   4.140   3.462  0.4470  0.0962  0.7807
  208DG     C11 4772   1.870   4.579   3.303  0.1914  0.5483  0.2887
  208DG     C12 4773   1.507   4.276   3.424 -0.7049  0.3021  0.7910
  208DG     H13 4774   1.975   4.610   3.295 -0.3338  0.0843  1.5964
  208DG     H14 4775   1.837   4.549   3.202 -1.6694  1.8295  0.0408
  208DG     H15 4776   1.454   4.340   3.495  0.7144 -0.9789 -1.9622
  208DG     H16 4777   1.464   4.294   3.321 -1.1014  1.2440 -0.5836
  208DG     C17 4778   1.840   4.461   3.390 -0.2079 -0.6562  0.3014
  208DG     C18 4779   1.658   4.315   3.439  0.3567  0.0251  0.5283
  208DG     O19 4780   1.702   4.426   3.373  0.3397 -0.6886 -0.5643
  208DG     H20 4781   1.873   4.482   3.490  1.3351 -1.5521 -0.2437
  208DG     H21 4782   1.911   4.385   3.360  0.0503 -0.9762 -0.3132
  208DG     H22 4783   1.677   4.328   3.543 -1.2473 -0.2663 -2.1959
  208DG     H23 4784   1.710   4.231   3.402 -2.2190 -1.5041  2.5886
  209DG      C1 4785   4.742   1.879   2.376 -0.2971  0.4525 -0.0123
  209DG      C2 4786   5.075   1.281   2.628  0.3792  0.9789 -0.3290
  209DG      H3 4787   4.704   1.879   2.270 -2.8325  1.6967 -1.2541
  209DG      H4 4788   4.850   1.889   2.368  0.0845  1.5973 -0.3055
  209DG      H5 4789   4.714   1.966   2.433  3.8051 -0.5901 -0.4519
  209DG      H6 4790   5.073   1.207   2.712  1.8246  1.6356  0.0757
  209DG      H7 4791   5.140   1.246   2.546  0.5084 -1.8129 -1.3678
  209DG      H8 4792   5.120   1.379   2.665 -0.1821  0.2532  0.9333
  209DG      O9 4793   4.689   1.762   2.445 -0.0544 -0.0512 -0.4015
  209DG     O10 4794   4.941   1.312   2.590 -0.4407 -0.2743 -0.2734
  209DG     C11 4795   4.668   1.650   2.360 -0.3948 -0.0504  0.1264
  209DG     C12 4796   4.849   1.361   2.682  0.8001  0.0194  0.0710
  209DG     H13 4797   4.758   1.623   2.308 -1.3373  1.0875  2.5757
  209DG     H14 4798   4.594   1.667   2.283  1.4595  0.7756 -1.9127
  209DG     H15 4799   4.894   1.441   2.737  0.4202 -1.0109 -1.0293
  209DG     H16 4800   4.822   1.277   2.747  1.3267  0.4057 -1.1917
  209DG     C17 4801   4.635   1.531   2.456 -0.1474  0.6183  0.8649
  209DG     C18 4802   4.722   1.404   2.624  0.4170 -0.1798 -0.5858
  209DG     O19 4803   4.750   1.511   2.532  0.4205  0.1125  0.3759
  209DG     H20 4804   4.615   1.446   2.389 -1.4115  0.1222  0.0612
  209DG     H21 4805   4.551   1.549   2.519 -1.6939  1.5177 -0.6891
  209DG     H22 4806   4.689   1.316   2.570 -1.7162  2.1509  0.3780
  209DG     H23 4807   4.645   1.422   2.703  1.2489 -1.2073 -2.1865
  210DG      C1 4808   1.447   0.055   2.516  0.2316  0.7835 -0.0479
  210DG      C2 4809   1.992   0.042   2.191  0.0315  0.1690  0.5893
  210DG      H3 4810   1.364  -0.003   2.553  1.2311  1.0297  0.6267
  210DG      H4 4811   1.421   0.113   2.428  2.2861 -2.8452  1.5086
  210DG      H5 4812   1.483   0.121   2.600  3.1283 -3.3387  4.2512
  210DG      H6 4813   2.027  -0.000   2.096 -0.1520  0.9389 -2.3293
  210DG      H7 4814   1.926   0.132   2.169 -1.4926  0.2771  0.5915
  210DG      H8 4815   2.074   0.080   2.251 -1.3980  2.7454  0.5631
  210DG      O9 4816   1.535  -0.051   2.480 -0.2531  0.2587 -0.3364
  210DG     O10 4817   1.912  -0.057   2.258  0.1979 -0.3405 -0.2411
  210DG     C11 4818   1.580  -0.133   2.586 -0.3570  0.0613  0.1393
  210DG     C12 4819   1.964  -0.160   2.336  0.3490  0.4480  0.6425
  210DG     H13 4820   1.505  -0.188   2.629 -2.8705 -1.7073  0.5818
  210DG     H14 4821   1.640  -0.089   2.669 -0.2545 -0.5360  0.5358
  210DG     H15 4822   2.033  -0.124   2.418 -0.5547  3.6207  0.4474
  210DG     H16 4823   2.022  -0.225   2.262 -1.2006 -0.1130 -1.0144
  210DG     C17 4824   1.676  -0.240   2.539  0.5791  0.6911  0.7527
  210DG     C18 4825   1.861  -0.261   2.397  0.4032 -0.5090  0.5806
  210DG     O19 4826   1.765  -0.177   2.451  0.2888  0.3778 -0.6387
  210DG     H20 4827   1.629  -0.313   2.476  2.7584  0.8389  1.2515
  210DG     H21 4828   1.720  -0.275   2.634  1.3008  0.7619  1.4517
  210DG     H22 4829   1.817  -0.325   2.320  1.1828 -2.0727 -1.9745
  210DG     H23 4830   1.913  -0.327   2.466  2.4512 -2.2354  3.7140
  211DG      C1 4831   4.407   0.261   4.118 -0.4741 -0.2599 -1.0053
  211DG      C2 4832   4.915   0.656   4.041 -0.0035  0.8797  0.0494
  211DG      H3 4833   4.303   0.237   4.157 -1.7183 -1.2235  1.9521
  211DG      H4 4834   4.476   0.176   4.138 -0.9129 -0.1638 -0.1208
  211DG      H5 4835   4.402   0.264   4.010  2.0006  1.6499 -1.6504
  211DG      H6 4836   4.980   0.744   4.037 -1.6497  0.7998 -0.1587
  211DG      H7 4837   4.923   0.602   3.949  0.1162 -0.6278  2.8075
  211DG      H8 4838   4.815   0.696   4.045  1.3507 -2.2891  0.2783
  211DG      O9 4839   4.467   0.386   4.165 -0.6725  0.5176  0.1087
  211DG     O10 4840   4.939   0.567   4.142  0.2412 -0.7224 -0.1147
  211DG     C11 4841   4.493   0.386   4.305  0.4157 -0.6334  0.1700
  211DG     C12 4842   4.911   0.618   4.274  0.2450  0.1991 -0.6723
  211DG     H13 4843   4.553   0.303   4.340 -0.8524  0.4946  2.0681
  211DG     H14 4844   4.402   0.385   4.360  2.9066  1.8062  0.3828
  211DG     H15 4845   4.950   0.717   4.293 -1.4824 -1.3918  0.6677
  211DG     H16 4846   4.959   0.559   4.350 -0.6906 -0.8204 -3.2434
  211DG     C17 4847   4.562   0.517   4.338  0.7660 -0.2561 -0.3868
  211DG     C18 4848   4.765   0.622   4.304  0.5162 -0.6464 -0.2832
  211DG     O19 4849   4.692   0.505   4.292  0.1491  0.3931  0.0456
  211DG     H20 4850   4.539   0.538   4.440  0.2203  1.1088 -2.5329
  211DG     H21 4851   4.503   0.590   4.285 -0.6525  1.4729  0.3671
  211DG     H22 4852   4.753   0.658   4.408 -2.8851 -3.6050  1.3698
  211DG     H23 4853   4.728   0.695   4.236 -1.7285 -0.7520 -1.2899
  212DG      C1 4854   0.094   3.240   4.284  0.1224 -0.4399  0.0827
  212DG      C2 4855  -0.031   3.604   4.656  0.1114  0.0531  0.5010
  212DG      H3 4856   0.088   3.320   4.207  1.9318 -2.1464  0.3166
  212DG      H4 4857   0.049   3.281   4.377 -2.6458  0.5541 -1.9242
  212DG      H5 4858   0.035   3.163   4.245  2.0622 -0.3347 -3.4490
  212DG      H6 4859  -0.142   3.580   4.667 -2.2612 -0.9142  2.8122
  212DG      H7 4860  -0.005   3.656   4.748  0.5729 -2.1951 -0.6869
  212DG      H8 4861  -0.027   3.673   4.571  1.5509 -0.6674  1.7417
  212DG      O9 4862   0.226   3.183   4.315 -0.2126 -0.5416  0.4030
  212DG     O10 4863   0.061   3.497   4.637  0.3340 -0.1872  0.6112
  212DG     C11 4864   0.211   3.089   4.414  0.0805 -0.0630  0.1729
  212DG     C12 4865   0.036   3.393   4.731 -0.0596  0.0140 -0.1623
  212DG     H13 4866   0.290   3.017   4.401 -0.2493  3.2291 -0.5046
  212DG     H14 4867   0.121   3.031   4.386  1.6945 -0.5307  2.2515
  212DG     H15 4868  -0.048   3.327   4.699  0.8892 -2.3778 -3.1883
  212DG     H16 4869   0.028   3.431   4.836 -0.6604 -0.1931  2.2620
  212DG     C17 4870   0.224   3.132   4.565 -0.5199 -0.5792  0.1251
  212DG     C18 4871   0.154   3.299   4.714 -0.1129 -0.0172  0.2183
  212DG     O19 4872   0.128   3.231   4.589  0.0462  0.0269  0.0560
  212DG     H20 4873   0.319   3.173   4.597  0.2528  1.1733  1.9442
  212DG     H21 4874   0.200   3.041   4.627 -1.2478  3.8800  0.9224
  212DG     H22 4875   0.242   3.363   4.703 -0.5004  0.1890 -2.0584
  212DG     H23 4876   0.169   3.243   4.801  0.2225  1.3048 -0.2281
  213DG      C1 4877   1.616   5.480   1.010 -0.0053  0.1510 -0.9328
  213DG      C2 4878   1.188   5.017   0.564  0.4580 -0.0850 -0.1135
  213DG      H3 4879   1.719   5.510   1.020  2.9714 -0.3802 -1.5580
  213DG      H4 4880   1.572   5.478   1.112 -1.6865 -0.4457  1.8084
  213DG      H5 4881   1.562   5.560   0.960  1.0742  0.2658  1.6891
  213DG      H6 4882   1.247   4.928   0.527 -0.6578 -0.1243 -3.0691
  213DG      H7 4883   1.193   5.013   0.678  0.0817  3.6810  1.2806
  213DG      H8 4884   1.084   5.015   0.537 -0.4721 -2.3296 -2.2049
  213DG      O9 4885   1.600   5.357   0.945 -0.5840 -0.4235 -0.0686
  213DG     O10 4886   1.258   5.130   0.505  0.2514 -0.0146 -0.1801
  213DG     C11 4887   1.635   5.367   0.807 -0.3629 -1.0242 -0.8507
  213DG     C12 4888   1.390   5.135   0.554 -0.4821 -0.6811  0.3567
  213DG     H13 4889   1.727   5.420   0.783  2.2088  1.7411  1.4249
  213DG     H14 4890   1.554   5.426   0.759  1.2960  0.0186  2.0970
  213DG     H15 4891   1.458   5.195   0.496 -0.5258 -3.4859 -0.4254
  213DG     H16 4892   1.430   5.029   0.566  1.7113 -1.5806 -0.0015
  213DG     C17 4893   1.639   5.223   0.747  0.9153  0.0066 -0.3783
  213DG     C18 4894   1.403   5.203   0.694 -0.3185 -0.3292 -0.0065
  213DG     O19 4895   1.517   5.150   0.767  0.0109  0.1376  0.1079
  213DG     H20 4896   1.714   5.157   0.801  2.2169 -0.1465  0.1546
  213DG     H21 4897   1.666   5.222   0.639  0.4207 -4.2241  0.7719
  213DG     H22 4898   1.402   5.312   0.682  2.0412 -0.9663 -0.0183
  213DG     H23 4899   1.312   5.166   0.754 -0.2271  1.0028 -2.9439
  214DG      C1 4900   3.789   4.701   1.375 -0.2841 -0.1374 -0.2287
  214DG      C2 4901   3.273   4.479   1.931 -0.6766  0.1318 -0.0469
  214DG      H3 4902   3.884   4.646   1.370 -1.3207 -0.4046  0.2623
  214DG      H4 4903   3.808   4.785   1.437  0.1238  0.4586  0.5967
  214DG      H5 4904   3.759   4.733   1.272 -1.6687  0.7808 -1.3499
  214DG      H6 4905   3.217   4.539   1.998 -3.3235 -0.1495  1.4772
  214DG      H7 4906   3.212   4.388   1.929  0.9714 -0.7923  4.5164
  214DG      H8 4907   3.377   4.458   1.975  0.7935  0.3151 -0.9040
  214DG      O9 4908   3.686   4.623   1.428  0.4892 -0.3286  0.3832
  214DG     O10 4909   3.295   4.540   1.803 -0.2823 -0.3345  0.2999
  214DG     C11 4910   3.561   4.683   1.396 -0.1921 -0.5460 -0.2811
  214DG     C12 4911   3.366   4.662   1.808 -0.2830 -0.0828 -0.0972
  214DG     H13 4912   3.540   4.686   1.289 -0.1124 -1.4224  3.5208
  214DG     H14 4913   3.550   4.784   1.434  1.3512 -1.5286 -1.2060
  214DG     H15 4914   3.456   4.640   1.862  1.4052  0.6148  1.9229
  214DG     H16 4915   3.312   4.743   1.851  0.0973  1.7435  0.8371
  214DG     C17 4916   3.453   4.602   1.452  0.3314 -0.2257 -0.0779
  214DG     C18 4917   3.410   4.712   1.666 -0.0876 -0.3595  0.8920
  214DG     O19 4918   3.459   4.598   1.602  0.1304 -0.1993 -0.7917
  214DG     H20 4919   3.474   4.505   1.418 -0.1839 -0.5007  0.9422
  214DG     H21 4920   3.364   4.636   1.411  0.2584  1.5155  1.9473
  214DG     H22 4921   3.324   4.759   1.609  0.0448 -0.3491 -0.5290
  214DG     H23 4922   3.483   4.790   1.680  0.7262 -3.5788 -1.1542
  215DG      C1 4923   4.900   1.452   1.351 -0.2253  0.1486 -0.0872
  215DG      C2 4924   4.758   0.738   1.370  0.1180  0.4089  0.1524
  215DG      H3 4925   4.815   1.499   1.404  0.3596 -0.1058  1.0821
  215DG      H4 4926   4.861   1.373   1.294  1.2639 -0.1486 -1.0311
  215DG      H5 4927   4.936   1.525   1.280 -0.0516 -0.1505  2.6690
  215DG      H6 4928   4.705   0.786   1.453 -0.4545  0.4565  0.8777
  215DG      H7 4929   4.696   0.664   1.316  0.7317 -4.3427  0.7752
  215DG      H8 4930   4.842   0.686   1.401 -2.3100 -0.4565  0.9090
  215DG      O9 4931   5.002   1.394   1.426  0.6398 -0.2668 -0.2610
  215DG     O10 4932   4.793   0.828   1.271  0.0999  0.4415 -0.2766
  215DG     C11 4933   4.960   1.342   1.547  0.1955 -0.6159 -0.5004
  215DG     C12 4934   4.873   0.934   1.313 -0.0581 -0.2163  0.4308
  215DG     H13 4935   4.922   1.415   1.616 -2.2643 -1.2195  1.2041
  215DG     H14 4936   5.055   1.311   1.587  0.3765 -0.1170  5.2792
  215DG     H15 4937   4.897   0.984   1.224 -2.7180  0.5009 -0.5642
  215DG     H16 4938   4.962   0.902   1.371 -1.9899  1.4934 -1.0979
  215DG     C17 4939   4.884   1.211   1.544 -0.3078  0.4167  0.3273
  215DG     C18 4940   4.807   1.032   1.410 -0.1491  0.2827  0.1230
  215DG     O19 4941   4.910   1.126   1.435  0.3423  0.0308  0.5420
  215DG     H20 4942   4.778   1.241   1.541 -0.0296 -1.3008  2.2857
  215DG     H21 4943   4.900   1.151   1.635 -0.9414  1.9092  1.9217
  215DG     H22 4944   4.719   1.087   1.369  0.9010  0.2473  1.6079
  215DG     H23 4945   4.773   0.980   1.498  1.5109  0.8310 -0.3716
  216DG      C1 4946   1.591   0.290   0.699  0.1546  0.5787 -0.1853
  216DG      C2 4947   1.240   0.718   0.092  0.0239  0.4282 -0.0588
  216DG      H3 4948   1.499   0.251   0.747  0.6974  1.1001  2.0482
  216DG      H4 4949   1.638   0.363   0.756  2.9380  2.4333 -0.8661
  216DG      H5 4950   1.658   0.204   0.697  1.7800 -3.0939  0.0399
  216DG      H6 4951   1.180   0.691   0.181 -0.1436 -1.4296  0.0789
  216DG      H7 4952   1.228   0.819   0.051 -0.1493  1.2533 -0.9984
  216DG      H8 4953   1.205   0.652   0.018 -1.0897  1.0583  2.2746
  216DG      O9 4954   1.564   0.362   0.576  0.0197  0.3807  0.4797
  216DG     O10 4955   1.378   0.702   0.128  0.6834  0.3491 -0.1945
  216DG     C11 4956   1.687   0.391   0.504  0.5104 -0.9297  1.0278
  216DG     C12 4957   1.415   0.576   0.173 -0.0067 -0.1012  1.0113
  216DG     H13 4958   1.701   0.307   0.438 -2.1939  0.1198  0.2768
  216DG     H14 4959   1.772   0.394   0.569 -0.2323 -0.0846  1.0490
  216DG     H15 4960   1.409   0.508   0.092 -0.9604  1.7888  0.0846
  216DG     H16 4961   1.344   0.551   0.254 -0.1738  2.5125 -1.3956
  216DG     C17 4962   1.660   0.516   0.419 -0.3741 -0.2683  0.3339
  216DG     C18 4963   1.554   0.594   0.239 -0.1466  0.7224  0.1354
  216DG     O19 4964   1.584   0.476   0.312 -0.4213 -0.1578 -0.1337
  216DG     H20 4965   1.761   0.552   0.390 -0.5675 -4.3503  1.0602
  216DG     H21 4966   1.621   0.590   0.487  1.0085 -0.3879  0.1535
  216DG     H22 4967   1.631   0.602   0.158 -0.0722  2.1504  2.2871
  216DG     H23 4968   1.547   0.682   0.304 -0.1465  1.1360  0.6619
  217DG      C1 4969   3.377   1.273   3.439  0.5641  0.2420  0.5758
  217DG      C2 4970   3.091   1.654   3.892  0.2466  1.1831 -0.9214
  217DG      H3 4971   3.452   1.351   3.435 -1.3809 -0.2986 -0.4535
  217DG      H4 4972   3.328   1.273   3.345  0.3598  0.9920  0.7227
  217DG      H5 4973   3.425   1.176   3.451  1.5959 -0.0685 -1.5887
  217DG      H6 4974   3.003   1.699   3.941  2.0141  0.4410 -0.8780
  217DG      H7 4975   3.162   1.616   3.968 -1.4982  0.2300 -1.4841
  217DG      H8 4976   3.141   1.732   3.841 -1.2033 -0.6545  0.5815
  217DG      O9 4977   3.276   1.287   3.541 -0.1595  0.4839 -0.4580
  217DG     O10 4978   3.056   1.551   3.807  0.1267  0.7060 -0.8090
  217DG     C11 4979   3.191   1.171   3.541 -0.3348  0.5853 -0.6162
  217DG     C12 4980   2.997   1.432   3.879  0.5582  0.3582  0.3800
  217DG     H13 4981   3.236   1.088   3.600  1.8346 -0.9568 -2.3543
  217DG     H14 4982   3.166   1.125   3.443 -0.5943 -0.3649  2.8453
  217DG     H15 4983   2.916   1.462   3.946 -0.0023  1.8354  1.6041
  217DG     H16 4984   3.071   1.388   3.941  1.1543 -0.2493 -1.4256
  217DG     C17 4985   3.048   1.216   3.596  0.0078  0.3964 -0.4179
  217DG     C18 4986   2.956   1.333   3.778  0.2142  0.8446  0.2114
  217DG     O19 4987   3.075   1.297   3.707  0.0013 -0.1326  0.2801
  217DG     H20 4988   2.975   1.137   3.624 -0.8525 -1.1065  1.7774
  217DG     H21 4989   2.990   1.261   3.516 -2.6384  0.0840 -1.9565
  217DG     H22 4990   2.904   1.253   3.822  0.9592 -2.5442  0.6033
  217DG     H23 4991   2.882   1.380   3.716  0.1539  0.2989 -0.5503
  218DG      C1 4992   0.819   2.087   0.689 -0.1847 -0.1592  0.0504
  218DG      C2 4993   0.257   1.986   0.820  0.0255 -0.4254 -0.2795
  218DG      H3 4994   0.718   2.125   0.669 -2.2119 -0.6060  1.2151
  218DG      H4 4995   0.885   2.157   0.642  2.4981  0.2581 -0.4588
  218DG      H5 4996   0.831   2.091   0.799 -1.5021 -1.3302  1.8445
  218DG      H6 4997   0.177   1.915   0.807 -0.0009  1.3469 -0.8121
  218DG      H7 4998   0.272   1.999   0.925 -0.4525 -2.0252 -0.5758
  218DG      H8 4999   0.221   2.084   0.782 -2.3857  1.1156  1.3865
  218DG      O9 5000   0.829   1.949   0.646  0.1401 -0.6647  0.2663
  218DG     O10 5001   0.371   1.923   0.759  0.1151 -0.1847  0.5273
  218DG     C11 5002   0.782   1.915   0.519 -0.4541  0.4861 -0.1150
  218DG     C12 5003   0.333   1.869   0.626  0.5249  0.1358 -0.3441
  218DG     H13 5004   0.864   1.874   0.469 -0.6839  1.8230  0.5694
  218DG     H14 5005   0.755   2.005   0.455  1.3472  1.8552 -2.0089
  218DG     H15 5006   0.316   1.956   0.571 -0.4719  1.4079  0.2977
  218DG     H16 5007   0.241   1.818   0.609 -1.4179 -0.0623  2.5045
  218DG     C17 5008   0.680   1.804   0.526 -0.1312 -0.1647 -0.2005
  218DG     C18 5009   0.443   1.782   0.573  0.7168 -0.2439 -0.0223
  218DG     O19 5010   0.561   1.865   0.578 -0.2936 -0.3133  0.3809
  218DG     H20 5011   0.711   1.720   0.593  1.1037  2.2103  2.4138
  218DG     H21 5012   0.661   1.753   0.434 -1.2259 -1.1252  3.3448
  218DG     H22 5013   0.456   1.695   0.630 -0.7321 -0.9116  0.4140
  218DG     H23 5014   0.434   1.748   0.473 -0.2228  0.7878 -0.3248
  219DG      C1 5015   2.889   5.476   4.804 -0.3667  0.7856  0.7148
  219DG      C2 5016   2.846   4.970   5.113 -0.0076  0.4505 -0.2801
  219DG      H3 5017   2.955   5.566   4.784  0.0088 -1.0372  1.3747
  219DG      H4 5018   2.797   5.491   4.743  2.1938  3.0453  0.6219
  219DG      H5 5019   2.939   5.388   4.768 -2.5510  1.5653 -0.0899
  219DG      H6 5020   2.909   5.053   5.082 -0.0790  0.4641  1.4266
  219DG      H7 5021   2.911   4.899   5.162 -0.6500  0.5268 -0.6436
  219DG      H8 5022   2.805   4.926   5.018  1.1040 -3.4069  0.1034
  219DG      O9 5023   2.842   5.466   4.940  0.2343  0.5338  0.6219
  219DG     O10 5024   2.754   5.020   5.202 -0.2453  0.4009  0.5306
  219DG     C11 5025   2.949   5.434   5.032 -0.5659 -0.5339  1.2513
  219DG     C12 5026   2.813   5.081   5.312  0.2068  0.2796  0.4711
  219DG     H13 5027   3.005   5.535   5.033 -0.9367 -0.6805 -4.1852
  219DG     H14 5028   3.015   5.357   4.990  0.1136  0.8825 -1.3834
  219DG     H15 5029   2.901   5.034   5.346 -1.5257  1.3790  2.7795
  219DG     H16 5030   2.744   5.057   5.389  0.5433  0.6189  1.3690
  219DG     C17 5031   2.891   5.408   5.164  0.1085  0.1008 -0.0248
  219DG     C18 5032   2.817   5.232   5.303  0.0205 -0.5495 -0.1690
  219DG     O19 5033   2.901   5.272   5.192  0.7788 -0.1121  0.1581
  219DG     H20 5034   2.794   5.444   5.174 -1.9912  0.0986 -1.3903
  219DG     H21 5035   2.946   5.475   5.226 -1.5469 -0.3996  0.4721
  219DG     H22 5036   2.717   5.278   5.289  0.5844 -1.0592 -0.2587
  219DG     H23 5037   2.855   5.272   5.403  1.3502 -0.4789 -0.5480
  220DG      C1 5038   0.845   2.152   3.855 -0.1226  0.2051  0.0400
  220DG      C2 5039   1.405   2.220   3.437 -0.1522  0.0117 -0.6317
  220DG      H3 5040   0.871   2.052   3.870 -0.1585 -1.0900  0.0804
  220DG      H4 5041   0.773   2.155   3.776 -1.1407  0.8947 -1.2630
  220DG      H5 5042   0.807   2.180   3.945  1.8896  2.1249  0.9086
  220DG      H6 5043   1.483   2.169   3.497  1.8927 -0.8708  2.1721
  220DG      H7 5044   1.349   2.138   3.399  2.2683  0.5870  1.7090
  220DG      H8 5045   1.443   2.277   3.351 -1.8819  2.0163 -0.6644
  220DG      O9 5046   0.952   2.231   3.808 -0.1492 -0.1025  0.3204
  220DG     O10 5047   1.305   2.297   3.504  0.1710  0.1773  0.1123
  220DG     C11 5048   1.046   2.258   3.909  0.0429  0.0885 -0.3267
  220DG     C12 5049   1.366   2.380   3.599  0.5128 -0.7449 -0.0949
  220DG     H13 5050   1.107   2.166   3.916 -0.1509 -1.6161 -1.2046
  220DG     H14 5051   1.015   2.274   4.014  0.6008 -0.9237 -0.4497
  220DG     H15 5052   1.440   2.451   3.553  0.9625  2.9301 -4.6414
  220DG     H16 5053   1.429   2.317   3.657 -0.1239  0.4374  0.5913
  220DG     C17 5054   1.130   2.375   3.865  0.3318  0.5108 -0.0977
  220DG     C18 5055   1.261   2.452   3.686 -0.6385  0.3909  0.6806
  220DG     O19 5056   1.195   2.343   3.752 -0.6255  0.2454  0.7291
  220DG     H20 5057   1.196   2.397   3.951  1.5528  0.5038 -1.5370
  220DG     H21 5058   1.069   2.467   3.842 -0.9074 -1.1303  0.4246
  220DG     H22 5059   1.307   2.512   3.757 -3.9849 -1.0200 -2.2090
  220DG     H23 5060   1.199   2.523   3.633 -1.1267  1.6709  3.6318
  221DG      C1 5061   4.593   4.402   3.768 -0.4704  0.8596  0.0440
  221DG      C2 5062   4.251   5.083   3.937 -0.6653  0.4028  0.3355
  221DG      H3 5063   4.656   4.351   3.694 -1.1530 -1.3935 -1.4082
  221DG      H4 5064   4.537   4.323   3.815  1.2734 -0.3464 -1.2123
  221DG      H5 5065   4.666   4.438   3.827  0.4806  0.0686  0.0258
  221DG      H6 5066   4.181   5.024   4.001 -0.3646  1.1870 -0.3572
  221DG      H7 5067   4.331   5.105   3.998  1.5743 -0.2499  0.7164
  221DG      H8 5068   4.193   5.171   3.906  1.3247 -0.1799  2.5406
  221DG      O9 5069   4.522   4.512   3.709 -0.3720  0.5885  0.2316
  221DG     O10 5070   4.315   4.995   3.841  0.4353  0.4925 -0.2828
  221DG     C11 5071   4.439   4.560   3.814  0.4214 -0.1318 -0.7281
  221DG     C12 5072   4.217   4.943   3.752  0.1232  0.0594 -0.5611
  221DG     H13 5073   4.493   4.618   3.893 -0.9156  0.8135  1.5213
  221DG     H14 5074   4.385   4.492   3.876  2.5008  2.9423 -1.3089
  221DG     H15 5075   4.152   5.022   3.712 -0.7624  0.2225 -0.5862
  221DG     H16 5076   4.148   4.882   3.820 -1.3746  2.2181  0.7677
  221DG     C17 5077   4.335   4.648   3.751 -0.5325  0.0561 -0.0214
  221DG     C18 5078   4.281   4.857   3.646 -0.5521  0.2111  0.1847
  221DG     O19 5079   4.383   4.770   3.693  0.2594 -0.6674  0.2711
  221DG     H20 5080   4.267   4.679   3.828  0.2802 -1.3387 -1.8903
  221DG     H21 5081   4.267   4.600   3.676 -1.7729 -0.3056  3.4100
  221DG     H22 5082   4.209   4.809   3.586 -1.3260 -1.8961  0.3567
  221DG     H23 5083   4.326   4.937   3.589 -0.4898  0.9024  0.5362
  222DG      C1 5084   3.447   3.414   1.624 -0.3397  0.3362  0.0123
  222DG      C2 5085   3.269   3.313   2.251 -0.0486  0.0006 -1.0397
  222DG      H3 5086   3.420   3.312   1.590 -0.2631  1.9858 -1.9208
  222DG      H4 5087   3.510   3.446   1.545 -0.7651 -1.3578  0.2306
  222DG      H5 5088   3.368   3.493   1.617  0.5551 -0.2491 -0.0431
  222DG      H6 5089   3.317   3.327   2.351  0.3336  1.8031 -3.8977
  222DG      H7 5090   3.189   3.386   2.233 -1.8166  0.8649 -1.9762
  222DG      H8 5091   3.231   3.210   2.255 -2.6798  0.0264 -2.8038
  222DG      O9 5092   3.518   3.417   1.748  0.0176  0.0504  0.0012
  222DG     O10 5093   3.369   3.310   2.148  0.2208  0.0747 -0.2167
  222DG     C11 5094   3.639   3.343   1.733  0.4316  0.1267 -0.5986
  222DG     C12 5095   3.485   3.220   2.177  0.5415  0.4216  0.1298
  222DG     H13 5096   3.714   3.392   1.673 -2.1397 -1.8455 -3.2860
  222DG     H14 5097   3.624   3.249   1.691 -0.0459  1.9055 -0.7205
  222DG     H15 5098   3.463   3.114   2.178  1.0110  0.3257 -0.2522
  222DG     H16 5099   3.498   3.223   2.291  3.3209  2.6004  3.1648
  222DG     C17 5100   3.691   3.317   1.876  0.2918 -0.0573 -0.6474
  222DG     C18 5101   3.606   3.257   2.097  0.3319  0.4972 -0.7112
  222DG     O19 5102   3.577   3.273   1.960 -0.0149  0.2345 -0.4387
  222DG     H20 5103   3.749   3.403   1.906 -2.2680  0.5131 -2.7606
  222DG     H21 5104   3.761   3.235   1.862  0.9712  1.6500 -2.1838
  222DG     H22 5105   3.644   3.352   2.138 -0.2099  1.7858 -0.7126
  222DG     H23 5106   3.682   3.179   2.106 -0.0349  0.1074 -1.7109
  223DG      C1 5107   1.750   1.886   1.990 -0.3786 -0.2112 -0.0228
  223DG      C2 5108   1.618   2.076   1.332  0.3140 -0.1337 -0.0438
  223DG      H3 5109   1.817   1.893   2.074 -0.9800 -1.2851 -2.0241
  223DG      H4 5110   1.761   1.779   1.972  2.2726 -0.3242 -0.6364
  223DG      H5 5111   1.641   1.896   2.016  1.1327  0.4786 -1.3724
  223DG      H6 5112   1.592   2.171   1.283  2.1231  2.7106 -0.2585
  223DG      H7 5113   1.674   2.014   1.262  0.4820 -0.8489  0.9771
  223DG      H8 5114   1.533   2.019   1.345 -0.0470  0.6048  0.8507
  223DG      O9 5115   1.782   1.973   1.882  0.0611 -0.2278 -0.1363
  223DG     O10 5116   1.709   2.100   1.445  0.5970  0.0784 -0.2771
  223DG     C11 5117   1.916   1.943   1.830  0.4616  0.0384 -0.5805
  223DG     C12 5118   1.830   2.171   1.421  0.0145  0.1400 -0.1444
  223DG     H13 5119   1.911   1.848   1.782  1.4092 -0.3573  1.5736
  223DG     H14 5120   1.987   1.942   1.917  1.7627  2.4228 -1.2944
  223DG     H15 5121   1.797   2.274   1.413  0.6276 -2.3241 -3.3294
  223DG     H16 5122   1.880   2.137   1.330 -0.5577 -0.6985  0.6922
  223DG     C17 5123   1.968   2.050   1.727  0.3982 -0.8340  0.3502
  223DG     C18 5124   1.914   2.171   1.546 -0.3483 -0.3612 -0.7595
  223DG     O19 5125   1.880   2.054   1.619 -0.1585  0.3840 -0.3568
  223DG     H20 5126   2.070   2.027   1.698 -0.6098 -1.8907  1.3643
  223DG     H21 5127   1.976   2.155   1.767  1.0187 -0.0214 -1.7503
  223DG     H22 5128   2.019   2.159   1.517 -1.6569  1.0359  2.2759
  223DG     H23 5129   1.909   2.260   1.603  3.1853 -2.6061 -0.6840
  224DG      C1 5130   2.796   0.498   4.749 -0.7556  0.2784  0.3641
  224DG      C2 5131   2.396   0.407   5.316 -0.1851  0.0870  0.3739
  224DG      H3 5132   2.881   0.571   4.770  1.7349 -2.5874 -0.6310
  224DG      H4 5133   2.773   0.508   4.640  1.4388  0.3801 -2.5186
  224DG      H5 5134   2.838   0.396   4.761  0.2869 -0.5286 -0.4329
  224DG      H6 5135   2.453   0.490   5.347  0.6021 -1.3619  1.3694
  224DG      H7 5136   2.300   0.426   5.362 -0.5364 -1.8498  1.4122
  224DG      H8 5137   2.443   0.313   5.344  0.5077 -2.4032  1.0889
  224DG      O9 5138   2.678   0.525   4.823 -0.6549 -0.3392  0.1670
  224DG     O10 5139   2.385   0.413   5.170  0.1436  0.3154  0.7548
  224DG     C11 5140   2.596   0.636   4.782 -0.2538  0.6535 -0.5396
  224DG     C12 5141   2.343   0.544   5.131 -0.5319  0.1295  0.3917
  224DG     H13 5142   2.569   0.604   4.684  0.5059  4.8620 -1.2354
  224DG     H14 5143   2.640   0.733   4.766  1.9258 -0.8630  0.7959
  224DG     H15 5144   2.432   0.615   5.144  0.1327  0.6853  2.5477
  224DG     H16 5145   2.270   0.594   5.199 -1.5701  0.9233 -0.5364
  224DG     C17 5146   2.484   0.657   4.878 -0.6075 -0.4022 -0.9019
  224DG     C18 5147   2.305   0.546   4.981 -0.0373 -0.2335  0.0045
  224DG     O19 5148   2.423   0.533   4.899 -0.0867  0.6406 -0.0124
  224DG     H20 5149   2.426   0.735   4.838  2.5835  2.5573 -0.1724
  224DG     H21 5150   2.521   0.700   4.973  2.2474  0.2150  0.2181
  224DG     H22 5151   2.236   0.462   4.956  1.4240  1.3300 -1.2012
  224DG     H23 5152   2.257   0.644   4.968 -0.6035 -1.7154 -2.1009
  225DG      C1 5153   2.084   1.129   1.873  0.0222  0.2427  0.2360
  225DG      C2 5154   2.718   1.069   1.409 -0.1958  1.0126 -0.2154
  225DG      H3 5155   2.160   1.155   1.940  1.0676 -0.8318 -2.1977
  225DG      H4 5156   2.026   1.055   1.932  1.6404  2.0979 -1.6365
  225DG      H5 5157   2.012   1.205   1.846  0.7917  0.9785 -2.1071
  225DG      H6 5158   2.781   1.136   1.470 -0.0482 -0.3407  0.0473
  225DG      H7 5159   2.770   0.975   1.398  0.1794 -0.2810 -0.4696
  225DG      H8 5160   2.704   1.113   1.312 -0.9064  1.9991  0.7651
  225DG      O9 5161   2.140   1.061   1.765  0.2954  0.3058  0.0048
  225DG     O10 5162   2.595   1.039   1.477  0.4812 -0.1340 -0.5962
  225DG     C11 5163   2.220   0.949   1.803  0.3195 -0.3063 -0.0191
  225DG     C12 5164   2.477   1.021   1.402 -0.2124  0.1979 -0.7069
  225DG     H13 5165   2.163   0.872   1.858  0.7391 -1.2833  0.2337
  225DG     H14 5166   2.315   0.960   1.860  1.2791 -1.0061  0.6440
  225DG     H15 5167   2.495   0.983   1.302  2.1464  0.3687 -0.7647
  225DG     H16 5168   2.419   1.113   1.402  1.3492  0.3074  0.9046
  225DG     C17 5169   2.255   0.874   1.673  0.7414  0.2910 -0.7338
  225DG     C18 5170   2.389   0.916   1.478  0.6586 -0.3368 -0.0345
  225DG     O19 5171   2.328   0.966   1.599 -0.2705  0.1102  0.6854
  225DG     H20 5172   2.165   0.861   1.607  1.5127  0.0268 -0.2153
  225DG     H21 5173   2.308   0.777   1.682 -0.2097 -0.2652 -0.1658
  225DG     H22 5174   2.307   0.892   1.407 -0.5536  1.1486  2.3012
  225DG     H23 5175   2.431   0.817   1.491 -0.9245 -0.2224 -1.2348
  226DG      C1 5176   3.387   2.707   4.758  0.9545 -0.0485 -0.0426
  226DG      C2 5177   3.917   2.639   5.018  0.7475  0.0499  0.8928
  226DG      H3 5178   3.347   2.606   4.778  1.8558  2.1073 -1.1210
  226DG      H4 5179   3.472   2.687   4.693  0.9784  2.1148  1.7895
  226DG      H5 5180   3.314   2.757   4.693  1.2106 -1.1870 -2.2841
  226DG      H6 5181   3.904   2.664   5.122  1.2738 -1.1961 -2.1870
  226DG      H7 5182   3.897   2.535   5.015  2.5201  1.4007  0.3044
  226DG      H8 5183   4.024   2.658   4.991  1.7554 -0.0820 -0.2326
  226DG      O9 5184   3.421   2.783   4.875 -0.1345  0.1720 -0.0712
  226DG     O10 5185   3.851   2.719   4.917  0.4185  0.5248 -0.2239
  226DG     C11 5186   3.438   2.924   4.872  0.6167  0.6366  0.1557
  226DG     C12 5187   3.889   2.852   4.919 -0.8854  0.6696 -0.3686
  226DG     H13 5188   3.432   2.971   4.970 -1.0873 -0.8709 -1.5966
  226DG     H14 5189   3.353   2.970   4.814 -2.1301 -0.0925 -0.1397
  226DG     H15 5190   3.988   2.857   4.890  0.7348 -0.5964  0.8028
  226DG     H16 5191   3.896   2.896   5.021  0.0056 -0.1991 -0.7824
  226DG     C17 5192   3.559   2.963   4.795 -0.2346  0.3458 -0.1259
  226DG     C18 5193   3.796   2.931   4.823 -0.1345 -0.4410  0.2246
  226DG     O19 5194   3.667   2.914   4.878  0.4205 -0.4713  0.3056
  226DG     H20 5195   3.554   3.068   4.794 -1.6118  1.9933 -0.1962
  226DG     H21 5196   3.564   2.932   4.692  0.3765  1.6187  2.3425
  226DG     H22 5197   3.824   3.032   4.823 -0.0230 -0.0522 -1.5008
  226DG     H23 5198   3.814   2.893   4.723  1.2270 -4.7879 -0.9539
  227DG      C1 5199   1.427   4.423   3.761  0.1418 -0.5738  0.3689
  227DG      C2 5200   1.343   3.929   4.261  0.0003 -0.1081 -0.5430
  227DG      H3 5201   1.516   4.365   3.737 -0.8047  1.2044 -0.8531
  227DG      H4 5202   1.446   4.526   3.734 -1.1819 -0.4585  0.0830
  227DG      H5 5203   1.351   4.383   3.692 -1.8693  1.0258 -0.7602
  227DG      H6 5204   1.432   3.875   4.283  0.8686 -4.5620 -0.3683
  227DG      H7 5205   1.266   3.909   4.335  0.1532  2.1497  0.0109
  227DG      H8 5206   1.303   3.894   4.166  0.3650 -2.8630 -1.1812
  227DG      O9 5207   1.407   4.423   3.901 -0.1691  0.6854  0.1597
  227DG     O10 5208   1.386   4.057   4.246 -0.0259 -0.0574 -0.7778
  227DG     C11 5209   1.305   4.512   3.943  0.3356 -0.3806 -0.7330
  227DG     C12 5210   1.285   4.155   4.217 -0.1510 -0.0730 -0.2829
  227DG     H13 5211   1.211   4.484   3.889 -2.9754 -1.3971  1.0123
  227DG     H14 5212   1.330   4.616   3.934  1.5478 -3.0194 -0.9811
  227DG     H15 5213   1.242   4.171   4.314 -1.5147  1.0038 -1.0648
  227DG     H16 5214   1.199   4.121   4.163  2.5567 -0.7245 -0.4234
  227DG     C17 5215   1.268   4.514   4.098 -0.5106  1.0719  0.2282
  227DG     C18 5216   1.334   4.284   4.155  0.6513 -0.0226 -0.0561
  227DG     O19 5217   1.234   4.378   4.143 -0.0780  0.5055 -0.2143
  227DG     H20 5218   1.182   4.584   4.108 -2.1372 -0.8743  1.6342
  227DG     H21 5219   1.348   4.553   4.160  1.6223 -0.0421  0.3849
  227DG     H22 5220   1.412   4.329   4.211  1.8975  2.4074 -2.4438
  227DG     H23 5221   1.373   4.261   4.060 -0.9739 -0.7875  2.3603
  228DG      C1 5222   4.686   5.494   2.510 -0.3278  0.6555  0.1623
  228DG      C2 5223   4.801   4.919   1.984  0.2707  0.0675  0.4444
  228DG      H3 5224   4.666   5.601   2.514 -0.7061  0.4108 -1.0062
  228DG      H4 5225   4.740   5.477   2.597 -1.3861 -0.5327 -0.7199
  228DG      H5 5226   4.589   5.442   2.510  0.1687  2.6905 -0.0206
  228DG      H6 5227   4.731   4.840   2.005  2.1832  0.8629 -0.7081
  228DG      H7 5228   4.819   4.930   1.877 -0.5238 -2.6641  0.1930
  228DG      H8 5229   4.899   4.893   2.033 -1.0419  0.4763 -0.0698
  228DG      O9 5230   4.773   5.477   2.399 -0.0076 -0.2712 -0.0198
  228DG     O10 5231   4.748   5.034   2.052  0.6323 -0.3664  0.0932
  228DG     C11 5232   4.710   5.505   2.275 -0.0914  0.2226 -0.0827
  228DG     C12 5233   4.852   5.128   2.093  0.4147 -0.1220  0.1660
  228DG     H13 5234   4.678   5.615   2.272 -0.7026  0.4678  1.4550
  228DG     H14 5235   4.628   5.436   2.261 -0.2251  1.6521 -0.4635
  228DG     H15 5236   4.895   5.159   2.004 -5.6576 -2.1648  2.1257
  228DG     H16 5237   4.927   5.086   2.158 -0.2761 -0.8090  0.8326
  228DG     C17 5238   4.811   5.483   2.163 -0.9216 -0.1351  0.1784
  228DG     C18 5239   4.786   5.246   2.153 -0.6216 -0.5020  0.5653
  228DG     O19 5240   4.877   5.354   2.162  0.4658 -0.5757  0.5311
  228DG     H20 5241   4.886   5.566   2.177 -0.8765  0.6582 -2.3447
  228DG     H21 5242   4.754   5.491   2.067 -1.1976 -1.1825 -0.2741
  228DG     H22 5243   4.706   5.280   2.092 -2.2370 -0.4570  2.0720
  228DG     H23 5244   4.747   5.214   2.255 -1.5857 -0.9162  3.5156
  229DG      C1 5245   1.654   0.750   0.779  0.1355  1.1677  0.1810
  229DG      C2 5246   1.125   1.285   0.617 -0.2297 -0.6753 -0.5514
  229DG      H3 5247   1.730   0.800   0.719 -1.4009  1.2546 -0.1141
  229DG      H4 5248   1.611   0.674   0.713 -4.5794 -0.6722  0.3406
  229DG      H5 5249   1.707   0.695   0.854  1.1603  0.4312 -0.1859
  229DG      H6 5250   1.035   1.319   0.664 -0.2783 -0.7123 -0.4191
  229DG      H7 5251   1.126   1.331   0.523  1.1557  3.2195  1.5260
  229DG      H8 5252   1.131   1.176   0.629 -1.8897 -0.1489  0.1352
  229DG      O9 5253   1.557   0.827   0.841 -0.2390  0.1030  0.5705
  229DG     O10 5254   1.235   1.343   0.684  0.6077  0.5346  0.1311
  229DG     C11 5255   1.480   0.902   0.749  0.5881 -0.2773  0.2931
  229DG     C12 5256   1.365   1.335   0.624  0.6329 -0.5173 -0.0136
  229DG     H13 5257   1.380   0.893   0.775 -0.5975 -1.2882  1.8692
  229DG     H14 5258   1.476   0.873   0.644  0.3874 -0.9991 -2.1067
  229DG     H15 5259   1.407   1.428   0.609  0.8435  0.3523 -0.4664
  229DG     H16 5260   1.363   1.288   0.530  0.5035  0.9745  3.1335
  229DG     C17 5261   1.520   1.047   0.765 -0.7431  0.9502 -0.2562
  229DG     C18 5262   1.459   1.254   0.714  0.4715  0.1889  0.6227
  229DG     O19 5263   1.428   1.122   0.697  0.0766 -0.0414  0.4520
  229DG     H20 5264   1.620   1.066   0.730 -1.7163  0.8845  2.6765
  229DG     H21 5265   1.511   1.076   0.872 -0.2284  0.5234 -1.5257
  229DG     H22 5266   1.559   1.262   0.669 -0.9208  1.1587  1.0453
  229DG     H23 5267   1.451   1.280   0.824 -1.4685  0.5767 -0.8923
  230DG      C1 5268   5.459   1.875   2.565  0.0044 -0.1719  0.5223
  230DG      C2 5269   4.999   1.717   3.073 -0.1875 -0.0252  0.5192
  230DG      H3 5270   5.422   1.882   2.461 -0.4835 -1.1697 -1.5947
  230DG      H4 5271   5.550   1.819   2.560 -0.2652 -1.6600  3.6033
  230DG      H5 5272   5.486   1.979   2.598  0.8595 -0.7813 -1.1759
  230DG      H6 5273   4.938   1.800   3.113 -1.5344 -2.4015  0.9616
  230DG      H7 5274   4.939   1.630   3.070 -1.6989 -3.8464 -1.6295
  230DG      H8 5275   5.087   1.684   3.140  0.4360 -1.5002  0.8919
  230DG      O9 5276   5.359   1.810   2.650  0.1114 -0.1037  0.3198
  230DG     O10 5277   5.053   1.762   2.951 -0.3811 -0.1371 -0.5214
  230DG     C11 5278   5.309   1.689   2.599 -0.2454 -0.1721  0.3751
  230DG     C12 5279   4.949   1.753   2.861 -0.1809 -0.0820  0.2779
  230DG     H13 5280   5.341   1.603   2.654  3.6282  1.0245 -2.5540
  230DG     H14 5281   5.366   1.675   2.501  0.7980  2.0494 -0.0484
  230DG     H15 5282   4.868   1.823   2.887  0.5997  0.5993 -2.9505
  230DG     H16 5283   4.904   1.659   2.854  0.5878 -2.0398 -0.1164
  230DG     C17 5284   5.165   1.704   2.583 -0.2729 -0.1639  0.0193
  230DG     C18 5285   4.993   1.782   2.720 -0.0634 -0.1076  0.1496
  230DG     O19 5286   5.125   1.738   2.714  0.1392 -0.6209 -0.5481
  230DG     H20 5287   5.134   1.595   2.562  1.5137 -1.0241 -0.0250
  230DG     H21 5288   5.148   1.770   2.501  1.8536 -0.0464 -0.9297
  230DG     H22 5289   4.923   1.731   2.652 -0.8917 -2.4645  1.3465
  230DG     H23 5290   4.990   1.889   2.703  1.7957 -0.1277  1.6128
  231DG      C1 5291   1.753   1.316   5.284  0.1911 -0.1723 -0.6418
  231DG      C2 5292   2.402   1.361   5.107 -0.1876  0.0670  0.3695
  231DG      H3 5293   1.788   1.230   5.342  0.3877  0.6462 -0.6147
  231DG      H4 5294   1.649   1.303   5.243 -3.1218 -3.0047  1.5951
  231DG      H5 5295   1.754   1.400   5.357  1.0624  0.4386  0.6635
  231DG      H6 5296   2.469   1.445   5.088 -0.4993 -1.7521  2.4757
  231DG      H7 5297   2.398   1.357   5.220 -0.8754 -2.1922 -1.5144
  231DG      H8 5298   2.445   1.270   5.055  1.6316  1.8619 -0.0347
  231DG      O9 5299   1.845   1.335   5.174 -0.4810  0.5307 -0.0993
  231DG     O10 5300   2.271   1.390   5.048 -0.1184 -0.3832 -0.7474
  231DG     C11 5301   1.809   1.416   5.064 -0.7232  0.4936  0.2142
  231DG     C12 5302   2.266   1.371   4.908  0.3267  0.1722  0.4348
  231DG     H13 5303   1.854   1.515   5.091  2.8201  0.8941 -2.1069
  231DG     H14 5304   1.703   1.415   5.038 -0.9570  0.9048 -0.3681
  231DG     H15 5305   2.299   1.270   4.889 -1.1698 -0.5982 -3.1052
  231DG     H16 5306   2.336   1.441   4.869 -0.2250  1.6734  0.8397
  231DG     C17 5307   1.890   1.376   4.942  0.3521  0.1956 -0.2707
  231DG     C18 5308   2.116   1.372   4.865 -0.1387  0.8539 -0.1094
  231DG     O19 5309   2.027   1.413   4.970 -0.7433  0.0400  0.2020
  231DG     H20 5310   1.851   1.424   4.847 -0.3328  1.2199  0.1438
  231DG     H21 5311   1.881   1.272   4.929  0.0480 -1.7190 -1.1408
  231DG     H22 5312   2.095   1.417   4.771 -0.8136 -0.9648  0.9235
  231DG     H23 5313   2.093   1.267   4.854 -0.1134 -1.5862 -2.7165
  232DG      C1 5314   3.748   3.774   2.142 -0.1801 -0.5194 -0.3458
  232DG      C2 5315   3.845   4.181   2.611  0.2157  0.2959 -0.6665
  232DG      H3 5316   3.736   3.668   2.151  0.7632  1.9184  1.9859
  232DG      H4 5317   3.842   3.820   2.125 -1.3724 -0.1017  0.6176
  232DG      H5 5318   3.697   3.794   2.053  0.6687 -3.1095  4.1429
  232DG      H6 5319   3.905   4.239   2.534  1.4862 -1.8112  2.0436
  232DG      H7 5320   3.824   4.254   2.688  0.1494  0.6504  1.9759
  232DG      H8 5321   3.898   4.096   2.655 -2.2279  0.1660  1.1777
  232DG      O9 5322   3.693   3.828   2.261 -0.4025  0.9095 -0.1750
  232DG     O10 5323   3.735   4.150   2.538 -0.2131  0.3460  0.1626
  232DG     C11 5324   3.577   3.749   2.297  0.3835  0.3930  0.3056
  232DG     C12 5325   3.637   4.089   2.613 -0.5359  0.5013  0.6219
  232DG     H13 5326   3.604   3.655   2.344  0.3412  0.8356 -0.6470
  232DG     H14 5327   3.498   3.735   2.221 -2.2804 -1.3537  0.2562
  232DG     H15 5328   3.595   4.169   2.679  0.7052  1.5088 -0.6173
  232DG     H16 5329   3.675   4.014   2.676 -1.2178  1.1804 -0.4268
  232DG     C17 5330   3.491   3.828   2.404 -0.0095 -0.4888 -0.4448
  232DG     C18 5331   3.525   4.020   2.536 -0.1634  0.7851  0.1140
  232DG     O19 5332   3.582   3.931   2.449  0.6658  0.0967  0.4369
  232DG     H20 5333   3.451   3.758   2.483  0.7541 -1.9367 -1.4727
  232DG     H21 5334   3.408   3.877   2.363 -0.2927  0.4960 -0.5199
  232DG     H22 5335   3.454   3.968   2.602  1.4290  1.4495 -1.7756
  232DG     H23 5336   3.457   4.093   2.491  0.5681  0.8630  0.0312
  233DG      C1 5337   2.239   2.811   2.047  0.8048 -0.4387 -0.3961
  233DG      C2 5338   1.882   2.252   2.161  0.0943 -0.0440  0.8010
  233DG      H3 5339   2.230   2.918   2.018 -1.5207  0.0878 -2.7752
  233DG      H4 5340   2.297   2.763   1.974 -0.2350  0.5263 -2.8394
  233DG      H5 5341   2.294   2.802   2.137 -0.3036 -0.0859 -0.3486
  233DG      H6 5342   1.982   2.216   2.133  1.7490 -0.4597 -0.0354
  233DG      H7 5343   1.860   2.222   2.265 -2.1481  1.9902  0.9684
  233DG      H8 5344   1.810   2.198   2.094  0.8498 -0.1012  0.8675
  233DG      O9 5345   2.102   2.766   2.056 -0.0292  0.6319 -0.5609
  233DG     O10 5346   1.871   2.395   2.152 -0.3064 -0.6109  0.3947
  233DG     C11 5347   2.034   2.842   2.160 -0.5618  0.5005  0.8570
  233DG     C12 5348   1.763   2.458   2.217 -0.0565 -0.5130  0.1369
  233DG     H13 5349   2.038   2.947   2.140  1.3875 -0.8679  0.0772
  233DG     H14 5350   2.087   2.833   2.260 -0.5525  0.8906  1.5095
  233DG     H15 5351   1.775   2.443   2.325 -1.8455 -0.4254 -2.4134
  233DG     H16 5352   1.670   2.397   2.206  0.6553 -0.7145 -2.4519
  233DG     C17 5353   1.893   2.799   2.181  0.0655 -0.7735 -0.5710
  233DG     C18 5354   1.756   2.603   2.193  0.0246 -0.3571  0.1804
  233DG     O19 5355   1.886   2.657   2.200  0.2591 -0.4037 -0.0762
  233DG     H20 5356   1.835   2.822   2.095  0.6199  1.3291  2.2118
  233DG     H21 5357   1.849   2.856   2.264  0.5189 -1.4856 -0.2650
  233DG     H22 5358   1.712   2.623   2.092  0.5400 -0.8584 -1.2212
  233DG     H23 5359   1.700   2.655   2.271 -1.2359 -0.8742  0.0560
  234DG      C1 5360   0.058   4.003   0.842  0.3563  0.3850  0.3098
  234DG      C2 5361   0.380   3.609   0.589 -0.1636  0.1026 -0.8855
  234DG      H3 5362  -0.012   4.080   0.880 -0.6947  1.6058 -1.3945
  234DG      H4 5363   0.034   3.979   0.739  0.0799  5.3551  1.2755
  234DG      H5 5364   0.157   4.055   0.827  0.0762 -1.1055 -1.4637
  234DG      H6 5365   0.428   3.696   0.554  1.4048  0.0293 -1.4768
  234DG      H7 5366   0.432   3.525   0.541 -0.1500 -1.6441 -2.2325
  234DG      H8 5367   0.275   3.613   0.553 -1.1091 -0.0745 -0.7514
  234DG      O9 5368   0.064   3.890   0.927  0.2087  0.2112  0.5872
  234DG     O10 5369   0.398   3.612   0.734  0.2259 -0.0565  0.2651
  234DG     C11 5370   0.162   3.795   0.884  0.0433  0.2635  0.7194
  234DG     C12 5371   0.326   3.510   0.792  0.1988 -0.8060 -0.1461
  234DG     H13 5372   0.251   3.860   0.899  0.1196 -0.5925  0.7086
  234DG     H14 5373   0.157   3.781   0.770 -0.9951  0.0534 -0.6456
  234DG     H15 5374   0.356   3.415   0.770  0.1507  0.7942  0.1166
  234DG     H16 5375   0.218   3.501   0.769  0.5095 -2.4163 -0.6598
  234DG     C17 5376   0.159   3.675   0.974 -0.0191  0.1147 -0.3165
  234DG     C18 5377   0.344   3.512   0.945 -0.1385  0.2006  0.1767
  234DG     O19 5378   0.286   3.631   1.004  0.1509  0.1504  0.1429
  234DG     H20 5379   0.092   3.598   0.935 -0.5715  0.1121  1.4259
  234DG     H21 5380   0.117   3.709   1.066  0.2628 -1.0807 -2.3027
  234DG     H22 5381   0.284   3.436   0.990  1.3213 -0.3857 -3.0508
  234DG     H23 5382   0.442   3.502   0.981 -2.3485 -1.7117  2.0055
  235DG      C1 5383   0.735   0.986   2.861 -0.0994 -0.1209  0.5253
  235DG      C2 5384   0.830   1.692   3.016 -1.0799  0.6064  0.1051
  235DG      H3 5385   0.844   0.976   2.852 -2.5383 -1.7186 -1.3919
  235DG      H4 5386   0.694   0.928   2.780 -2.5963  4.0225  0.4760
  235DG      H5 5387   0.701   0.948   2.956  1.9923 -2.1882  0.4023
  235DG      H6 5388   0.824   1.799   3.007 -0.3814 -2.4924 -1.8615
  235DG      H7 5389   0.763   1.653   3.088  0.1212 -0.4189 -0.0420
  235DG      H8 5390   0.931   1.667   3.057 -0.3931 -0.0237 -0.3103
  235DG      O9 5391   0.684   1.112   2.822 -0.0039 -0.5422  0.5271
  235DG     O10 5392   0.823   1.621   2.888  0.5037  0.1040 -0.4840
  235DG     C11 5393   0.749   1.150   2.700 -0.8001 -0.7867  0.2170
  235DG     C12 5394   0.691   1.616   2.832 -0.7257 -0.2284 -0.7642
  235DG     H13 5395   0.726   1.082   2.617 -3.2029  2.1019 -1.7684
  235DG     H14 5396   0.859   1.148   2.714  0.8951  0.0373 -0.2915
  235DG     H15 5397   0.655   1.712   2.789 -0.7804 -0.6072 -2.7891
  235DG     H16 5398   0.616   1.606   2.908  0.5854  5.1997  1.9702
  235DG     C17 5399   0.701   1.289   2.652  0.3089 -0.3019 -0.1072
  235DG     C18 5400   0.670   1.513   2.714  0.0876  0.0281  0.5261
  235DG     O19 5401   0.710   1.384   2.758 -0.0083 -0.1840 -0.7029
  235DG     H20 5402   0.591   1.275   2.638  2.5779 -1.2515 -0.3096
  235DG     H21 5403   0.744   1.319   2.556 -0.2771 -3.0738 -1.0926
  235DG     H22 5404   0.564   1.502   2.688 -1.3798 -1.7011  0.5001
  235DG     H23 5405   0.716   1.559   2.624 -0.9185  2.1642  0.4777
  236DG      C1 5406   4.354   2.221   1.365  0.2630  0.3288 -0.1360
  236DG      C2 5407   4.376   2.498   1.692  0.4405 -0.0420 -0.0886
  236DG      H3 5408   4.350   2.118   1.335 -1.0977  0.7088 -1.6538
  236DG      H4 5409   4.426   2.243   1.446  1.4471  0.0288 -2.1364
  236DG      H5 5410   4.399   2.280   1.285  3.0899 -1.0785 -0.6518
  236DG      H6 5411   4.371   2.421   1.610  1.5131 -1.6709 -0.5897
  236DG      H7 5412   4.404   2.603   1.661  0.4870  1.1810 -1.5157
  236DG      H8 5413   4.472   2.465   1.736 -0.4292 -0.7303  0.9936
  236DG      O9 5414   4.230   2.268   1.415 -0.1848 -0.0646 -0.1680
  236DG     O10 5415   4.258   2.484   1.773  0.5694  0.2800  0.1724
  236DG     C11 5416   4.159   2.185   1.504  0.1089  0.1078  0.6654
  236DG     C12 5417   4.136   2.542   1.709  0.1467  0.6396 -0.2733
  236DG     H13 5418   4.222   2.157   1.596 -0.9537  0.8053  1.6885
  236DG     H14 5419   4.149   2.082   1.466  2.4990 -1.2171  1.1661
  236DG     H15 5420   4.140   2.652   1.697  0.3534 -0.0331  0.3105
  236DG     H16 5421   4.065   2.537   1.793 -3.3875 -0.1132 -0.8344
  236DG     C17 5422   4.025   2.238   1.554 -0.8600 -0.0976 -0.1708
  236DG     C18 5423   4.074   2.461   1.597 -0.2806 -0.2823  0.2212
  236DG     O19 5424   4.053   2.338   1.653  0.0358  0.0153 -0.2158
  236DG     H20 5425   3.955   2.165   1.603  1.9908  1.9989 -0.3035
  236DG     H21 5426   3.964   2.275   1.473 -1.7789  1.1856  0.9171
  236DG     H22 5427   3.975   2.496   1.559 -0.5298 -0.2747  1.1649
  236DG     H23 5428   4.148   2.455   1.522 -0.4356  0.4981 -0.9998
  237DG      C1 5429   3.795   5.502   2.374  0.4722  0.3848  0.3722
  237DG      C2 5430   4.238   6.015   2.548 -0.4453  0.1685 -0.3414
  237DG      H3 5431   3.771   5.432   2.293  1.2454  0.9754 -1.0596
  237DG      H4 5432   3.713   5.563   2.410  1.3396 -0.7722 -2.9836
  237DG      H5 5433   3.842   5.458   2.468  0.1102  0.2013 -0.2942
  237DG      H6 5434   4.154   6.059   2.602 -0.8860 -0.7475  0.3285
  237DG      H7 5435   4.274   5.935   2.606 -1.5478 -1.3182  2.4508
  237DG      H8 5436   4.316   6.088   2.527  5.4427 -2.1908 -0.7036
  237DG      O9 5437   3.891   5.599   2.317 -0.0113  0.2684 -0.7204
  237DG     O10 5438   4.197   5.956   2.431 -0.4671 -0.2999 -0.1696
  237DG     C11 5439   3.845   5.673   2.209 -0.5685  0.5173 -0.2210
  237DG     C12 5440   4.087   6.022   2.373  0.0662 -0.4368  0.3391
  237DG     H13 5441   3.764   5.736   2.236 -1.7485 -2.1751  0.3052
  237DG     H14 5442   3.826   5.617   2.123  0.2428  1.7008 -0.5474
  237DG     H15 5443   4.122   6.121   2.340  0.7944  0.8877  0.2834
  237DG     H16 5444   3.995   6.029   2.434  1.9891  0.3751  1.6558
  237DG     C17 5445   3.948   5.773   2.158  0.4940 -0.7555  0.1674
  237DG     C18 5446   4.051   5.963   2.235 -0.4408  0.2343  0.2036
  237DG     O19 5447   3.986   5.847   2.272  0.1965 -0.0744  0.4730
  237DG     H20 5448   3.908   5.842   2.087 -0.6850 -2.0213 -0.9686
  237DG     H21 5449   4.026   5.723   2.103  0.2266  2.9254 -0.2254
  237DG     H22 5450   3.991   6.032   2.172 -1.6807 -2.1339  1.0953
  237DG     H23 5451   4.143   5.951   2.182 -0.3443  4.5935  0.0661
  238DG      C1 5452   1.740   4.252   2.566  0.1741 -0.6750  0.1090
  238DG      C2 5453   1.923   4.885   2.412  0.6472  0.2944  0.2895
  238DG      H3 5454   1.846   4.247   2.555  1.3776 -1.2829  1.2281
  238DG      H4 5455   1.696   4.171   2.508 -0.4487  1.0906 -0.2969
  238DG      H5 5456   1.705   4.246   2.670 -1.5376 -0.0506 -0.1225
  238DG      H6 5457   2.013   4.839   2.449  1.2426  2.8529  0.0657
  238DG      H7 5458   1.944   4.949   2.323  1.7428  0.9236 -1.9637
  238DG      H8 5459   1.895   4.947   2.499 -3.4157 -0.3175 -1.5135
  238DG      O9 5460   1.699   4.377   2.506 -0.4371 -0.1648  0.2257
  238DG     O10 5461   1.820   4.791   2.385 -0.0759 -0.5694  0.1881
  238DG     C11 5462   1.563   4.413   2.525 -0.3016  0.5404  0.1995
  238DG     C12 5463   1.691   4.838   2.392  0.1003 -0.5786  0.0251
  238DG     H13 5464   1.548   4.454   2.623 -0.3150  1.5568 -3.6407
  238DG     H14 5465   1.504   4.327   2.512  2.3224 -1.2014 -1.1342
  238DG     H15 5466   1.674   4.924   2.332 -0.8262 -0.0072  1.7662
  238DG     H16 5467   1.672   4.878   2.490  0.0602 -2.9186  0.9724
  238DG     C17 5468   1.517   4.521   2.429 -0.2595 -0.3639 -0.7551
  238DG     C18 5469   1.594   4.732   2.347 -0.2120 -0.1938 -0.7321
  238DG     O19 5470   1.625   4.614   2.420  0.2157 -0.3739 -0.0833
  238DG     H20 5471   1.430   4.568   2.473 -0.2486 -2.1103  1.9798
  238DG     H21 5472   1.488   4.487   2.330  0.7050 -0.8830  0.2767
  238DG     H22 5473   1.497   4.769   2.371 -1.3356  0.4114  1.7473
  238DG     H23 5474   1.615   4.711   2.246  0.3237 -2.7026  0.8995
  239DG      C1 5475   0.751   3.339   1.815  0.0208  0.7337  0.3662
  239DG      C2 5476   0.481   2.689   1.659 -0.1384  0.3709  0.3904
  239DG      H3 5477   0.738   3.441   1.782 -1.4425 -1.5883 -0.5654
  239DG      H4 5478   0.856   3.317   1.800  0.7739 -1.5154 -0.4783
  239DG      H5 5479   0.744   3.342   1.927  0.4261 -0.7798 -1.2647
  239DG      H6 5480   0.416   2.642   1.582 -5.4188  2.6562 -0.7954
  239DG      H7 5481   0.576   2.649   1.634  0.0703 -0.1685 -0.5833
  239DG      H8 5482   0.450   2.655   1.765 -1.1826  1.2067 -1.1485
  239DG      O9 5483   0.653   3.253   1.760  0.5801  0.5227  0.2321
  239DG     O10 5484   0.473   2.830   1.630 -0.3781 -0.6216  0.0778
  239DG     C11 5485   0.523   3.309   1.758  0.1674  0.9405 -0.2254
  239DG     C12 5486   0.341   2.877   1.617 -0.0420 -0.2398 -0.1398
  239DG     H13 5487   0.532   3.413   1.736  0.5812 -1.7612  1.7291
  239DG     H14 5488   0.451   3.289   1.851  0.5932  0.1984  1.4382
  239DG     H15 5489   0.293   2.867   1.718 -0.2650  1.9766  3.1430
  239DG     H16 5490   0.290   2.827   1.530 -0.2588 -1.9940  1.9359
  239DG     C17 5491   0.451   3.235   1.644 -0.0457 -0.1435 -0.4009
  239DG     C18 5492   0.353   3.028   1.583  0.0448 -0.0262 -0.5441
  239DG     O19 5493   0.430   3.095   1.682 -0.1675 -0.4004 -0.4689
  239DG     H20 5494   0.521   3.229   1.562  0.7480 -0.2247  2.2029
  239DG     H21 5495   0.365   3.279   1.593  1.3465  0.1943 -1.9596
  239DG     H22 5496   0.395   3.052   1.485  0.9762  0.3813 -2.8217
  239DG     H23 5497   0.260   3.069   1.573 -0.2191 -1.3427 -1.0096
  240DG      C1 5498   5.087   2.604   3.372 -1.2115  0.5117 -0.3811
  240DG      C2 5499   4.402   2.313   3.319 -0.9341  0.7104 -0.1720
  240DG      H3 5500   5.051   2.591   3.270  0.8611 -1.0691  1.1182
  240DG      H4 5501   5.195   2.573   3.384  0.8544  2.4160 -0.1931
  240DG      H5 5502   5.085   2.704   3.400 -0.6331 -1.3127 -0.7572
  240DG      H6 5503   4.351   2.227   3.283 -0.8102 -2.0615 -0.6277
  240DG      H7 5504   4.375   2.334   3.420 -0.0266 -1.2830  0.6599
  240DG      H8 5505   4.361   2.391   3.247  3.7077  0.8410 -0.0281
  240DG      O9 5506   5.003   2.515   3.438  0.2621 -0.7775 -0.7176
  240DG     O10 5507   4.541   2.299   3.292  0.4717  0.4653 -0.3768
  240DG     C11 5508   5.034   2.378   3.405  0.6906 -0.2211  0.2838
  240DG     C12 5509   4.604   2.177   3.345 -0.2778  0.0331  0.0887
  240DG     H13 5510   5.131   2.360   3.444 -2.6698  1.1679 -1.8324
  240DG     H14 5511   5.041   2.350   3.303 -0.4802 -2.3321 -0.4350
  240DG     H15 5512   4.640   2.128   3.255 -2.0912  0.8621 -0.0543
  240DG     H16 5513   4.530   2.104   3.391 -1.4595  0.6729  0.5206
  240DG     C17 5514   4.931   2.291   3.468  0.6861 -0.3268 -0.9141
  240DG     C18 5515   4.720   2.203   3.441 -0.1527 -0.3856  0.5028
  240DG     O19 5516   4.815   2.294   3.389 -0.1726  0.2657  0.2128
  240DG     H20 5517   4.899   2.312   3.564  0.7646 -1.9860 -3.9639
  240DG     H21 5518   4.976   2.186   3.479  1.8688 -1.8764 -2.0533
  240DG     H22 5519   4.692   2.242   3.533 -0.3567 -1.1973 -0.9427
  240DG     H23 5520   4.760   2.107   3.463 -0.9404  0.7500  1.3724
  241DG      C1 5521   4.796   2.865   1.308  0.0397 -0.1461 -0.3647
  241DG      C2 5522   4.882   2.685   0.621 -0.6533 -0.4965 -0.4169
  241DG      H3 5523   4.812   2.973   1.308  2.1248 -0.5855 -2.7092
  241DG      H4 5524   4.900   2.831   1.309 -0.3012  0.3744  0.7735
  241DG      H5 5525   4.734   2.836   1.396  0.4291 -1.1187  0.3170
  241DG      H6 5526   4.857   2.655   0.517  0.0331  0.8222  0.9919
  241DG      H7 5527   4.959   2.765   0.605  2.1171  1.9675  1.9642
  241DG      H8 5528   4.921   2.588   0.656  0.8480 -2.2932  1.3152
  241DG      O9 5529   4.738   2.816   1.179  0.3541  0.2085  0.0268
  241DG     O10 5530   4.778   2.733   0.704  0.4473  0.1997  0.5654
  241DG     C11 5531   4.599   2.853   1.160  0.3547  0.3963 -0.3957
  241DG     C12 5532   4.674   2.641   0.739  0.3242  0.0887 -0.0326
  241DG     H13 5533   4.591   2.952   1.190 -2.4658  2.1561  0.3972
  241DG     H14 5534   4.542   2.799   1.228  1.3259  1.8587 -1.0927
  241DG     H15 5535   4.720   2.557   0.800  1.1405 -1.9944 -0.0909
  241DG     H16 5536   4.626   2.600   0.641 -0.7730 -1.4047 -0.6125
  241DG     C17 5537   4.549   2.832   1.019 -0.5295  0.0789  0.7168
  241DG     C18 5538   4.574   2.713   0.822  0.3783  0.2637  0.3357
  241DG     O19 5539   4.633   2.749   0.938 -0.3118 -0.5640 -0.3854
  241DG     H20 5540   4.538   2.926   0.966 -1.5764 -2.2541  1.8524
  241DG     H21 5541   4.448   2.797   1.032 -0.5263  1.8870  0.3625
  241DG     H22 5542   4.512   2.787   0.769  0.2592 -1.3215  2.4222
  241DG     H23 5543   4.500   2.634   0.839  3.1627 -0.5342 -0.5652
  242DG      C1 5544   1.864   3.535   4.606  0.0569  0.3021  0.6737
  242DG      C2 5545   2.010   2.886   4.685 -0.3765  0.2501  0.6791
  242DG      H3 5546   1.787   3.609   4.579  1.7144  1.8697 -0.7755
  242DG      H4 5547   1.949   3.558   4.545 -1.7147 -0.8524  0.0642
  242DG      H5 5548   1.897   3.555   4.711  1.0796  1.0312 -0.4651
  242DG      H6 5549   2.121   2.870   4.686  0.9012 -2.5023 -0.7635
  242DG      H7 5550   1.961   2.896   4.782  0.0732 -0.5670  0.6856
  242DG      H8 5551   1.989   2.782   4.650  2.5966  0.3878  0.3055
  242DG      O9 5552   1.812   3.403   4.569 -0.0255 -0.9468 -0.4963
  242DG     O10 5553   1.965   2.984   4.592  0.0034  0.4758  0.0755
  242DG     C11 5554   1.735   3.388   4.446 -0.2788 -0.4529 -0.1810
  242DG     C12 5555   1.822   2.980   4.587  0.6036 -0.2226  0.3625
  242DG     H13 5556   1.799   3.432   4.372 -0.1464  0.0135  0.6903
  242DG     H14 5557   1.646   3.446   4.459  1.2495  1.4142 -0.0555
  242DG     H15 5558   1.786   3.048   4.667 -2.1251  0.1125  1.1774
  242DG     H16 5559   1.771   2.885   4.612  0.6897  1.4406 -0.2195
  242DG     C17 5560   1.699   3.239   4.432 -0.2472  0.2084 -0.4699
  242DG     C18 5561   1.770   3.024   4.444 -0.2866 -0.1661 -0.2546
  242DG     O19 5562   1.809   3.154   4.417  0.0089 -0.3929  0.3109
  242DG     H20 5563   1.648   3.231   4.337 -0.0163 -1.7765 -0.3615
  242DG     H21 5564   1.638   3.213   4.515  2.1230 -0.4617  0.2048
  242DG     H22 5565   1.821   2.967   4.369 -2.7427  1.0967 -0.0958
  242DG     H23 5566   1.666   2.998   4.424  1.3469 -2.1280  1.9365
  243DG      C1 5567   1.271   3.296   2.317  0.7357  0.1933  0.1105
  243DG      C2 5568   1.484   3.768   1.784  0.3058  1.0706  0.3313
  243DG      H3 5569   1.287   3.342   2.415  1.5026  0.2695  0.4286
  243DG      H4 5570   1.278   3.186   2.316 -0.1157 -1.0776  3.2445
  243DG      H5 5571   1.180   3.349   2.271 -1.3941  1.9553 -1.5652
  243DG      H6 5572   1.410   3.713   1.724 -0.8181 -0.1221 -0.2504
  243DG      H7 5573   1.431   3.836   1.841  2.0639  1.0572 -1.2624
  243DG      H8 5574   1.546   3.827   1.710 -0.3483 -2.6160 -3.1454
  243DG      O9 5575   1.384   3.329   2.231  0.1459 -0.0843  0.1941
  243DG     O10 5576   1.546   3.661   1.854 -0.3166 -0.2458  0.0392
  243DG     C11 5577   1.483   3.411   2.302  0.2817 -1.1423 -0.6760
  243DG     C12 5578   1.645   3.697   1.945  0.3942  0.2569 -0.1530
  243DG     H13 5579   1.520   3.358   2.386 -0.0044  1.2457 -1.5698
  243DG     H14 5580   1.435   3.508   2.337  0.3445  1.5080  2.2259
  243DG     H15 5581   1.604   3.774   2.015 -0.5558 -1.2520  0.2903
  243DG     H16 5582   1.728   3.746   1.893  1.6453 -0.8024  2.1880
  243DG     C17 5583   1.608   3.445   2.216 -0.0395 -0.6576  0.5190
  243DG     C18 5584   1.691   3.572   2.022  0.2699 -0.6075 -0.4415
  243DG     O19 5585   1.575   3.514   2.094  0.2956 -0.0456  0.3626
  243DG     H20 5586   1.644   3.346   2.178 -2.3793 -1.7259 -0.6478
  243DG     H21 5587   1.695   3.495   2.263 -0.1459 -0.4982 -0.2304
  243DG     H22 5588   1.746   3.503   1.966 -0.8065  0.5845  1.2397
  243DG     H23 5589   1.761   3.606   2.101 -0.2064  0.8867  4.4226
  244DG      C1 5590   4.525   1.788   1.983 -0.7333 -0.7563 -0.1204
  244DG      C2 5591   3.949   1.832   2.247 -0.3460  0.4398  0.5154
  244DG      H3 5592   4.580   1.716   2.042  0.1020  0.4265  0.2914
  244DG      H4 5593   4.542   1.887   2.032 -0.7739 -1.6197  0.7635
  244DG      H5 5594   4.583   1.800   1.894 -0.6163  1.2198  0.2922
  244DG      H6 5595   3.963   1.939   2.235 -1.3793 -1.4012  1.6426
  244DG      H7 5596   3.840   1.796   2.261 -1.5191 -2.8295  2.7990
  244DG      H8 5597   4.001   1.788   2.340 -0.7050 -0.7487  1.3798
  244DG      O9 5598   4.392   1.739   1.959  0.1399 -0.7573 -0.5252
  244DG     O10 5599   3.997   1.768   2.131  0.0674 -0.1417 -0.1774
  244DG     C11 5600   4.393   1.607   1.906 -1.0081  0.2974 -0.0279
  244DG     C12 5601   3.980   1.629   2.116  1.2865 -0.4005  0.1838
  244DG     H13 5602   4.442   1.539   1.976  0.1014 -0.4634 -1.2031
  244DG     H14 5603   4.447   1.604   1.808  0.7078 -0.6652 -0.6436
  244DG     H15 5604   3.879   1.593   2.116  2.1023  0.1733  0.1022
  244DG     H16 5605   4.027   1.586   2.207  1.4495 -0.2306 -1.3613
  244DG     C17 5606   4.247   1.572   1.880 -0.4200  1.7155 -0.1873
  244DG     C18 5607   4.044   1.581   1.982  0.7033 -0.3376 -0.5934
  244DG     O19 5608   4.183   1.610   1.996  0.2658  0.2319 -0.3820
  244DG     H20 5609   4.237   1.464   1.862  1.7387 -1.2384  0.4515
  244DG     H21 5610   4.213   1.619   1.788 -1.3278 -0.4879 -0.2881
  244DG     H22 5611   4.016   1.481   1.958 -0.8968  3.9208  0.9516
  244DG     H23 5612   4.019   1.655   1.901  2.5965 -1.1695 -1.2059
  245DG      C1 5613   2.873   5.039   3.028  0.5906 -0.8706 -0.1124
  245DG      C2 5614   2.255   5.251   3.312 -0.1868  0.2169 -0.3953
  245DG      H3 5615   2.888   4.929   3.045 -1.6796  0.1333  0.3353
  245DG      H4 5616   2.965   5.076   3.068 -0.8705  0.8011 -1.4778
  245DG      H5 5617   2.889   5.056   2.921 -1.9914 -1.4737 -2.7703
  245DG      H6 5618   2.261   5.317   3.223 -1.3224  0.3699 -2.2847
  245DG      H7 5619   2.210   5.154   3.278  3.5420 -0.3338 -4.5940
  245DG      H8 5620   2.191   5.308   3.380 -1.7710  0.8709 -0.0099
  245DG      O9 5621   2.761   5.094   3.091 -0.1363 -0.1784  0.1580
  245DG     O10 5622   2.387   5.237   3.348  0.0028  0.0746 -0.2144
  245DG     C11 5623   2.732   5.230   3.057 -0.8148  1.1257 -0.7045
  245DG     C12 5624   2.452   5.356   3.396  0.3394 -0.3145 -0.1624
  245DG     H13 5625   2.706   5.254   2.955  1.5577 -2.7846 -1.1651
  245DG     H14 5626   2.828   5.284   3.062  0.7562  0.7424  0.4215
  245DG     H15 5627   2.426   5.374   3.498 -1.0286 -3.1130 -2.1545
  245DG     H16 5628   2.417   5.447   3.348 -3.2837  2.7814  0.3928
  245DG     C17 5629   2.625   5.265   3.164 -0.0864  0.6531 -0.7343
  245DG     C18 5630   2.607   5.355   3.383 -0.3280  0.3595 -1.2003
  245DG     O19 5631   2.656   5.249   3.303  0.4635 -0.3604  0.2536
  245DG     H20 5632   2.533   5.212   3.140 -1.1695 -1.2758 -0.7870
  245DG     H21 5633   2.596   5.369   3.136  1.7129 -2.9494 -0.8363
  245DG     H22 5634   2.636   5.451   3.346 -1.5147  2.6226  2.1107
  245DG     H23 5635   2.647   5.340   3.484  0.6121 -0.4331  0.4972
  246DG      C1 5636   2.418   4.988   2.976  0.4749 -0.6429  1.0750
  246DG      C2 5637   2.575   5.113   3.663  0.7886 -0.1226 -0.3482
  246DG      H3 5638   2.519   5.009   2.949  1.7844  0.6958  1.7072
  246DG      H4 5639   2.367   5.088   2.970 -0.7488  0.8071 -1.0666
  246DG      H5 5640   2.371   4.921   2.904 -1.5382  0.6018  3.0288
  246DG      H6 5641   2.574   5.221   3.659 -2.3147  1.0154  3.6955
  246DG      H7 5642   2.557   5.081   3.758  0.1330  2.9887  2.2974
  246DG      H8 5643   2.680   5.099   3.651 -1.2490  2.5962  1.4790
  246DG      O9 5644   2.426   4.928   3.103  0.3421  0.4562  0.3304
  246DG     O10 5645   2.510   5.035   3.562 -1.3772 -0.0413  0.0703
  246DG     C11 5646   2.297   4.887   3.151 -0.1323  0.1617  0.9794
  246DG     C12 5647   2.378   5.001   3.588 -0.2969 -0.6055 -0.1162
  246DG     H13 5648   2.250   4.810   3.081  0.4131  0.0906 -1.5794
  246DG     H14 5649   2.229   4.971   3.159  1.4520  0.8589 -1.3902
  246DG     H15 5650   2.314   5.074   3.552 -0.0813  4.0472  3.4597
  246DG     H16 5651   2.371   4.980   3.690 -0.7610 -0.6982 -2.7109
  246DG     C17 5652   2.287   4.816   3.282  0.0739  0.0703  0.8874
  246DG     C18 5653   2.340   4.871   3.505 -0.1997 -1.5824 -0.1714
  246DG     O19 5654   2.350   4.907   3.368 -0.3344 -0.4389  0.0751
  246DG     H20 5655   2.349   4.726   3.274 -3.4628 -1.6656 -1.6895
  246DG     H21 5656   2.183   4.791   3.313 -0.1851 -0.2452  2.3943
  246DG     H22 5657   2.408   4.794   3.539 -2.5905 -0.3979  0.2988
  246DG     H23 5658   2.237   4.849   3.530  0.3795 -0.4079 -0.5155
  247DG      C1 5659   4.923   2.675   4.696  0.1497 -0.2142 -0.3214
  247DG      C2 5660   4.841   3.276   4.265 -0.5228 -0.2220 -0.6866
  247DG      H3 5661   5.035   2.676   4.706  3.0159  1.1862 -2.4389
  247DG      H4 5662   4.891   2.618   4.612  0.1005  0.5301  0.9743
  247DG      H5 5663   4.875   2.633   4.785  2.0617 -1.9373 -1.7917
  247DG      H6 5664   4.945   3.240   4.296  0.0080  0.9888  0.4381
  247DG      H7 5665   4.826   3.261   4.160  1.0899  1.8771  1.1349
  247DG      H8 5666   4.829   3.379   4.281 -0.9394 -2.6999  1.6570
  247DG      O9 5667   4.874   2.805   4.696  0.0452  0.1836  0.5784
  247DG     O10 5668   4.744   3.204   4.336  0.1012  0.3373 -0.3505
  247DG     C11 5669   4.729   2.818   4.695  0.5962  0.0529  0.0089
  247DG     C12 5670   4.748   3.065   4.320  0.0164  0.4941 -0.2628
  247DG     H13 5671   4.694   2.788   4.790 -1.1180 -1.7811  0.0932
  247DG     H14 5672   4.687   2.763   4.608  0.5208 -2.2182  3.5453
  247DG     H15 5673   4.850   3.036   4.291  0.8452 -0.4604 -2.9235
  247DG     H16 5674   4.707   3.039   4.223  2.9214 -0.1848  2.6606
  247DG     C17 5675   4.685   2.962   4.680 -0.1761  0.7075 -0.1865
  247DG     C18 5676   4.682   2.984   4.428 -0.3564  0.2776 -0.4791
  247DG     O19 5677   4.726   3.029   4.558 -0.9420 -0.0320  0.2689
  247DG     H20 5678   4.731   3.029   4.756  3.1491 -0.2176  1.4994
  247DG     H21 5679   4.577   2.972   4.690  1.4053  1.8922 -3.0058
  247DG     H22 5680   4.573   2.997   4.418  2.6330 -3.5226  1.8052
  247DG     H23 5681   4.696   2.876   4.418  1.2633  1.9103  2.2549
  248DG      C1 5682   0.439   0.474   0.786  0.2388 -0.6561 -0.3706
  248DG      C2 5683   0.119   0.330   0.661 -0.5369  0.3686 -0.6666
  248DG      H3 5684   0.406   0.578   0.758  2.7128  1.7167 -0.7849
  248DG      H4 5685   0.443   0.482   0.896  1.2300 -0.0851 -1.3782
  248DG      H5 5686   0.369   0.407   0.754  2.8329  1.0647  0.1068
  248DG      H6 5687   0.192   0.392   0.604  0.7509 -1.8829  2.9903
  248DG      H7 5688   0.025   0.381   0.676 -0.0210 -2.1783  1.7818
  248DG      H8 5689   0.156   0.316   0.765 -0.5467 -1.2439 -0.8626
  248DG      O9 5690   0.568   0.433   0.726  0.7121 -0.1795  0.5121
  248DG     O10 5691   0.098   0.206   0.593  0.0041  0.7014 -0.2062
  248DG     C11 5692   0.596   0.301   0.774 -0.7810  0.2876  0.2027
  248DG     C12 5693   0.163   0.085   0.636 -1.2582  0.4079 -0.0087
  248DG     H13 5694   0.559   0.288   0.881  1.9784 -0.5610  0.9605
  248DG     H14 5695   0.705   0.300   0.778 -2.9034  3.3338 -1.6205
  248DG     H15 5696   0.110   0.016   0.562 -0.7751  0.8942 -0.2208
  248DG     H16 5697   0.115   0.051   0.725 -0.4210  0.0727 -1.0733
  248DG     C17 5698   0.531   0.183   0.692  0.1339 -0.3290  0.1302
  248DG     C18 5699   0.321   0.080   0.629 -0.0020  0.4160 -0.3326
  248DG     O19 5700   0.383   0.178   0.702 -0.2563  0.1331 -0.9966
  248DG     H20 5701   0.570   0.092   0.726 -1.1401 -0.0460  0.6222
  248DG     H21 5702   0.561   0.199   0.592  0.5827  2.1958  1.1338
  248DG     H22 5703   0.368  -0.008   0.661 -0.0987 -0.5461  1.5932
  248DG     H23 5704   0.359   0.103   0.528 -1.4375  1.1744  0.6737
  249DG      C1 5705   0.827   2.434   0.823  0.6325 -0.2001 -0.6514
  249DG      C2 5706   0.615   3.086   1.031 -1.0019 -0.4488 -0.3675
  249DG      H3 5707   0.910   2.438   0.890  0.6244 -0.4816 -0.3846
  249DG      H4 5708   0.836   2.351   0.749 -1.5098  1.7940 -0.5808
  249DG      H5 5709   0.735   2.421   0.882 -0.3573  4.1039 -0.6839
  249DG      H6 5710   0.659   3.183   0.993 -0.3457 -1.2886 -0.8844
  249DG      H7 5711   0.522   3.116   1.081  1.4058  1.8772 -1.2954
  249DG      H8 5712   0.675   3.042   1.117 -0.2397 -0.6670 -0.4898
  249DG      O9 5713   0.826   2.547   0.740  0.1610  0.1099  0.3589
  249DG     O10 5714   0.570   3.007   0.927 -0.3552 -0.3477  0.0443
  249DG     C11 5715   0.699   2.559   0.667 -0.3665 -0.2332  0.0433
  249DG     C12 5716   0.670   2.950   0.850  0.2297  0.3670 -0.1745
  249DG     H13 5717   0.608   2.559   0.728  2.5561  2.9614  2.3175
  249DG     H14 5718   0.688   2.488   0.582  0.5514 -0.5489 -0.9874
  249DG     H15 5719   0.752   2.900   0.895 -0.6117 -0.1350 -0.9035
  249DG     H16 5720   0.716   3.023   0.783 -1.4869  1.0112  1.3402
  249DG     C17 5721   0.682   2.694   0.587  0.1768  0.2873  0.0629
  249DG     C18 5722   0.603   2.857   0.758 -0.0809 -0.0215  0.7091
  249DG     O19 5723   0.700   2.808   0.663 -0.5681 -0.1117  0.2589
  249DG     H20 5724   0.585   2.692   0.538  2.1186 -0.5899  0.7991
  249DG     H21 5725   0.759   2.677   0.506 -0.4534  1.4302 -1.7639
  249DG     H22 5726   0.562   2.775   0.819  0.5620 -2.1549  0.9726
  249DG     H23 5727   0.512   2.895   0.711  0.1463 -3.2789  0.7952
  250DG      C1 5728   0.854   1.383   2.237  0.4315 -0.2396 -0.3033
  250DG      C2 5729   0.723   0.796   1.927  0.5422 -0.0355  0.5946
  250DG      H3 5730   0.922   1.417   2.160  3.6873  3.2404  0.9775
  250DG      H4 5731   0.897   1.299   2.298 -1.5162 -0.7214 -0.6200
  250DG      H5 5732   0.832   1.463   2.303 -1.2734  0.5760 -4.0614
  250DG      H6 5733   0.817   0.774   1.976 -1.6724  1.9078 -4.8757
  250DG      H7 5734   0.668   0.697   1.907  1.9547 -0.6233 -2.5196
  250DG      H8 5735   0.748   0.833   1.824  2.7841  1.0837 -0.8932
  250DG      O9 5736   0.746   1.326   2.158  0.1785 -0.6286  0.1615
  250DG     O10 5737   0.653   0.897   1.999 -0.0009 -0.0693  0.7687
  250DG     C11 5738   0.629   1.298   2.238 -0.3922  0.9094  0.5865
  250DG     C12 5739   0.516   0.922   1.953 -0.2461  0.1977  0.1643
  250DG     H13 5740   0.593   1.381   2.291 -1.2346 -0.2768  2.5629
  250DG     H14 5741   0.656   1.233   2.316  1.6699  0.7683  0.3635
  250DG     H15 5742   0.450   0.831   1.945  1.7218  0.5423 -1.0658
  250DG     H16 5743   0.511   0.968   1.854 -0.2613  1.2984  1.6060
  250DG     C17 5744   0.507   1.238   2.155 -0.4265 -0.2144 -0.2903
  250DG     C18 5745   0.449   1.024   2.050  0.1641  0.1250  0.4065
  250DG     O19 5746   0.550   1.120   2.080 -0.1214 -0.2016  0.2448
  250DG     H20 5747   0.467   1.306   2.087  0.2210  0.4291  0.3793
  250DG     H21 5748   0.420   1.218   2.215 -0.9953  1.5461 -0.4847
  250DG     H22 5749   0.363   1.063   2.004  0.3046  0.1591  0.5811
  250DG     H23 5750   0.411   0.966   2.131 -2.6013  0.8682  2.8073
  251DG      C1 5751   1.367   0.644   1.605 -0.7732 -0.1839 -0.1358
  251DG      C2 5752   0.823   0.145   1.597  1.3362  0.2211 -0.3199
  251DG      H3 5753   1.336   0.648   1.496 -0.2661 -0.1506 -3.0960
  251DG      H4 5754   1.468   0.663   1.625 -0.1287 -1.5983 -2.1571
  251DG      H5 5755   1.305   0.719   1.646 -1.5123  0.1041 -0.3217
  251DG      H6 5756   0.784   0.214   1.526  1.6915 -1.1291  0.7620
  251DG      H7 5757   0.798   0.044   1.566 -1.6646 -0.1971  1.4008
  251DG      H8 5758   0.748   0.152   1.683 -3.9648 -0.9767 -2.4818
  251DG      O9 5759   1.325   0.523   1.645 -0.1760 -0.0762  0.3348
  251DG     O10 5760   0.957   0.163   1.641 -0.0145  0.3486  0.4701
  251DG     C11 5761   1.405   0.419   1.604 -0.4770 -0.5944  0.5248
  251DG     C12 5762   1.052   0.117   1.546  0.3971 -0.1227  0.0186
  251DG     H13 5763   1.506   0.442   1.639  0.0029  3.0745  4.4908
  251DG     H14 5764   1.411   0.412   1.494  1.7694 -2.2847 -3.0112
  251DG     H15 5765   1.048   0.185   1.463  0.3566  0.3593  0.5210
  251DG     H16 5766   1.021   0.025   1.512  1.3398  0.5653 -0.2351
  251DG     C17 5767   1.360   0.276   1.656 -0.4042 -0.1116  0.0444
  251DG     C18 5768   1.197   0.118   1.604  0.1010  0.2100 -0.8730
  251DG     O19 5769   1.235   0.251   1.593  0.5524  0.0752 -0.1101
  251DG     H20 5770   1.345   0.274   1.762 -1.5477 -0.4107 -0.2328
  251DG     H21 5771   1.427   0.188   1.629 -0.2711 -1.3285 -0.9594
  251DG     H22 5772   1.183   0.099   1.711 -1.1441 -0.6645 -2.1524
  251DG     H23 5773   1.272   0.052   1.573 -0.0307  0.7892 -0.5717
  252DG      C1 5774   3.492   3.297   0.265  0.6638  0.2727 -0.5618
  252DG      C2 5775   4.198   3.008   0.299  0.2046  0.2015 -0.5164
  252DG      H3 5776   3.399   3.277   0.218  0.9257  1.2697 -2.3241
  252DG      H4 5777   3.522   3.405   0.253 -1.0131  1.2897 -1.0063
  252DG      H5 5778   3.494   3.287   0.372 -0.9974 -1.9598  1.0970
  252DG      H6 5779   4.206   3.006   0.410  1.3537 -0.9340 -0.7120
  252DG      H7 5780   4.254   2.927   0.257  0.4300  0.9055 -0.2416
  252DG      H8 5781   4.238   3.106   0.278 -0.3421 -0.9711  3.3459
  252DG      O9 5782   3.598   3.225   0.199 -0.0010 -0.1700 -0.3274
  252DG     O10 5783   4.061   3.003   0.268  0.0542 -0.0037 -0.3145
  252DG     C11 5784   3.563   3.091   0.202  0.1881  0.3923 -0.2908
  252DG     C12 5785   4.039   3.050   0.132  0.0232 -0.2008 -0.4946
  252DG     H13 5786   3.457   3.065   0.171  1.7120  1.5768 -0.2684
  252DG     H14 5787   3.573   3.060   0.305  1.3547  1.6329 -1.6648
  252DG     H15 5788   4.115   3.012   0.059  0.1419  1.5128  0.6022
  252DG     H16 5789   4.055   3.155   0.129 -0.3978  0.8730  1.5271
  252DG     C17 5790   3.658   3.009   0.115  0.1628 -0.5297  0.6701
  252DG     C18 5791   3.904   2.994   0.079  0.5567  0.1112 -0.5349
  252DG     O19 5792   3.788   3.034   0.162  0.4698  0.2521 -0.8084
  252DG     H20 5793   3.654   3.040   0.015  1.0197 -1.8486 -0.5619
  252DG     H21 5794   3.639   2.907   0.112 -1.7358  1.7874 -1.3564
  252DG     H22 5795   3.882   3.034  -0.021 -0.9910 -0.2055 -1.6831
  252DG     H23 5796   3.904   2.893   0.055  3.3486 -0.8749 -0.6391
  253DG      C1 5797   3.382   1.267   3.893  0.3371  0.4786  0.1554
  253DG      C2 5798   3.135   1.627   3.419  0.0511 -0.4559  0.4172
  253DG      H3 5799   3.421   1.255   3.994 -0.1802 -1.5706 -3.0305
  253DG      H4 5800   3.410   1.174   3.839 -2.0395 -0.3481  1.4880
  253DG      H5 5801   3.275   1.269   3.908  1.1962 -1.2987 -1.3730
  253DG      H6 5802   3.158   1.573   3.327 -0.3636  1.0084  0.3869
  253DG      H7 5803   3.061   1.568   3.469 -2.4360 -1.6651 -0.9332
  253DG      H8 5804   3.096   1.723   3.384  1.6462 -1.4869 -1.1980
  253DG      O9 5805   3.414   1.392   3.832  0.0224 -0.5506 -0.1221
  253DG     O10 5806   3.235   1.652   3.510 -0.2954 -0.0041 -0.2470
  253DG     C11 5807   3.549   1.426   3.826 -0.2415  0.1111 -0.5633
  253DG     C12 5808   3.365   1.703   3.469 -0.1052  0.4611 -0.2186
  253DG     H13 5809   3.595   1.353   3.762 -0.3193  3.0253  0.0598
  253DG     H14 5810   3.585   1.429   3.930 -1.3051 -0.7577  1.3174
  253DG     H15 5811   3.374   1.795   3.417  0.2342 -0.1154 -0.5155
  253DG     H16 5812   3.403   1.629   3.395 -0.4039 -0.6615 -2.2110
  253DG     C17 5813   3.540   1.566   3.772  0.1632 -0.0257  0.5593
  253DG     C18 5814   3.472   1.698   3.583 -0.4859 -0.0408 -1.2101
  253DG     O19 5815   3.458   1.576   3.655  0.2436 -0.3665  0.1935
  253DG     H20 5816   3.647   1.594   3.755 -0.9759  1.2730  4.1417
  253DG     H21 5817   3.512   1.643   3.835  0.2053  2.5816 -2.3962
  253DG     H22 5818   3.577   1.713   3.558  3.4031 -1.2306 -0.1238
  253DG     H23 5819   3.461   1.788   3.642  0.4346 -0.1378 -0.6913
  254DG      C1 5820   4.284   2.203   5.190 -0.4276  0.0659 -0.0538
  254DG      C2 5821   4.522   2.067   4.598 -0.0618 -0.5238 -0.3476
  254DG      H3 5822   4.262   2.270   5.269  0.5284 -0.6374 -1.3958
  254DG      H4 5823   4.389   2.172   5.212  1.3734  0.7441  1.0568
  254DG      H5 5824   4.223   2.106   5.193  0.1959 -2.3720  2.0413
  254DG      H6 5825   4.617   2.102   4.643  0.1209 -0.7047  3.6835
  254DG      H7 5826   4.486   1.980   4.655 -0.3142  0.2170  1.7707
  254DG      H8 5827   4.520   2.060   4.488 -1.5926 -0.4573 -1.9432
  254DG      O9 5828   4.268   2.255   5.064 -0.1195 -0.4204 -0.2470
  254DG     O10 5829   4.431   2.168   4.644  0.3993  0.6178  0.0149
  254DG     C11 5830   4.139   2.288   5.027  0.4775  0.0667  0.6618
  254DG     C12 5831   4.298   2.145   4.613  0.4525  0.7055 -0.1239
  254DG     H13 5832   4.099   2.371   5.090 -0.3955  0.4859 -4.3656
  254DG     H14 5833   4.072   2.201   5.036  0.5706  0.8181 -0.7948
  254DG     H15 5834   4.262   2.045   4.634  0.1408  0.0473  1.1022
  254DG     H16 5835   4.287   2.148   4.502 -2.1250 -1.6443  0.1055
  254DG     C17 5836   4.138   2.329   4.881  0.0343  0.0091 -0.3070
  254DG     C18 5837   4.215   2.258   4.671  0.4831  0.5136 -0.2672
  254DG     O19 5838   4.220   2.237   4.810 -0.0437 -0.0802 -0.6031
  254DG     H20 5839   4.170   2.431   4.875  2.5274 -0.8099 -0.6663
  254DG     H21 5840   4.026   2.326   4.854  0.2272 -0.3853  2.1026
  254DG     H22 5841   4.245   2.357   4.647 -0.9419 -1.0375  0.4354
  254DG     H23 5842   4.116   2.252   4.626  0.3334  0.6514 -1.2088
  255DG      C1 5843   0.657   1.600   3.402 -0.1186 -0.6589  0.4047
  255DG      C2 5844   0.586   1.206   4.185 -0.1623  0.0487 -0.4958
  255DG      H3 5845   0.727   1.624   3.320 -0.4033 -2.2161 -2.2161
  255DG      H4 5846   0.574   1.667   3.408 -0.8081  1.8600 -0.5771
  255DG      H5 5847   0.610   1.511   3.371 -2.7688 -0.4369 -0.0154
  255DG      H6 5848   0.581   1.105   4.151 -1.5457 -0.7410 -0.6243
  255DG      H7 5849   0.627   1.212   4.291  1.3510  1.2173  0.5254
  255DG      H8 5850   0.487   1.244   4.181 -0.2022  0.8303 -1.2323
  255DG      O9 5851   0.719   1.577   3.524  0.1315 -0.4466  0.1878
  255DG     O10 5852   0.672   1.278   4.096 -0.6631 -0.5043  0.4008
  255DG     C11 5853   0.644   1.506   3.616  0.1197  0.1121  0.3008
  255DG     C12 5854   0.675   1.422   4.115  0.1742  0.3866 -0.3331
  255DG     H13 5855   0.596   1.417   3.577  2.3760  1.7139 -0.8584
  255DG     H14 5856   0.550   1.553   3.642 -0.3150  2.6546  3.2636
  255DG     H15 5857   0.744   1.434   4.195 -4.0637  0.8693 -1.3762
  255DG     H16 5858   0.572   1.457   4.141  0.0265  1.4670 -1.2761
  255DG     C17 5859   0.730   1.503   3.745 -0.3336  0.4184 -0.1939
  255DG     C18 5860   0.728   1.500   3.991  0.5814 -0.1015 -1.0540
  255DG     O19 5861   0.658   1.483   3.869  0.4508 -0.2234  0.6660
  255DG     H20 5862   0.782   1.596   3.754  0.7518  3.4512 -0.8365
  255DG     H21 5863   0.807   1.418   3.746 -0.0908 -1.1317 -0.1525
  255DG     H22 5864   0.723   1.606   4.016 -0.3543 -0.0479  0.9121
  255DG     H23 5865   0.831   1.467   3.979  2.4338 -0.9344 -0.9515
  256DG      C1 5866   4.841   0.824   0.928 -0.2422  0.0937  0.0756
  256DG      C2 5867   5.367   0.120   1.181 -0.3575 -0.2596 -0.2547
  256DG      H3 5868   4.935   0.874   0.948 -0.3405 -1.6113 -1.0095
  256DG      H4 5869   4.767   0.883   0.974  1.9651 -1.3186 -0.2505
  256DG      H5 5870   4.809   0.829   0.822 -0.4844  0.7357 -0.9476
  256DG      H6 5871   5.373   0.086   1.080  2.9114 -4.1705 -0.3323
  256DG      H7 5872   5.442   0.202   1.192 -2.3319  2.3154  1.5735
  256DG      H8 5873   5.401   0.048   1.259 -1.5492 -0.5231 -1.1566
  256DG      O9 5874   4.844   0.696   0.989 -0.0578 -0.3625 -0.1807
  256DG     O10 5875   5.241   0.167   1.211  0.0088  0.3901 -0.3731
  256DG     C11 5876   4.914   0.600   0.913 -0.5847  0.2851 -0.1372
  256DG     C12 5877   5.217   0.281   1.134 -0.3246  0.2205  0.4062
  256DG     H13 5878   5.015   0.640   0.881  3.1864  4.7166 -2.7218
  256DG     H14 5879   4.854   0.581   0.825  0.1119  1.1988  0.4814
  256DG     H15 5880   5.249   0.258   1.029  1.4534 -0.7856 -0.2634
  256DG     H16 5881   5.279   0.359   1.176  4.1651  1.8343  0.0703
  256DG     C17 5882   4.924   0.475   1.008  0.4254  0.5296 -0.2513
  256DG     C18 5883   5.066   0.330   1.141 -0.0049  0.1864  0.2824
  256DG     O19 5884   5.055   0.446   1.056  0.1635 -0.5619  0.4029
  256DG     H20 5885   4.877   0.395   0.949 -1.0468  0.2755  0.1722
  256DG     H21 5886   4.858   0.488   1.099  0.8119  1.0945  1.1483
  256DG     H22 5887   4.993   0.249   1.113 -0.9558 -1.1983  0.9349
  256DG     H23 5888   5.048   0.356   1.252 -0.0642  2.5594  1.2968
  257DG      C1 5889   5.228   1.047   1.590 -0.0394 -0.8791  0.2029
  257DG      C2 5890   5.673   1.398   1.988  0.3759 -0.5566 -0.3333
  257DG      H3 5891   5.197   0.975   1.665 -1.8548 -1.8636  0.7846
  257DG      H4 5892   5.226   1.016   1.484  1.3213  0.2291 -0.9950
  257DG      H5 5893   5.149   1.125   1.598 -2.2326 -1.6487  1.3029
  257DG      H6 5894   5.696   1.309   2.048 -1.6461  0.1026 -0.1793
  257DG      H7 5895   5.767   1.456   1.993 -0.4618 -0.3625  1.8313
  257DG      H8 5896   5.597   1.441   2.045  1.1949 -1.2914 -1.6633
  257DG      O9 5897   5.357   1.097   1.616  0.7046  0.1802 -0.3736
  257DG     O10 5898   5.647   1.354   1.857 -0.3019 -0.1284 -0.1968
  257DG     C11 5899   5.453   0.995   1.587 -0.1513 -0.0350  0.1534
  257DG     C12 5900   5.759   1.316   1.779 -0.4342 -0.8774  0.4967
  257DG     H13 5901   5.431   0.948   1.487 -1.9095 -1.5560 -2.5492
  257DG     H14 5902   5.459   0.921   1.668 -0.1267 -0.1413 -1.7985
  257DG     H15 5903   5.819   1.253   1.851  1.6268 -1.1495  1.9988
  257DG     H16 5904   5.826   1.399   1.748  0.7959  0.3904 -0.6102
  257DG     C17 5905   5.591   1.058   1.569  0.3445 -0.0016  0.4380
  257DG     C18 5906   5.717   1.241   1.648 -0.2703 -0.6910  0.0052
  257DG     O19 5907   5.617   1.144   1.678 -0.3357  0.2087  0.4954
  257DG     H20 5908   5.592   1.117   1.482  0.6123  1.6513 -1.7319
  257DG     H21 5909   5.668   0.980   1.549 -1.0368 -1.8038 -0.8520
  257DG     H22 5910   5.674   1.320   1.583 -0.5415  0.7260  0.0283
  257DG     H23 5911   5.800   1.209   1.587 -0.0596  1.8025  1.3333
  258DG      C1 5912   2.207   0.436   2.476  0.3585  0.2069 -0.1279
  258DG      C2 5913   2.317  -0.161   2.126  1.0548 -0.0830  0.5009
  258DG      H3 5914   2.169   0.489   2.561 -1.4498 -0.7613 -1.1187
  258DG      H4 5915   2.129   0.418   2.398 -0.7325 -1.1474 -2.6072
  258DG      H5 5916   2.273   0.504   2.435 -2.0509 -1.4142  0.7439
  258DG      H6 5917   2.335  -0.272   2.131 -0.6581 -3.6414  1.6527
  258DG      H7 5918   2.229  -0.139   2.068  2.7427  0.8380 -1.3523
  258DG      H8 5919   2.400  -0.120   2.070 -1.6508  1.1428  1.4662
  258DG      O9 5920   2.280   0.317   2.508  0.4403 -0.1158  0.2127
  258DG     O10 5921   2.304  -0.119   2.265 -0.0982  0.1032  0.1356
  258DG     C11 5922   2.195   0.215   2.558 -0.0518 -0.0561  0.3585
  258DG     C12 5923   2.423  -0.120   2.343  0.1592 -0.7336  0.2245
  258DG     H13 5924   2.108   0.192   2.499 -2.0628 -0.1767  2.4122
  258DG     H14 5925   2.164   0.246   2.661  0.7395  0.2269  2.6916
  258DG     H15 5926   2.492  -0.044   2.306 -0.7683 -1.2531 -0.4443
  258DG     H16 5927   2.471  -0.215   2.324  0.2218 -1.6674  1.4427
  258DG     C17 5928   2.267   0.085   2.593  0.4941  0.1985  0.0225
  258DG     C18 5929   2.398  -0.087   2.485  0.0238 -0.0132 -0.1270
  258DG     O19 5930   2.326   0.036   2.475  0.0174  0.4235  0.3989
  258DG     H20 5931   2.187   0.013   2.619  1.0444  0.7136 -0.6413
  258DG     H21 5932   2.334   0.089   2.681  0.5937 -1.2098  0.7483
  258DG     H22 5933   2.333  -0.171   2.516 -3.1678 -0.2097  0.1871
  258DG     H23 5934   2.491  -0.081   2.544  0.9470 -5.0085 -1.3329
  259DG      C1 5935   4.263   5.359   0.158 -0.2542 -0.1313  0.4675
  259DG      C2 5936   4.276   5.387   0.811  0.1180 -0.3871 -0.1311
  259DG      H3 5937   4.236   5.266   0.201 -1.4496 -1.1608 -2.6516
  259DG      H4 5938   4.365   5.351   0.109  1.7506  0.0229  1.6967
  259DG      H5 5939   4.180   5.360   0.087  0.4060 -0.3925  2.0907
  259DG      H6 5940   4.221   5.404   0.899 -0.0330  2.0214  0.4193
  259DG      H7 5941   4.188   5.367   0.743  1.5414  2.1634 -0.4308
  259DG      H8 5942   4.337   5.298   0.818  3.9037 -0.2886  0.0996
  259DG      O9 5943   4.267   5.474   0.236 -0.2533 -0.1132 -0.1759
  259DG     O10 5944   4.368   5.489   0.765 -0.5321  0.4187 -0.0055
  259DG     C11 5945   4.373   5.469   0.334 -0.1603 -0.1371  0.6054
  259DG     C12 5946   4.309   5.614   0.738 -0.1584 -0.1534 -0.0312
  259DG     H13 5947   4.466   5.496   0.286 -1.4580  0.9710 -2.6203
  259DG     H14 5948   4.393   5.369   0.371  0.1827  0.0888  0.6582
  259DG     H15 5949   4.393   5.676   0.708  3.7072 -3.3513 -1.2226
  259DG     H16 5950   4.269   5.651   0.839  1.9303  3.4991  1.1313
  259DG     C17 5951   4.353   5.563   0.443 -0.3688 -0.3423  0.1446
  259DG     C18 5952   4.203   5.624   0.619  0.1688  0.1282  0.0503
  259DG     O19 5953   4.243   5.531   0.520  0.2149  0.4192 -0.1602
  259DG     H20 5954   4.340   5.668   0.409  0.8363  0.9310  0.7143
  259DG     H21 5955   4.448   5.560   0.497 -0.0681  1.1434 -1.7100
  259DG     H22 5956   4.106   5.584   0.656  1.0342  0.4833  1.7826
  259DG     H23 5957   4.190   5.717   0.566 -0.3330  0.2066  0.8100
  260DG      C1 5958   2.393   1.136   0.250 -0.2717 -0.5596 -0.4782
  260DG      C2 5959   2.632   2.002   0.474 -0.1475 -0.1844 -0.5484
  260DG      H3 5960   2.326   1.056   0.273 -2.7246 -0.1460 -2.2340
  260DG      H4 5961   2.496   1.103   0.220 -1.8599 -3.9955 -0.0814
  260DG      H5 5962   2.347   1.168   0.160  3.1406  1.3544  1.8013
  260DG      H6 5963   2.739   2.016   0.494 -0.8837  0.4268  2.4232
  260DG      H7 5964   2.628   2.010   0.368  1.5521 -0.6615  1.1237
  260DG      H8 5965   2.568   2.084   0.511  0.4382 -1.8527 -0.6442
  260DG      O9 5966   2.403   1.241   0.345 -0.3704  0.3451 -0.2415
  260DG     O10 5967   2.584   1.881   0.518  0.1640 -0.0813 -0.0311
  260DG     C11 5968   2.494   1.332   0.308 -0.0414 -0.6186  0.2437
  260DG     C12 5969   2.628   1.772   0.446 -1.0251 -1.4384 -0.2372
  260DG     H13 5970   2.465   1.386   0.221 -2.5690 -2.7087  2.8269
  260DG     H14 5971   2.597   1.299   0.308  0.2548 -0.9613  0.6430
  260DG     H15 5972   2.740   1.761   0.454 -0.6095 -0.0123 -2.7440
  260DG     H16 5973   2.602   1.784   0.339 -1.3065  0.9801 -1.0020
  260DG     C17 5974   2.484   1.438   0.420  0.3125  0.5929  0.1521
  260DG     C18 5975   2.566   1.641   0.497 -0.3791  0.6753  0.6652
  260DG     O19 5976   2.581   1.541   0.404  0.2236  0.0170 -0.3136
  260DG     H20 5977   2.491   1.388   0.516 -1.2763  2.4211  1.5796
  260DG     H21 5978   2.383   1.478   0.406 -1.8863 -0.4830 -0.6956
  260DG     H22 5979   2.615   1.595   0.586 -0.6616 -2.4148  0.4803
  260DG     H23 5980   2.459   1.670   0.521 -2.4787  0.5033  0.7744
  261DG      C1 5981   1.658   1.586   0.593  0.1787 -0.3205  0.4788
  261DG      C2 5982   1.981   1.950   0.174 -0.3484  0.1322  0.4434
  261DG      H3 5983   1.651   1.536   0.688  3.2760 -2.2031 -1.9271
  261DG      H4 5984   1.686   1.516   0.520  0.3715  4.9761 -0.5590
  261DG      H5 5985   1.560   1.613   0.560 -0.9063  1.4354 -1.2577
  261DG      H6 5986   1.889   1.956   0.121  0.4393  0.4635  0.8291
  261DG      H7 5987   2.054   2.017   0.126 -2.1503 -0.9755 -1.8954
  261DG      H8 5988   2.006   1.841   0.160 -1.1422 -0.9335  2.3330
  261DG      O9 5989   1.734   1.704   0.594  0.3086  0.4182 -0.0087
  261DG     O10 5990   1.957   1.959   0.314 -0.3764  0.2925  0.2752
  261DG     C11 5991   1.689   1.794   0.696  0.0636 -0.0079 -0.1296
  261DG     C12 5992   1.857   2.050   0.344  0.0848  0.0001  0.2473
  261DG     H13 5993   1.726   1.758   0.787  0.7087  1.9588 -2.5821
  261DG     H14 5994   1.579   1.790   0.709 -0.4855  1.5924 -1.1245
  261DG     H15 5995   1.770   2.027   0.282 -2.0131 -0.3803 -0.8516
  261DG     H16 5996   1.896   2.148   0.313  0.6515  1.7554  1.5470
  261DG     C17 5997   1.745   1.932   0.671  0.4504  0.7507 -0.6181
  261DG     C18 5998   1.847   2.054   0.500 -0.4572 -0.1463  0.4277
  261DG     O19 5999   1.776   1.935   0.532  0.0112 -0.4942  0.2707
  261DG     H20 6000   1.839   1.939   0.720 -0.7715  0.4705 -0.4392
  261DG     H21 6001   1.686   2.007   0.720 -0.7491 -1.1381  1.1910
  261DG     H22 6002   1.938   2.049   0.551 -1.7508 -0.9389 -0.5336
  261DG     H23 6003   1.795   2.142   0.539  0.8008 -3.6685  1.7150
  262DG      C1 6004   4.046   3.776   2.431 -0.3539  0.5885 -0.0752
  262DG      C2 6005   3.605   4.175   2.187  0.4981 -0.2888 -0.7069
  262DG      H3 6006   4.088   3.795   2.535 -0.0204 -0.7576 -2.0006
  262DG      H4 6007   4.109   3.709   2.379 -1.3370 -0.0608  1.1955
  262DG      H5 6008   3.946   3.732   2.439  0.5389 -0.7738 -0.0287
  262DG      H6 6009   3.575   4.223   2.097  0.7012  2.1243 -0.1924
  262DG      H7 6010   3.552   4.078   2.195 -2.3973  1.0478 -1.2249
  262DG      H8 6011   3.563   4.236   2.272 -0.9596 -0.7565  3.0429
  262DG      O9 6012   4.034   3.899   2.368  0.4210 -0.0849  0.4767
  262DG     O10 6013   3.748   4.154   2.180  0.4510  0.5388 -0.0440
  262DG     C11 6014   4.150   3.979   2.357  0.8805  0.4600  1.0480
  262DG     C12 6015   3.811   4.281   2.202  0.3230  0.0983 -0.8406
  262DG     H13 6016   4.219   3.912   2.319  1.4841  0.5762  0.3064
  262DG     H14 6017   4.178   4.023   2.458 -1.2450 -1.2453  3.4817
  262DG     H15 6018   3.774   4.310   2.299  2.4991  2.5960  3.8817
  262DG     H16 6019   3.791   4.366   2.137 -1.7744  0.8946 -0.5766
  262DG     C17 6020   4.117   4.092   2.258 -0.4700 -0.2265 -0.2799
  262DG     C18 6021   3.961   4.260   2.199 -0.1700 -0.6796  0.0203
  262DG     O19 6022   3.991   4.154   2.287 -0.1776  0.3465 -0.2062
  262DG     H20 6023   4.108   4.048   2.155 -0.3356  0.6615 -1.3968
  262DG     H21 6024   4.202   4.155   2.254  1.7839  0.1133 -0.5548
  262DG     H22 6025   3.991   4.235   2.101  1.0898  3.3077 -1.2320
  262DG     H23 6026   4.015   4.356   2.211  1.9337  0.2464 -1.3463
  263DG      C1 6027   2.456   3.024   3.989 -0.3933 -0.4168  0.3586
  263DG      C2 6028   2.087   2.651   3.651  0.3368  0.0034  0.3492
  263DG      H3 6029   2.512   2.931   3.976  0.1209 -0.5936 -0.3758
  263DG      H4 6030   2.387   3.022   4.071 -0.2202 -0.1423 -2.1383
  263DG      H5 6031   2.538   3.092   4.021  2.2321  0.2877 -0.7819
  263DG      H6 6032   2.142   2.598   3.722  1.0503  2.5252  0.8320
  263DG      H7 6033   1.982   2.611   3.662 -1.6584 -0.0036  0.4104
  263DG      H8 6034   2.119   2.618   3.551  0.1976 -0.1096  3.6160
  263DG      O9 6035   2.385   3.052   3.869 -0.8154 -0.3041 -0.7818
  263DG     O10 6036   2.124   2.790   3.668 -0.1029 -0.5829 -0.0048
  263DG     C11 6037   2.294   3.156   3.868 -0.4195 -0.1691  0.2017
  263DG     C12 6038   2.068   2.869   3.569  0.3511  0.3350  0.0769
  263DG     H13 6039   2.337   3.255   3.897  0.1374 -1.5764  1.0216
  263DG     H14 6040   2.212   3.136   3.942 -1.0767 -2.0229 -0.0844
  263DG     H15 6041   1.964   2.876   3.589  1.6716 -0.8336  3.6960
  263DG     H16 6042   2.089   2.834   3.463  0.5745 -0.4576  2.3014
  263DG     C17 6043   2.242   3.155   3.726  0.2376  0.4918 -0.4009
  263DG     C18 6044   2.117   3.008   3.580 -0.6119 -0.3680 -0.0575
  263DG     O19 6045   2.168   3.029   3.707  0.4377  0.8978  0.1588
  263DG     H20 6046   2.325   3.158   3.650  0.3781  2.7708 -2.9507
  263DG     H21 6047   2.182   3.241   3.701  3.4931 -0.9110  1.3130
  263DG     H22 6048   2.198   3.028   3.510  2.5243  1.5485 -0.8425
  263DG     H23 6049   2.034   3.079   3.564 -1.7481  1.1562 -1.3878
  264DG      C1 6050   3.950   3.263   2.931 -0.3342 -0.2055 -0.1507
  264DG      C2 6051   4.340   3.923   3.112 -0.6728 -0.4317 -0.4064
  264DG      H3 6052   3.845   3.231   2.926  0.6165  0.4357  1.5701
  264DG      H4 6053   4.005   3.167   2.935  0.3774  1.8371 -1.4279
  264DG      H5 6054   3.965   3.326   2.841 -0.6970  2.2784  0.4011
  264DG      H6 6055   4.416   3.877   3.046  1.8496 -0.0663 -4.8221
  264DG      H7 6056   4.312   4.016   3.073 -1.4530  3.3401 -1.4248
  264DG      H8 6057   4.394   3.956   3.204 -0.3108 -0.9190 -1.9723
  264DG      O9 6058   3.985   3.324   3.062  0.5460 -0.1334 -0.0422
  264DG     O10 6059   4.232   3.842   3.147 -0.0042 -0.4738  0.0182
  264DG     C11 6060   3.901   3.433   3.104 -0.0444 -0.0991  0.5067
  264DG     C12 6061   4.271   3.709   3.170 -0.3101  0.5769  0.4049
  264DG     H13 6062   3.828   3.380   3.163  1.9665  4.3195 -1.2074
  264DG     H14 6063   3.870   3.476   3.013  0.3682 -0.5258 -0.0647
  264DG     H15 6064   4.353   3.717   3.243 -1.3213  0.4984  0.2769
  264DG     H16 6065   4.323   3.666   3.086 -1.5530  4.4082 -1.3826
  264DG     C17 6066   3.964   3.529   3.201  0.4903  0.7705  0.2402
  264DG     C18 6067   4.167   3.622   3.237 -0.4710  0.4528  0.2537
  264DG     O19 6068   4.079   3.571   3.143 -0.7767  0.1273  1.0875
  264DG     H20 6069   3.974   3.483   3.298 -0.5878 -0.3947 -2.8849
  264DG     H21 6070   3.907   3.625   3.195 -0.0906 -0.3146 -1.3040
  264DG     H22 6071   4.215   3.540   3.282 -0.6394  2.2964 -1.0668
  264DG     H23 6072   4.109   3.686   3.301 -1.8670  1.8708  1.8707
  265DG      C1 6073   3.071   0.854   3.770  0.2128  0.4965  0.2227
  265DG      C2 6074   2.953   1.338   3.195  0.2683  0.4463 -0.0421
  265DG      H3 6075   3.169   0.894   3.763  0.6918  0.5785 -2.5495
  265DG      H4 6076   3.076   0.746   3.794 -0.7334  1.5601  0.9510
  265DG      H5 6077   3.025   0.904   3.856  1.4895  2.7459  0.2040
  265DG      H6 6078   2.901   1.356   3.109 -0.1832  2.1643  1.2640
  265DG      H7 6079   2.920   1.388   3.285 -1.4015 -3.5883  1.3878
  265DG      H8 6080   3.056   1.362   3.183 -2.6247 -0.8997 -0.1377
  265DG      O9 6081   2.980   0.871   3.661  0.0587  0.5526  0.0926
  265DG     O10 6082   2.948   1.205   3.224 -0.1231  0.2488  0.2710
  265DG     C11 6083   3.038   0.825   3.538 -0.1274  0.0248 -0.3159
  265DG     C12 6084   2.820   1.165   3.277  0.2425 -0.0928  0.4364
  265DG     H13 6085   3.063   0.717   3.540 -0.9269 -0.7498 -0.7739
  265DG     H14 6086   3.126   0.882   3.523 -0.1130 -0.0185  1.4137
  265DG     H15 6087   2.750   1.184   3.200  0.7732 -0.4915  0.4729
  265DG     H16 6088   2.777   1.224   3.359  0.2805 -0.4203  1.6114
  265DG     C17 6089   2.937   0.842   3.430 -0.0324 -0.1130  1.1565
  265DG     C18 6090   2.824   1.009   3.303  0.5612  0.5216  0.6122
  265DG     O19 6091   2.919   0.975   3.405  0.0710 -0.0169 -0.2198
  265DG     H20 6092   2.849   0.784   3.472  1.9315  0.8469 -0.8547
  265DG     H21 6093   2.954   0.796   3.336 -1.2535  1.0957  0.7574
  265DG     H22 6094   2.732   0.970   3.333  2.0260 -1.8038  2.4919
  265DG     H23 6095   2.846   0.961   3.204  1.1394 -0.6683  1.8357
  266DG      C1 6096   4.094   2.603   0.451  0.4224  0.1213  0.3829
  266DG      C2 6097   4.250   2.574   1.225 -0.6252 -0.2755  0.0460
  266DG      H3 6098   4.002   2.547   0.442 -0.9508 -0.1294 -2.4168
  266DG      H4 6099   4.181   2.535   0.448 -0.8753  0.5198  2.0405
  266DG      H5 6100   4.096   2.679   0.372  0.5617 -1.2873 -0.0842
  266DG      H6 6101   4.284   2.671   1.260  0.5076  0.4421  0.9857
  266DG      H7 6102   4.171   2.540   1.286 -0.9827 -1.6269 -2.2679
  266DG      H8 6103   4.323   2.487   1.236 -1.5756  0.1651  1.0996
  266DG      O9 6104   4.093   2.661   0.578 -0.0518  0.4913 -0.5814
  266DG     O10 6105   4.209   2.589   1.089 -0.0629 -0.4033 -0.8461
  266DG     C11 6106   4.220   2.730   0.608 -0.0068 -0.1242  0.3292
  266DG     C12 6107   4.106   2.688   1.071 -0.0288 -0.3658  0.1888
  266DG     H13 6108   4.250   2.808   0.539  2.2676  0.7617  1.3803
  266DG     H14 6109   4.295   2.656   0.618  0.6830 -1.2234 -0.4489
  266DG     H15 6110   4.085   2.738   1.163 -0.7076 -0.2906 -0.7596
  266DG     H16 6111   4.004   2.651   1.053 -1.9342  1.2568  1.6477
  266DG     C17 6112   4.190   2.804   0.738  0.7146 -0.1867  0.4462
  266DG     C18 6113   4.150   2.790   0.965 -0.4788  0.1101 -0.1383
  266DG     O19 6114   4.170   2.714   0.847 -0.4050  0.2683 -0.0732
  266DG     H20 6115   4.117   2.887   0.732  3.1911 -0.7982  2.9382
  266DG     H21 6116   4.278   2.863   0.770 -2.1063 -0.3926 -0.7394
  266DG     H22 6117   4.074   2.864   0.966 -3.0292 -0.9052  4.4154
  266DG     H23 6118   4.241   2.840   0.993  2.3421  1.3481  2.1725
  267DG      C1 6119   4.969   5.320   2.786 -0.3736 -0.0508  0.1676
  267DG      C2 6120   5.632   5.496   2.886  0.4330 -0.8263 -1.1468
  267DG      H3 6121   4.906   5.319   2.698  1.1993 -2.9057  2.0469
  267DG      H4 6122   4.896   5.347   2.866  2.6675 -2.1511  1.8441
  267DG      H5 6123   4.995   5.218   2.806 -0.7950 -1.6452 -0.9419
  267DG      H6 6124   5.731   5.522   2.853 -3.8021  0.6375  0.4438
  267DG      H7 6125   5.591   5.579   2.951  1.2043  2.4722 -0.4137
  267DG      H8 6126   5.643   5.400   2.934 -0.5501 -2.7818  0.6090
  267DG      O9 6127   5.074   5.408   2.785  0.3046  0.2485 -0.6203
  267DG     O10 6128   5.548   5.484   2.767  0.0554  0.3099  0.3352
  267DG     C11 6129   5.044   5.550   2.751 -0.1454  0.2661  1.0365
  267DG     C12 6130   5.519   5.603   2.692  0.0112  0.3746  0.8794
  267DG     H13 6131   4.965   5.592   2.806  0.2368 -3.8708 -2.3544
  267DG     H14 6132   5.013   5.559   2.647 -0.3420  2.2189  0.5765
  267DG     H15 6133   5.501   5.560   2.589  1.6981  1.0310  0.7297
  267DG     H16 6134   5.605   5.677   2.686 -1.4434  4.9447 -2.2042
  267DG     C17 6135   5.168   5.644   2.773  0.1134 -0.3027  0.0760
  267DG     C18 6136   5.397   5.673   2.732 -0.0381 -0.1537  0.6706
  267DG     O19 6137   5.288   5.579   2.727  0.3817  0.1625  0.4377
  267DG     H20 6138   5.191   5.662   2.875 -2.8034 -2.6668 -1.1441
  267DG     H21 6139   5.156   5.741   2.723  3.9506  1.2118 -3.0224
  267DG     H22 6140   5.418   5.709   2.837  0.5327 -0.3819  1.7949
  267DG     H23 6141   5.381   5.762   2.662  0.7903  2.1475 -2.5662
  268DG      C1 6142   3.254   2.581   3.288 -0.1241 -0.6647  0.7068
  268DG      C2 6143   3.418   2.662   4.022 -0.4547 -0.8964  0.2190
  268DG      H3 6144   3.250   2.470   3.284 -1.1677 -0.1180  1.4147
  268DG      H4 6145   3.258   2.619   3.192 -1.2487 -2.5149 -1.3788
  268DG      H5 6146   3.161   2.612   3.340  0.3977 -4.6720 -1.4124
  268DG      H6 6147   3.318   2.626   4.021  0.3850 -0.3727  1.8757
  268DG      H7 6148   3.491   2.584   4.055 -2.1925  0.0086  2.0118
  268DG      H8 6149   3.412   2.740   4.099 -2.1617  0.3689  1.2745
  268DG      O9 6150   3.359   2.621   3.375  0.5045  0.0250  0.1757
  268DG     O10 6151   3.458   2.715   3.903 -0.6321  0.1609  0.2090
  268DG     C11 6152   3.362   2.758   3.385  0.7414 -0.0383  0.0226
  268DG     C12 6153   3.485   2.612   3.809 -0.1265 -0.2310 -0.0882
  268DG     H13 6154   3.258   2.809   3.401 -3.7785  0.3416 -0.9067
  268DG     H14 6155   3.387   2.806   3.290 -0.8225  2.3316 -1.8210
  268DG     H15 6156   3.400   2.553   3.773 -1.4581 -1.0904 -1.2499
  268DG     H16 6157   3.563   2.545   3.852  0.0323 -1.0164  0.0943
  268DG     C17 6158   3.463   2.802   3.489  0.1224 -0.1601  0.0480
  268DG     C18 6159   3.540   2.690   3.686  0.5498 -0.4310 -0.3160
  268DG     O19 6160   3.433   2.765   3.625  0.5355  0.2379  0.2462
  268DG     H20 6161   3.462   2.910   3.490  0.5300  0.6460 -2.6661
  268DG     H21 6162   3.568   2.789   3.468  0.3492  0.8975 -0.5091
  268DG     H22 6163   3.628   2.739   3.727  0.0958  1.7066  1.8591
  268DG     H23 6164   3.577   2.619   3.614  1.9971 -1.8990 -1.1122
  269DG      C1 6165   2.415   2.866   4.885 -0.8266  0.2103  0.0098
  269DG      C2 6166   2.774   2.873   4.096 -0.0999 -0.2696 -0.6975
  269DG      H3 6167   2.450   2.955   4.932 -1.1559  0.8745 -0.3911
  269DG      H4 6168   2.401   2.789   4.960 -1.0870 -0.7455 -0.8838
  269DG      H5 6169   2.314   2.893   4.848 -1.2650  1.7745 -0.6729
  269DG      H6 6170   2.806   2.843   3.992 -3.9033 -2.5770  2.7665
  269DG      H7 6171   2.733   2.977   4.090 -3.4174 -0.1413  2.9278
  269DG      H8 6172   2.868   2.875   4.142  0.2006  1.4378 -0.4247
  269DG      O9 6173   2.504   2.834   4.777 -0.2408 -0.6901  0.3954
  269DG     O10 6174   2.685   2.783   4.163  0.2620 -0.0683  0.6782
  269DG     C11 6175   2.441   2.742   4.695 -0.0230 -0.3637  0.5229
  269DG     C12 6176   2.647   2.847   4.287 -0.4730 -0.0604  0.5502
  269DG     H13 6177   2.349   2.772   4.650  2.0546 -0.9353 -1.0150
  269DG     H14 6178   2.420   2.650   4.760  1.6803 -1.4270 -1.0380
  269DG     H15 6179   2.557   2.912   4.275 -1.6889  2.8035  2.2476
  269DG     H16 6180   2.723   2.906   4.337  0.5857 -1.4115  0.9305
  269DG     C17 6181   2.543   2.694   4.593 -0.2278  0.0561 -0.3671
  269DG     C18 6182   2.600   2.736   4.378 -0.4246  0.1660  0.6612
  269DG     O19 6183   2.575   2.794   4.501  0.6538 -0.5129 -0.3343
  269DG     H20 6184   2.498   2.601   4.554 -0.5161 -0.4422 -0.5726
  269DG     H21 6185   2.643   2.669   4.639  5.2674 -0.1031 -0.9724
  269DG     H22 6186   2.505   2.690   4.341 -0.0743 -0.3485  0.3744
  269DG     H23 6187   2.677   2.657   4.385 -1.6530 -0.7675  0.8131
  270DG      C1 6188   0.018   1.069   3.092  0.1818 -0.3853  0.1014
  270DG      C2 6189   0.692   1.276   3.156 -0.7757  0.2869 -0.4747
  270DG      H3 6190  -0.063   0.999   3.125  3.0926  3.6594  2.0815
  270DG      H4 6191   0.073   1.000   3.027 -0.4900 -1.3862 -3.5253
  270DG      H5 6192  -0.004   1.150   3.025  3.0648  1.5865  0.9033
  270DG      H6 6193   0.667   1.376   3.120 -0.4755  0.7194  0.4165
  270DG      H7 6194   0.802   1.278   3.180  0.8085 -0.6704  0.9799
  270DG      H8 6195   0.674   1.210   3.068  0.5909  2.1316 -0.6836
  270DG      O9 6196   0.113   1.112   3.189 -0.3015 -0.3829  0.2562
  270DG     O10 6197   0.609   1.244   3.265 -0.3761 -0.4084  0.3742
  270DG     C11 6198   0.132   1.026   3.303 -0.0611 -0.1012 -0.1157
  270DG     C12 6199   0.609   1.101   3.292  0.1810 -0.8586 -0.1286
  270DG     H13 6200   0.146   0.929   3.268  1.3300  2.0278  3.1732
  270DG     H14 6201   0.038   1.025   3.366 -2.9621  1.3469  1.6956
  270DG     H15 6202   0.706   1.063   3.320  0.1670 -0.5411 -0.5337
  270DG     H16 6203   0.587   1.062   3.193 -1.5716 -1.3015 -1.4847
  270DG     C17 6204   0.254   1.052   3.397  0.4435  0.4926  0.0170
  270DG     C18 6205   0.499   1.069   3.390 -0.2262  0.1327 -0.5571
  270DG     O19 6206   0.371   1.094   3.323  0.2954 -0.0945  0.2542
  270DG     H20 6207   0.279   0.958   3.449 -1.8402  2.0611  0.0541
  270DG     H21 6208   0.238   1.140   3.461  1.3950  2.4124  0.8615
  270DG     H22 6209   0.506   0.967   3.428  0.2084  0.2641  2.6388
  270DG     H23 6210   0.499   1.134   3.476 -2.1923  1.1864 -2.3864
  271DG      C1 6211   5.246   2.204   4.752 -0.1919  0.2849  0.6984
  271DG      C2 6212   5.500   2.118   5.292 -0.0332  0.8696  0.4454
  271DG      H3 6213   5.140   2.187   4.750  1.3995  1.5620 -1.8519
  271DG      H4 6214   5.282   2.166   4.845  0.4035 -1.6741  1.3084
  271DG      H5 6215   5.289   2.138   4.676  3.7090 -1.1345  0.5175
  271DG      H6 6216   5.488   2.161   5.395 -0.6424 -0.3552  0.9043
  271DG      H7 6217   5.426   2.045   5.273  1.0645 -2.7303 -0.4451
  271DG      H8 6218   5.608   2.090   5.308  0.4158 -1.9049  1.7175
  271DG      O9 6219   5.286   2.332   4.711  0.2567  0.2201  0.5489
  271DG     O10 6220   5.494   2.216   5.195 -0.3116 -0.0256  0.4224
  271DG     C11 6221   5.272   2.429   4.813  0.4939 -0.5830 -0.2258
  271DG     C12 6222   5.560   2.168   5.069  0.2095  0.2923 -0.2457
  271DG     H13 6223   5.204   2.415   4.899 -0.3734 -0.9978  3.7112
  271DG     H14 6224   5.244   2.517   4.758  0.5681  0.3503  1.5913
  271DG     H15 6225   5.507   2.082   5.035  0.5224  0.4757  1.1498
  271DG     H16 6226   5.657   2.124   5.091  2.0795 -0.6469 -1.2680
  271DG     C17 6227   5.420   2.445   4.872 -0.0613  0.2770 -0.1798
  271DG     C18 6228   5.568   2.270   4.959  0.5191 -1.2003  0.1827
  271DG     O19 6229   5.445   2.348   4.974  0.1148 -0.8563  0.3781
  271DG     H20 6230   5.434   2.534   4.928 -0.2048 -0.2631  1.2088
  271DG     H21 6231   5.494   2.439   4.795  1.1897  0.5896  0.4071
  271DG     H22 6232   5.649   2.337   4.987  1.9126 -1.0271  1.8293
  271DG     H23 6233   5.573   2.233   4.854 -0.7947  0.1544  0.3195
  272DG      C1 6234   1.057   0.758   5.191  0.9826 -0.0853  0.6579
  272DG      C2 6235   1.476   1.232   5.793 -0.0567 -0.3031 -0.0938
  272DG      H3 6236   0.957   0.712   5.210  1.3837 -0.0202  3.1655
  272DG      H4 6237   1.122   0.667   5.200  4.5209 -1.1100 -3.2063
  272DG      H5 6238   1.055   0.809   5.092 -0.7560 -0.0246  0.0625
  272DG      H6 6239   1.512   1.319   5.840 -1.7289 -2.1457  0.2195
  272DG      H7 6240   1.418   1.168   5.866 -0.9506 -1.1659 -0.0383
  272DG      H8 6241   1.567   1.183   5.752  1.2278 -2.4033 -0.5517
  272DG      O9 6242   1.091   0.853   5.296 -0.4240 -0.7032 -0.3973
  272DG     O10 6243   1.380   1.247   5.686 -0.0033  0.0485  0.2405
  272DG     C11 6244   1.000   0.959   5.321  0.3595 -0.0534  0.5840
  272DG     C12 6245   1.359   1.124   5.612 -0.7325 -0.6921  0.1249
  272DG     H13 6246   0.937   0.927   5.408 -0.1464 -0.4765  1.7205
  272DG     H14 6247   0.925   0.981   5.238  0.5891 -1.8322  0.8540
  272DG     H15 6248   1.323   1.049   5.679  1.6258 -3.0475 -1.4842
  272DG     H16 6249   1.441   1.077   5.556 -2.2506 -0.6077 -0.9044
  272DG     C17 6250   1.088   1.081   5.349  0.0802 -0.2018  0.2668
  272DG     C18 6251   1.250   1.166   5.506 -0.8226  0.0284 -0.6951
  272DG     O19 6252   1.200   1.058   5.435 -0.0187  0.0342 -0.4005
  272DG     H20 6253   1.018   1.153   5.383  1.1532 -1.3860 -0.2567
  272DG     H21 6254   1.128   1.129   5.265 -1.1441 -1.8186  2.7869
  272DG     H22 6255   1.173   1.221   5.555 -1.5613  1.0855  2.3162
  272DG     H23 6256   1.287   1.230   5.424  1.1396  1.4100 -0.3527
  273DG      C1 6257   4.140   4.990   0.667 -0.2664  0.6678 -0.6986
  273DG      C2 6258   4.093   4.372   1.158 -0.2927  0.3918 -0.6706
  273DG      H3 6259   4.234   4.953   0.714  1.6507  0.4049  0.3726
  273DG      H4 6260   4.119   5.096   0.676  1.8341 -1.5730  0.2930
  273DG      H5 6261   4.162   4.991   0.563  0.9349  1.2254  1.5070
  273DG      H6 6262   4.082   4.263   1.135  1.4547 -1.5608  0.1565
  273DG      H7 6263   4.203   4.376   1.166 -0.2477 -1.4559 -0.4534
  273DG      H8 6264   4.046   4.375   1.258  2.7176 -1.0249  0.4371
  273DG      O9 6265   4.025   4.905   0.686  0.5605  0.4025  0.0000
  273DG     O10 6266   4.029   4.443   1.055 -0.2158 -0.0303  0.4415
  273DG     C11 6267   4.024   4.846   0.818  0.1228 -0.1579  0.7977
  273DG     C12 6268   3.889   4.451   1.076  0.0040 -0.0398  0.1358
  273DG     H13 6269   3.989   4.921   0.884  0.4464 -1.4814 -3.0266
  273DG     H14 6270   4.128   4.814   0.837 -1.0919 -0.2205  1.5852
  273DG     H15 6271   3.868   4.503   1.174  1.5411 -0.2159 -0.3450
  273DG     H16 6272   3.835   4.357   1.062  0.8208  3.3960 -1.0731
  273DG     C17 6273   3.929   4.726   0.819  0.3663  0.9622 -0.6369
  273DG     C18 6274   3.851   4.551   0.964 -0.1047  0.3165 -0.5760
  273DG     O19 6275   3.935   4.663   0.948  0.2916 -0.3802 -0.5186
  273DG     H20 6276   3.960   4.650   0.749  1.3110 -0.4354 -0.9376
  273DG     H21 6277   3.821   4.754   0.794 -0.6257 -0.5409 -0.0365
  273DG     H22 6278   3.856   4.496   0.866  0.6927  0.7680  1.4875
  273DG     H23 6279   3.751   4.578   0.972  2.2978  2.3714 -0.4146
  274DG      C1 6280   0.274   4.899   4.687 -0.1681  0.2312  0.9721
  274DG      C2 6281   0.685   5.180   4.207 -0.1919  0.2039 -0.2762
  274DG      H3 6282   0.353   4.859   4.748  2.2363  2.1662  1.5363
  274DG      H4 6283   0.248   4.823   4.610  1.0554  1.0576  0.2936
  274DG      H5 6284   0.197   4.921   4.760 -0.6145  1.2679  2.9262
  274DG      H6 6285   0.680   5.272   4.152 -0.7875 -3.5504  0.3533
  274DG      H7 6286   0.781   5.130   4.213  0.4768  0.0894  0.6583
  274DG      H8 6287   0.622   5.119   4.139  1.4384  1.6260  0.2977
  274DG      O9 6288   0.324   5.014   4.634  0.1954 -0.3357 -0.1032
  274DG     O10 6289   0.621   5.178   4.334 -0.0122  0.0405  0.2882
  274DG     C11 6290   0.362   5.102   4.732  0.0365  0.1697  0.0375
  274DG     C12 6291   0.681   5.275   4.420 -0.5190  0.4446  0.0250
  274DG     H13 6292   0.444   5.051   4.791 -0.9860  0.5919 -0.1833
  274DG     H14 6293   0.272   5.111   4.797 -3.6563  0.1317  2.1838
  274DG     H15 6294   0.714   5.366   4.371  1.0298 -1.4951  2.1936
  274DG     H16 6295   0.774   5.234   4.456 -1.6337  1.4329 -3.6862
  274DG     C17 6296   0.404   5.239   4.676  0.3431  0.7805  0.8780
  274DG     C18 6297   0.584   5.314   4.535 -0.9371  0.4721  0.2846
  274DG     O19 6298   0.506   5.206   4.581 -0.4815  0.5816  0.3867
  274DG     H20 6299   0.443   5.308   4.754 -0.3041  0.5085  0.5011
  274DG     H21 6300   0.308   5.283   4.641  1.3315 -1.7465 -0.1864
  274DG     H22 6301   0.654   5.341   4.623  1.0700 -1.9679  2.3354
  274DG     H23 6302   0.527   5.413   4.507 -2.3385  2.6697  0.8180
  275DG      C1 6303   1.649   1.206   3.790 -0.4911  0.3895 -0.2597
  275DG      C2 6304   1.699   1.557   4.327 -0.2638  0.2484 -0.0847
  275DG      H3 6305   1.694   1.298   3.752 -0.2038  0.5403  0.9436
  275DG      H4 6306   1.546   1.222   3.769 -2.3767  0.1943  0.2366
  275DG      H5 6307   1.680   1.118   3.730  1.6937  0.7255 -0.9730
  275DG      H6 6308   1.778   1.531   4.259  0.8502  1.3936  1.1346
  275DG      H7 6309   1.667   1.649   4.285  1.1520 -2.9919  1.7477
  275DG      H8 6310   1.732   1.577   4.430  1.7238  0.4757 -0.6039
  275DG      O9 6311   1.668   1.202   3.936  0.2241 -0.4018 -0.3244
  275DG     O10 6312   1.592   1.464   4.308  0.2051 -0.4603 -0.6442
  275DG     C11 6313   1.612   1.093   4.006 -0.1960  0.1130  0.8258
  275DG     C12 6314   1.596   1.357   4.400 -0.4251  0.2645 -0.2486
  275DG     H13 6315   1.652   1.000   3.958 -1.7197 -0.1453 -0.3509
  275DG     H14 6316   1.500   1.092   4.005  0.6643 -3.6447  1.4497
  275DG     H15 6317   1.500   1.314   4.424  0.5969 -0.6002  1.6416
  275DG     H16 6318   1.634   1.382   4.495 -3.2507 -2.5193 -2.5801
  275DG     C17 6319   1.663   1.103   4.150 -0.4831  0.9847 -0.0192
  275DG     C18 6320   1.665   1.241   4.336 -0.0583  0.6194  0.0738
  275DG     O19 6321   1.604   1.215   4.210  0.1213  0.3326 -0.0736
  275DG     H20 6322   1.772   1.120   4.151 -1.2910 -0.2529 -0.0836
  275DG     H21 6323   1.654   1.005   4.205  0.0261 -2.4288 -3.7194
  275DG     H22 6324   1.766   1.261   4.311  0.1450 -0.4657 -0.2543
  275DG     H23 6325   1.668   1.152   4.404  0.8414 -1.1848  2.0745
  276DG      C1 6326   3.445   3.022   1.794 -0.6481  0.2556  0.5901
  276DG      C2 6327   3.503   3.334   1.144  0.0834 -0.1342 -0.2162
  276DG      H3 6328   3.502   3.064   1.871 -0.0217 -0.9912 -1.3290
  276DG      H4 6329   3.510   2.992   1.714  0.4748 -0.8533 -2.6340
  276DG      H5 6330   3.407   2.923   1.829  0.2618 -0.0257  3.2520
  276DG      H6 6331   3.432   3.406   1.107  0.8341  0.1801  0.5875
  276DG      H7 6332   3.572   3.389   1.210  5.0517  1.2408 -0.0032
  276DG      H8 6333   3.572   3.298   1.066 -0.1022 -2.2009 -0.8679
  276DG      O9 6334   3.339   3.098   1.748  0.4728 -0.2385  0.2444
  276DG     O10 6335   3.437   3.226   1.209 -0.1422  0.2047  0.0840
  276DG     C11 6336   3.245   3.031   1.660  0.0441  0.4153 -0.8269
  276DG     C12 6337   3.527   3.149   1.287  0.3525  0.5032 -0.1203
  276DG     H13 6338   3.174   3.112   1.632 -2.3840 -0.4516 -0.2261
  276DG     H14 6339   3.195   2.959   1.717  2.0502  2.9574  0.3174
  276DG     H15 6340   3.588   3.205   1.361 -1.8048  2.5903 -1.9065
  276DG     H16 6341   3.589   3.087   1.217 -0.4694 -1.8387 -0.9231
  276DG     C17 6342   3.299   2.972   1.529 -0.0739 -0.2859 -0.4054
  276DG     C18 6343   3.438   3.040   1.348 -0.6323 -0.2958  0.2569
  276DG     O19 6344   3.362   3.081   1.460 -0.5355 -0.2692 -0.7823
  276DG     H20 6345   3.217   2.943   1.464 -1.9250 -1.6201  0.7228
  276DG     H21 6346   3.363   2.882   1.552  0.9781 -0.9223  2.0995
  276DG     H22 6347   3.370   2.985   1.282 -1.5699 -0.2147  0.7415
  276DG     H23 6348   3.506   2.971   1.387 -0.9173  1.4284  2.1695
  277DG      C1 6349   0.275   3.184   1.233 -0.3763  0.4534  1.1647
  277DG      C2 6350   0.448   3.707   1.813  1.0706  0.0829 -0.7763
  277DG      H3 6351   0.184   3.230   1.249  1.8259 -0.7604 -1.3643
  277DG      H4 6352   0.254   3.083   1.268  0.0615 -0.0485  1.7926
  277DG      H5 6353   0.296   3.172   1.125  0.3614 -3.0701  2.7263
  277DG      H6 6354   0.422   3.624   1.874  0.6653 -0.5804  0.7416
  277DG      H7 6355   0.549   3.716   1.847  0.3909 -0.9992 -1.0869
  277DG      H8 6356   0.391   3.795   1.838  2.3074  1.6490  0.2706
  277DG      O9 6357   0.381   3.245   1.301 -0.2279  0.4491 -0.0312
  277DG     O10 6358   0.447   3.678   1.669 -0.5595  0.0035 -0.3613
  277DG     C11 6359   0.398   3.384   1.260  0.8974  0.1166  0.0587
  277DG     C12 6360   0.319   3.625   1.640 -0.4731 -0.7180  0.4448
  277DG     H13 6361   0.301   3.432   1.237 -3.6899  0.2985  0.4115
  277DG     H14 6362   0.450   3.378   1.167  1.2076  0.8029  0.3436
  277DG     H15 6363   0.245   3.695   1.663  1.2968  1.1449 -0.8434
  277DG     H16 6364   0.289   3.553   1.711 -1.9564 -2.5014 -0.2724
  277DG     C17 6365   0.478   3.480   1.349 -0.2904 -0.1533  0.0624
  277DG     C18 6366   0.324   3.561   1.504  0.0205  0.6057  0.0314
  277DG     O19 6367   0.440   3.481   1.485  0.1270 -0.0271 -0.0789
  277DG     H20 6368   0.480   3.577   1.300 -0.9932  1.1125 -0.3621
  277DG     H21 6369   0.582   3.444   1.348 -1.2104  1.1416  1.6558
  277DG     H22 6370   0.241   3.501   1.492  2.6336  1.1844 -3.7981
  277DG     H23 6371   0.305   3.638   1.434 -0.4708  0.4337 -1.0701
  278DG      C1 6372   1.581   1.482   3.081  0.3405  0.0957 -0.3032
  278DG      C2 6373   1.144   1.151   3.013  0.6392  0.0619 -0.7480
  278DG      H3 6374   1.512   1.494   3.172 -0.1088  0.3541 -0.1670
  278DG      H4 6375   1.629   1.583   3.078 -0.1780 -4.2738  0.0598
  278DG      H5 6376   1.660   1.412   3.096 -0.1102 -1.5622 -0.8764
  278DG      H6 6377   1.053   1.138   3.086 -3.2093  0.1798  0.4061
  278DG      H7 6378   1.199   1.053   3.015  0.6808 -0.2989  0.0452
  278DG      H8 6379   1.209   1.220   3.073 -0.0053  0.1294  2.0455
  278DG      O9 6380   1.513   1.461   2.958  0.0046 -0.1416 -0.2314
  278DG     O10 6381   1.108   1.206   2.884  0.1176 -0.1592 -0.0711
  278DG     C11 6382   1.429   1.573   2.928 -0.0185  0.4687 -0.6680
  278DG     C12 6383   1.050   1.335   2.887  0.0160 -0.2405 -0.0882
  278DG     H13 6384   1.485   1.662   2.911 -0.6290  0.6028 -0.6069
  278DG     H14 6385   1.368   1.592   3.017  0.8303  1.9194 -2.1473
  278DG     H15 6386   0.968   1.330   2.955  1.0635 -1.8114  0.7404
  278DG     H16 6387   1.002   1.345   2.788 -1.6561 -1.8444 -0.6021
  278DG     C17 6388   1.339   1.549   2.806  0.4126 -0.7841  0.8063
  278DG     C18 6389   1.150   1.444   2.907  0.1626 -0.6093  0.2857
  278DG     O19 6390   1.246   1.439   2.805 -0.2088  1.2211 -0.2125
  278DG     H20 6391   1.395   1.543   2.704  0.4406 -1.7502 -5.0999
  278DG     H21 6392   1.284   1.651   2.803  0.4649  0.0979 -0.8539
  278DG     H22 6393   1.096   1.536   2.904  0.7270 -0.4539  0.2421
  278DG     H23 6394   1.198   1.435   3.001  0.1804  2.0143  1.1435
  279DG      C1 6395   2.523   4.252   1.880 -0.5116  0.1529 -0.4079
  279DG      C2 6396   2.398   4.246   2.453 -0.1689  0.4164 -0.4481
  279DG      H3 6397   2.467   4.235   1.798 -0.5500  0.3551  0.0712
  279DG      H4 6398   2.615   4.196   1.860 -1.8158 -0.5953  1.7803
  279DG      H5 6399   2.539   4.354   1.884 -0.1826 -0.0472  2.1264
  279DG      H6 6400   2.414   4.346   2.493 -0.3104 -1.7748  1.7652
  279DG      H7 6401   2.435   4.177   2.534  0.8145 -4.7487  1.7558
  279DG      H8 6402   2.465   4.222   2.367 -0.4126 -1.1121  0.5121
  279DG      O9 6403   2.447   4.194   1.992 -0.3605  0.5353 -0.2189
  279DG     O10 6404   2.255   4.224   2.434  0.6569  0.2680  0.2901
  279DG     C11 6405   2.457   4.054   2.007 -0.1133  0.6099  0.2262
  279DG     C12 6406   2.213   4.088   2.415 -0.0909  0.7119 -0.3373
  279DG     H13 6407   2.549   4.027   2.054 -0.2460  2.5326 -0.1140
  279DG     H14 6408   2.475   4.010   1.910  1.5165 -1.1210  3.3409
  279DG     H15 6409   2.112   4.084   2.464 -0.6151 -2.6952  1.0200
  279DG     H16 6410   2.267   4.020   2.480  1.2523 -0.8209 -0.0497
  279DG     C17 6411   2.345   3.991   2.084  0.1640  0.3372 -0.2836
  279DG     C18 6412   2.207   4.046   2.267  0.1919 -0.1620  0.0510
  279DG     O19 6413   2.339   4.048   2.211 -0.1218 -0.0197  0.2554
  279DG     H20 6414   2.345   3.887   2.095 -0.0721 -0.0111 -1.5335
  279DG     H21 6415   2.254   4.021   2.034 -0.4968  3.0606  1.0240
  279DG     H22 6416   2.164   3.945   2.258 -1.7312 -0.8120  1.2108
  279DG     H23 6417   2.130   4.109   2.216 -0.7878 -0.7730 -2.1987
  280DG      C1 6418   4.502   4.990   0.949  0.3559 -0.0257 -0.7876
  280DG      C2 6419   4.924   4.897   1.555  0.2441  0.4458 -0.0236
  280DG      H3 6420   4.396   4.970   0.961  2.8008  1.9540 -0.6265
  280DG      H4 6421   4.550   4.955   1.032 -1.9378 -1.3796 -2.2517
  280DG      H5 6422   4.544   4.959   0.856  2.8108 -0.8891  1.3513
  280DG      H6 6423   4.969   4.924   1.650  2.7352 -0.5978  0.5662
  280DG      H7 6424   4.852   4.816   1.564 -0.3826  0.0872 -0.6552
  280DG      H8 6425   5.014   4.867   1.500  5.1382  0.0301  0.1021
  280DG      O9 6426   4.495   5.135   0.946  0.1145 -0.4350 -0.0331
  280DG     O10 6427   4.862   5.011   1.492 -0.2583  0.7075 -0.3760
  280DG     C11 6428   4.622   5.195   0.938  0.3457  0.4640  0.4933
  280DG     C12 6429   4.822   4.989   1.359 -0.6633  0.1460  0.2070
  280DG     H13 6430   4.601   5.297   0.901 -0.0632 -0.7707  1.4385
  280DG     H14 6431   4.694   5.151   0.875 -1.5036  1.5829 -0.4776
  280DG     H15 6432   4.752   4.901   1.359  0.8616 -0.0227  0.5955
  280DG     H16 6433   4.910   4.950   1.306 -2.0514 -1.1441  3.1173
  280DG     C17 6434   4.672   5.214   1.089 -0.3633 -0.9107  0.2740
  280DG     C18 6435   4.745   5.113   1.298 -0.0024  0.6253 -0.1170
  280DG     O19 6436   4.720   5.093   1.156  0.1111 -0.6949  0.2603
  280DG     H20 6437   4.585   5.258   1.134  0.7239 -4.5138  3.3700
  280DG     H21 6438   4.751   5.283   1.085 -0.5479 -1.3787  1.3671
  280DG     H22 6439   4.648   5.117   1.352 -1.6845 -1.5666  0.7397
  280DG     H23 6440   4.802   5.205   1.312  0.3456  0.5430 -1.6505
  281DG      C1 6441   2.474   3.521   3.188  0.3413  0.1332 -0.0606
  281DG      C2 6442   2.418   3.437   2.539  1.1650 -0.1384  0.1580
  281DG      H3 6443   2.582   3.527   3.168 -1.6781  0.8255  0.5583
  281DG      H4 6444   2.440   3.421   3.194  1.5098  2.2840  0.8190
  281DG      H5 6445   2.451   3.565   3.285 -0.7214 -1.6222 -0.1621
  281DG      H6 6446   2.349   3.476   2.466  0.2777  1.6187 -3.8105
  281DG      H7 6447   2.521   3.466   2.519 -0.4318 -1.1385  1.3735
  281DG      H8 6448   2.414   3.333   2.543 -2.0258 -0.3284  0.5390
  281DG      O9 6449   2.410   3.587   3.079  0.4079 -0.5877  0.2768
  281DG     O10 6450   2.383   3.487   2.671 -0.2913 -0.2598  0.2248
  281DG     C11 6451   2.296   3.663   3.125 -0.5650 -0.0420 -0.3489
  281DG     C12 6452   2.243   3.455   2.692  0.4781 -0.6355  0.0520
  281DG     H13 6453   2.328   3.764   3.164  1.1696 -0.5998  0.5935
  281DG     H14 6454   2.241   3.614   3.200  1.6682  2.2595 -3.5531
  281DG     H15 6455   2.237   3.353   2.729  0.7219 -3.1245  1.0025
  281DG     H16 6456   2.187   3.446   2.594  0.4220 -0.6658 -0.9165
  281DG     C17 6457   2.217   3.678   2.987  0.7191  0.1736  0.6054
  281DG     C18 6458   2.175   3.562   2.780 -1.2176  0.0175  0.2637
  281DG     O19 6459   2.227   3.560   2.909 -0.9290  0.0621  0.1423
  281DG     H20 6460   2.274   3.761   2.941  0.8792 -2.3959 -0.2613
  281DG     H21 6461   2.123   3.716   2.996  0.2122 -0.9086  2.4005
  281DG     H22 6462   2.188   3.661   2.736  2.9314 -1.0064 -2.9241
  281DG     H23 6463   2.069   3.539   2.792 -0.5785  0.4421  0.4738
  282DG      C1 6464   4.697   1.956   1.098  0.2597  0.3750 -0.4140
  282DG      C2 6465   4.085   1.643   1.486 -0.2307 -0.4171 -0.2869
  282DG      H3 6466   4.647   1.906   1.010  1.8199 -0.0597  3.7608
  282DG      H4 6467   4.802   1.930   1.093 -1.1227  1.8767  0.5455
  282DG      H5 6468   4.688   2.060   1.091 -1.1926 -2.4501  1.1924
  282DG      H6 6469   4.058   1.567   1.424 -0.1705  1.6932  0.7551
  282DG      H7 6470   4.039   1.625   1.578  1.6470  0.5311 -4.0748
  282DG      H8 6471   4.024   1.738   1.459 -2.1870  1.0910 -0.1154
  282DG      O9 6472   4.656   1.918   1.230  0.0712  0.0782  0.8106
  282DG     O10 6473   4.227   1.661   1.506 -0.0111  0.6302  0.0487
  282DG     C11 6474   4.665   1.778   1.266 -0.1611  0.2960 -0.6089
  282DG     C12 6475   4.257   1.797   1.530  0.3636 -0.5953 -0.3264
  282DG     H13 6476   4.762   1.728   1.261  1.6473  0.2131  1.4639
  282DG     H14 6477   4.584   1.732   1.215 -1.8128  1.3512 -0.0529
  282DG     H15 6478   4.209   1.825   1.624 -0.6635  1.6744  1.3647
  282DG     H16 6479   4.204   1.849   1.449  0.3231 -1.2825  0.2013
  282DG     C17 6480   4.606   1.778   1.410 -0.2222  0.3718 -0.2275
  282DG     C18 6481   4.405   1.814   1.535  0.1621 -0.4104  0.8876
  282DG     O19 6482   4.465   1.793   1.404  0.0287 -0.1062 -0.1832
  282DG     H20 6483   4.653   1.871   1.448 -1.4887  2.6771 -2.1044
  282DG     H21 6484   4.640   1.687   1.457  1.6424 -1.1487 -2.0166
  282DG     H22 6485   4.425   1.918   1.559  0.2207 -1.9542  3.2079
  282DG     H23 6486   4.442   1.754   1.610  0.1011  0.8751 -1.1016
  283DG      C1 6487   1.543   3.501   1.181 -0.2005 -0.1411 -0.0032
  283DG      C2 6488   1.350   4.070   0.810 -0.1482  0.3956 -0.1024
  283DG      H3 6489   1.500   3.515   1.277 -0.5793  1.3710  0.3033
  283DG      H4 6490   1.648   3.543   1.190  0.3265  1.6610  1.7419
  283DG      H5 6491   1.540   3.392   1.174 -0.5671 -1.7068 -2.0798
  283DG      H6 6492   1.450   4.114   0.832 -1.6446 -0.7779 -1.4170
  283DG      H7 6493   1.323   4.119   0.711  0.0375  0.7589  0.2956
  283DG      H8 6494   1.292   4.121   0.879  1.2278 -3.2222 -1.6086
  283DG      O9 6495   1.469   3.571   1.084  0.4323 -0.7621  0.3001
  283DG     O10 6496   1.338   3.933   0.825 -0.4960  0.0839  0.2928
  283DG     C11 6497   1.332   3.525   1.079  0.5245 -0.2784  1.0279
  283DG     C12 6498   1.211   3.883   0.792 -0.9545 -0.3532 -0.2023
  283DG     H13 6499   1.272   3.567   1.162 -0.5849  0.5717  2.4054
  283DG     H14 6500   1.343   3.414   1.086 -0.2828 -0.4421  0.1343
  283DG     H15 6501   1.203   3.909   0.685  0.8624  0.8128  0.7043
  283DG     H16 6502   1.130   3.933   0.841  0.0128 -1.5538 -0.8605
  283DG     C17 6503   1.281   3.562   0.937 -0.2231  0.6219 -0.3177
  283DG     C18 6504   1.217   3.737   0.809  0.1062  0.4675 -0.1020
  283DG     O19 6505   1.262   3.702   0.936  0.0093  0.0768  0.0138
  283DG     H20 6506   1.190   3.517   0.912 -0.1049  0.6809 -0.6168
  283DG     H21 6507   1.354   3.530   0.861 -1.1066 -1.1922 -2.5493
  283DG     H22 6508   1.125   3.689   0.774  0.6067  1.1934  0.6457
  283DG     H23 6509   1.294   3.708   0.735  3.0996 -1.6440 -0.3069
  284DG      C1 6510   4.552   3.905   0.370 -0.0797  0.3968 -0.6140
  284DG      C2 6511   4.104   4.155  -0.166 -0.0392 -0.1584  0.0556
  284DG      H3 6512   4.642   3.929   0.329 -0.7396 -1.6212 -1.5392
  284DG      H4 6513   4.575   3.823   0.440  1.3900 -3.3077 -1.4957
  284DG      H5 6514   4.502   3.986   0.431 -0.0496  1.0702  0.3433
  284DG      H6 6515   4.185   4.201  -0.222  0.6105 -1.3129 -1.1041
  284DG      H7 6516   4.014   4.129  -0.223  2.6517  1.0131 -3.0792
  284DG      H8 6517   4.071   4.229  -0.100 -1.2237  0.1117  1.0918
  284DG      O9 6518   4.448   3.847   0.287 -0.1532  0.8653  0.6908
  284DG     O10 6519   4.157   4.047  -0.097  0.0936 -0.3250 -0.5442
  284DG     C11 6520   4.501   3.760   0.190 -0.2054  0.2321 -0.2912
  284DG     C12 6521   4.226   3.947  -0.174  0.4455  0.3567  0.1619
  284DG     H13 6522   4.522   3.673   0.248 -0.3838 -3.9911  0.1427
  284DG     H14 6523   4.592   3.794   0.150  0.8799 -0.6572 -1.7195
  284DG     H15 6524   4.310   3.992  -0.231 -0.3519 -0.5564 -0.5423
  284DG     H16 6525   4.164   3.910  -0.256 -3.1631  1.3709 -1.1274
  284DG     C17 6526   4.402   3.729   0.077 -0.3060 -0.6078  0.2330
  284DG     C18 6527   4.267   3.824  -0.093  0.3342 -0.7172 -0.3464
  284DG     O19 6528   4.360   3.849   0.015  0.3396 -0.1009  0.3611
  284DG     H20 6529   4.322   3.669   0.113  0.1081 -0.8599 -1.6371
  284DG     H21 6530   4.445   3.666   0.001 -0.5264  1.5168 -0.2705
  284DG     H22 6531   4.175   3.768  -0.061 -1.1093 -1.2241  0.2942
  284DG     H23 6532   4.315   3.752  -0.166  0.3609 -1.4635 -0.4366
  285DG      C1 6533   2.618   5.127   1.366 -0.1018  0.3002 -0.4052
  285DG      C2 6534   2.286   4.509   1.596  0.1195 -0.2955  0.5364
  285DG      H3 6535   2.708   5.087   1.313 -0.1509 -1.6876  3.0525
  285DG      H4 6536   2.635   5.219   1.412  0.4740 -2.8977  0.5187
  285DG      H5 6537   2.534   5.143   1.292 -1.0532  0.5927  0.6640
  285DG      H6 6538   2.179   4.523   1.597 -0.1642  0.6617 -0.8195
  285DG      H7 6539   2.311   4.450   1.505 -3.1198  0.0514  0.4078
  285DG      H8 6540   2.307   4.440   1.678 -0.6798 -0.6231  0.2672
  285DG      O9 6541   2.581   5.033   1.462 -0.3226  0.0435  0.5720
  285DG     O10 6542   2.355   4.625   1.613 -0.3581  0.3591 -0.1753
  285DG     C11 6543   2.665   5.042   1.580 -0.0927  0.5812 -0.6185
  285DG     C12 6544   2.499   4.599   1.610  0.8228  0.0980  0.1214
  285DG     H13 6545   2.619   5.107   1.657 -1.7444 -1.7888  0.5125
  285DG     H14 6546   2.763   5.075   1.543  1.8447  1.6108  2.0077
  285DG     H15 6547   2.526   4.588   1.502 -3.1447 -2.4760 -0.2785
  285DG     H16 6548   2.523   4.498   1.644  1.1303 -0.3016 -2.0719
  285DG     C17 6549   2.676   4.894   1.634 -0.3529  0.3531 -0.1026
  285DG     C18 6550   2.563   4.706   1.697  0.7772 -0.0794 -0.5113
  285DG     O19 6551   2.547   4.841   1.648 -0.6887  0.1369  0.0403
  285DG     H20 6552   2.731   4.905   1.730 -0.1541  1.1697  1.5183
  285DG     H21 6553   2.723   4.843   1.549 -0.2501  1.2730  2.7874
  285DG     H22 6554   2.508   4.690   1.782 -0.3804 -0.9195 -2.5312
  285DG     H23 6555   2.668   4.678   1.715 -0.7169  1.8816 -0.3969
  286DG      C1 6556   1.031   4.056   5.261  0.8575 -0.2100 -0.6087
  286DG      C2 6557   1.651   4.311   5.066 -0.3873 -0.2464 -0.1770
  286DG      H3 6558   0.967   3.984   5.308  0.8144  1.2734  0.4475
  286DG      H4 6559   1.008   4.098   5.160  1.4195 -1.3598 -2.4548
  286DG      H5 6560   1.015   4.152   5.322 -0.0345  1.2992  0.3908
  286DG      H6 6561   1.748   4.359   5.072 -0.2060 -0.9063  0.2858
  286DG      H7 6562   1.639   4.270   4.965 -0.1791  1.1223 -0.5083
  286DG      H8 6563   1.572   4.384   5.090 -0.6914 -0.1417  1.7821
  286DG      O9 6564   1.168   4.001   5.260 -0.0784 -0.5284 -0.3939
  286DG     O10 6565   1.639   4.201   5.160 -0.1128 -0.3208 -0.6898
  286DG     C11 6566   1.209   3.981   5.397  0.5793 -0.1515  0.2727
  286DG     C12 6567   1.608   4.243   5.298 -0.8265  0.9004  0.4475
  286DG     H13 6568   1.164   3.886   5.423  0.2326  2.0562 -1.0864
  286DG     H14 6569   1.176   4.056   5.468  0.2160  0.7364 -0.3206
  286DG     H15 6570   1.532   4.324   5.298 -0.1140 -0.1057 -0.4940
  286DG     H16 6571   1.696   4.288   5.339  2.4136 -1.9610  1.3328
  286DG     C17 6572   1.362   3.986   5.413  0.2256  0.5933 -0.1108
  286DG     C18 6573   1.546   4.123   5.380  0.3462  0.1173  0.1270
  286DG     O19 6574   1.410   4.103   5.353 -0.1967  0.1473  0.5842
  286DG     H20 6575   1.402   3.901   5.364  0.4388  4.0968 -0.8210
  286DG     H21 6576   1.380   3.980   5.522  1.0910  0.6880  1.3982
  286DG     H22 6577   1.596   4.027   5.364  0.2899 -2.5210  0.7153
  286DG     H23 6578   1.557   4.165   5.481  1.8978  0.1869 -2.9207
  287DG      C1 6579   3.418   2.791   2.446 -0.1983 -0.0328  0.0947
  287DG      C2 6580   2.824   3.301   2.382  0.0481  0.2228  0.4237
  287DG      H3 6581   3.399   2.755   2.341  1.6646 -1.9573 -0.7345
  287DG      H4 6582   3.381   2.724   2.525  0.4131  0.0997 -0.7961
  287DG      H5 6583   3.519   2.812   2.456 -1.6299 -0.1971  0.0300
  287DG      H6 6584   2.814   3.236   2.296  2.2834  1.7361 -1.6706
  287DG      H7 6585   2.738   3.363   2.399 -2.1860 -2.8737  1.5696
  287DG      H8 6586   2.901   3.365   2.335  1.3001  0.4316 -0.7741
  287DG      O9 6587   3.343   2.914   2.445  0.0839  0.3211 -0.1433
  287DG     O10 6588   2.855   3.230   2.503  0.2914 -0.9741  0.2984
  287DG     C11 6589   3.358   2.981   2.577  0.4849 -0.4782 -0.1383
  287DG     C12 6590   2.960   3.150   2.489 -0.7405 -0.3293 -0.8175
  287DG     H13 6591   3.453   3.029   2.585  0.8093  2.2952 -3.8744
  287DG     H14 6592   3.359   2.897   2.650  0.8447  1.4641  0.9016
  287DG     H15 6593   3.039   3.193   2.432  0.2877 -3.1912  2.4232
  287DG     H16 6594   2.935   3.048   2.450 -1.1670  0.1579  1.2676
  287DG     C17 6595   3.251   3.078   2.618  0.6250 -0.0085 -0.2013
  287DG     C18 6596   3.011   3.118   2.633 -0.2109  0.1407  0.1778
  287DG     O19 6597   3.121   3.019   2.621  0.4966 -0.7888  0.5675
  287DG     H20 6598   3.251   3.165   2.556 -1.0044 -2.0802 -0.0329
  287DG     H21 6599   3.278   3.109   2.717  1.3534 -1.1896  0.2550
  287DG     H22 6600   3.045   3.204   2.697 -0.1201  0.7429  0.3009
  287DG     H23 6601   2.932   3.063   2.689  0.3784 -0.0469  1.3930
  288DG      C1 6602   3.121   5.291   1.721  0.5737 -0.5191  0.3025
  288DG      C2 6603   2.725   5.435   1.720 -0.6421  0.2128 -0.3420
  288DG      H3 6604   3.161   5.380   1.783 -1.1085 -0.3149 -1.3912
  288DG      H4 6605   3.184   5.203   1.748  3.8929  0.9119 -2.1689
  288DG      H5 6606   3.020   5.273   1.758  0.9535  1.9129  2.6308
  288DG      H6 6607   2.620   5.429   1.685  0.3916 -1.0068 -1.1252
  288DG      H7 6608   2.776   5.348   1.691 -1.4250  2.3009 -3.9836
  288DG      H8 6609   2.718   5.436   1.831 -1.1207  0.0625  1.2358
  288DG      O9 6610   3.123   5.319   1.581  0.4166  0.6380  0.1079
  288DG     O10 6611   2.785   5.552   1.668  0.2900 -0.2434  0.2878
  288DG     C11 6612   3.071   5.209   1.506  0.8075  0.1039  0.3652
  288DG     C12 6613   2.774   5.560   1.524  1.0615  0.5192 -0.3565
  288DG     H13 6614   3.008   5.152   1.570 -1.3044  2.0814 -0.8498
  288DG     H14 6615   3.154   5.140   1.468  0.2954  1.4215  0.9361
  288DG     H15 6616   2.781   5.660   1.487  0.0044 -2.0284 -1.8101
  288DG     H16 6617   2.677   5.528   1.485 -1.5587  2.3519  0.2215
  288DG     C17 6618   2.975   5.270   1.399  0.0247  0.2802  0.1076
  288DG     C18 6619   2.892   5.480   1.460 -0.4470 -0.7031  0.2184
  288DG     O19 6620   2.871   5.348   1.447 -0.2542 -0.5120  0.1454
  288DG     H20 6621   2.937   5.192   1.329 -0.5406 -1.4223  1.2989
  288DG     H21 6622   3.037   5.321   1.329  2.8293  1.0562 -0.5846
  288DG     H22 6623   2.898   5.519   1.353  1.9112  0.9569 -0.2988
  288DG     H23 6624   2.983   5.510   1.512  0.9747 -2.0607 -0.7019
  289DG      C1 6625   5.487   5.375   4.963 -0.2316  0.8443  0.2056
  289DG      C2 6626   5.417   5.878   4.432  0.0252  1.0147 -0.1605
  289DG      H3 6627   5.564   5.378   5.031 -1.5228 -2.9323 -4.7535
  289DG      H4 6628   5.542   5.389   4.871  3.7472  2.7808  2.1185
  289DG      H5 6629   5.435   5.273   4.972 -0.6468 -0.7458  3.5736
  289DG      H6 6630   5.347   5.925   4.368  4.6364  0.6524 -2.0527
  289DG      H7 6631   5.483   5.947   4.483 -0.0260  0.3508  0.7687
  289DG      H8 6632   5.472   5.810   4.367  0.5217 -1.0148  1.1267
  289DG      O9 6633   5.396   5.481   4.968 -0.2989 -0.0376  0.0769
  289DG     O10 6634   5.358   5.794   4.524 -0.0584  0.5597 -0.5442
  289DG     C11 6635   5.292   5.460   4.876 -0.7477  0.5871 -0.3440
  289DG     C12 6636   5.315   5.871   4.641 -0.5257  0.1524 -0.1672
  289DG     H13 6637   5.237   5.370   4.904 -1.8246 -0.4546 -0.9733
  289DG     H14 6638   5.343   5.444   4.785  0.7232  1.6518 -0.2608
  289DG     H15 6639   5.268   5.970   4.620  2.7695  4.3664  3.1195
  289DG     H16 6640   5.407   5.903   4.690  0.5599  0.3886  1.1377
  289DG     C17 6641   5.212   5.592   4.848  0.0290 -0.3511  0.5024
  289DG     C18 6642   5.222   5.789   4.727 -0.2233 -0.2675  0.7899
  289DG     O19 6643   5.298   5.690   4.787  0.1816 -0.2277 -0.2484
  289DG     H20 6644   5.172   5.631   4.943 -1.6676  0.6485  1.0326
  289DG     H21 6645   5.131   5.563   4.781  0.9158  0.2320 -2.4387
  289DG     H22 6646   5.174   5.848   4.809 -1.1294  1.6077  0.2958
  289DG     H23 6647   5.140   5.751   4.675  1.9986 -0.5318 -1.1765
  290DG      C1 6648   3.878   2.359   1.131 -0.0898 -0.7672 -0.5509
  290DG      C2 6649   3.838   2.895   1.199 -0.2420  0.2760 -0.0251
  290DG      H3 6650   3.952   2.299   1.184 -0.4149 -1.2861 -2.6012
  290DG      H4 6651   3.871   2.469   1.152 -0.7189  2.6234  1.3868
  290DG      H5 6652   3.915   2.348   1.031 -0.4887  2.3913  4.7859
  290DG      H6 6653   3.946   2.909   1.225  1.2405 -0.2814  1.4768
  290DG      H7 6654   3.835   2.908   1.086  1.2415 -2.2740 -1.6394
  290DG      H8 6655   3.781   2.973   1.237  1.3516 -3.8828 -0.7830
  290DG      O9 6656   3.756   2.287   1.157  0.5531  0.0863 -0.0723
  290DG     O10 6657   3.787   2.767   1.248 -0.5157 -0.1449 -0.2285
  290DG     C11 6658   3.721   2.259   1.298 -0.5638  0.4829  0.6247
  290DG     C12 6659   3.832   2.720   1.373  0.1796  1.0002 -0.6635
  290DG     H13 6660   3.808   2.206   1.348  0.2083  2.1963  0.9996
  290DG     H14 6661   3.650   2.176   1.314 -1.3425  0.0464  3.0490
  290DG     H15 6662   3.844   2.805   1.445 -2.6808  0.6230 -1.5086
  290DG     H16 6663   3.929   2.672   1.366 -0.8462 -1.3541 -1.1884
  290DG     C17 6664   3.686   2.373   1.387  0.5196  0.5506 -0.3191
  290DG     C18 6665   3.749   2.603   1.431  1.1070 -0.3407  0.0567
  290DG     O19 6666   3.767   2.484   1.354 -0.3235  0.0254 -0.4450
  290DG     H20 6667   3.691   2.327   1.479 -1.1349 -0.4264  0.5001
  290DG     H21 6668   3.584   2.391   1.375 -0.4082 -1.1935 -1.1091
  290DG     H22 6669   3.783   2.572   1.529  0.3002  1.2668  2.0469
  290DG     H23 6670   3.640   2.630   1.440 -0.8229  2.7138 -1.1386
  291DG      C1 6671   1.746   4.010   3.688  1.2390 -0.5755 -0.2232
  291DG      C2 6672   1.920   4.487   3.942 -0.3046  0.2685  0.4277
  291DG      H3 6673   1.658   4.054   3.643 -1.2326  0.7959  0.6842
  291DG      H4 6674   1.746   3.906   3.662 -1.7316  1.5561  1.2065
  291DG      H5 6675   1.832   4.056   3.641  0.2477 -0.0512  0.4044
  291DG      H6 6676   1.961   4.507   4.043 -1.7784  1.7812  2.9810
  291DG      H7 6677   1.993   4.472   3.858  2.2417  0.5626 -1.8912
  291DG      H8 6678   1.861   4.579   3.915 -3.5358  2.4050  0.6833
  291DG      O9 6679   1.762   4.020   3.827 -0.3268 -0.1886  0.3237
  291DG     O10 6680   1.846   4.361   3.954 -0.2316  0.4209  0.0446
  291DG     C11 6681   1.666   3.960   3.905  0.0738  0.4957 -0.0341
  291DG     C12 6682   1.743   4.376   4.054 -0.5974 -1.1826 -0.7100
  291DG     H13 6683   1.691   3.852   3.891  0.2146 -1.3029 -0.3934
  291DG     H14 6684   1.568   3.976   3.856 -1.4692  0.4076 -0.8725
  291DG     H15 6685   1.664   4.447   4.024  2.2080 -0.0444 -1.9596
  291DG     H16 6686   1.776   4.398   4.158 -0.0122  2.2593 -1.8688
  291DG     C17 6687   1.681   4.010   4.049  0.6546  1.1178  0.3313
  291DG     C18 6688   1.664   4.246   4.049 -0.0673  0.4908 -0.2836
  291DG     O19 6689   1.748   4.136   4.058 -0.3769 -0.2990  0.6736
  291DG     H20 6690   1.753   3.946   4.098 -3.0404  3.2041  3.1904
  291DG     H21 6691   1.587   3.997   4.110 -2.8835  1.3743  1.6347
  291DG     H22 6692   1.587   4.249   4.129  0.7444 -0.1451  0.1793
  291DG     H23 6693   1.613   4.229   3.950 -1.7108  0.2262  1.8180
  292DG      C1 6694   5.046   4.950   5.330 -0.1958 -0.1018  0.1812
  292DG      C2 6695   5.037   4.300   4.996  0.3739 -0.7284  0.4539
  292DG      H3 6696   5.111   4.911   5.410  1.9164  0.9550  1.2116
  292DG      H4 6697   4.982   5.028   5.361  2.4081  2.6110 -0.7290
  292DG      H5 6698   5.120   4.997   5.260  4.4016  1.1908  0.0737
  292DG      H6 6699   5.079   4.270   5.089  3.6528  0.2953 -2.1581
  292DG      H7 6700   4.959   4.230   4.976  1.0090 -1.4405  2.2644
  292DG      H8 6701   5.108   4.305   4.915  0.9138 -2.7491  0.6820
  292DG      O9 6702   4.975   4.851   5.263  0.8049 -0.1933 -0.0679
  292DG     O10 6703   4.984   4.430   5.023 -0.3181 -0.0722 -0.4062
  292DG     C11 6704   4.911   4.918   5.151  0.4716  0.2473  0.0354
  292DG     C12 6705   4.940   4.500   4.911  0.5736  0.2176 -0.4073
  292DG     H13 6706   4.989   4.964   5.080  0.3993 -1.4552 -1.9726
  292DG     H14 6707   4.849   5.004   5.190 -1.9676  0.3363  0.5911
  292DG     H15 6708   4.885   4.434   4.842  3.0358 -0.3996 -2.5311
  292DG     H16 6709   5.034   4.532   4.858  2.2226 -0.0945  0.7286
  292DG     C17 6710   4.832   4.830   5.056 -0.0365 -0.0479 -0.5854
  292DG     C18 6711   4.849   4.621   4.943  0.0665 -0.1495  0.1810
  292DG     O19 6712   4.913   4.720   5.014 -0.6850  0.4474  0.0953
  292DG     H20 6713   4.794   4.884   4.967 -3.5463  2.5656 -0.4582
  292DG     H21 6714   4.741   4.800   5.111 -1.0983 -1.7740  0.4129
  292DG     H22 6715   4.819   4.666   4.849  0.4877  1.4415  1.1142
  292DG     H23 6716   4.758   4.593   4.985  2.8145  0.3494 -1.2444
  293DG      C1 6717   5.461   2.812   1.810  0.4965  0.3425  0.4234
  293DG      C2 6718   6.114   2.369   1.585  0.0528  0.1158 -0.1506
  293DG      H3 6719   5.424   2.875   1.724 -1.4405 -1.1110 -0.2373
  293DG      H4 6720   5.553   2.861   1.851 -0.4996  1.3597  0.6001
  293DG      H5 6721   5.385   2.813   1.892  0.0023  0.0996  3.3185
  293DG      H6 6722   6.179   2.389   1.675  1.4136 -1.3722  1.3204
  293DG      H7 6723   6.148   2.271   1.563  0.8717  1.2270  0.1987
  293DG      H8 6724   6.143   2.438   1.503 -1.5570  3.3994 -0.0736
  293DG      O9 6725   5.494   2.673   1.790  0.2001  0.2884 -0.8549
  293DG     O10 6726   5.985   2.370   1.639  0.2971 -0.0516  0.3461
  293DG     C11 6727   5.579   2.645   1.672 -0.3074 -0.7047 -0.3441
  293DG     C12 6728   5.891   2.315   1.544 -0.1136  0.1648 -0.1118
  293DG     H13 6729   5.681   2.672   1.691 -1.3655 -1.2855 -1.1066
  293DG     H14 6730   5.548   2.699   1.580  1.0178  1.7838  1.1058
  293DG     H15 6731   5.914   2.208   1.522 -0.2544  4.0069  2.2580
  293DG     H16 6732   5.891   2.366   1.448  0.6567 -1.5484  1.7255
  293DG     C17 6733   5.581   2.491   1.648  0.1254 -0.5322 -0.2338
  293DG     C18 6734   5.750   2.334   1.588 -0.0942  0.2215 -0.3110
  293DG     O19 6735   5.716   2.470   1.592 -0.2869  0.1564 -0.3134
  293DG     H20 6736   5.509   2.460   1.580  1.3595 -0.6895 -0.7914
  293DG     H21 6737   5.571   2.437   1.739  2.4889  2.3936 -0.4906
  293DG     H22 6738   5.701   2.279   1.513 -1.9773 -1.4603  1.3727
  293DG     H23 6739   5.734   2.280   1.682  2.4065 -0.2931 -3.5604
  294DG      C1 6740   3.366   2.393   4.518  0.1268 -0.1171  0.5068
  294DG      C2 6741   3.870   2.724   4.085  0.1519 -0.3866 -0.3124
  294DG      H3 6742   3.279   2.350   4.462 -0.3401 -2.1316  1.9196
  294DG      H4 6743   3.366   2.362   4.618  1.2556 -1.8615  0.3366
  294DG      H5 6744   3.460   2.353   4.470 -0.9115 -1.4515 -1.2230
  294DG      H6 6745   3.917   2.648   4.022  0.0308 -0.1238  0.0856
  294DG      H7 6746   3.775   2.758   4.031 -0.3909 -1.0326 -2.6980
  294DG      H8 6747   3.950   2.800   4.099  0.9253 -0.6167  2.2448
  294DG      O9 6748   3.363   2.533   4.510 -0.0168  0.4004  0.0793
  294DG     O10 6749   3.828   2.663   4.214 -0.5164 -0.5157  0.3557
  294DG     C11 6750   3.394   2.578   4.378  0.4346 -0.3729  0.0201
  294DG     C12 6751   3.819   2.758   4.315 -0.2217 -0.1484  0.1857
  294DG     H13 6752   3.345   2.679   4.377  1.9603 -0.4096 -0.7308
  294DG     H14 6753   3.345   2.516   4.297 -0.7202 -1.0252 -0.4848
  294DG     H15 6754   3.768   2.846   4.272 -0.9025  1.0379 -1.5745
  294DG     H16 6755   3.917   2.775   4.355 -1.5557 -3.6514  0.5042
  294DG     C17 6756   3.551   2.598   4.361 -0.2765  0.1962  0.0740
  294DG     C18 6757   3.748   2.703   4.443 -0.2785  0.1923  0.6903
  294DG     O19 6758   3.610   2.686   4.450  0.1152 -0.1159 -0.0310
  294DG     H20 6759   3.561   2.655   4.270  1.2324  1.0209 -1.7962
  294DG     H21 6760   3.611   2.508   4.344  1.6408 -2.5241  0.9749
  294DG     H22 6761   3.794   2.614   4.468 -0.5599  0.9614  0.6139
  294DG     H23 6762   3.771   2.769   4.528  0.9261 -1.4462 -0.0217
  295DG      C1 6763   0.033   1.782   4.179 -0.1269 -0.3193 -0.4424
  295DG      C2 6764   0.196   1.104   4.086 -0.3739  0.1443 -0.2452
  295DG      H3 6765  -0.068   1.752   4.149 -1.5714  2.9122  0.3704
  295DG      H4 6766   0.059   1.886   4.166 -1.3579  0.9190  2.6317
  295DG      H5 6767   0.052   1.763   4.282  0.9276 -0.4844  1.4394
  295DG      H6 6768   0.286   1.042   4.090 -1.2023 -0.6905  0.9477
  295DG      H7 6769   0.150   1.103   4.180  2.4346 -0.0713 -0.2740
  295DG      H8 6770   0.130   1.053   4.013 -0.9714 -3.2514 -0.8610
  295DG      O9 6771   0.126   1.705   4.109 -0.0277  0.2484  0.4337
  295DG     O10 6772   0.230   1.245   4.060  0.7263  0.4922 -0.1039
  295DG     C11 6773   0.126   1.715   3.974  0.4221 -0.5609  1.0470
  295DG     C12 6774   0.281   1.269   3.929  0.6016 -0.4076  0.0127
  295DG     H13 6775   0.151   1.811   3.943  0.5752  1.2109 -0.7251
  295DG     H14 6776   0.029   1.692   3.929  1.8361 -0.2707 -0.6575
  295DG     H15 6777   0.192   1.252   3.866 -1.7625 -2.3510  1.0657
  295DG     H16 6778   0.362   1.203   3.894  0.7844 -0.7654  0.7808
  295DG     C17 6779   0.240   1.628   3.918 -0.0530  0.3518 -0.0655
  295DG     C18 6780   0.317   1.408   3.884  0.4124  0.1267 -0.0715
  295DG     O19 6781   0.213   1.494   3.938 -0.5752  0.1234  0.1796
  295DG     H20 6782   0.329   1.655   3.981  0.8877 -1.4973 -0.4922
  295DG     H21 6783   0.271   1.654   3.817  1.6035  0.9114 -0.0062
  295DG     H22 6784   0.417   1.429   3.918 -2.2450  4.7870  0.0792
  295DG     H23 6785   0.332   1.412   3.777 -1.0401  1.2978 -1.8293
  296DG      C1 6786   0.190   5.248   0.201 -0.2670 -0.0086  0.0284
  296DG      C2 6787   0.633   4.867   0.219  0.1897 -0.2113 -0.2584
  296DG      H3 6788   0.273   5.182   0.197 -3.1333 -0.8533 -0.1384
  296DG      H4 6789   0.160   5.279   0.099 -2.7281 -0.3632 -0.3706
  296DG      H5 6790   0.098   5.197   0.235 -0.4215 -0.4822 -1.8101
  296DG      H6 6791   0.600   4.772   0.182  1.6874 -1.1924 -2.7514
  296DG      H7 6792   0.735   4.857   0.195 -1.3900 -2.4094 -0.5041
  296DG      H8 6793   0.631   4.859   0.331  1.1493  1.5027  1.4030
  296DG      O9 6794   0.204   5.367   0.280  0.0294  0.5255 -0.0242
  296DG     O10 6795   0.563   4.985   0.191  0.4326 -0.1972  0.4003
  296DG     C11 6796   0.323   5.440   0.259 -0.4036 -0.3742  0.2449
  296DG     C12 6797   0.647   5.090   0.238 -0.5875  0.5085 -0.3555
  296DG     H13 6798   0.308   5.545   0.284 -1.2961  1.4163 -1.4439
  296DG     H14 6799   0.344   5.457   0.157  3.5297 -2.8668 -0.3626
  296DG     H15 6800   0.744   5.094   0.200  1.0090 -1.2407  1.6349
  296DG     H16 6801   0.669   5.083   0.338 -1.6492  0.1576 -2.5552
  296DG     C17 6802   0.431   5.371   0.333 -0.2252 -0.2001  0.3659
  296DG     C18 6803   0.577   5.223   0.207  0.3632  0.0118 -0.5668
  296DG     O19 6804   0.470   5.237   0.297  0.1197 -0.8032  0.0235
  296DG     H20 6805   0.390   5.362   0.435  0.6858 -0.1424 -1.0211
  296DG     H21 6806   0.510   5.442   0.337 -1.3845  2.2492  1.4714
  296DG     H22 6807   0.640   5.307   0.224 -1.5419  0.5746 -1.2005
  296DG     H23 6808   0.544   5.222   0.106  0.3122  1.0714 -0.4678
  297DG      C1 6809   5.170   2.673   1.601  0.3115  0.4178 -0.8852
  297DG      C2 6810   4.867   2.536   2.162 -0.3594 -0.5429 -0.1695
  297DG      H3 6811   5.155   2.652   1.488 -0.8865 -1.9574 -2.3082
  297DG      H4 6812   5.250   2.612   1.640  2.3704  0.7627 -0.6722
  297DG      H5 6813   5.204   2.771   1.623 -1.8049  2.2641  1.7638
  297DG      H6 6814   4.885   2.426   2.159 -0.3377 -0.9030 -1.0829
  297DG      H7 6815   4.962   2.574   2.185  1.4779 -0.7309  0.9088
  297DG      H8 6816   4.790   2.556   2.228  0.1012 -2.1054 -2.7358
  297DG      O9 6817   5.044   2.657   1.671 -0.5061  0.5295 -0.1549
  297DG     O10 6818   4.823   2.580   2.034  0.2085 -0.4798  0.1180
  297DG     C11 6819   4.956   2.760   1.621  0.9697 -0.7589  0.4669
  297DG     C12 6820   4.770   2.711   2.041  0.1273 -0.3272 -0.0991
  297DG     H13 6821   4.954   2.768   1.510  0.4401 -0.1883 -2.4802
  297DG     H14 6822   4.997   2.845   1.663 -0.8166 -1.9999 -0.9940
  297DG     H15 6823   4.836   2.788   2.081  0.6273 -2.1946  3.2572
  297DG     H16 6824   4.684   2.714   2.107 -1.3582 -1.1946  2.1835
  297DG     C17 6825   4.815   2.740   1.676  0.4646 -0.3825  0.2587
  297DG     C18 6826   4.723   2.738   1.894 -0.4464  0.0554 -0.2225
  297DG     O19 6827   4.833   2.710   1.814 -0.2279  0.0296 -0.0050
  297DG     H20 6828   4.781   2.647   1.633 -0.7244 -1.1437 -1.3205
  297DG     H21 6829   4.748   2.825   1.658 -0.5392  1.8059  0.7271
  297DG     H22 6830   4.651   2.670   1.855  2.4414  0.6430 -3.8791
  297DG     H23 6831   4.696   2.847   1.875 -1.0897  0.4226 -1.6286
  298DG      C1 6832   1.232   4.263   2.942 -0.2755 -0.5471  0.0926
  298DG      C2 6833   1.058   4.176   3.788  0.0403  0.3370 -0.5354
  298DG      H3 6834   1.216   4.263   2.836  0.7742 -0.7620 -1.0944
  298DG      H4 6835   1.284   4.169   2.957 -0.4612  0.1640  2.4611
  298DG      H5 6836   1.290   4.349   2.961 -0.5143  2.7225 -0.1446
  298DG      H6 6837   1.124   4.226   3.857 -0.0036 -0.2390  1.3324
  298DG      H7 6838   0.967   4.155   3.845 -2.7919 -1.2986  0.7749
  298DG      H8 6839   1.103   4.083   3.765  0.0062 -0.1256 -0.1447
  298DG      O9 6840   1.124   4.257   3.029  0.5510 -0.2619 -0.2264
  298DG     O10 6841   1.036   4.257   3.681  0.0439  0.1528 -0.2566
  298DG     C11 6842   1.156   4.231   3.161 -0.0626 -0.4055 -0.3781
  298DG     C12 6843   0.939   4.199   3.593 -0.9786  0.1737 -0.0489
  298DG     H13 6844   1.240   4.288   3.189  0.1563 -0.2443  0.7325
  298DG     H14 6845   1.188   4.134   3.176  0.9990  1.6157  0.4683
  298DG     H15 6846   0.838   4.217   3.632  1.6297  1.9592 -1.3661
  298DG     H16 6847   0.944   4.089   3.592  2.2145 -0.5027 -0.3430
  298DG     C17 6848   1.027   4.250   3.239 -0.3452  0.2906  0.2620
  298DG     C18 6849   0.940   4.271   3.457  0.8178  0.6629 -0.0392
  298DG     O19 6850   1.049   4.241   3.377  0.2452 -0.6173  0.5476
  298DG     H20 6851   0.955   4.173   3.208 -0.0007  0.4771 -2.1123
  298DG     H21 6852   0.996   4.343   3.205  1.6322 -2.3637  4.4320
  298DG     H22 6853   0.850   4.245   3.397 -1.4698  2.0865  3.8800
  298DG     H23 6854   0.922   4.375   3.473  1.9699 -0.4560  0.1891
  299DG      C1 6855   5.407   4.394   1.074  1.0451  0.4113  0.0915
  299DG      C2 6856   4.848   3.921   1.487  0.4779 -0.1508  0.0199
  299DG      H3 6857   5.332   4.466   1.113  0.5791  0.0680  2.3149
  299DG      H4 6858   5.450   4.433   0.977  3.8886 -1.5415 -2.2264
  299DG      H5 6859   5.487   4.392   1.148 -0.6148  1.5827 -2.1761
  299DG      H6 6860   4.907   3.957   1.573 -1.8026 -2.8186 -1.3060
  299DG      H7 6861   4.762   3.986   1.483  0.6004  2.2053 -0.3968
  299DG      H8 6862   4.816   3.819   1.514 -1.0207 -0.4907 -1.5063
  299DG      O9 6863   5.342   4.271   1.074  0.0032 -0.0071 -0.0325
  299DG     O10 6864   4.920   3.922   1.367 -0.6273 -0.4504 -0.5636
  299DG     C11 6865   5.241   4.242   0.978  0.0084  0.6198 -0.3266
  299DG     C12 6866   4.994   4.041   1.346  0.5254 -0.0024  0.8210
  299DG     H13 6867   5.306   4.215   0.895 -2.1402  0.4905  0.1153
  299DG     H14 6868   5.171   4.318   0.948 -0.9120  0.5268  1.5701
  299DG     H15 6869   5.073   4.060   1.419 -0.9152  0.3219  2.0726
  299DG     H16 6870   4.932   4.137   1.360 -2.0805 -1.0367  0.8944
  299DG     C17 6871   5.157   4.122   1.023  0.0432  0.2415 -0.5025
  299DG     C18 6872   5.034   4.024   1.197 -0.4028  0.7169  1.3741
  299DG     O19 6873   5.122   4.125   1.158  0.6658  0.0185 -0.5294
  299DG     H20 6874   5.221   4.042   0.999 -0.4602  0.2194 -1.4691
  299DG     H21 6875   5.071   4.104   0.958 -0.5772 -2.5942  0.9576
  299DG     H22 6876   5.105   3.943   1.179  2.7044  0.7811 -1.1456
  299DG     H23 6877   4.943   4.030   1.136 -0.6908  2.0583 -0.5622
  300DG      C1 6878   0.637   1.248   0.564  0.3642  0.0769  0.2214
  300DG      C2 6879   0.728   1.677  -0.091 -0.3849 -0.1564  0.6269
  300DG      H3 6880   0.737   1.232   0.608  0.7763  0.3308  1.0822
  300DG      H4 6881   0.575   1.178   0.621  0.5361 -1.9899 -1.1034
  300DG      H5 6882   0.610   1.354   0.590  0.7398  1.0955  0.5137
  300DG      H6 6883   0.636   1.734  -0.100  1.2492 -1.5889  1.1773
  300DG      H7 6884   0.758   1.692   0.008  1.3896 -2.0209  0.4671
  300DG      H8 6885   0.806   1.701  -0.168  1.3382 -1.6971  2.8276
  300DG      O9 6886   0.640   1.225   0.426  0.1499  0.3357  0.0626
  300DG     O10 6887   0.699   1.541  -0.093 -0.5965  0.0207  0.2472
  300DG     C11 6888   0.715   1.312   0.339  0.0479 -0.8017 -0.5217
  300DG     C12 6889   0.814   1.455  -0.091  0.0993  0.3924  0.0772
  300DG     H13 6890   0.821   1.302   0.357  0.2125  0.3649  2.2944
  300DG     H14 6891   0.685   1.410   0.358 -0.2148 -0.6737  0.1742
  300DG     H15 6892   0.891   1.494  -0.018  0.8008 -0.4013  2.6188
  300DG     H16 6893   0.856   1.437  -0.190  1.6820 -2.9879 -1.5759
  300DG     C17 6894   0.683   1.280   0.196  0.1533 -0.6152 -0.6690
  300DG     C18 6895   0.772   1.330  -0.018 -0.1433  0.6420 -0.8940
  300DG     O19 6896   0.757   1.365   0.117  0.0784  0.0530  0.6566
  300DG     H20 6897   0.579   1.288   0.163  0.0431 -0.3963 -0.0558
  300DG     H21 6898   0.710   1.182   0.166 -1.1929  3.3833 -0.9003
  300DG     H22 6899   0.687   1.295  -0.060  2.2507 -1.0791  2.1543
  300DG     H23 6900   0.855   1.255  -0.013  0.2662 -1.2653  2.7207
  301DG      C1 6901   4.865   4.004   2.800 -0.5735 -0.5369 -0.3278
  301DG      C2 6902   5.412   3.996   2.441 -0.4975  0.3429  0.3324
  301DG      H3 6903   4.862   4.109   2.770 -0.3963  0.5492  3.1938
  301DG      H4 6904   4.939   3.997   2.878 -0.9524  0.5984 -0.4940
  301DG      H5 6905   4.776   3.963   2.843 -0.4175 -1.8333  2.5533
  301DG      H6 6906   5.476   3.959   2.524 -1.6376  1.0017 -0.0627
  301DG      H7 6907   5.469   3.992   2.349 -0.2285  1.1842  2.3152
  301DG      H8 6908   5.401   4.101   2.455 -1.7436 -2.2139  1.1196
  301DG      O9 6909   4.923   3.923   2.700 -0.2398 -0.4705  0.1050
  301DG     O10 6910   5.278   3.951   2.444  0.9364 -0.3581 -0.2919
  301DG     C11 6911   4.889   3.784   2.701 -0.0744  0.1680  0.2107
  301DG     C12 6912   5.271   3.809   2.423 -0.9826  0.0275  0.2481
  301DG     H13 6913   4.781   3.765   2.714  2.2499 -0.9048  0.0891
  301DG     H14 6914   4.928   3.722   2.781 -0.3101 -1.8597 -1.9730
  301DG     H15 6915   5.343   3.759   2.495  0.7532  0.2734  1.7735
  301DG     H16 6916   5.314   3.780   2.314  1.8099 -0.2430 -0.4875
  301DG     C17 6917   4.936   3.721   2.574 -0.3266  0.0042  0.8650
  301DG     C18 6918   5.126   3.761   2.430 -0.1358 -0.5294  0.3817
  301DG     O19 6919   5.078   3.765   2.562  0.2286  0.4690  0.1636
  301DG     H20 6920   4.883   3.759   2.486 -1.5652 -0.0266 -1.8609
  301DG     H21 6921   4.926   3.611   2.569  0.2988  0.7447 -2.1406
  301DG     H22 6922   5.069   3.832   2.368  2.8419  1.5881 -1.7224
  301DG     H23 6923   5.126   3.660   2.389  1.5446  2.2581 -0.1094
  302DG      C1 6924   3.380   0.915   3.277 -0.8783  0.6056 -0.3268
  302DG      C2 6925   3.481   1.073   2.521 -0.0670  0.5934 -0.7149
  302DG      H3 6926   3.360   0.825   3.224 -0.1601  0.6242  2.7454
  302DG      H4 6927   3.326   0.941   3.366  0.1476 -1.4369  0.4002
  302DG      H5 6928   3.484   0.906   3.302  0.3018 -1.9109  0.5431
  302DG      H6 6929   3.441   1.107   2.429 -1.3391 -0.0931  3.9769
  302DG      H7 6930   3.588   1.075   2.511  0.5496 -2.7218 -0.7256
  302DG      H8 6931   3.442   0.970   2.524  3.3432  1.2399 -1.2147
  302DG      O9 6932   3.375   1.017   3.183  0.1328  0.1748  0.6633
  302DG     O10 6933   3.429   1.146   2.634 -0.5456  0.0647 -0.2119
  302DG     C11 6934   3.242   1.039   3.129 -0.7896  1.0489 -0.0728
  302DG     C12 6935   3.290   1.152   2.651 -1.0766  0.1890 -1.1611
  302DG     H13 6936   3.182   1.062   3.215  1.5708 -0.1250 -1.3562
  302DG     H14 6937   3.182   0.954   3.090 -2.5545 -1.4842 -0.1219
  302DG     H15 6938   3.235   1.051   2.631  0.6142  0.6291 -2.0424
  302DG     H16 6939   3.246   1.218   2.581  1.5146 -1.4287  2.6100
  302DG     C17 6940   3.232   1.149   3.027 -0.1481 -0.1897  0.2745
  302DG     C18 6941   3.269   1.215   2.794  0.5645  0.3114 -0.0230
  302DG     O19 6942   3.287   1.115   2.895  0.4942  0.0639 -0.0833
  302DG     H20 6943   3.271   1.241   3.071 -1.3996 -0.6035 -3.3926
  302DG     H21 6944   3.129   1.172   3.018  2.4879  1.4255 -0.6016
  302DG     H22 6945   3.334   1.300   2.820 -0.2828 -0.5972 -0.0472
  302DG     H23 6946   3.168   1.247   2.791  2.0236 -2.3316  0.0958
  303DG      C1 6947   1.998   1.762   1.474  0.2399  0.1275  0.2024
  303DG      C2 6948   2.426   1.235   1.795 -0.4199 -0.0194 -0.7689
  303DG      H3 6949   2.042   1.852   1.516  0.2832  0.3636 -0.8651
  303DG      H4 6950   1.890   1.783   1.466 -1.3672  1.4008  1.1151
  303DG      H5 6951   2.045   1.725   1.380  1.3538 -0.7880 -1.1264
  303DG      H6 6952   2.430   1.138   1.744 -2.6201 -1.3522 -1.4689
  303DG      H7 6953   2.528   1.277   1.778 -0.9465  0.6710  1.7173
  303DG      H8 6954   2.408   1.209   1.897  0.4118 -0.9937  0.7381
  303DG      O9 6955   2.016   1.659   1.566  0.2114  0.5048 -0.3690
  303DG     O10 6956   2.323   1.307   1.735 -0.2765 -0.1647 -0.3716
  303DG     C11 6957   1.958   1.533   1.516  1.0203  0.0272 -0.5047
  303DG     C12 6958   2.304   1.432   1.784 -0.1492  0.3262  0.0451
  303DG     H13 6959   2.016   1.481   1.439 -0.4545 -2.7644  0.2394
  303DG     H14 6960   1.857   1.542   1.468 -1.7592  1.3161  3.8094
  303DG     H15 6961   2.400   1.483   1.764 -0.5149  1.6723  0.1908
  303DG     H16 6962   2.295   1.421   1.887  4.0978 -1.1676  0.6880
  303DG     C17 6963   1.954   1.441   1.642 -0.3838 -0.1363 -0.0075
  303DG     C18 6964   2.187   1.490   1.703 -0.1411  0.2853 -0.1950
  303DG     O19 6965   2.081   1.392   1.687  0.5641  0.5640 -0.4395
  303DG     H20 6966   1.893   1.350   1.629  2.3786 -0.3644 -0.0159
  303DG     H21 6967   1.915   1.496   1.728 -0.4788 -2.3427  0.8596
  303DG     H22 6968   2.153   1.577   1.759 -1.6187  4.0309  0.2935
  303DG     H23 6969   2.218   1.538   1.612 -1.2876  2.5223  0.2959
  304DG      C1 6970   1.508   2.268   0.496  0.8400  0.8604 -0.8484
  304DG      C2 6971   1.212   1.517   0.311  0.3543  0.3560  0.3707
  304DG      H3 6972   1.592   2.213   0.517  0.0440  3.9316  1.9265
  304DG      H4 6973   1.516   2.376   0.527 -0.4595  0.7430  1.3805
  304DG      H5 6974   1.485   2.265   0.391  2.1978  1.1822  2.6115
  304DG      H6 6975   1.298   1.467   0.346 -1.3245  0.6130 -3.5942
  304DG      H7 6976   1.120   1.457   0.329  1.6937 -2.9032  1.7923
  304DG      H8 6977   1.216   1.523   0.199  2.3556  0.4973 -1.6449
  304DG      O9 6978   1.395   2.206   0.556  0.0124  0.6415  0.3429
  304DG     O10 6979   1.209   1.645   0.368  0.1488  0.3170 -0.5120
  304DG     C11 6980   1.395   2.064   0.544  0.0111  0.4264 -0.1619
  304DG     C12 6981   1.219   1.638   0.509 -0.3875  0.4406  0.3405
  304DG     H13 6982   1.469   2.036   0.615 -0.2050 -1.0143  1.5117
  304DG     H14 6983   1.416   2.036   0.437 -3.5866  2.2298  0.8046
  304DG     H15 6984   1.318   1.609   0.542 -0.0942 -0.9118 -2.1207
  304DG     H16 6985   1.153   1.562   0.533  1.9004  0.9818 -3.1964
  304DG     C17 6986   1.264   2.003   0.585 -0.5246  0.4379  0.3563
  304DG     C18 6987   1.185   1.770   0.572  0.1875 -0.1928 -0.1310
  304DG     O19 6988   1.279   1.874   0.527  0.3470  0.2334  0.0925
  304DG     H20 6989   1.183   2.052   0.534 -0.7509 -1.0656 -1.7817
  304DG     H21 6990   1.244   1.991   0.693  0.4424  0.8616  1.6482
  304DG     H22 6991   1.082   1.792   0.551 -0.7248 -0.9381 -2.8410
  304DG     H23 6992   1.193   1.765   0.683 -0.0187 -1.1129  0.1528
  305DG      C1 6993   5.469   0.289   2.081 -0.8636  0.6358 -0.3802
  305DG      C2 6994   5.098   0.513   1.658 -0.0284 -0.0270  0.1920
  305DG      H3 6995   5.456   0.389   2.113 -0.0350 -0.8243  0.0157
  305DG      H4 6996   5.527   0.301   1.984 -1.3042 -0.5083 -1.6896
  305DG      H5 6997   5.544   0.247   2.146  1.1990  3.6473 -1.1902
  305DG      H6 6998   5.027   0.529   1.579  0.7780 -0.4262 -0.8795
  305DG      H7 6999   5.110   0.608   1.721  0.5266  0.4794  0.5852
  305DG      H8 7000   5.198   0.479   1.624 -2.1499  1.3156  1.2114
  305DG      O9 7001   5.346   0.223   2.089  0.1405  0.2106 -0.2515
  305DG     O10 7002   5.045   0.417   1.747 -0.3379 -0.2157 -0.0558
  305DG     C11 7003   5.343   0.112   2.002 -0.3532 -0.1291 -0.4215
  305DG     C12 7004   5.002   0.293   1.691 -0.2470  0.1295 -0.4895
  305DG     H13 7005   5.379   0.024   2.051 -0.0543  0.4851 -2.2769
  305DG     H14 7006   5.410   0.124   1.910  1.6698 -1.9591  0.9847
  305DG     H15 7007   5.064   0.267   1.604 -1.7252  0.6040  1.9771
  305DG     H16 7008   4.896   0.292   1.658 -1.1156 -0.2266  0.4956
  305DG     C17 7009   5.201   0.090   1.951 -0.4874  0.4691 -0.7553
  305DG     C18 7010   5.029   0.186   1.800  0.2752  0.4754 -0.3785
  305DG     O19 7011   5.161   0.197   1.860  0.2196 -0.0340  0.0790
  305DG     H20 7012   5.127   0.082   2.033  3.0719 -0.8729 -0.6532
  305DG     H21 7013   5.192  -0.012   1.902 -0.7977 -1.6970  0.4064
  305DG     H22 7014   4.957   0.194   1.880  0.1119 -1.0914 -0.9975
  305DG     H23 7015   5.024   0.086   1.765 -2.7314 -1.6711  0.5731
  306DG      C1 7016   1.670   0.737   2.465  0.6216 -0.4764  0.2693
  306DG      C2 7017   2.232   0.387   3.014 -0.4914  0.3854  0.2065
  306DG      H3 7018   1.699   0.843   2.484  0.5079  0.5946  0.3382
  306DG      H4 7019   1.558   0.750   2.461  0.8680  0.8640  1.0624
  306DG      H5 7020   1.690   0.716   2.367 -0.6862 -1.8170  2.5949
  306DG      H6 7021   2.291   0.414   2.925 -0.1042 -0.6688 -2.0941
  306DG      H7 7022   2.257   0.459   3.092 -1.5899  0.9934  0.2371
  306DG      H8 7023   2.275   0.293   3.056 -0.3039 -1.3965  0.0350
  306DG      O9 7024   1.724   0.642   2.556  0.0397  0.4029 -0.0902
  306DG     O10 7025   2.086   0.376   2.989  0.3196  0.0580  0.0718
  306DG     C11 7026   1.672   0.677   2.688 -0.2402  0.0183 -0.1419
  306DG     C12 7027   2.043   0.462   2.889 -0.1134  0.1955  0.0892
  306DG     H13 7028   1.569   0.708   2.682  1.3450  0.5686 -0.4971
  306DG     H14 7029   1.725   0.756   2.725 -4.0457  0.4565 -3.2502
  306DG     H15 7030   2.094   0.432   2.796  0.1095 -0.7994  0.9481
  306DG     H16 7031   2.069   0.566   2.914  0.7036  3.2672 -0.1872
  306DG     C17 7032   1.703   0.563   2.782 -0.1682 -0.4196  0.6205
  306DG     C18 7033   1.893   0.451   2.883  0.0759  0.7436  0.7005
  306DG     O19 7034   1.842   0.528   2.776 -0.7092 -0.2118  0.1452
  306DG     H20 7035   1.636   0.479   2.756 -0.8448  0.9161  3.1722
  306DG     H21 7036   1.680   0.586   2.884 -1.6076  1.9059  2.2996
  306DG     H22 7037   1.856   0.345   2.880 -1.5934 -1.5739 -2.1684
  306DG     H23 7038   1.857   0.493   2.973  0.2316 -0.6111 -0.2829
  307DG      C1 7039   2.675   0.209   1.938 -0.1592 -0.2557 -0.1858
  307DG      C2 7040   2.605   0.222   2.451  0.4982 -0.0125  0.4491
  307DG      H3 7041   2.588   0.243   1.889  2.0943 -1.0941 -0.1895
  307DG      H4 7042   2.666   0.105   1.980 -1.2714  0.0185  0.4972
  307DG      H5 7043   2.750   0.214   1.851  1.1437 -2.0690 -3.7752
  307DG      H6 7044   2.587   0.250   2.551 -1.0065 -2.1878 -1.5591
  307DG      H7 7045   2.513   0.241   2.388 -2.8936  0.2234 -1.9946
  307DG      H8 7046   2.624   0.113   2.446 -2.2677  0.3524 -0.9326
  307DG      O9 7047   2.711   0.297   2.048 -0.4735  0.7435 -0.4505
  307DG     O10 7048   2.711   0.291   2.394  0.0994  1.1007  0.1979
  307DG     C11 7049   2.731   0.436   2.008  0.3132  0.1901 -0.1837
  307DG     C12 7050   2.716   0.428   2.437  0.3442 -0.4793 -0.5156
  307DG     H13 7051   2.650   0.473   1.943 -0.6543  2.8225  0.1916
  307DG     H14 7052   2.826   0.443   1.956  0.9283  1.2048  2.3673
  307DG     H15 7053   2.735   0.453   2.538 -1.7702  1.0109  0.3336
  307DG     H16 7054   2.619   0.480   2.422 -1.7698  5.5910  1.5187
  307DG     C17 7055   2.724   0.520   2.133 -0.7356  0.8369 -0.4323
  307DG     C18 7056   2.817   0.506   2.355  0.5593 -0.4838  0.7321
  307DG     O19 7057   2.824   0.470   2.218 -0.0564 -0.1436  0.3012
  307DG     H20 7058   2.623   0.506   2.172  0.7228  2.3173 -1.1519
  307DG     H21 7059   2.742   0.626   2.122  2.4728  1.6674 -0.5812
  307DG     H22 7060   2.794   0.611   2.374  0.0773  0.2208  1.4002
  307DG     H23 7061   2.918   0.483   2.386 -0.1420  0.6183 -1.6087
  308DG      C1 7062   3.643   2.819   5.225 -0.5271 -0.3626  0.0968
  308DG      C2 7063   3.722   2.457   4.736 -0.3865 -0.4912 -0.0217
  308DG      H3 7064   3.741   2.775   5.246  2.1382  0.5520 -0.4289
  308DG      H4 7065   3.591   2.854   5.316  1.8333 -0.9089  1.7405
  308DG      H5 7066   3.661   2.896   5.155  0.2816 -0.8090 -2.5588
  308DG      H6 7067   3.759   2.558   4.707 -0.4718  0.4177 -0.6814
  308DG      H7 7068   3.812   2.399   4.749  1.0211  2.2126 -0.7500
  308DG      H8 7069   3.656   2.422   4.655 -0.3496 -0.4575 -0.0208
  308DG      O9 7070   3.551   2.731   5.169 -0.1340  0.7435 -0.3045
  308DG     O10 7071   3.653   2.460   4.857 -0.6041  0.6797  0.3534
  308DG     C11 7072   3.511   2.627   5.252  0.1641  0.0439  0.3068
  308DG     C12 7073   3.593   2.341   4.901  0.0096 -0.2359  0.3252
  308DG     H13 7074   3.461   2.645   5.345  1.4639 -0.0431  0.6133
  308DG     H14 7075   3.601   2.568   5.278  1.4896 -0.8370  1.1019
  308DG     H15 7076   3.674   2.264   4.900 -0.1858  1.5855  0.1952
  308DG     H16 7077   3.515   2.319   4.830  4.2100 -0.6693 -2.9022
  308DG     C17 7078   3.425   2.514   5.179  0.0061 -0.3164 -0.0349
  308DG     C18 7079   3.531   2.358   5.037 -0.7201  0.1992  0.3607
  308DG     O19 7080   3.481   2.487   5.051  0.2004 -0.1525  0.2757
  308DG     H20 7081   3.331   2.546   5.149  0.8719  1.0700  0.3035
  308DG     H21 7082   3.410   2.425   5.239  4.5296 -1.9130 -0.6036
  308DG     H22 7083   3.448   2.288   5.042  1.6950  0.1156 -0.5409
  308DG     H23 7084   3.600   2.347   5.117  0.2829  0.8495  1.6510
  309DG      C1 7085   1.151   2.782   3.768 -1.1153 -0.0198  0.0892
  309DG      C2 7086   1.562   2.362   3.969  0.7398 -0.5231 -0.0448
  309DG      H3 7087   1.067   2.715   3.772 -0.6274 -0.0199  0.6647
  309DG      H4 7088   1.208   2.738   3.683  1.7883  0.1085  0.3987
  309DG      H5 7089   1.118   2.881   3.747 -1.1064 -1.9004  1.3200
  309DG      H6 7090   1.659   2.382   3.925  1.2043 -0.1707  0.3500
  309DG      H7 7091   1.559   2.277   4.036 -3.3384  0.9039 -1.0267
  309DG      H8 7092   1.502   2.328   3.879 -1.0289 -0.9986  1.1357
  309DG      O9 7093   1.235   2.766   3.883  0.4475 -0.0832 -0.1126
  309DG     O10 7094   1.501   2.484   4.028 -0.6885  0.3614 -0.1741
  309DG     C11 7095   1.176   2.807   4.007 -0.4635  0.4720 -0.1830
  309DG     C12 7096   1.461   2.469   4.166  0.4940  0.1656  0.2084
  309DG     H13 7097   1.081   2.753   4.026 -0.1898 -0.3163 -1.7424
  309DG     H14 7098   1.164   2.913   3.999  0.6476 -2.4804  0.8160
  309DG     H15 7099   1.546   2.438   4.232  2.0255  0.0634  2.3887
  309DG     H16 7100   1.389   2.391   4.162  0.1718  3.4539 -1.6474
  309DG     C17 7101   1.267   2.783   4.129 -0.6672 -0.4465 -0.1599
  309DG     C18 7102   1.403   2.607   4.215  0.3475 -0.0761 -0.0021
  309DG     O19 7103   1.284   2.644   4.144 -0.4568 -0.1243 -0.4135
  309DG     H20 7104   1.205   2.814   4.212 -0.2642 -1.5839 -2.5767
  309DG     H21 7105   1.349   2.848   4.116  0.5450 -1.0124  1.2597
  309DG     H22 7106   1.385   2.595   4.325 -0.7243  4.4284 -3.5306
  309DG     H23 7107   1.491   2.686   4.200  0.2343 -0.3098 -2.8467
  310DG      C1 7108   0.895   0.346   0.999  0.1734  0.2261  0.3023
  310DG      C2 7109   0.476   0.293   1.703  0.5983 -0.0051  0.1284
  310DG      H3 7110   0.917   0.266   0.938  1.6534 -0.4493  1.2415
  310DG      H4 7111   0.988   0.354   1.066  3.0929  0.4447 -1.0309
  310DG      H5 7112   0.894   0.428   0.927 -1.4245 -0.8719  0.9556
  310DG      H6 7113   0.384   0.335   1.749  1.7573 -1.5529  0.2266
  310DG      H7 7114   0.458   0.193   1.660  1.4650  0.2982  2.1066
  310DG      H8 7115   0.539   0.281   1.785 -0.7499  1.1452 -3.1469
  310DG      O9 7116   0.774   0.343   1.077  0.0011 -0.0062  0.0344
  310DG     O10 7117   0.541   0.376   1.605  0.0940 -0.5509  0.1594
  310DG     C11 7118   0.758   0.231   1.172 -0.2935 -0.2241 -0.5563
  310DG     C12 7119   0.456   0.414   1.500 -0.7636  0.3823  0.4626
  310DG     H13 7120   0.829   0.234   1.253 -0.9611 -1.2912  2.2493
  310DG     H14 7121   0.790   0.141   1.108 -0.0847  2.0582  1.0309
  310DG     H15 7122   0.500   0.510   1.469  0.2887  2.4387 -0.0393
  310DG     H16 7123   0.356   0.431   1.521 -2.6136  2.4055 -2.5436
  310DG     C17 7124   0.613   0.218   1.222  0.2087  0.1810  0.1439
  310DG     C18 7125   0.463   0.316   1.381 -0.1874  0.1125 -0.3786
  310DG     O19 7126   0.593   0.317   1.320  0.2096 -0.3329  0.4430
  310DG     H20 7127   0.598   0.115   1.254 -1.7202  0.0908  2.5746
  310DG     H21 7128   0.536   0.235   1.142 -4.2611  3.6304 -0.2533
  310DG     H22 7129   0.435   0.217   1.413 -0.8427 -0.6849 -1.5936
  310DG     H23 7130   0.386   0.346   1.306 -0.6153  0.8332 -1.9608
  311DG      C1 7131   1.009   5.349   3.987 -0.0052  0.1051  0.2136
  311DG      C2 7132   1.199   4.845   4.671 -0.6179 -0.3147 -0.0405
  311DG      H3 7133   1.011   5.283   3.896  0.9155 -2.2273  2.1677
  311DG      H4 7134   1.060   5.445   3.970 -3.5526  1.6132 -1.5603
  311DG      H5 7135   0.912   5.375   4.012  3.0232  0.4499 -2.2603
  311DG      H6 7136   1.224   4.775   4.586  0.1507 -0.1483  1.2712
  311DG      H7 7137   1.296   4.882   4.707  1.2918 -1.8382  1.2959
  311DG      H8 7138   1.147   4.779   4.734  0.3395  0.4872  1.0422
  311DG      O9 7139   1.064   5.289   4.099  0.3031 -0.4537  0.3732
  311DG     O10 7140   1.126   4.956   4.610 -0.6733 -0.1883 -0.8124
  311DG     C11 7141   1.094   5.390   4.194 -0.1739  0.4568  0.3843
  311DG     C12 7142   1.208   5.036   4.528  0.1689 -0.0524 -0.2191
  311DG     H13 7143   1.028   5.482   4.191 -1.2092 -2.5891 -0.7831
  311DG     H14 7144   1.203   5.421   4.192  0.1909 -0.2250 -2.8107
  311DG     H15 7145   1.224   4.979   4.437  0.6983  1.7843  0.9937
  311DG     H16 7146   1.301   5.072   4.573 -1.2109 -1.9678  0.9990
  311DG     C17 7147   1.074   5.335   4.331 -0.3627  0.7533  0.1206
  311DG     C18 7148   1.122   5.163   4.489 -0.2868 -0.2338 -0.1674
  311DG     O19 7149   1.167   5.228   4.366 -0.0025  0.5863 -0.1445
  311DG     H20 7150   0.969   5.298   4.325  2.3852 -0.7772 -2.7227
  311DG     H21 7151   1.081   5.407   4.419 -0.0993 -0.6220  2.1766
  311DG     H22 7152   1.028   5.129   4.466 -0.0258 -0.8213  0.0595
  311DG     H23 7153   1.125   5.227   4.578  1.4588  1.7496 -0.8539
  312DG      C1 7154   3.536   3.474   3.075  0.4812 -0.6551  1.5099
  312DG      C2 7155   4.026   3.574   3.627 -0.3289 -0.2145  0.7465
  312DG      H3 7156   3.482   3.396   3.122 -1.6809  2.7695  0.5555
  312DG      H4 7157   3.616   3.432   3.017 -0.8957 -0.0826 -2.8303
  312DG      H5 7158   3.472   3.523   3.007 -3.8314  1.1840  2.5391
  312DG      H6 7159   4.079   3.627   3.705 -1.6121 -2.3348 -1.3944
  312DG      H7 7160   3.965   3.485   3.653 -0.2261 -4.1591 -0.5542
  312DG      H8 7161   4.108   3.541   3.557 -0.3280 -2.1741  0.7289
  312DG      O9 7162   3.601   3.548   3.176 -0.7239  0.3072 -0.1575
  312DG     O10 7163   3.946   3.665   3.544  0.1069  0.1116 -0.0805
  312DG     C11 7164   3.516   3.651   3.223 -0.0424  0.1464  0.2872
  312DG     C12 7165   3.821   3.700   3.601 -0.5507  0.1668  0.5842
  312DG     H13 7166   3.427   3.627   3.282  0.2535 -0.1096 -0.4910
  312DG     H14 7167   3.465   3.703   3.143  3.2031 -2.6385  1.0049
  312DG     H15 7168   3.838   3.763   3.688 -0.1616 -1.6807  1.0692
  312DG     H16 7169   3.779   3.611   3.641  0.1321 -1.8794 -0.1096
  312DG     C17 7170   3.606   3.754   3.301  0.0435 -0.6338 -0.3162
  312DG     C18 7171   3.736   3.776   3.497 -0.1414 -0.4916  1.0853
  312DG     O19 7172   3.661   3.689   3.411  0.5219  0.3232 -0.5857
  312DG     H20 7173   3.542   3.837   3.322 -0.3174 -1.3834 -2.3596
  312DG     H21 7174   3.687   3.796   3.233  0.5892  0.2405 -3.0359
  312DG     H22 7175   3.654   3.838   3.552 -3.2919  2.2299  1.1964
  312DG     H23 7176   3.799   3.842   3.444 -1.3875 -2.6755 -0.6830
  313DG      C1 7177   1.818   4.524   2.832  1.1350  0.6382 -0.2553
  313DG      C2 7178   1.867   4.508   2.181 -0.5307 -0.2180  0.3927
  313DG      H3 7179   1.727   4.468   2.810 -1.8661  1.6483 -0.7906
  313DG      H4 7180   1.802   4.628   2.838  2.3371  0.2608  1.5838
  313DG      H5 7181   1.859   4.487   2.925  2.6445  1.0042  1.3453
  313DG      H6 7182   1.908   4.479   2.082 -0.7029 -2.1170  0.2721
  313DG      H7 7183   1.833   4.416   2.229 -0.0637 -0.6064 -0.1230
  313DG      H8 7184   1.775   4.564   2.156  0.3797 -0.4710  1.3163
  313DG      O9 7185   1.913   4.484   2.729 -0.2149 -0.1832 -0.1955
  313DG     O10 7186   1.962   4.573   2.269  0.0537 -0.1485 -0.0520
  313DG     C11 7187   2.046   4.534   2.756  0.5289 -0.1728  0.5290
  313DG     C12 7188   2.083   4.499   2.297 -0.3589 -0.1151  0.1984
  313DG     H13 7189   2.080   4.474   2.843 -0.9475  1.4557 -0.4712
  313DG     H14 7190   2.059   4.634   2.800  1.4654 -2.1132  2.4194
  313DG     H15 7191   2.144   4.500   2.208 -0.2781 -1.0620 -1.4158
  313DG     H16 7192   2.063   4.400   2.337  0.5669  1.1800 -1.0515
  313DG     C17 7193   2.128   4.497   2.634  0.1083 -0.0662 -0.3784
  313DG     C18 7194   2.154   4.582   2.404 -0.0760  0.1977  0.3076
  313DG     O19 7195   2.075   4.575   2.524  0.5007 -0.5033 -0.2374
  313DG     H20 7196   2.112   4.390   2.612 -0.4101 -0.7571 -1.2383
  313DG     H21 7197   2.231   4.514   2.645 -1.4759 -1.3752 -4.7736
  313DG     H22 7198   2.246   4.544   2.425 -0.2283  0.2446 -0.0282
  313DG     H23 7199   2.179   4.685   2.368  1.4118  2.4601 -1.2895
  314DG      C1 7200   5.256   2.530   3.723 -0.7161  0.2417  0.0158
  314DG      C2 7201   4.467   2.011   3.856 -0.2812 -0.6211 -0.1476
  314DG      H3 7202   5.350   2.576   3.754 -1.4383 -1.5552 -0.6835
  314DG      H4 7203   5.215   2.598   3.657  2.6828 -0.1812 -1.4019
  314DG      H5 7204   5.282   2.450   3.656 -0.5552 -0.2433  2.1888
  314DG      H6 7205   4.374   2.051   3.889 -1.0211  3.7191  1.5405
  314DG      H7 7206   4.475   2.012   3.751  1.5386  0.0503 -1.2160
  314DG      H8 7207   4.481   1.909   3.882 -0.0164 -1.5521  2.2924
  314DG      O9 7208   5.161   2.505   3.825  0.2989  0.3689 -0.1415
  314DG     O10 7209   4.575   2.086   3.921  0.0105  0.2647 -0.3181
  314DG     C11 7210   5.045   2.441   3.771 -0.0127  0.1327 -0.4025
  314DG     C12 7211   4.667   2.161   3.835  0.5298  0.0747 -0.5397
  314DG     H13 7212   5.082   2.352   3.710  1.6172  0.3736  0.5904
  314DG     H14 7213   5.009   2.516   3.703  1.4943  2.1826  1.2872
  314DG     H15 7214   4.614   2.230   3.775  1.4809 -2.2591  1.4904
  314DG     H16 7215   4.707   2.086   3.769  0.3793 -1.1400  1.5190
  314DG     C17 7216   4.942   2.408   3.881  0.4440  0.1127 -0.2868
  314DG     C18 7217   4.760   2.246   3.918 -0.2122  0.3718 -0.0280
  314DG     O19 7218   4.852   2.305   3.824 -0.1267  0.5203  0.1112
  314DG     H20 7219   4.889   2.495   3.927 -0.3718  0.9396 -2.1486
  314DG     H21 7220   5.003   2.365   3.955  0.1504 -1.7212  0.1682
  314DG     H22 7221   4.699   2.327   3.967 -3.6943 -0.1437 -2.2423
  314DG     H23 7222   4.819   2.197   3.992  0.4688 -2.2067 -1.5907
  315DG      C1 7223   4.624   1.185   0.069 -0.5313  0.2572 -0.1489
  315DG      C2 7224   4.598   1.404   0.770  0.1212  0.5160  0.3002
  315DG      H3 7225   4.707   1.255   0.080 -0.5660 -0.2629  0.6499
  315DG      H4 7226   4.550   1.243   0.026  0.7163 -0.6256  0.7330
  315DG      H5 7227   4.650   1.104  -0.001  3.6433 -1.8524  0.2695
  315DG      H6 7228   4.495   1.381   0.751 -0.3098  0.9035 -1.4285
  315DG      H7 7229   4.613   1.423   0.872  2.2736 -0.2897 -0.6624
  315DG      H8 7230   4.613   1.502   0.721  0.9211  0.0685  1.3272
  315DG      O9 7231   4.585   1.131   0.193 -0.4020 -0.2467 -0.0401
  315DG     O10 7232   4.683   1.310   0.707 -0.0655 -0.1019 -0.0244
  315DG     C11 7233   4.701   1.080   0.253 -0.1413  1.5423  0.7646
  315DG     C12 7234   4.635   1.178   0.724 -0.0764 -0.9722  0.0238
  315DG     H13 7235   4.780   1.154   0.265  0.8296  0.8930  1.4030
  315DG     H14 7236   4.747   1.007   0.189 -2.5642 -1.9250  2.1433
  315DG     H15 7237   4.523   1.169   0.729  0.6469 -0.4237  2.4444
  315DG     H16 7238   4.682   1.144   0.822  0.0248 -0.3243  2.0673
  315DG     C17 7239   4.679   1.005   0.392  0.4535 -0.1083  0.2243
  315DG     C18 7240   4.686   1.075   0.620  0.2102  0.4032 -0.3187
  315DG     O19 7241   4.646   1.106   0.494  0.3547  0.2606  0.5152
  315DG     H20 7242   4.770   0.939   0.418  0.6430  1.4511 -0.3931
  315DG     H21 7243   4.597   0.929   0.390 -2.4026 -1.3883  0.5873
  315DG     H22 7244   4.796   1.065   0.628 -1.1180  0.8614  1.4468
  315DG     H23 7245   4.655   0.973   0.655 -0.1938  0.1726  2.3826
  316DG      C1 7246   2.701   2.784   2.256 -0.3617  0.4149 -0.1638
  316DG      C2 7247   2.746   2.546   1.886 -0.5381 -0.4130  1.0160
  316DG      H3 7248   2.728   2.684   2.283  0.4921  1.0862  1.6934
  316DG      H4 7249   2.606   2.824   2.302 -0.5334 -0.8421  0.7554
  316DG      H5 7250   2.778   2.845   2.302 -3.5291  1.9287 -0.4510
  316DG      H6 7251   2.809   2.461   1.903  0.4742 -1.2269 -1.3874
  316DG      H7 7252   2.806   2.640   1.909 -2.1599  2.0725 -1.9705
  316DG      H8 7253   2.678   2.550   1.964  1.5571 -0.1305  1.0954
  316DG      O9 7254   2.694   2.799   2.113  0.2244  0.0260  0.2700
  316DG     O10 7255   2.682   2.539   1.760  0.0972  0.4849  0.1365
  316DG     C11 7256   2.618   2.911   2.071 -0.2655  0.0011  0.5173
  316DG     C12 7257   2.652   2.668   1.702 -0.3358 -0.0479 -0.4182
  316DG     H13 7258   2.671   3.003   2.109  0.5218  1.7351 -1.5965
  316DG     H14 7259   2.511   2.907   2.105 -6.4043  0.6104  0.7205
  316DG     H15 7260   2.631   2.657   1.600 -0.7183 -1.3364  0.1082
  316DG     H16 7261   2.743   2.724   1.700 -1.5916  1.3582  2.0374
  316DG     C17 7262   2.608   2.904   1.923  0.0886  0.3683 -0.1672
  316DG     C18 7263   2.528   2.742   1.758  0.3454  0.1954 -0.1759
  316DG     O19 7264   2.552   2.772   1.896  0.1235  0.2419  0.4255
  316DG     H20 7265   2.703   2.919   1.872 -0.0981  3.0761  0.2805
  316DG     H21 7266   2.542   2.983   1.892 -2.8168 -0.7948  1.7682
  316DG     H22 7267   2.498   2.828   1.701 -3.2749 -0.3548 -0.1559
  316DG     H23 7268   2.441   2.674   1.758 -1.2169  0.2655  3.4654
  317DG      C1 7269   3.661   1.064   0.758  0.2642 -0.0041  0.3722
  317DG      C2 7270   3.815   1.713   0.422  0.2386 -0.5324 -0.2087
  317DG      H3 7271   3.633   1.022   0.848  0.2494  0.7883  0.2062
  317DG      H4 7272   3.760   1.034   0.722 -1.6137 -0.5636  0.3210
  317DG      H5 7273   3.587   1.015   0.691 -0.1990  0.5211  0.4370
  317DG      H6 7274   3.724   1.681   0.369 -0.6136 -1.9560  2.6105
  317DG      H7 7275   3.831   1.825   0.426  1.8868 -0.6379  2.1745
  317DG      H8 7276   3.901   1.688   0.362 -1.6281 -0.0401 -1.1786
  317DG      O9 7277   3.654   1.204   0.755  0.2746 -0.0104  0.3429
  317DG     O10 7278   3.836   1.659   0.549 -0.3000  0.4407  0.6184
  317DG     C11 7279   3.762   1.259   0.834  0.2855 -0.1451 -0.5520
  317DG     C12 7280   3.719   1.688   0.627  0.3941 -0.6228  0.3284
  317DG     H13 7281   3.854   1.246   0.783  1.9556 -2.5712  1.6625
  317DG     H14 7282   3.780   1.203   0.931 -1.4426  0.6073  0.5719
  317DG     H15 7283   3.628   1.635   0.580 -2.2191 -0.5763 -1.0549
  317DG     H16 7284   3.707   1.790   0.647  0.0810  1.7633  2.5298
  317DG     C17 7285   3.750   1.407   0.865 -0.4613  0.4235  0.0568
  317DG     C18 7286   3.730   1.619   0.758  0.1138 -0.6357 -0.0652
  317DG     O19 7287   3.757   1.479   0.739  0.0654  0.1601 -0.1275
  317DG     H20 7288   3.831   1.445   0.928 -0.8047  1.0082  0.8031
  317DG     H21 7289   3.653   1.430   0.920 -1.2752  0.7006 -1.3361
  317DG     H22 7290   3.823   1.651   0.813  0.4364 -3.8810 -0.8622
  317DG     H23 7291   3.646   1.638   0.811  1.2207 -1.4902  0.6267
  318DG      C1 7292   0.933   4.209   1.082 -0.9263 -0.4959  0.7087
  318DG      C2 7293   0.841   4.347   1.949 -0.0729 -0.3349  0.3599
  318DG      H3 7294   0.954   4.317   1.065  1.3113  2.3994 -1.3925
  318DG      H4 7295   0.833   4.176   1.050 -0.1676  0.7270  0.4810
  318DG      H5 7296   0.997   4.155   1.007  0.9209 -0.4785 -1.5255
  318DG      H6 7297   0.738   4.317   1.921  0.2375  0.5353 -0.4531
  318DG      H7 7298   0.869   4.288   2.035  0.1925  1.3293 -1.2700
  318DG      H8 7299   0.827   4.451   1.973  0.5089  0.5947  1.4306
  318DG      O9 7300   0.972   4.159   1.205  0.0891 -0.5260 -0.1002
  318DG     O10 7301   0.934   4.329   1.848 -0.2260 -0.2187 -0.0100
  318DG     C11 7302   0.929   4.235   1.319  0.3715  0.8067 -0.5809
  318DG     C12 7303   0.904   4.414   1.738 -0.2718 -0.9716  0.4983
  318DG     H13 7304   0.823   4.216   1.314 -0.4449 -0.9995  0.0805
  318DG     H14 7305   0.947   4.339   1.309 -0.6230  0.2628 -1.2262
  318DG     H15 7306   0.944   4.508   1.766 -2.4654 -1.5232  0.5757
  318DG     H16 7307   0.794   4.433   1.720  0.6105 -1.1605 -0.8922
  318DG     C17 7308   1.000   4.186   1.445  0.4326  0.8126 -1.3563
  318DG     C18 7309   0.951   4.370   1.596 -0.3365 -0.1787 -0.0207
  318DG     O19 7310   0.930   4.232   1.564 -0.1996 -0.6632 -0.1437
  318DG     H20 7311   1.103   4.220   1.449  1.1968 -3.1669  3.5540
  318DG     H21 7312   1.007   4.073   1.446  0.0582 -1.9425  0.6093
  318DG     H22 7313   0.915   4.423   1.512  3.9888 -0.3892  0.0136
  318DG     H23 7314   1.058   4.380   1.591  0.0519 -1.2540  1.1750
  319DG      C1 7315   5.025   1.394   3.885 -0.0973  0.5876 -0.4804
  319DG      C2 7316   4.984   1.076   4.460 -0.1614  0.9039 -0.4501
  319DG      H3 7317   4.973   1.393   3.789 -0.2232  2.4317  1.7070
  319DG      H4 7318   5.111   1.328   3.866 -1.3889 -0.2027  2.7148
  319DG      H5 7319   5.056   1.493   3.905  3.0559  0.5474 -4.5208
  319DG      H6 7320   5.063   1.009   4.428  0.1400 -1.5354 -1.5891
  319DG      H7 7321   5.032   1.156   4.521  1.8284 -1.7437  0.1140
  319DG      H8 7322   4.927   1.012   4.530  0.7768 -2.3453 -0.7494
  319DG      O9 7323   4.931   1.340   3.982  0.5055  1.1503 -0.1615
  319DG     O10 7324   4.899   1.129   4.362 -0.2949  0.0907  0.4948
  319DG     C11 7325   4.812   1.419   3.980 -0.0528  0.2570 -0.2777
  319DG     C12 7326   4.786   1.200   4.406  0.1148 -1.1712 -0.1176
  319DG     H13 7327   4.761   1.416   3.883  0.0149  0.9638 -0.0900
  319DG     H14 7328   4.832   1.522   3.999  3.0703  3.1559 -1.0055
  319DG     H15 7329   4.813   1.282   4.467 -1.4556 -2.0256 -0.5023
  319DG     H16 7330   4.721   1.147   4.480  0.9010  0.2333 -0.4126
  319DG     C17 7331   4.720   1.345   4.084  0.1399  0.3915 -0.0087
  319DG     C18 7332   4.698   1.255   4.289 -0.0306 -0.2302 -0.1528
  319DG     O19 7333   4.793   1.292   4.196 -0.0009  0.4509 -0.1028
  319DG     H20 7334   4.678   1.257   4.034 -0.2308  1.2445 -2.5381
  319DG     H21 7335   4.646   1.414   4.110 -0.3549 -1.7502  3.0703
  319DG     H22 7336   4.636   1.175   4.251 -0.3236  0.4328 -0.6864
  319DG     H23 7337   4.631   1.345   4.319  0.9703  1.6241 -1.5387
  320DG      C1 7338   4.543   5.132   2.718  0.0572 -0.2773 -1.0780
  320DG      C2 7339   5.252   4.656   2.600 -0.1780 -0.0021 -0.5291
  320DG      H3 7340   4.572   5.190   2.633 -1.1980 -0.5394 -2.7747
  320DG      H4 7341   4.482   5.191   2.781 -1.4460  1.9666 -0.2623
  320DG      H5 7342   4.480   5.054   2.663 -1.9901 -2.4414  0.7930
  320DG      H6 7343   5.273   4.720   2.514 -0.4477  1.1429 -1.0304
  320DG      H7 7344   5.324   4.686   2.679  1.4422 -0.0298  1.0762
  320DG      H8 7345   5.271   4.555   2.576 -0.0057 -1.3456 -2.5691
  320DG      O9 7346   4.652   5.061   2.776  0.0457  0.4855 -0.2078
  320DG     O10 7347   5.115   4.694   2.647 -0.8066  0.3145 -0.0631
  320DG     C11 7348   4.730   4.974   2.690 -0.2102  0.0556  0.0909
  320DG     C12 7349   5.064   4.639   2.761  0.0485 -0.3448 -0.3928
  320DG     H13 7350   4.786   5.015   2.603 -1.1586 -0.2701 -0.0794
  320DG     H14 7351   4.666   4.913   2.644  3.3336  2.2687  1.1530
  320DG     H15 7352   5.145   4.610   2.830 -0.5163 -0.1850  3.3479
  320DG     H16 7353   5.011   4.557   2.721 -1.1297  0.8024  1.7988
  320DG     C17 7354   4.820   4.913   2.790 -0.0016  0.0679  0.0394
  320DG     C18 7355   4.985   4.749   2.827 -0.8841  0.1469  0.3134
  320DG     O19 7356   4.909   4.819   2.728  0.4687 -0.0615 -0.0642
  320DG     H20 7357   4.757   4.860   2.860 -0.7078 -1.8127 -1.4306
  320DG     H21 7358   4.868   4.996   2.842  0.4364  2.8230  1.0971
  320DG     H22 7359   4.923   4.712   2.912 -0.0672  1.6094  1.8741
  320DG     H23 7360   5.058   4.822   2.862  1.4515 -1.0114 -1.3320
  321DG      C1 7361   5.348   0.092   3.245  1.1153  0.0931 -0.0820
  321DG      C2 7362   6.019   0.279   3.690 -0.1177 -0.2051 -0.2024
  321DG      H3 7363   5.280   0.040   3.181 -0.5237 -2.2709  1.6439
  321DG      H4 7364   5.302   0.184   3.283  0.4780 -0.6763 -1.4855
  321DG      H5 7365   5.389   0.037   3.333  1.3459 -0.7811  0.4438
  321DG      H6 7366   6.119   0.320   3.664  1.9308 -1.1650  1.9370
  321DG      H7 7367   5.958   0.357   3.733  1.2504  0.0050 -1.4481
  321DG      H8 7368   6.034   0.214   3.776 -2.1596  1.5668 -3.6892
  321DG      O9 7369   5.460   0.120   3.165  0.0151  0.1143 -0.6005
  321DG     O10 7370   5.952   0.221   3.582  0.3766  0.2081  0.2543
  321DG     C11 7371   5.572   0.195   3.226 -0.3776  0.2152  0.3847
  321DG     C12 7372   5.939   0.316   3.481  0.0182 -0.6903 -0.1086
  321DG     H13 7373   5.519   0.277   3.277 -0.0774  2.4897 -0.0871
  321DG     H14 7374   5.639   0.242   3.152 -1.2391  1.0819  2.0494
  321DG     H15 7375   6.036   0.346   3.438 -0.1930 -1.2314  2.1067
  321DG     H16 7376   5.895   0.410   3.520  1.4286 -2.6017 -0.3681
  321DG     C17 7377   5.662   0.113   3.313 -0.4319  0.5037  0.0393
  321DG     C18 7378   5.858   0.265   3.360  0.0216 -0.0607 -0.3165
  321DG     O19 7379   5.741   0.191   3.405 -1.0061 -0.4649 -0.3354
  321DG     H20 7380   5.732   0.055   3.252  0.5373 -0.5317 -1.8564
  321DG     H21 7381   5.612   0.044   3.382  1.5313  1.0241 -0.4813
  321DG     H22 7382   5.841   0.354   3.303 -2.0114  2.7552 -1.4240
  321DG     H23 7383   5.916   0.200   3.300  0.7491  0.7795  1.1721
  322DG      C1 7384   0.222   4.354   4.390 -0.4010  0.5592 -0.7313
  322DG      C2 7385   1.036   4.513   4.371 -0.3475 -0.0944  0.5108
  322DG      H3 7386   0.248   4.424   4.309  1.5733  1.0579 -2.5872
  322DG      H4 7387   0.120   4.364   4.423 -0.0254 -0.5682  0.1712
  322DG      H5 7388   0.239   4.249   4.349  1.0999 -1.2545 -1.4246
  322DG      H6 7389   1.086   4.418   4.360 -3.2977 -1.0150 -0.3010
  322DG      H7 7390   1.014   4.552   4.273  0.7543 -1.1641  0.7123
  322DG      H8 7391   1.096   4.591   4.420 -0.1145 -0.5369  0.9152
  322DG      O9 7392   0.306   4.366   4.509 -0.4548 -0.4458 -0.0649
  322DG     O10 7393   0.912   4.498   4.436  0.1994  0.2884  0.3397
  322DG     C11 7394   0.445   4.338   4.486  0.6122  0.3951  0.5560
  322DG     C12 7395   0.919   4.434   4.566  0.1853 -0.4319  0.0764
  322DG     H13 7396   0.470   4.380   4.386 -0.2631 -0.4319  1.9701
  322DG     H14 7397   0.455   4.225   4.476  3.1481 -2.4755  1.2972
  322DG     H15 7398   0.999   4.466   4.632 -0.5275 -1.6211 -0.7471
  322DG     H16 7399   0.939   4.326   4.544  1.0927  1.2332  1.2161
  322DG     C17 7400   0.543   4.398   4.588  0.3250  0.0617 -0.4150
  322DG     C18 7401   0.779   4.447   4.623  0.2045  0.5294  0.0602
  322DG     O19 7402   0.676   4.385   4.540 -0.0168  0.1719 -0.0708
  322DG     H20 7403   0.535   4.329   4.671  0.8160  0.5000  1.2136
  322DG     H21 7404   0.524   4.502   4.616  0.8508  0.7833 -0.9352
  322DG     H22 7405   0.775   4.396   4.718 -1.5050  0.5276 -1.6089
  322DG     H23 7406   0.760   4.552   4.626  2.4690  1.5594 -1.6913
  323DG      C1 7407   1.169   3.245   4.714 -0.1127 -0.3153 -0.9050
  323DG      C2 7408   0.379   3.609   4.840  0.0847  0.2068 -0.0650
  323DG      H3 7409   1.116   3.167   4.667 -0.9553 -1.1900 -0.4432
  323DG      H4 7410   1.174   3.222   4.819  0.0078 -1.5874  0.1814
  323DG      H5 7411   1.268   3.246   4.673 -3.3313  0.4721  3.8086
  323DG      H6 7412   0.299   3.568   4.782  1.6375 -1.8035 -0.7074
  323DG      H7 7413   0.396   3.542   4.929  2.7088  2.2227 -0.3273
  323DG      H8 7414   0.356   3.706   4.873  0.9194  2.7258  1.9317
  323DG      O9 7415   1.108   3.373   4.688 -0.6871  0.0192  0.8815
  323DG     O10 7416   0.499   3.621   4.766  0.7934 -0.0893  0.1424
  323DG     C11 7417   0.968   3.386   4.723 -0.3912  0.3393  0.1423
  323DG     C12 7418   0.610   3.672   4.835 -0.4743 -0.4517 -0.2726
  323DG     H13 7419   0.943   3.369   4.831 -1.7141  0.4855  1.1549
  323DG     H14 7420   0.920   3.301   4.674  2.8475 -0.3320  2.0924
  323DG     H15 7421   0.624   3.620   4.933  1.5546  2.6898  0.6559
  323DG     H16 7422   0.581   3.770   4.875  0.2007 -1.6280  0.1733
  323DG     C17 7423   0.909   3.529   4.687 -0.6015  0.4272  0.4214
  323DG     C18 7424   0.734   3.676   4.739  1.0501 -0.3509 -0.5928
  323DG     O19 7425   0.774   3.539   4.730 -0.1183  0.2870 -0.1930
  323DG     H20 7426   0.914   3.541   4.577  2.2430 -0.4729  1.2094
  323DG     H21 7427   0.972   3.592   4.743 -0.1011  2.4020  2.7582
  323DG     H22 7428   0.690   3.719   4.652 -3.1896  2.5041 -0.2288
  323DG     H23 7429   0.809   3.739   4.783 -0.4630  0.5362  2.8091
  324DG      C1 7430   2.270   0.930   3.083 -0.2955  0.1179  0.5053
  324DG      C2 7431   2.633   1.604   2.847  0.0361 -0.2451 -0.6997
  324DG      H3 7432   2.350   0.863   3.068 -0.5180 -0.4202  1.7926
  324DG      H4 7433   2.172   0.892   3.050 -0.9542  1.3230 -3.0031
  324DG      H5 7434   2.271   0.933   3.191  0.4438 -1.2749 -0.2857
  324DG      H6 7435   2.602   1.547   2.762 -0.1679  0.1054  1.2819
  324DG      H7 7436   2.614   1.711   2.816 -1.9555  3.2599 -1.5237
  324DG      H8 7437   2.742   1.595   2.861  2.6293  1.2942 -0.3817
  324DG      O9 7438   2.306   1.057   3.033 -1.0595  0.0583 -0.5242
  324DG     O10 7439   2.555   1.563   2.970 -0.3319 -0.3537  0.4031
  324DG     C11 7440   2.405   1.124   3.115  0.0541  0.1392 -0.9298
  324DG     C12 7441   2.414   1.570   2.947  0.2261  0.1356 -0.2153
  324DG     H13 7442   2.490   1.118   3.045 -0.4566  2.0817  0.4678
  324DG     H14 7443   2.431   1.086   3.209  0.3259  1.0120 -0.3277
  324DG     H15 7444   2.399   1.508   2.856 -3.2476  0.3927  0.4153
  324DG     H16 7445   2.373   1.670   2.939  1.0357  0.4144 -0.7992
  324DG     C17 7446   2.373   1.270   3.141 -0.0658  0.3890 -0.3876
  324DG     C18 7447   2.354   1.498   3.062 -0.0500  0.2090  0.2857
  324DG     O19 7448   2.371   1.355   3.030 -0.5058 -0.0122  0.2859
  324DG     H20 7449   2.451   1.301   3.218 -1.1556 -1.5548 -2.1087
  324DG     H21 7450   2.278   1.287   3.190 -2.0998 -2.5434 -1.3742
  324DG     H22 7451   2.407   1.525   3.149 -0.3503 -2.8521 -0.5610
  324DG     H23 7452   2.242   1.504   3.056 -0.3272 -0.6862  1.8818
  325DG      C1 7453   1.564   3.176   3.261 -0.3986  0.1152 -0.1026
  325DG      C2 7454   2.101   2.564   3.203 -0.1205 -0.4512  0.3081
  325DG      H3 7455   1.643   3.248   3.271 -1.2586 -0.7045  0.8853
  325DG      H4 7456   1.542   3.147   3.362  1.3775 -1.4539 -2.3818
  325DG      H5 7457   1.476   3.216   3.220 -0.4727  0.0975  1.5885
  325DG      H6 7458   2.043   2.491   3.256  0.1622 -1.4045 -0.0430
  325DG      H7 7459   2.194   2.522   3.162  2.4682 -0.6642  0.4783
  325DG      H8 7460   2.133   2.632   3.278 -0.5655  0.6175 -1.5990
  325DG      O9 7461   1.609   3.063   3.183 -0.0983 -0.5659 -0.3981
  325DG     O10 7462   2.019   2.624   3.104  0.2325 -0.1566  0.1438
  325DG     C11 7463   1.640   3.090   3.046  0.1853  0.4769  0.2002
  325DG     C12 7464   1.944   2.732   3.148 -0.4657  0.4314 -0.2074
  325DG     H13 7465   1.695   3.180   3.037 -2.2581  0.1814  0.1036
  325DG     H14 7466   1.547   3.115   2.993  1.2696 -1.5072 -0.6819
  325DG     H15 7467   2.016   2.802   3.175  2.2207 -2.1183 -1.1873
  325DG     H16 7468   1.883   2.703   3.232 -1.8094 -1.1738  0.0771
  325DG     C17 7469   1.706   2.960   2.983  0.5131  0.0653  0.5403
  325DG     C18 7470   1.871   2.794   3.034  0.1693 -0.2237  0.0808
  325DG     O19 7471   1.789   2.896   3.085 -0.1662  0.4365  0.1759
  325DG     H20 7472   1.750   2.979   2.885  1.7716 -0.6526  1.2063
  325DG     H21 7473   1.629   2.883   2.964 -0.7127  0.3772 -2.5416
  325DG     H22 7474   1.938   2.842   2.966 -0.6824 -1.8054  1.6663
  325DG     H23 7475   1.814   2.718   2.975  2.0532  0.8896  2.6005
  326DG      C1 7476   0.094   2.366   2.032  0.3350 -0.2181  0.2864
  326DG      C2 7477  -0.061   1.714   2.167  0.1562  0.4927 -0.4932
  326DG      H3 7478  -0.001   2.380   2.082  0.4511  1.0613  0.0122
  326DG      H4 7479   0.116   2.444   1.965  0.1115 -2.1080  0.5949
  326DG      H5 7480   0.173   2.347   2.105  0.0953  2.4534  3.8447
  326DG      H6 7481   0.043   1.691   2.180 -1.0354  2.6208  1.1180
  326DG      H7 7482  -0.071   1.823   2.171 -0.4167  2.9686 -0.9220
  326DG      H8 7483  -0.123   1.670   2.255 -2.4354 -2.3780  2.7778
  326DG      O9 7484   0.059   2.272   1.939  0.3970  0.1024 -0.1759
  326DG     O10 7485  -0.125   1.664   2.050 -0.1059  0.6701  0.2508
  326DG     C11 7486   0.018   2.149   1.999 -0.5123 -0.0228  0.3588
  326DG     C12 7487  -0.039   1.674   1.937 -0.1181  0.0282  0.2044
  326DG     H13 7488  -0.057   2.162   2.079  4.0951  0.0126  0.3655
  326DG     H14 7489   0.115   2.110   2.034 -0.6780  1.3976  0.5021
  326DG     H15 7490  -0.044   1.587   1.869 -2.3091 -2.2761 -2.6718
  326DG     H16 7491   0.069   1.664   1.964 -1.0671 -1.3439  0.0851
  326DG     C17 7492  -0.034   2.049   1.891 -1.7385 -0.3345  0.7537
  326DG     C18 7493  -0.056   1.813   1.868 -0.1159 -0.2750 -0.0156
  326DG     O19 7494  -0.009   1.920   1.948  0.1443  0.2647 -0.5198
  326DG     H20 7495   0.021   2.053   1.796  0.4156 -2.1814  1.1830
  326DG     H21 7496  -0.141   2.064   1.867 -2.1981  2.0198  1.2792
  326DG     H22 7497  -0.011   1.813   1.771 -0.9641  1.2507 -0.2663
  326DG     H23 7498  -0.162   1.827   1.859 -0.0793  0.2593 -0.1009
  327DG      C1 7499   1.358   2.035   3.862  0.0917  0.2837 -0.2047
  327DG      C2 7500   0.803   2.244   3.460  0.8356 -0.4685  0.2870
  327DG      H3 7501   1.377   2.137   3.850 -1.0326 -0.0447 -0.6090
  327DG      H4 7502   1.442   1.972   3.869 -0.9473 -0.2668 -0.2488
  327DG      H5 7503   1.306   2.034   3.957 -1.3368  0.1603  2.1415
  327DG      H6 7504   0.742   2.243   3.547 -0.0756 -2.1840 -0.5235
  327DG      H7 7505   0.862   2.340   3.456 -0.4642  1.2136 -0.8637
  327DG      H8 7506   0.738   2.238   3.371  1.5797 -0.3564  1.2344
  327DG      O9 7507   1.259   1.995   3.763  0.6102 -0.1492  1.0267
  327DG     O10 7508   0.900   2.140   3.467  0.1170 -0.8670 -0.0354
  327DG     C11 7509   1.201   1.863   3.781 -0.4607  0.4225  0.0371
  327DG     C12 7510   0.842   2.008   3.477  0.0321  0.2898 -0.8803
  327DG     H13 7511   1.139   1.872   3.867 -3.1384 -1.9909 -1.0698
  327DG     H14 7512   1.276   1.794   3.802  0.2809  0.5598  0.3748
  327DG     H15 7513   0.780   1.986   3.392 -1.8508  0.8396  2.7383
  327DG     H16 7514   0.782   2.005   3.566  0.7277 -0.4941 -3.4871
  327DG     C17 7515   1.112   1.827   3.668  0.2313  0.7874  0.3231
  327DG     C18 7516   0.954   1.903   3.500 -0.8827  0.2176 -0.5395
  327DG     O19 7517   1.016   1.931   3.636 -0.2217  0.1165  0.8805
  327DG     H20 7518   1.061   1.727   3.675  1.8099  1.4944 -0.3167
  327DG     H21 7519   1.170   1.808   3.579 -1.7350 -1.3466 -0.9676
  327DG     H22 7520   0.918   1.799   3.495 -1.0699  0.6344  0.6394
  327DG     H23 7521   1.032   1.917   3.423  0.0796  1.8739  1.1938
  328DG      C1 7522   5.356   4.686   3.451 -0.3018 -0.4744  0.2403
  328DG      C2 7523   5.671   4.973   3.945  0.3195  0.0472  0.3942
  328DG      H3 7524   5.311   4.767   3.511  2.4497 -4.7047 -2.1865
  328DG      H4 7525   5.318   4.594   3.487  1.5965 -1.4774 -3.6621
  328DG      H5 7526   5.321   4.694   3.354  0.7144  1.1818  2.5889
  328DG      H6 7527   5.767   4.967   3.992  3.0675  1.3301 -1.1020
  328DG      H7 7528   5.636   5.068   3.934 -0.3502 -0.3598  0.0507
  328DG      H8 7529   5.593   4.918   4.002 -0.6907 -0.6490  0.2684
  328DG      O9 7530   5.499   4.674   3.465 -0.0241  0.0344  0.0109
  328DG     O10 7531   5.691   4.913   3.819  0.1168 -0.7457  0.3165
  328DG     C11 7532   5.558   4.780   3.392 -0.4073 -0.3526  0.3299
  328DG     C12 7533   5.808   4.959   3.751  0.7096  0.6044 -0.5299
  328DG     H13 7534   5.510   4.874   3.410  1.0999  2.1942  2.4203
  328DG     H14 7535   5.557   4.770   3.284 -1.0014  0.4029  1.1310
  328DG     H15 7536   5.897   4.946   3.816  0.9098 -1.3534 -1.2812
  328DG     H16 7537   5.795   5.067   3.735  3.2819  2.7342  0.4360
  328DG     C17 7538   5.705   4.792   3.436  0.4247 -0.2612  0.0655
  328DG     C18 7539   5.835   4.880   3.617 -0.1093 -0.1455 -0.8043
  328DG     O19 7540   5.708   4.850   3.565  0.3506  0.1429  0.5516
  328DG     H20 7541   5.746   4.853   3.362 -1.3347  0.7898 -0.2030
  328DG     H21 7542   5.749   4.689   3.423  1.6413  0.4621 -0.3269
  328DG     H22 7543   5.893   4.940   3.538  3.1423 -0.7182  2.3646
  328DG     H23 7544   5.901   4.799   3.642 -0.9099 -3.1369 -0.0949
  329DG      C1 7545   3.056   0.437   0.556  0.6936 -0.2181 -0.3086
  329DG      C2 7546   3.520  -0.069   0.512 -0.8036 -0.2287 -0.0414
  329DG      H3 7547   3.131   0.507   0.602 -0.0320  3.2275  0.0430
  329DG      H4 7548   3.026   0.367   0.631 -0.9451  1.2442 -0.7747
  329DG      H5 7549   2.983   0.511   0.517 -0.3799  1.6554 -2.8066
  329DG      H6 7550   3.613  -0.035   0.556 -1.1374 -1.9254 -0.0143
  329DG      H7 7551   3.452  -0.089   0.597 -0.2328  0.0132  1.3290
  329DG      H8 7552   3.551  -0.151   0.447 -2.5346  1.5225 -0.0469
  329DG      O9 7553   3.115   0.363   0.450  0.1220 -0.6564 -0.1627
  329DG     O10 7554   3.453   0.034   0.436  0.0073  0.0128 -0.3164
  329DG     C11 7555   3.177   0.439   0.355  0.8644 -1.2214  0.1014
  329DG     C12 7556   3.524   0.100   0.338 -0.2466 -0.3157  0.7814
  329DG     H13 7557   3.235   0.521   0.391 -1.0099 -1.3675 -0.0845
  329DG     H14 7558   3.115   0.493   0.285  0.4376  0.4768  1.3342
  329DG     H15 7559   3.576   0.019   0.278  1.4757 -0.6064  0.8765
  329DG     H16 7560   3.589   0.182   0.376  0.1632  0.6215  0.5441
  329DG     C17 7561   3.259   0.353   0.266  0.3231 -0.2586  0.9525
  329DG     C18 7562   3.410   0.161   0.249 -0.3272 -0.0448 -0.1281
  329DG     O19 7563   3.345   0.255   0.333  0.7017 -0.2746 -0.4507
  329DG     H20 7564   3.308   0.407   0.182 -0.6517 -0.0565  2.9073
  329DG     H21 7565   3.184   0.296   0.207  0.6571  3.6003  0.4609
  329DG     H22 7566   3.438   0.224   0.166 -1.7598  1.0590 -0.3601
  329DG     H23 7567   3.332   0.086   0.218 -0.3745 -1.3571  0.8250
  330DG      C1 7568   1.034   4.834   0.071 -0.0019 -0.2681 -0.0964
  330DG      C2 7569   1.194   5.443  -0.275 -0.8934  0.5573  0.2078
  330DG      H3 7570   1.061   4.760  -0.004  0.4567 -1.8219  2.1415
  330DG      H4 7571   0.933   4.870   0.047  2.7861  0.3387  3.2892
  330DG      H5 7572   1.033   4.784   0.163  1.2420  0.7015 -1.1402
  330DG      H6 7573   1.095   5.474  -0.237  0.8249 -1.6813  0.3482
  330DG      H7 7574   1.272   5.523  -0.297 -0.8098  0.3350 -0.8265
  330DG      H8 7575   1.166   5.397  -0.369  1.3577  1.2730  2.6960
  330DG      O9 7576   1.138   4.929   0.091  0.3199  0.1002 -0.5802
  330DG     O10 7577   1.256   5.357  -0.180 -0.1895 -0.1262 -0.3887
  330DG     C11 7578   1.108   5.039   0.178 -0.6580 -0.8407  0.1205
  330DG     C12 7579   1.286   5.428  -0.058 -0.8698 -0.2928  0.2755
  330DG     H13 7580   1.090   5.000   0.274  1.0854  1.3535 -3.2551
  330DG     H14 7581   1.018   5.092   0.146  1.1910 -2.4350 -2.7488
  330DG     H15 7582   1.197   5.491  -0.045 -1.6124 -3.0454 -0.4442
  330DG     H16 7583   1.365   5.502  -0.069  1.2335  1.0563  1.0103
  330DG     C17 7584   1.226   5.141   0.183 -0.7481  0.8892 -0.0286
  330DG     C18 7585   1.322   5.331   0.058  0.0854 -0.3488  0.4619
  330DG     O19 7586   1.226   5.220   0.067  0.3498 -0.0154  0.3126
  330DG     H20 7587   1.327   5.097   0.206  0.6066  1.8114 -1.5783
  330DG     H21 7588   1.202   5.209   0.263  1.6772  1.3283 -1.0719
  330DG     H22 7589   1.419   5.285   0.056 -0.9294 -1.7192 -3.1345
  330DG     H23 7590   1.327   5.376   0.157 -1.6048 -0.0469 -1.6577
  331DG      C1 7591   0.215   4.996   2.866 -0.8371 -0.3960  0.4032
  331DG      C2 7592  -0.207   5.541   2.354  0.8519  0.7828  0.2172
  331DG      H3 7593   0.174   4.912   2.813  1.3055  0.3196 -0.0325
  331DG      H4 7594   0.162   5.025   2.957 -0.8603  2.7532 -2.7156
  331DG      H5 7595   0.298   4.942   2.915  1.0432  0.8860  1.6722
  331DG      H6 7596  -0.295   5.549   2.422  2.2294  0.1191  3.2145
  331DG      H7 7597  -0.172   5.633   2.329 -2.0885 -1.1929 -3.2228
  331DG      H8 7598  -0.241   5.496   2.255 -0.6906 -0.2516  0.8174
  331DG      O9 7599   0.258   5.092   2.769 -0.2417 -0.5360  0.4387
  331DG     O10 7600  -0.116   5.444   2.409 -0.3549  0.2946  0.2080
  331DG     C11 7601   0.150   5.146   2.694 -0.0375  0.4042  0.2418
  331DG     C12 7602  -0.007   5.413   2.323  0.1974  0.2573 -0.4100
  331DG     H13 7603   0.090   5.194   2.774 -0.5355 -2.1237  1.0029
  331DG     H14 7604   0.096   5.072   2.645  0.7548  1.1951  2.5895
  331DG     H15 7605   0.012   5.492   2.250  0.6724 -0.9232  1.0654
  331DG     H16 7606  -0.042   5.324   2.262  2.5320  1.0712 -1.3726
  331DG     C17 7607   0.193   5.249   2.589  0.5731  0.4481 -0.0103
  331DG     C18 7608   0.114   5.366   2.405 -0.0502  0.4044  0.0751
  331DG     O19 7609   0.075   5.288   2.514  0.1262 -0.4348  0.6329
  331DG     H20 7610   0.271   5.207   2.520  0.1786  2.5842 -0.6173
  331DG     H21 7611   0.242   5.333   2.647 -0.2343  0.7789  0.1625
  331DG     H22 7612   0.192   5.317   2.352  0.3677  0.9110 -0.9456
  331DG     H23 7613   0.153   5.459   2.454 -0.8406  3.3717  2.3420
  332DG      C1 7614   3.142   5.427   0.451 -0.1054 -0.1600 -0.0580
  332DG      C2 7615   3.657   5.714   0.762  0.1810  0.4742 -0.9107
  332DG      H3 7616   3.157   5.323   0.487  0.5267  0.1862 -0.7851
  332DG      H4 7617   3.214   5.429   0.370 -0.8867  2.3080  1.9980
  332DG      H5 7618   3.039   5.431   0.424 -0.0820  1.7015  0.3071
  332DG      H6 7619   3.691   5.726   0.655  0.2856  1.7173 -0.0512
  332DG      H7 7620   3.685   5.805   0.819  0.8683 -3.2933  1.4278
  332DG      H8 7621   3.715   5.626   0.803 -1.1957 -0.2628 -0.3246
  332DG      O9 7622   3.185   5.512   0.558  0.0185 -0.5797  0.1174
  332DG     O10 7623   3.513   5.682   0.757 -0.3521  0.2471  0.4698
  332DG     C11 7624   3.117   5.486   0.679 -0.2264 -0.8568 -0.2426
  332DG     C12 7625   3.448   5.695   0.879 -0.2147  0.0637  0.6951
  332DG     H13 7626   3.175   5.396   0.712  0.7453 -0.3615 -0.7241
  332DG     H14 7627   3.015   5.471   0.668  0.2544  0.9487  0.5920
  332DG     H15 7628   3.425   5.803   0.900 -0.7801  1.7498 -1.1864
  332DG     H16 7629   3.513   5.665   0.963  0.5259  0.7582 -1.0992
  332DG     C17 7630   3.103   5.610   0.777 -0.6459  0.8130 -0.3589
  332DG     C18 7631   3.318   5.615   0.872 -0.4684 -0.1068 -0.0015
  332DG     O19 7632   3.230   5.688   0.788 -0.3267  0.6876 -0.1974
  332DG     H20 7633   3.065   5.575   0.875 -1.1745  0.1712  0.5101
  332DG     H21 7634   3.042   5.690   0.732 -0.0725 -2.7033 -1.4683
  332DG     H22 7635   3.343   5.525   0.826  2.8578  1.2071 -1.6684
  332DG     H23 7636   3.281   5.600   0.971  1.7385 -2.8603 -1.8090
  333DG      C1 7637   1.362   4.378   2.092 -0.1041 -0.1104  0.2482
  333DG      C2 7638   1.921   3.829   2.380  0.2458 -0.6651  0.6848
  333DG      H3 7639   1.309   4.408   1.996 -2.3767  0.5034 -0.0030
  333DG      H4 7640   1.417   4.465   2.131  0.0817  0.1711  2.1900
  333DG      H5 7641   1.289   4.347   2.174 -0.4245  1.2299  2.4997
  333DG      H6 7642   1.988   3.746   2.377  2.7835 -1.6403 -1.4944
  333DG      H7 7643   1.971   3.906   2.429 -1.0936  0.7910 -2.4344
  333DG      H8 7644   1.822   3.809   2.427  0.6551 -2.8151 -1.7544
  333DG      O9 7645   1.450   4.271   2.060  0.3910 -0.4970  0.0537
  333DG     O10 7646   1.904   3.877   2.245  0.2034 -0.0531 -0.3874
  333DG     C11 7647   1.563   4.307   1.981 -0.0211  0.3884  0.7068
  333DG     C12 7648   1.839   4.003   2.234 -0.0848  0.0626  0.4736
  333DG     H13 7649   1.614   4.395   2.015 -0.9886  0.9116  2.1764
  333DG     H14 7650   1.520   4.332   1.885 -0.1337  1.3884 -2.6911
  333DG     H15 7651   1.884   4.091   2.284 -0.4938  0.6209 -3.5470
  333DG     H16 7652   1.746   3.979   2.281  1.3583  0.2940 -1.5376
  333DG     C17 7653   1.657   4.188   1.966  0.0216  0.4501  0.3422
  333DG     C18 7654   1.811   4.044   2.092  0.4511  0.0660  0.7964
  333DG     O19 7655   1.721   4.159   2.090 -0.5241  0.1157  0.9692
  333DG     H20 7656   1.735   4.216   1.891 -0.7507  0.5701  0.2109
  333DG     H21 7657   1.596   4.102   1.930 -0.1614  0.5463 -1.8489
  333DG     H22 7658   1.906   4.078   2.043  0.8861  2.5542 -0.9219
  333DG     H23 7659   1.763   3.965   2.030  2.5101  3.1351 -1.7000
  334DG      C1 7660   4.324   1.058   5.009  0.0800 -0.1515  0.3026
  334DG      C2 7661   3.888   1.501   5.556  0.2316 -0.3315  0.0265
  334DG      H3 7662   4.424   1.046   5.056 -0.5926  0.9892 -1.0024
  334DG      H4 7663   4.338   1.028   4.909 -0.3907 -0.4205  0.7154
  334DG      H5 7664   4.256   0.994   5.071  0.7034  2.0112  0.8235
  334DG      H6 7665   3.982   1.517   5.610 -0.1606  1.4047 -0.7576
  334DG      H7 7666   3.834   1.598   5.578  2.7963 -2.3871  3.0203
  334DG      H8 7667   3.839   1.421   5.603  2.7115  0.2821  3.0759
  334DG      O9 7668   4.268   1.184   5.002  0.2514 -0.3728  0.0373
  334DG     O10 7669   3.922   1.483   5.423 -0.7910 -0.0162 -0.2618
  334DG     C11 7670   4.227   1.239   5.133 -0.3676  0.2192 -0.1233
  334DG     C12 7671   4.012   1.588   5.373  0.5940 -0.2277 -0.7214
  334DG     H13 7672   4.308   1.250   5.208 -0.8001  1.6936  2.5174
  334DG     H14 7673   4.159   1.172   5.193 -0.5545  1.6497  2.4938
  334DG     H15 7674   4.103   1.594   5.435  0.6178  0.2990  0.2090
  334DG     H16 7675   3.949   1.676   5.367 -0.1895  1.1989  1.2195
  334DG     C17 7676   4.154   1.372   5.108 -0.5221 -0.3865  0.2837
  334DG     C18 7677   4.048   1.544   5.228  0.1264  0.0852 -0.6179
  334DG     O19 7678   4.118   1.421   5.237  0.2527  0.1260 -0.9234
  334DG     H20 7679   4.062   1.356   5.055  1.5438  0.9728 -1.3062
  334DG     H21 7680   4.210   1.443   5.056 -3.0118  0.3035  0.0456
  334DG     H22 7681   3.956   1.516   5.177 -2.1546 -1.5675 -1.7511
  334DG     H23 7682   4.100   1.621   5.168 -0.0024  0.8651 -0.2370
  335DG      C1 7683   3.283   3.926   4.818  0.5094 -0.0796 -0.3819
  335DG      C2 7684   3.800   3.643   4.458  0.6274  0.5368 -0.3666
  335DG      H3 7685   3.315   4.033   4.824  0.1060  0.7261 -0.3987
  335DG      H4 7686   3.217   3.905   4.899 -1.2493  2.3516 -1.0312
  335DG      H5 7687   3.233   3.913   4.720  0.2589 -1.5193 -0.6312
  335DG      H6 7688   3.738   3.565   4.420 -2.2211  0.5968 -0.4259
  335DG      H7 7689   3.771   3.736   4.408 -2.0033 -0.6193 -0.1690
  335DG      H8 7690   3.894   3.611   4.423  0.1845  0.6113 -2.7493
  335DG      O9 7691   3.386   3.834   4.811  0.2066  0.3616  0.5724
  335DG     O10 7692   3.789   3.667   4.603  0.3540 -0.0675  0.0750
  335DG     C11 7693   3.473   3.843   4.927 -0.5019  0.6805 -0.5710
  335DG     C12 7694   3.768   3.554   4.688  0.5089  0.1823  0.3522
  335DG     H13 7695   3.420   3.849   5.026 -1.0678  0.2996  2.1619
  335DG     H14 7696   3.542   3.926   4.920  0.0634 -0.6540 -1.7484
  335DG     H15 7697   3.859   3.496   4.687  1.6535 -1.5157 -0.3512
  335DG     H16 7698   3.686   3.485   4.653  1.0623  1.5112 -0.1124
  335DG     C17 7699   3.568   3.729   4.935 -0.4533  0.3359 -0.5331
  335DG     C18 7700   3.737   3.614   4.825 -0.4530 -0.5488  0.3362
  335DG     O19 7701   3.639   3.715   4.817  0.1991 -0.2411  0.0408
  335DG     H20 7702   3.508   3.641   4.949 -2.3509  1.0232 -0.0376
  335DG     H21 7703   3.637   3.740   5.023  0.0676  2.0936  0.8035
  335DG     H22 7704   3.722   3.539   4.907 -0.4096 -2.4530 -2.3991
  335DG     H23 7705   3.836   3.664   4.847  0.1858  0.9763 -2.2797
  336DG      C1 7706   1.755   2.233   3.143 -0.1325  0.1028  0.5637
  336DG      C2 7707   1.117   1.896   2.967 -0.2567  0.9899 -0.4680
  336DG      H3 7708   1.698   2.192   3.223 -1.2451 -1.1727  1.6482
  336DG      H4 7709   1.802   2.326   3.165 -0.3594 -1.7429 -2.7078
  336DG      H5 7710   1.833   2.167   3.138 -0.6656  0.5696 -2.6358
  336DG      H6 7711   1.140   1.789   2.953  2.3882 -2.2031  1.0810
  336DG      H7 7712   1.146   1.930   3.067 -0.3030  0.5914 -1.2439
  336DG      H8 7713   1.011   1.904   2.957  1.7644 -0.4595  0.1361
  336DG      O9 7714   1.680   2.225   3.023 -0.1760  0.5039 -0.5814
  336DG     O10 7715   1.157   1.990   2.870 -0.6363  0.2703  0.6228
  336DG     C11 7716   1.548   2.292   3.032  0.3062  0.1837 -0.4011
  336DG     C12 7717   1.286   1.965   2.820 -0.5121 -0.4029 -0.0765
  336DG     H13 7718   1.580   2.400   3.010 -1.8263  1.6984 -3.3195
  336DG     H14 7719   1.506   2.276   3.127 -0.6535  1.0331 -0.7188
  336DG     H15 7720   1.286   1.908   2.726  0.1482 -3.1832 -1.7464
  336DG     H16 7721   1.349   1.900   2.889  0.2518  0.7606  3.7459
  336DG     C17 7722   1.453   2.273   2.925 -0.2950 -0.2013 -0.3340
  336DG     C18 7723   1.361   2.100   2.794  0.2875  0.5956 -0.6742
  336DG     O19 7724   1.395   2.146   2.927  0.1746  0.0235  0.7325
  336DG     H20 7725   1.508   2.297   2.832  1.2356  0.6405 -1.7906
  336DG     H21 7726   1.380   2.352   2.923  2.1370  1.2296 -1.0275
  336DG     H22 7727   1.446   2.087   2.719  1.1032 -1.6008 -0.9286
  336DG     H23 7728   1.299   2.177   2.736  3.6927  0.1904 -0.5885
  337DG      C1 7729   0.915   0.516   4.249  0.2991 -0.1689 -0.1193
  337DG      C2 7730   1.233   1.126   4.112 -0.3139  1.1015  0.1635
  337DG      H3 7731   0.814   0.535   4.284  0.0960  0.9890 -1.1901
  337DG      H4 7732   0.940   0.417   4.297  0.9821 -1.0399  0.6147
  337DG      H5 7733   0.919   0.494   4.142  0.3498 -0.2309 -0.4738
  337DG      H6 7734   1.132   1.163   4.128 -0.5971  0.5866  0.5492
  337DG      H7 7735   1.318   1.193   4.125 -0.3574 -0.0939  0.3202
  337DG      H8 7736   1.233   1.113   4.007 -0.6053  1.1588 -0.5596
  337DG      O9 7737   1.004   0.622   4.282 -0.1268  0.0017 -0.3358
  337DG     O10 7738   1.257   0.996   4.181  0.2578 -0.2639 -0.2132
  337DG     C11 7739   1.034   0.626   4.425  0.3420  0.0993  0.2946
  337DG     C12 7740   1.286   1.023   4.317 -0.2119  0.2293 -0.6441
  337DG     H13 7741   1.063   0.526   4.459 -0.4878  0.0944  0.4416
  337DG     H14 7742   0.943   0.656   4.488  4.0993  0.9123 -0.0679
  337DG     H15 7743   1.195   1.074   4.359 -3.4836 -0.2991 -0.1772
  337DG     H16 7744   1.370   1.096   4.331 -1.0437 -0.2012 -0.5184
  337DG     C17 7745   1.165   0.702   4.456 -0.1751 -0.1655 -0.2255
  337DG     C18 7746   1.294   0.893   4.390  0.0549 -0.4485 -0.1369
  337DG     O19 7747   1.172   0.821   4.379 -0.7049  0.1056  0.3834
  337DG     H20 7748   1.260   0.643   4.448  2.3918  3.4015  1.5575
  337DG     H21 7749   1.155   0.726   4.561  0.5519  1.4605 -0.5610
  337DG     H22 7750   1.368   0.826   4.346 -1.6579 -1.7014 -0.7182
  337DG     H23 7751   1.314   0.913   4.498 -2.2195  0.6158  0.7909
  338DG      C1 7752   2.490   4.664   2.728  0.5552 -0.3504 -0.0263
  338DG      C2 7753   2.467   4.438   2.203 -0.5781 -0.5390 -0.1021
  338DG      H3 7754   2.506   4.561   2.752 -1.5218 -0.2577  1.0039
  338DG      H4 7755   2.417   4.669   2.646 -0.9501 -1.5118 -2.0061
  338DG      H5 7756   2.449   4.711   2.818  0.3481  0.4710 -0.6209
  338DG      H6 7757   2.503   4.354   2.149 -0.2124  1.1595 -2.7909
  338DG      H7 7758   2.516   4.453   2.306  2.0625 -1.1333  0.6651
  338DG      H8 7759   2.369   4.418   2.221  1.1946 -2.4439 -2.5939
  338DG      O9 7760   2.618   4.727   2.695  0.5824 -0.2064 -0.3045
  338DG     O10 7761   2.472   4.552   2.122 -0.4554 -0.3962 -0.0749
  338DG     C11 7762   2.618   4.851   2.632 -0.6769 -0.4059 -0.0660
  338DG     C12 7763   2.469   4.680   2.190 -0.0686  0.1505 -0.0444
  338DG     H13 7764   2.689   4.911   2.675 -0.5313 -5.3371 -1.0398
  338DG     H14 7765   2.526   4.914   2.660 -0.0854  0.1787  1.4384
  338DG     H15 7766   2.392   4.668   2.268 -2.4341 -1.0229 -2.1876
  338DG     H16 7767   2.428   4.763   2.126  0.4161 -1.8660  1.4481
  338DG     C17 7768   2.649   4.829   2.480  1.1520 -0.5580  0.1305
  338DG     C18 7769   2.598   4.708   2.279 -0.5952  0.5107 -0.3478
  338DG     O19 7770   2.557   4.749   2.412  0.2466  0.7155  0.1229
  338DG     H20 7771   2.736   4.769   2.476  0.0571 -1.1439 -0.5850
  338DG     H21 7772   2.675   4.923   2.438  0.9280 -0.5356 -3.2915
  338DG     H22 7773   2.658   4.615   2.289  0.3153  0.0616 -2.1751
  338DG     H23 7774   2.670   4.777   2.236 -2.1162  0.5700 -2.3182
  339DG      C1 7775   2.255   1.707   4.141  0.0255 -0.1430  0.1025
  339DG      C2 7776   2.854   1.465   4.276 -0.0073 -0.3699 -0.1295
  339DG      H3 7777   2.272   1.645   4.050  0.0191 -0.8032  0.8394
  339DG      H4 7778   2.301   1.799   4.135 -1.7588 -3.2961  0.4012
  339DG      H5 7779   2.145   1.710   4.158 -0.6118 -0.8549 -1.2718
  339DG      H6 7780   2.949   1.476   4.331  0.3931  1.3731 -1.8222
  339DG      H7 7781   2.859   1.380   4.205 -0.2812  3.0215 -0.8018
  339DG      H8 7782   2.836   1.553   4.215 -0.4752 -0.5927 -2.2986
  339DG      O9 7783   2.314   1.648   4.259  0.1512  0.2230  0.8047
  339DG     O10 7784   2.736   1.452   4.357  0.1761 -0.2580 -0.3230
  339DG     C11 7785   2.312   1.723   4.382 -0.5951 -0.1537  0.4805
  339DG     C12 7786   2.736   1.541   4.469  0.1955  0.0800  0.6499
  339DG     H13 7787   2.213   1.747   4.413  1.5957  0.2408  1.1879
  339DG     H14 7788   2.367   1.818   4.368  1.4117  0.4566  1.5960
  339DG     H15 7789   2.762   1.642   4.437 -2.0696 -2.0753  2.5956
  339DG     H16 7790   2.809   1.503   4.542  1.5941  0.5494  0.2831
  339DG     C17 7791   2.389   1.643   4.486  0.1510 -0.1104 -0.3289
  339DG     C18 7792   2.599   1.551   4.540 -0.6350 -0.2784 -0.1427
  339DG     O19 7793   2.521   1.614   4.440 -0.0804 -0.4559  0.2720
  339DG     H20 7794   2.333   1.552   4.509 -2.7291  1.0622  1.1063
  339DG     H21 7795   2.382   1.701   4.576 -2.9749  0.7197 -1.0561
  339DG     H22 7796   2.552   1.461   4.561 -0.7066  0.4844 -1.3566
  339DG     H23 7797   2.615   1.601   4.636  1.6035 -1.0941 -2.1495
  340DG      C1 7798   4.947   4.207   2.444  0.0586 -0.1761  0.2866
  340DG      C2 7799   5.342   3.795   2.848  0.2521 -0.8598  0.0626
  340DG      H3 7800   4.941   4.135   2.360  0.3706 -1.6750 -0.3114
  340DG      H4 7801   4.915   4.303   2.410  1.1365 -2.3646 -0.4021
  340DG      H5 7802   4.865   4.173   2.509 -1.0178  1.5266 -0.5196
  340DG      H6 7803   5.297   3.722   2.782  1.0683 -0.2281  1.3803
  340DG      H7 7804   5.449   3.776   2.864 -1.9890 -0.5566  0.8778
  340DG      H8 7805   5.301   3.763   2.937  1.5200  0.0352 -0.7433
  340DG      O9 7806   5.066   4.201   2.516 -0.3442  0.1219  0.1312
  340DG     O10 7807   5.308   3.932   2.803  0.5066 -0.0805  0.4725
  340DG     C11 7808   5.069   4.303   2.614  0.2600  0.5572  0.5091
  340DG     C12 7809   5.335   4.028   2.898  0.5689 -0.0744 -0.2349
  340DG     H13 7810   4.974   4.294   2.674  0.0684 -0.5859  2.2479
  340DG     H14 7811   5.057   4.403   2.568  0.8711  3.4547  0.9422
  340DG     H15 7812   5.432   4.018   2.944 -1.3126 -0.6377 -0.8055
  340DG     H16 7813   5.259   4.014   2.980  1.9498  1.6571  0.5257
  340DG     C17 7814   5.196   4.304   2.698 -0.2988  0.2477  0.2378
  340DG     C18 7815   5.323   4.170   2.845  0.3643  0.1274 -0.3771
  340DG     O19 7816   5.195   4.186   2.783 -0.1648  0.9488  0.1093
  340DG     H20 7817   5.199   4.387   2.769  1.8219  2.2261 -3.1890
  340DG     H21 7818   5.282   4.320   2.635 -0.4718  0.9224  0.9282
  340DG     H22 7819   5.327   4.237   2.920  1.0860 -2.2116 -1.9696
  340DG     H23 7820   5.404   4.186   2.776 -0.5289  1.5946 -0.5803
  341DG      C1 7821   0.964   2.334   1.555  0.5462  0.0620 -0.0703
  341DG      C2 7822   0.447   2.486   1.030 -0.1254 -0.5736  0.5085
  341DG      H3 7823   1.070   2.338   1.538 -2.2261 -2.2758  1.3528
  341DG      H4 7824   0.939   2.309   1.657 -1.0930  0.0917 -1.4119
  341DG      H5 7825   0.924   2.438   1.537 -0.3326 -0.5772  1.8852
  341DG      H6 7826   0.445   2.539   1.123  0.5104 -2.3142  2.5627
  341DG      H7 7827   0.478   2.563   0.955  0.8144 -1.4037  0.0596
  341DG      H8 7828   0.343   2.454   1.004 -0.6535  0.9617 -0.6995
  341DG      O9 7829   0.890   2.251   1.464  0.1324  0.0826  0.4695
  341DG     O10 7830   0.531   2.371   1.030  0.4024  0.2055 -0.1736
  341DG     C11 7831   0.934   2.264   1.330 -0.0566  0.4135  1.0207
  341DG     C12 7832   0.505   2.266   1.119  0.1320  0.0146 -0.0142
  341DG     H13 7833   1.022   2.206   1.311  0.7112  2.2484  1.4151
  341DG     H14 7834   0.956   2.369   1.309  0.6034 -2.5790 -0.7390
  341DG     H15 7835   0.431   2.199   1.076  0.5245 -1.1293  0.4077
  341DG     H16 7836   0.474   2.306   1.213 -0.7629 -2.9088 -2.2831
  341DG     C17 7837   0.842   2.203   1.216  0.6640  0.3539  0.8157
  341DG     C18 7838   0.634   2.176   1.131 -0.2228 -0.1979 -0.3218
  341DG     O19 7839   0.721   2.265   1.202 -0.0005  0.4861 -0.1962
  341DG     H20 7840   0.827   2.101   1.245 -2.7300  1.7130  2.7204
  341DG     H21 7841   0.886   2.203   1.117 -2.1663  1.7709 -2.1552
  341DG     H22 7842   0.612   2.082   1.180 -0.0549  0.9630 -0.3018
  341DG     H23 7843   0.672   2.157   1.032 -1.3747 -1.9718  0.7948
  342DG      C1 7844   5.286   3.284   5.023  0.0127  0.4369 -0.7020
  342DG      C2 7845   5.773   2.695   5.041 -0.3661  0.5604 -0.3015
  342DG      H3 7846   5.230   3.222   5.093  0.2811  1.2544  0.0567
  342DG      H4 7847   5.212   3.341   4.970 -0.7045  0.0803 -2.8408
  342DG      H5 7848   5.333   3.361   5.085 -2.0821 -0.2469  1.2453
  342DG      H6 7849   5.768   2.692   5.151 -1.0906 -0.4067 -1.2654
  342DG      H7 7850   5.789   2.592   5.007 -1.6449 -1.5863 -0.5067
  342DG      H8 7851   5.863   2.762   5.009 -1.6069  0.9738 -2.2716
  342DG      O9 7852   5.368   3.200   4.942 -0.2401 -0.5562  0.3667
  342DG     O10 7853   5.651   2.751   4.997 -0.3695  0.5207  0.3879
  342DG     C11 7854   5.302   3.132   4.840  0.5921  0.1137  0.0233
  342DG     C12 7855   5.640   2.775   4.860  0.3431  1.3580  0.1273
  342DG     H13 7856   5.280   3.209   4.766 -1.2393 -0.4936 -1.7445
  342DG     H14 7857   5.204   3.097   4.878 -1.2059 -1.2067  2.3042
  342DG     H15 7858   5.661   2.685   4.807 -0.1481 -0.8892 -1.4501
  342DG     H16 7859   5.723   2.840   4.825  0.2350  1.2360 -0.0490
  342DG     C17 7860   5.387   3.026   4.770 -0.4785  0.8052  0.8730
  342DG     C18 7861   5.504   2.824   4.795 -1.0998  0.1429 -0.5962
  342DG     O19 7862   5.464   2.946   4.854  0.1592 -0.3167  0.5186
  342DG     H20 7863   5.457   3.081   4.702  0.8577 -1.4399  0.8511
  342DG     H21 7864   5.318   2.963   4.715  1.7776  0.3031  0.3691
  342DG     H22 7865   5.525   2.830   4.688  0.0712  1.8184  1.1489
  342DG     H23 7866   5.419   2.759   4.802  1.6637 -0.4397  1.6189
  343DG      C1 7867   1.964   2.350   3.898 -0.7791  0.6056 -0.7401
  343DG      C2 7868   1.829   3.104   4.048  0.5841 -0.1619 -0.3305
  343DG      H3 7869   1.923   2.286   3.967 -1.5745  1.5122 -0.0865
  343DG      H4 7870   2.062   2.380   3.934  1.3583 -2.8575  0.0639
  343DG      H5 7871   1.986   2.301   3.799  1.4449  2.8748  0.7433
  343DG      H6 7872   1.860   3.074   3.946  2.5927 -0.6527 -0.9485
  343DG      H7 7873   1.746   3.175   4.045  0.2894  0.7727 -2.1973
  343DG      H8 7874   1.915   3.153   4.098 -0.3707 -2.2242 -0.1262
  343DG      O9 7875   1.891   2.468   3.863  0.3471  0.6109 -0.1925
  343DG     O10 7876   1.782   3.000   4.132 -0.3084  0.1358  0.2468
  343DG     C11 7877   1.867   2.553   3.970  0.5943 -0.1720 -0.1854
  343DG     C12 7878   1.654   2.942   4.096  0.4547 -0.2423 -0.9968
  343DG     H13 7879   1.957   2.593   4.022  1.6265  1.5745 -1.8072
  343DG     H14 7880   1.808   2.503   4.055 -2.1945  1.0460  0.5766
  343DG     H15 7881   1.569   3.004   4.095  3.1597 -0.6784 -0.1935
  343DG     H16 7882   1.629   2.873   4.175 -2.3507 -1.4625 -0.6161
  343DG     C17 7883   1.776   2.668   3.902  0.4670  0.9393  0.0217
  343DG     C18 7884   1.650   2.849   3.974 -0.2635 -0.0511  0.3090
  343DG     O19 7885   1.752   2.753   4.010  0.4580 -0.2232  0.1275
  343DG     H20 7886   1.678   2.624   3.873  0.7614 -0.4396 -1.1537
  343DG     H21 7887   1.823   2.709   3.812  0.9314  2.5033  0.5236
  343DG     H22 7888   1.556   2.802   3.965  3.8502  0.0747 -0.3677
  343DG     H23 7889   1.687   2.913   3.886  1.5830  0.2083 -0.6201
  344DG      C1 7890   1.934   1.388   4.060  0.4521  0.5932  0.1830
  344DG      C2 7891   1.301   1.476   4.218  0.1111  0.9844 -0.2684
  344DG      H3 7892   1.988   1.466   4.107 -1.9243 -0.4068 -1.8997
  344DG      H4 7893   1.999   1.341   3.975 -0.7140 -1.6027  0.9484
  344DG      H5 7894   1.917   1.303   4.130  0.4691  2.2390  2.8991
  344DG      H6 7895   1.275   1.546   4.299  0.7939 -0.8834 -2.6883
  344DG      H7 7896   1.214   1.432   4.181 -1.3362  3.6318  0.7970
  344DG      H8 7897   1.363   1.395   4.261 -1.3660 -0.1438  1.3229
  344DG      O9 7898   1.811   1.430   4.003  0.3954 -0.5226  0.1424
  344DG     O10 7899   1.395   1.526   4.122  0.3673 -0.5429 -0.0354
  344DG     C11 7900   1.834   1.541   3.915 -0.1892 -0.0643 -0.7839
  344DG     C12 7901   1.386   1.667   4.084 -0.4278 -0.7122 -0.1568
  344DG     H13 7902   1.892   1.524   3.830 -1.4985 -0.1374 -2.0995
  344DG     H14 7903   1.883   1.625   3.967 -2.1735 -3.6657 -2.4924
  344DG     H15 7904   1.422   1.731   4.160 -2.2391  0.4460  0.6883
  344DG     H16 7905   1.290   1.693   4.050  0.4419 -0.6906 -0.5753
  344DG     C17 7906   1.698   1.596   3.866 -0.4311  0.0453 -0.7436
  344DG     C18 7907   1.476   1.682   3.959 -1.1172  0.0820  0.1174
  344DG     O19 7908   1.600   1.615   3.977  0.0311 -0.3125 -0.4902
  344DG     H20 7909   1.661   1.533   3.790 -0.3463  0.5882  0.1814
  344DG     H21 7910   1.713   1.695   3.818  1.0041  2.7713 -0.9318
  344DG     H22 7911   1.418   1.635   3.867  0.2252  0.3875 -2.0673
  344DG     H23 7912   1.499   1.785   3.928 -2.7181  0.1758 -0.8165
  345DG      C1 7913   3.582   1.233   4.296 -1.3623  0.3032 -0.9099
  345DG      C2 7914   2.877   0.921   4.582  0.0693  0.2121 -0.0683
  345DG      H3 7915   3.604   1.123   4.283  1.0888 -2.4399 -0.4993
  345DG      H4 7916   3.604   1.253   4.402 -2.2218 -0.6991  1.9150
  345DG      H5 7917   3.656   1.290   4.242 -0.7856 -0.6176 -0.8595
  345DG      H6 7918   2.918   0.819   4.580 -0.6357 -1.6226  3.0721
  345DG      H7 7919   2.860   0.950   4.688  3.4390 -1.4260 -0.8121
  345DG      H8 7920   2.784   0.915   4.536  2.1563  2.2407 -0.0822
  345DG      O9 7921   3.455   1.276   4.254  0.3471 -0.9237  0.1916
  345DG     O10 7922   2.967   1.003   4.511  0.2312  0.2235 -0.2007
  345DG     C11 7923   3.343   1.197   4.298 -0.2855 -0.5083 -0.0679
  345DG     C12 7924   2.945   1.144   4.514 -0.7736 -0.7496  1.3938
  345DG     H13 7925   3.368   1.144   4.400 -0.9549 -0.7573  0.2928
  345DG     H14 7926   3.332   1.109   4.239  1.9660 -1.6274  2.0402
  345DG     H15 7927   2.919   1.169   4.620 -0.3264  0.3572 -0.2216
  345DG     H16 7928   2.854   1.160   4.451  0.5774  1.0546  1.2463
  345DG     C17 7929   3.213   1.278   4.291  0.2434 -0.2098  0.4411
  345DG     C18 7930   3.071   1.223   4.476  0.2160  0.2189  0.9446
  345DG     O19 7931   3.108   1.209   4.335 -0.4764  0.0853  0.3518
  345DG     H20 7932   3.201   1.298   4.181 -0.2709  0.6484 -0.2006
  345DG     H21 7933   3.219   1.375   4.326  0.6710 -0.3224 -2.5442
  345DG     H22 7934   3.062   1.333   4.498  2.1792  2.7861  1.5437
  345DG     H23 7935   3.147   1.176   4.544  1.4567 -3.0990  1.4038
  346DG      C1 7936   0.679   0.636   1.134 -0.2885  0.8653 -0.1681
  346DG      C2 7937   0.237   1.331   1.231 -0.6155  0.3228 -0.2008
  346DG      H3 7938   0.783   0.617   1.129 -0.7055 -0.7178 -0.4569
  346DG      H4 7939   0.657   0.680   1.037 -1.6702  1.0492 -0.3666
  346DG      H5 7940   0.623   0.552   1.147 -0.0921  0.7100 -1.6942
  346DG      H6 7941   0.182   1.326   1.133 -1.9636 -0.1457 -0.8983
  346DG      H7 7942   0.194   1.421   1.279  4.6229  1.9428  0.6050
  346DG      H8 7943   0.340   1.357   1.204  0.9080  0.4811  1.3403
  346DG      O9 7944   0.636   0.732   1.226 -0.2069 -0.1821  0.2495
  346DG     O10 7945   0.220   1.209   1.301 -0.5214 -0.1283  0.5411
  346DG     C11 7946   0.708   0.858   1.214 -0.2813  0.4131 -0.3665
  346DG     C12 7947   0.289   1.108   1.226 -0.2361  0.4634 -0.0763
  346DG     H13 7948   0.716   0.891   1.116 -0.5655  2.6138 -0.8156
  346DG     H14 7949   0.813   0.846   1.253 -0.0054  0.1372 -2.7110
  346DG     H15 7950   0.260   1.089   1.117  2.5664 -0.5304  0.8281
  346DG     H16 7951   0.247   1.022   1.278 -1.5399  0.5110  0.0465
  346DG     C17 7952   0.626   0.969   1.284 -0.3020 -0.9363 -0.2303
  346DG     C18 7953   0.447   1.117   1.239  0.6089  0.6159  0.6865
  346DG     O19 7954   0.503   0.993   1.211  0.0964  0.0315 -0.8626
  346DG     H20 7955   0.701   1.052   1.282 -0.6843 -0.8022 -0.9082
  346DG     H21 7956   0.600   0.949   1.391 -2.1538  0.2759 -2.6389
  346DG     H22 7957   0.496   1.176   1.160  0.0825 -1.4031  0.3896
  346DG     H23 7958   0.487   1.146   1.333  0.8859 -1.3276 -0.2743
  347DG      C1 7959   4.923   2.817   2.458 -0.2222  0.3158 -0.2293
  347DG      C2 7960   5.287   3.374   2.083 -0.2078  0.4523  0.3003
  347DG      H3 7961   4.873   2.755   2.383  1.9146 -3.4827 -0.6400
  347DG      H4 7962   4.876   2.911   2.455 -0.1874 -0.3388  1.2927
  347DG      H5 7963   4.914   2.766   2.551 -0.2579 -0.3767  0.5546
  347DG      H6 7964   5.193   3.430   2.101 -0.7910 -3.0226  1.7626
  347DG      H7 7965   5.373   3.438   2.102  0.2324 -0.1173 -0.9191
  347DG      H8 7966   5.288   3.320   1.987  2.5135 -0.7418 -0.8786
  347DG      O9 7967   5.063   2.833   2.424  0.4352 -0.3424  0.8598
  347DG     O10 7968   5.276   3.273   2.178  0.0860 -0.4763 -0.6475
  347DG     C11 7969   5.149   2.901   2.504 -0.0012 -0.4655  0.7860
  347DG     C12 7970   5.373   3.167   2.162 -0.4934  0.9130 -0.1890
  347DG     H13 7971   5.179   2.853   2.592 -1.4699 -0.5611 -0.9562
  347DG     H14 7972   5.102   2.995   2.529  1.1448 -0.1450 -1.1674
  347DG     H15 7973   5.469   3.219   2.164 -1.8383  1.2913 -0.1942
  347DG     H16 7974   5.374   3.110   2.069  3.1831  0.4705 -0.6851
  347DG     C17 7975   5.274   2.939   2.429 -0.3623  0.4115 -0.4639
  347DG     C18 7976   5.380   3.081   2.283  0.0699  0.1060 -0.0938
  347DG     O19 7977   5.257   3.026   2.315 -0.6750  0.3265 -0.5828
  347DG     H20 7978   5.311   2.851   2.386 -0.5934 -0.7656 -1.4858
  347DG     H21 7979   5.350   2.973   2.498 -0.7136 -1.9670  2.7899
  347DG     H22 7980   5.452   3.004   2.272 -2.2080 -0.0185  0.2693
  347DG     H23 7981   5.400   3.146   2.368 -0.7302  2.7912 -0.0774
  348DG      C1 7982   1.973   1.155   3.730  0.1497 -0.3924  1.0279
  348DG      C2 7983   2.254   0.549   3.907 -0.2699  0.1386  0.5660
  348DG      H3 7984   1.882   1.123   3.667 -2.5446  0.5234  0.8141
  348DG      H4 7985   2.022   1.247   3.688 -0.6020  1.2405  1.6910
  348DG      H5 7986   1.949   1.180   3.832  2.4258  0.6829  0.1944
  348DG      H6 7987   2.219   0.448   3.894  1.4555 -0.2106  0.7771
  348DG      H7 7988   2.357   0.556   3.948 -2.3148 -0.8852  0.1766
  348DG      H8 7989   2.195   0.560   3.993  0.7536 -0.3983  1.1460
  348DG      O9 7990   2.060   1.043   3.708  0.1436  0.0566 -0.6620
  348DG     O10 7991   2.225   0.639   3.803  0.3084  0.2761 -0.4426
  348DG     C11 7992   2.088   1.032   3.570 -0.1183 -0.0895  0.4706
  348DG     C12 7993   2.275   0.606   3.675 -0.4702 -0.0215  1.0070
  348DG     H13 7994   2.089   1.125   3.512  0.1072 -0.0200 -0.9108
  348DG     H14 7995   1.995   0.975   3.550 -1.3273 -1.0083 -1.6239
  348DG     H15 7996   2.212   0.542   3.626 -0.3264  1.9354  0.9375
  348DG     H16 7997   2.372   0.553   3.690 -0.8444  0.9478  3.6159
  348DG     C17 7998   2.205   0.952   3.539 -0.0725  0.0472 -0.6026
  348DG     C18 7999   2.298   0.737   3.594  0.3259  0.1663  1.1579
  348DG     O19 8000   2.185   0.821   3.599  0.2244 -0.1321  0.1259
  348DG     H20 8001   2.286   0.997   3.585 -0.7205 -3.4192  1.2093
  348DG     H21 8002   2.225   0.951   3.430 -0.0063 -1.3841 -1.4612
  348DG     H22 8003   2.383   0.776   3.632  0.3913 -3.8027  0.2195
  348DG     H23 8004   2.310   0.695   3.492 -2.4545  0.3627  0.0642
  349DG      C1 8005   2.742   5.468   4.087  0.0926  0.0613  0.1931
  349DG      C2 8006   2.915   5.019   4.588  0.0825  0.4612 -0.0246
  349DG      H3 8007   2.674   5.513   4.019  2.5412 -0.5430 -0.2237
  349DG      H4 8008   2.834   5.523   4.079 -1.6085  0.2893 -2.9007
  349DG      H5 8009   2.692   5.474   4.187  2.7228 -1.5548 -0.7817
  349DG      H6 8010   2.849   5.060   4.669  1.4608 -1.6400 -1.2657
  349DG      H7 8011   2.940   4.918   4.608 -1.2729  3.2436  0.4246
  349DG      H8 8012   3.000   5.085   4.591 -1.1035  0.3049  2.6429
  349DG      O9 8013   2.766   5.326   4.061 -0.1721 -0.0468  0.0314
  349DG     O10 8014   2.843   5.028   4.462 -0.3791  0.1851 -0.0689
  349DG     C11 8015   2.651   5.237   4.060  0.0551  0.0654 -0.1122
  349DG     C12 8016   2.916   4.966   4.356  0.3942  0.2782 -0.5105
  349DG     H13 8017   2.602   5.251   3.961  0.1312  3.6917  0.4534
  349DG     H14 8018   2.585   5.265   4.145 -1.6010  0.5921  0.4401
  349DG     H15 8019   2.950   4.867   4.387 -0.1051 -0.1271 -1.0866
  349DG     H16 8020   3.017   5.013   4.336  2.5134 -2.6130 -2.7471
  349DG     C17 8021   2.701   5.085   4.074 -0.2503 -1.1111  0.4607
  349DG     C18 8022   2.823   4.951   4.227 -0.3060 -0.2342 -0.8276
  349DG     O19 8023   2.767   5.079   4.195  0.0795  0.0505  0.8803
  349DG     H20 8024   2.771   5.059   3.996 -0.1807 -3.6100 -0.8022
  349DG     H21 8025   2.617   5.014   4.065 -1.4411 -1.8760  1.0777
  349DG     H22 8026   2.888   4.908   4.149 -1.0772 -0.4281 -1.1201
  349DG     H23 8027   2.745   4.879   4.245  2.2724  2.0570 -1.8887
  350DG      C1 8028   1.233   5.232   2.983 -0.3126  0.3474 -0.3556
  350DG      C2 8029   1.785   5.397   3.422 -0.2962 -0.5530 -0.1743
  350DG      H3 8030   1.275   5.275   2.891 -2.8553 -1.9674 -1.2416
  350DG      H4 8031   1.124   5.225   2.971 -0.8768 -1.8059  0.0116
  350DG      H5 8032   1.260   5.123   2.989  0.7458  0.4944 -1.1773
  350DG      H6 8033   1.820   5.459   3.512 -3.1984 -0.3001  0.0519
  350DG      H7 8034   1.768   5.291   3.447 -1.8714 -3.6621  1.2383
  350DG      H8 8035   1.861   5.391   3.347  2.0034 -1.9969  2.7388
  350DG      O9 8036   1.280   5.304   3.103 -0.5815  0.1319  0.3456
  350DG     O10 8037   1.665   5.467   3.380  0.2752 -0.1895  0.3278
  350DG     C11 8038   1.278   5.448   3.078 -0.6326  0.5950  0.0799
  350DG     C12 8039   1.563   5.490   3.482  0.0814 -0.3135 -0.4082
  350DG     H13 8040   1.177   5.465   3.031 -2.2594 -1.0423  0.5403
  350DG     H14 8041   1.367   5.477   3.014  0.9897  1.8637 -1.9337
  350DG     H15 8042   1.607   5.556   3.556 -1.0092 -0.3742  2.5513
  350DG     H16 8043   1.548   5.401   3.537 -0.5506 -1.4448 -1.4042
  350DG     C17 8044   1.305   5.514   3.215  0.0065  0.8488 -0.3417
  350DG     C18 8045   1.436   5.542   3.415  0.4178  0.2913  0.0928
  350DG     O19 8046   1.415   5.474   3.290  0.0920 -0.1867 -0.1918
  350DG     H20 8047   1.218   5.511   3.282  0.7330  1.4803 -0.1538
  350DG     H21 8048   1.310   5.623   3.196  1.1633  2.3628  2.6947
  350DG     H22 8049   1.355   5.537   3.482  1.6905  1.3434  0.3102
  350DG     H23 8050   1.441   5.655   3.410 -2.8457  0.9787 -0.1321
  351DG      C1 8051   0.272   1.476   3.371  0.2610 -0.6870 -0.1381
  351DG      C2 8052   0.407   0.977   2.882 -0.1736 -0.4439  0.3587
  351DG      H3 8053   0.275   1.388   3.443  0.7111 -0.5052  2.7770
  351DG      H4 8054   0.163   1.491   3.362  0.7707 -0.0273 -0.3953
  351DG      H5 8055   0.326   1.556   3.422 -0.2857 -0.8875  1.2155
  351DG      H6 8056   0.425   0.917   2.974 -1.9569  0.9320  2.0412
  351DG      H7 8057   0.303   0.952   2.849 -3.0317 -0.4479  0.2146
  351DG      H8 8058   0.484   0.963   2.806 -0.4151  2.2946  1.2850
  351DG      O9 8059   0.322   1.445   3.244  0.2447 -0.1273  0.1486
  351DG     O10 8060   0.385   1.111   2.925  0.0070  0.5386 -0.0788
  351DG     C11 8061   0.296   1.553   3.155 -0.6446  0.0784  0.2673
  351DG     C12 8062   0.346   1.201   2.819  0.1856  0.0862  0.6285
  351DG     H13 8063   0.344   1.646   3.198  0.2243  0.1356 -0.4742
  351DG     H14 8064   0.191   1.561   3.140  4.2440 -1.3696 -1.2335
  351DG     H15 8065   0.242   1.193   2.790  0.2570 -0.3904  1.6709
  351DG     H16 8066   0.397   1.173   2.721  0.8311 -0.1101 -2.1977
  351DG     C17 8067   0.359   1.518   3.019 -0.7083  0.7403 -0.6309
  351DG     C18 8068   0.379   1.346   2.852 -0.4440  0.1778  0.1635
  351DG     O19 8069   0.311   1.392   2.974 -0.0672 -0.1770 -0.1096
  351DG     H20 8070   0.468   1.506   3.023 -0.5946  0.4548 -1.3756
  351DG     H21 8071   0.333   1.603   2.956  0.1456 -0.7105  2.1444
  351DG     H22 8072   0.482   1.346   2.869 -1.0707 -0.1768  2.5781
  351DG     H23 8073   0.355   1.406   2.768  1.3813  0.2510  0.7585
  352DG      C1 8074   3.498   3.601   0.865 -0.8292 -0.3456  0.2817
  352DG      C2 8075   4.109   3.618   1.031  0.0320  0.4963  0.1150
  352DG      H3 8076   3.411   3.629   0.805 -1.7507  0.3843 -0.1145
  352DG      H4 8077   3.512   3.493   0.860 -0.0687 -3.6707  0.8491
  352DG      H5 8078   3.580   3.648   0.818 -2.4327 -1.0692 -2.5278
  352DG      H6 8079   4.061   3.660   0.949 -1.8352  0.1183  0.6719
  352DG      H7 8080   4.194   3.678   1.048 -0.8436 -0.3798 -1.7275
  352DG      H8 8081   4.152   3.522   0.994 -0.0970  1.9841 -0.8517
  352DG      O9 8082   3.494   3.634   0.999 -0.4698 -0.3706  0.3165
  352DG     O10 8083   4.027   3.602   1.145 -0.1726  0.2838  0.0330
  352DG     C11 8084   3.530   3.763   1.032  0.0721  0.1134  0.4040
  352DG     C12 8085   3.918   3.523   1.115 -0.5281 -0.4816 -0.5760
  352DG     H13 8086   3.517   3.793   1.137 -2.4365  1.7344 -0.2061
  352DG     H14 8087   3.476   3.835   0.966 -1.1657 -1.1223  0.2734
  352DG     H15 8088   3.880   3.491   1.210 -2.4122  0.1512 -0.8467
  352DG     H16 8089   3.948   3.441   1.065  1.2550  3.2618  4.6441
  352DG     C17 8090   3.682   3.781   1.009  0.7814 -1.0838 -0.5468
  352DG     C18 8091   3.810   3.584   1.028  0.0216  0.7227 -0.2951
  352DG     O19 8092   3.768   3.705   1.088  0.0287 -0.5196  0.4531
  352DG     H20 8093   3.711   3.886   1.037  2.1555  0.2886 -1.7502
  352DG     H21 8094   3.705   3.795   0.903  0.8352  0.0345  1.8053
  352DG     H22 8095   3.845   3.592   0.926 -0.8549  0.8694  0.9441
  352DG     H23 8096   3.726   3.518   1.010 -2.0439  1.2413 -1.5123
  353DG      C1 8097   3.237   1.750   1.583  0.0138 -0.2268 -0.3118
  353DG      C2 8098   3.294   1.575   0.982  0.5128  0.0618  0.0713
  353DG      H3 8099   3.286   1.651   1.582  2.4310  1.0419  2.3658
  353DG      H4 8100   3.123   1.738   1.564 -1.5792 -2.4244  0.3389
  353DG      H5 8101   3.259   1.803   1.677 -0.2887  1.2025 -1.6047
  353DG      H6 8102   3.332   1.581   0.872  0.3173  1.3976 -0.7912
  353DG      H7 8103   3.337   1.483   1.013 -1.6765  0.6995  0.1201
  353DG      H8 8104   3.179   1.561   0.972 -1.7765 -1.0120 -2.6859
  353DG      O9 8105   3.309   1.830   1.483  0.3596 -0.4045 -0.4869
  353DG     O10 8106   3.342   1.687   1.054  0.0075 -0.2478  1.2839
  353DG     C11 8107   3.246   1.951   1.453  0.7705  0.0070 -0.2507
  353DG     C12 8108   3.284   1.813   1.005  0.2775  0.2980 -0.8116
  353DG     H13 8109   3.257   2.023   1.533 -1.0708 -0.7431  1.8860
  353DG     H14 8110   3.138   1.939   1.428  0.9521 -0.1540 -1.0114
  353DG     H15 8111   3.170   1.810   1.011  0.7392 -3.4320 -0.1868
  353DG     H16 8112   3.314   1.839   0.896  0.6578  1.3506 -2.0478
  353DG     C17 8113   3.303   2.009   1.322 -0.5273 -0.3703 -0.7899
  353DG     C18 8114   3.322   1.932   1.092 -0.4776  0.1473 -0.3245
  353DG     O19 8115   3.283   1.901   1.226  0.2441 -0.4787 -0.2086
  353DG     H20 8116   3.407   2.031   1.344 -1.2083 -0.2021  3.4365
  353DG     H21 8117   3.261   2.105   1.296  2.1142 -2.6801  0.6652
  353DG     H22 8118   3.431   1.934   1.084 -1.3130 -1.6831  0.3276
  353DG     H23 8119   3.285   2.027   1.059  0.1969  0.3298  0.7784
  354DG      C1 8120   0.267   0.851   2.591 -0.5972  0.2248  0.5280
  354DG      C2 8121   0.911   0.551   2.301  0.4966  0.5437  0.1176
  354DG      H3 8122   0.203   0.781   2.536  0.1657 -0.9903  0.3612
  354DG      H4 8123   0.207   0.931   2.625 -0.4740  0.0531 -2.1671
  354DG      H5 8124   0.293   0.773   2.666  0.5558 -0.5233 -2.0986
  354DG      H6 8125   0.807   0.534   2.302  1.0390  3.8333  0.4864
  354DG      H7 8126   0.923   0.598   2.204  2.6016 -0.3628  0.2208
  354DG      H8 8127   0.972   0.460   2.288 -0.8114  0.2690  0.5779
  354DG      O9 8128   0.387   0.894   2.528 -0.4436 -0.1148 -0.3664
  354DG     O10 8129   0.929   0.642   2.409  0.1657 -0.2084 -0.0905
  354DG     C11 8130   0.462   0.793   2.460 -0.2314 -0.6495  0.8361
  354DG     C12 8131   0.904   0.601   2.538  0.4611  0.0535 -0.3701
  354DG     H13 8132   0.522   0.840   2.386  1.3003 -0.3855  0.3657
  354DG     H14 8133   0.383   0.743   2.397 -0.4816 -0.8493 -0.0669
  354DG     H15 8134   0.950   0.674   2.598  0.5158 -0.6741  0.2384
  354DG     H16 8135   0.969   0.507   2.567  3.7368  1.6710  3.7155
  354DG     C17 8136   0.541   0.691   2.537  0.3860 -0.0688 -0.0959
  354DG     C18 8137   0.752   0.588   2.565 -0.3001 -0.1377 -0.0930
  354DG     O19 8138   0.683   0.713   2.531 -0.7294  0.3930 -0.1447
  354DG     H20 8139   0.520   0.599   2.485  0.5873 -3.0323  0.8430
  354DG     H21 8140   0.506   0.668   2.634 -0.5144 -0.3476  1.4525
  354DG     H22 8141   0.725   0.500   2.520  2.6513 -1.6144 -0.6174
  354DG     H23 8142   0.732   0.584   2.673 -1.3726  2.1932 -1.0521
  355DG      C1 8143   0.943   3.060   1.263  0.5155  0.4572 -0.0089
  355DG      C2 8144   1.544   2.667   1.126 -0.6841 -0.7177 -0.0481
  355DG      H3 8145   0.904   3.123   1.344  3.4268  0.7095 -0.0469
  355DG      H4 8146   0.881   2.976   1.248 -2.5978  1.0657  0.6498
  355DG      H5 8147   0.968   3.099   1.160  0.5723  1.3716  2.0568
  355DG      H6 8148   1.585   2.650   1.225  2.0543 -2.9139 -0.7863
  355DG      H7 8149   1.483   2.580   1.101  1.2707  0.4514 -0.3263
  355DG      H8 8150   1.637   2.662   1.068 -0.2056 -1.6727  1.0995
  355DG      O9 8151   1.062   3.014   1.305  0.4564 -0.0879 -0.2230
  355DG     O10 8152   1.466   2.780   1.109 -0.2764 -0.4861 -0.2926
  355DG     C11 8153   1.153   3.116   1.354  0.1539 -0.3714  0.0515
  355DG     C12 8154   1.516   2.905   1.144  0.0283 -0.2095  0.0962
  355DG     H13 8155   1.104   3.152   1.445 -1.1310 -1.2489 -4.1133
  355DG     H14 8156   1.156   3.204   1.292 -2.5609  0.3147  0.0800
  355DG     H15 8157   1.487   2.985   1.077 -0.7009 -1.2336 -0.2450
  355DG     H16 8158   1.630   2.910   1.157 -0.7631  0.8958 -0.2753
  355DG     C17 8159   1.289   3.049   1.386  0.5105 -0.1091  0.5327
  355DG     C18 8160   1.477   2.953   1.284  0.3505 -0.2700  0.0283
  355DG     O19 8161   1.342   3.002   1.269  0.2111 -0.3971 -0.3772
  355DG     H20 8162   1.284   2.968   1.462  0.3912 -0.4276 -1.8876
  355DG     H21 8163   1.357   3.125   1.427 -1.7943 -0.2446  3.3020
  355DG     H22 8164   1.493   2.877   1.360 -0.8488 -1.1609 -1.8104
  355DG     H23 8165   1.539   3.038   1.314  0.5207  2.1195 -1.1862
  356DG      C1 8166   0.069   3.767   3.353 -0.3133 -0.3516  0.0095
  356DG      C2 8167   0.694   3.990   3.452  0.4259 -0.1734 -0.1876
  356DG      H3 8168  -0.015   3.733   3.286 -1.4754  0.9596 -0.1290
  356DG      H4 8169   0.027   3.864   3.391  0.8420  2.3506 -1.8055
  356DG      H5 8170   0.086   3.688   3.427  1.4938 -0.6297 -1.7262
  356DG      H6 8171   0.682   4.094   3.478 -1.0117 -0.3030  0.0002
  356DG      H7 8172   0.670   3.930   3.546 -0.9479  0.2109 -0.8898
  356DG      H8 8173   0.798   3.980   3.435  1.5562  0.1898 -0.6766
  356DG      O9 8174   0.194   3.780   3.274  0.5241  0.2216  0.1670
  356DG     O10 8175   0.616   3.939   3.349 -0.0660 -0.2319  0.1284
  356DG     C11 8176   0.185   3.871   3.166 -0.2935 -0.1355 -0.5864
  356DG     C12 8177   0.616   4.035   3.245  1.0178 -0.8841 -0.4427
  356DG     H13 8178   0.148   3.972   3.204  2.5062  4.6329 -0.1146
  356DG     H14 8179   0.114   3.835   3.089 -0.9991  0.4937  0.0860
  356DG     H15 8180   0.717   4.057   3.222  1.2086 -2.2709  0.1789
  356DG     H16 8181   0.559   4.125   3.280  0.1882 -1.9775  0.5061
  356DG     C17 8182   0.319   3.876   3.090 -0.6389 -0.4005  0.8065
  356DG     C18 8183   0.544   3.967   3.123  0.4044  0.3909 -0.1212
  356DG     O19 8184   0.413   3.941   3.179 -0.4578 -0.1597 -0.0053
  356DG     H20 8185   0.310   3.936   3.001 -1.8761  1.0614 -4.1894
  356DG     H21 8186   0.358   3.772   3.066 -2.2337  0.1267  0.1206
  356DG     H22 8187   0.541   4.021   3.029  1.6573 -2.2040 -2.1493
  356DG     H23 8188   0.586   3.870   3.107  1.7128 -1.3651 -0.1186
  357DG      C1 8189   2.495   2.694   5.444 -0.4125  0.0698  0.0182
  357DG      C2 8190   2.592   2.306   4.831 -0.1039 -0.0106  0.3746
  357DG      H3 8191   2.578   2.763   5.480  0.4966  0.7331  1.3958
  357DG      H4 8192   2.435   2.668   5.536  2.8561 -0.9706 -0.0258
  357DG      H5 8193   2.439   2.756   5.379 -0.7838 -0.5846  0.7263
  357DG      H6 8194   2.522   2.309   4.912 -1.0819  1.6936  0.9349
  357DG      H7 8195   2.550   2.353   4.745 -0.6106  0.0387  2.3455
  357DG      H8 8196   2.623   2.210   4.808 -1.5567  1.5485 -1.7250
  357DG      O9 8197   2.534   2.580   5.368 -0.2735 -0.1829 -0.2134
  357DG     O10 8198   2.709   2.386   4.849 -0.0054 -0.3934  0.3640
  357DG     C11 8199   2.432   2.503   5.309  0.8123 -0.2956 -0.1785
  357DG     C12 8200   2.688   2.502   4.931 -0.7038  0.1922 -0.6482
  357DG     H13 8201   2.369   2.565   5.245  0.2871 -2.3432  0.7259
  357DG     H14 8202   2.365   2.470   5.390 -1.5437 -0.0653  1.4231
  357DG     H15 8203   2.607   2.557   4.895  0.1208  0.4042  0.0761
  357DG     H16 8204   2.778   2.561   4.920  0.3593  3.4862 -0.3541
  357DG     C17 8205   2.495   2.382   5.235  0.5613  0.7181 -0.4754
  357DG     C18 8206   2.659   2.479   5.080 -0.0664 -0.0871  0.0741
  357DG     O19 8207   2.531   2.425   5.104 -0.6098 -0.1204 -0.5254
  357DG     H20 8208   2.427   2.299   5.225  2.0858 -3.3780 -2.1979
  357DG     H21 8209   2.579   2.345   5.302  0.1875 -0.0764  1.9030
  357DG     H22 8210   2.733   2.411   5.120 -0.1552  0.5763 -0.0338
  357DG     H23 8211   2.675   2.571   5.134  0.5281 -3.1801 -0.0763
  358DG      C1 8212   2.419   0.568   2.738 -0.4846  0.6951 -0.0364
  358DG      C2 8213   1.965   0.706   2.136 -0.5232  0.2557  0.4399
  358DG      H3 8214   2.398   0.467   2.708 -1.9354  0.6824 -0.7843
  358DG      H4 8215   2.452   0.583   2.841  0.6937  0.6217  0.8750
  358DG      H5 8216   2.493   0.595   2.662 -0.1182 -0.1056 -0.6254
  358DG      H6 8217   2.044   0.758   2.083 -0.6652 -1.6138 -1.2869
  358DG      H7 8218   1.984   0.597   2.137 -0.7976  0.2284  2.5382
  358DG      H8 8219   1.874   0.712   2.076 -1.1466  0.2003 -0.7024
  358DG      O9 8220   2.299   0.639   2.717  0.3588 -0.3004  0.0286
  358DG     O10 8221   1.935   0.754   2.271  0.5381  0.8228  0.2803
  358DG     C11 8222   2.298   0.780   2.743  0.4266 -0.5496 -0.2227
  358DG     C12 8223   2.056   0.798   2.338 -0.5350 -0.3961 -0.1434
  358DG     H13 8224   2.371   0.831   2.691 -1.5441 -2.3292 -1.2097
  358DG     H14 8225   2.319   0.791   2.849 -1.4245 -0.5145  1.4273
  358DG     H15 8226   2.100   0.880   2.277 -2.9809  1.7917  0.3072
  358DG     H16 8227   2.121   0.709   2.344 -0.6614 -0.1874  2.5131
  358DG     C17 8228   2.162   0.845   2.702  0.1532 -0.1477  0.6274
  358DG     C18 8229   2.039   0.823   2.490  0.6394 -0.5771  0.1076
  358DG     O19 8230   2.160   0.816   2.562 -0.4806 -0.0846 -0.0056
  358DG     H20 8231   2.173   0.953   2.703 -0.1809  0.2375 -2.8836
  358DG     H21 8232   2.074   0.812   2.752 -1.1576 -0.0033  0.6937
  358DG     H22 8233   1.987   0.922   2.498  0.7334  1.6448 -5.1333
  358DG     H23 8234   1.959   0.759   2.532 -0.9616  1.8990 -1.4105
  359DG      C1 8235   1.257   4.443   1.329 -0.5111  0.2784 -1.1420
  359DG      C2 8236   1.057   4.980   0.960 -0.1637 -0.2618 -0.0342
  359DG      H3 8237   1.243   4.419   1.432  0.0917  0.5071  3.2699
  359DG      H4 8238   1.174   4.401   1.278  1.0064  1.8089 -0.8214
  359DG      H5 8239   1.259   4.554   1.319 -0.5099  1.4334 -1.8567
  359DG      H6 8240   0.970   4.922   0.961  0.7233  1.4650  0.0463
  359DG      H7 8241   1.078   5.019   1.063  1.7934 -0.1203  1.4907
  359DG      H8 8242   1.060   5.070   0.893  1.2922 -2.0032  1.5002
  359DG      O9 8243   1.382   4.391   1.300 -0.1326 -0.2467  0.2790
  359DG     O10 8244   1.166   4.898   0.920 -0.7402  0.5267  0.2494
  359DG     C11 8245   1.413   4.380   1.161  0.2250  0.6757 -0.2873
  359DG     C12 8246   1.186   4.789   1.009 -0.7459 -0.6317  0.1141
  359DG     H13 8247   1.324   4.319   1.128 -1.3601  0.7390 -0.9272
  359DG     H14 8248   1.511   4.332   1.150  2.1808 -1.4500 -2.2388
  359DG     H15 8249   1.105   4.721   0.984 -0.3778 -0.4834  0.7718
  359DG     H16 8250   1.172   4.823   1.111  2.1242  0.3918 -0.5019
  359DG     C17 8251   1.426   4.506   1.071 -0.2153  0.4012 -0.6068
  359DG     C18 8252   1.318   4.708   0.997 -0.3416  0.6066  0.0328
  359DG     O19 8253   1.307   4.582   1.071  0.2219  0.0516 -0.3627
  359DG     H20 8254   1.449   4.466   0.970 -0.8113 -0.5453  0.3465
  359DG     H21 8255   1.518   4.557   1.123  1.7683 -1.9984  2.1099
  359DG     H22 8256   1.324   4.672   0.897  1.7188  0.2530 -0.7671
  359DG     H23 8257   1.414   4.754   1.021  0.2390 -1.6835 -0.0587
  360DG      C1 8258   3.271   1.531   4.673 -0.3688  0.1602  0.1858
  360DG      C2 8259   3.153   1.524   5.334 -0.3065  0.6829 -0.3716
  360DG      H3 8260   3.375   1.518   4.699 -1.7534  0.9550  2.2664
  360DG      H4 8261   3.284   1.589   4.580  1.5252  1.7231  0.0426
  360DG      H5 8262   3.235   1.434   4.651 -1.6738  0.3050  0.7560
  360DG      H6 8263   3.103   1.423   5.358  0.9720  0.0460 -0.2143
  360DG      H7 8264   3.268   1.513   5.329  4.3146 -0.9357 -0.2224
  360DG      H8 8265   3.134   1.599   5.407 -2.1753 -2.6516 -0.1581
  360DG      O9 8266   3.193   1.603   4.776  0.0856  0.1752  0.7601
  360DG     O10 8267   3.105   1.564   5.208  0.5831  0.1764  0.9533
  360DG     C11 8268   3.061   1.607   4.733 -0.1063 -0.5485  0.0345
  360DG     C12 8269   2.967   1.588   5.205  0.6857  0.3849  0.1275
  360DG     H13 8270   3.010   1.515   4.699  0.5322 -2.7624 -0.0985
  360DG     H14 8271   3.064   1.676   4.641 -0.8816 -0.7018 -1.0778
  360DG     H15 8272   2.941   1.663   5.278 -0.6139  1.3681 -1.4234
  360DG     H16 8273   2.912   1.490   5.217 -1.1283 -1.7765  1.4111
  360DG     C17 8274   2.979   1.676   4.839 -0.2690 -0.5212  0.1521
  360DG     C18 8275   2.925   1.654   5.070  0.4637  0.3271 -0.4787
  360DG     O19 8276   2.999   1.608   4.957 -0.5016  0.2088  0.2071
  360DG     H20 8277   2.869   1.665   4.819 -1.2270 -0.8210 -4.9746
  360DG     H21 8278   2.998   1.777   4.853 -2.3229  1.2515 -0.4541
  360DG     H22 8279   2.820   1.639   5.050  0.4146  2.5092 -0.0056
  360DG     H23 8280   2.934   1.765   5.085 -1.9095 -2.0820 -0.3532
  361DG      C1 8281   0.008   1.565   3.656 -1.1302  0.0607 -0.0796
  361DG      C2 8282   0.595   1.884   3.937  0.1814  0.0567 -0.2180
  361DG      H3 8283   0.041   1.464   3.679 -1.5352  0.3595 -0.7639
  361DG      H4 8284  -0.063   1.560   3.572 -0.7434 -0.6961 -1.3461
  361DG      H5 8285  -0.055   1.593   3.741 -2.0229  2.3485 -2.8055
  361DG      H6 8286   0.550   1.799   3.976  0.4111  2.0037 -0.2289
  361DG      H7 8287   0.698   1.861   3.910  1.6659 -0.4988  0.0390
  361DG      H8 8288   0.595   1.962   4.012 -1.9704  2.4272 -3.9467
  361DG      O9 8289   0.113   1.651   3.616  0.3329  0.2721  0.0042
  361DG     O10 8290   0.525   1.928   3.829  1.0147  0.4227  0.5306
  361DG     C11 8291   0.076   1.791   3.613 -0.2239  0.1202 -0.3103
  361DG     C12 8292   0.534   1.828   3.724  0.6250 -0.3368  0.6891
  361DG     H13 8293   0.050   1.822   3.711  1.6127  0.6542  0.1481
  361DG     H14 8294  -0.010   1.810   3.550  2.0151  0.3013 -1.7384
  361DG     H15 8295   0.497   1.735   3.771 -2.2132 -1.1385  0.6322
  361DG     H16 8296   0.637   1.818   3.688  0.0181  1.1844 -1.2163
  361DG     C17 8297   0.200   1.871   3.563  0.4858 -0.4946 -0.8778
  361DG     C18 8298   0.441   1.867   3.605  0.1887 -0.3943 -0.1213
  361DG     O19 8299   0.306   1.835   3.648 -0.4150  0.4979 -0.7620
  361DG     H20 8300   0.176   1.982   3.579 -0.1109  0.1157 -2.5153
  361DG     H21 8301   0.224   1.855   3.464  2.0838  3.1808  0.9034
  361DG     H22 8302   0.454   1.976   3.592  0.6971 -0.5016  2.7323
  361DG     H23 8303   0.480   1.810   3.519 -2.2069 -2.6313 -1.4600
  362DG      C1 8304   2.682   2.978   3.712  0.1647 -0.3021 -0.2380
  362DG      C2 8305   2.162   2.797   4.018 -0.7477 -0.4129  0.3235
  362DG      H3 8306   2.636   3.071   3.675  1.6404 -1.4828 -0.1421
  362DG      H4 8307   2.772   2.983   3.643 -0.5745 -0.4793  0.5501
  362DG      H5 8308   2.714   2.987   3.817 -0.4017  3.4391 -0.7298
  362DG      H6 8309   2.099   2.771   3.933  0.5216  1.1555  0.5473
  362DG      H7 8310   2.129   2.730   4.096 -0.6811  0.2075  0.4883
  362DG      H8 8311   2.134   2.903   4.046  0.9869 -0.3051  0.4791
  362DG      O9 8312   2.606   2.860   3.702  0.1420  0.3719 -0.1542
  362DG     O10 8313   2.297   2.766   3.986  0.1156  0.1424 -0.3279
  362DG     C11 8314   2.669   2.739   3.732 -0.1859 -0.2952  0.6812
  362DG     C12 8315   2.327   2.628   3.982  0.5456 -0.2806  0.6710
  362DG     H13 8316   2.710   2.740   3.833  0.0424 -2.2408 -1.8513
  362DG     H14 8317   2.753   2.731   3.661 -0.5259  0.7851 -1.5343
  362DG     H15 8318   2.241   2.574   3.947 -1.4640 -2.7233 -0.0102
  362DG     H16 8319   2.323   2.598   4.089  0.2194 -0.0146  0.3776
  362DG     C17 8320   2.582   2.614   3.714 -0.5911  0.1065  0.1871
  362DG     C18 8321   2.452   2.592   3.912  0.2706  0.4555  0.7365
  362DG     O19 8322   2.460   2.643   3.779 -0.0109  0.2273  0.0189
  362DG     H20 8323   2.632   2.525   3.748  0.3311 -0.2395 -0.4610
  362DG     H21 8324   2.557   2.584   3.612  0.3677  1.3842  2.1675
  362DG     H22 8325   2.530   2.621   3.973 -0.5526 -2.5550  0.9846
  362DG     H23 8326   2.454   2.484   3.905 -1.9135  0.8687 -2.4907
  363DG      C1 8327   3.609   2.332   4.043  0.8583 -0.3603 -0.4933
  363DG      C2 8328   3.483   1.953   4.705  0.0787 -0.1570  0.4470
  363DG      H3 8329   3.511   2.335   4.003  2.7518  0.1485  0.7066
  363DG      H4 8330   3.655   2.253   3.991  0.3056 -0.5423  0.9030
  363DG      H5 8331   3.665   2.427   4.014  1.1212 -0.5033 -0.6802
  363DG      H6 8332   3.513   1.982   4.810 -1.2391 -1.8155 -0.6818
  363DG      H7 8333   3.380   1.992   4.706  2.4027  1.9990 -1.1266
  363DG      H8 8334   3.488   1.840   4.712  2.0120 -0.9438  2.7861
  363DG      O9 8335   3.620   2.311   4.184 -0.0099  0.3678  0.0012
  363DG     O10 8336   3.562   2.027   4.618 -0.3512 -0.7581  0.2845
  363DG     C11 8337   3.757   2.284   4.216 -0.3318  0.0171  0.0524
  363DG     C12 8338   3.520   2.012   4.477 -0.3466  0.4207 -0.3260
  363DG     H13 8339   3.814   2.368   4.178  0.3735  0.3043  0.8342
  363DG     H14 8340   3.800   2.194   4.160  1.6857  2.0846 -1.6050
  363DG     H15 8341   3.426   2.065   4.453  0.2737  0.8059  0.6458
  363DG     H16 8342   3.516   1.902   4.462 -2.0894 -4.3635 -2.7471
  363DG     C17 8343   3.782   2.273   4.370  0.6059  0.2133  0.4811
  363DG     C18 8344   3.634   2.075   4.388  0.5782 -0.4311  0.4841
  363DG     O19 8345   3.681   2.201   4.450 -0.3323 -0.0101  0.1605
  363DG     H20 8346   3.776   2.383   4.406 -1.4750 -0.4218  1.7783
  363DG     H21 8347   3.883   2.229   4.381  0.2196 -0.0109  0.0971
  363DG     H22 8348   3.717   2.004   4.374  0.9584  0.7787  1.5478
  363DG     H23 8349   3.588   2.085   4.293 -2.3434 -0.7625  0.3181
  364DG      C1 8350   1.882   1.029   1.541  0.0459 -0.6718 -0.0777
  364DG      C2 8351   2.526   1.388   1.486  0.2164  0.1366  0.3430
  364DG      H3 8352   1.816   1.108   1.577  1.7172 -2.5507  3.4609
  364DG      H4 8353   1.919   0.981   1.633  1.0718 -0.3655  3.4272
  364DG      H5 8354   1.826   0.951   1.490  1.9171  1.1739 -0.6209
  364DG      H6 8355   2.514   1.493   1.520 -0.8845 -0.1518  0.0017
  364DG      H7 8356   2.574   1.343   1.577  0.8243  0.8854  3.8333
  364DG      H8 8357   2.593   1.389   1.400  2.2370 -0.0988  0.7875
  364DG      O9 8358   1.991   1.083   1.462  0.1315  0.0146  0.1118
  364DG     O10 8359   2.401   1.339   1.446 -0.0907  0.2192  0.2763
  364DG     C11 8360   1.928   1.140   1.350 -0.0433 -1.5573 -0.7686
  364DG     C12 8361   2.332   1.427   1.354  0.5621  0.4488 -0.5475
  364DG     H13 8362   1.855   1.214   1.381  0.7494 -0.3486 -0.4774
  364DG     H14 8363   1.879   1.067   1.284  1.4738 -0.8555 -0.9773
  364DG     H15 8364   2.392   1.495   1.300  2.1692 -1.8629 -1.3912
  364DG     H16 8365   2.274   1.499   1.414 -1.2067 -0.7308 -0.2675
  364DG     C17 8366   2.029   1.231   1.267 -0.0662 -0.1925 -0.4240
  364DG     C18 8367   2.231   1.353   1.273  0.4665 -0.0193 -0.6428
  364DG     O19 8368   2.143   1.277   1.350 -0.6532  0.1951 -0.1687
  364DG     H20 8369   1.970   1.309   1.217 -2.5512  2.2585 -1.2807
  364DG     H21 8370   2.067   1.183   1.175  0.2198  1.0659 -1.4314
  364DG     H22 8371   2.190   1.422   1.210  3.4944 -2.8734 -1.5411
  364DG     H23 8372   2.277   1.281   1.207  0.4585  0.6885 -0.2311
  365DG      C1 8373   1.538   4.787   3.657  0.0859 -0.5677  0.3739
  365DG      C2 8374   1.146   5.193   3.417 -0.2106 -0.2518 -0.4816
  365DG      H3 8375   1.572   4.713   3.586  1.9023 -3.1993  0.1545
  365DG      H4 8376   1.587   4.761   3.754  0.4235  1.2237  1.4259
  365DG      H5 8377   1.580   4.884   3.633 -0.6430 -1.1792  1.3517
  365DG      H6 8378   1.053   5.244   3.390 -0.1742 -1.3035  0.2453
  365DG      H7 8379   1.166   5.228   3.517  5.0940  3.0741 -0.8075
  365DG      H8 8380   1.231   5.220   3.358 -0.1301 -0.9647  1.1114
  365DG      O9 8381   1.398   4.801   3.683  0.5192 -0.0405 -0.3794
  365DG     O10 8382   1.127   5.053   3.422  0.2751 -0.2086  0.0419
  365DG     C11 8383   1.369   4.892   3.786  0.3267  0.3833 -0.2583
  365DG     C12 8384   1.013   5.012   3.507  0.1368 -0.1167  0.5822
  365DG     H13 8385   1.425   4.987   3.766  1.9452  1.8601 -1.8718
  365DG     H14 8386   1.408   4.855   3.887  3.7316 -1.6751  0.9845
  365DG     H15 8387   0.982   4.916   3.462 -0.7432  1.7617  4.3055
  365DG     H16 8388   0.927   5.072   3.485  0.3252 -2.6986 -2.1854
  365DG     C17 8389   1.222   4.924   3.791  0.2680  0.3530  0.0488
  365DG     C18 8390   1.043   5.006   3.654 -0.0148  0.4062  0.8652
  365DG     O19 8391   1.181   4.970   3.660 -0.8193 -0.2221 -0.4493
  365DG     H20 8392   1.192   5.003   3.865  3.4862 -2.0992  2.5026
  365DG     H21 8393   1.159   4.836   3.822 -0.3976  1.4141  1.1577
  365DG     H22 8394   1.024   5.102   3.708  3.0007 -1.9501  0.3328
  365DG     H23 8395   0.980   4.931   3.700  1.4584 -1.0690 -0.1660
  366DG      C1 8396   3.972   0.643   4.152  0.1049 -0.5349  0.5747
  366DG      C2 8397   4.392   0.282   4.764 -0.1466  0.1279  0.9350
  366DG      H3 8398   3.893   0.673   4.086  1.3078  0.5967  1.2851
  366DG      H4 8399   4.042   0.578   4.100 -1.3346  2.2398  1.7464
  366DG      H5 8400   4.021   0.737   4.172 -1.0038  0.9793  2.4197
  366DG      H6 8401   4.464   0.320   4.841  1.1133  1.9540 -1.2202
  366DG      H7 8402   4.297   0.248   4.806  0.1115  0.2101  0.6398
  366DG      H8 8403   4.453   0.200   4.730 -3.1717 -0.9963  1.2882
  366DG      O9 8404   3.919   0.582   4.267 -0.3497 -0.2405 -0.1700
  366DG     O10 8405   4.360   0.376   4.662  0.3507 -0.0044 -0.0383
  366DG     C11 8406   4.010   0.516   4.355 -0.1796  0.4425  0.3177
  366DG     C12 8407   4.320   0.498   4.709  0.3455 -0.2524 -0.2870
  366DG     H13 8408   4.071   0.447   4.293  1.2590 -1.0194 -1.5647
  366DG     H14 8409   3.967   0.450   4.426 -0.4892  2.7013 -0.2887
  366DG     H15 8410   4.409   0.544   4.738  0.3298  0.2115 -0.4984
  366DG     H16 8411   4.244   0.497   4.790  0.0364  1.2978  1.0255
  366DG     C17 8412   4.085   0.609   4.443  0.6352  0.7449 -0.0203
  366DG     C18 8413   4.251   0.581   4.603 -0.3339  0.5267 -0.1569
  366DG     O19 8414   4.149   0.515   4.539 -0.4803  0.6573 -0.3622
  366DG     H20 8415   4.020   0.674   4.500 -2.1287  0.2884 -0.5157
  366DG     H21 8416   4.153   0.664   4.384  0.3997  3.4171  0.0487
  366DG     H22 8417   4.217   0.670   4.648  1.6878  1.8998 -2.0005
  366DG     H23 8418   4.325   0.610   4.533  0.4735  2.0228  1.2886
  367DG      C1 8419   4.895   0.483   2.689 -0.1296  0.3604  0.6259
  367DG      C2 8420   5.220   0.589   2.024  0.4800  0.5802 -0.3279
  367DG      H3 8421   4.903   0.582   2.743 -0.7085  0.8534  3.6321
  367DG      H4 8422   4.992   0.438   2.702 -0.8057  0.5530  1.1557
  367DG      H5 8423   4.825   0.418   2.743 -0.3801  1.2582  0.1038
  367DG      H6 8424   5.181   0.627   1.924  1.6542 -2.8403 -0.6716
  367DG      H7 8425   5.294   0.662   2.053 -0.2080 -2.1069  3.5955
  367DG      H8 8426   5.277   0.499   2.009 -1.5036  2.0613 -0.5311
  367DG      O9 8427   4.864   0.498   2.550 -0.3132 -0.0591  0.0154
  367DG     O10 8428   5.101   0.588   2.113  0.1589  0.9810  0.1477
  367DG     C11 8429   4.818   0.374   2.492 -0.1855 -0.0780  0.4551
  367DG     C12 8430   5.011   0.482   2.088  0.3751 -0.2937 -1.0447
  367DG     H13 8431   4.742   0.325   2.557 -0.3747  1.6995 -0.6483
  367DG     H14 8432   4.895   0.300   2.500 -1.4391 -1.1372  0.9060
  367DG     H15 8433   5.056   0.390   2.109 -0.4326  1.7903  0.7687
  367DG     H16 8434   4.991   0.490   1.983 -0.6457  0.9183  1.9751
  367DG     C17 8435   4.776   0.403   2.352  0.0150  0.0385  0.8629
  367DG     C18 8436   4.872   0.493   2.161 -0.8570  0.1425  0.7370
  367DG     O19 8437   4.896   0.454   2.295 -0.3549 -0.4081  0.1220
  367DG     H20 8438   4.704   0.481   2.343  0.4002  2.6923 -0.6540
  367DG     H21 8439   4.741   0.315   2.301  0.9446 -2.0505  1.2830
  367DG     H22 8440   4.832   0.587   2.149 -0.4776 -1.3171  0.2743
  367DG     H23 8441   4.801   0.437   2.107  1.4384  0.0171  1.3333
  368DG      C1 8442   4.979   4.216   4.612  0.5996  0.4002 -0.2015
  368DG      C2 8443   5.515   4.311   4.151 -0.4339 -0.2398  0.3118
  368DG      H3 8444   5.020   4.286   4.679  0.0373  2.6633 -1.2240
  368DG      H4 8445   4.934   4.139   4.678 -0.9830 -1.5610  1.3684
  368DG      H5 8446   4.902   4.269   4.557 -0.3559 -0.1044  2.5324
  368DG      H6 8447   5.605   4.245   4.149  0.3269 -0.9443 -1.2684
  368DG      H7 8448   5.489   4.333   4.048  1.0309  2.0283  1.4052
  368DG      H8 8449   5.540   4.412   4.192  1.0882 -1.5969  1.0565
  368DG      O9 8450   5.073   4.153   4.532 -0.2200  0.4306 -0.3373
  368DG     O10 8451   5.402   4.263   4.236 -0.2892 -0.3876 -0.0691
  368DG     C11 8452   5.011   4.055   4.445  0.2833  0.6553 -0.3917
  368DG     C12 8453   5.326   4.171   4.161  0.5436 -0.2440 -0.1072
  368DG     H13 8454   4.957   4.110   4.363 -0.0922 -0.5794 -0.5980
  368DG     H14 8455   4.933   3.996   4.492 -1.5056  0.1660 -2.0486
  368DG     H15 8456   5.391   4.087   4.131  0.0536  0.6081 -1.0657
  368DG     H16 8457   5.282   4.210   4.069 -2.2941  2.0500  2.7349
  368DG     C17 8458   5.125   3.974   4.393 -0.5469  0.0701  0.3486
  368DG     C18 8459   5.201   4.132   4.234  0.4153 -0.2683  0.3951
  368DG     O19 8460   5.231   4.062   4.354  0.5493  0.2675 -0.1619
  368DG     H20 8461   5.090   3.906   4.306  1.2960  0.5037  0.5655
  368DG     H21 8462   5.172   3.909   4.470  1.8366 -1.0688 -1.7800
  368DG     H22 8463   5.145   4.226   4.252  0.5121  0.4589 -0.0970
  368DG     H23 8464   5.141   4.068   4.167  1.1837  2.1132 -1.6855
  369DG      C1 8465   0.264   5.433   1.536 -0.0067  0.2324  0.5753
  369DG      C2 8466   0.990   5.397   1.107  0.3566  0.2701 -0.4615
  369DG      H3 8467   0.180   5.393   1.492  2.0249 -0.0649 -0.0864
  369DG      H4 8468   0.260   5.540   1.522  2.2368  1.5387  0.9662
  369DG      H5 8469   0.257   5.420   1.643  0.4582  0.1357 -0.6309
  369DG      H6 8470   0.922   5.428   1.025  2.8910  1.7055 -3.8673
  369DG      H7 8471   1.019   5.491   1.147 -0.9500 -1.3962  0.9418
  369DG      H8 8472   1.073   5.356   1.053  0.3689  0.8751  0.7766
  369DG      O9 8473   0.371   5.375   1.472 -0.0106  0.0254  0.4100
  369DG     O10 8474   0.931   5.311   1.205 -0.6748  0.7006 -0.4174
  369DG     C11 8475   0.463   5.315   1.562 -0.4369  0.4557 -1.2187
  369DG     C12 8476   0.812   5.364   1.261  0.7503  0.7850 -0.3124
  369DG     H13 8477   0.417   5.266   1.642  0.0665  1.6887 -1.3500
  369DG     H14 8478   0.520   5.398   1.613  1.5274  1.6339 -1.4490
  369DG     H15 8479   0.752   5.395   1.183  0.6598 -0.5897  1.4007
  369DG     H16 8480   0.829   5.449   1.324 -0.5650  0.1388  0.4190
  369DG     C17 8481   0.567   5.227   1.487  0.1834  0.4043  0.9533
  369DG     C18 8482   0.746   5.259   1.338  0.1685 -0.0246 -0.7057
  369DG     O19 8483   0.625   5.310   1.385  0.2520  0.2913 -0.3473
  369DG     H20 8484   0.516   5.138   1.454  0.7407 -0.6902 -2.7600
  369DG     H21 8485   0.633   5.189   1.565 -0.4535 -2.6232  1.5548
  369DG     H22 8486   0.728   5.181   1.275 -1.0682  2.1457  0.1056
  369DG     H23 8487   0.820   5.231   1.420 -0.6335 -1.2836  1.5652
  370DG      C1 8488   1.156   0.878   3.811 -0.3705 -0.0545  0.4542
  370DG      C2 8489   1.183   0.223   4.156  0.7337 -0.0307  0.3847
  370DG      H3 8490   1.046   0.884   3.837 -0.9859 -1.6889  1.9652
  370DG      H4 8491   1.169   0.830   3.713 -1.3144  1.4498  1.1409
  370DG      H5 8492   1.199   0.975   3.807  3.4277 -0.7650 -0.2062
  370DG      H6 8493   1.246   0.155   4.200 -0.1649 -0.6711  0.8557
  370DG      H7 8494   1.111   0.249   4.236  0.4173 -1.5024  0.0794
  370DG      H8 8495   1.128   0.175   4.073  1.3856  1.3238  1.4210
  370DG      O9 8496   1.227   0.815   3.916 -0.2908 -0.1967  0.2666
  370DG     O10 8497   1.257   0.333   4.109 -0.3895 -0.0703 -0.0022
  370DG     C11 8498   1.352   0.776   3.879  0.7452  0.5602 -0.1758
  370DG     C12 8499   1.297   0.425   4.213 -0.2438 -0.9858  0.5095
  370DG     H13 8500   1.414   0.850   3.832  0.8404 -1.3816 -0.2840
  370DG     H14 8501   1.339   0.697   3.804  1.0790  0.8785 -1.9930
  370DG     H15 8502   1.342   0.352   4.284  0.1875 -0.0020 -1.5291
  370DG     H16 8503   1.206   0.472   4.256 -1.2496  1.6975  1.1902
  370DG     C17 8504   1.418   0.712   4.003  0.6627  0.3821 -0.2920
  370DG     C18 8505   1.394   0.531   4.159 -0.6128  0.0103 -0.2428
  370DG     O19 8506   1.334   0.610   4.053  0.0804 -0.4288 -0.2504
  370DG     H20 8507   1.433   0.791   4.079  0.9966 -0.4355 -2.6407
  370DG     H21 8508   1.519   0.664   3.980  2.8614 -0.9403 -0.3590
  370DG     H22 8509   1.421   0.603   4.242  0.4045  0.8630 -3.7431
  370DG     H23 8510   1.479   0.478   4.120  0.7685  0.5144 -1.3594
  371DG      C1 8511   4.174   1.389   4.091 -0.1786 -0.4466 -0.1445
  371DG      C2 8512   4.251   2.011   3.559 -0.2011  0.5151 -0.2100
  371DG      H3 8513   4.221   1.329   4.014  3.0707  1.5552 -0.8619
  371DG      H4 8514   4.112   1.325   4.148 -0.5772  2.5565  1.0076
  371DG      H5 8515   4.255   1.421   4.151 -2.5134 -4.6496  0.6581
  371DG      H6 8516   4.326   1.935   3.529  0.4889  2.0153 -0.3452
  371DG      H7 8517   4.205   2.047   3.465  1.8859  0.9752  1.2108
  371DG      H8 8518   4.310   2.104   3.603  2.2579 -0.3552 -1.9905
  371DG      O9 8519   4.106   1.501   4.031 -0.3799  0.0660  0.1460
  371DG     O10 8520   4.147   1.962   3.640 -0.4177  0.1277 -0.2710
  371DG     C11 8521   3.978   1.481   3.970  0.4398  0.8442  0.4924
  371DG     C12 8522   4.159   1.833   3.691 -0.3545  0.2084 -0.4797
  371DG     H13 8523   3.894   1.459   4.040 -1.4082 -0.1623  0.5559
  371DG     H14 8524   3.997   1.388   3.911 -0.5106 -0.2810  0.5896
  371DG     H15 8525   4.246   1.835   3.757  2.1082  0.2482  0.3873
  371DG     H16 8526   4.170   1.766   3.609  1.7751 -0.6753  1.7106
  371DG     C17 8527   3.943   1.613   3.900 -0.3386 -0.9164 -0.5496
  371DG     C18 8528   4.038   1.788   3.768  0.0226 -0.1761 -0.7963
  371DG     O19 8529   4.058   1.661   3.820 -0.6439  0.4921  0.0959
  371DG     H20 8530   3.916   1.688   3.973  0.8314 -0.4350  0.5758
  371DG     H21 8531   3.871   1.593   3.826  1.1396 -1.5994 -1.3933
  371DG     H22 8532   4.018   1.852   3.851  2.2429 -0.2820  1.5111
  371DG     H23 8533   3.947   1.790   3.699 -1.3339  2.3661 -2.8633
  372DG      C1 8534   4.769   5.389   0.408 -0.3749 -0.0371 -0.9495
  372DG      C2 8535   5.124   5.824   0.687 -0.4837  0.3201 -0.2160
  372DG      H3 8536   4.690   5.424   0.348 -0.1041 -1.7755  0.4040
  372DG      H4 8537   4.727   5.387   0.508 -0.0353  2.6744  0.7148
  372DG      H5 8538   4.793   5.290   0.388  0.9799 -1.2445  0.5588
  372DG      H6 8539   5.039   5.886   0.658  0.4777  1.3989  1.3936
  372DG      H7 8540   5.100   5.781   0.782 -1.3181  0.4083  0.8685
  372DG      H8 8541   5.202   5.891   0.704  0.3766 -6.0544  1.7747
  372DG      O9 8542   4.888   5.471   0.401  0.0878  0.8322 -0.4473
  372DG     O10 8543   5.158   5.719   0.591 -0.4134  0.2908  0.5292
  372DG     C11 8544   4.926   5.511   0.275  0.0248  0.1301  0.0536
  372DG     C12 8545   5.224   5.774   0.472  0.0187  0.6070 -0.0842
  372DG     H13 8546   4.845   5.570   0.225  1.0136  1.3242 -2.0308
  372DG     H14 8547   4.936   5.422   0.209 -0.1171 -0.8037 -0.2188
  372DG     H15 8548   5.316   5.844   0.484  1.7554  1.8101 -1.1683
  372DG     H16 8549   5.148   5.842   0.432 -2.3225  0.2791 -1.2526
  372DG     C17 8550   5.047   5.603   0.281 -0.2322  1.0606  0.4240
  372DG     C18 8551   5.255   5.644   0.385 -0.4057 -0.0719  0.0674
  372DG     O19 8552   5.138   5.566   0.381 -0.2648  0.1775 -0.2102
  372DG     H20 8553   5.008   5.701   0.291 -1.5043 -0.4338 -0.6411
  372DG     H21 8554   5.088   5.603   0.184  0.4707 -2.2666 -1.9424
  372DG     H22 8555   5.286   5.684   0.283 -1.2060 -0.4954 -2.4689
  372DG     H23 8556   5.324   5.577   0.426  0.1946 -0.7574  0.1573
  373DG      C1 8557   1.094   0.234   1.980 -0.2034  0.1840 -0.5286
  373DG      C2 8558   0.995   0.499   1.388  0.4476  0.5080 -0.0820
  373DG      H3 8559   1.061   0.131   2.002  0.7832 -0.4526 -2.0956
  373DG      H4 8560   1.107   0.278   2.074 -0.2194 -3.2371  1.9888
  373DG      H5 8561   1.194   0.235   1.930  0.6218 -2.1340  2.0322
  373DG      H6 8562   1.061   0.412   1.390  2.4702 -2.3646  2.2871
  373DG      H7 8563   0.917   0.480   1.314  0.1916  0.3768 -1.9097
  373DG      H8 8564   1.056   0.578   1.354 -1.0226  0.2155  1.1057
  373DG      O9 8565   1.002   0.312   1.905  0.0528 -0.1642  0.2006
  373DG     O10 8566   0.959   0.519   1.522 -0.2853  0.2686 -0.8233
  373DG     C11 8567   0.867   0.301   1.946 -0.5134 -0.8363 -0.5223
  373DG     C12 8568   0.821   0.551   1.538  0.2639  0.2500  0.1758
  373DG     H13 8569   0.847   0.288   2.053 -0.7639 -0.2509  1.9298
  373DG     H14 8570   0.825   0.214   1.902 -2.8640  1.2352 -0.7203
  373DG     H15 8571   0.754   0.475   1.499 -1.4822 -2.5378  1.4725
  373DG     H16 8572   0.795   0.645   1.492 -3.4314  1.7124  1.5713
  373DG     C17 8573   0.798   0.427   1.890  0.0060  0.5184  0.4660
  373DG     C18 8574   0.802   0.565   1.689  0.2612  0.6619  0.1498
  373DG     O19 8575   0.836   0.443   1.755 -0.6751  0.3168  0.4500
  373DG     H20 8576   0.838   0.523   1.940 -0.2128 -1.1639  1.3020
  373DG     H21 8577   0.693   0.416   1.907 -1.1040 -2.1439  1.1039
  373DG     H22 8578   0.862   0.646   1.726  0.0683 -0.9360  0.4384
  373DG     H23 8579   0.703   0.599   1.714  1.9281  0.9869 -2.7831
  374DG      C1 8580   2.550   1.179   4.224  0.4535  0.1854  0.4685
  374DG      C2 8581   2.608   1.816   4.193 -0.2801  0.1185  0.1683
  374DG      H3 8582   2.464   1.194   4.288  0.9864 -1.4141  1.7339
  374DG      H4 8583   2.638   1.205   4.279 -0.4279  2.8388  0.8351
  374DG      H5 8584   2.552   1.073   4.199  2.5721 -0.8937  2.5307
  374DG      H6 8585   2.721   1.826   4.188 -0.0215 -1.5520  2.2081
  374DG      H7 8586   2.557   1.905   4.162  1.3228 -1.4924  0.5981
  374DG      H8 8587   2.584   1.800   4.296 -2.7107  0.2366  0.5541
  374DG      O9 8588   2.522   1.271   4.117 -0.2743 -0.1358  0.1565
  374DG     O10 8589   2.574   1.703   4.116  0.5510  0.4547  0.0647
  374DG     C11 8590   2.617   1.258   4.017 -0.8137 -0.5978  0.4579
  374DG     C12 8591   2.621   1.713   3.981  0.3911  0.2657  1.3670
  374DG     H13 8592   2.602   1.158   3.973  0.2010  1.2078 -0.4175
  374DG     H14 8593   2.719   1.260   4.047  2.6100 -1.0053 -0.7224
  374DG     H15 8594   2.725   1.733   3.953 -0.9564  1.7194 -0.3306
  374DG     H16 8595   2.568   1.803   3.934  0.1090  2.2585 -3.0236
  374DG     C17 8596   2.577   1.358   3.921 -0.3769 -0.0202  0.2412
  374DG     C18 8597   2.569   1.591   3.901 -0.1297  1.1719 -0.2037
  374DG     O19 8598   2.610   1.480   3.980  0.1604 -0.2248  0.6102
  374DG     H20 8599   2.471   1.347   3.883 -0.7095  0.1551 -2.5612
  374DG     H21 8600   2.641   1.353   3.829  0.7139 -0.8453 -1.9256
  374DG     H22 8601   2.462   1.599   3.878  0.9144  1.6620 -2.1906
  374DG     H23 8602   2.622   1.586   3.803 -2.2244 -2.5344 -1.0535
  375DG      C1 8603   2.399   3.826   0.012 -0.2040 -0.2189  0.1899
  375DG      C2 8604   1.713   3.877   0.388  0.4396 -0.4527  0.5541
  375DG      H3 8605   2.414   3.934   0.003  0.5456 -2.6755  1.5287
  375DG      H4 8606   2.429   3.783  -0.089 -2.8574 -1.4520 -1.5148
  375DG      H5 8607   2.479   3.789   0.078  1.3554 -0.1900  1.1480
  375DG      H6 8608   1.692   3.978   0.356  0.8198 -0.5697  1.7002
  375DG      H7 8609   1.614   3.832   0.407  0.4773  0.3967  0.3112
  375DG      H8 8610   1.766   3.903   0.481  2.1734  0.6848  1.7166
  375DG      O9 8611   2.277   3.771   0.059  0.2287  0.3542  0.3071
  375DG     O10 8612   1.808   3.808   0.304 -0.5850  0.4498 -0.2976
  375DG     C11 8613   2.184   3.717  -0.034  0.1238  0.0464 -0.7520
  375DG     C12 8614   1.857   3.682   0.339 -0.0086  0.2052  0.2855
  375DG     H13 8615   2.229   3.656  -0.112  0.4734  0.8872 -0.3354
  375DG     H14 8616   2.132   3.792  -0.089 -0.3810 -3.8203  1.6646
  375DG     H15 8617   1.785   3.612   0.381 -3.7235 -0.9548  0.7176
  375DG     H16 8618   1.941   3.701   0.411 -1.3404  0.3338 -0.4920
  375DG     C17 8619   2.080   3.634   0.036  0.0821 -0.9550  0.3531
  375DG     C18 8620   1.926   3.615   0.212 -0.7548 -0.3213  0.2030
  375DG     O19 8621   2.034   3.687   0.160 -0.3218 -0.1578 -0.3250
  375DG     H20 8622   2.127   3.538   0.054 -1.1442  0.5552  1.9605
  375DG     H21 8623   1.996   3.621  -0.039  0.6701 -3.5351 -0.3270
  375DG     H22 8624   1.951   3.510   0.254  0.3825 -2.0706  0.5932
  375DG     H23 8625   1.846   3.597   0.133 -0.5216  1.0450  0.3931
  376DG      C1 8626   4.344   3.044   5.066 -0.4668 -0.6910  0.5414
  376DG      C2 8627   3.794   2.586   5.498 -0.2685  0.0545  0.3470
  376DG      H3 8628   4.360   2.937   5.043  0.0971  1.1547 -0.5674
  376DG      H4 8629   4.417   3.099   5.000  2.0626 -0.3440 -0.6801
  376DG      H5 8630   4.246   3.082   5.045  1.1125  0.8302 -0.2173
  376DG      H6 8631   3.705   2.646   5.472 -0.3393 -0.0996 -1.5902
  376DG      H7 8632   3.774   2.482   5.466  1.9125  0.1538  0.9319
  376DG      H8 8633   3.800   2.581   5.608 -1.4023 -0.4320  0.9290
  376DG      O9 8634   4.359   3.068   5.204 -0.4877  0.2107  0.2516
  376DG     O10 8635   3.901   2.636   5.418 -0.7887 -0.2226 -0.3022
  376DG     C11 8636   4.247   3.010   5.275 -0.1905 -0.1863  0.5397
  376DG     C12 8637   4.029   2.595   5.462  0.0308 -0.4251 -0.4347
  376DG     H13 8638   4.150   3.040   5.232 -1.3130  0.4670  0.7003
  376DG     H14 8639   4.248   3.044   5.379  1.8904 -0.1368 -1.6891
  376DG     H15 8640   4.030   2.490   5.459  0.8129  1.7699 -1.4786
  376DG     H16 8641   4.050   2.639   5.563  0.0919 -1.3634 -1.2229
  376DG     C17 8642   4.255   2.855   5.293 -0.3487  0.9302 -0.2502
  376DG     C18 8643   4.136   2.657   5.368  1.0522  0.5672 -0.4738
  376DG     O19 8644   4.138   2.800   5.358  0.7059  0.2138 -0.0647
  376DG     H20 8645   4.342   2.831   5.360  0.8736  0.6388  0.4447
  376DG     H21 8646   4.261   2.812   5.193 -1.2373 -1.4062 -1.5238
  376DG     H22 8647   4.234   2.615   5.399  2.1166 -1.5331 -0.1804
  376DG     H23 8648   4.122   2.621   5.265  0.0897 -0.6853 -0.3085
  377DG      C1 8649   0.513   2.680   0.184  0.2711  0.1617 -0.3542
  377DG      C2 8650   0.415   2.239   0.628 -0.8362  0.4176 -0.1947
  377DG      H3 8651   0.470   2.693   0.085  1.4217  0.6291 -1.3001
  377DG      H4 8652   0.537   2.787   0.216 -0.7855  1.3118 -0.7907
  377DG      H5 8653   0.432   2.641   0.247 -1.5051 -1.1220 -1.0351
  377DG      H6 8654   0.414   2.329   0.688  1.5381  1.3589 -1.3944
  377DG      H7 8655   0.318   2.201   0.607  2.2010 -0.9821 -2.5174
  377DG      H8 8656   0.478   2.168   0.684  1.3505  0.0194  2.2573
  377DG      O9 8657   0.629   2.598   0.189  0.5284  0.1703  0.2820
  377DG     O10 8658   0.479   2.276   0.501  0.0165 -0.1923  0.5075
  377DG     C11 8659   0.629   2.489   0.100  0.4748 -0.2977  0.1049
  377DG     C12 8660   0.473   2.168   0.409  0.4602  0.6411  0.0089
  377DG     H13 8661   0.718   2.513   0.043 -0.0366 -0.6368 -0.5061
  377DG     H14 8662   0.544   2.487   0.035 -2.2601  0.7629  1.3763
  377DG     H15 8663   0.373   2.157   0.359  1.0955  1.0004 -1.0158
  377DG     H16 8664   0.502   2.070   0.446 -0.3092 -2.0616  0.9831
  377DG     C17 8665   0.674   2.364   0.169  1.1186  0.8329 -0.8857
  377DG     C18 8666   0.576   2.198   0.297  0.3289  0.2737  0.3191
  377DG     O19 8667   0.562   2.333   0.253 -0.0525  0.2823  0.0532
  377DG     H20 8668   0.761   2.374   0.234  1.5831  0.8752  0.6060
  377DG     H21 8669   0.680   2.285   0.091 -0.8641 -0.7924  0.2010
  377DG     H22 8670   0.675   2.174   0.335  0.9197 -0.1822 -1.4057
  377DG     H23 8671   0.570   2.136   0.205  2.0702  1.6559  0.4577
  378DG      C1 8672   2.203   4.925   5.312  0.3682  0.0342  0.5251
  378DG      C2 8673   2.378   5.649   5.687  0.6380 -0.5254 -0.8691
  378DG      H3 8674   2.111   4.880   5.346  1.8233 -0.4730  1.3218
  378DG      H4 8675   2.260   4.832   5.281 -1.8393 -3.5556 -1.4562
  378DG      H5 8676   2.199   4.990   5.229  1.4545  2.3522 -0.9691
  378DG      H6 8677   2.412   5.724   5.765  3.0980 -1.9929  2.5452
  378DG      H7 8678   2.387   5.702   5.599 -3.8336 -0.5331  0.1879
  378DG      H8 8679   2.273   5.617   5.706 -0.3852  0.6973 -0.2025
  378DG      O9 8680   2.260   5.002   5.421  0.2051 -0.2401  0.6124
  378DG     O10 8681   2.457   5.539   5.688 -0.2434 -0.0292 -0.6218
  378DG     C11 8682   2.401   5.001   5.426  0.3440 -0.3511 -1.0237
  378DG     C12 8683   2.418   5.437   5.600 -0.4309  0.1678  0.4196
  378DG     H13 8684   2.430   5.039   5.329 -0.5256  0.7908  0.6211
  378DG     H14 8685   2.453   4.906   5.435  0.5191 -0.5574 -0.0706
  378DG     H15 8686   2.432   5.465   5.493  0.4962 -0.1644 -4.4020
  378DG     H16 8687   2.309   5.416   5.595  0.3256 -2.6322 -0.7729
  378DG     C17 8688   2.463   5.088   5.539  0.0045  0.5650  0.6054
  378DG     C18 8689   2.498   5.308   5.622  0.6466 -0.1166 -0.1022
  378DG     O19 8690   2.428   5.223   5.527 -0.1701 -0.3755 -0.1705
  378DG     H20 8691   2.569   5.080   5.510  0.1183 -1.6778  0.9438
  378DG     H21 8692   2.464   5.059   5.642  0.5062 -0.2654 -1.1597
  378DG     H22 8693   2.602   5.312   5.605 -0.7249 -0.2635  0.7849
  378DG     H23 8694   2.491   5.275   5.726 -0.0213  0.6268  4.0192
  379DG      C1 8695   0.479   1.812   0.174  0.8639 -0.1241 -0.6199
  379DG      C2 8696  -0.125   1.957   0.639 -0.0121  0.7872  0.0212
  379DG      H3 8697   0.579   1.856   0.189 -1.1119  1.4404 -0.6412
  379DG      H4 8698   0.460   1.778   0.071  0.7702 -0.9989  1.0517
  379DG      H5 8699   0.470   1.723   0.237  1.9694  1.1958  4.1745
  379DG      H6 8700  -0.229   1.916   0.645 -1.6616 -2.9915  1.3649
  379DG      H7 8701  -0.058   1.903   0.709  2.2443 -0.9786  4.3817
  379DG      H8 8702  -0.137   2.050   0.687 -2.2455  0.9212  1.6084
  379DG      O9 8703   0.386   1.909   0.207  0.3980 -0.2016 -0.7058
  379DG     O10 8704  -0.081   1.963   0.513 -0.1022 -0.3168  0.0401
  379DG     C11 8705   0.263   1.879   0.149 -0.3074 -0.1318 -0.2361
  379DG     C12 8706  -0.059   1.834   0.445 -0.4926  0.9587 -0.0852
  379DG     H13 8707   0.239   1.779   0.188 -1.9362 -2.4477  1.5417
  379DG     H14 8708   0.286   1.868   0.042  1.2659  1.3125  3.0842
  379DG     H15 8709  -0.155   1.780   0.435  2.0634 -2.8552  1.5379
  379DG     H16 8710   0.005   1.769   0.498  0.0094  2.4552 -0.0269
  379DG     C17 8711   0.162   1.988   0.180  0.5716  0.3919  0.4789
  379DG     C18 8712   0.001   1.858   0.311 -0.0528  0.2917  0.5248
  379DG     O19 8713   0.106   1.958   0.306  0.3210  0.0422 -0.0311
  379DG     H20 8714   0.078   1.982   0.110  0.4113  1.4182  2.1917
  379DG     H21 8715   0.209   2.088   0.176 -2.3548 -2.5819 -1.1554
  379DG     H22 8716   0.031   1.763   0.263  2.0109 -0.4860 -2.8094
  379DG     H23 8717  -0.079   1.887   0.242  0.6157  1.6190  0.7260
  380DG      C1 8718   1.533   2.786   3.577  0.0926 -0.9836  0.0230
  380DG      C2 8719   1.014   3.252   3.977 -0.5574  0.1707 -0.1819
  380DG      H3 8720   1.459   2.737   3.638 -1.4841 -1.8383  0.5099
  380DG      H4 8721   1.636   2.779   3.618 -3.2677  0.5395 -1.1070
  380DG      H5 8722   1.543   2.725   3.490  0.9802 -1.8496  0.2589
  380DG      H6 8723   0.948   3.334   3.974  0.9468  0.2222 -0.9069
  380DG      H7 8724   0.961   3.165   4.027 -1.5098 -0.2665 -0.2352
  380DG      H8 8725   1.090   3.277   4.050 -2.4505  0.4480 -0.2459
  380DG      O9 8726   1.494   2.917   3.550 -0.1328  0.2052 -0.5168
  380DG     O10 8727   1.059   3.218   3.849  0.2774 -0.5012  0.0965
  380DG     C11 8728   1.436   2.994   3.656  0.4292 -0.1509  0.8234
  380DG     C12 8729   1.146   3.317   3.794 -0.9059  0.2472  0.5182
  380DG     H13 8730   1.517   3.030   3.720  3.7835  0.3255 -0.4043
  380DG     H14 8731   1.372   2.936   3.715  0.8692  0.8531 -1.5794
  380DG     H15 8732   1.226   3.333   3.866 -0.9452 -0.2977  1.2709
  380DG     H16 8733   1.101   3.415   3.785  0.1780 -2.8156  2.2526
  380DG     C17 8734   1.355   3.107   3.593 -0.4599  0.0826 -0.6192
  380DG     C18 8735   1.213   3.278   3.665  0.5697 -0.1659 -0.3106
  380DG     O19 8736   1.273   3.157   3.701  0.5314 -0.2364 -0.4755
  380DG     H20 8737   1.284   3.081   3.516  1.1100 -3.4875 -0.1469
  380DG     H21 8738   1.429   3.182   3.565 -1.7630 -0.5045 -1.7097
  380DG     H22 8739   1.142   3.268   3.583 -0.8043  3.2948  0.7714
  380DG     H23 8740   1.287   3.363   3.643  0.3082  3.0561 -1.9319
  381DG      C1 8741   4.528   0.430   1.118  1.1005  0.4138  0.1421
  381DG      C2 8742   5.049   0.033   1.441 -0.0187  0.4504 -0.5332
  381DG      H3 8743   4.502   0.433   1.224  1.6360  1.4018  3.2951
  381DG      H4 8744   4.451   0.455   1.044 -0.0206  3.5936 -1.2008
  381DG      H5 8745   4.614   0.503   1.115  1.1578 -0.3313  0.9294
  381DG      H6 8746   5.090   0.128   1.396  2.2551  1.6024 -2.0697
  381DG      H7 8747   5.046   0.036   1.544  2.0518 -0.9194  0.5042
  381DG      H8 8748   5.120  -0.048   1.425  1.9680  0.4717  1.9540
  381DG      O9 8749   4.574   0.299   1.092 -0.8295  0.2251 -0.4824
  381DG     O10 8750   4.924   0.010   1.384  0.1762 -0.1241 -0.0296
  381DG     C11 8751   4.479   0.195   1.125 -0.2900 -0.0019 -0.4991
  381DG     C12 8752   4.836   0.121   1.394  0.2925 -0.0369 -0.3839
  381DG     H13 8753   4.390   0.180   1.051 -1.3832  0.7288 -2.9784
  381DG     H14 8754   4.442   0.214   1.228  0.8620  1.0729  1.2906
  381DG     H15 8755   4.888   0.202   1.342  0.1180  3.5742  1.7772
  381DG     H16 8756   4.827   0.154   1.499 -3.1629  0.4563 -0.5060
  381DG     C17 8757   4.560   0.060   1.131  0.4278 -0.2302 -0.5305
  381DG     C18 8758   4.692   0.086   1.339  0.4096  0.4681  0.2302
  381DG     O19 8759   4.689   0.081   1.193 -0.2726 -0.5962  0.1783
  381DG     H20 8760   4.588   0.014   1.036  0.3076 -0.3697  0.1634
  381DG     H21 8761   4.508  -0.018   1.191 -2.9216  0.5386 -0.9930
  381DG     H22 8762   4.654  -0.005   1.381  2.4855  1.5233  1.0120
  381DG     H23 8763   4.637   0.173   1.361  0.2756 -1.1141 -0.1315
  382DG      C1 8764   5.159   3.826   3.993  0.4999  0.0095 -0.9890
  382DG      C2 8765   5.008   3.175   3.789  0.4985  0.1806 -0.3896
  382DG      H3 8766   5.243   3.893   4.023  1.6144  0.8487 -0.8233
  382DG      H4 8767   5.074   3.870   4.037  2.8495  0.1019 -0.4084
  382DG      H5 8768   5.139   3.829   3.887 -0.7399 -0.2551 -1.9531
  382DG      H6 8769   5.042   3.077   3.789  0.5042  0.5069  1.1770
  382DG      H7 8770   4.904   3.174   3.832 -3.4849 -1.7572  0.9251
  382DG      H8 8771   5.016   3.219   3.688  0.7471 -1.5467  1.6329
  382DG      O9 8772   5.168   3.680   4.029  0.2624  0.2061 -0.5841
  382DG     O10 8773   5.111   3.243   3.865  0.4522 -0.3907 -0.0972
  382DG     C11 8774   5.105   3.645   4.154 -0.3548 -0.2736 -0.1833
  382DG     C12 8775   5.118   3.187   4.001  0.1159  0.3514  0.8399
  382DG     H13 8776   4.996   3.642   4.143 -2.7438  0.1580 -2.0422
  382DG     H14 8777   5.131   3.720   4.228 -2.1812  1.4739  1.4461
  382DG     H15 8778   5.172   3.094   4.005  1.3324  0.7319 -2.0719
  382DG     H16 8779   5.017   3.167   4.030 -0.0653  1.5907  0.3467
  382DG     C17 8780   5.160   3.510   4.193 -0.4259 -1.1869  0.0212
  382DG     C18 8781   5.184   3.292   4.089 -0.7314 -0.3517 -0.4808
  382DG     O19 8782   5.123   3.419   4.093 -0.1749  0.1938 -0.3180
  382DG     H20 8783   5.118   3.481   4.289 -1.7883  0.6159  0.5519
  382DG     H21 8784   5.271   3.514   4.201 -1.2769 -0.2781  1.2973
  382DG     H22 8785   5.193   3.263   4.199 -2.4134  2.6366  0.2232
  382DG     H23 8786   5.288   3.314   4.057 -0.0184  0.0028 -0.7855
  383DG      C1 8787   3.930   0.634   5.047 -0.7127 -0.3801  0.9282
  383DG      C2 8788   4.353   0.872   4.336  0.6049  0.3136  0.6868
  383DG      H3 8789   4.003   0.645   5.129  3.6728  0.6093  0.1915
  383DG      H4 8790   3.951   0.551   4.981  1.6264  1.5993 -1.9798
  383DG      H5 8791   3.827   0.623   5.083  0.4227 -1.4878 -1.9667
  383DG      H6 8792   4.390   0.970   4.301 -1.5991  2.3763 -1.0599
  383DG      H7 8793   4.418   0.791   4.379 -0.7871 -2.7575  2.0057
  383DG      H8 8794   4.308   0.824   4.251  0.3954  0.8902  1.3445
  383DG      O9 8795   3.939   0.757   4.973 -0.4200  0.4453 -0.0597
  383DG     O10 8796   4.244   0.888   4.422 -0.5902  0.1702  0.1298
  383DG     C11 8797   4.059   0.768   4.904  1.2105  0.7194 -0.2607
  383DG     C12 8798   4.273   0.969   4.538 -0.0005 -1.0034  0.0930
  383DG     H13 8799   4.077   0.677   4.843 -0.1530  2.2190 -0.6404
  383DG     H14 8800   4.143   0.762   4.970  0.5601 -1.1052  0.0990
  383DG     H15 8801   4.307   1.065   4.501 -1.6232  1.8888  0.8365
  383DG     H16 8802   4.346   0.923   4.613 -1.4507 -0.8252  1.2309
  383DG     C17 8803   4.044   0.891   4.816  0.0364 -0.7727  0.5724
  383DG     C18 8804   4.159   0.997   4.641 -0.1450 -0.1597  0.5980
  383DG     O19 8805   4.125   0.875   4.698 -0.7416  0.0821 -0.1036
  383DG     H20 8806   4.050   0.982   4.877 -0.7908 -0.8332  0.7007
  383DG     H21 8807   3.944   0.919   4.782 -1.3618  0.2834 -0.7646
  383DG     H22 8808   4.196   1.070   4.716 -0.2120  0.1031 -0.6771
  383DG     H23 8809   4.070   1.040   4.598 -0.7987 -3.2340  1.7539
  384DG      C1 8810   0.797   0.934   4.411 -0.2033 -0.1193  1.0619
  384DG      C2 8811   1.111   0.469   3.848  0.6443 -0.2651 -0.1412
  384DG      H3 8812   0.756   0.835   4.400  0.7121  0.5813 -0.8470
  384DG      H4 8813   0.736   0.987   4.483  0.8109  3.3348 -2.5086
  384DG      H5 8814   0.900   0.924   4.441  1.9927 -0.2347 -2.5394
  384DG      H6 8815   1.164   0.389   3.909  2.0787  0.3298  0.0619
  384DG      H7 8816   1.066   0.431   3.753 -1.5281 -1.0233  2.9242
  384DG      H8 8817   1.193   0.540   3.812  0.5613 -1.0895 -1.1916
  384DG      O9 8818   0.804   1.011   4.293 -0.1041 -0.0629  0.7357
  384DG     O10 8819   1.010   0.536   3.921 -0.3924 -0.1755 -0.0178
  384DG     C11 8820   0.881   0.950   4.189 -0.3166  0.5521  0.0676
  384DG     C12 8821   0.913   0.595   3.841  0.1944  0.3218  0.5502
  384DG     H13 8822   0.970   0.899   4.233  2.0729 -2.0878 -0.6218
  384DG     H14 8823   0.922   1.022   4.124 -1.5375 -0.0924  4.3131
  384DG     H15 8824   0.859   0.512   3.790 -0.1126 -0.2414  0.4788
  384DG     H16 8825   0.958   0.671   3.767 -0.1152  2.1153  2.2126
  384DG     C17 8826   0.803   0.843   4.112  0.2529 -0.9335 -0.8375
  384DG     C18 8827   0.808   0.676   3.927 -0.3531 -0.0281 -0.7623
  384DG     O19 8828   0.876   0.763   4.018 -0.6265  0.4499 -0.6533
  384DG     H20 8829   0.716   0.886   4.070  0.5301 -1.9800 -0.2169
  384DG     H21 8830   0.761   0.778   4.187 -0.6612  0.7099  1.0937
  384DG     H22 8831   0.754   0.739   3.865  2.1153 -2.5607 -2.8566
  384DG     H23 8832   0.745   0.591   3.971 -0.5593 -1.7313  0.6382
  385DG      C1 8833   2.675   1.905   4.708  0.3499  0.1039  0.8182
  385DG      C2 8834   2.216   2.445   4.904 -0.0639  0.3139  0.5635
  385DG      H3 8835   2.709   2.003   4.745  0.9742 -0.9833  3.3630
  385DG      H4 8836   2.722   1.871   4.616  1.3368 -2.1457  1.8802
  385DG      H5 8837   2.681   1.821   4.776  0.0413  1.3531  0.3104
  385DG      H6 8838   2.161   2.402   4.989  1.0643  1.9409 -2.5828
  385DG      H7 8839   2.321   2.439   4.938  1.0697  1.4326 -0.5886
  385DG      H8 8840   2.196   2.549   4.890  0.0502 -1.1827  1.6179
  385DG      O9 8841   2.543   1.940   4.684  0.5752  0.0165  0.3732
  385DG     O10 8842   2.176   2.378   4.786  0.3923 -0.3477  0.5696
  385DG     C11 8843   2.502   1.998   4.563 -0.0088  0.0228  0.8473
  385DG     C12 8844   2.174   2.238   4.813  0.0214  0.3903 -0.2982
  385DG     H13 8845   2.522   1.923   4.484  0.6500 -1.5754 -0.1179
  385DG     H14 8846   2.567   2.081   4.542 -2.3708 -1.4905 -0.7082
  385DG     H15 8847   2.080   2.214   4.862 -0.0014  1.0146  1.7490
  385DG     H16 8848   2.253   2.224   4.890 -0.1824 -0.1974  0.2437
  385DG     C17 8849   2.355   2.036   4.565  0.0635 -0.0241 -0.6977
  385DG     C18 8850   2.192   2.139   4.696  0.4703 -0.5233  0.7496
  385DG     O19 8851   2.332   2.137   4.657  0.5224 -0.0529  0.1487
  385DG     H20 8852   2.306   1.942   4.592 -0.1242  0.1380  3.7898
  385DG     H21 8853   2.328   2.070   4.461 -0.5381 -2.1003 -1.7198
  385DG     H22 8854   2.159   2.037   4.734  1.5520  0.6097 -0.1449
  385DG     H23 8855   2.128   2.169   4.610  4.1696  0.0043 -0.3770
  386DG      C1 8856   4.003   1.905   0.081 -0.0307  0.1275  0.8299
  386DG      C2 8857   4.600   1.395   0.363  1.1938 -0.0196 -0.6564
  386DG      H3 8858   3.893   1.885   0.079 -0.6911 -0.4596  0.3399
  386DG      H4 8859   4.057   1.874  -0.004  0.1412  3.1394  2.0482
  386DG      H5 8860   3.992   2.012   0.096 -1.5059 -2.1240 -0.1417
  386DG      H6 8861   4.680   1.358   0.434 -0.6486 -0.0069  3.5423
  386DG      H7 8862   4.516   1.327   0.378 -4.3303 -2.0270  1.5347
  386DG      H8 8863   4.641   1.393   0.260 -1.6755 -2.6845  0.1037
  386DG      O9 8864   4.062   1.833   0.188  0.0521  0.4600  0.4826
  386DG     O10 8865   4.555   1.522   0.409 -0.3557 -0.4684  0.1149
  386DG     C11 8866   4.111   1.908   0.300  0.3651 -0.3199 -1.0024
  386DG     C12 8867   4.457   1.594   0.329 -0.3801  0.2810 -0.5817
  386DG     H13 8868   4.019   1.937   0.356  2.0974  0.8727 -0.0337
  386DG     H14 8869   4.157   1.999   0.274 -1.5750 -0.5977 -1.4431
  386DG     H15 8870   4.382   1.525   0.300  0.4599 -0.5463  2.0718
  386DG     H16 8871   4.502   1.628   0.236  0.4347  0.1130 -2.3799
  386DG     C17 8872   4.195   1.824   0.393  0.4096  0.2734 -0.1953
  386DG     C18 8873   4.409   1.723   0.397  0.3491 -0.1388 -0.5125
  386DG     O19 8874   4.304   1.786   0.324  0.2381  0.0736  0.5637
  386DG     H20 8875   4.145   1.732   0.417 -2.8289  0.5626 -2.0093
  386DG     H21 8876   4.244   1.877   0.478  1.5945 -0.7065 -0.9463
  386DG     H22 8877   4.385   1.693   0.494 -0.4638  0.1465 -0.4888
  386DG     H23 8878   4.490   1.781   0.416 -3.3560 -0.6628  0.7593
  387DG      C1 8879   3.204   4.787   4.176  0.0213  0.4776 -0.3103
  387DG      C2 8880   2.520   4.747   4.106 -0.4728 -0.8582  0.3306
  387DG      H3 8881   3.249   4.702   4.225  1.1480  1.7025  3.0454
  387DG      H4 8882   3.145   4.848   4.250  0.5033  1.7024  1.0254
  387DG      H5 8883   3.284   4.851   4.139  2.4050 -1.5463  1.1202
  387DG      H6 8884   2.479   4.847   4.081 -0.0266  1.7223  0.2197
  387DG      H7 8885   2.438   4.673   4.069 -2.2692  1.1778 -0.6310
  387DG      H8 8886   2.530   4.749   4.216  1.0566 -0.7653  0.4203
  387DG      O9 8887   3.107   4.746   4.075  0.0057 -0.5112 -0.0655
  387DG     O10 8888   2.647   4.726   4.041 -0.5878 -0.3936  0.0838
  387DG     C11 8889   3.096   4.840   3.964 -1.1521  0.0418  0.9919
  387DG     C12 8890   2.633   4.712   3.904  0.4291 -0.1721  0.1455
  387DG     H13 8891   3.193   4.849   3.917 -0.9854  0.4643  0.7283
  387DG     H14 8892   3.069   4.939   3.995  0.7480  2.6683  0.9028
  387DG     H15 8893   2.584   4.799   3.866  1.7633 -1.2823 -0.4678
  387DG     H16 8894   2.566   4.625   3.883  1.6175 -2.2041  1.0343
  387DG     C17 8895   3.004   4.781   3.857  0.1645  0.2728  0.2514
  387DG     C18 8896   2.771   4.698   3.843  0.2546 -0.2067  0.5056
  387DG     O19 8897   2.869   4.783   3.912  0.0793  0.3657 -0.1971
  387DG     H20 8898   3.035   4.684   3.831 -2.1652 -0.7736 -0.0414
  387DG     H21 8899   3.010   4.830   3.759 -2.3017  3.0124 -1.1003
  387DG     H22 8900   2.801   4.595   3.849 -0.5715  1.1450 -0.0202
  387DG     H23 8901   2.777   4.729   3.738  4.1867 -3.0929 -0.3499
  388DG      C1 8902   2.448   0.327   4.169 -0.8737  0.1858  0.5122
  388DG      C2 8903   3.159   0.831   4.285  0.2472  0.2498  0.6312
  388DG      H3 8904   2.397   0.348   4.072  2.3647  1.8074 -1.0645
  388DG      H4 8905   2.398   0.380   4.253 -0.5533 -0.3888 -0.3541
  388DG      H5 8906   2.425   0.224   4.190 -1.6901  1.2429 -0.6177
  388DG      H6 8907   3.144   0.864   4.184  1.1925  0.5933 -0.8418
  388DG      H7 8908   3.103   0.882   4.359  0.6118 -1.0969  3.1067
  388DG      H8 8909   3.265   0.842   4.311  4.0013  1.1386  2.4417
  388DG      O9 8910   2.583   0.351   4.163 -0.1249  0.4818 -0.1389
  388DG     O10 8911   3.132   0.700   4.304  0.2966  0.2055 -0.0439
  388DG     C11 8912   2.640   0.345   4.285 -0.3740 -0.0625 -0.7827
  388DG     C12 8913   2.998   0.672   4.258  0.2890 -0.1540  0.3189
  388DG     H13 8914   2.626   0.243   4.313  2.1956  1.7244  1.8083
  388DG     H14 8915   2.589   0.412   4.346 -0.3708 -1.1972 -2.2340
  388DG     H15 8916   2.985   0.690   4.153 -3.0246  1.8293 -0.2116
  388DG     H16 8917   2.928   0.737   4.310  0.0846 -1.0665 -0.4700
  388DG     C17 8918   2.793   0.366   4.277 -0.6642 -0.2642 -0.7801
  388DG     C18 8919   2.960   0.530   4.288  0.0975  0.4241 -0.3694
  388DG     O19 8920   2.821   0.502   4.275  0.0946 -0.5597  0.1106
  388DG     H20 8921   2.837   0.305   4.200  2.0240  1.7520  0.6954
  388DG     H21 8922   2.840   0.323   4.367 -0.0299 -0.4440 -3.3597
  388DG     H22 8923   3.022   0.468   4.228 -1.4921  2.6670 -0.1569
  388DG     H23 8924   2.966   0.510   4.393 -0.0320 -1.2977  1.1843
  389DG      C1 8925   3.884   5.256   0.955 -0.3098  0.7017 -0.1526
  389DG      C2 8926   3.343   5.703   1.385  0.2652  0.0059 -0.6329
  389DG      H3 8927   3.915   5.280   1.055  0.6526  0.7105 -0.0009
  389DG      H4 8928   3.938   5.332   0.894  2.4233 -1.5702 -2.3582
  389DG      H5 8929   3.919   5.161   0.939  2.9726  0.8867 -0.0594
  389DG      H6 8930   3.271   5.754   1.319 -0.3343  3.5971 -0.9719
  389DG      H7 8931   3.305   5.666   1.480  1.7117  0.7949 -1.9528
  389DG      H8 8932   3.400   5.795   1.424  1.7317  1.5425  0.4864
  389DG      O9 8933   3.749   5.262   0.920 -0.0527  0.0132  0.0287
  389DG     O10 8934   3.407   5.602   1.322  0.2230 -0.5839 -0.8585
  389DG     C11 8935   3.677   5.353   1.009 -0.5289 -0.5601  0.5027
  389DG     C12 8936   3.324   5.503   1.265 -0.2644 -0.0894  0.2143
  389DG     H13 8937   3.719   5.453   0.981 -2.9857  0.8642  2.4766
  389DG     H14 8938   3.704   5.346   1.117  0.9845  0.9343 -0.9588
  389DG     H15 8939   3.260   5.535   1.183 -1.0507 -0.4566 -0.4173
  389DG     H16 8940   3.261   5.457   1.336  0.4763 -0.9916  0.6255
  389DG     C17 8941   3.527   5.343   0.998  0.6033  0.7182  0.0227
  389DG     C18 8942   3.409   5.386   1.202 -0.2127  0.4330  0.8131
  389DG     O19 8943   3.451   5.432   1.076 -0.2453  0.1496  0.7765
  389DG     H20 8944   3.498   5.241   1.011  0.2842  0.1555 -0.4054
  389DG     H21 8945   3.501   5.376   0.896  1.2773  0.4142 -0.4313
  389DG     H22 8946   3.488   5.350   1.275 -0.2163  1.1454 -1.1826
  389DG     H23 8947   3.328   5.307   1.196 -2.7205 -3.0355  0.3131
  390DG      C1 8948   3.536   1.016   1.623  0.1715 -0.2064 -0.5852
  390DG      C2 8949   3.409   0.574   1.112 -0.1245  0.7035 -0.3001
  390DG      H3 8950   3.497   1.100   1.575 -0.4510 -1.6052  1.8205
  390DG      H4 8951   3.576   1.058   1.712 -2.2905 -1.4551 -0.0198
  390DG      H5 8952   3.449   0.951   1.648 -0.4718  0.2386 -0.6415
  390DG      H6 8953   3.340   0.512   1.163 -0.1192  0.0833 -0.1461
  390DG      H7 8954   3.355   0.651   1.049 -0.5677  1.3540 -0.6694
  390DG      H8 8955   3.468   0.507   1.040  2.2503 -1.5609 -0.3073
  390DG      O9 8956   3.622   0.931   1.553 -0.7811  0.2822  0.2484
  390DG     O10 8957   3.500   0.626   1.209 -0.3121  0.1707 -0.7947
  390DG     C11 8958   3.678   0.823   1.626 -0.0585  0.0216  0.0619
  390DG     C12 8959   3.567   0.519   1.276  0.2963  1.0227 -0.0530
  390DG     H13 8960   3.604   0.775   1.693 -0.3706 -0.6110  0.0963
  390DG     H14 8961   3.751   0.866   1.702  0.4571  0.4355 -1.3490
  390DG     H15 8962   3.589   0.431   1.215 -3.4312  1.2105  0.7505
  390DG     H16 8963   3.493   0.473   1.345  0.5562 -1.3345 -0.1464
  390DG     C17 8964   3.739   0.726   1.527  0.2299 -0.0292  0.0583
  390DG     C18 8965   3.688   0.584   1.342 -0.5316  0.3123 -0.3596
  390DG     O19 8966   3.641   0.676   1.437  0.3674  0.0846 -0.5705
  390DG     H20 8967   3.781   0.633   1.575  2.5838  1.0255  1.1658
  390DG     H21 8968   3.823   0.766   1.467  1.5948  1.4911 -0.4015
  390DG     H22 8969   3.741   0.501   1.390 -1.1132  1.2383 -0.6705
  390DG     H23 8970   3.757   0.626   1.272  1.3865 -2.6761 -1.1470
  391DG      C1 8971   3.218   5.355   3.425  0.4078  0.0078 -0.5786
  391DG      C2 8972   3.505   5.537   4.023  0.6121 -0.8855  0.9212
  391DG      H3 8973   3.114   5.389   3.436  0.3571 -0.6265 -1.1712
  391DG      H4 8974   3.239   5.284   3.508 -0.4789  0.7786  0.9413
  391DG      H5 8975   3.223   5.298   3.331  0.4247  0.0227  1.7213
  391DG      H6 8976   3.436   5.466   4.064 -2.3493  0.8644 -0.3572
  391DG      H7 8977   3.580   5.568   4.094 -2.4824  0.2533 -1.7031
  391DG      H8 8978   3.440   5.622   4.004  1.5438 -1.2897  2.2495
  391DG      O9 8979   3.315   5.458   3.408  0.1852  0.2832  0.0980
  391DG     O10 8980   3.563   5.490   3.899 -0.0755 -0.0947 -0.4230
  391DG     C11 8981   3.302   5.556   3.501  0.4687 -0.5714 -0.1587
  391DG     C12 8982   3.625   5.596   3.817 -0.0311  0.6028 -0.3475
  391DG     H13 8983   3.237   5.533   3.589  0.0661  0.7317 -2.7274
  391DG     H14 8984   3.251   5.636   3.446  0.7412 -2.0074 -0.7655
  391DG     H15 8985   3.723   5.625   3.852  0.5089 -0.3302 -1.7112
  391DG     H16 8986   3.555   5.679   3.821 -0.3644 -2.3949  0.1432
  391DG     C17 8987   3.440   5.599   3.547  0.6211 -0.1599  0.2820
  391DG     C18 8988   3.640   5.540   3.673  0.1935 -0.3095  0.0339
  391DG     O19 8989   3.514   5.500   3.618 -0.3293  0.7318  0.5341
  391DG     H20 8990   3.430   5.690   3.609 -2.0340  1.7455 -1.1047
  391DG     H21 8991   3.503   5.635   3.463  1.4664  0.6202  1.1308
  391DG     H22 8992   3.685   5.606   3.597  0.0627 -1.3462  0.6289
  391DG     H23 8993   3.699   5.450   3.669 -1.3556  0.3536 -0.0736
  392DG      C1 8994   3.280   3.920   3.959  0.2317  0.6137 -0.2258
  392DG      C2 8995   3.853   4.235   3.396  0.3109 -0.0140  0.0740
  392DG      H3 8996   3.213   3.851   4.008 -3.3884  1.4401  0.9859
  392DG      H4 8997   3.225   4.020   3.954  0.1312  2.5982 -0.3215
  392DG      H5 8998   3.376   3.915   4.016  0.1454  0.3732 -0.2104
  392DG      H6 8999   3.905   4.314   3.448  0.4773  0.9778 -0.1985
  392DG      H7 9000   3.924   4.152   3.378  0.9714  0.7354 -0.4413
  392DG      H8 9001   3.813   4.269   3.298 -0.4449  0.4759  2.8699
  392DG      O9 9002   3.310   3.873   3.827  0.2565  0.2975  0.1440
  392DG     O10 9003   3.747   4.196   3.483 -0.1156  0.2437  0.2341
  392DG     C11 9004   3.379   3.968   3.744 -0.0022  0.0967 -0.7582
  392DG     C12 9005   3.808   4.147   3.608 -0.9051  0.2134  0.1719
  392DG     H13 9006   3.312   4.054   3.738  0.3145  1.9462  1.5465
  392DG     H14 9007   3.395   3.930   3.644 -0.4921 -0.8994  2.3731
  392DG     H15 9008   3.893   4.208   3.632 -2.0778 -0.8229  1.1866
  392DG     H16 9009   3.841   4.046   3.590  1.0158 -0.5744  0.6037
  392DG     C17 9010   3.513   4.014   3.801 -0.2521 -0.4150 -0.4293
  392DG     C18 9011   3.708   4.131   3.725 -0.4831 -0.3047 -0.5342
  392DG     O19 9012   3.596   4.054   3.692 -0.3661 -0.2796 -0.3733
  392DG     H20 9013   3.555   3.935   3.869 -1.7532 -0.8002 -0.2774
  392DG     H21 9014   3.495   4.098   3.868  0.8486  0.4709 -0.0558
  392DG     H22 9015   3.767   4.104   3.808 -0.7430 -0.6573  0.6144
  392DG     H23 9016   3.677   4.225   3.769  0.8354 -1.3515 -0.3915
  393DG      C1 9017   4.914   3.112   0.527 -0.7826 -0.3147 -0.2414
  393DG      C2 9018   5.555   2.989   0.929  0.0469 -0.2975 -0.6086
  393DG      H3 9019   4.815   3.125   0.570  1.6774  0.7396 -1.4510
  393DG      H4 9020   4.927   3.014   0.495 -1.3781  3.0664 -1.3177
  393DG      H5 9021   4.890   3.175   0.442 -0.1710 -1.2768 -1.1594
  393DG      H6 9022   5.500   2.977   1.026  1.4738  0.4661 -0.4846
  393DG      H7 9023   5.576   2.892   0.887  0.1468 -0.6263 -0.3822
  393DG      H8 9024   5.647   3.036   0.961 -0.0914 -1.5620  0.2531
  393DG      O9 9025   5.018   3.166   0.595 -0.4661 -0.0485 -0.2092
  393DG     O10 9026   5.479   3.064   0.839  0.4386 -0.0091  0.5457
  393DG     C11 9027   5.133   3.122   0.525 -0.2127 -0.1705 -0.3234
  393DG     C12 9028   5.454   3.200   0.871 -0.3822 -0.0406 -0.6120
  393DG     H13 9029   5.132   3.137   0.413 -0.2943  1.8260 -1.4188
  393DG     H14 9030   5.159   3.016   0.558 -1.2540  2.2874  3.2859
  393DG     H15 9031   5.537   3.247   0.921  0.8011 -1.9507  0.7144
  393DG     H16 9032   5.365   3.210   0.938 -0.1879  2.4860  0.6876
  393DG     C17 9033   5.246   3.215   0.569 -1.0271  0.3965 -0.2919
  393DG     C18 9034   5.407   3.266   0.742 -0.0005 -0.3166  0.1456
  393DG     O19 9035   5.282   3.204   0.706 -0.5154  0.0583  0.1458
  393DG     H20 9036   5.209   3.321   0.555 -3.2530  2.2147  1.1562
  393DG     H21 9037   5.337   3.195   0.513  0.8869  2.3059 -0.2567
  393DG     H22 9038   5.400   3.375   0.745  2.0482 -1.5103  3.0992
  393DG     H23 9039   5.481   3.258   0.658  0.7791 -0.9714 -2.1452
  394DG      C1 9040   0.102   4.294   0.396 -0.0878 -0.5590 -0.3973
  394DG      C2 9041   0.724   4.468   0.782  0.4657  0.1264 -0.5786
  394DG      H3 9042   0.042   4.206   0.413  1.1246 -1.0390 -0.1025
  394DG      H4 9043   0.172   4.272   0.319 -1.9094  0.1103  0.9504
  394DG      H5 9044   0.030   4.378   0.380 -0.8522 -2.1340 -2.5828
  394DG      H6 9045   0.729   4.374   0.729 -1.2228  1.1789 -2.7567
  394DG      H7 9046   0.748   4.538   0.703 -0.2367 -2.7177 -0.0155
  394DG      H8 9047   0.811   4.458   0.849 -1.4005 -0.7898  1.1083
  394DG      O9 9048   0.180   4.303   0.511 -0.1949 -0.1558  0.1259
  394DG     O10 9049   0.599   4.482   0.849 -0.0250 -0.0545 -0.1791
  394DG     C11 9050   0.101   4.342   0.626  0.0454 -0.0647 -0.3300
  394DG     C12 9051   0.490   4.488   0.760  0.6053 -0.5992 -0.2696
  394DG     H13 9052   0.028   4.264   0.646 -1.7322  5.2666  0.7347
  394DG     H14 9053   0.046   4.438   0.604  0.2795  0.9722  0.7964
  394DG     H15 9054   0.479   4.409   0.685 -0.9152 -2.0673 -0.5308
  394DG     H16 9055   0.522   4.567   0.690 -0.4847  1.2408  0.8849
  394DG     C17 9056   0.206   4.358   0.739 -0.3781 -0.0068  0.5640
  394DG     C18 9057   0.357   4.511   0.835 -0.6942  0.5214  0.0960
  394DG     O19 9058   0.250   4.493   0.747  0.5779 -0.1095 -0.1091
  394DG     H20 9059   0.288   4.297   0.719  4.0242  1.6408 -0.5304
  394DG     H21 9060   0.164   4.333   0.834 -0.6549  1.7136  1.2896
  394DG     H22 9061   0.343   4.454   0.919 -2.0150 -0.5571 -0.4393
  394DG     H23 9062   0.353   4.623   0.852  1.3154  0.3609 -1.6887
  395DG      C1 9063   3.654   4.329   4.086  0.0533 -0.1639 -0.2825
  395DG      C2 9064   2.941   4.414   3.605 -0.3214 -0.3176  0.2304
  395DG      H3 9065   3.675   4.265   4.172 -3.3074  1.6237 -0.3166
  395DG      H4 9066   3.719   4.420   4.088 -0.6025  0.6740 -0.9518
  395DG      H5 9067   3.685   4.281   3.994 -1.0070 -0.9124 -1.0072
  395DG      H6 9068   3.001   4.476   3.536 -1.6970 -2.9834 -0.2848
  395DG      H7 9069   2.935   4.311   3.575 -0.7257 -0.5971  3.5518
  395DG      H8 9070   2.840   4.458   3.600  1.2896  1.0048  3.8329
  395DG      O9 9071   3.523   4.373   4.059  0.7790 -0.3469 -0.2018
  395DG     O10 9072   2.974   4.427   3.737  0.0999 -0.0462  0.2838
  395DG     C11 9073   3.419   4.277   4.097 -0.0290 -0.0038  0.0395
  395DG     C12 9074   3.099   4.373   3.774 -0.6720  0.3323  0.0706
  395DG     H13 9075   3.428   4.256   4.198 -0.6996 -0.4640 -0.7203
  395DG     H14 9076   3.437   4.201   4.026 -1.5689 -1.5709  0.5779
  395DG     H15 9077   3.185   4.411   3.703  1.5340  1.3055  1.3006
  395DG     H16 9078   3.093   4.263   3.762  1.5791  0.2239  3.3108
  395DG     C17 9079   3.284   4.340   4.072  0.2711  0.2428  0.0111
  395DG     C18 9080   3.129   4.389   3.926  0.1705 -0.1564  0.1749
  395DG     O19 9081   3.255   4.332   3.936  0.4160 -0.2796  0.7276
  395DG     H20 9082   3.285   4.442   4.099  0.8039  0.9056 -1.1886
  395DG     H21 9083   3.203   4.293   4.127 -2.2430  1.8002 -0.1482
  395DG     H22 9084   3.133   4.495   3.946  1.7864  0.4470 -1.1128
  395DG     H23 9085   3.060   4.328   3.983  1.8270  0.3460 -2.1765
  396DG      C1 9086   3.709   0.888   1.119  0.6267  0.3511  0.3077
  396DG      C2 9087   4.385   0.567   0.731  0.5127  0.1425 -0.1248
  396DG      H3 9088   3.639   0.815   1.149  0.4580  0.3381  1.2655
  396DG      H4 9089   3.672   0.957   1.048 -0.5579 -3.0096  0.7236
  396DG      H5 9090   3.737   0.937   1.216 -0.1923 -2.8509  1.8438
  396DG      H6 9091   4.405   0.620   0.828  1.6655 -2.5683  2.9205
  396DG      H7 9092   4.470   0.511   0.706  0.5999 -0.7482 -0.0240
  396DG      H8 9093   4.358   0.636   0.653  0.0785  1.1755 -1.2933
  396DG      O9 9094   3.824   0.809   1.053  0.7372 -0.3022 -0.0056
  396DG     O10 9095   4.277   0.483   0.764  0.3284  0.6571 -0.1229
  396DG     C11 9096   3.786   0.750   0.929  0.1533  0.3950  0.4765
  396DG     C12 9097   4.165   0.538   0.841 -0.0122  0.7393 -0.5149
  396DG     H13 9098   3.763   0.829   0.857  2.0567  0.4182 -2.3724
  396DG     H14 9099   3.692   0.700   0.951  0.7664 -0.2921  0.1292
  396DG     H15 9100   4.207   0.577   0.936  0.2022 -0.9945  2.2528
  396DG     H16 9101   4.094   0.449   0.855  1.2141 -0.6290  0.5491
  396DG     C17 9102   3.875   0.644   0.868 -0.5410  1.0502  0.4002
  396DG     C18 9103   4.090   0.640   0.755 -0.2232 -0.1286  0.2831
  396DG     O19 9104   4.005   0.707   0.853 -0.3646  0.4307  0.5586
  396DG     H20 9105   3.832   0.607   0.770 -1.4257 -1.0497 -1.1953
  396DG     H21 9106   3.873   0.562   0.936  0.2222  0.7200 -0.4999
  396DG     H22 9107   4.156   0.717   0.719 -1.6517 -1.4724 -1.3914
  396DG     H23 9108   4.039   0.589   0.675 -1.1259 -0.3033  1.6681
  397DG      C1 9109   2.712   5.125   0.704  1.0611  0.1361  0.2963
  397DG      C2 9110   2.289   4.491   0.834 -0.4550 -0.2653  0.1304
  397DG      H3 9111   2.709   5.205   0.631  1.0661 -2.8011  1.4310
  397DG      H4 9112   2.786   5.048   0.668  2.0449  0.2995  0.3411
  397DG      H5 9113   2.744   5.158   0.805 -0.2831 -0.0342  0.2805
  397DG      H6 9114   2.237   4.419   0.777  1.1205 -2.2794  0.0836
  397DG      H7 9115   2.388   4.454   0.852 -2.5272 -0.3134 -0.1158
  397DG      H8 9116   2.238   4.507   0.926 -5.3135  2.1984 -1.2665
  397DG      O9 9117   2.588   5.056   0.706 -0.0732 -0.6020 -0.1614
  397DG     O10 9118   2.307   4.615   0.766 -0.1138  0.2763  0.0976
  397DG     C11 9119   2.565   4.993   0.581 -0.0957 -0.2572 -0.2490
  397DG     C12 9120   2.234   4.726   0.824 -0.4317  0.2982  0.0943
  397DG     H13 9121   2.631   4.910   0.558 -0.1004 -0.7114  0.1583
  397DG     H14 9122   2.583   5.064   0.491  0.3933 -0.0018  1.4342
  397DG     H15 9123   2.266   4.747   0.924 -1.0079 -0.0770 -0.3168
  397DG     H16 9124   2.133   4.703   0.838  1.4510  0.5393  1.3745
  397DG     C17 9125   2.423   4.952   0.576 -0.2227  0.8838  0.6742
  397DG     C18 9126   2.253   4.848   0.728  0.1764 -0.0233  0.6891
  397DG     O19 9127   2.391   4.869   0.688 -0.0377  0.4239  0.4548
  397DG     H20 9128   2.392   4.901   0.485  0.1132 -0.9612 -0.1983
  397DG     H21 9129   2.355   5.037   0.564  1.2800  0.9637 -0.0493
  397DG     H22 9130   2.196   4.833   0.638  2.9550  1.5940 -2.6737
  397DG     H23 9131   2.207   4.944   0.768  1.0278  0.3891  2.4310
  398DG      C1 9132   3.529   2.303   2.666  0.1155 -0.3717  0.0057
  398DG      C2 9133   3.036   2.709   2.227 -0.7868  0.5923 -0.2054
  398DG      H3 9134   3.593   2.228   2.627  1.7980  2.7643 -0.5082
  398DG      H4 9135   3.440   2.261   2.719 -0.8799  2.5446 -0.2188
  398DG      H5 9136   3.584   2.374   2.726  0.0112 -0.5667  0.0443
  398DG      H6 9137   3.016   2.655   2.321 -0.2193  0.5906 -0.2311
  398DG      H7 9138   3.043   2.811   2.254  0.7995 -1.2072 -0.4126
  398DG      H8 9139   2.958   2.698   2.155 -1.1966  2.0706 -1.3789
  398DG      O9 9140   3.473   2.373   2.551  0.2277  0.1138 -0.0091
  398DG     O10 9141   3.164   2.662   2.179  0.0877  0.3774  0.3954
  398DG     C11 9142   3.557   2.444   2.469 -0.4034 -0.2086  1.1875
  398DG     C12 9143   3.179   2.529   2.154  0.1919  0.0339  0.2544
  398DG     H13 9144   3.655   2.405   2.467 -0.9600  0.4292  1.1332
  398DG     H14 9145   3.561   2.553   2.495  1.2658  1.4572  0.7479
  398DG     H15 9146   3.151   2.507   2.048 -0.7584 -0.8637 -1.4850
  398DG     H16 9147   3.133   2.474   2.233 -0.8467 -0.4616  0.5922
  398DG     C17 9148   3.509   2.437   2.320  0.2474 -0.0833  0.0643
  398DG     C18 9149   3.331   2.513   2.173  0.0580 -0.2178  0.4724
  398DG     O19 9150   3.376   2.487   2.303 -0.1982  0.7449 -0.0516
  398DG     H20 9151   3.510   2.337   2.273 -0.1491  0.6282  2.4487
  398DG     H21 9152   3.574   2.502   2.262  0.8681 -1.0530  1.2576
  398DG     H22 9153   3.357   2.418   2.125  0.1785  0.4282 -0.4790
  398DG     H23 9154   3.396   2.595   2.125  0.8714  0.6918 -1.0052
  399DG      C1 9155   3.907   3.280   2.382  1.1060  0.6524  0.7139
  399DG      C2 9156   4.608   3.489   2.237  0.3854 -0.1755 -0.1403
  399DG      H3 9157   3.857   3.358   2.320 -1.3205 -0.7011  0.1485
  399DG      H4 9158   3.840   3.270   2.466  1.0352 -1.0906 -2.7421
  399DG      H5 9159   3.914   3.182   2.343  0.5706  1.4178  2.6763
  399DG      H6 9160   4.585   3.402   2.175  0.5547 -1.8037  1.6953
  399DG      H7 9161   4.622   3.573   2.172  2.1473 -1.1038  1.3277
  399DG      H8 9162   4.705   3.471   2.277 -1.9030 -2.7149  0.0384
  399DG      O9 9163   4.037   3.299   2.430  0.1766  0.0592 -0.0751
  399DG     O10 9164   4.506   3.523   2.335  0.3152 -0.4191  0.8775
  399DG     C11 9165   4.058   3.420   2.505  0.3332  0.9225  0.2603
  399DG     C12 9166   4.529   3.466   2.460  0.0022 -0.7679  0.7352
  399DG     H13 9167   3.981   3.431   2.582  0.8862  0.4346  0.7826
  399DG     H14 9168   4.033   3.503   2.441  0.5459 -3.6821 -3.0786
  399DG     H15 9169   4.617   3.518   2.510  1.6781 -0.3234 -3.8539
  399DG     H16 9170   4.562   3.361   2.447 -0.9903 -2.2793  2.5745
  399DG     C17 9171   4.189   3.439   2.580 -0.1558 -0.3975 -0.0370
  399DG     C18 9172   4.418   3.478   2.561 -0.2622 -0.1870 -0.0491
  399DG     O19 9173   4.296   3.436   2.493  0.0735  0.4740 -0.0479
  399DG     H20 9174   4.198   3.354   2.654  0.6156 -0.3600 -2.2087
  399DG     H21 9175   4.189   3.532   2.627 -0.4385 -1.7198 -3.2568
  399DG     H22 9176   4.421   3.429   2.657  1.1555 -0.6057 -0.1296
  399DG     H23 9177   4.409   3.580   2.586 -0.3911 -3.1399 -1.2429
  400DG      C1 9178   1.129   1.717   4.835  0.9606  0.2517 -0.0323
  400DG      C2 9179   0.680   1.415   4.554  0.8348  0.1574 -0.9284
  400DG      H3 9180   1.114   1.818   4.803  1.0519 -0.9480  0.2981
  400DG      H4 9181   1.208   1.714   4.901 -1.7690  0.4268 -0.0095
  400DG      H5 9182   1.041   1.682   4.898  0.7124  3.9029  4.1236
  400DG      H6 9183   0.715   1.518   4.547  3.0276 -0.7363  0.4976
  400DG      H7 9184   0.632   1.380   4.464  1.1547 -0.3792 -1.5862
  400DG      H8 9185   0.616   1.414   4.641 -1.6357 -2.3471 -1.9933
  400DG      O9 9186   1.161   1.633   4.728  0.0150  0.3184  0.2435
  400DG     O10 9187   0.801   1.342   4.566  0.3631 -0.0844 -0.9197
  400DG     C11 9188   1.065   1.637   4.624  0.1410  0.3459  0.5353
  400DG     C12 9189   0.869   1.328   4.443 -0.0862 -0.3107 -0.2622
  400DG     H13 9190   1.070   1.724   4.572  0.5433  2.8075  0.8514
  400DG     H14 9191   0.956   1.632   4.672 -3.5568 -1.2920  1.1467
  400DG     H15 9192   0.865   1.417   4.382 -1.3793 -0.3137 -1.9438
  400DG     H16 9193   0.831   1.241   4.391 -1.3417  0.3605  1.2678
  400DG     C17 9194   1.085   1.528   4.524 -0.2299  0.8077  1.0844
  400DG     C18 9195   1.012   1.302   4.490 -0.2538  0.7594  0.1012
  400DG     O19 9196   1.050   1.404   4.582 -0.0720  0.2699  0.0846
  400DG     H20 9197   1.186   1.508   4.492 -0.4604 -1.7319 -0.4253
  400DG     H21 9198   1.032   1.555   4.434  0.9743  1.0744  0.5934
  400DG     H22 9199   1.017   1.207   4.546  0.2005 -0.3569  3.0239
  400DG     H23 9200   1.076   1.283   4.408  0.2990  1.8747  0.4748
  401DG      C1 9201   2.794   2.369   2.245  0.5081  0.1622  0.7916
  401DG      C2 9202   2.625   2.988   2.568 -0.0338 -0.6225  0.7522
  401DG      H3 9203   2.889   2.323   2.272  1.2600  2.7368  1.6324
  401DG      H4 9204   2.817   2.465   2.215 -0.1997 -1.7004 -1.6513
  401DG      H5 9205   2.756   2.317   2.161  1.6485 -0.5892  1.8062
  401DG      H6 9206   2.564   3.041   2.645 -2.5650 -3.6984  0.8637
  401DG      H7 9207   2.719   3.042   2.562 -1.9391 -0.4284  0.5926
  401DG      H8 9208   2.582   2.994   2.466 -0.6515  2.1623 -1.3931
  401DG      O9 9209   2.701   2.391   2.346  0.4315  0.1772 -0.2592
  401DG     O10 9210   2.636   2.851   2.601  0.0347 -0.9445 -0.0118
  401DG     C11 9211   2.761   2.419   2.475 -0.1328 -0.1477 -0.5987
  401DG     C12 9212   2.512   2.781   2.603  0.2099  0.4303  0.2422
  401DG     H13 9213   2.822   2.509   2.466 -0.5058  1.0333 -3.2324
  401DG     H14 9214   2.828   2.339   2.493  0.3416  0.9775 -2.3342
  401DG     H15 9215   2.465   2.797   2.508  2.4248  0.9247  0.3883
  401DG     H16 9216   2.450   2.836   2.671  1.5847  0.5863  0.4745
  401DG     C17 9217   2.639   2.439   2.569  0.1045  0.3466  0.2761
  401DG     C18 9218   2.540   2.640   2.644  0.1244  0.0355 -0.0534
  401DG     O19 9219   2.585   2.568   2.541  0.5813  0.5166 -0.6237
  401DG     H20 9220   2.669   2.422   2.668  2.7088  2.6535  0.2428
  401DG     H21 9221   2.567   2.365   2.550  1.2616 -2.5005 -0.3411
  401DG     H22 9222   2.600   2.633   2.723 -2.2841 -0.7691 -1.4119
  401DG     H23 9223   2.444   2.594   2.673 -3.1567  0.4934  2.3192
  402DG      C1 9224   4.299   4.971   4.468 -0.2365  0.8829 -0.0683
  402DG      C2 9225   3.485   5.183   4.136  0.1410 -0.9570 -0.1497
  402DG      H3 9226   4.379   5.035   4.509 -1.2570  0.8843  1.5676
  402DG      H4 9227   4.335   4.921   4.379  2.7505 -0.2453 -0.3027
  402DG      H5 9228   4.282   4.893   4.546 -1.3983  1.2927  0.3829
  402DG      H6 9229   3.552   5.250   4.076 -2.1144  2.0727  0.9760
  402DG      H7 9230   3.443   5.098   4.081 -0.6313 -0.2600 -1.1391
  402DG      H8 9231   3.398   5.236   4.170 -1.2218 -1.7784 -1.1745
  402DG      O9 9232   4.184   5.048   4.458 -0.4645  0.6009 -0.2259
  402DG     O10 9233   3.544   5.153   4.263 -0.4845 -0.0527 -0.0653
  402DG     C11 9234   4.071   4.970   4.410 -0.1727 -0.9234 -0.1461
  402DG     C12 9235   3.668   5.095   4.243 -0.2668  0.0689 -0.0221
  402DG     H13 9236   4.058   4.892   4.481  0.0661  0.2171  0.0378
  402DG     H14 9237   4.096   4.935   4.315  0.5092 -1.9173 -0.0924
  402DG     H15 9238   3.745   5.163   4.212 -0.2441 -1.0794 -2.3252
  402DG     H16 9239   3.681   5.017   4.169  1.3264 -1.4936  0.5767
  402DG     C17 9240   3.954   5.064   4.392  0.1604  0.1822 -0.1730
  402DG     C18 9241   3.718   5.044   4.379 -1.1763 -0.0187  0.7177
  402DG     O19 9242   3.837   4.979   4.369  0.1417  0.0331 -0.1913
  402DG     H20 9243   3.971   5.137   4.307  2.0145  2.6721  1.5436
  402DG     H21 9244   3.941   5.131   4.480 -1.5975 -0.4806  0.0375
  402DG     H22 9245   3.730   5.124   4.451  1.0213  0.2280 -2.0385
  402DG     H23 9246   3.643   4.973   4.419 -2.4526 -2.5529 -0.1311
  403DG      C1 9247   3.364   1.313   0.770 -0.3182 -0.0685 -0.1434
  403DG      C2 9248   2.919   1.465   0.218  0.4841  0.4339  0.2479
  403DG      H3 9249   3.454   1.330   0.826 -1.4429  0.3129 -3.2634
  403DG      H4 9250   3.361   1.208   0.733  0.7190 -3.2216  0.6973
  403DG      H5 9251   3.276   1.320   0.841 -0.7021 -1.5736 -0.1701
  403DG      H6 9252   2.831   1.445   0.280 -1.0868  0.7658  0.6678
  403DG      H7 9253   2.892   1.561   0.177  1.7405 -3.2058  1.8347
  403DG      H8 9254   2.929   1.390   0.143 -1.0657  2.1638 -2.8279
  403DG      O9 9255   3.338   1.409   0.669 -0.7803 -0.0331 -0.3019
  403DG     O10 9256   3.043   1.483   0.282 -0.5589 -0.1233 -0.4121
  403DG     C11 9257   3.445   1.401   0.574  0.7927 -0.2468 -0.0425
  403DG     C12 9258   3.143   1.506   0.190 -0.3529 -0.4017 -0.2073
  403DG     H13 9259   3.456   1.298   0.547 -2.7902  0.9360 -1.5865
  403DG     H14 9260   3.540   1.416   0.621 -0.3120  0.2572  0.2297
  403DG     H15 9261   3.131   1.593   0.116  0.3046  1.8215 -0.0356
  403DG     H16 9262   3.156   1.426   0.119 -0.2691  1.3914  0.1804
  403DG     C17 9263   3.415   1.499   0.457  0.1133 -0.6853 -0.4836
  403DG     C18 9264   3.283   1.532   0.265  0.4345 -0.5261  0.0771
  403DG     O19 9265   3.302   1.453   0.384 -0.2745  0.1237 -0.1553
  403DG     H20 9266   3.499   1.504   0.394 -0.0959  0.0442  1.2880
  403DG     H21 9267   3.393   1.605   0.488  1.0000  3.5551  2.2513
  403DG     H22 9268   3.361   1.512   0.194  2.9736  0.6072  0.8782
  403DG     H23 9269   3.285   1.639   0.288 -1.0571  1.0063 -0.4509
  404DG      C1 9270   4.849   2.872   0.133  0.3837 -0.4748 -0.0646
  404DG      C2 9271   5.081   2.241   0.227 -0.2183  0.2479  0.2007
  404DG      H3 9272   4.949   2.867   0.088  1.8319  0.4346  0.5564
  404DG      H4 9273   4.860   2.922   0.228 -0.4260  0.6340  0.4576
  404DG      H5 9274   4.766   2.921   0.076  1.5188  0.6873 -3.0709
  404DG      H6 9275   5.187   2.260   0.232  1.5383  1.4184  2.4404
  404DG      H7 9276   5.059   2.137   0.222 -3.2026 -0.8942 -0.6161
  404DG      H8 9277   5.039   2.269   0.130 -0.5768 -0.9155 -2.5155
  404DG      O9 9278   4.816   2.738   0.160  0.0245 -0.5344  0.8681
  404DG     O10 9279   5.022   2.310   0.333  0.6761 -0.6329  0.2133
  404DG     C11 9280   4.704   2.729   0.249 -0.3729  0.1199 -0.4108
  404DG     C12 9281   4.884   2.288   0.368  0.1322  0.3285  0.4949
  404DG     H13 9282   4.627   2.791   0.200  1.1796  3.3380 -2.1412
  404DG     H14 9283   4.723   2.777   0.340  0.3797  3.5546  0.7290
  404DG     H15 9284   4.882   2.311   0.477 -2.1838  0.8453  0.5472
  404DG     H16 9285   4.869   2.184   0.369 -0.8917  0.8447  0.6265
  404DG     C17 9286   4.674   2.579   0.271 -0.2318 -0.9080 -0.0999
  404DG     C18 9287   4.783   2.374   0.288  0.6331  0.4199 -0.1457
  404DG     O19 9288   4.785   2.511   0.331 -0.0593 -0.2604 -0.1067
  404DG     H20 9289   4.657   2.537   0.169 -0.3319  0.1854 -0.9081
  404DG     H21 9290   4.582   2.573   0.321  0.6525  1.7331  0.6894
  404DG     H22 9291   4.797   2.357   0.184  1.7381 -4.4185 -1.4417
  404DG     H23 9292   4.693   2.329   0.310 -0.2981  1.1630  0.1425
  405DG      C1 9293   4.038   1.997   1.116  0.8933  0.2174 -0.4795
  405DG      C2 9294   4.485   2.084   0.571 -0.7023 -0.2077  0.0320
  405DG      H3 9295   3.981   1.921   1.176 -2.5892  0.7965 -2.1004
  405DG      H4 9296   3.977   2.041   1.035  1.5688 -1.6239  0.0769
  405DG      H5 9297   4.072   2.072   1.183 -0.0213  1.0707  3.6253
  405DG      H6 9298   4.492   2.032   0.472 -5.1729 -0.8579  1.4983
  405DG      H7 9299   4.413   2.162   0.547  1.8246 -1.7176 -1.1228
  405DG      H8 9300   4.582   2.131   0.596  1.2417  1.1889 -2.7398
  405DG      O9 9301   4.139   1.932   1.039 -0.5710 -0.4704 -0.0428
  405DG     O10 9302   4.441   2.010   0.683 -0.1492 -0.0620  0.1704
  405DG     C11 9303   4.247   1.857   1.109 -0.5284  0.4270  1.0123
  405DG     C12 9304   4.528   1.912   0.725  0.3865  1.2776 -0.1447
  405DG     H13 9305   4.211   1.785   1.185 -0.7671 -1.6329 -1.2272
  405DG     H14 9306   4.308   1.924   1.167  2.8863 -1.3931 -3.0585
  405DG     H15 9307   4.617   1.940   0.789  0.3534  0.6748  0.8852
  405DG     H16 9308   4.570   1.854   0.641 -0.5428 -0.9303  2.0708
  405DG     C17 9309   4.335   1.778   1.006 -0.1633 -0.4076 -0.4196
  405DG     C18 9310   4.450   1.802   0.794 -0.1431  0.7196 -0.5398
  405DG     O19 9311   4.383   1.864   0.900  0.6103 -0.6859 -0.3731
  405DG     H20 9312   4.259   1.713   0.961 -2.1092 -3.1490  0.7347
  405DG     H21 9313   4.418   1.721   1.057  0.8190  0.8612 -2.0397
  405DG     H22 9314   4.370   1.768   0.729 -0.1602  0.3588  1.6479
  405DG     H23 9315   4.502   1.715   0.839  0.1145  1.2915 -1.9552
  406DG      C1 9316   4.851   5.321   3.306 -0.2488  0.3570  0.0758
  406DG      C2 9317   4.826   5.757   4.046  0.0283  0.4531  0.5483
  406DG      H3 9318   4.789   5.229   3.310  0.2806  0.8470  0.8782
  406DG      H4 9319   4.943   5.291   3.250  0.3623 -1.6745  3.1870
  406DG      H5 9320   4.818   5.407   3.248 -0.4432 -2.3310 -1.1527
  406DG      H6 9321   4.878   5.773   4.139  0.2649 -0.5274 -0.3303
  406DG      H7 9322   4.812   5.849   3.991 -1.9839  0.8517  2.2495
  406DG      H8 9323   4.733   5.716   4.073  2.1708 -1.7748  2.6829
  406DG      O9 9324   4.899   5.357   3.433 -0.2896 -0.5173  0.3507
  406DG     O10 9325   4.924   5.681   3.973  0.2194  0.1855  0.9218
  406DG     C11 9326   5.012   5.440   3.433 -0.1197 -0.7568  0.3390
  406DG     C12 9327   4.875   5.644   3.843 -0.1473  0.1011  0.5094
  406DG     H13 9328   4.983   5.530   3.390  1.6244 -2.0571  2.8480
  406DG     H14 9329   5.091   5.393   3.376  1.5182 -1.3449 -1.3186
  406DG     H15 9330   4.832   5.730   3.787  0.6783  0.7088  0.6872
  406DG     H16 9331   4.801   5.574   3.869 -0.8840 -3.3175  3.3306
  406DG     C17 9332   5.061   5.478   3.573 -0.3395 -0.3872  0.0063
  406DG     C18 9333   4.990   5.579   3.766 -0.0890 -0.0020 -0.0557
  406DG     O19 9334   4.947   5.527   3.640 -0.4604 -0.3867  0.8445
  406DG     H20 9335   5.129   5.558   3.562 -1.3824 -2.2273  0.1817
  406DG     H21 9336   5.098   5.394   3.628 -0.7259 -0.9945 -0.9817
  406DG     H22 9337   5.064   5.660   3.754 -2.2247 -0.2928 -1.1937
  406DG     H23 9338   5.037   5.508   3.831 -2.3036  0.6584  1.3790
  407DG      C1 9339   3.297   0.019   5.412 -0.5410 -0.0612 -1.0351
  407DG      C2 9340   2.728   0.260   5.165  0.3125  0.5962  0.5994
  407DG      H3 9341   3.338   0.102   5.355  2.7337  1.1381 -0.0622
  407DG      H4 9342   3.278  -0.061   5.355  0.1883  0.7215  2.4139
  407DG      H5 9343   3.373  -0.010   5.488 -0.4879  1.8573  1.0791
  407DG      H6 9344   2.787   0.346   5.193  0.9752  0.6533 -0.4279
  407DG      H7 9345   2.769   0.212   5.078 -0.0754  1.1530  2.6686
  407DG      H8 9346   2.622   0.286   5.166 -0.6157 -1.0111  0.3508
  407DG      O9 9347   3.183   0.070   5.466  0.6922 -0.2311  0.1020
  407DG     O10 9348   2.757   0.169   5.276 -0.7758 -0.0576  0.2813
  407DG     C11 9349   3.116  -0.016   5.559  0.7410  0.3434 -1.0526
  407DG     C12 9350   2.720   0.212   5.410  0.4875 -0.4214 -0.1426
  407DG     H13 9351   3.178  -0.043   5.647  0.2192 -0.0155  0.6619
  407DG     H14 9352   3.090  -0.101   5.499  0.4647  1.1870 -2.2830
  407DG     H15 9353   2.618   0.236   5.427 -0.4202 -0.0673  0.3503
  407DG     H16 9354   2.773   0.306   5.437 -1.4235  0.5910 -0.6674
  407DG     C17 9355   2.987   0.051   5.605 -0.3572  0.8261  0.2689
  407DG     C18 9356   2.773   0.110   5.509  0.4634 -0.0975 -0.1579
  407DG     O19 9357   2.916   0.104   5.495  0.5898  0.4803  0.1319
  407DG     H20 9358   3.001   0.123   5.683 -0.9309 -2.9241  1.7722
  407DG     H21 9359   2.922  -0.019   5.656 -2.5083  0.7870  0.4388
  407DG     H22 9360   2.740   0.136   5.607  1.3949 -0.3389 -0.7101
  407DG     H23 9361   2.731   0.014   5.483  0.6731  0.9420  1.5504
  408DG      C1 9362   2.035   3.906   1.785 -1.0968 -0.7292  0.9364
  408DG      C2 9363   1.903   3.252   2.255 -0.2221 -0.2782  0.3229
  408DG      H3 9364   2.061   3.929   1.680  0.8812 -2.4665 -1.2020
  408DG      H4 9365   2.091   3.980   1.843  0.0487 -0.0897 -0.5408
  408DG      H5 9366   1.934   3.919   1.806 -2.3438  1.4583 -1.0872
  408DG      H6 9367   1.805   3.244   2.299 -2.9342 -0.1088  1.9191
  408DG      H7 9368   1.927   3.151   2.232  1.7994  1.9089 -0.8410
  408DG      H8 9369   1.968   3.286   2.330 -3.3797  0.2464  1.1428
  408DG      O9 9370   2.089   3.780   1.817 -0.1466 -0.1016  0.1223
  408DG     O10 9371   1.897   3.318   2.135  0.1292 -0.2718 -0.0513
  408DG     C11 9372   2.071   3.742   1.956  0.0704  0.3044  0.6544
  408DG     C12 9373   2.021   3.303   2.058 -0.2033  0.1947  0.5971
  408DG     H13 9374   1.972   3.766   1.989 -0.3464 -1.9435 -0.1533
  408DG     H14 9375   2.137   3.795   2.016 -1.8866  1.3006  0.4415
  408DG     H15 9376   2.057   3.203   2.036  0.3773 -2.9979 -1.7200
  408DG     H16 9377   2.105   3.348   2.121  1.2995 -0.7514  3.3954
  408DG     C17 9378   2.096   3.595   1.989  0.9119  0.2985 -0.6961
  408DG     C18 9379   2.014   3.382   1.925  0.0469  0.1650  0.0181
  408DG     O19 9380   1.998   3.525   1.915 -0.2841  0.2532  0.6485
  408DG     H20 9381   2.086   3.579   2.099 -1.0201 -2.6136  0.3645
  408DG     H21 9382   2.194   3.558   1.957 -2.1502 -0.0046 -4.7626
  408DG     H22 9383   2.108   3.361   1.876 -0.6488 -1.1469  1.6601
  408DG     H23 9384   1.929   3.339   1.872  1.1589 -1.7431 -1.7201
  409DG      C1 9385   1.241   0.451   0.622 -0.5203  0.1700 -0.6582
  409DG      C2 9386   0.969  -0.070   0.280  0.2617  0.1210 -0.3496
  409DG      H3 9387   1.238   0.489   0.725  1.2904 -0.4384  0.4683
  409DG      H4 9388   1.314   0.513   0.569 -0.4120 -1.4492  0.1988
  409DG      H5 9389   1.295   0.353   0.623 -0.2029 -0.0407 -0.6106
  409DG      H6 9390   0.950  -0.149   0.356 -0.1923  1.8375 -0.8868
  409DG      H7 9391   0.891  -0.095   0.205  0.4176 -1.7089  0.5451
  409DG      H8 9392   1.065  -0.092   0.234  0.6825  2.3817  0.4696
  409DG      O9 9393   1.117   0.432   0.560 -0.1392  0.4918  0.1342
  409DG     O10 9394   0.950   0.063   0.332 -0.2949  0.2646  0.3273
  409DG     C11 9395   0.995   0.433   0.633  0.2345 -0.5280 -0.6768
  409DG     C12 9396   0.813   0.104   0.340  0.7948  0.5657 -0.0334
  409DG     H13 9397   0.989   0.528   0.684 -3.8140  0.7588 -2.4947
  409DG     H14 9398   1.001   0.354   0.711  0.7453 -1.7673 -0.3154
  409DG     H15 9399   0.758   0.029   0.399 -1.1971  1.8785 -0.2188
  409DG     H16 9400   0.772   0.087   0.240 -1.2384  1.7587 -1.8701
  409DG     C17 9401   0.873   0.414   0.539  0.3735  0.1163  0.1394
  409DG     C18 9402   0.793   0.260   0.374 -0.0443  0.9068 -0.4040
  409DG     O19 9403   0.880   0.284   0.489 -0.2350 -0.2612 -0.0296
  409DG     H20 9404   0.863   0.478   0.454  1.1833 -0.3370  0.9972
  409DG     H21 9405   0.791   0.421   0.612 -2.1873 -0.0587  1.9474
  409DG     H22 9406   0.820   0.307   0.289  1.5760 -3.9749  2.4611
  409DG     H23 9407   0.692   0.280   0.405  1.2414 -1.0151  1.9844
  410DG      C1 9408   0.821   2.716   2.891 -0.3952 -1.3464  0.0999
  410DG      C2 9409   1.025   2.982   2.283  0.1017  0.7601  0.2881
  410DG      H3 9410   0.733   2.763   2.942 -2.2901 -1.1998 -0.5328
  410DG      H4 9411   0.872   2.684   2.983  2.2660  0.4980 -1.0752
  410DG      H5 9412   0.797   2.633   2.826  0.7911 -2.2785  1.0309
  410DG      H6 9413   0.996   3.041   2.189  1.5867  1.6476  2.0478
  410DG      H7 9414   1.120   3.019   2.316  0.0342 -1.6571  1.0723
  410DG      H8 9415   1.036   2.881   2.244  3.8649 -0.9438 -0.7510
  410DG      O9 9416   0.897   2.817   2.817 -0.1313  0.1404  0.1457
  410DG     O10 9417   0.919   2.996   2.377  0.7392  0.8076 -0.9231
  410DG     C11 9418   0.879   2.943   2.868  0.8068 -0.2311 -0.2112
  410DG     C12 9419   0.903   3.127   2.432 -0.1303  0.5770  0.1067
  410DG     H13 9420   0.903   2.940   2.973 -1.3927  1.2204  3.2755
  410DG     H14 9421   0.772   2.970   2.862 -3.3204 -1.0234  1.6695
  410DG     H15 9422   0.802   3.149   2.458 -0.0483  2.9230 -2.3371
  410DG     H16 9423   0.922   3.203   2.346  1.1200  0.8374 -0.0986
  410DG     C17 9424   0.968   3.036   2.783 -0.5840  0.1567 -0.2998
  410DG     C18 9425   0.967   3.133   2.572  0.0077  0.6523  0.2386
  410DG     O19 9426   0.930   3.020   2.647 -0.3675 -0.2217 -0.3826
  410DG     H20 9427   1.073   3.009   2.798  1.7908  1.3916 -1.7390
  410DG     H21 9428   0.958   3.133   2.825  0.1163 -1.2750 -1.5495
  410DG     H22 9429   1.073   3.129   2.562 -0.7838 -1.1358 -0.4161
  410DG     H23 9430   0.941   3.224   2.637 -1.8055 -1.6192  0.1116
  411DG      C1 9431   4.694   2.935   3.121 -0.1264  0.2380 -0.5195
  411DG      C2 9432   4.490   3.007   3.722 -0.2148 -0.1642  0.4073
  411DG      H3 9433   4.767   2.854   3.112 -0.5436  1.3422 -0.3008
  411DG      H4 9434   4.756   3.029   3.148  2.0455  1.2649 -0.4971
  411DG      H5 9435   4.648   2.960   3.032  0.7592  0.3958  0.9662
  411DG      H6 9436   4.402   3.012   3.793  1.4679  0.9602 -0.3969
  411DG      H7 9437   4.558   2.932   3.756 -0.1639  0.7820  2.6666
  411DG      H8 9438   4.539   3.099   3.733  0.5742  0.6925 -1.6223
  411DG      O9 9439   4.595   2.912   3.216  0.0242 -0.2414 -0.6768
  411DG     O10 9440   4.438   2.998   3.593  0.1555  0.4292  0.1124
  411DG     C11 9441   4.529   2.787   3.196  0.3502  0.0699  0.4956
  411DG     C12 9442   4.350   2.882   3.584 -0.7586  0.3066  0.4253
  411DG     H13 9443   4.598   2.707   3.193  0.8173  0.4411 -0.2250
  411DG     H14 9444   4.476   2.776   3.098 -2.3425  0.3530  1.5544
  411DG     H15 9445   4.278   2.874   3.668 -1.5363 -0.6486 -0.4281
  411DG     H16 9446   4.416   2.793   3.596 -1.9137 -0.6066 -0.3084
  411DG     C17 9447   4.435   2.774   3.309  0.6939  0.3187 -0.2692
  411DG     C18 9448   4.273   2.876   3.450  0.4266 -0.6458  0.7638
  411DG     O19 9449   4.366   2.895   3.348 -0.5129 -0.0897  0.5716
  411DG     H20 9450   4.479   2.711   3.386  1.5132 -0.5805 -0.1656
  411DG     H21 9451   4.350   2.706   3.280 -0.9096  1.1374 -0.9039
  411DG     H22 9452   4.220   2.781   3.432 -1.9545 -1.0127  0.7140
  411DG     H23 9453   4.201   2.958   3.458 -2.0786  3.5080 -1.3081
  412DG      C1 9454   1.958   2.534   0.604 -0.2123 -0.3514  0.1755
  412DG      C2 9455   2.305   2.933   0.102 -0.8495 -0.0606  0.5464
  412DG      H3 9456   1.965   2.622   0.666  1.0960  2.0041  0.1651
  412DG      H4 9457   1.993   2.440   0.655 -0.9164  1.7221  3.1873
  412DG      H5 9458   1.854   2.535   0.603  2.9529 -0.8110  1.8210
  412DG      H6 9459   2.396   2.943   0.164  1.8001  2.4444  0.3476
  412DG      H7 9460   2.335   2.933  -0.005 -2.3854  0.8859 -0.3245
  412DG      H8 9461   2.248   3.025   0.123 -0.8055  0.1047  0.5272
  412DG      O9 9462   2.016   2.557   0.476  0.7390  0.5426 -0.3708
  412DG     O10 9463   2.245   2.815   0.143 -0.4143 -0.4193 -0.5071
  412DG     C11 9464   1.977   2.460   0.382 -0.4195 -0.3994 -0.3177
  412DG     C12 9465   2.119   2.805   0.073  0.9149  0.1695 -0.7849
  412DG     H13 9466   1.864   2.457   0.381 -1.5350  0.0715 -1.8699
  412DG     H14 9467   2.015   2.367   0.419 -1.7832  0.7061 -0.2794
  412DG     H15 9468   2.117   2.839  -0.029  0.2172  0.9577  1.0603
  412DG     H16 9469   2.049   2.875   0.121  0.6232  2.2480 -2.9343
  412DG     C17 9470   2.032   2.493   0.243  0.0144  0.0940  0.5849
  412DG     C18 9471   2.083   2.663   0.080 -0.5004  0.6242 -0.3702
  412DG     O19 9472   2.062   2.635   0.219 -0.3269  0.5801 -0.4465
  412DG     H20 9473   1.949   2.460   0.184  1.3108 -0.8973 -1.2223
  412DG     H21 9474   2.123   2.430   0.218 -0.0655 -0.1283 -0.6908
  412DG     H22 9475   1.993   2.639   0.022 -1.1844  0.6402  0.7337
  412DG     H23 9476   2.169   2.605   0.035  0.7356 -1.6012 -0.4062
  413DG      C1 9477   4.970   4.076   1.879 -0.5293 -0.4677 -0.0017
  413DG      C2 9478   5.657   3.901   1.411  0.0340 -0.1549 -0.0690
  413DG      H3 9479   4.890   4.125   1.816  0.0441  1.5728 -0.2185
  413DG      H4 9480   4.958   4.102   1.983  0.5447 -0.2709 -0.2227
  413DG      H5 9481   4.959   3.972   1.852 -2.2704  0.5398  1.8150
  413DG      H6 9482   5.586   3.924   1.335 -0.5575 -1.9351 -1.3644
  413DG      H7 9483   5.754   3.930   1.377  0.9860  3.3962  0.6048
  413DG      H8 9484   5.668   3.793   1.430  1.1086  0.8976  0.5126
  413DG      O9 9485   5.096   4.121   1.840 -0.2092  0.1009 -0.1293
  413DG     O10 9486   5.638   3.983   1.526 -0.0502 -0.2236  0.4264
  413DG     C11 9487   5.196   4.057   1.911 -0.3373 -0.5248  0.2895
  413DG     C12 9488   5.526   3.944   1.597  0.2609  0.7495  0.0669
  413DG     H13 9489   5.188   3.945   1.901 -2.6844 -0.5943  1.2794
  413DG     H14 9490   5.196   4.085   2.017  0.3698 -0.9701  1.2892
  413DG     H15 9491   5.539   3.839   1.636 -0.1092 -1.4343 -0.6778
  413DG     H16 9492   5.440   3.940   1.532  1.2065  1.8221  0.3842
  413DG     C17 9493   5.340   4.111   1.859  0.4233  0.6766 -0.7667
  413DG     C18 9494   5.492   4.048   1.706  0.6623 -0.3951  0.4629
  413DG     O19 9495   5.362   4.031   1.746 -0.2381  0.0932  0.2094
  413DG     H20 9496   5.416   4.088   1.934 -3.2106  0.4681 -0.0108
  413DG     H21 9497   5.341   4.218   1.835 -1.3643 -1.7726  0.1649
  413DG     H22 9498   5.562   4.040   1.789  2.6553  0.6843  0.2278
  413DG     H23 9499   5.513   4.147   1.662  0.6432 -1.8223 -3.1784
  414DG      C1 9500   0.375   0.708   4.832  0.1283 -0.3162  0.4708
  414DG      C2 9501   0.220   0.159   5.189  0.6420  0.5268 -0.4618
  414DG      H3 9502   0.339   0.778   4.757 -0.0510 -1.0294 -0.6376
  414DG      H4 9503   0.443   0.639   4.782  0.7252 -2.0069  0.8975
  414DG      H5 9504   0.430   0.751   4.911 -0.8587 -0.9637 -1.4801
  414DG      H6 9505   0.326   0.148   5.195 -1.6095 -1.9935 -1.3767
  414DG      H7 9506   0.180   0.164   5.296  0.7817  1.4313  3.0468
  414DG      H8 9507   0.179   0.060   5.157 -0.7815  0.8895 -1.4499
  414DG      O9 9508   0.261   0.637   4.876 -0.0430  0.1076  0.0693
  414DG     O10 9509   0.177   0.258   5.106 -0.1913  0.0749  0.6637
  414DG     C11 9510   0.149   0.711   4.902  0.9897  0.2284  0.7926
  414DG     C12 9511   0.037   0.288   5.131  0.0156 -0.0564 -0.0329
  414DG     H13 9512   0.138   0.789   4.828 -1.5764 -2.8689 -0.4923
  414DG     H14 9513   0.169   0.753   4.998  0.9705 -2.5746 -1.7620
  414DG     H15 9514   0.016   0.323   5.227 -2.2364 -0.9902 -1.4039
  414DG     H16 9515  -0.025   0.197   5.125 -1.9654  0.3823  0.0461
  414DG     C17 9516   0.037   0.611   4.921  0.3447 -0.3034 -0.0709
  414DG     C18 9517  -0.016   0.396   5.028 -0.9195 -0.8078  0.4043
  414DG     O19 9518   0.069   0.512   5.022 -0.0554  0.1080  0.7011
  414DG     H20 9519   0.013   0.558   4.829 -0.1270 -2.1693  2.4372
  414DG     H21 9520  -0.048   0.674   4.953 -1.6241  0.3925  1.9365
  414DG     H22 9521  -0.032   0.358   4.931  0.8460 -1.5210  0.4572
  414DG     H23 9522  -0.110   0.427   5.067  2.3401 -2.2476  1.2966
  415DG      C1 9523   0.650   1.940   1.493  0.1005  0.1598  0.0499
  415DG      C2 9524   0.944   1.463   1.074 -0.7054 -0.2067  0.2196
  415DG      H3 9525   0.605   1.954   1.591  1.1255  0.9870  1.0707
  415DG      H4 9526   0.590   2.004   1.424  0.2003  0.2379 -0.3313
  415DG      H5 9527   0.746   1.987   1.501 -3.5487 -1.3355 -1.7287
  415DG      H6 9528   1.040   1.513   1.090  1.3170 -0.9747 -0.4578
  415DG      H7 9529   0.970   1.358   1.072 -1.3093 -1.2873  0.9987
  415DG      H8 9530   0.910   1.500   0.979 -2.0076  0.6571 -1.2741
  415DG      O9 9531   0.650   1.808   1.435  0.3332  0.1308  0.5598
  415DG     O10 9532   0.853   1.492   1.181  0.5664  0.2170  0.5292
  415DG     C11 9533   0.518   1.754   1.441 -0.2812  0.0151 -0.2290
  415DG     C12 9534   0.735   1.410   1.178 -0.3284 -0.0964 -0.0604
  415DG     H13 9535   0.457   1.793   1.366  1.3355 -0.3719 -0.6713
  415DG     H14 9536   0.485   1.761   1.545 -0.4872  0.8167 -1.5799
  415DG     H15 9537   0.755   1.298   1.164 -1.3360 -0.1142  0.2022
  415DG     H16 9538   0.674   1.434   1.096  2.3463  0.2535  0.8918
  415DG     C17 9539   0.534   1.607   1.421 -0.0873 -1.1146 -0.0687
  415DG     C18 9540   0.653   1.435   1.301  0.5153  0.0650  0.1536
  415DG     O19 9541   0.626   1.576   1.320  0.2813  0.8014  0.1333
  415DG     H20 9542   0.428   1.563   1.396 -0.1107 -2.2550  0.4021
  415DG     H21 9543   0.577   1.564   1.507  1.8301  0.2524 -2.5712
  415DG     H22 9544   0.559   1.377   1.296 -1.9479  1.3312  0.5489
  415DG     H23 9545   0.709   1.411   1.387  0.9467 -0.6648  2.2039
  416DG      C1 9546   4.331   5.063   3.114 -0.2644  0.7898  0.2272
  416DG      C2 9547   4.127   5.329   2.483 -0.6410 -0.4739  0.4454
  416DG      H3 9548   4.271   4.976   3.085  0.4156  0.2620  0.5629
  416DG      H4 9549   4.299   5.101   3.215  0.4860 -1.6471 -3.0148
  416DG      H5 9550   4.435   5.035   3.136  0.2806  2.1192  0.6344
  416DG      H6 9551   4.195   5.281   2.421 -0.5864  0.3600  0.0017
  416DG      H7 9552   4.039   5.303   2.427  1.6864  1.9716 -0.0519
  416DG      H8 9553   4.139   5.437   2.479 -0.5477 -3.3719  1.9761
  416DG      O9 9554   4.324   5.177   3.025  0.0660 -0.1652  0.2430
  416DG     O10 9555   4.142   5.282   2.616  0.2097  0.4486  0.0275
  416DG     C11 9556   4.198   5.239   3.046  0.8723 -0.3150  0.2635
  416DG     C12 9557   4.101   5.147   2.623  0.2557  0.2064  0.4957
  416DG     H13 9558   4.195   5.341   3.006  2.0560  1.0898 -0.4259
  416DG     H14 9559   4.186   5.269   3.155 -0.7276  1.3055 -0.6114
  416DG     H15 9560   4.144   5.078   2.555  0.1488 -0.2888 -2.2999
  416DG     H16 9561   3.990   5.135   2.610  0.2024  1.4231 -1.4842
  416DG     C17 9562   4.076   5.162   2.998  0.4822 -0.2617  0.0398
  416DG     C18 9563   4.116   5.094   2.765 -0.2395  0.2619 -0.3848
  416DG     O19 9564   4.051   5.184   2.855 -0.5534  0.1951  0.2264
  416DG     H20 9565   3.987   5.184   3.057  2.1613 -0.0705  1.6402
  416DG     H21 9566   4.090   5.054   3.016  1.3880 -1.7171  0.9769
  416DG     H22 9567   4.072   4.992   2.774 -0.4030 -1.1911  2.4496
  416DG     H23 9568   4.228   5.099   2.774  1.7463 -1.1340 -2.8289
  417DG      C1 9569   2.194   1.485   3.818  0.5829  0.0279  0.0478
  417DG      C2 9570   1.638   2.023   4.180  0.3172  0.0435 -0.4041
  417DG      H3 9571   2.293   1.515   3.785 -0.8980  0.9509  1.1196
  417DG      H4 9572   2.152   1.444   3.728 -0.4483 -1.5971  1.3051
  417DG      H5 9573   2.197   1.424   3.900  0.8444  1.8407 -1.0923
  417DG      H6 9574   1.554   1.956   4.164 -0.4346 -0.7314 -0.5815
  417DG      H7 9575   1.698   1.973   4.251  0.2417  1.3999  1.6320
  417DG      H8 9576   1.606   2.119   4.222  0.4159  0.4275  0.7667
  417DG      O9 9577   2.130   1.607   3.854  0.1084  0.1979 -0.0729
  417DG     O10 9578   1.724   2.040   4.066  0.3777  0.0910  0.1250
  417DG     C11 9579   2.137   1.711   3.760  0.0217 -0.3330  0.0636
  417DG     C12 9580   1.772   1.918   4.013 -0.0675 -0.2613  0.4685
  417DG     H13 9581   2.076   1.700   3.673  1.0389  0.2451  1.0026
  417DG     H14 9582   2.240   1.733   3.727 -0.6472  0.5293 -0.3127
  417DG     H15 9583   1.702   1.882   3.939 -0.1630  1.0902  2.4257
  417DG     H16 9584   1.787   1.830   4.089  0.0512  1.1095  1.7166
  417DG     C17 9585   2.093   1.842   3.833  0.1152  0.5175 -0.2651
  417DG     C18 9586   1.911   1.941   3.947 -1.0806  0.7116  0.1345
  417DG     O19 9587   1.959   1.832   3.872  0.0346  0.0631  0.2260
  417DG     H20 9588   2.097   1.916   3.763 -0.4732 -2.1698  0.3398
  417DG     H21 9589   2.156   1.861   3.916 -0.5756  0.0970 -1.4039
  417DG     H22 9590   1.914   2.030   3.890 -2.2629 -3.4005  0.6139
  417DG     H23 9591   1.979   1.956   4.032  2.5500 -0.9758 -2.1274
  418DG      C1 9592   0.054   4.279   0.029  0.0002 -1.3144 -0.8376
  418DG      C2 9593   0.039   3.693  -0.476 -0.2116  0.3441  0.0868
  418DG      H3 9594   0.066   4.303  -0.078  1.2186 -2.0187 -0.8476
  418DG      H4 9595   0.147   4.313   0.068  0.0531 -2.3246  1.4483
  418DG      H5 9596  -0.029   4.318   0.088 -0.3377  0.0496 -0.0117
  418DG      H6 9597   0.140   3.678  -0.509  1.1821 -0.9046 -1.5106
  418DG      H7 9598   0.002   3.595  -0.438  0.9243  1.7510  0.2555
  418DG      H8 9599  -0.034   3.716  -0.555 -2.0782  0.6189 -2.1917
  418DG      O9 9600   0.062   4.137   0.044 -0.2057 -0.2232  0.7477
  418DG     O10 9601   0.028   3.796  -0.382  0.3868 -0.4279 -0.0311
  418DG     C11 9602  -0.061   4.067   0.024 -0.1652  0.1133  0.4077
  418DG     C12 9603   0.125   3.799  -0.280 -1.0259 -0.8562  0.3836
  418DG     H13 9604  -0.101   4.094  -0.074 -2.8647  0.6429  0.0607
  418DG     H14 9605  -0.132   4.101   0.094  0.9675  0.7957 -2.1665
  418DG     H15 9606   0.219   3.823  -0.329  0.5074 -1.8496 -0.4605
  418DG     H16 9607   0.145   3.695  -0.236  1.4353  0.4823  0.6708
  418DG     C17 9608  -0.042   3.912   0.036  0.8209  0.5190 -0.7194
  418DG     C18 9609   0.093   3.898  -0.164  0.0799 -0.1803 -0.1157
  418DG     O19 9610  -0.020   3.849  -0.094 -0.7006  0.1385  0.3295
  418DG     H20 9611  -0.133   3.881   0.093  0.0816  0.4167  3.5666
  418DG     H21 9612   0.034   3.892   0.111  0.5302 -1.3982  1.9136
  418DG     H22 9613   0.181   3.915  -0.105 -0.3061  2.4595  0.2159
  418DG     H23 9614   0.060   3.985  -0.214  0.7119 -0.3597 -0.3284
  419DG      C1 9615   2.791   2.002   1.101 -0.5814  0.0131 -0.0641
  419DG      C2 9616   2.149   2.209   1.216  0.9937 -0.4611 -0.1283
  419DG      H3 9617   2.888   2.041   1.055 -0.5737  2.7638  0.9930
  419DG      H4 9618   2.782   1.893   1.104 -2.3463  1.9780  1.6714
  419DG      H5 9619   2.795   2.031   1.201 -1.1231 -2.1278  1.3426
  419DG      H6 9620   2.050   2.241   1.172 -1.2994  0.5818  1.8300
  419DG      H7 9621   2.120   2.113   1.261 -0.9731  0.0537  1.3243
  419DG      H8 9622   2.158   2.286   1.287 -2.4517 -0.0759 -0.6936
  419DG      O9 9623   2.675   2.050   1.048 -0.1456 -0.1004 -0.4966
  419DG     O10 9624   2.250   2.219   1.118  0.0658 -0.1675  0.1479
  419DG     C11 9625   2.664   2.011   0.908 -0.1511 -0.3878 -0.0076
  419DG     C12 9626   2.211   2.145   0.996 -0.5699 -0.9006  0.2601
  419DG     H13 9627   2.631   1.906   0.910 -1.4663 -1.8542 -0.1932
  419DG     H14 9628   2.758   2.019   0.848 -1.9477 -0.9274  1.0264
  419DG     H15 9629   2.140   2.203   0.947  1.1740 -4.3444  0.1689
  419DG     H16 9630   2.164   2.054   1.027 -0.5130 -0.3962 -0.9305
  419DG     C17 9631   2.547   2.092   0.846 -0.3426 -0.5191 -0.0290
  419DG     C18 9632   2.320   2.127   0.894 -0.7803  0.6115  0.0437
  419DG     O19 9633   2.445   2.102   0.951  0.2769  0.0599  0.3805
  419DG     H20 9634   2.504   2.043   0.759 -0.7284 -1.9813  3.3810
  419DG     H21 9635   2.566   2.195   0.820  0.5462 -0.8005 -1.5052
  419DG     H22 9636   2.291   2.044   0.837  1.1288  2.2556 -1.3261
  419DG     H23 9637   2.332   2.217   0.830 -0.5050 -0.7250 -3.0229
  420DG      C1 9638   3.259   4.727   3.563 -0.4462  0.2055 -0.6542
  420DG      C2 9639   3.102   5.339   4.005  0.0939 -0.5498 -0.3303
  420DG      H3 9640   3.164   4.714   3.525 -0.5168  0.9105  3.3980
  420DG      H4 9641   3.280   4.649   3.627 -3.3142 -0.3281 -0.6725
  420DG      H5 9642   3.324   4.700   3.476  1.5643 -1.7150 -1.5971
  420DG      H6 9643   3.025   5.350   3.932  1.4975 -0.4966 -0.1107
  420DG      H7 9644   3.050   5.292   4.084 -1.2524 -0.6514  0.0281
  420DG      H8 9645   3.132   5.435   4.044 -2.1262  1.8863  1.1630
  420DG      O9 9646   3.279   4.860   3.623  0.8363  0.6869 -0.4068
  420DG     O10 9647   3.208   5.260   3.959  0.3968 -0.3582 -0.2880
  420DG     C11 9648   3.400   4.873   3.687 -0.5410  0.5719 -0.4897
  420DG     C12 9649   3.248   5.309   3.836 -0.0203 -0.5697 -0.0273
  420DG     H13 9650   3.488   4.835   3.635 -0.1628  0.3821  0.1101
  420DG     H14 9651   3.396   4.831   3.790  1.8949  1.4004 -2.2187
  420DG     H15 9652   3.288   5.415   3.844  1.0839  0.3040  0.5377
  420DG     H16 9653   3.175   5.316   3.760 -2.8389 -0.2485  0.2507
  420DG     C17 9654   3.427   5.018   3.721  1.0615  0.0156  0.5949
  420DG     C18 9655   3.369   5.236   3.780  0.8817  1.2646 -0.8536
  420DG     O19 9656   3.320   5.103   3.757  0.5031  0.0110 -0.0947
  420DG     H20 9657   3.474   5.065   3.642 -0.5549  2.4148  0.8679
  420DG     H21 9658   3.501   5.018   3.795 -0.3547 -2.5170 -0.5407
  420DG     H22 9659   3.403   5.274   3.684 -0.0444 -0.5658 -2.5349
  420DG     H23 9660   3.451   5.232   3.847 -2.7684  0.2629 -1.4880
  421DG      C1 9661   5.407   1.547   1.467 -0.6982 -0.3362 -0.4585
  421DG      C2 9662   5.333   1.021   1.977  0.1504 -0.1672 -0.3668
  421DG      H3 9663   5.372   1.470   1.397  1.8452 -0.1099 -0.5734
  421DG      H4 9664   5.518   1.554   1.466  1.2969 -1.2280  0.9318
  421DG      H5 9665   5.376   1.638   1.420 -2.5313 -1.6450  1.2918
  421DG      H6 9666   5.351   1.015   2.079 -2.2560 -1.1733 -1.4811
  421DG      H7 9667   5.244   0.959   1.961  2.5555 -0.4014  0.8271
  421DG      H8 9668   5.422   0.983   1.934 -0.3541 -0.3488  0.2189
  421DG      O9 9669   5.362   1.535   1.602 -0.4593 -0.1949  0.0915
  421DG     O10 9670   5.314   1.159   1.940  0.2158  0.6317  0.1850
  421DG     C11 9671   5.228   1.562   1.624  0.1314  0.1634 -0.7445
  421DG     C12 9672   5.185   1.216   1.943 -0.4695 -0.4628  0.0751
  421DG     H13 9673   5.164   1.505   1.559 -1.2582 -0.3558 -0.8898
  421DG     H14 9674   5.205   1.670   1.603  2.3178  1.8646 -0.8473
  421DG     H15 9675   5.124   1.183   2.031 -0.8772  0.0269 -1.4051
  421DG     H16 9676   5.116   1.184   1.863 -1.3029  0.6430 -0.7248
  421DG     C17 9677   5.189   1.534   1.766  0.2251  0.5462  0.4649
  421DG     C18 9678   5.196   1.365   1.940 -0.6628  0.2422  0.3701
  421DG     O19 9679   5.237   1.401   1.809  0.3645 -0.0328 -0.6424
  421DG     H20 9680   5.083   1.528   1.778 -0.1254 -0.5934  2.5670
  421DG     H21 9681   5.225   1.619   1.826  0.0265 -1.6763 -0.8405
  421DG     H22 9682   5.101   1.412   1.958 -5.1127  2.3433  0.9428
  421DG     H23 9683   5.262   1.409   2.020  1.8698  0.5693  0.0738
  422DG      C1 9684   1.739   2.496   2.768 -0.0366 -0.2738  0.6137
  422DG      C2 9685   1.554   2.964   2.249 -0.6469  0.1459 -0.6532
  422DG      H3 9686   1.757   2.407   2.711 -3.6993 -1.5808  0.7405
  422DG      H4 9687   1.753   2.473   2.874  0.7175  1.1511 -0.9986
  422DG      H5 9688   1.819   2.567   2.744 -1.2228 -1.0952  1.9727
  422DG      H6 9689   1.449   2.943   2.269  1.0935 -1.1402 -0.1568
  422DG      H7 9690   1.563   3.067   2.242 -1.0822 -3.3704 -1.9615
  422DG      H8 9691   1.586   2.910   2.161  0.1560 -1.1754  2.2144
  422DG      O9 9692   1.604   2.530   2.747 -0.1040  0.2949  0.3998
  422DG     O10 9693   1.637   2.908   2.353 -0.1402  0.3760  0.1621
  422DG     C11 9694   1.562   2.559   2.610  0.2729  0.1772 -0.3317
  422DG     C12 9695   1.642   2.973   2.473  0.2877  0.0976 -0.1043
  422DG     H13 9696   1.458   2.583   2.596 -0.0250 -0.3175  0.0475
  422DG     H14 9697   1.580   2.478   2.545  1.3174  3.1050  0.0811
  422DG     H15 9698   1.547   2.991   2.510 -2.7398 -1.7354 -0.9304
  422DG     H16 9699   1.679   3.073   2.446  0.0587 -0.7451 -0.0380
  422DG     C17 9700   1.643   2.670   2.546 -0.8144 -0.7571  0.3165
  422DG     C18 9701   1.720   2.894   2.572 -0.0714  0.5825 -0.5184
  422DG     O19 9702   1.656   2.780   2.632 -0.4859  0.1757 -0.5200
  422DG     H20 9703   1.591   2.702   2.455  1.2765  1.1890  0.5902
  422DG     H21 9704   1.751   2.630   2.524 -0.9050 -0.6478  0.0868
  422DG     H22 9705   1.820   2.868   2.535  0.6416  0.0532 -0.6860
  422DG     H23 9706   1.748   2.956   2.659  0.2835  1.7417 -2.2392
  423DG      C1 9707   4.486   2.020   5.457 -0.2412  0.5789 -0.5720
  423DG      C2 9708   4.703   1.470   5.066  0.1282 -0.0639 -0.2921
  423DG      H3 9709   4.511   2.099   5.387 -1.1570 -0.9907  0.5487
  423DG      H4 9710   4.583   2.022   5.506  0.5660 -0.0895 -0.3853
  423DG      H5 9711   4.410   2.056   5.528  1.0142 -0.2110 -1.3027
  423DG      H6 9712   4.649   1.417   4.984 -0.4123 -4.2595 -0.3848
  423DG      H7 9713   4.769   1.544   5.023  0.6223  0.1768  1.2364
  423DG      H8 9714   4.770   1.406   5.121  2.2335 -0.8993  2.6376
  423DG      O9 9715   4.459   1.893   5.397 -0.7107 -0.3116  0.0954
  423DG     O10 9716   4.609   1.522   5.151  0.0177 -0.2831  0.4206
  423DG     C11 9717   4.404   1.808   5.493  0.4718 -0.1554  0.0824
  423DG     C12 9718   4.545   1.421   5.225  0.7255 -1.2977  0.3363
  423DG     H13 9719   4.318   1.850   5.540  0.3238  0.0184 -0.4753
  423DG     H14 9720   4.474   1.804   5.581 -0.3828  2.3201  0.7100
  423DG     H15 9721   4.608   1.390   5.307  0.7878 -0.9207 -0.3189
  423DG     H16 9722   4.511   1.335   5.170 -0.4407 -0.7889  0.7556
  423DG     C17 9723   4.363   1.675   5.431  0.1073  0.0601  0.2083
  423DG     C18 9724   4.432   1.499   5.292 -0.0935 -0.4613  0.1793
  423DG     O19 9725   4.475   1.603   5.379  0.4857 -0.9355 -0.1485
  423DG     H20 9726   4.292   1.692   5.351 -0.7293 -1.1649 -2.6849
  423DG     H21 9727   4.315   1.604   5.488  1.3661  1.0491 -1.8082
  423DG     H22 9728   4.360   1.524   5.212 -1.7881 -3.3820 -1.4664
  423DG     H23 9729   4.390   1.428   5.350  2.4405 -1.6621  1.3497
  424DG      C1 9730   1.465   3.982   3.136 -0.3031  0.5248 -0.6066
  424DG      C2 9731   1.884   3.943   2.716  0.0042 -0.2723 -0.2117
  424DG      H3 9732   1.471   3.871   3.126 -0.9012  4.1177 -3.1507
  424DG      H4 9733   1.386   4.020   3.074  1.4366 -0.7655 -2.6506
  424DG      H5 9734   1.428   3.996   3.239  1.1632  0.6215 -3.6835
  424DG      H6 9735   1.853   3.923   2.613  0.1944  1.3483  1.0773
  424DG      H7 9736   1.928   3.863   2.769 -0.1688  0.4326 -0.0835
  424DG      H8 9737   1.794   3.961   2.772 -0.0205 -1.1589 -1.6722
  424DG      O9 9738   1.585   4.042   3.104 -0.2742 -0.8333 -0.2400
  424DG     O10 9739   1.967   4.061   2.711  0.1115 -0.2864  0.3524
  424DG     C11 9740   1.703   4.001   3.163 -0.6586  0.0433  0.1948
  424DG     C12 9741   2.059   4.076   2.823  0.6227 -0.3268 -0.4537
  424DG     H13 9742   1.724   3.892   3.146  0.7671 -0.1164 -0.7019
  424DG     H14 9743   1.682   4.011   3.268  0.1426 -1.1462  0.7519
  424DG     H15 9744   2.144   4.136   2.787 -0.1589 -1.3671  0.0631
  424DG     H16 9745   2.116   3.991   2.838  1.2500  1.2189 -2.3064
  424DG     C17 9746   1.814   4.093   3.119  0.2492  0.4818 -0.0791
  424DG     C18 9747   1.984   4.128   2.949 -0.1124 -0.5622 -0.2080
  424DG     O19 9748   1.873   4.043   2.996 -0.2975  0.7882 -0.3385
  424DG     H20 9749   1.880   4.093   3.199 -3.1508 -2.6583 -2.2774
  424DG     H21 9750   1.776   4.192   3.103  0.7395  0.1649  0.2548
  424DG     H22 9751   2.058   4.127   3.028 -0.5811  0.9008 -0.6094
  424DG     H23 9752   1.949   4.229   2.925  0.0142  0.3952 -0.4625
  425DG      C1 9753   3.091   4.167   0.672 -0.4946 -0.5009  0.5670
  425DG      C2 9754   2.579   4.618   0.654  0.1409  0.2633  0.0583
  425DG      H3 9755   3.115   4.066   0.637 -0.6447  1.8366 -0.9167
  425DG      H4 9756   3.034   4.158   0.767 -1.0252 -1.3351  1.3467
  425DG      H5 9757   3.187   4.209   0.709  1.2470  0.1480 -0.5472
  425DG      H6 9758   2.618   4.712   0.692  2.3309  0.5051 -0.2178
  425DG      H7 9759   2.485   4.643   0.604 -0.8770 -2.2439 -0.4891
  425DG      H8 9760   2.562   4.556   0.743 -0.9418 -0.7611  0.5600
  425DG      O9 9761   3.008   4.237   0.583  0.8031 -0.7149  0.8611
  425DG     O10 9762   2.672   4.549   0.565 -0.4779 -0.0186  0.3882
  425DG     C11 9763   3.073   4.288   0.465 -0.9216 -0.1558 -0.1377
  425DG     C12 9764   2.723   4.625   0.453 -0.0154  0.9278  0.1838
  425DG     H13 9765   3.121   4.206   0.407  4.3443  1.7644 -0.0968
  425DG     H14 9766   3.154   4.359   0.487  1.0380  3.0944 -1.1937
  425DG     H15 9767   2.781   4.709   0.494 -0.2110  0.5537  1.8673
  425DG     H16 9768   2.639   4.673   0.400 -0.9375 -0.9077  0.0021
  425DG     C17 9769   2.967   4.362   0.379  0.3825 -0.3154  0.2805
  425DG     C18 9770   2.792   4.519   0.368 -0.5827 -0.7712 -0.1442
  425DG     O19 9771   2.903   4.467   0.450 -0.3766 -0.1322  0.7368
  425DG     H20 9772   2.888   4.293   0.350  2.6024 -1.1087 -0.0848
  425DG     H21 9773   3.016   4.393   0.287 -1.6838  0.4034 -0.4320
  425DG     H22 9774   2.725   4.448   0.328  0.7083 -0.6607  0.1738
  425DG     H23 9775   2.832   4.567   0.279  0.8999  0.2090 -0.7869
  426DG      C1 9776   3.556   4.696   3.156 -0.1945 -0.0187 -0.1405
  426DG      C2 9777   3.903   4.742   3.930  0.0186  0.9277 -0.5366
  426DG      H3 9778   3.539   4.803   3.179  0.9495 -1.4218 -0.0711
  426DG      H4 9779   3.475   4.639   3.191 -0.5406  2.1738 -1.6342
  426DG      H5 9780   3.573   4.682   3.047 -1.1111 -2.5361 -2.2521
  426DG      H6 9781   3.946   4.674   4.008 -0.3537 -0.6960 -0.2353
  426DG      H7 9782   3.966   4.830   3.914  2.7460 -0.3396  2.2791
  426DG      H8 9783   3.812   4.780   3.981  1.9668  1.4048 -1.7575
  426DG      O9 9784   3.670   4.654   3.231  0.5804  0.1461  0.5220
  426DG     O10 9785   3.885   4.678   3.810  0.5776  0.5569 -0.2653
  426DG     C11 9786   3.642   4.665   3.371  0.0725 -0.6908 -0.5852
  426DG     C12 9787   3.783   4.576   3.820  0.5591  0.1165 -0.6777
  426DG     H13 9788   3.544   4.631   3.396  0.0530 -2.3175 -0.2658
  426DG     H14 9789   3.638   4.771   3.393 -0.4866 -0.4211 -0.7026
  426DG     H15 9790   3.688   4.621   3.838  0.6909  0.3282  0.7146
  426DG     H16 9791   3.789   4.502   3.897  0.1779 -0.3596 -1.3056
  426DG     C17 9792   3.750   4.590   3.451  0.1122  0.2917 -0.1996
  426DG     C18 9793   3.773   4.524   3.681  0.6352 -0.4811  0.4565
  426DG     O19 9794   3.716   4.624   3.592 -0.1490 -0.8286 -0.3340
  426DG     H20 9795   3.851   4.629   3.431  1.2724  0.5096  1.7258
  426DG     H21 9796   3.733   4.482   3.435 -0.8782  0.6138 -0.8911
  426DG     H22 9797   3.867   4.505   3.635 -1.9213  1.4994 -1.1958
  426DG     H23 9798   3.711   4.438   3.684 -0.6850 -1.6441 -3.6827
  427DG      C1 9799   4.537   1.223   3.763  0.3505  1.0043  0.6017
  427DG      C2 9800   4.436   1.387   3.100  0.1103 -1.1125 -0.2246
  427DG      H3 9801   4.527   1.131   3.707 -1.4751 -0.9964  0.8692
  427DG      H4 9802   4.508   1.211   3.868 -0.4206  0.0512  0.8869
  427DG      H5 9803   4.641   1.253   3.754 -0.8753  0.5957 -1.1159
  427DG      H6 9804   4.538   1.432   3.099  0.0399 -0.3272  0.3725
  427DG      H7 9805   4.431   1.280   3.061 -1.6422 -0.8285 -1.3843
  427DG      H8 9806   4.383   1.449   3.027  1.3822  1.0145  0.6655
  427DG      O9 9807   4.455   1.316   3.685  0.1870  0.5261  0.0854
  427DG     O10 9808   4.371   1.403   3.224 -0.2199  0.7916  0.0410
  427DG     C11 9809   4.455   1.458   3.705  0.1205  0.2194 -0.3897
  427DG     C12 9810   4.316   1.532   3.253  0.3021 -0.0354 -0.9676
  427DG     H13 9811   4.553   1.501   3.684  0.5806  0.5654 -1.3051
  427DG     H14 9812   4.447   1.481   3.810 -0.5796  1.3962 -0.7078
  427DG     H15 9813   4.250   1.559   3.172 -2.1364  2.9690 -3.2655
  427DG     H16 9814   4.395   1.607   3.255 -3.2343 -0.7980  2.0807
  427DG     C17 9815   4.355   1.539   3.622  0.8501  0.4679 -0.2574
  427DG     C18 9816   4.256   1.541   3.400  0.1258  0.1058 -0.7537
  427DG     O19 9817   4.362   1.495   3.486 -0.1009  0.3538  0.1909
  427DG     H20 9818   4.373   1.646   3.633  1.8048 -2.0846  1.8797
  427DG     H21 9819   4.253   1.524   3.666 -0.4990  0.7486 -0.5326
  427DG     H22 9820   4.221   1.644   3.424 -3.4669  0.0398  2.2310
  427DG     H23 9821   4.172   1.468   3.414 -1.3911 -0.3524 -0.1112
  428DG      C1 9822   5.171   0.406   2.417  0.0788  0.1815  0.2148
  428DG      C2 9823   4.878   0.960   2.213  0.1408 -0.6682  0.2347
  428DG      H3 9824   5.241   0.323   2.460 -0.3759 -1.3408  0.3054
  428DG      H4 9825   5.229   0.443   2.329 -0.2535 -1.8636 -2.7683
  428DG      H5 9826   5.084   0.357   2.375  2.0215 -0.5410 -2.1766
  428DG      H6 9827   4.906   1.046   2.152  0.0587 -1.0970 -2.4724
  428DG      H7 9828   4.816   0.896   2.150 -1.7080  2.5888  0.1235
  428DG      H8 9829   4.816   0.998   2.299 -0.5056 -0.7685  1.1671
  428DG      O9 9830   5.145   0.511   2.508  0.5936  0.1009  0.3402
  428DG     O10 9831   4.992   0.888   2.266  0.4434  0.2157  0.1278
  428DG     C11 9832   5.269   0.576   2.541  0.1953 -0.2433  0.3055
  428DG     C12 9833   5.108   0.961   2.306 -0.1227  0.3562 -0.3369
  428DG     H13 9834   5.346   0.507   2.549 -1.2664  1.1559 -2.1806
  428DG     H14 9835   5.257   0.611   2.647  0.1264  0.6960  2.2167
  428DG     H15 9836   5.090   1.020   2.400  2.2763 -1.4970  3.7123
  428DG     H16 9837   5.141   1.036   2.237 -1.5475  1.4336 -2.5256
  428DG     C17 9838   5.307   0.694   2.450  0.3730  0.6293  0.0513
  428DG     C18 9839   5.230   0.872   2.328 -0.2073 -0.9031 -0.2502
  428DG     O19 9840   5.195   0.780   2.426 -0.0114  0.5259 -0.4833
  428DG     H20 9841   5.342   0.657   2.351 -0.6560  0.5909 -1.2682
  428DG     H21 9842   5.386   0.749   2.499 -0.4073  0.4998  0.6938
  428DG     H22 9843   5.250   0.826   2.233  2.1629 -2.1344  4.9963
  428DG     H23 9844   5.322   0.920   2.357 -1.4172 -1.1170 -2.5989
  429DG      C1 9845   0.061   3.769   4.192  0.5702 -0.4379  0.5084
  429DG      C2 9846   0.687   4.076   3.877 -0.2059  0.2052 -0.3728
  429DG      H3 9847   0.064   3.684   4.270  2.6175 -3.2107 -1.8751
  429DG      H4 9848   0.036   3.732   4.084  2.4026 -1.2638 -3.0159
  429DG      H5 9849  -0.016   3.837   4.226  0.0191  2.1351  1.7216
  429DG      H6 9850   0.699   4.126   3.777 -0.5840  0.8275  1.4027
  429DG      H7 9851   0.783   4.076   3.927  1.1112 -0.3055 -0.8547
  429DG      H8 9852   0.653   3.975   3.862  2.4748 -0.5850 -1.1292
  429DG      O9 9853   0.180   3.846   4.184 -0.3163 -0.0671 -0.1380
  429DG     O10 9854   0.591   4.127   3.967 -0.3151 -0.2013 -0.2320
  429DG     C11 9855   0.190   3.949   4.094  0.0110 -0.1248 -0.1429
  429DG     C12 9856   0.507   4.227   3.908  0.2363  0.0017  0.5495
  429DG     H13 9857   0.106   4.017   4.106  0.9569  1.2728  1.4282
  429DG     H14 9858   0.187   3.896   4.000 -0.0558  1.0066  0.3526
  429DG     H15 9859   0.465   4.196   3.809 -1.9877 -0.8796 -0.5816
  429DG     H16 9860   0.567   4.319   3.883  3.2473 -1.6195 -1.2897
  429DG     C17 9861   0.309   4.039   4.104 -0.1330  1.0850  0.0554
  429DG     C18 9862   0.406   4.253   4.015  0.4560 -0.7470 -0.0216
  429DG     O19 9863   0.301   4.153   4.011  0.1031 -0.7922  0.2962
  429DG     H20 9864   0.406   3.985   4.095 -0.7201  0.0634  1.9536
  429DG     H21 9865   0.306   4.084   4.200  0.6347 -2.2947 -2.0008
  429DG     H22 9866   0.443   4.246   4.119  0.4430 -0.4959  0.9115
  429DG     H23 9867   0.347   4.344   4.001 -0.8395 -1.6219 -0.8004
  430DG      C1 9868   5.212   2.112   3.605 -0.6863  0.6264 -0.0734
  430DG      C2 9869   5.405   1.423   3.339  0.3627 -0.3603  0.1617
  430DG      H3 9870   5.137   2.130   3.674  5.1743  1.6914  0.8205
  430DG      H4 9871   5.171   2.080   3.510 -0.1248 -0.5553  0.4608
  430DG      H5 9872   5.267   2.203   3.590  0.3903 -0.1648 -0.2275
  430DG      H6 9873   5.466   1.463   3.262 -0.7896  0.5301  0.6860
  430DG      H7 9874   5.453   1.406   3.434  0.2422  3.0042 -0.4425
  430DG      H8 9875   5.355   1.329   3.319 -1.6084  0.5347  1.5062
  430DG      O9 9876   5.297   2.007   3.655  0.4438 -0.1637  0.2523
  430DG     O10 9877   5.300   1.523   3.360  0.3769  0.0241 -0.5537
  430DG     C11 9878   5.235   1.884   3.694 -0.2641 -0.4717  0.8420
  430DG     C12 9879   5.192   1.473   3.443  0.1913  0.3964  0.0920
  430DG     H13 9880   5.172   1.898   3.785  0.2843 -2.6512 -1.0947
  430DG     H14 9881   5.325   1.824   3.721  1.0212 -1.4664  2.5439
  430DG     H15 9882   5.228   1.407   3.520 -0.1413 -1.2513  3.2792
  430DG     H16 9883   5.123   1.407   3.391 -1.6925 -2.6434  1.6245
  430DG     C17 9884   5.172   1.817   3.572  0.1786  0.6227  0.3828
  430DG     C18 9885   5.112   1.593   3.498  0.3943 -0.1183 -0.7041
  430DG     O19 9886   5.196   1.671   3.577 -0.0164  0.5121  0.1049
  430DG     H20 9887   5.219   1.844   3.479  0.0785 -2.0612  1.0160
  430DG     H21 9888   5.067   1.834   3.566 -2.6361  0.5536 -1.3220
  430DG     H22 9889   5.082   1.650   3.411  2.3171  0.1236  3.8901
  430DG     H23 9890   5.015   1.564   3.547 -0.0775 -0.5946  2.2968
  431DG      C1 9891   0.380   3.032   0.079  0.1836 -0.1719 -0.4069
  431DG      C2 9892  -0.116   2.417   0.031 -0.2250 -0.2027 -0.6787
  431DG      H3 9893   0.384   3.096  -0.015 -0.9317  2.3426  0.8978
  431DG      H4 9894   0.483   3.041   0.121 -0.6022 -1.8906  1.7288
  431DG      H5 9895   0.304   3.085   0.140 -2.1843 -0.7989 -1.1682
  431DG      H6 9896  -0.172   2.407   0.124  0.4923  1.1479  0.5454
  431DG      H7 9897  -0.163   2.353  -0.044  2.3757  0.3540 -1.1294
  431DG      H8 9898  -0.020   2.381   0.044 -2.2285 -0.2789 -1.6189
  431DG      O9 9899   0.337   2.903   0.047 -0.9871  0.1042 -0.0467
  431DG     O10 9900  -0.115   2.552  -0.005 -0.2698 -0.1602  0.0661
  431DG     C11 9901   0.207   2.913  -0.011  0.1620  0.3142 -0.3703
  431DG     C12 9902  -0.077   2.562  -0.142 -0.0155 -0.0016 -0.3398
  431DG     H13 9903   0.209   2.975  -0.106 -1.2977 -1.9230  1.6171
  431DG     H14 9904   0.139   2.971   0.051 -0.3425  1.1823  1.0776
  431DG     H15 9905  -0.145   2.518  -0.208 -0.0947  2.6813 -0.4670
  431DG     H16 9906   0.018   2.511  -0.165  1.5726 -1.3977 -1.3799
  431DG     C17 9907   0.149   2.774  -0.043  0.2595 -0.0079 -0.0119
  431DG     C18 9908  -0.054   2.710  -0.175  0.0731  0.1773 -0.5498
  431DG     O19 9909   0.008   2.785  -0.068 -0.0235 -0.0223  0.2733
  431DG     H20 9910   0.157   2.714   0.045 -2.3451  1.2276 -2.1093
  431DG     H21 9911   0.202   2.722  -0.123  0.3793  2.1004 -3.4491
  431DG     H22 9912  -0.011   2.727  -0.267  0.5654 -0.9618  1.0775
  431DG     H23 9913  -0.148   2.762  -0.166  0.1895 -1.4651 -1.3604
  432DG      C1 9914   4.243   5.447   2.131  1.4405  0.1406 -0.0099
  432DG      C2 9915   4.974   5.280   1.751 -0.4917  0.2369  0.8595
  432DG      H3 9916   4.206   5.337   2.138  1.8900 -1.3675 -1.9054
  432DG      H4 9917   4.152   5.505   2.104 -1.0404 -0.5516 -2.5618
  432DG      H5 9918   4.296   5.475   2.227  0.7716 -0.4079  0.2614
  432DG      H6 9919   5.039   5.265   1.664 -0.7463 -1.9414  3.2648
  432DG      H7 9920   5.033   5.329   1.823 -0.8768 -0.2572  0.6979
  432DG      H8 9921   4.931   5.183   1.777 -0.2518 -0.2289  1.1952
  432DG      O9 9922   4.332   5.450   2.023  0.3680 -0.4465 -0.6646
  432DG     O10 9923   4.871   5.363   1.707 -0.2985 -0.3197  0.3890
  432DG     C11 9924   4.393   5.574   1.997  0.2174 -0.9923 -0.4763
  432DG     C12 9925   4.760   5.354   1.790 -0.2744 -0.2339 -0.8990
  432DG     H13 9926   4.456   5.599   2.082 -1.2459 -1.4398  0.5184
  432DG     H14 9927   4.324   5.661   1.977 -0.8414 -1.4055  1.3080
  432DG     H15 9928   4.786   5.359   1.893 -0.8781  0.8338  0.6065
  432DG     H16 9929   4.708   5.263   1.775  0.6288  0.2578  3.2500
  432DG     C17 9930   4.476   5.572   1.867  0.0216 -0.2022 -0.0838
  432DG     C18 9931   4.666   5.472   1.767  0.4269  0.4254  0.2328
  432DG     O19 9932   4.587   5.484   1.882  0.1386  0.2091 -0.3908
  432DG     H20 9933   4.505   5.671   1.850  0.4833 -0.4320  1.0450
  432DG     H21 9934   4.410   5.539   1.785 -1.6121 -0.1945  2.8622
  432DG     H22 9935   4.722   5.558   1.738  2.0542  1.0419 -1.9531
  432DG     H23 9936   4.602   5.441   1.690 -0.8558  1.7458 -2.2881
  433DG      C1 9937   0.595   3.246   0.485 -0.5475  0.3094  0.3970
  433DG      C2 9938   0.132   3.295   0.388 -0.7169  0.7421  0.4255
  433DG      H3 9939   0.567   3.298   0.582 -1.3385 -4.1678  0.1519
  433DG      H4 9940   0.618   3.143   0.520 -0.6402  0.3507  0.5463
  433DG      H5 9941   0.515   3.241   0.414  1.1035 -1.3428  0.2814
  433DG      H6 9942   0.137   3.203   0.447  1.0031 -1.3921  0.3478
  433DG      H7 9943   0.151   3.375   0.453 -0.3141  0.7719 -0.4996
  433DG      H8 9944   0.036   3.306   0.337  0.7991 -1.0757  0.0138
  433DG      O9 9945   0.718   3.297   0.423 -0.0411 -0.4073  0.3154
  433DG     O10 9946   0.234   3.292   0.298  0.0001 -0.3391  0.1453
  433DG     C11 9947   0.714   3.433   0.368  0.2599  0.0951  0.0472
  433DG     C12 9948   0.239   3.415   0.228 -0.3592  0.1942 -0.8334
  433DG     H13 9949   0.807   3.460   0.318 -0.6133 -2.6103  1.6546
  433DG     H14 9950   0.697   3.506   0.451  1.6747 -0.8900  0.7795
  433DG     H15 9951   0.221   3.513   0.278 -3.4043  0.5709  0.2676
  433DG     H16 9952   0.173   3.409   0.148  0.4790 -0.5648  2.0141
  433DG     C17 9953   0.613   3.442   0.248 -0.3683 -0.1554  0.0722
  433DG     C18 9954   0.382   3.440   0.177 -0.7376  1.3114 -0.0242
  433DG     O19 9955   0.474   3.440   0.287  0.3480  0.7124  0.1196
  433DG     H20 9956   0.643   3.378   0.164 -3.5488 -0.5102 -0.3790
  433DG     H21 9957   0.623   3.544   0.204  0.3212 -2.0690 -0.1420
  433DG     H22 9958   0.406   3.358   0.115 -2.0550  2.6203  0.0412
  433DG     H23 9959   0.387   3.537   0.116 -1.4152  1.6604  0.8165
  434DG      C1 9960   4.385   3.082   2.794  0.2961 -0.3119 -0.3709
  434DG      C2 9961   3.936   2.566   3.164  0.6613 -0.4723 -0.2686
  434DG      H3 9962   4.314   3.170   2.786  0.6411  1.5677  0.8724
  434DG      H4 9963   4.464   3.081   2.722 -1.6130  0.4975  2.5121
  434DG      H5 9964   4.415   3.105   2.905  0.7380  2.3238  1.1085
  434DG      H6 9965   3.830   2.569   3.136  2.1739 -2.0469 -0.8653
  434DG      H7 9966   3.958   2.461   3.180  2.8438  0.8479 -1.5767
  434DG      H8 9967   3.955   2.617   3.260  0.0654 -1.3578 -2.6591
  434DG      O9 9968   4.313   2.957   2.792 -0.1826  0.3397 -0.3212
  434DG     O10 9969   4.015   2.613   3.060 -0.2313  0.3895 -0.3130
  434DG     C11 9970   4.385   2.838   2.801 -0.2223 -0.4046 -0.6104
  434DG     C12 9971   3.997   2.752   3.034 -0.0671  0.3801 -0.2048
  434DG     H13 9972   4.460   2.859   2.877 -1.6177 -0.6729  2.9168
  434DG     H14 9973   4.430   2.815   2.707 -2.3687 -0.9103  0.1262
  434DG     H15 9974   4.015   2.818   3.119 -0.2464 -0.7588 -1.2558
  434DG     H16 9975   3.897   2.777   2.995  0.9994 -1.8184  1.4816
  434DG     C17 9976   4.306   2.710   2.830  0.6684 -0.1787  0.3748
  434DG     C18 9977   4.098   2.786   2.927 -0.4102 -0.4052 -0.7593
  434DG     O19 9978   4.219   2.722   2.942 -0.5875  0.3274  0.2590
  434DG     H20 9979   4.377   2.627   2.863  1.7100 -0.1980  3.2835
  434DG     H21 9980   4.255   2.689   2.740 -1.7703  1.9390  1.4447
  434DG     H22 9981   4.064   2.739   2.841  0.4871 -0.4859  2.2906
  434DG     H23 9982   4.099   2.891   2.910 -2.3364 -0.3344 -2.9088
  435DG      C1 9983   0.343   5.141   5.088  0.0376  0.3138 -0.2776
  435DG      C2 9984   0.996   5.111   4.845  0.0946 -0.5181 -0.3639
  435DG      H3 9985   0.367   5.106   5.194 -2.9777 -3.2681  1.7066
  435DG      H4 9986   0.316   5.046   5.035 -1.7669  0.7539  0.0430
  435DG      H5 9987   0.250   5.195   5.112 -1.4303 -0.7269  1.2831
  435DG      H6 9988   0.959   5.019   4.808  2.8803 -0.5701  0.2526
  435DG      H7 9989   1.067   5.149   4.772 -1.4411  1.0096  2.9951
  435DG      H8 9990   1.048   5.088   4.940  0.2229  1.0964  1.7983
  435DG      O9 9991   0.445   5.227   5.036 -0.3277  0.4316 -0.3500
  435DG     O10 9992   0.887   5.203   4.863 -0.2554  0.6592  0.1920
  435DG     C11 9993   0.458   5.350   5.106 -0.7708  0.2486 -1.0402
  435DG     C12 9994   0.913   5.331   4.908 -0.7532  0.2795  0.4092
  435DG     H13 9995   0.481   5.337   5.209 -2.1870 -0.9101  2.5467
  435DG     H14 9996   0.367   5.403   5.093 -1.0245  0.5941  1.4518
  435DG     H15 9997   0.965   5.388   4.832  0.5921  2.7363 -1.3715
  435DG     H16 9998   0.977   5.323   4.993  0.2260  1.4034  0.2820
  435DG     C17 9999   0.572   5.428   5.048 -0.8075 -0.6014  0.0593
  435DG     C1810000   0.784   5.415   4.937  0.2101 -0.0246  0.6317
  435DG     O1910001   0.688   5.342   5.018 -0.2682 -0.5790 -0.2506
  435DG     H2010002   0.599   5.506   5.117 -2.6986 -2.0469  2.6642
  435DG     H2110003   0.541   5.482   4.958 -0.1456 -1.4391  0.4277
  435DG     H2210004   0.815   5.507   4.985 -2.3916  0.1091  1.3164
  435DG     H2310005   0.747   5.438   4.840  1.1288 -1.6241  1.3565
  436DG      C110006   4.457   3.338   4.337  0.4445  0.7337 -0.0293
  436DG      C210007   4.940   3.275   4.863  0.4701  0.4502  0.1705
  436DG      H310008   4.517   3.397   4.260  1.3821  0.8863 -0.7008
  436DG      H410009   4.353   3.361   4.316 -0.4202  3.0512  0.5362
  436DG      H510010   4.479   3.228   4.326  0.9049  1.7373  0.7442
  436DG      H610011   4.993   3.219   4.786 -1.2224 -1.2484  0.8995
  436DG      H710012   5.003   3.363   4.861 -0.1874  0.2767 -2.1051
  436DG      H810013   4.938   3.207   4.952 -1.0198 -0.5679  0.9117
  436DG      O910014   4.501   3.377   4.469  0.1203 -0.5760  0.3251
  436DG     O1010015   4.812   3.309   4.802 -0.6577 -0.6318  0.1779
  436DG     C1110016   4.393   3.364   4.564 -0.6230 -0.2636 -0.0981
  436DG     C1210017   4.714   3.304   4.907  0.8463 -0.2338 -0.3042
  436DG     H1310018   4.384   3.256   4.581 -0.1670  3.5746  0.5899
  436DG     H1410019   4.299   3.402   4.523  1.5002  0.2928  2.3388
  436DG     H1510020   4.750   3.330   5.008 -1.1258 -1.5674 -1.2741
  436DG     H1610021   4.676   3.202   4.922  0.6113  0.1651 -2.3393
  436DG     C1710022   4.431   3.426   4.697 -0.0089  0.0159 -0.0347
  436DG     C1810023   4.592   3.401   4.877  0.5206  0.5301 -0.4047
  436DG     O1910024   4.535   3.350   4.750 -0.5306  0.8836 -0.1108
  436DG     H2010025   4.353   3.418   4.771  0.2409 -1.6711  2.8059
  436DG     H2110026   4.450   3.531   4.702  0.4378 -1.6100  0.9787
  436DG     H2210027   4.517   3.384   4.956 -0.8783 -1.7557  0.7056
  436DG     H2310028   4.621   3.509   4.883 -2.2881  1.4364  0.6695
  437DG      C110029   2.835   1.822   3.696  0.0448  0.7234 -0.0578
  437DG      C210030   3.527   2.329   3.609 -0.8365  0.1128 -0.1312
  437DG      H310031   2.775   1.729   3.681 -0.8647 -1.5642 -0.6517
  437DG      H410032   2.775   1.908   3.700  0.8033  3.9251  0.5598
  437DG      H510033   2.884   1.800   3.787 -0.9457  0.9563 -0.5453
  437DG      H610034   3.616   2.294   3.668  0.9504  2.8770  0.4114
  437DG      H710035   3.562   2.405   3.538  0.1164 -2.0061  1.4862
  437DG      H810036   3.458   2.385   3.676  0.5359 -0.9988  0.8283
  437DG      O910037   2.939   1.850   3.596  0.3021 -0.1640 -0.0523
  437DG     O1010038   3.461   2.223   3.544 -0.7486  0.2016  0.2874
  437DG     C1110039   3.017   1.969   3.627 -0.3317 -0.6828 -0.0250
  437DG     C1210040   3.364   2.262   3.448  0.7050  0.5261  0.2145
  437DG     H1310041   3.064   1.960   3.725 -0.1450 -0.8277  1.0076
  437DG     H1410042   2.963   2.065   3.628 -1.8795 -0.4928  3.2520
  437DG     H1510043   3.428   2.290   3.366 -0.6001  0.1557  1.0155
  437DG     H1610044   3.314   2.356   3.472 -2.0203  0.2327 -0.8887
  437DG     C1710045   3.110   1.989   3.515 -0.0174 -0.0225  0.0008
  437DG     C1810046   3.272   2.142   3.430  0.5487  0.3239 -0.1826
  437DG     O1910047   3.180   2.108   3.538 -0.1339  0.5539  0.2007
  437DG     H2010048   3.057   2.001   3.423  0.9106 -1.2355 -0.1565
  437DG     H2110049   3.182   1.908   3.496  1.4814  1.7212 -0.6695
  437DG     H2210050   3.223   2.136   3.337  1.5879 -1.0488 -0.0078
  437DG     H2310051   3.354   2.062   3.422  3.0967 -1.8323 -2.0737
  438DG      C110052   1.550   1.757   0.289  0.2289  0.5473  0.0246
  438DG      C210053   2.125   1.635   0.614  0.4639 -0.3537  0.1821
  438DG      H310054   1.514   1.782   0.192 -0.3650  1.3372 -1.8197
  438DG      H410055   1.547   1.836   0.370 -1.9087 -1.5410  1.5360
  438DG      H510056   1.492   1.673   0.324  2.4975 -1.9306  2.1260
  438DG      H610057   2.149   1.745   0.616 -3.5103  1.1426  0.2862
  438DG      H710058   2.057   1.618   0.693 -1.2178  0.6491 -2.4982
  438DG      H810059   2.216   1.578   0.624  2.0315 -0.9948 -2.6078
  438DG      O910060   1.683   1.708   0.266  0.0538 -0.0991  0.0486
  438DG     O1010061   2.054   1.616   0.489 -0.3911 -0.5768 -0.2525
  438DG     C1110062   1.675   1.580   0.191 -0.4105  0.3905 -0.4254
  438DG     C1210063   2.024   1.480   0.480 -0.0863 -0.1418 -0.2936
  438DG     H1310064   1.626   1.583   0.090 -2.2851  3.2423 -1.5204
  438DG     H1410065   1.606   1.517   0.244 -1.7859 -0.0116 -1.5876
  438DG     H1510066   1.949   1.464   0.565 -2.0862 -0.7272 -0.5174
  438DG     H1610067   2.109   1.411   0.498  2.6359 -0.6999 -0.5939
  438DG     C1710068   1.814   1.522   0.188 -0.2343 -0.3358 -0.3746
  438DG     C1810069   1.977   1.453   0.342  0.4545 -0.2203 -0.6103
  438DG     O1910070   1.856   1.525   0.323  0.1579  0.0232 -0.1933
  438DG     H2010071   1.877   1.596   0.139 -1.7295 -1.1398 -1.8316
  438DG     H2110072   1.813   1.427   0.142  0.0616 -0.5069 -0.5062
  438DG     H2210073   2.048   1.493   0.267 -1.3978  2.1473  2.1537
  438DG     H2310074   1.951   1.348   0.332 -0.2978 -0.5884 -1.3235
  439DG      C110075   1.008   1.444   3.280 -0.8096  0.6804 -1.0981
  439DG      C210076   1.617   1.898   3.032  0.6819 -0.2825 -0.3375
  439DG      H310077   0.910   1.471   3.306  1.9052  1.3357 -2.0656
  439DG      H410078   1.026   1.358   3.347  0.2914 -1.2428  0.1449
  439DG      H510079   1.020   1.407   3.176  2.9214  0.4931 -0.2272
  439DG      H610080   1.660   1.836   2.950  0.8889  0.9998 -1.4389
  439DG      H710081   1.549   1.970   2.980  0.8405  3.0454 -2.6482
  439DG      H810082   1.695   1.945   3.094  0.9248  1.0702  0.9070
  439DG      O910083   1.095   1.549   3.311 -0.4966 -0.5093  0.1859
  439DG     O1010084   1.539   1.817   3.118 -0.4709  0.1367 -0.1026
  439DG     C1110085   1.233   1.503   3.306  0.1001  0.5729 -0.4930
  439DG     C1210086   1.473   1.911   3.212  0.4571  0.5749 -0.0474
  439DG     H1310087   1.263   1.478   3.210 -1.4470  2.6112  2.3540
  439DG     H1410088   1.248   1.416   3.361 -1.1121  3.1328  0.3540
  439DG     H1510089   1.410   1.976   3.151 -2.5690 -0.5440 -2.3111
  439DG     H1610090   1.539   1.972   3.262  1.8622 -2.8432  0.5665
  439DG     C1710091   1.329   1.603   3.365  0.6998  0.4736  0.1184
  439DG     C1810092   1.400   1.830   3.324  0.4844 -0.5127 -0.3083
  439DG     O1910093   1.315   1.717   3.279  0.6907  0.4084  0.2282
  439DG     H2010094   1.431   1.560   3.373  0.1168 -1.8357 -1.3965
  439DG     H2110095   1.281   1.615   3.466 -1.2336  0.5858 -3.1632
  439DG     H2210096   1.470   1.805   3.399 -2.5654 -1.6993 -0.3844
  439DG     H2310097   1.331   1.896   3.380 -3.1259  0.0153 -0.2854
  440DG      C110098   3.937   0.870   0.536 -0.4880 -0.1002  0.2910
  440DG      C210099   4.256   1.229   0.083 -0.1347 -1.0780  0.5062
  440DG      H310100   4.037   0.828   0.528  0.7366  1.6705  1.1138
  440DG      H410101   3.864   0.802   0.570  1.5214  0.5259 -1.7022
  440DG      H510102   3.935   0.954   0.603 -0.3117  1.6149  1.1523
  440DG      H610103   4.220   1.325   0.038  2.5735  4.7148 -0.6413
  440DG      H710104   4.316   1.252   0.170  0.0627 -0.5601  0.0124
  440DG      H810105   4.323   1.184   0.008  1.3498 -1.2400 -1.8850
  440DG      O910106   3.920   0.911   0.402 -0.3963 -0.1206 -0.6671
  440DG     O1010107   4.149   1.143   0.124  0.2766  0.0335  0.3497
  440DG     C1110108   3.877   0.803   0.320  0.1842  0.1867 -0.6162
  440DG     C1210109   4.066   1.125   0.013  0.2093  0.2697 -0.2739
  440DG     H1310110   3.801   0.743   0.373  1.8484  0.2385  1.0172
  440DG     H1410111   3.964   0.736   0.313 -0.2587  0.1408 -2.1643
  440DG     H1510112   4.122   1.074  -0.065  1.4573  0.9522 -3.5573
  440DG     H1610113   4.047   1.223  -0.029  2.0547  0.2293  1.1281
  440DG     C1710114   3.839   0.878   0.193  0.1560 -0.0017 -0.1240
  440DG     C1810115   3.940   1.049   0.052 -0.0097 -0.2047 -0.0600
  440DG     O1910116   3.961   0.948   0.150  0.0244  0.1948  0.0842
  440DG     H2010117   3.752   0.945   0.191 -1.2812 -2.7331 -1.0124
  440DG     H2110118   3.815   0.806   0.113 -0.2917 -0.7683 -3.2474
  440DG     H2210119   3.863   1.110   0.095  0.5947  0.2873 -0.3986
  440DG     H2310120   3.893   0.999  -0.035  1.2996 -0.8115 -2.1190
  441DG      C110121   5.455   4.151   4.974 -0.2280  0.0709  0.2763
  441DG      C210122   5.927   4.040   4.700  0.6091  0.5224  0.4319
  441DG      H310123   5.470   4.058   5.021  0.2436 -1.2767 -1.6876
  441DG      H410124   5.357   4.179   5.012 -1.0865  0.4813  2.5975
  441DG      H510125   5.532   4.217   5.019 -0.9548 -2.1776 -0.1385
  441DG      H610126   5.890   3.946   4.744 -0.4177  1.4374  0.9238
  441DG      H710127   6.015   4.027   4.636 -3.0076  1.6424  1.4287
  441DG      H810128   5.944   4.106   4.783  0.9978  1.5765  0.8314
  441DG      O910129   5.471   4.138   4.828  0.6675 -0.5432 -0.6135
  441DG     O1010130   5.804   4.081   4.639 -0.5400  0.0522  0.2017
  441DG     C1110131   5.405   4.020   4.779  0.2742 -0.7107 -0.8115
  441DG     C1210132   5.781   4.002   4.521  0.2662  0.6901 -0.7834
  441DG     H1310133   5.299   4.050   4.790  2.5868  1.7919 -3.2603
  441DG     H1410134   5.432   3.935   4.835 -1.5395  2.1814 -0.5483
  441DG     H1510135   5.813   3.898   4.535 -2.7518 -0.8157 -1.8703
  441DG     H1610136   5.842   4.038   4.441 -4.2119 -1.8917  1.0013
  441DG     C1710137   5.436   3.994   4.631 -0.0731  0.1443 -0.0245
  441DG     C1810138   5.632   3.991   4.496  0.3296  0.4000 -0.3252
  441DG     O1910139   5.578   4.000   4.623  0.2999  0.1430 -0.8562
  441DG     H2010140   5.381   4.063   4.572  4.2644 -1.1900  4.0778
  441DG     H2110141   5.403   3.892   4.599 -1.9634  1.4954 -0.1134
  441DG     H2210142   5.608   4.083   4.441  0.3887 -1.8656  3.3514
  441DG     H2310143   5.601   3.910   4.428 -0.6606  1.8704  1.4756
  442DG      C110144   0.648   3.342   4.930 -0.0780  0.2369 -0.0262
  442DG      C210145   0.048   3.342   5.335  0.1157  0.4473 -0.9365
  442DG      H310146   0.715   3.275   4.880 -2.3878  1.9516 -2.5277
  442DG      H410147   0.718   3.394   4.993  1.2341  0.6504 -1.8326
  442DG      H510148   0.609   3.400   4.849 -1.7037 -0.6821  1.3123
  442DG      H610149  -0.051   3.304   5.342  1.0193 -1.4701  2.1065
  442DG      H710150   0.087   3.356   5.434 -3.6349  0.6270  0.3167
  442DG      H810151   0.030   3.443   5.300 -0.0944 -0.8639  1.5961
  442DG      O910152   0.552   3.258   4.991  0.5855  0.1948  0.4046
  442DG     O1010153   0.135   3.251   5.272  0.4276  0.2754 -0.3752
  442DG     C1110154   0.485   3.178   4.890  0.7038 -0.2724  0.2389
  442DG     C1210155   0.090   3.196   5.150  0.4473  0.1690 -0.8248
  442DG     H1310156   0.552   3.129   4.814  2.4596 -0.1186 -0.9671
  442DG     H1410157   0.418   3.248   4.846  0.1435 -0.2753  0.8630
  442DG     H1510158   0.069   3.281   5.093 -1.0756  0.3192  3.0006
  442DG     H1610159  -0.007   3.141   5.178 -0.1730  0.0641  2.3417
  442DG     C1710160   0.388   3.084   4.954 -0.7420 -0.3611 -0.0208
  442DG     C1810161   0.189   3.094   5.096  0.2745  0.0321  0.7598
  442DG     O1910162   0.299   3.161   5.034 -0.3683  0.2689  0.2795
  442DG     H2010163   0.426   3.001   5.011 -0.5923  1.2323  1.5522
  442DG     H2110164   0.332   3.049   4.868  0.9264  0.8661  0.2895
  442DG     H2210165   0.214   3.015   5.166  1.0408 -1.2332  2.0265
  442DG     H2310166   0.139   3.045   5.011  1.2027  0.8836  1.3844
  443DG      C110167   2.725   4.246   3.135  0.2984  0.3220  0.7607
  443DG      C210168   3.446   4.327   3.565 -0.1735 -0.2933 -0.2087
  443DG      H310169   2.748   4.141   3.110  0.8272  1.7748 -2.0024
  443DG      H410170   2.658   4.274   3.059  1.2569  1.4905 -0.9733
  443DG      H510171   2.675   4.248   3.231  0.2104  1.6429 -0.9973
  443DG      H610172   3.461   4.230   3.530  0.1827 -0.0810  0.0194
  443DG      H710173   3.536   4.384   3.548 -1.5984 -1.2925 -0.0263
  443DG      H810174   3.426   4.317   3.674  2.5472 -1.3670 -0.9506
  443DG      O910175   2.832   4.332   3.134 -0.3622  0.5097 -0.2456
  443DG     O1010176   3.344   4.379   3.489 -0.9500 -0.1056  0.5651
  443DG     C1110177   2.940   4.287   3.208  0.1050 -0.0503 -0.2255
  443DG     C1210178   3.378   4.364   3.356 -0.8124 -0.1856  0.6138
  443DG     H1310179   2.982   4.204   3.156 -1.7931 -2.2337  3.7867
  443DG     H1410180   2.896   4.255   3.307 -0.8892 -1.2253  1.4298
  443DG     H1510181   3.374   4.262   3.330  0.9322  1.4949  0.9068
  443DG     H1610182   3.481   4.400   3.326  1.1676  4.2101 -1.1882
  443DG     C1710183   3.043   4.406   3.214  0.0346 -1.1697  0.3115
  443DG     C1810184   3.277   4.427   3.258 -0.0700 -0.5150  0.3027
  443DG     O1910185   3.157   4.353   3.267 -0.2935  0.0118  0.1835
  443DG     H2010186   3.005   4.485   3.279  2.3148 -1.0948 -0.2527
  443DG     H2110187   3.066   4.440   3.114 -1.5333  0.1610  0.4303
  443DG     H2210188   3.252   4.532   3.291 -0.4992 -0.3313  1.2497
  443DG     H2310189   3.319   4.440   3.160 -3.3218 -0.1701 -2.3029
  444DG      C110190   2.955   2.558   3.929  0.4346 -0.2325 -0.7014
  444DG      C210191   3.315   2.117   3.854  0.1489 -0.7209  0.6400
  444DG      H310192   3.064   2.561   3.934  2.3534 -0.4412  1.4392
  444DG      H410193   2.918   2.650   3.978  0.2728  1.1116  1.0981
  444DG      H510194   2.925   2.569   3.820 -1.0268 -1.5846 -2.9878
  444DG      H610195   3.216   2.087   3.814 -1.9082  1.3997  2.8515
  444DG      H710196   3.372   2.146   3.767 -2.9565 -0.7678  0.0630
  444DG      H810197   3.364   2.022   3.885  0.0973 -0.9181 -1.8635
  444DG      O910198   2.899   2.441   3.973 -0.4641 -0.3951  0.0885
  444DG     O1010199   3.301   2.212   3.958  0.2028  0.0388  0.2932
  444DG     C1110200   2.886   2.433   4.116 -0.3174  0.0305  0.2825
  444DG     C1210201   3.259   2.149   4.083 -0.2956 -0.3049  0.0254
  444DG     H1310202   2.832   2.347   4.135  5.2458  0.4693 -0.1705
  444DG     H1410203   2.834   2.517   4.170 -0.5358 -1.7684  0.0227
  444DG     H1510204   3.347   2.102   4.139  0.9037 -2.0889  0.2272
  444DG     H1610205   3.180   2.077   4.077  0.5940  1.6225 -2.4819
  444DG     C1710206   3.023   2.396   4.185 -0.8118 -1.2169 -0.0411
  444DG     C1810207   3.211   2.254   4.169 -0.0828  0.5489 -0.0503
  444DG     O1910208   3.088   2.301   4.110 -0.4330 -0.3855  0.5053
  444DG     H2010209   3.012   2.368   4.288  1.9665  0.1175  0.1887
  444DG     H2110210   3.081   2.488   4.198 -1.0233 -0.7352 -0.0243
  444DG     H2210211   3.206   2.227   4.274  0.3874  0.1702  0.9305
  444DG     H2310212   3.277   2.346   4.160  1.1799 -1.6087  2.2603
  445DG      C110213   4.206   4.964   0.255 -0.0888 -0.1598  0.4387
  445DG      C210214   4.881   4.806   0.338  0.4783  0.6166 -0.4216
  445DG      H310215   4.253   5.062   0.238 -1.2673 -2.0485 -2.2314
  445DG      H410216   4.114   4.965   0.305 -0.3492  0.3820  2.0366
  445DG      H510217   4.197   4.919   0.156  4.7382 -0.4541 -1.0015
  445DG      H610218   4.913   4.802   0.229  0.4710  0.9830  1.0960
  445DG      H710219   4.879   4.904   0.368  0.0202  0.3469  1.2615
  445DG      H810220   4.965   4.751   0.388 -2.0323 -0.2256 -1.3351
  445DG      O910221   4.287   4.888   0.332 -0.4608 -0.2783  0.1689
  445DG     O1010222   4.761   4.747   0.361  0.5555  0.4468  0.2361
  445DG     C1110223   4.259   4.747   0.343 -0.5455  0.0283  0.7080
  445DG     C1210224   4.713   4.769   0.499  0.1265 -0.3523  0.5384
  445DG     H1310225   4.282   4.704   0.244 -0.1501  3.0753  0.7583
  445DG     H1410226   4.165   4.728   0.361  1.2765 -0.3412  0.3195
  445DG     H1510227   4.716   4.875   0.520  2.4771  0.5346  0.6535
  445DG     H1610228   4.794   4.728   0.560  2.0443 -0.1652 -3.8209
  445DG     C1710229   4.351   4.679   0.448 -0.1072 -0.2301 -1.0354
  445DG     C1810230   4.577   4.697   0.519  0.4543 -0.4910 -0.0838
  445DG     O1910231   4.480   4.735   0.426  0.1716 -0.3284 -0.0289
  445DG     H2010232   4.348   4.574   0.442 -2.6053  1.4993 -0.3090
  445DG     H2110233   4.317   4.711   0.555  0.1656  2.8380  3.9974
  445DG     H2210234   4.585   4.587   0.518  0.5886  1.6453  1.4639
  445DG     H2310235   4.552   4.727   0.621  2.1222  1.9626 -0.5691
  446DG      C110236   4.883   1.850   4.040  0.0695  0.3170  0.2580
  446DG      C210237   4.893   1.859   4.818  0.3150  0.4623  0.8091
  446DG      H310238   4.938   1.773   3.994  0.3903  0.7609  0.2350
  446DG      H410239   4.961   1.906   4.076 -1.3564 -0.2280 -1.3390
  446DG      H510240   4.822   1.903   3.963  0.4638  2.8837 -0.2827
  446DG      H610241   4.999   1.843   4.784  0.6001 -0.2153 -1.8290
  446DG      H710242   4.887   1.957   4.863  2.4170  0.9322 -0.0028
  446DG      H810243   4.859   1.800   4.903  0.7757 -1.1848  0.0016
  446DG      O910244   4.810   1.798   4.148 -0.3410 -0.4210 -0.7494
  446DG     O1010245   4.787   1.852   4.715  0.1531  0.0263  0.0755
  446DG     C1110246   4.726   1.888   4.225  0.5055  0.0787 -0.1825
  446DG     C1210247   4.789   1.719   4.658 -0.0758 -0.8705 -0.5734
  446DG     H1310248   4.657   1.948   4.157  2.3116 -1.3562 -0.3560
  446DG     H1410249   4.796   1.958   4.269 -2.7138  0.1352  2.6991
  446DG     H1510250   4.752   1.646   4.731  0.6392 -0.1268 -1.4499
  446DG     H1610251   4.893   1.685   4.645 -0.6402  2.8831  1.6804
  446DG     C1710252   4.654   1.801   4.330 -0.2109 -0.2096 -0.2076
  446DG     C1810253   4.687   1.713   4.542  0.5538  0.3279  0.1875
  446DG     O1910254   4.749   1.786   4.436 -0.2791  0.3851 -0.1861
  446DG     H2010255   4.629   1.705   4.288 -0.3120 -2.3590 -1.2189
  446DG     H2110256   4.571   1.854   4.376  0.0639 -0.5643 -2.3515
  446DG     H2210257   4.660   1.607   4.525 -1.5070 -2.2440  1.6458
  446DG     H2310258   4.600   1.760   4.580  1.9343 -2.8692 -0.0019
  447DG      C110259   4.979   4.479   3.477 -0.0908  0.4566 -0.2099
  447DG      C210260   4.770   4.061   3.159 -0.1358 -0.2250 -0.4285
  447DG      H310261   4.999   4.382   3.438  3.5890 -2.8322 -0.3169
  447DG      H410262   4.873   4.499   3.448  1.1260  2.1765 -1.4232
  447DG      H510263   4.999   4.473   3.577  1.0573 -1.7436 -2.2082
  447DG      H610264   4.800   3.968   3.119 -0.3282 -0.5522 -0.0002
  447DG      H710265   4.761   4.045   3.264  1.6451 -0.9370 -1.6911
  447DG      H810266   4.677   4.089   3.125  1.8269 -0.3502 -1.7591
  447DG      O910267   5.060   4.570   3.416  0.1993 -0.5501 -0.2376
  447DG     O1010268   4.864   4.164   3.126  0.1586  0.2047  0.1116
  447DG     C1110269   5.033   4.594   3.280 -0.1115 -0.8822 -0.3868
  447DG     C1210270   4.989   4.137   3.171  0.2695 -0.0667  0.1692
  447DG     H1310271   5.083   4.689   3.270  0.4601 -1.8191  1.4242
  447DG     H1410272   4.927   4.616   3.263 -1.5555 -0.7044 -1.2971
  447DG     H1510273   5.033   4.045   3.131  1.1549 -0.2474  1.4669
  447DG     H1610274   4.991   4.120   3.278 -1.6700 -1.4938 -0.6386
  447DG     C1710275   5.093   4.492   3.185 -0.1679  0.9355  0.3605
  447DG     C1810276   5.079   4.252   3.130 -0.1915 -0.0316  0.0801
  447DG     O1910277   5.020   4.369   3.194 -0.0312 -0.0746  0.2650
  447DG     H2010278   5.203   4.471   3.208  2.2210 -3.3519  1.7248
  447DG     H2110279   5.089   4.528   3.080  1.8720 -0.3509 -0.1415
  447DG     H2210280   5.187   4.232   3.159  1.8103  0.2760 -1.6761
  447DG     H2310281   5.068   4.274   3.022  1.0568  1.2778 -0.4366
  448DG      C110282   2.602   3.438   4.718  0.3411  0.0771 -0.4263
  448DG      C210283   2.273   3.915   5.117 -0.6511 -0.0884  0.5369
  448DG      H310284   2.629   3.378   4.809 -0.1168  1.7961  1.9405
  448DG      H410285   2.680   3.517   4.707 -1.3137 -0.3676  2.4676
  448DG      H510286   2.604   3.371   4.628  0.6740 -0.0200 -2.3227
  448DG      H610287   2.312   3.841   5.189  1.3785 -2.1651  0.1470
  448DG      H710288   2.345   3.994   5.116 -3.6690  1.0132 -0.1002
  448DG      H810289   2.169   3.939   5.151 -1.5365 -1.6774 -0.6396
  448DG      O910290   2.477   3.508   4.735 -0.5124 -0.1562 -0.5423
  448DG     O1010291   2.274   3.867   4.983  0.0078  0.5700  0.2517
  448DG     C1110292   2.443   3.578   4.621 -0.3962  0.0037  0.0016
  448DG     C1210293   2.162   3.780   4.956 -0.3748 -0.6458  0.3460
  448DG     H1310294   2.432   3.500   4.545  0.3189  0.1444 -2.0393
  448DG     H1410295   2.527   3.652   4.598 -0.7307 -1.7498  2.7651
  448DG     H1510296   2.073   3.836   4.971  1.3015  0.4117  2.4099
  448DG     H1610297   2.167   3.704   5.026  0.2873 -1.2610 -1.3544
  448DG     C1710298   2.303   3.642   4.642 -0.7004 -0.4771  0.2743
  448DG     C1810299   2.163   3.736   4.807 -0.2709  0.4282  0.4978
  448DG     O1910300   2.296   3.696   4.773 -0.0813 -0.2276  0.2323
  448DG     H2010301   2.220   3.578   4.627 -3.0792 -0.7931  0.2494
  448DG     H2110302   2.292   3.732   4.577  1.5509  1.4317 -0.4531
  448DG     H2210303   2.097   3.649   4.787  1.3983  0.4774 -0.5512
  448DG     H2310304   2.121   3.816   4.736 -2.7577  0.0421 -1.2303
  449DG      C110305   3.132   0.459   3.359 -0.3364 -0.0709 -0.6602
  449DG      C210306   2.842  -0.050   3.725 -0.0509 -0.3955  0.4043
  449DG      H310307   3.166   0.356   3.349  0.0866  0.6038 -1.8764
  449DG      H410308   3.067   0.457   3.448  0.9661 -2.7995 -2.1133
  449DG      H510309   3.226   0.516   3.377 -0.8059  0.5155 -0.8995
  449DG      H610310   2.795  -0.153   3.744  0.1424 -1.4522 -1.2519
  449DG      H710311   2.945  -0.048   3.761 -3.5833 -1.7769 -0.0841
  449DG      H810312   2.786   0.021   3.788 -2.0144  0.1902  0.8421
  449DG      O910313   3.070   0.481   3.235 -0.3405 -0.5073 -0.1024
  449DG     O1010314   2.825  -0.020   3.590  0.1243  0.2375  0.0851
  449DG     C1110315   2.936   0.443   3.226  0.2319 -0.2804 -0.4295
  449DG     C1210316   2.896   0.101   3.552 -0.2436  0.8131  0.0665
  449DG     H1310317   2.895   0.479   3.130 -0.6434  0.6717 -1.5181
  449DG     H1410318   2.884   0.493   3.305 -0.1147 -0.8904 -2.7117
  449DG     H1510319   3.002   0.091   3.566  0.9173  0.7552  2.7830
  449DG     H1610320   2.863   0.181   3.620  0.4701 -0.0743  0.9360
  449DG     C1710321   2.917   0.290   3.229 -1.0653  0.2848  0.2005
  449DG     C1810322   2.865   0.130   3.407  0.2112 -0.6754  0.0244
  449DG     O1910323   2.941   0.237   3.362 -0.5152 -0.4548 -0.9651
  449DG     H2010324   2.981   0.227   3.162 -0.4782 -0.7750  4.9379
  449DG     H2110325   2.821   0.261   3.195 -1.1998  0.4625 -1.6083
  449DG     H2210326   2.890   0.037   3.363  1.6611  0.9880  0.5128
  449DG     H2310327   2.757   0.144   3.407  1.3575  1.5983  0.9861
  450DG      C110328   3.963   5.026   1.256 -0.5059  0.2437 -0.3895
  450DG      C210329   3.433   5.090   1.641 -0.0407 -0.2099  0.0933
  450DG      H310330   3.944   5.018   1.154  0.0608  0.6888 -0.5492
  450DG      H410331   3.925   4.932   1.300  0.4728 -1.2212 -2.2362
  450DG      H510332   4.071   5.029   1.282  1.5354 -3.1725 -0.5155
  450DG      H610333   3.351   5.065   1.571  0.8103  1.2227  2.6633
  450DG      H710334   3.529   5.062   1.598  0.7536  1.8085 -0.6185
  450DG      H810335   3.420   5.045   1.741 -2.3717  1.6361  1.3487
  450DG      O910336   3.885   5.126   1.326  0.2238  0.2345 -0.1216
  450DG     O1010337   3.437   5.229   1.667  0.3977 -0.8265 -0.5232
  450DG     C1110338   3.908   5.141   1.463  0.0949 -0.4081 -0.4450
  450DG     C1210339   3.454   5.297   1.551 -0.0533  0.1973  0.3489
  450DG     H1310340   4.012   5.167   1.481  3.4330 -1.4636 -4.0894
  450DG     H1410341   3.869   5.059   1.512  0.9402  1.4200 -0.7395
  450DG     H1510342   3.403   5.398   1.566 -1.5495  0.7832  1.3414
  450DG     H1610343   3.422   5.250   1.459  0.0650 -3.7570  1.6741
  450DG     C1710344   3.829   5.258   1.519  0.0518  0.5550  0.3844
  450DG     C1810345   3.605   5.335   1.542 -0.6042 -0.0647  0.1040
  450DG     O1910346   3.691   5.222   1.521  0.0676 -0.3398 -0.3172
  450DG     H2010347   3.852   5.340   1.452  0.1473  0.1829  1.1259
  450DG     H2110348   3.869   5.273   1.621  0.3146  3.5420 -0.9525
  450DG     H2210349   3.609   5.415   1.467 -1.2441 -0.5649  3.2677
  450DG     H2310350   3.632   5.379   1.634 -0.6650  0.7099  1.0460
  451DG      C110351   1.415   0.543   1.224  0.0101  0.9037 -0.1105
  451DG      C210352   0.944   0.919   1.515 -0.5016  0.1386 -1.2414
  451DG      H310353   1.368   0.461   1.283 -0.0209  2.5760 -1.8608
  451DG      H410354   1.496   0.586   1.283  0.3165  2.3119  1.8963
  451DG      H510355   1.457   0.499   1.140  1.8394  2.0431  1.0566
  451DG      H610356   0.957   1.006   1.564  1.1702 -0.3800 -2.2670
  451DG      H710357   0.834   0.900   1.502 -2.4618 -2.0231 -0.0314
  451DG      H810358   0.974   0.829   1.574 -1.0210 -1.0619 -0.3762
  451DG      O910359   1.309   0.627   1.183  0.5565  0.0520 -0.0327
  451DG     O1010360   1.014   0.923   1.396  0.2820  0.5180  0.9088
  451DG     C1110361   1.358   0.739   1.109 -0.0013  0.2760  0.3254
  451DG     C1210362   1.153   0.920   1.412 -0.1928  0.6537 -0.1482
  451DG     H1310363   1.413   0.701   1.023  0.5595  1.3399  0.9520
  451DG     H1410364   1.441   0.785   1.162  2.8439  0.3522 -1.7285
  451DG     H1510365   1.187   0.818   1.436 -1.4244 -0.4434  3.7957
  451DG     H1610366   1.191   0.982   1.489  1.6121 -1.1106  1.9738
  451DG     C1710367   1.248   0.829   1.073 -0.0044  0.0562 -0.0303
  451DG     C1810368   1.217   0.961   1.275 -0.4243 -0.5775 -0.6518
  451DG     O1910369   1.171   0.870   1.187 -0.3190  0.0344  0.3576
  451DG     H2010370   1.186   0.772   1.008 -0.4277 -2.2537  1.3895
  451DG     H2110371   1.286   0.921   1.022  0.4096 -0.2894  3.0962
  451DG     H2210372   1.182   1.059   1.240  0.7309  0.7163 -1.3115
  451DG     H2310373   1.327   0.963   1.290  1.5741  2.7677  2.2186
  452DG      C110374   4.297   0.956   0.570  0.7344  0.1376 -0.2763
  452DG      C210375   3.751   1.187   0.395  0.2439  0.4463  0.2671
  452DG      H310376   4.384   0.987   0.618 -1.4918 -1.0962 -1.8190
  452DG      H410377   4.321   0.887   0.488 -0.6372 -0.3473  1.0213
  452DG      H510378   4.245   0.900   0.647  1.5218 -1.0015 -0.7462
  452DG      H610379   3.697   1.246   0.326  1.9866  0.7539  0.3148
  452DG      H710380   3.727   1.089   0.354 -0.1660  0.6627  0.7095
  452DG      H810381   3.725   1.200   0.496  1.7200 -0.2026 -1.1064
  452DG      O910382   4.212   1.069   0.538 -0.1539 -0.4629  0.3527
  452DG     O1010383   3.878   1.218   0.381  0.0097 -0.7597 -0.3899
  452DG     C1110384   4.234   1.184   0.623 -0.4068 -0.1887 -0.3995
  452DG     C1210385   3.901   1.358   0.423  0.3344 -0.7912 -0.4786
  452DG     H1310386   4.322   1.237   0.610 -2.7644  0.7168 -0.9652
  452DG     H1410387   4.218   1.158   0.729 -2.5374  0.1118  1.0424
  452DG     H1510388   3.877   1.367   0.529  3.5759 -3.1275 -1.4447
  452DG     H1610389   3.825   1.427   0.378 -1.3123 -0.3790 -1.5323
  452DG     C1710390   4.131   1.293   0.590  0.5299 -0.3932 -0.1369
  452DG     C1810391   4.046   1.404   0.401  0.3809  0.3209 -0.3294
  452DG     O1910392   4.131   1.297   0.443  0.2218  0.0328 -0.0775
  452DG     H2010393   4.152   1.384   0.649  0.1664  2.5063 -0.3572
  452DG     H2110394   4.037   1.252   0.617 -0.5605  0.8357  1.8534
  452DG     H2210395   4.065   1.419   0.294  2.0265  2.8343  0.2906
  452DG     H2310396   4.081   1.488   0.463  1.7768  3.3192 -2.0164
  453DG      C110397   3.905   2.201   3.422  0.6275  0.0776 -0.5279
  453DG      C210398   3.833   1.394   3.588 -0.1807  0.1372 -0.1456
  453DG      H310399   3.973   2.189   3.338 -3.6860  0.4092  0.0154
  453DG      H410400   3.952   2.244   3.512 -2.2351  2.3604 -2.6215
  453DG      H510401   3.837   2.280   3.402  0.5106  3.6126  0.2417
  453DG      H610402   3.836   1.306   3.523 -2.7472  0.3260 -1.7582
  453DG      H710403   3.875   1.363   3.682 -0.8355 -1.0989 -0.8773
  453DG      H810404   3.728   1.414   3.613 -0.3851 -0.2038  0.4361
  453DG      O910405   3.846   2.082   3.470 -0.1860 -0.2241 -0.0492
  453DG     O1010406   3.896   1.518   3.544  0.2543 -0.4340  0.2764
  453DG     C1110407   3.798   1.994   3.367  0.7399  1.0214 -0.6329
  453DG     C1210408   3.857   1.556   3.413  0.2859  0.0217 -0.4141
  453DG     H1310409   3.870   1.969   3.293  0.3423 -0.3924 -1.8609
  453DG     H1410410   3.726   2.044   3.312  3.1374  0.5776  2.4820
  453DG     H1510411   3.752   1.523   3.397 -0.1656  0.8698  1.8560
  453DG     H1610412   3.906   1.488   3.351 -0.5239 -1.3898  0.7249
  453DG     C1710413   3.729   1.873   3.435  0.4372  0.5312 -0.2043
  453DG     C1810414   3.882   1.703   3.383 -1.0915 -0.2494  0.3806
  453DG     O1910415   3.825   1.784   3.486  0.7272  0.3310  0.1370
  453DG     H2010416   3.664   1.821   3.373  1.4230  0.7585  2.0520
  453DG     H2110417   3.662   1.913   3.519  1.2099  0.4912  1.0484
  453DG     H2210418   3.992   1.716   3.379  0.4337 -0.4588  1.4366
  453DG     H2310419   3.838   1.722   3.287 -1.1356 -1.2321 -1.7972
  454DG      C110420   3.172   3.539   4.066  0.1062 -0.7224 -0.0082
  454DG      C210421   3.080   3.985   3.326  0.0233 -0.3823  0.3343
  454DG      H310422   3.114   3.500   4.152 -0.2081  0.3876 -0.8105
  454DG      H410423   3.225   3.643   4.085 -0.3885  3.4079  0.6057
  454DG      H510424   3.245   3.472   4.030  0.9160 -0.4520  1.4352
  454DG      H610425   3.158   4.053   3.320  0.3866 -1.3793 -0.0214
  454DG      H710426   3.111   3.892   3.278  1.1894  0.0462 -0.8418
  454DG      H810427   3.001   4.017   3.261 -2.8845  0.3713  2.9549
  454DG      O910428   3.075   3.557   3.965  0.6276  0.0896 -0.2610
  454DG     O1010429   3.002   3.977   3.443 -0.0834  0.1341  0.3755
  454DG     C1110430   2.986   3.667   3.977  0.3836  0.2154 -0.2043
  454DG     C1210431   3.068   3.895   3.545 -0.6349  0.0241 -0.0224
  454DG     H1310432   3.011   3.747   4.049  0.7780  0.7706 -2.3624
  454DG     H1410433   2.904   3.629   4.033  2.1517 -0.0963 -0.9599
  454DG     H1510434   3.136   3.950   3.602 -1.0090  0.9989  1.6660
  454DG     H1610435   3.128   3.825   3.498 -0.3586  3.3172  1.2197
  454DG     C1710436   2.940   3.712   3.836 -0.4140  0.3224 -0.7560
  454DG     C1810437   2.965   3.830   3.627 -0.3279 -0.6875  0.4133
  454DG     O1910438   3.025   3.782   3.747  0.0719  0.1676  0.0340
  454DG     H2010439   2.845   3.764   3.835  0.4185  3.5712  2.1440
  454DG     H2110440   2.920   3.614   3.791 -0.2440  0.4100  0.7741
  454DG     H2210441   2.880   3.893   3.659 -2.8009 -0.1638  1.5503
  454DG     H2310442   2.921   3.757   3.559  2.9604  1.0803 -1.9506
  455DG      C110443   4.421   3.398   5.341  0.9268  0.2456  0.1456
  455DG      C210444   5.223   3.549   5.284 -0.4629  0.0690 -0.9158
  455DG      H310445   4.401   3.328   5.427 -1.0832  1.3125  0.0508
  455DG      H410446   4.433   3.339   5.253 -0.9881 -0.7167  1.2011
  455DG      H510447   4.331   3.451   5.315 -0.6593 -1.6964  1.4789
  455DG      H610448   5.274   3.574   5.191 -1.1155  2.2249  2.6627
  455DG      H710449   5.262   3.606   5.370 -2.5387 -2.4443 -2.1481
  455DG      H810450   5.252   3.445   5.309  1.6494 -0.8143  0.4817
  455DG      O910451   4.537   3.477   5.354  0.1315 -0.0761  0.0250
  455DG     O1010452   5.085   3.584   5.275 -0.1833  0.1406 -0.0813
  455DG     C1110453   4.559   3.555   5.238 -0.2551 -0.7359 -0.9236
  455DG     C1210454   5.020   3.525   5.159  0.8246 -0.2823  0.4223
  455DG     H1310455   4.471   3.610   5.211 -1.1961 -0.5525 -0.5069
  455DG     H1410456   4.569   3.486   5.152 -0.2458 -0.2158 -3.0921
  455DG     H1510457   5.004   3.416   5.169 -1.8026  2.4961 -0.9885
  455DG     H1610458   5.076   3.529   5.063 -0.0341  0.2389  0.3077
  455DG     C1710459   4.683   3.644   5.252 -0.0085 -0.7020  0.1743
  455DG     C1810460   4.892   3.608   5.139  0.3660  0.1256 -0.1699
  455DG     O1910461   4.799   3.566   5.239  0.1310  0.0179  0.1644
  455DG     H2010462   4.695   3.681   5.353  1.3696 -0.7754 -0.4868
  455DG     H2110463   4.674   3.734   5.196 -1.9800 -0.2608  2.1623
  455DG     H2210464   4.918   3.724   5.149  1.1847  0.5589  1.4055
  455DG     H2310465   4.845   3.588   5.039  1.7289 -0.9761 -0.5996
  456DG      C110466   4.714   4.047   5.466  0.3714  0.2234 -0.7633
  456DG      C210467   4.580   4.708   5.592  0.1682 -0.4673  0.1890
  456DG      H310468   4.790   4.015   5.534 -0.9959  4.9251 -0.6528
  456DG      H410469   4.725   3.986   5.379 -1.8898  0.5596  0.5211
  456DG      H510470   4.621   4.014   5.506  0.7849 -2.7798  0.6830
  456DG      H610471   4.475   4.685   5.608  0.1702 -0.2110 -0.2535
  456DG      H710472   4.629   4.670   5.687  3.3353  0.9147 -1.5646
  456DG      H810473   4.589   4.816   5.575 -2.8540 -1.0178 -1.5966
  456DG      O910474   4.731   4.182   5.435 -0.5352 -0.6631  0.8144
  456DG     O1010475   4.627   4.626   5.486 -0.1436  0.0381 -0.1568
  456DG     C1110476   4.854   4.211   5.368  0.7515  0.0422  1.4506
  456DG     C1210477   4.739   4.684   5.425 -0.5493  0.4765  0.0516
  456DG     H1310478   4.886   4.147   5.281  2.4472  0.6371 -2.3325
  456DG     H1410479   4.933   4.210   5.440 -0.6863 -0.4573  0.3341
  456DG     H1510480   4.822   4.706   5.495  2.6899 -0.0300 -1.7345
  456DG     H1610481   4.714   4.782   5.380 -2.3710  0.7940 -4.7169
  456DG     C1710482   4.825   4.345   5.291 -0.1563  0.7732  0.2063
  456DG     C1810483   4.780   4.582   5.322 -0.3135  0.1065  0.4468
  456DG     O1910484   4.780   4.452   5.376  0.8000  0.1539 -0.1693
  456DG     H2010485   4.753   4.337   5.209 -0.3173  0.0196 -1.8001
  456DG     H2110486   4.929   4.367   5.257  1.7167 -2.8221 -0.2792
  456DG     H2210487   4.712   4.594   5.241  0.4693  0.6983 -0.3497
  456DG     H2310488   4.884   4.605   5.291 -1.1687  0.9801 -1.7433
  457DG      C110489   1.073   4.878   5.110  0.0452 -0.3966 -0.5338
  457DG      C210490   0.627   5.034   5.365  0.0005 -0.0294  0.0427
  457DG      H310491   1.007   4.812   5.059 -0.6209 -0.5797 -1.2741
  457DG      H410492   1.116   4.810   5.185 -0.7957  1.3058 -0.2051
  457DG      H510493   1.166   4.893   5.057 -1.7289  0.9759 -0.3629
  457DG      H610494   0.521   5.055   5.372 -1.2323  1.7631  0.3868
  457DG      H710495   0.652   4.938   5.313 -2.3540 -1.5317  1.1905
  457DG      H810496   0.671   5.017   5.461 -1.1321  2.6391  0.7497
  457DG      O910497   1.010   4.986   5.172 -0.0846  0.0787  0.3664
  457DG     O1010498   0.680   5.146   5.291  0.1080  0.3142 -0.9491
  457DG     C1110499   1.088   5.070   5.255 -0.0809  0.1191 -0.1741
  457DG     C1210500   0.716   5.264   5.361  0.8782  0.4787  0.2977
  457DG     H1310501   1.168   5.120   5.205 -1.5312  0.5220 -0.8013
  457DG     H1410502   1.134   4.995   5.327  0.9685 -1.6780  1.7562
  457DG     H1510503   0.743   5.234   5.455 -1.1156 -0.9496 -3.1155
  457DG     H1610504   0.636   5.334   5.370 -2.7363 -3.4191  0.1337
  457DG     C1710505   1.000   5.159   5.328  0.1094 -0.0268  0.1485
  457DG     C1810506   0.837   5.330   5.303  0.0074 -0.1357  0.6168
  457DG     O1910507   0.922   5.238   5.235  0.6278  0.1972 -0.5667
  457DG     H2010508   1.051   5.230   5.385  0.7726  0.7150 -0.2163
  457DG     H2110509   0.933   5.100   5.391 -1.9621  0.7379 -0.3391
  457DG     H2210510   0.800   5.397   5.224 -0.5640 -0.2673 -2.3419
  457DG     H2310511   0.884   5.394   5.377 -1.0595 -0.0303 -1.1761
  458DG      C110512   3.898   3.667   2.745  0.3418  0.0388  0.3950
  458DG      C210513   3.956   4.331   3.032  0.0245 -0.0597 -0.2335
  458DG      H310514   3.967   3.581   2.767  1.3568  0.2825 -2.3772
  458DG      H410515   3.844   3.636   2.652  0.4885 -1.9864  1.9865
  458DG      H510516   3.827   3.675   2.828  3.0412  0.3998  1.5334
  458DG      H610517   3.948   4.250   3.111  1.9453 -0.2064  1.3420
  458DG      H710518   4.002   4.425   3.067 -0.3258  2.2308  2.5572
  458DG      H810519   3.854   4.367   3.010 -1.3685  1.0206  0.8795
  458DG      O910520   3.981   3.780   2.738  0.4821  0.2742 -0.1873
  458DG     O1010521   4.005   4.270   2.911 -0.4050 -0.0816 -0.4938
  458DG     C1110522   4.082   3.797   2.839 -0.1503 -0.7748  0.6312
  458DG     C1210523   4.148   4.244   2.930 -0.7744 -0.4664  0.4704
  458DG     H1310524   4.145   3.714   2.845 -2.9803 -1.0320 -1.1785
  458DG     H1410525   4.031   3.817   2.931 -0.6052 -0.4303 -0.2017
  458DG     H1510526   4.164   4.204   3.031 -1.8362 -1.0725  3.6192
  458DG     H1610527   4.200   4.339   2.922  1.0653 -0.4239  0.2272
  458DG     C1710528   4.174   3.916   2.794 -0.7621  0.4290  0.3823
  458DG     C1810529   4.208   4.145   2.837  0.1526 -0.4799 -0.0670
  458DG     O1910530   4.145   4.022   2.882  0.3435  0.6206 -0.3490
  458DG     H2010531   4.149   3.959   2.696 -2.2461  3.2827 -0.3754
  458DG     H2110532   4.283   3.891   2.803  0.3189  0.0285 -2.4066
  458DG     H2210533   4.193   4.171   2.735  3.3008  0.3235  1.3705
  458DG     H2310534   4.314   4.126   2.857 -2.7892  0.8277 -0.8650
  459DG      C110535   2.300   2.042   0.409  0.6840  0.4060  0.0506
  459DG      C210536   2.878   2.270   0.368  0.2072 -0.0836 -0.4138
  459DG      H310537   2.247   1.951   0.374 -0.1984  0.0667 -0.5150
  459DG      H410538   2.222   2.109   0.446  0.3243  0.7966  2.4583
  459DG      H510539   2.347   1.993   0.496  0.7615 -0.2685  1.4815
  459DG      H610540   2.974   2.298   0.347 -0.7762 -1.8435 -0.3476
  459DG      H710541   2.874   2.250   0.472 -1.7470  0.9455 -0.0747
  459DG      H810542   2.864   2.181   0.311  1.2027 -1.2143 -1.1165
  459DG      O910543   2.392   2.082   0.312 -0.2913  0.3261 -0.0602
  459DG     O1010544   2.778   2.362   0.340 -0.4460  0.6203 -0.5572
  459DG     C1110545   2.340   2.147   0.202 -0.0603  0.3296 -0.0071
  459DG     C1210546   2.757   2.391   0.205 -0.6495 -0.7264  0.0525
  459DG     H1310547   2.287   2.230   0.239 -0.9318  0.8307  0.4717
  459DG     H1410548   2.270   2.087   0.139  0.5668 -0.1589 -0.4172
  459DG     H1510549   2.855   2.409   0.150  0.5349 -1.0326 -1.0723
  459DG     H1610550   2.697   2.478   0.193 -2.2993 -2.7845  1.5426
  459DG     C1710551   2.461   2.186   0.120  0.2899  0.7192  0.1273
  459DG     C1810552   2.667   2.295   0.135  0.5584  0.0197 -0.2527
  459DG     O1910553   2.542   2.278   0.192  0.4961 -0.5939  0.2441
  459DG     H2010554   2.440   2.218   0.018 -0.1642  4.6366 -1.1969
  459DG     H2110555   2.522   2.095   0.105  0.2739 -0.8886 -1.3687
  459DG     H2210556   2.651   2.324   0.031 -1.0974 -1.1317 -0.2880
  459DG     H2310557   2.712   2.193   0.121 -2.4163  1.6391 -0.5338
  460DG      C110558   4.385   1.543   4.398 -0.4043 -0.3489  0.2316
  460DG      C210559   5.042   1.431   4.675  0.3800 -0.3666  0.1199
  460DG      H310560   4.412   1.537   4.297 -1.0816 -0.8949  1.6582
  460DG      H410561   4.395   1.643   4.423 -0.3573 -0.6020 -0.9194
  460DG      H510562   4.281   1.515   4.407  2.7353 -1.2476 -1.4777
  460DG      H610563   5.107   1.344   4.666  0.9796  2.5927  0.0978
  460DG      H710564   5.061   1.494   4.592 -0.8948  0.1659  2.7089
  460DG      H810565   5.065   1.490   4.762  2.4229  1.1773 -1.4579
  460DG      O910566   4.468   1.454   4.477  0.0380 -0.0818 -0.8873
  460DG     O1010567   4.907   1.396   4.667  0.1930  0.1193 -0.2474
  460DG     C1110568   4.428   1.449   4.613 -0.1383  0.1243 -0.5374
  460DG     C1210569   4.852   1.350   4.789  0.0485  0.0861  0.2352
  460DG     H1310570   4.322   1.437   4.612 -0.1870  0.8754 -0.5886
  460DG     H1410571   4.451   1.539   4.669  0.9132 -3.5604 -2.1917
  460DG     H1510572   4.833   1.433   4.851  0.1116 -0.4668  1.1531
  460DG     H1610573   4.917   1.279   4.851 -1.5729 -0.4117  0.4154
  460DG     C1710574   4.505   1.341   4.691  0.2355 -0.4919  0.3557
  460DG     C1810575   4.713   1.283   4.766 -0.2451 -0.1496  0.0601
  460DG     O1910576   4.645   1.376   4.688 -0.1242 -0.7304  0.1571
  460DG     H2010577   4.477   1.240   4.655 -2.6872 -0.5055 -0.8588
  460DG     H2110578   4.469   1.343   4.797 -0.8190 -0.0852 -0.0808
  460DG     H2210579   4.737   1.197   4.701 -1.0244 -1.1134 -1.6502
  460DG     H2310580   4.669   1.245   4.861  0.3509 -1.9371 -2.5307
  461DG      C110581   2.287   0.005   2.940  0.3961  0.0169  0.4141
  461DG      C210582   1.621  -0.248   3.047  0.4531 -0.0399  1.3453
  461DG      H310583   2.277   0.016   3.047 -0.6132  1.1969 -1.8566
  461DG      H410584   2.297   0.105   2.908 -0.0554 -0.8553  2.0608
  461DG      H510585   2.380  -0.044   2.913  0.4342 -0.1485  0.1632
  461DG      H610586   1.554  -0.246   3.136  0.7283 -3.0997  0.5104
  461DG      H710587   1.583  -0.327   2.971 -0.8788 -0.2281 -2.9099
  461DG      H810588   1.717  -0.277   3.082 -0.2336 -2.3071 -1.8230
  461DG      O910589   2.160  -0.060   2.899 -0.0341  0.2371  0.7868
  461DG     O1010590   1.629  -0.123   2.977  0.1475 -0.4661 -0.1988
  461DG     C1110591   2.038   0.019   2.915  0.3692 -0.0843  0.6291
  461DG     C1210592   1.708  -0.031   3.049 -0.5649  0.1694 -0.4290
  461DG     H1310593   2.054   0.105   2.851  0.0148  2.2840  0.9348
  461DG     H1410594   2.017   0.073   3.015  1.9995 -0.1674  0.7427
  461DG     H1510595   1.797  -0.083   3.103  2.0917 -0.8045 -0.5949
  461DG     H1610596   1.646   0.013   3.128 -1.7762  0.1341  3.7270
  461DG     C1710597   1.922  -0.050   2.846  0.5045 -0.0247  0.4604
  461DG     C1810598   1.754   0.086   2.953  0.1629 -0.5592  0.2412
  461DG     O1910599   1.811   0.032   2.825 -0.3852  0.8164 -0.2160
  461DG     H2010600   1.887  -0.136   2.907  0.2507  1.3924  2.9220
  461DG     H2110601   1.958  -0.084   2.748  0.7004  2.2001 -1.1826
  461DG     H2210602   1.655   0.133   2.922 -0.1279  2.0687 -0.1706
  461DG     H2310603   1.812   0.161   3.011  0.9863  0.6070  0.7414
  462DG      C110604   1.768   0.835   3.770  0.0481 -0.2105  0.2870
  462DG      C210605   2.296   1.029   3.966  0.5266 -0.5216  0.3567
  462DG      H310606   1.770   0.908   3.692  1.2971  0.6820  1.7012
  462DG      H410607   1.663   0.838   3.810 -0.3436 -1.8085 -0.1837
  462DG      H510608   1.790   0.728   3.732  1.9562  0.4053  0.0112
  462DG      H610609   2.386   1.069   4.009 -0.6666 -1.9481 -0.6166
  462DG      H710610   2.297   1.032   3.854 -0.7540  1.5976  1.3617
  462DG      H810611   2.213   1.090   3.998  2.3545 -0.9731 -1.0823
  462DG      O910612   1.859   0.876   3.873 -0.2728 -0.1777  0.6005
  462DG     O1010613   2.291   0.889   3.994 -0.5826 -0.6288 -0.0823
  462DG     C1110614   1.845   0.789   3.985  0.2424  0.2275  0.3650
  462DG     C1210615   2.284   0.851   4.129  0.1464 -0.7324 -0.3096
  462DG     H1310616   1.884   0.692   3.955  2.6463 -1.1573 -0.0431
  462DG     H1410617   1.742   0.789   4.007 -0.5744  2.2467 -2.4934
  462DG     H1510618   2.350   0.917   4.184 -0.2429 -0.2781  0.6922
  462DG     H1610619   2.311   0.746   4.148  1.0027 -0.5252  1.7111
  462DG     C1710620   1.914   0.846   4.106 -0.0636  0.8833  0.1747
  462DG     C1810621   2.137   0.884   4.171 -0.2075 -0.4734 -0.9023
  462DG     O1910622   2.046   0.832   4.072  0.1713 -0.0441 -0.3547
  462DG     H2010623   1.881   0.779   4.188  0.1255  0.8240 -1.2987
  462DG     H2110624   1.879   0.949   4.129 -0.2124  1.6305 -2.4347
  462DG     H2210625   2.109   0.852   4.269 -0.4988  0.7132  1.3118
  462DG     H2310626   2.126   0.993   4.185 -0.0277  1.6169  0.9738
  463DG      C110627   4.794   0.410   4.688 -0.2336 -0.5545  0.4062
  463DG      C210628   4.935  -0.317   4.559  0.1658  0.5872  0.2006
  463DG      H310629   4.847   0.428   4.785 -1.2346  1.0587  0.3087
  463DG      H410630   4.701   0.353   4.699  0.4730  0.9481 -1.5307
  463DG      H510631   4.777   0.509   4.632 -2.2309  0.2048 -1.0841
  463DG      H610632   4.988  -0.353   4.650  0.5434 -1.1125 -0.9031
  463DG      H710633   4.830  -0.342   4.579 -0.8016  1.5788 -0.5316
  463DG      H810634   4.978  -0.358   4.465  0.3651 -0.5619 -1.4100
  463DG      O910635   4.885   0.328   4.612 -0.1362 -0.4877  0.0975
  463DG     O1010636   4.955  -0.178   4.562  0.5371  1.3127  0.4233
  463DG     C1110637   4.819   0.251   4.518 -0.6601 -0.5442 -0.3236
  463DG     C1210638   5.087  -0.137   4.524  0.6737  0.1158 -0.1064
  463DG     H1310639   4.763   0.303   4.442  0.7326  1.1726  0.8648
  463DG     H1410640   4.765   0.165   4.559 -2.3239  0.7541 -0.9010
  463DG     H1510641   5.152  -0.207   4.478 -0.1914  1.8537  0.1589
  463DG     H1610642   5.128  -0.114   4.623 -0.5973 -3.9366  0.5351
  463DG     C1710643   4.935   0.189   4.438  0.5425 -0.3335 -0.0984
  463DG     C1810644   5.065  -0.012   4.446 -0.1755  0.2844  0.6693
  463DG     O1910645   4.989   0.084   4.521  0.4815 -0.4275 -0.1277
  463DG     H2010646   5.012   0.264   4.412  2.9643  0.5956  0.1904
  463DG     H2110647   4.906   0.164   4.341  0.1207 -1.3120 -0.6225
  463DG     H2210648   5.163   0.025   4.409  0.5704 -2.2200  2.1614
  463DG     H2310649   5.008  -0.048   4.362  0.4333 -0.7253  0.3960
  464DG      C110650   0.722   0.106   4.232 -0.1773  0.5144  0.3336
  464DG      C210651   1.190   0.096   3.765 -0.4747 -0.2968 -0.2768
  464DG      H310652   0.706   0.217   4.232  0.7426 -1.7933  1.8266
  464DG      H410653   0.789   0.094   4.305  0.5561  0.4104 -1.0026
  464DG      H510654   0.631   0.068   4.277 -0.3844 -0.4905  1.2520
  464DG      H610655   1.237   0.121   3.668  1.6218  1.6172  0.3614
  464DG      H710656   1.185   0.193   3.807  1.5127 -0.0965  0.4931
  464DG      H810657   1.264   0.046   3.830 -3.1415 -0.6228  0.8094
  464DG      O910658   0.749   0.021   4.119 -0.0788  0.0837  0.0295
  464DG     O1010659   1.063   0.035   3.747 -0.1455 -0.4074  0.2175
  464DG     C1110660   0.643   0.025   4.018  0.0342  0.1876 -0.1899
  464DG     C1210661   0.966   0.110   3.680  0.8558  0.4259 -0.4620
  464DG     H1310662   0.616   0.122   4.006  1.2675 -4.3531 -0.9549
  464DG     H1410663   0.563  -0.038   4.053  0.1957 -1.1930 -2.7335
  464DG     H1510664   0.994   0.120   3.574 -2.0583 -4.3667 -2.1663
  464DG     H1610665   0.950   0.210   3.715 -0.5031 -3.3453  2.3360
  464DG     C1710666   0.689  -0.022   3.888  0.2775  0.3772  0.3139
  464DG     C1810667   0.834   0.035   3.703  0.1451 -0.4601 -0.1284
  464DG     O1910668   0.812   0.048   3.841  0.5618 -0.2842 -0.4646
  464DG     H2010669   0.607  -0.015   3.816  0.7134  1.1948  2.0347
  464DG     H2110670   0.712  -0.125   3.890  1.2975 -0.4241  1.3059
  464DG     H2210671   0.753   0.072   3.647  1.3108  1.8590 -0.4417
  464DG     H2310672   0.848  -0.079   3.679  0.9461 -1.0243 -1.1235
  465DG      C110673   2.050   5.291   4.670  0.1703  0.5113  0.4377
  465DG      C210674   2.559   4.810   4.541  0.6551  0.0655  0.0062
  465DG      H310675   2.036   5.353   4.580  1.0737 -0.1793 -0.2233
  465DG      H410676   2.137   5.332   4.719 -1.8465 -0.3239 -1.7960
  465DG      H510677   1.970   5.296   4.737  0.3044 -1.0914  0.2519
  465DG      H610678   2.558   4.712   4.584  0.6401  0.3929 -0.6801
  465DG      H710679   2.595   4.791   4.436 -1.0158 -0.6220 -0.6880
  465DG      H810680   2.628   4.874   4.592 -0.9836 -2.6443  0.3552
  465DG      O910681   2.094   5.157   4.634  0.0086 -0.8150  0.4082
  465DG     O1010682   2.425   4.862   4.545  0.3825  0.2641 -0.2492
  465DG     C1110683   1.992   5.080   4.579  0.4529 -0.5910 -0.2338
  465DG     C1210684   2.336   4.807   4.453  0.4422  0.3801  0.2735
  465DG     H1310685   1.991   5.102   4.475  0.5434 -0.5764  1.5896
  465DG     H1410686   1.894   5.108   4.604  2.6193  0.3190  1.7479
  465DG     H1510687   2.368   4.721   4.414 -2.9492  1.6110  0.3818
  465DG     H1610688   2.347   4.867   4.364 -1.3283 -1.9089 -4.3966
  465DG     C1710689   2.027   4.935   4.591 -0.4229  0.3891 -0.0891
  465DG     C1810690   2.198   4.805   4.504 -0.1345 -0.8521 -1.0058
  465DG     O1910691   2.156   4.932   4.537  0.3928  0.1954  0.2898
  465DG     H2010692   1.949   4.887   4.527 -2.3286  1.5702 -0.9039
  465DG     H2110693   2.035   4.890   4.684 -2.4569  0.0017 -0.0727
  465DG     H2210694   2.129   4.764   4.431 -0.1720  1.4856  0.5020
  465DG     H2310695   2.196   4.741   4.592  0.2792 -0.1374 -0.3154
  466DG      C110696   3.829   0.972   5.161 -0.1959 -0.6440 -0.0274
  466DG      C210697   3.179   1.137   5.452  0.1649 -0.3008  0.1962
  466DG      H310698   3.776   0.971   5.066  0.2663 -0.8628 -0.6086
  466DG      H410699   3.813   0.877   5.210 -0.3196 -0.7711 -3.0933
  466DG      H510700   3.937   1.004   5.147  1.4653  0.4760 -0.0210
  466DG      H610701   3.205   1.034   5.465  0.3876  0.8701 -0.0807
  466DG      H710702   3.136   1.186   5.545  4.4010  0.2953  0.5965
  466DG      H810703   3.096   1.152   5.377 -1.1870 -2.1596  1.3121
  466DG      O910704   3.766   1.065   5.244  0.3960 -0.4561 -0.2227
  466DG     O1010705   3.291   1.217   5.399  0.3199  0.5263  0.0636
  466DG     C1110706   3.763   1.200   5.202  0.0850 -0.2021  0.9799
  466DG     C1210707   3.384   1.247   5.505 -0.2185 -1.2373 -0.0993
  466DG     H1310708   3.697   1.211   5.118  1.8782 -2.0269  1.1801
  466DG     H1410709   3.864   1.240   5.165 -0.0716 -0.1623  0.3012
  466DG     H1510710   3.411   1.146   5.543  2.7814  1.1926 -0.9618
  466DG     H1610711   3.349   1.318   5.570  1.7143  1.1780 -0.8173
  466DG     C1710712   3.697   1.281   5.316 -0.4685  0.2209 -0.0589
  466DG     C1810713   3.496   1.330   5.443  1.5280  0.0165  0.9905
  466DG     O1910714   3.562   1.245   5.352 -0.6618  0.1357 -0.0125
  466DG     H2010715   3.694   1.381   5.276 -1.0552 -0.0260  2.3247
  466DG     H2110716   3.754   1.278   5.405 -0.3383  0.3952  2.0423
  466DG     H2210717   3.451   1.416   5.395 -3.8250 -0.9984 -3.9413
  466DG     H2310718   3.557   1.364   5.528 -2.3046  2.2312 -1.0989
  467DG      C110719   4.933   3.531   0.503 -0.1368 -0.0490 -0.4188
  467DG      C210720   4.337   3.974   0.702  0.2663  0.2259  0.2397
  467DG      H310721   4.836   3.488   0.473  1.8108 -0.3915 -2.7741
  467DG      H410722   4.982   3.446   0.556 -0.7103 -2.2741  0.1045
  467DG      H510723   4.988   3.564   0.417  1.3400  4.2217  0.2478
  467DG      H610724   4.356   4.004   0.594 -0.8494  0.3746  0.0568
  467DG      H710725   4.246   3.913   0.723 -1.2408  1.0921 -1.3448
  467DG      H810726   4.318   4.070   0.748 -0.2786 -0.0388 -1.5670
  467DG      O910727   4.920   3.642   0.593  0.3652 -0.0943  0.5393
  467DG     O1010728   4.448   3.909   0.760 -0.0712  0.2820 -0.4094
  467DG     C1110729   4.856   3.752   0.528 -0.7253 -0.0399  0.5165
  467DG     C1210730   4.554   3.997   0.777 -0.2728 -0.9951 -0.7228
  467DG     H1310731   4.767   3.724   0.470 -1.9454 -0.4269  0.5986
  467DG     H1410732   4.930   3.794   0.463 -2.3642  0.5130  2.6846
  467DG     H1510733   4.547   4.080   0.846  1.2035  1.0455  2.8723
  467DG     H1610734   4.597   4.032   0.684 -1.8584 -0.5938  0.0298
  467DG     C1710735   4.826   3.852   0.639 -0.2915  0.4919  0.0232
  467DG     C1810736   4.680   3.913   0.817 -0.5191 -0.6247 -0.5747
  467DG     O1910737   4.707   3.825   0.712  0.1603  0.0722 -0.2754
  467DG     H2010738   4.807   3.944   0.589 -0.3927 -0.6813 -0.6079
  467DG     H2110739   4.912   3.865   0.707 -0.2578 -0.3835 -2.4376
  467DG     H2210740   4.771   3.970   0.850  3.2121 -3.2096  0.2582
  467DG     H2310741   4.642   3.853   0.900 -0.7015 -3.5884  1.5847
  468DG      C110742   2.495   1.860   3.514 -0.6845 -0.2182  0.0338
  468DG      C210743   2.619   1.027   3.647  0.9684  0.3787 -0.0028
  468DG      H310744   2.504   1.921   3.608 -0.4652  0.4697  0.1990
  468DG      H410745   2.475   1.917   3.424  1.2237  1.9018  1.8010
  468DG      H510746   2.593   1.817   3.493  0.7747 -1.2586  1.9410
  468DG      H610747   2.619   0.974   3.738  0.8017 -2.8405  0.1803
  468DG      H710748   2.631   0.965   3.552 -0.9911 -1.2417  2.3926
  468DG      H810749   2.710   1.087   3.657 -0.3461 -1.9179 -3.9339
  468DG      O910750   2.392   1.748   3.541  0.0990 -1.1778 -0.5995
  468DG     O1010751   2.508   1.115   3.630 -0.3296 -0.2028 -0.1580
  468DG     C1110752   2.381   1.663   3.429 -1.2862 -0.2098 -0.3103
  468DG     C1210753   2.529   1.241   3.556 -0.5347  0.3303 -0.3931
  468DG     H1310754   2.466   1.635   3.368 -0.9001 -1.9934 -1.4207
  468DG     H1410755   2.315   1.714   3.353  1.3908 -0.6684 -1.3588
  468DG     H1510756   2.579   1.241   3.457 -1.1285  1.2586  0.4732
  468DG     H1610757   2.592   1.301   3.628 -0.0791  0.2328  3.7479
  468DG     C1710758   2.328   1.527   3.464 -0.1373 -0.2183 -0.3333
  468DG     C1810759   2.398   1.312   3.542  0.6385  0.0047 -1.4059
  468DG     O1910760   2.436   1.444   3.502 -0.1037 -0.8325 -0.9458
  468DG     H2010761   2.283   1.472   3.377  2.8436 -3.2865 -2.1169
  468DG     H2110762   2.244   1.537   3.537 -1.6244  2.1534 -3.9565
  468DG     H2210763   2.341   1.254   3.466  2.1174  1.6298  0.3264
  468DG     H2310764   2.345   1.299   3.643 -0.4691 -2.8108 -2.2398
  469DG      C110765   2.793   2.887   0.232 -1.0050  0.3343  0.6725
  469DG      C210766   2.662   2.984   0.823 -0.6642 -0.2261  0.0215
  469DG      H310767   2.880   2.950   0.234  0.9272  2.9524 -1.8571
  469DG      H410768   2.713   2.962   0.222  4.8360  0.0804  1.9038
  469DG      H510769   2.802   2.822   0.148  1.5436  0.3509 -0.0171
  469DG      H610770   2.606   3.048   0.754  1.6049  0.4856  0.8822
  469DG      H710771   2.601   2.962   0.915  1.6881 -0.1827  0.9786
  469DG      H810772   2.725   3.044   0.870 -2.7787 -0.5015 -2.3667
  469DG      O910773   2.769   2.807   0.348 -0.1753 -0.1645  0.1991
  469DG     O1010774   2.716   2.871   0.752 -0.2904 -0.1165 -0.2971
  469DG     C1110775   2.878   2.710   0.370 -0.5667 -0.0275 -0.4001
  469DG     C1210776   2.787   2.774   0.834 -0.7999 -0.2094  0.6287
  469DG     H1310777   2.971   2.760   0.364  1.8014 -0.9648  0.1382
  469DG     H1410778   2.865   2.632   0.289  2.4244 -2.5875  0.3919
  469DG     H1510779   2.710   2.732   0.890  0.2754  2.6127 -0.3628
  469DG     H1610780   2.854   2.812   0.915 -0.0818 -0.8663  4.1724
  469DG     C1710781   2.872   2.639   0.508  0.0944  0.8233  0.0622
  469DG     C1810782   2.848   2.677   0.736  0.2588 -0.6680 -0.2567
  469DG     O1910783   2.853   2.736   0.603 -0.4370  0.0277  0.0445
  469DG     H2010784   2.970   2.583   0.528  0.3761 -1.4858  1.5814
  469DG     H2110785   2.790   2.573   0.507 -0.3071 -0.5777 -1.9225
  469DG     H2210786   2.955   2.650   0.766 -0.7876  1.6393  0.1830
  469DG     H2310787   2.782   2.587   0.722  0.2390 -2.3070 -1.5713
  470DG      C110788   3.211   5.113   4.910 -0.3538 -0.2201 -0.5389
  470DG      C210789   2.923   4.425   5.052  0.0897  0.0637 -0.1122
  470DG      H310790   3.170   5.207   4.886  2.5854 -0.6530  0.3429
  470DG      H410791   3.306   5.124   4.868 -1.0249 -0.0794 -0.2451
  470DG      H510792   3.224   5.108   5.018  0.9312  0.4052  1.6247
  470DG      H610793   2.953   4.433   5.155  5.2784 -2.0112 -0.2587
  470DG      H710794   2.812   4.409   5.055 -0.7799  1.3733  0.4187
  470DG      H810795   2.968   4.338   5.015 -0.7601 -0.7489  1.1589
  470DG      O910796   3.134   5.008   4.867 -0.5170  0.1855 -0.3458
  470DG     O1010797   2.949   4.549   4.991  0.1474 -0.0029 -0.2745
  470DG     C1110798   3.191   4.883   4.904 -0.3899 -0.6799  0.0691
  470DG     C1210799   2.912   4.552   4.852  0.2047 -0.9345 -0.5074
  470DG     H1310800   3.196   4.873   5.008  1.9581  1.4516  0.2428
  470DG     H1410801   3.293   4.865   4.869  0.7232  1.3220 -0.2141
  470DG     H1510802   2.817   4.502   4.828  1.8135 -0.4244 -0.8469
  470DG     H1610803   2.986   4.513   4.795 -0.6812  0.1137  0.0171
  470DG     C1710804   3.104   4.772   4.847 -0.6413  0.0161 -0.0464
  470DG     C1810805   2.882   4.699   4.833 -0.3479 -0.3006 -0.0798
  470DG     O1910806   2.972   4.791   4.893  0.5541  0.2664 -0.1978
  470DG     H2010807   3.141   4.674   4.875 -0.8733  0.7623 -0.5388
  470DG     H2110808   3.114   4.779   4.740 -0.9631  3.3731 -0.5829
  470DG     H2210809   2.862   4.724   4.732 -1.2143 -1.4027 -0.2737
  470DG     H2310810   2.781   4.714   4.882  0.8401 -0.9467  3.6365
  471DG      C110811   1.853   3.389   3.757 -0.2055 -0.2403 -0.2851
  471DG      C210812   1.312   3.875   3.879  0.0089 -0.1645  0.3314
  471DG      H310813   1.861   3.489   3.717 -0.0753 -0.4133 -1.2125
  471DG      H410814   1.809   3.315   3.686 -1.8236 -0.0333  2.1344
  471DG      H510815   1.955   3.358   3.791  0.1645 -0.6210 -1.0750
  471DG      H610816   1.281   3.816   3.789  2.1637 -2.5265 -1.3451
  471DG      H710817   1.226   3.892   3.952  0.2572 -0.5462 -0.4113
  471DG      H810818   1.341   3.971   3.844  0.3100  0.2455  0.2243
  471DG      O910819   1.758   3.407   3.862  0.1237 -0.3290 -0.0973
  471DG     O1010820   1.411   3.800   3.957  0.2770 -0.5199  0.4066
  471DG     C1110821   1.805   3.481   3.969 -0.1472  0.4080  0.3338
  471DG     C1210822   1.362   3.674   4.010  0.2033  0.2210 -0.7965
  471DG     H1310823   1.854   3.576   3.941  1.5962  2.6690 -0.3244
  471DG     H1410824   1.881   3.420   4.023 -0.0336  3.1268 -0.5286
  471DG     H1510825   1.325   3.602   3.941  1.8520 -1.0879  2.2163
  471DG     H1610826   1.275   3.691   4.073 -2.1967  1.4580 -1.6806
  471DG     C1710827   1.694   3.513   4.065  0.4494 -0.8896  0.2781
  471DG     C1810828   1.471   3.603   4.087 -0.3259  0.7911 -0.3283
  471DG     O1910829   1.588   3.587   4.008  0.0035 -0.6317 -1.1165
  471DG     H2010830   1.738   3.568   4.154 -1.8021  1.5672  1.8759
  471DG     H2110831   1.656   3.421   4.105  0.0292  1.3536  0.3325
  471DG     H2210832   1.497   3.663   4.181  0.6275  1.1966 -0.0333
  471DG     H2310833   1.439   3.502   4.110 -0.1093 -0.9988 -1.1744
  472DG      C110834   3.398   3.086   3.281 -0.3497  0.2111  0.4776
  472DG      C210835   4.003   3.001   3.717 -0.4524  0.2727  0.2335
  472DG      H310836   3.393   3.195   3.265 -0.7479 -2.2680  0.1367
  472DG      H410837   3.334   3.053   3.359 -2.0898 -2.4121 -1.6437
  472DG      H510838   3.351   3.033   3.201  1.8555  1.9643 -2.5483
  472DG      H610839   4.048   3.096   3.743 -1.1807 -0.9479 -0.4743
  472DG      H710840   3.915   2.975   3.783 -2.2211 -1.6272  0.2568
  472DG      H810841   4.078   2.922   3.735  1.2487 -0.3817  3.9532
  472DG      O910842   3.528   3.054   3.316 -0.0495  0.3094 -0.9770
  472DG     O1010843   3.960   3.010   3.583 -0.2945  0.7104 -0.2915
  472DG     C1110844   3.620   3.094   3.209 -0.1570 -0.0169 -1.0590
  472DG     C1210845   3.914   2.894   3.524  0.2542  0.3315 -0.6535
  472DG     H1310846   3.641   3.197   3.207 -2.0127  0.3521 -0.1657
  472DG     H1410847   3.560   3.064   3.122 -0.5774 -0.4579  0.5125
  472DG     H1510848   3.822   2.868   3.568  1.2884  1.2778  0.2336
  472DG     H1610849   3.979   2.810   3.553  0.7852 -0.4948  1.5898
  472DG     C1710850   3.745   3.006   3.220  0.1700  0.7737  0.1936
  472DG     C1810851   3.891   2.898   3.370 -0.5287  0.0933 -0.6119
  472DG     O1910852   3.778   2.981   3.352 -0.6049  0.2710  0.0280
  472DG     H2010853   3.827   3.055   3.171 -1.8674  0.4618 -1.0897
  472DG     H2110854   3.723   2.919   3.163  1.7850 -3.3177  1.6911
  472DG     H2210855   3.988   2.927   3.319  1.6866  0.4018  2.3323
  472DG     H2310856   3.879   2.800   3.338 -0.2068  0.9213 -1.4416
  473DG      C110857   4.868   4.489   2.098  0.7657 -0.4672  0.1742
  473DG      C210858   5.586   4.644   1.888 -0.0653 -0.3686 -0.2776
  473DG      H310859   4.816   4.573   2.154  1.7329  1.6887 -0.7351
  473DG      H410860   4.802   4.423   2.048  1.3220  0.0221 -0.2885
  473DG      H510861   4.921   4.538   2.017  0.9793 -2.2108 -2.8436
  473DG      H610862   5.522   4.627   1.800  1.4463  0.0345  1.7512
  473DG      H710863   5.577   4.752   1.910  3.6865 -0.4043 -0.3345
  473DG      H810864   5.695   4.630   1.850  3.2737  0.4328  0.4249
  473DG      O910865   4.970   4.440   2.178  0.0666 -0.5394 -0.4770
  473DG     O1010866   5.565   4.560   2.001 -0.0002 -0.6896  0.2140
  473DG     C1110867   5.057   4.339   2.124  0.4893  0.4869  0.4719
  473DG     C1210868   5.432   4.580   2.035 -0.0470  0.3526 -0.6628
  473DG     H1310869   5.059   4.350   2.005 -1.0036 -0.9215 -1.7681
  473DG     H1410870   5.029   4.239   2.133  1.1660 -2.2765  1.6352
  473DG     H1510871   5.367   4.565   1.946 -1.2908  2.5421  0.1874
  473DG     H1610872   5.414   4.676   2.078 -2.6152  1.0041 -1.7422
  473DG     C1710873   5.199   4.357   2.186 -0.4535 -0.3391  1.0043
  473DG     C1810874   5.401   4.475   2.138  0.3278  0.0467  0.6934
  473DG     O1910875   5.263   4.476   2.136  0.1970  0.2985 -0.3166
  473DG     H2010876   5.260   4.268   2.167 -1.5958 -0.9170 -0.0642
  473DG     H2110877   5.202   4.362   2.297 -0.1838 -2.8310  0.8311
  473DG     H2210878   5.430   4.382   2.089 -1.7191 -1.2273 -1.7278
  473DG     H2310879   5.452   4.492   2.231  1.0372  0.2969  1.2114
  474DG      C110880   3.153   4.761   3.117 -1.0545  0.1340 -0.4280
  474DG      C210881   3.709   5.407   3.184  0.0916  0.1672 -0.7225
  474DG      H310882   3.211   4.743   3.025  1.5889  2.1376 -1.0016
  474DG      H410883   3.085   4.838   3.081  0.7944  1.0611 -1.2128
  474DG      H510884   3.088   4.684   3.140 -0.7602  1.1153 -0.5173
  474DG      H610885   3.620   5.452   3.132 -0.9850  1.3208  0.4992
  474DG      H710886   3.771   5.481   3.239 -0.2629  0.4329 -0.2353
  474DG      H810887   3.779   5.394   3.099 -0.0107  1.9217 -0.9398
  474DG      O910888   3.232   4.798   3.230 -0.6292 -0.0660 -0.3810
  474DG     O1010889   3.671   5.281   3.236 -0.4337 -0.1352  0.4349
  474DG     C1110890   3.287   4.930   3.216  0.3010 -0.4108 -0.3889
  474DG     C1210891   3.564   5.296   3.328  0.5225  0.4550 -0.3846
  474DG     H1310892   3.210   4.998   3.183  1.2433 -0.2961 -2.7076
  474DG     H1410893   3.354   4.918   3.130  0.0871  2.8700  0.1030
  474DG     H1510894   3.479   5.345   3.271  0.3104 -0.0388 -0.5695
  474DG     H1610895   3.593   5.362   3.414  0.1156 -0.6123 -3.4252
  474DG     C1710896   3.356   4.989   3.335 -0.4963 -0.0736 -0.3706
  474DG     C1810897   3.518   5.160   3.382  0.6721 -0.2118 -0.4296
  474DG     O1910898   3.435   5.099   3.290 -0.0308  0.1123  0.2483
  474DG     H2010899   3.418   4.918   3.390 -1.9609 -1.5966  0.7242
  474DG     H2110900   3.274   5.015   3.403 -0.1784  1.1379  2.3186
  474DG     H2210901   3.593   5.088   3.418 -1.6683 -1.1204 -1.0263
  474DG     H2310902   3.458   5.190   3.467  0.8466  0.3951 -2.0275
  475DG      C110903   5.480   0.647   1.791 -0.0029 -0.5464  0.4506
  475DG      C210904   5.752   0.606   1.124  0.1493  0.2370  0.2307
  475DG      H310905   5.482   0.564   1.721 -4.4586 -0.1298  0.3898
  475DG      H410906   5.384   0.706   1.795  0.1196 -0.3093  1.5423
  475DG      H510907   5.502   0.608   1.885  0.3656  4.0755 -1.1420
  475DG      H610908   5.832   0.644   1.065 -0.4652  0.3695  1.6679
  475DG      H710909   5.723   0.502   1.104  1.9666 -1.6844  2.0073
  475DG      H810910   5.663   0.669   1.109 -2.0583 -0.8847 -1.1362
  475DG      O910911   5.591   0.739   1.767 -0.6641  0.0785 -0.5777
  475DG     O1010912   5.796   0.615   1.260  0.3405  0.0380 -0.5374
  475DG     C1110913   5.714   0.666   1.759 -0.1105  0.6828  0.3852
  475DG     C1210914   5.828   0.748   1.291 -0.0139  0.2683  0.4322
  475DG     H1310915   5.703   0.566   1.718  2.2166 -0.6418 -1.4119
  475DG     H1410916   5.763   0.661   1.854  2.7477  1.5359 -1.1552
  475DG     H1510917   5.746   0.804   1.261  1.6014  1.5003  2.5129
  475DG     H1610918   5.922   0.772   1.236  2.4504 -2.1179 -0.3265
  475DG     C1710919   5.815   0.735   1.670 -0.2888 -0.3037  0.1550
  475DG     C1810920   5.857   0.774   1.439  0.3941 -0.8433 -0.1847
  475DG     O1910921   5.770   0.721   1.538  0.3912  0.5013  0.6137
  475DG     H2010922   5.907   0.673   1.670  2.3112 -1.0161 -0.0969
  475DG     H2110923   5.827   0.842   1.695  0.1669  0.3984 -0.6881
  475DG     H2210924   5.953   0.718   1.453  1.4513 -2.1620  1.9456
  475DG     H2310925   5.888   0.872   1.455  0.4397  1.7799  0.9915
  476DG      C110926   3.019   4.959   2.320 -0.6128 -0.1973  0.4317
  476DG      C210927   2.805   4.158   2.315 -0.7855 -0.2233  0.0086
  476DG      H310928   3.073   5.041   2.368 -0.3146  1.5738 -2.4566
  476DG      H410929   2.916   4.951   2.351  1.6074  0.1034 -0.1070
  476DG      H510930   3.009   5.007   2.223  3.8117 -3.2203  1.1578
  476DG      H610931   2.707   4.172   2.341  2.3519  0.3701  0.7679
  476DG      H710932   2.809   4.127   2.216 -0.6340  2.6330 -0.4743
  476DG      H810933   2.833   4.071   2.370 -1.0827  1.6993 -0.6965
  476DG      O910934   3.096   4.833   2.307  0.1665 -0.0495 -0.3297
  476DG     O1010935   2.888   4.273   2.327  0.2589  0.3384 -0.0001
  476DG     C1110936   3.023   4.720   2.264  0.9633 -0.1509 -0.5240
  476DG     C1210937   3.010   4.254   2.261 -0.1341 -0.6574 -0.2099
  476DG     H1310938   2.994   4.723   2.156 -0.5784 -0.5997 -0.2849
  476DG     H1410939   2.930   4.709   2.324  1.0062 -0.7130  0.9985
  476DG     H1510940   2.987   4.262   2.160 -2.1546  2.6979  0.8236
  476DG     H1610941   3.055   4.163   2.292 -2.6095 -3.1760 -0.9749
  476DG     C1710942   3.121   4.605   2.291  0.1983 -0.8383  0.2840
  476DG     C1810943   3.110   4.374   2.288 -0.0237  0.3894  0.0994
  476DG     O1910944   3.048   4.494   2.250  0.5009 -0.0815 -0.4121
  476DG     H2010945   3.161   4.600   2.395 -0.2316  1.5326 -1.9682
  476DG     H2110946   3.213   4.618   2.234 -0.9863  2.5527 -0.4823
  476DG     H2210947   3.143   4.377   2.389 -3.9419  0.5252  1.3888
  476DG     H2310948   3.200   4.359   2.221 -0.5284 -2.9521 -0.4295
  477DG      C110949   4.952   1.706   2.065 -0.3263 -0.3670  0.0419
  477DG      C210950   4.861   2.306   2.477  0.2432 -0.1497 -0.4116
  477DG      H310951   5.008   1.653   1.992  0.3238 -2.3436  0.5286
  477DG      H410952   4.875   1.766   2.009 -1.3384 -2.6357  1.4290
  477DG      H510953   4.889   1.629   2.119 -0.2410 -2.7961  1.7246
  477DG      H610954   4.786   2.227   2.477  0.4833  1.5262  2.1431
  477DG      H710955   4.892   2.342   2.575  2.1959 -0.5076  0.4577
  477DG      H810956   4.822   2.394   2.430  2.0188  1.2160  0.8085
  477DG      O910957   5.030   1.799   2.136  0.1349  0.2621 -0.1203
  477DG     O1010958   4.961   2.266   2.387 -0.0575  0.7662 -0.4113
  477DG     C1110959   5.110   1.886   2.061 -0.9747 -0.1167 -0.0479
  477DG     C1210960   5.030   2.161   2.452  1.0898 -0.5371  0.0752
  477DG     H1310961   5.037   1.931   1.991  0.2989  0.0334 -1.2673
  477DG     H1410962   5.186   1.833   2.003  0.6148  2.1697  2.0436
  477DG     H1510963   4.961   2.076   2.456  0.2798 -1.2585 -0.5851
  477DG     H1610964   5.061   2.182   2.555 -0.5794  0.7623 -1.4461
  477DG     C1710965   5.174   1.981   2.159 -0.1089  0.5811  0.6363
  477DG     C1810966   5.141   2.118   2.348  0.8029 -0.4625  0.2118
  477DG     O1910967   5.079   2.035   2.247 -0.2299 -0.5210  0.5278
  477DG     H2010968   5.221   2.064   2.105 -1.9191  0.4743 -0.4859
  477DG     H2110969   5.253   1.915   2.198 -0.1346  1.2742 -2.6069
  477DG     H2210970   5.211   2.198   2.309  3.1817  0.3319 -3.3945
  477DG     H2310971   5.210   2.052   2.395 -2.3770 -1.6337 -0.2730
  478DG      C110972   4.624   0.307   0.005 -0.3187  0.1148  0.3327
  478DG      C210973   4.101   0.751  -0.100  0.4216  0.2968 -0.5954
  478DG      H310974   4.654   0.205  -0.024  1.0637  1.1961 -3.7260
  478DG      H410975   4.656   0.326   0.113  0.0729  2.5075 -0.6164
  478DG      H510976   4.671   0.375  -0.061 -1.6173  0.7535  1.7269
  478DG      H610977   4.019   0.725  -0.173 -2.7956 -0.8280  2.1092
  478DG      H710978   4.062   0.814  -0.025 -2.1491  1.1463 -0.2042
  478DG      H810979   4.182   0.812  -0.146  1.0297  1.0051  3.0992
  478DG      O910980   4.479   0.308  -0.002  0.2653 -0.3868  0.1207
  478DG     O1010981   4.146   0.624  -0.056  0.3576 -0.1461 -0.6101
  478DG     C1110982   4.419   0.230   0.094 -0.2812 -0.6830  0.2868
  478DG     C1210983   4.069   0.563   0.054 -0.0787 -0.2340  0.3749
  478DG     H1310984   4.460   0.256   0.197 -1.0589 -1.0240  0.6537
  478DG     H1410985   4.433   0.123   0.077 -0.1373 -1.3870 -1.7144
  478DG     H1510986   3.966   0.583   0.050 -1.1196  1.1736 -1.2679
  478DG     H1610987   4.100   0.589   0.151 -1.0053  0.3908 -0.7854
  478DG     C1710988   4.265   0.252   0.096  0.1325  0.1886  0.1271
  478DG     C1810989   4.084   0.413   0.057 -0.3939  0.0942 -0.2965
  478DG     O1910990   4.227   0.385   0.067  0.0548 -0.0602 -0.2746
  478DG     H2010991   4.218   0.225   0.188  2.4396 -0.1901  0.5083
  478DG     H2110992   4.226   0.184   0.017  1.0962 -3.1820 -0.9139
  478DG     H2210993   4.027   0.374   0.142 -1.4035  0.1364 -0.6078
  478DG     H2310994   4.027   0.372  -0.023 -2.2002 -0.6084  1.2238
  479DG      C110995   2.750   3.553   2.828  0.3695 -0.5709  0.8632
  479DG      C210996   2.176   3.209   2.995  0.5731  0.1632 -0.0157
  479DG      H310997   2.863   3.549   2.810 -0.0224  0.5453 -0.0258
  479DG      H410998   2.732   3.642   2.892 -1.0920 -1.4998  1.9873
  479DG      H510999   2.692   3.575   2.736 -1.4543  1.4274 -1.0272
  479DG      H611000   2.158   3.270   3.081 -1.4453 -0.8081 -0.3476
  479DG      H711001   2.142   3.255   2.902 -0.6703 -0.5060  2.1282
  479DG      H811002   2.130   3.117   3.028 -0.1082 -0.0438 -0.7442
  479DG      O911003   2.705   3.434   2.888  1.0014  0.0241  0.1281
  479DG     O1011004   2.311   3.197   2.972 -0.0196 -0.7522 -0.6114
  479DG     C1111005   2.734   3.315   2.808  0.2540  0.5228  0.1466
  479DG     C1211006   2.393   3.137   3.071  0.4707  0.1049  0.2946
  479DG     H1311007   2.838   3.318   2.769  3.1857  0.8857  1.0019
  479DG     H1411008   2.673   3.317   2.719  0.4815  2.1700 -1.7470
  479DG     H1511009   2.337   3.050   3.116 -0.1545  0.0488  0.8855
  479DG     H1611010   2.416   3.207   3.151 -1.9174 -2.5246  3.6164
  479DG     C1711011   2.690   3.186   2.879  0.2456 -0.4289 -0.4237
  479DG     C1811012   2.527   3.109   3.023 -0.6552 -0.0546  0.3482
  479DG     O1911013   2.556   3.201   2.926  0.2632  0.7475  0.5610
  479DG     H2011014   2.754   3.174   2.967 -0.6857 -3.5014 -0.0309
  479DG     H2111015   2.713   3.096   2.820  1.0608  1.9207  0.3542
  479DG     H2211016   2.598   3.118   3.107  2.5699  0.3683  1.1690
  479DG     H2311017   2.530   3.009   2.995  0.0276  0.5016  2.0769
  480DG      C111018   1.027   4.716   1.448  0.4947 -0.6795 -0.0499
  480DG      C211019   0.343   4.517   1.361  0.0171 -0.1779  0.7600
  480DG      H311020   1.115   4.653   1.465 -0.8406  2.0044 -0.6553
  480DG      H411021   1.011   4.724   1.549  0.3892 -2.7135 -1.0660
  480DG      H511022   1.043   4.815   1.399 -1.7954  3.1326  0.8314
  480DG      H611023   0.331   4.505   1.468 -1.0845  2.5860 -0.3018
  480DG      H711024   0.305   4.614   1.329 -2.1224  0.2145 -1.1509
  480DG      H811025   0.269   4.452   1.312  2.2703  0.5067 -3.7029
  480DG      O911026   0.925   4.633   1.389 -0.0250  1.2545 -0.5875
  480DG     O1011027   0.477   4.476   1.326 -0.1366  0.3420  0.1545
  480DG     C1111028   0.936   4.625   1.245 -0.0316 -0.1771  0.4218
  480DG     C1211029   0.509   4.487   1.189  0.0977  0.0388 -0.1989
  480DG     H1311030   1.018   4.550   1.231 -0.5324 -0.1810  1.0612
  480DG     H1411031   0.974   4.716   1.193 -0.1649 -0.1676 -0.2973
  480DG     H1511032   0.514   4.586   1.146  2.4661  0.7154 -0.8230
  480DG     H1611033   0.435   4.437   1.123  1.8302  1.3096 -1.9065
  480DG     C1711034   0.806   4.588   1.184 -0.5507  0.6476  0.4100
  480DG     C1811035   0.645   4.409   1.169 -0.3252  0.3768 -0.0171
  480DG     O1911036   0.751   4.463   1.244  0.8099  0.2621 -0.1022
  480DG     H2011037   0.804   4.587   1.064  0.0608  0.0092 -0.9578
  480DG     H2111038   0.738   4.669   1.213  1.8643 -2.5910 -0.7596
  480DG     H2211039   0.632   4.314   1.210  0.9043  0.6813  0.6291
  480DG     H2311040   0.681   4.389   1.068 -2.4262  1.1442  2.6849
  481DG      C111041   3.240   2.623   1.786  0.0824 -0.1858  0.1168
  481DG      C211042   2.613   2.763   1.319  0.5796  0.8332  0.2225
  481DG      H311043   3.345   2.632   1.769  1.0542 -1.0195  0.3444
  481DG      H411044   3.222   2.536   1.851 -0.0037  0.7309  1.3123
  481DG      H511045   3.204   2.715   1.832 -1.0962 -0.0505  0.4694
  481DG      H611046   2.566   2.846   1.366  2.8250 -0.7042  0.9879
  481DG      H711047   2.605   2.772   1.215 -1.1064 -0.3808 -0.1438
  481DG      H811048   2.564   2.678   1.362  1.2623 -0.6417  0.4766
  481DG      O911049   3.183   2.612   1.658  0.0478  0.4467  0.4405
  481DG     O1011050   2.751   2.762   1.354 -0.3333 -0.1844 -0.0375
  481DG     C1111051   3.039   2.607   1.653 -0.4043 -0.6850 -0.1925
  481DG     C1211052   2.831   2.681   1.271  0.6121  0.6522 -0.4355
  481DG     H1311053   3.002   2.691   1.705  0.4612 -2.2772  2.8502
  481DG     H1411054   3.014   2.511   1.699  0.0137  0.0716 -0.9013
  481DG     H1511055   2.808   2.694   1.164 -1.1583 -1.4489 -2.4960
  481DG     H1611056   2.811   2.579   1.292 -1.2199  0.7185 -1.8755
  481DG     C1711057   2.972   2.614   1.515  0.4968  0.6303  0.3373
  481DG     C1811058   2.980   2.712   1.297  0.5391 -0.2210  0.1728
  481DG     O1911059   3.021   2.719   1.434  0.0716  0.5877 -0.5876
  481DG     H2011060   2.861   2.605   1.521 -2.4036 -0.1226 -1.6135
  481DG     H2111061   2.994   2.524   1.469 -0.6640  2.8881  1.8782
  481DG     H2211062   3.044   2.634   1.262  0.5589  0.6794 -1.4665
  481DG     H2311063   3.019   2.810   1.255  1.7374  0.1648  1.3364
  482DG      C111064   2.374   4.419   0.426 -0.7178 -0.2982 -0.6761
  482DG      C211065   2.020   4.186  -0.345 -0.8348 -0.1081  0.3671
  482DG      H311066   2.298   4.463   0.491  0.9156 -1.0159 -2.9746
  482DG      H411067   2.437   4.497   0.387  4.1715  0.8072 -2.8046
  482DG      H511068   2.432   4.350   0.494 -0.6005  0.3971 -2.6667
  482DG      H611069   2.066   4.274  -0.396 -0.5448  1.6418  0.2465
  482DG      H711070   2.005   4.096  -0.406  1.0432 -1.9752 -0.6590
  482DG      H811071   1.920   4.206  -0.314 -0.7764 -0.3038 -0.7932
  482DG      O911072   2.307   4.346   0.326  0.5394  0.2399 -0.3771
  482DG     O1011073   2.108   4.148  -0.247  0.7464  0.6383  0.0682
  482DG     C1111074   2.410   4.277   0.246 -0.8586 -0.5994 -0.1816
  482DG     C1211075   2.123   4.253  -0.152 -0.1634  0.0233 -0.8342
  482DG     H1311076   2.469   4.214   0.314 -1.7991 -0.2881 -2.2099
  482DG     H1411077   2.484   4.347   0.203 -0.7967  1.1962 -1.2293
  482DG     H1511078   2.027   4.285  -0.103 -0.2395  1.1241  0.3146
  482DG     H1611079   2.169   4.336  -0.210  0.7980 -1.7634 -0.6071
  482DG     C1711080   2.347   4.196   0.133 -0.1060  0.7127  0.2993
  482DG     C1811081   2.224   4.185  -0.052  0.3524 -0.5627 -0.0721
  482DG     O1911082   2.253   4.267   0.055  0.0835 -0.2830 -0.1505
  482DG     H2011083   2.321   4.099   0.174  1.5101  1.4340  0.0934
  482DG     H2111084   2.432   4.175   0.068 -2.7441  0.3652  0.2540
  482DG     H2211085   2.166   4.101  -0.010 -0.4924 -0.3131  2.8111
  482DG     H2311086   2.309   4.137  -0.099  1.8050  0.0220  0.4159
  483DG      C111087   2.627   3.780   5.189 -0.4504 -0.4067 -0.0640
  483DG      C211088   2.676   2.914   5.221  0.5876 -0.0631 -0.5299
  483DG      H311089   2.694   3.818   5.267  2.2916 -0.2183 -0.4725
  483DG      H411090   2.544   3.847   5.174 -1.0597 -0.6828 -0.4539
  483DG      H511091   2.683   3.777   5.104 -3.1918  3.4138 -0.1643
  483DG      H611092   2.634   2.820   5.247 -0.4869  1.6144  2.1385
  483DG      H711093   2.673   2.923   5.119 -0.9423 -0.5932  1.8908
  483DG      H811094   2.773   2.923   5.264  0.4766  1.8630  0.6683
  483DG      O911095   2.567   3.652   5.224 -0.4754 -0.2085 -0.6666
  483DG     O1011096   2.597   3.012   5.291  0.5508  0.3153  0.0394
  483DG     C1111097   2.517   3.584   5.107  0.8198  0.0849  0.7125
  483DG     C1211098   2.631   3.143   5.252 -0.1256  0.0735  0.3203
  483DG     H1311099   2.605   3.571   5.052 -2.0387 -0.0595  1.2957
  483DG     H1411100   2.444   3.640   5.039  0.3454 -1.5049 -1.1284
  483DG     H1511101   2.706   3.144   5.171  1.3902  0.8439  1.5256
  483DG     H1611102   2.678   3.204   5.327 -3.6205 -1.3504 -2.5780
  483DG     C1711103   2.455   3.449   5.146  0.1803  0.1462  0.0386
  483DG     C1811104   2.512   3.215   5.193  0.0547 -0.7119 -0.6639
  483DG     O1911105   2.552   3.358   5.195  0.0043 -0.6124 -0.1758
  483DG     H2011106   2.411   3.403   5.054 -2.3605 -2.0083 -1.2134
  483DG     H2111107   2.371   3.463   5.216 -0.9795 -0.9330 -1.1244
  483DG     H2211108   2.509   3.193   5.087  0.5410  2.8967 -2.7045
  483DG     H2311109   2.417   3.186   5.242  3.1931 -0.2717  0.1444
  484DG      C111110   3.634   0.204   1.917  0.9848 -0.2833 -0.6017
  484DG      C211111   3.862   0.808   2.292  0.3376  0.2959  0.2515
  484DG      H311112   3.702   0.271   1.859 -0.2244 -1.9406 -1.8487
  484DG      H411113   3.626   0.117   1.848  0.3141 -3.2098 -3.7091
  484DG      H511114   3.666   0.169   2.013 -1.2593 -2.1157 -0.3301
  484DG      H611115   3.956   0.757   2.274 -0.6846  1.0400 -1.5459
  484DG      H711116   3.895   0.906   2.273 -1.1496 -1.7689  2.6696
  484DG      H811117   3.841   0.802   2.398 -0.3465 -1.0708  1.3753
  484DG      O911118   3.516   0.282   1.933 -0.2970 -0.3593  0.1016
  484DG     O1011119   3.749   0.767   2.218 -0.4030 -0.0639 -0.4313
  484DG     C1111120   3.517   0.396   2.028  0.8615 -0.2901 -0.4759
  484DG     C1211121   3.769   0.762   2.084 -0.9363  0.3767  0.1167
  484DG     H1311122   3.553   0.358   2.118 -3.3216 -0.9326 -1.1922
  484DG     H1411123   3.411   0.406   2.055 -2.6022  1.3378 -1.6369
  484DG     H1511124   3.847   0.690   2.054 -0.9902 -1.2973  1.5434
  484DG     H1611125   3.813   0.862   2.055  0.8129 -2.2362 -2.2894
  484DG     C1711126   3.581   0.521   1.966 -0.3805  0.2709 -0.0915
  484DG     C1811127   3.642   0.752   2.007 -0.4358  0.4087 -0.7587
  484DG     O1911128   3.566   0.637   2.046  0.2009 -0.2697  0.5347
  484DG     H2011129   3.553   0.538   1.862  3.5215 -2.2931 -0.1161
  484DG     H2111130   3.689   0.513   1.962 -1.7815  2.8590  0.9696
  484DG     H2211131   3.576   0.837   2.038  1.0783 -0.6065 -0.4118
  484DG     H2311132   3.653   0.765   1.898  1.9276  1.0194 -0.9503
  485DG      C111133   1.188   5.178   2.543  0.7645  0.7423 -0.1642
  485DG      C211134   0.463   5.311   3.029  0.2057  0.2799 -0.5439
  485DG      H311135   1.279   5.216   2.485 -0.6391  0.0355  0.4923
  485DG      H411136   1.162   5.087   2.494  0.9523  6.3666  0.6981
  485DG      H511137   1.223   5.160   2.648  0.3910 -0.4951  1.1713
  485DG      H611138   0.495   5.267   3.126 -1.9217  2.3683 -1.9888
  485DG      H711139   0.404   5.407   3.036 -0.3474  0.6386 -1.5891
  485DG      H811140   0.399   5.220   3.003 -2.0028 -0.5327 -0.4179
  485DG      O911141   1.091   5.277   2.539 -0.5117 -0.0660 -0.0492
  485DG     O1011142   0.578   5.325   2.946  0.4136  0.3321  0.2317
  485DG     C1111143   0.979   5.233   2.621  0.3867  0.4325  0.5806
  485DG     C1211144   0.543   5.352   2.810  0.2080 -0.5209 -0.1726
  485DG     H1311145   0.995   5.198   2.718  1.1015 -0.9562 -1.4779
  485DG     H1411146   0.932   5.151   2.568 -1.8035 -1.2010 -0.5177
  485DG     H1511147   0.481   5.449   2.803  0.0066  0.7580  2.2738
  485DG     H1611148   0.491   5.266   2.759 -0.7591  1.3639 -0.8910
  485DG     C1711149   0.884   5.344   2.640  1.1871  0.3010 -0.5468
  485DG     C1811150   0.672   5.389   2.733  0.1901  0.2369 -0.1662
  485DG     O1911151   0.763   5.288   2.697 -0.3924  0.3926  0.0517
  485DG     H2011152   0.858   5.382   2.546 -3.1571  1.3660 -2.3551
  485DG     H2111153   0.925   5.416   2.709 -1.2484  0.1457  1.2762
  485DG     H2211154   0.654   5.449   2.651 -1.5503 -1.0791 -1.9749
  485DG     H2311155   0.731   5.439   2.804  3.7426 -0.3148  1.8379
  486DG      C111156   2.866   0.456   3.876 -0.2053  0.1384 -0.1720
  486DG      C211157   2.880   1.010   4.129 -0.1608  0.1580 -0.6582
  486DG      H311158   2.822   0.521   3.955 -1.3178  0.1922  2.6710
  486DG      H411159   2.959   0.504   3.847  1.1299  0.3990  0.4103
  486DG      H511160   2.908   0.361   3.908  1.4035  0.2230 -1.7247
  486DG      H611161   2.954   1.076   4.094 -0.2011 -1.4111  1.9955
  486DG      H711162   2.813   1.058   4.202  0.8708 -0.1583 -1.9282
  486DG      H811163   2.931   0.930   4.177  3.1168 -0.1840 -1.9983
  486DG      O911164   2.781   0.446   3.764 -0.6666 -0.0446 -0.3274
  486DG     O1011165   2.799   0.966   4.027  0.6016 -0.0265 -0.0681
  486DG     C1111166   2.755   0.571   3.696  0.0168 -0.1510  0.0276
  486DG     C1211167   2.723   0.854   4.076 -0.0569 -0.5190  0.2969
  486DG     H1311168   2.696   0.548   3.606 -0.4099  2.8920 -0.5237
  486DG     H1411169   2.850   0.606   3.657 -2.2994  1.6595 -1.6748
  486DG     H1511170   2.650   0.888   4.156 -0.5592 -2.0224  1.7194
  486DG     H1611171   2.775   0.775   4.124 -2.2819 -0.2404  1.9102
  486DG     C1711172   2.667   0.669   3.768 -0.5905  0.3645  0.0372
  486DG     C1811173   2.649   0.788   3.967 -0.2359  0.1722  0.1614
  486DG     O1911174   2.735   0.734   3.873  0.2156 -1.0419 -0.4766
  486DG     H2011175   2.588   0.607   3.812  0.1885 -0.0181  1.1341
  486DG     H2111176   2.622   0.744   3.695 -0.0332  1.8202 -0.3423
  486DG     H2211177   2.586   0.720   4.023 -1.1546 -0.3765  0.1763
  486DG     H2311178   2.588   0.872   3.929  0.9547 -0.4375  2.7791
  487DG      C111179   2.617   3.287   3.432 -0.2752  0.2164 -0.2294
  487DG      C211180   2.504   3.846   3.986 -0.4486 -0.0713 -0.1032
  487DG      H311181   2.591   3.198   3.492 -2.2102 -1.2432 -0.7186
  487DG      H411182   2.720   3.281   3.405 -1.2157 -0.1189 -1.2606
  487DG      H511183   2.561   3.282   3.342  2.7191  0.8764 -0.6530
  487DG      H611184   2.608   3.879   4.023  2.8434  0.2615  2.3439
  487DG      H711185   2.457   3.922   3.923  0.6456  2.4779  0.8175
  487DG      H811186   2.445   3.844   4.079 -1.6555  0.6864 -0.0568
  487DG      O911187   2.590   3.416   3.474 -0.0762 -0.0890  0.2614
  487DG     O1011188   2.499   3.721   3.923 -0.5932 -0.2615  0.1289
  487DG     C1111189   2.656   3.459   3.589  0.5877 -0.8076 -0.7578
  487DG     C1211190   2.544   3.617   4.007  0.4913  0.1460  0.2502
  487DG     H1311191   2.650   3.567   3.609  0.8366  0.5974  0.7695
  487DG     H1411192   2.766   3.439   3.592 -1.2099 -1.7811 -2.2940
  487DG     H1511193   2.476   3.608   4.095 -1.9683 -0.7986  0.6308
  487DG     H1611194   2.645   3.628   4.054 -3.0566  1.3896 -0.2941
  487DG     C1711195   2.584   3.395   3.710 -0.1710  0.4952 -0.3854
  487DG     C1811196   2.533   3.482   3.933 -0.0711  0.1228  0.0140
  487DG     O1911197   2.617   3.477   3.820 -0.1473 -0.0771 -0.2221
  487DG     H2011198   2.611   3.286   3.729  0.2049 -2.0190  0.3289
  487DG     H2111199   2.477   3.410   3.689  0.0559  1.0656 -2.2755
  487DG     H2211200   2.553   3.400   3.999  1.7287 -1.5093  0.1345
  487DG     H2311201   2.424   3.469   3.917 -3.0409 -0.1670 -0.5204
  488DG      C111202   1.971   4.815   3.012  0.4131  0.0692  0.5397
  488DG      C211203   2.219   4.989   2.259 -0.9038  0.1912  0.7550
  488DG      H311204   1.864   4.814   2.983 -0.5089 -0.9952 -0.8262
  488DG      H411205   1.971   4.863   3.114 -1.1755 -0.9750  0.9436
  488DG      H511206   2.017   4.717   3.036  4.3797 -1.7611  0.8531
  488DG      H611207   2.312   5.026   2.215  1.6415 -1.4523  0.6079
  488DG      H711208   2.234   4.877   2.270  0.0460 -1.4949  0.2085
  488DG      H811209   2.136   5.009   2.190  1.0359 -1.4969  2.7723
  488DG      O911210   2.049   4.897   2.918 -0.6475  0.1622  0.0314
  488DG     O1011211   2.191   5.065   2.380 -0.5947  0.4790  0.1222
  488DG     C1111212   1.973   5.001   2.850 -0.0829 -0.4367  0.3689
  488DG     C1211213   2.276   5.020   2.488 -0.3139  0.6073  0.1950
  488DG     H1311214   1.919   5.055   2.923  1.2858 -0.8395 -1.3053
  488DG     H1411215   1.900   4.959   2.785 -0.7076  0.8176  0.6384
  488DG     H1511216   2.380   5.038   2.463 -0.5600  1.3319 -3.9834
  488DG     H1611217   2.273   4.907   2.492 -0.5028 -0.6531 -0.6953
  488DG     C1711218   2.067   5.087   2.771 -0.3381  0.4364 -0.3554
  488DG     C1811219   2.237   5.078   2.620 -0.0909 -0.1832  0.5291
  488DG     O1911220   2.117   5.019   2.658 -0.1128  0.6199 -0.7165
  488DG     H2011221   2.151   5.114   2.832  0.3174 -0.9969 -0.5128
  488DG     H2111222   2.030   5.183   2.737  0.1623 -0.3442  2.2100
  488DG     H2211223   2.313   5.061   2.692 -2.8160  0.7492  0.9923
  488DG     H2311224   2.220   5.184   2.611  0.1977 -0.6299 -2.4736
  489DG      C111225   0.220   5.183   0.644  0.0151 -0.1757 -0.3531
  489DG      C211226   0.259   5.706   1.025 -0.2803 -0.1065 -0.8002
  489DG      H311227   0.152   5.102   0.628 -3.0737  0.5388  2.4212
  489DG      H411228   0.315   5.192   0.584  1.7953  0.4684  0.3642
  489DG      H511229   0.147   5.263   0.629  0.7052 -0.4471 -0.5962
  489DG      H611230   0.262   5.776   1.116 -2.4594  0.8866 -0.5999
  489DG      H711231   0.353   5.692   0.965 -0.8920  3.4739 -0.3757
  489DG      H811232   0.187   5.762   0.964  0.8191 -0.1881 -0.8523
  489DG      O911233   0.260   5.176   0.782 -0.1191  0.0649 -0.2768
  489DG     O1011234   0.206   5.585   1.079 -0.3054 -0.0384  0.1952
  489DG     C1111235   0.145   5.164   0.875 -0.2224  0.4942 -0.0428
  489DG     C1211236   0.313   5.523   1.157 -0.0152  0.0047  0.8543
  489DG     H1311237   0.117   5.062   0.869 -0.4701 -2.6391 -1.4109
  489DG     H1411238   0.067   5.228   0.850 -1.5545  1.7277  1.8740
  489DG     H1511239   0.301   5.558   1.254  1.2541  1.4838  2.5482
  489DG     H1611240   0.414   5.543   1.128  1.0611 -0.1808  1.3465
  489DG     C1711241   0.188   5.206   1.019  0.9222 -0.2248  0.3446
  489DG     C1811242   0.282   5.376   1.154  0.3130  0.5702  0.1361
  489DG     O1911243   0.228   5.342   1.026  0.0450  0.4850 -0.2135
  489DG     H2011244   0.262   5.131   1.048 -1.0585  0.1462  0.2676
  489DG     H2111245   0.102   5.189   1.086 -1.1228  1.6948  1.0001
  489DG     H2211246   0.363   5.315   1.181 -2.9987  0.5646 -2.8011
  489DG     H2311247   0.198   5.357   1.219  3.0000 -0.0882  1.2529
  490DG      C111248   2.357   0.304   2.122  0.7357  0.2035  0.0958
  490DG      C211249   1.797   0.810   1.813 -0.4877  0.8136 -0.3333
  490DG      H311250   2.282   0.310   2.211 -2.3280 -1.6487  1.4568
  490DG      H411251   2.457   0.353   2.142  0.1067  0.3294  0.9398
  490DG      H511252   2.384   0.199   2.124 -0.7676  1.0408  1.2649
  490DG      H611253   1.735   0.832   1.724 -2.2793 -2.2160  2.1633
  490DG      H711254   1.745   0.735   1.874 -0.0837  0.9007 -1.3566
  490DG      H811255   1.811   0.904   1.877 -0.0205  0.6497 -0.6238
  490DG      O911256   2.306   0.331   1.994  0.2775  0.2490 -0.3200
  490DG     O1011257   1.926   0.749   1.772 -0.1619  0.5421 -0.1632
  490DG     C1111258   2.254   0.461   1.970 -0.1786  0.1768  0.0806
  490DG     C1211259   1.910   0.635   1.687 -0.5372 -0.2434 -0.0800
  490DG     H1311260   2.345   0.516   1.950 -1.0473 -0.4847  0.5817
  490DG     H1411261   2.186   0.491   2.042 -2.0922 -3.2126 -3.9862
  490DG     H1511262   1.883   0.665   1.586 -0.0059 -1.7423  0.8848
  490DG     H1611263   1.814   0.575   1.715  0.5312  0.2594  0.4968
  490DG     C1711264   2.166   0.438   1.849  0.9954  0.8387  0.5294
  490DG     C1811265   2.041   0.552   1.687  0.8179  0.7231 -1.0108
  490DG     O1911266   2.105   0.557   1.816 -0.3488 -0.7514  0.7281
  490DG     H2011267   2.099   0.357   1.871  1.0647  1.0963 -0.0479
  490DG     H2111268   2.231   0.406   1.766  0.4818  2.5148 -1.7241
  490DG     H2211269   2.024   0.448   1.648 -1.6418 -1.3461  1.6024
  490DG     H2311270   2.112   0.604   1.622  1.5074  1.1962  0.7326
  491DG      C111271   0.354   2.280   3.473  0.1566  0.3083  0.2851
  491DG      C211272   0.365   2.772   3.722  0.0825  0.0950  0.3169
  491DG      H311273   0.450   2.232   3.456  0.5824 -1.4542  1.0222
  491DG      H411274   0.360   2.385   3.457  0.1181 -2.7784 -0.5483
  491DG      H511275   0.287   2.227   3.400 -1.8016 -1.9284 -0.4915
  491DG      H611276   0.377   2.678   3.662 -1.8967 -0.7976  2.0403
  491DG      H711277   0.301   2.847   3.678 -0.1517  1.3723 -0.1630
  491DG      H811278   0.468   2.803   3.733  1.4196  2.0346 -0.2906
  491DG      O911279   0.324   2.252   3.603 -0.5694 -0.1616 -0.3129
  491DG     O1011280   0.316   2.727   3.846  0.2480 -0.1762 -0.1748
  491DG     C1111281   0.418   2.312   3.701 -0.1766 -0.1364  0.3434
  491DG     C1211282   0.196   2.655   3.847  0.5258  0.3061 -0.2995
  491DG     H1311283   0.434   2.413   3.671 -0.9414  1.2217  0.4298
  491DG     H1411284   0.513   2.257   3.692 -0.2518 -1.2181  0.0688
  491DG     H1511285   0.117   2.701   3.787  0.6300 -0.2627  0.8505
  491DG     H1611286   0.163   2.670   3.949  0.6562  0.3784 -1.1129
  491DG     C1711287   0.350   2.312   3.833 -0.3698  0.3078 -0.4964
  491DG     C1811288   0.206   2.506   3.797  0.0182 -0.3730 -0.1829
  491DG     O1911289   0.316   2.447   3.867 -0.3557  0.3751 -1.0007
  491DG     H2011290   0.413   2.264   3.911 -0.9721  1.6054  0.4561
  491DG     H2111291   0.257   2.271   3.837  0.2632  0.1339 -3.0599
  491DG     H2211292   0.111   2.457   3.806 -1.3358  1.4452  0.2032
  491DG     H2311293   0.213   2.502   3.686 -1.2223  0.0222  0.9978
  492DG      C111294   1.327   4.014   1.231  0.1755 -0.3236 -0.4802
  492DG      C211295   1.587   3.675   0.691 -0.6149  0.5022 -0.7514
  492DG      H311296   1.238   3.990   1.186 -0.9682  0.5244 -0.0170
  492DG      H411297   1.311   4.112   1.272 -0.4433 -1.8186 -1.3946
  492DG      H511298   1.338   3.945   1.320 -2.2674 -2.3061  2.4535
  492DG      H611299   1.671   3.640   0.624 -2.1688 -1.6713 -0.4198
  492DG      H711300   1.533   3.581   0.714 -2.3681 -0.5455 -0.0014
  492DG      H811301   1.519   3.730   0.629 -1.1214 -2.5654 -0.9067
  492DG      O911302   1.434   4.032   1.134  0.2452  0.8085  0.0194
  492DG     O1011303   1.624   3.750   0.811  0.8380 -0.6546 -0.2097
  492DG     C1111304   1.569   4.053   1.181  0.5580 -0.2951 -0.3791
  492DG     C1211305   1.698   3.859   0.771 -0.0951 -0.0493  0.3964
  492DG     H1311306   1.598   3.957   1.214 -2.2176  2.5972 -0.2044
  492DG     H1411307   1.581   4.125   1.266  0.2159 -0.5985 -0.4767
  492DG     H1511308   1.641   3.927   0.706 -0.1628 -0.0311 -0.2491
  492DG     H1611309   1.790   3.840   0.721  0.2729  0.1544 -1.4773
  492DG     C1711310   1.660   4.082   1.064  0.2543  0.4553 -0.6803
  492DG     C1811311   1.755   3.939   0.884  0.0961 -0.1203 -0.4046
  492DG     O1911312   1.642   3.969   0.978 -0.6254 -0.6102 -0.1530
  492DG     H2011313   1.762   4.089   1.106  3.0695 -0.5243 -1.8665
  492DG     H2111314   1.630   4.180   1.023 -0.4286  1.4717  4.6768
  492DG     H2211315   1.831   3.876   0.931  3.6571 -0.7584  0.3222
  492DG     H2311316   1.812   4.030   0.855 -0.4963  1.6186  0.7893
  493DG      C111317   2.304   4.560   4.894 -0.0885  0.2030 -0.0614
  493DG      C211318   2.714   4.777   5.599  0.0103  0.2835  0.6229
  493DG      H311319   2.275   4.452   4.915  1.0800 -0.2862 -1.5980
  493DG      H411320   2.306   4.568   4.788 -1.3383 -1.9041  0.5954
  493DG      H511321   2.227   4.615   4.940 -0.2068 -0.0778 -3.8250
  493DG      H611322   2.806   4.745   5.647 -1.6607 -0.2158  0.8140
  493DG      H711323   2.748   4.829   5.515  2.4018 -0.8594 -1.8868
  493DG      H811324   2.667   4.840   5.671 -0.4998 -1.8181 -0.6571
  493DG      O911325   2.432   4.595   4.942  0.5506  0.2413  0.3606
  493DG     O1011326   2.654   4.653   5.572 -0.0899  0.0331  0.7685
  493DG     C1111327   2.438   4.592   5.084 -0.4845  0.6403  0.3931
  493DG     C1211328   2.725   4.584   5.467 -0.3327  0.0521 -1.5639
  493DG     H1311329   2.400   4.501   5.128  0.0343 -1.4905  0.8869
  493DG     H1411330   2.379   4.670   5.125  0.3289  3.0720 -0.7187
  493DG     H1511331   2.681   4.485   5.469 -0.7015  0.3645  1.8925
  493DG     H1611332   2.835   4.575   5.491 -0.4231 -1.2059 -0.0737
  493DG     C1711333   2.582   4.612   5.131  0.5735 -0.4459 -0.5280
  493DG     C1811334   2.706   4.636   5.325 -1.3107 -0.0995  0.2537
  493DG     O1911335   2.573   4.626   5.270 -0.0487 -0.0183 -0.4623
  493DG     H2011336   2.607   4.711   5.094 -0.5863  1.3359 -2.0541
  493DG     H2111337   2.646   4.529   5.098  0.3571  0.2618  0.0794
  493DG     H2211338   2.728   4.742   5.319 -1.4430  1.7343  2.3762
  493DG     H2311339   2.789   4.579   5.267 -0.8005 -0.3052 -0.4731
  494DG      C111340   0.155   3.566   2.116  0.2488 -0.2024 -0.1537
  494DG      C211341   0.074   3.181   1.863 -0.3373 -1.0756  0.2132
  494DG      H311342   0.125   3.545   2.213  1.1784  0.4043 -2.9497
  494DG      H411343   0.263   3.568   2.118 -0.4294  1.8564  0.1051
  494DG      H511344   0.136   3.479   2.057 -1.2831 -0.4533 -0.9171
  494DG      H611345   0.039   3.093   1.803  1.5173 -0.4218  2.0744
  494DG      H711346   0.164   3.220   1.823 -0.0220 -0.5602  1.1321
  494DG      H811347   0.097   3.154   1.966  1.1126 -1.1251  1.3253
  494DG      O911348   0.120   3.695   2.065  0.2391 -0.3650 -0.0923
  494DG     O1011349  -0.019   3.289   1.868 -0.1662 -0.2974  0.5000
  494DG     C1111350  -0.018   3.718   2.072 -0.4951 -0.3837 -0.2925
  494DG     C1211351  -0.019   3.370   1.753  0.2154 -0.5527 -0.1648
  494DG     H1311352  -0.044   3.820   2.096 -0.0282 -1.7831  2.2692
  494DG     H1411353  -0.071   3.661   2.154 -1.1402  0.4116  1.0308
  494DG     H1511354  -0.062   3.315   1.669  0.6864  0.6114  1.5091
  494DG     H1611355   0.088   3.378   1.723  0.7601  0.7231 -0.3575
  494DG     C1711356  -0.081   3.688   1.939 -0.6927  0.1515  0.1985
  494DG     C1811357  -0.081   3.513   1.783  0.1181 -0.0525 -0.5612
  494DG     O1911358  -0.052   3.553   1.914 -0.2288  0.0256  0.0503
  494DG     H2011359  -0.046   3.756   1.860 -1.7850  0.9493  0.8599
  494DG     H2111360  -0.189   3.698   1.950  0.3846  0.7747  0.1214
  494DG     H2211361  -0.036   3.580   1.706  2.9312  0.2278  0.9871
  494DG     H2311362  -0.188   3.521   1.774  0.8668 -0.1219 -0.6826
  495DG      C111363   5.123   2.405   4.327 -0.1564  0.0566 -0.0115
  495DG      C211364   5.102   3.087   4.504  0.3509  0.0290  0.8324
  495DG      H311365   5.150   2.348   4.419  0.8746 -2.1671 -0.7159
  495DG      H411366   5.117   2.322   4.258  1.4180  0.3863 -0.7926
  495DG      H511367   5.029   2.459   4.336 -0.0209  1.3033  0.4268
  495DG      H611368   5.053   3.012   4.563  0.5587 -2.3872 -0.9327
  495DG      H711369   5.209   3.103   4.530 -1.2191 -2.8046 -2.5092
  495DG      H811370   5.059   3.195   4.501  3.4835 -2.2677  1.7194
  495DG      O911371   5.227   2.491   4.286 -0.2143  0.4487  0.5520
  495DG     O1011372   5.095   3.051   4.368 -0.1037  0.0794  0.0301
  495DG     C1111373   5.220   2.526   4.147 -0.4126 -1.1323 -0.2214
  495DG     C1211374   5.153   2.917   4.355 -0.2579 -1.2169 -0.2564
  495DG     H1311375   5.177   2.449   4.080 -3.1444  2.3235 -0.7305
  495DG     H1411376   5.319   2.544   4.109 -1.3696 -0.0691  0.6024
  495DG     H1511377   5.134   2.843   4.429  1.2191 -0.4761 -0.6285
  495DG     H1611378   5.264   2.936   4.344  1.5351 -1.4926  1.1754
  495DG     C1711379   5.122   2.643   4.135  0.4615  0.2497  0.0051
  495DG     C1811380   5.095   2.851   4.230 -0.0607  0.1909 -0.4541
  495DG     O1911381   5.186   2.753   4.195  0.0946  0.7246  0.2319
  495DG     H2011382   5.023   2.621   4.175  0.9910  0.2199 -0.1142
  495DG     H2111383   5.092   2.674   4.031 -1.9099 -2.6674 -3.5386
  495DG     H2211384   4.995   2.819   4.265 -3.0755 -1.5791  0.0692
  495DG     H2311385   5.097   2.923   4.145  1.7696 -1.9642  0.8177
  496DG      C111386   2.602   0.864   2.232 -0.5086 -0.1262  0.1612
  496DG      C211387   2.534   0.410   1.634 -0.2651  0.1155 -0.3706
  496DG      H311388   2.511   0.822   2.276 -1.9480 -0.9828  0.0184
  496DG      H411389   2.594   0.970   2.237  0.7283 -2.6746 -0.4628
  496DG      H511390   2.690   0.832   2.282 -1.9728  1.9252 -0.3504
  496DG      H611391   2.616   0.338   1.657  1.4944 -0.5414 -0.8000
  496DG      H711392   2.456   0.362   1.694 -0.1604 -2.0559  1.0904
  496DG      H811393   2.498   0.411   1.529 -0.2619  0.3705 -1.1356
  496DG      O911394   2.603   0.823   2.091  0.6728  0.1333 -0.5280
  496DG     O1011395   2.567   0.536   1.683 -0.3065  0.1394  0.0960
  496DG     C1111396   2.708   0.896   2.020  0.2180  0.6373 -0.1916
  496DG     C1211397   2.681   0.597   1.622  0.5302  0.0237 -0.2350
  496DG     H1311398   2.812   0.870   2.052  0.3342 -1.5888  0.6085
  496DG     H1411399   2.699   1.005   2.038  0.6819 -2.0072 -5.3499
  496DG     H1511400   2.668   0.594   1.514  1.7480  0.0191  0.2949
  496DG     H1611401   2.778   0.550   1.653  2.1585 -0.1539 -1.3158
  496DG     C1711402   2.697   0.879   1.868 -0.1306  0.4302  0.0337
  496DG     C1811403   2.667   0.737   1.687  0.0342  0.4793  0.6085
  496DG     O1911404   2.727   0.753   1.813  0.5258  0.4510  0.4315
  496DG     H2011405   2.760   0.960   1.814 -0.4960 -0.3264 -0.1401
  496DG     H2111406   2.597   0.910   1.860  0.2455 -1.0932  1.7905
  496DG     H2211407   2.724   0.808   1.623 -1.1918 -2.6271 -0.2610
  496DG     H2311408   2.564   0.764   1.690 -1.0691 -3.1841  1.0221
  497DG      C111409   4.763   2.450   3.093 -0.2963  0.8398  0.3126
  497DG      C211410   4.385   2.383   2.525 -0.4355 -0.1163 -0.0089
  497DG      H311411   4.722   2.362   3.058 -2.6421  1.3020 -0.3631
  497DG      H411412   4.685   2.503   3.156 -4.1380 -0.5982 -0.8408
  497DG      H511413   4.852   2.426   3.156  3.6541 -1.9779  2.6516
  497DG      H611414   4.374   2.272   2.539 -0.5895  1.1209 -0.7672
  497DG      H711415   4.354   2.430   2.612 -2.3067  0.3198 -0.3087
  497DG      H811416   4.316   2.409   2.444  0.8320 -2.0018 -1.5791
  497DG      O911417   4.796   2.532   2.982 -0.5075  0.1189 -0.0375
  497DG     O1011418   4.517   2.428   2.499  0.2581  0.3462  0.7846
  497DG     C1111419   4.680   2.564   2.905 -0.3581 -0.5310 -0.7906
  497DG     C1211420   4.523   2.568   2.475  0.4118 -0.4357  0.2679
  497DG     H1311421   4.604   2.632   2.950 -1.9308 -0.4653 -0.2591
  497DG     H1411422   4.625   2.475   2.887 -0.9929 -0.2395  0.6315
  497DG     H1511423   4.433   2.632   2.490  0.2496  0.4188 -1.2982
  497DG     H1611424   4.536   2.580   2.370  0.1542 -0.7688  1.9184
  497DG     C1711425   4.727   2.608   2.767 -0.1456 -0.0209 -0.3587
  497DG     C1811426   4.643   2.611   2.547  0.5455 -0.2785  0.1217
  497DG     O1911427   4.615   2.603   2.686  0.4576 -0.3208  0.3480
  497DG     H2011428   4.797   2.525   2.738 -1.4752 -1.5770 -0.5226
  497DG     H2111429   4.783   2.701   2.768 -3.8289  0.6133 -0.9390
  497DG     H2211430   4.725   2.549   2.512 -3.9639 -1.1314  0.2260
  497DG     H2311431   4.655   2.713   2.518 -0.4037 -1.5886 -1.9064
  498DG      C111432   1.324   5.411   2.135 -0.4990  0.1440 -0.5998
  498DG      C211433   1.975   5.164   1.879 -0.3471  0.3479 -0.6383
  498DG      H311434   1.340   5.501   2.072 -3.1901 -1.5973 -0.4662
  498DG      H411435   1.361   5.434   2.238  0.9013  1.6422  1.8989
  498DG      H511436   1.215   5.384   2.148  0.2170  2.8823  0.1812
  498DG      H611437   1.978   5.264   1.846 -1.7403 -1.6888  0.2060
  498DG      H711438   2.049   5.158   1.962  0.2341 -1.3615  1.7551
  498DG      H811439   1.999   5.089   1.807 -2.8699 -0.0697  1.4191
  498DG      O911440   1.402   5.309   2.095 -0.4642  0.2912  0.1684
  498DG     O1011441   1.840   5.137   1.913  0.1895  0.1701  0.0883
  498DG     C1111442   1.426   5.199   2.182 -0.4576  0.7040 -0.4090
  498DG     C1211443   1.825   5.019   1.993 -0.2307 -0.1583 -0.4879
  498DG     H1311444   1.340   5.158   2.232  2.5230 -0.8963  2.5110
  498DG     H1411445   1.501   5.228   2.260 -1.5661 -1.6983 -0.6559
  498DG     H1511446   1.871   5.036   2.093 -2.6480  0.4869  0.1468
  498DG     H1611447   1.872   4.936   1.946 -0.5573  1.0742 -0.2889
  498DG     C1711448   1.476   5.082   2.094 -0.1272 -0.2381  0.9417
  498DG     C1811449   1.674   4.990   2.003 -0.3420 -0.1996  0.7716
  498DG     O1911450   1.617   5.099   2.072  0.1253  0.3126 -0.2860
  498DG     H2011451   1.421   5.076   1.995  0.1923  1.5469 -2.3823
  498DG     H2111452   1.463   4.988   2.149  0.2329 -2.5229  0.2607
  498DG     H2211453   1.626   4.983   1.905  0.8115  0.6933 -0.3513
  498DG     H2311454   1.649   4.898   2.046 -1.3081  1.4934 -1.8405
  499DG      C111455   2.868   1.089   4.984  0.3925 -0.2012  0.5935
  499DG      C211456   2.581   0.735   4.395  0.2517  0.2063  0.2960
  499DG      H311457   2.910   0.986   4.986 -0.8895 -1.3415 -1.3654
  499DG      H411458   2.840   1.118   5.084  1.8262  0.0638  0.1453
  499DG      H511459   2.947   1.162   4.949  2.0024 -0.7086 -0.7697
  499DG      H611460   2.670   0.773   4.337 -1.4638 -2.1905 -0.2281
  499DG      H711461   2.604   0.631   4.412 -0.5583  2.9379  1.9166
  499DG      H811462   2.503   0.730   4.318  0.3403  0.4577 -1.6788
  499DG      O911463   2.771   1.109   4.885  0.4003  0.0692 -0.5471
  499DG     O1011464   2.550   0.810   4.513 -0.3662 -0.0390 -0.0923
  499DG     C1111465   2.661   1.035   4.919  0.0704 -0.1111 -0.2791
  499DG     C1211466   2.498   0.939   4.481  0.1494  0.0605 -0.6716
  499DG     H1311467   2.630   1.062   5.023  0.7736  2.9183  1.0818
  499DG     H1411468   2.683   0.933   4.911 -1.5897  3.5943 -4.1598
  499DG     H1511469   2.412   0.930   4.420  1.1419 -0.3263 -2.4754
  499DG     H1611470   2.567   0.989   4.415 -0.2214  3.2529  0.0412
  499DG     C1711471   2.546   1.067   4.833 -0.2932 -0.0981 -0.7000
  499DG     C1811472   2.462   1.020   4.611  0.3680 -0.0190  0.3701
  499DG     O1911473   2.572   1.019   4.704  0.6003 -0.6146 -0.5078
  499DG     H2011474   2.522   1.170   4.843  0.1998 -0.3106 -0.2931
  499DG     H2111475   2.473   1.002   4.883  2.6597 -1.1437 -1.6603
  499DG     H2211476   2.433   1.128   4.592 -2.1247 -0.5554 -0.3995
  499DG     H2311477   2.376   0.970   4.664 -1.5829 -0.8979  0.6794
  500DG      C111478   1.394   1.614   0.928 -0.1373  0.1035 -0.1810
  500DG      C211479   1.287   2.447   0.960  0.7576  0.2885  0.3287
  500DG      H311480   1.411   1.571   1.021 -2.0685  2.2842 -1.0950
  500DG      H411481   1.484   1.595   0.862  0.2982 -1.8082 -0.1582
  500DG      H511482   1.310   1.563   0.875 -1.8253  1.3642 -0.6261
  500DG      H611483   1.248   2.546   0.937 -1.3054 -1.8382  0.9909
  500DG      H711484   1.304   2.444   1.062  0.3002 -1.6103  3.0964
  500DG      H811485   1.385   2.434   0.905  0.6085  3.5974  0.1240
  500DG      O911486   1.366   1.756   0.939  0.3559  0.6012 -0.0221
  500DG     O1011487   1.188   2.348   0.919  0.2365 -0.0514 -0.0742
  500DG     C1111488   1.454   1.835   1.019 -0.2511  0.2702 -0.0899
  500DG     C1211489   1.186   2.221   0.980  0.0195 -0.0916  0.3448
  500DG     H1311490   1.561   1.795   1.008  3.7056  0.8663 -1.7642
  500DG     H1411491   1.413   1.824   1.119 -0.6617 -0.5789  1.3360
  500DG     H1511492   1.105   2.164   0.932  0.6597 -0.3083  1.9201
  500DG     H1611493   1.164   2.241   1.088 -2.0913  0.1712  3.9063
  500DG     C1711494   1.457   1.981   0.976 -0.1147 -0.1788 -0.0766
  500DG     C1811495   1.327   2.162   0.957 -0.4051  0.7169 -0.4474
  500DG     O1911496   1.326   2.023   0.983 -0.0729 -0.2401  0.8152
  500DG     H2011497   1.496   1.983   0.871  1.9129 -1.1748  0.0237
  500DG     H2111498   1.523   2.031   1.042  2.5502  1.5145  0.8608
  500DG     H2211499   1.368   2.183   0.860 -2.3790 -0.7393 -1.3228
  500DG     H2311500   1.393   2.200   1.036  0.7884 -0.2814 -0.9900
  501DG      C111501   1.120   1.133   0.914  0.2223  0.8187 -0.0109
  501DG      C211502   0.954   0.901   0.193  0.2639  0.3561  0.2746
  501DG      H311503   1.194   1.100   0.844 -0.3918  2.1412 -2.4164
  501DG      H411504   1.130   1.097   1.010  0.9731 -2.0135 -2.2884
  501DG      H511505   1.143   1.240   0.934  3.7178  0.6084 -1.0972
  501DG      H611506   0.959   0.822   0.118 -2.8030  0.1450  0.9835
  501DG      H711507   0.847   0.931   0.190 -1.6199  0.3058 -0.8451
  501DG      H811508   1.015   0.987   0.163 -2.1391  1.7899  1.2460
  501DG      O911509   0.978   1.132   0.886 -0.0730 -0.1094  0.2197
  501DG     O1011510   0.987   0.856   0.322 -0.1037 -0.0273  0.3391
  501DG     C1111511   0.926   1.003   0.892  0.4161  0.4046  0.2053
  501DG     C1211512   0.922   0.925   0.428 -0.6060  0.7765  0.0238
  501DG     H1311513   0.822   0.994   0.869 -0.6331  1.3741 -0.6578
  501DG     H1411514   0.933   0.974   0.996  1.4450 -0.2072 -0.8238
  501DG     H1511515   0.818   0.923   0.411 -1.2165 -1.8453 -3.5933
  501DG     H1611516   0.942   1.032   0.433  3.0197 -0.2961  0.2388
  501DG     C1711517   0.985   0.899   0.791  0.1085  0.1027 -0.6106
  501DG     C1811518   0.970   0.854   0.549 -0.1090  0.1254 -0.1075
  501DG     O1911519   0.936   0.932   0.658 -0.0849 -0.4288 -0.1459
  501DG     H2011520   0.949   0.802   0.825  0.3648 -1.0212  2.4229
  501DG     H2111521   1.087   0.898   0.778 -0.3448  1.3926 -1.2582
  501DG     H2211522   0.947   0.749   0.565  1.6847 -2.4087  1.1682
  501DG     H2311523   1.075   0.867   0.543 -1.9150 -0.6990 -0.5157
  502DG      C111524   3.069   2.821   4.371 -0.5323  0.8510  0.1151
  502DG      C211525   2.761   2.112   4.343 -0.0371 -0.1802 -0.3057
  502DG      H311526   3.112   2.831   4.278 -3.1822 -0.4399  2.0354
  502DG      H411527   3.138   2.889   4.429  0.3109 -0.2171 -1.2529
  502DG      H511528   2.968   2.865   4.371 -1.7674 -3.3106 -1.9789
  502DG      H611529   2.667   2.154   4.336  1.4110  1.5726  0.9722
  502DG      H711530   2.793   2.068   4.245 -0.5501 -3.2301 -0.1441
  502DG      H811531   2.756   2.027   4.410  2.9529 -0.0731 -2.6908
  502DG      O911532   3.072   2.686   4.423  0.0501  0.2010  0.4751
  502DG     O1011533   2.847   2.215   4.390 -0.1345  0.0393  0.5127
  502DG     C1111534   3.016   2.690   4.554  0.0529  0.2713  0.0913
  502DG     C1211535   2.813   2.252   4.525 -0.0615  0.2332  0.3532
  502DG     H1311536   2.925   2.745   4.559  0.0005 -1.3776 -0.5212
  502DG     H1411537   3.078   2.756   4.621  0.6022  1.4986 -1.4282
  502DG     H1511538   2.804   2.163   4.589  1.6902 -0.7418  0.6283
  502DG     H1611539   2.720   2.300   4.531  2.3356  1.9698 -1.4177
  502DG     C1711540   2.994   2.554   4.620  0.3031 -0.4585  0.2369
  502DG     C1811541   2.927   2.331   4.602  0.1232  0.3246  0.0191
  502DG     O1911542   2.925   2.464   4.547 -0.0381 -0.6421  0.1070
  502DG     H2011543   2.942   2.565   4.717  1.2727  2.0953 -3.2474
  502DG     H2111544   3.093   2.508   4.644 -2.1588  1.2112  0.4029
  502DG     H2211545   2.906   2.331   4.711  0.0130  1.7069 -0.3303
  502DG     H2311546   3.026   2.289   4.584 -0.4627  1.5779 -0.9796
  503DG      C111547   4.797   0.259   0.606  0.8938  0.1865 -0.2325
  503DG      C211548   5.331  -0.118   0.723 -0.3423 -0.1037  0.1481
  503DG      H311549   4.865   0.318   0.544 -0.7456 -1.1936 -0.3165
  503DG      H411550   4.718   0.319   0.642 -1.1544  0.1681 -1.6844
  503DG      H511551   4.741   0.194   0.537  1.5362  2.1898 -1.8810
  503DG      H611552   5.387  -0.043   0.663 -0.6175  1.1580  2.0632
  503DG      H711553   5.387  -0.176   0.795 -1.9420 -1.8111 -0.1431
  503DG      H811554   5.292  -0.190   0.647 -0.2455 -1.5987 -0.4465
  503DG      O911555   4.864   0.177   0.703 -0.1922 -0.0668  0.5325
  503DG     O1011556   5.228  -0.053   0.790  0.5602 -0.3377  0.1923
  503DG     C1111557   4.764   0.092   0.770  0.4130 -0.0314 -0.6285
  503DG     C1211558   5.161  -0.123   0.893 -0.6986  0.4412 -0.8524
  503DG     H1311559   4.730   0.017   0.698  0.5290  1.7628 -1.2398
  503DG     H1411560   4.682   0.152   0.792  2.1108 -0.4409 -1.2380
  503DG     H1511561   5.220  -0.144   0.986  0.4863  0.3025 -0.2796
  503DG     H1611562   5.133  -0.221   0.867  0.5704 -0.3826  4.0963
  503DG     C1711563   4.829   0.029   0.893  0.3265 -0.4517  1.2613
  503DG     C1811564   5.042  -0.060   0.954  0.0102 -0.1509 -0.2498
  503DG     O1911565   4.948  -0.032   0.841 -0.6440  0.0150 -0.0635
  503DG     H2011566   4.760  -0.040   0.935  2.6976 -1.8820 -1.3180
  503DG     H2111567   4.846   0.117   0.960  2.1097  1.9340  0.7712
  503DG     H2211568   4.994  -0.127   1.019  1.5267 -0.2824 -0.5565
  503DG     H2311569   5.070   0.037   0.988  2.0277  0.6542  0.2700
  504DG      C111570   3.216   3.651   1.229  0.9035  0.1838 -0.2152
  504DG      C211571   3.242   4.259   1.500  0.4659  0.4613  0.2663
  504DG      H311572   3.241   3.598   1.140  0.9299  1.3698 -1.6486
  504DG      H411573   3.134   3.589   1.257  0.5018  2.7807 -2.6139
  504DG      H511574   3.290   3.644   1.306 -0.0599 -0.6741 -0.5963
  504DG      H611575   3.353   4.263   1.513 -2.3818  4.0655 -1.8229
  504DG      H711576   3.213   4.363   1.514 -0.5990 -0.1159 -3.0622
  504DG      H811577   3.200   4.197   1.575  2.3966 -0.4906 -0.7255
  504DG      O911578   3.180   3.787   1.201 -0.1887  0.3081  0.1301
  504DG     O1011579   3.206   4.204   1.370  0.3670  0.2343 -0.3259
  504DG     C1111580   3.050   3.799   1.154  0.3110  0.0877  0.2444
  504DG     C1211581   3.070   4.224   1.344  0.6857 -0.3826  0.0481
  504DG     H1311582   2.981   3.777   1.233  2.3969 -2.3698 -0.3350
  504DG     H1411583   3.037   3.741   1.066 -1.6686 -0.9593 -3.0107
  504DG     H1511584   3.042   4.330   1.327 -1.7222  0.0374  5.0192
  504DG     H1611585   3.009   4.190   1.420  1.4275  0.3336 -1.5555
  504DG     C1711586   3.020   3.946   1.107 -0.6190  0.4178  0.3543
  504DG     C1811587   3.026   4.148   1.220 -0.2710 -0.9070  0.0118
  504DG     O1911588   3.056   4.010   1.233 -0.8758  0.0661 -0.2102
  504DG     H2011589   2.911   3.950   1.080 -2.4547  3.5476 -0.6701
  504DG     H2111590   3.081   3.980   1.025 -1.7503  1.7857 -0.7727
  504DG     H2211591   2.920   4.155   1.209  0.2518 -0.6010 -1.6208
  504DG     H2311592   3.065   4.196   1.132  1.6416 -2.7363  0.7944
  505DG      C111593   3.456   0.936   5.148 -0.7354 -0.3352  0.1062
  505DG      C211594   3.043   0.413   5.043  0.9015 -0.3794 -0.8000
  505DG      H311595   3.527   1.005   5.105  1.0035  0.3558  0.9364
  505DG      H411596   3.440   0.985   5.248 -0.8649  0.8051  3.2046
  505DG      H511597   3.376   0.945   5.084  2.3717  0.3296 -1.0379
  505DG      H611598   2.975   0.498   5.064 -0.7537  4.2906 -1.7499
  505DG      H711599   3.033   0.395   4.935  0.9826  1.3739  1.6443
  505DG      H811600   3.006   0.325   5.094  2.3353 -1.5266  3.8091
  505DG      O911601   3.516   0.805   5.153  0.4655  0.3323 -0.0933
  505DG     O1011602   3.166   0.449   5.081  0.1881  0.2290 -0.1115
  505DG     C1111603   3.552   0.755   5.027  0.4518  0.0306 -0.2460
  505DG     C1211604   3.269   0.369   5.027  0.1253  0.9461  0.1803
  505DG     H1311605   3.648   0.780   4.994 -0.6070 -1.3300  1.3905
  505DG     H1411606   3.477   0.784   4.946  0.3517 -2.4699 -1.3540
  505DG     H1511607   3.254   0.346   4.922 -1.2652 -1.3456 -1.4766
  505DG     H1611608   3.254   0.263   5.074  1.4094 -2.2367  2.7766
  505DG     C1711609   3.550   0.600   5.021 -0.0505 -0.0060  0.6764
  505DG     C1811610   3.406   0.418   5.051 -0.0467  0.2240  0.2028
  505DG     O1911611   3.416   0.556   5.023 -0.8949 -0.1398  0.0821
  505DG     H2011612   3.614   0.558   5.092  1.3838 -0.4880 -1.0001
  505DG     H2111613   3.596   0.581   4.929 -2.6262 -0.9917  0.2424
  505DG     H2211614   3.426   0.408   5.162 -1.2005 -2.5469  0.9226
  505DG     H2311615   3.466   0.356   4.993 -0.7837  0.2294  2.7485
  506DG      C111616   1.245   3.502   3.173  0.4630 -0.3905 -0.0122
  506DG      C211617   0.969   3.539   2.566 -0.3028  0.2875 -0.3494
  506DG      H311618   1.315   3.455   3.249 -0.1294 -1.1300  1.3579
  506DG      H411619   1.156   3.523   3.225 -0.3787 -0.0720 -1.9318
  506DG      H511620   1.284   3.600   3.151 -0.0832 -0.9122 -2.7668
  506DG      H611621   0.921   3.485   2.482 -1.4487  0.3079  1.2346
  506DG      H711622   0.924   3.504   2.654 -1.9207 -1.7048  0.1826
  506DG      H811623   0.961   3.642   2.533 -1.6092 -3.1167 -0.1112
  506DG      O911624   1.229   3.415   3.062 -0.1649  0.7661  0.2291
  506DG     O1011625   1.103   3.494   2.567  0.0084  0.2385 -0.1220
  506DG     C1111626   1.353   3.411   2.994  0.5805  0.7234 -0.2522
  506DG     C1211627   1.172   3.560   2.664 -0.6962  0.2835  0.0399
  506DG     H1311628   1.430   3.381   3.059  0.9639 -1.9654  1.3974
  506DG     H1411629   1.390   3.508   2.967  1.1820 -1.0617  1.2688
  506DG     H1511630   1.116   3.574   2.756  1.2078 -1.9899 -0.9020
  506DG     H1611631   1.204   3.658   2.620 -0.9258  0.4307 -0.5624
  506DG     C1711632   1.354   3.322   2.862  0.1869  0.3754 -0.1055
  506DG     C1811633   1.305   3.489   2.711  0.0627  0.8723 -0.9729
  506DG     O1911634   1.262   3.369   2.761 -0.4265 -0.6664 -0.1968
  506DG     H2011635   1.321   3.219   2.884  0.5480 -2.2596 -0.4961
  506DG     H2111636   1.458   3.316   2.819  3.2890 -0.3312  0.7293
  506DG     H2211637   1.380   3.482   2.631  1.1930  1.4957 -1.0522
  506DG     H2311638   1.353   3.559   2.780 -0.0954 -1.0599  0.1165
  507DG      C111639   2.382   0.847   1.071 -1.1134  0.3443  0.0492
  507DG      C211640   2.559   0.884   0.422  0.3719 -0.7110  0.1943
  507DG      H311641   2.457   0.915   1.088 -0.3761 -1.4605 -1.2445
  507DG      H411642   2.351   0.793   1.161 -2.6651  0.6540 -1.0450
  507DG      H511643   2.297   0.911   1.041  1.1863  2.5120 -0.2035
  507DG      H611644   2.640   0.844   0.367  1.5385 -0.9418  0.6443
  507DG      H711645   2.465   0.879   0.361  1.1513 -2.0278  2.0084
  507DG      H811646   2.573   0.991   0.448 -0.9475  1.4445 -1.8799
  507DG      O911647   2.429   0.752   0.973  0.5347  0.6442 -0.1143
  507DG     O1011648   2.543   0.796   0.532 -0.0478 -0.0731  0.6670
  507DG     C1111649   2.331   0.658   0.929  0.2437  0.3572  0.3536
  507DG     C1211650   2.478   0.681   0.495  0.1648 -0.5352 -0.3634
  507DG     H1311651   2.244   0.716   0.897 -0.8450 -0.4404  0.4267
  507DG     H1411652   2.303   0.596   1.017  1.3973 -0.7834 -4.1437
  507DG     H1511653   2.514   0.634   0.402 -0.3158 -2.4242  0.7452
  507DG     H1611654   2.374   0.702   0.469 -0.4892 -4.2095  0.6717
  507DG     C1711655   2.382   0.562   0.819  0.0451 -0.4850 -0.5142
  507DG     C1811656   2.479   0.571   0.607 -0.2871 -0.3506 -0.0947
  507DG     O1911657   2.454   0.636   0.726  0.1331 -0.5983  0.1374
  507DG     H2011658   2.292   0.530   0.769 -0.0383 -1.2635  1.7346
  507DG     H2111659   2.439   0.480   0.861  0.6238 -1.0857  1.8691
  507DG     H2211660   2.411   0.497   0.581 -1.0726  0.6885  0.0556
  507DG     H2311661   2.576   0.527   0.624  1.3474  1.9785 -0.3438
  508DG      C111662   3.848   2.556   2.737 -0.2425 -0.0707 -0.0189
  508DG      C211663   3.525   2.817   2.903 -0.8493  0.5078 -0.4789
  508DG      H311664   3.778   2.620   2.791 -1.5614  1.5182 -0.7264
  508DG      H411665   3.909   2.499   2.804  0.2767  1.1584  0.5645
  508DG      H511666   3.797   2.481   2.683  0.7168 -2.0864  1.5399
  508DG      H611667   3.491   2.724   2.850 -1.5135  2.3000 -0.7442
  508DG      H711668   3.627   2.794   2.930 -2.5119  0.5944  1.9023
  508DG      H811669   3.474   2.833   3.003 -0.4846  0.7018  0.2462
  508DG      O911670   3.934   2.625   2.646 -0.2293  0.1586  0.2319
  508DG     O1011671   3.508   2.931   2.817  0.1679  0.4544  0.0009
  508DG     C1111672   3.856   2.707   2.557 -0.2885 -0.5394  0.5314
  508DG     C1211673   3.614   3.030   2.828 -0.0195  0.4582 -0.1853
  508DG     H1311674   3.764   2.659   2.525  2.9138 -1.4231 -2.5252
  508DG     H1411675   3.907   2.709   2.461 -2.2353 -3.2509 -0.5224
  508DG     H1511676   3.654   3.031   2.924 -1.0842  1.2172 -2.4473
  508DG     H1611677   3.570   3.128   2.815 -2.6507 -0.5205  0.8778
  508DG     C1711678   3.844   2.858   2.592 -0.0396 -0.3014 -0.6417
  508DG     C1811679   3.725   3.013   2.724  0.6469  0.2948 -0.0114
  508DG     O1911680   3.767   2.880   2.709  0.5694  0.0627  0.3590
  508DG     H2011681   3.795   2.910   2.505  0.0559  1.8822 -0.2903
  508DG     H2111682   3.944   2.904   2.602  0.1878 -2.1997  2.9030
  508DG     H2211683   3.688   3.057   2.631 -0.7839  2.3056  0.7237
  508DG     H2311684   3.804   3.082   2.742 -0.6279  2.6670 -2.1669
  509DG      C111685   3.532   4.574   2.338 -0.0711 -0.3591 -0.5687
  509DG      C211686   3.963   5.032   1.821 -0.2470  0.0367  0.2380
  509DG      H311687   3.465   4.656   2.376  1.4233 -0.4439 -1.3356
  509DG      H411688   3.563   4.528   2.435 -0.5944 -1.5124  0.1297
  509DG      H511689   3.474   4.506   2.276 -1.1632  2.6114 -2.5754
  509DG      H611690   3.902   5.128   1.828 -1.8195  0.7578  0.2349
  509DG      H711691   4.054   5.054   1.880 -0.6052  2.0135 -0.7171
  509DG      H811692   3.988   5.012   1.722 -2.1935 -0.1634  2.7433
  509DG      O911693   3.648   4.616   2.263 -0.0774  0.0034 -0.1392
  509DG     O1011694   3.905   4.911   1.864  0.1270  0.8380  0.0118
  509DG     C1111695   3.615   4.700   2.152 -0.6689 -0.6395  0.1497
  509DG     C1211696   3.842   4.835   1.757 -0.5253  0.2785  0.0231
  509DG     H1311697   3.618   4.800   2.187 -0.7175 -0.9460  2.4704
  509DG     H1411698   3.523   4.677   2.104 -0.4524 -1.4932 -0.4569
  509DG     H1511699   3.914   4.817   1.675 -0.6981  0.8540 -1.3978
  509DG     H1611700   3.766   4.890   1.707  3.9043 -0.0637 -1.5747
  509DG     C1711701   3.732   4.698   2.052  0.4779 -0.0407 -0.5615
  509DG     C1811702   3.781   4.708   1.819 -0.0955 -0.2549 -0.6604
  509DG     O1911703   3.688   4.738   1.925  0.0796  0.5236  0.1386
  509DG     H2011704   3.763   4.596   2.051  0.0937  1.0776 -3.5203
  509DG     H2111705   3.804   4.768   2.094  1.5475  0.5100  1.0154
  509DG     H2211706   3.734   4.646   1.740  2.4311  1.7082 -2.5620
  509DG     H2311707   3.864   4.639   1.859 -1.2441  0.2479 -0.5830
  510DG      C111708   3.997   3.054   2.086 -0.5495 -0.1441  1.2620
  510DG      C211709   4.147   3.794   1.956 -0.1543  0.2671 -0.6873
  510DG      H311710   4.048   3.019   1.996  1.6881 -3.4069  0.6584
  510DG      H411711   3.898   3.003   2.090 -1.0006  0.7233  0.5336
  510DG      H511712   4.057   3.034   2.171 -4.2049  2.3576  0.3404
  510DG      H611713   4.116   3.901   1.941 -0.5380  2.4767  2.8657
  510DG      H711714   4.183   3.765   1.860  2.1039  1.4000  3.1678
  510DG      H811715   4.059   3.738   1.965  2.0227  1.8862 -0.0627
  510DG      O911716   3.980   3.198   2.084  0.0995  0.1109  0.2759
  510DG     O1011717   4.246   3.794   2.057  0.5027 -0.2215 -0.3052
  510DG     C1111718   4.090   3.289   2.077  0.7464 -0.9599  0.0001
  510DG     C1211719   4.314   3.674   2.062 -0.2610 -0.4589  0.5342
  510DG     H1311720   4.171   3.253   2.009  1.3878  0.6056  1.6317
  510DG     H1411721   4.130   3.293   2.179  0.6919  1.8757 -0.5158
  510DG     H1511722   4.388   3.688   2.137 -0.9274 -0.8079 -0.2702
  510DG     H1611723   4.374   3.660   1.968 -1.5150  1.1334  1.8874
  510DG     C1711724   4.045   3.432   2.036  0.1398  0.7806 -0.1169
  510DG     C1811725   4.236   3.559   2.106  0.1932 -0.1272  0.2040
  510DG     O1911726   4.153   3.509   2.001 -0.3169 -0.0764  0.3128
  510DG     H2011727   3.976   3.467   2.115 -2.2157 -0.6444 -0.3705
  510DG     H2111728   3.994   3.413   1.941  0.6909  1.3944 -1.8388
  510DG     H2211729   4.308   3.485   2.139  1.1949 -0.5413  1.8551
  510DG     H2311730   4.188   3.580   2.199  0.9268  1.7650 -1.5617
  511DG      C111731   1.984   0.656   0.674  0.1091  0.3108 -0.1127
  511DG      C211732   2.286   0.556   1.378  0.0777 -0.1005  0.5872
  511DG      H311733   2.006   0.751   0.633 -2.5115 -1.8004  4.4183
  511DG      H411734   1.881   0.629   0.637 -2.3755 -0.6478 -0.7807
  511DG      H511735   2.058   0.576   0.653  1.8434 -1.4765  0.5470
  511DG      H611736   2.355   0.631   1.414 -2.9890 -1.6213 -1.4231
  511DG      H711737   2.252   0.503   1.463 -0.0059  1.7789 -0.3393
  511DG      H811738   2.337   0.496   1.300 -0.3767  1.9623  0.7165
  511DG      O911739   1.978   0.667   0.817  0.4521 -0.0536  0.2253
  511DG     O1011740   2.185   0.632   1.327 -0.2514  0.2699 -0.0030
  511DG     C1111741   1.975   0.804   0.867  0.1534  0.8994  0.6322
  511DG     C1211742   2.068   0.562   1.287 -0.3423 -0.4258  0.1983
  511DG     H1311743   1.908   0.868   0.810 -0.3124 -1.0644 -0.5741
  511DG     H1411744   2.068   0.853   0.847  2.8366  1.3381 -1.5866
  511DG     H1511745   2.026   0.527   1.381 -0.6860  2.1812 -1.8058
  511DG     H1611746   2.091   0.479   1.213 -0.9188 -2.0698 -3.8629
  511DG     C1711747   1.952   0.796   1.020 -0.4161  0.6656  0.0844
  511DG     C1811748   1.972   0.663   1.217  0.0674 -0.0233  0.1704
  511DG     O1911749   2.028   0.696   1.086  0.0784  0.9068 -0.6359
  511DG     H2011750   1.848   0.775   1.038  0.7373  1.4070 -1.9494
  511DG     H2111751   1.960   0.897   1.071  1.8138 -0.4779  1.2966
  511DG     H2211752   1.874   0.619   1.199 -1.1303 -0.4208  0.6207
  511DG     H2311753   1.957   0.755   1.278  0.2984  0.6142 -0.3096
  512DG      C111754   0.136   3.698   2.552 -0.6148  0.0104  0.0195
  512DG      C211755  -0.082   3.084   2.770  0.1563  0.9797  0.3764
  512DG      H311756   0.236   3.750   2.563  0.4850 -1.7435  0.8939
  512DG      H411757   0.078   3.710   2.647  1.2089  1.7562  0.0152
  512DG      H511758   0.087   3.745   2.470 -0.3053 -1.5255 -0.5086
  512DG      H611759  -0.073   3.138   2.868 -0.7708  0.1991  1.0641
  512DG      H711760  -0.180   3.082   2.731 -1.3247 -2.4344 -0.7909
  512DG      H811761  -0.057   2.978   2.785  1.0271 -0.1461  1.2690
  512DG      O911762   0.142   3.548   2.527  0.2067  0.3684  0.3923
  512DG     O1011763   0.000   3.142   2.666 -0.5449  0.3612 -0.0987
  512DG     C1111764   0.270   3.498   2.479 -0.3274  0.6310 -0.3315
  512DG     C1211765   0.118   3.073   2.624  0.0564  0.8288 -0.9921
  512DG     H1311766   0.343   3.510   2.557  0.6632  2.8399  0.0976
  512DG     H1411767   0.301   3.572   2.404  2.8354  0.7147  0.1143
  512DG     H1511768   0.106   2.962   2.634 -1.4574 -0.3973  0.5185
  512DG     H1611769   0.191   3.093   2.700  1.7249  1.0943  2.9835
  512DG     C1711770   0.272   3.348   2.435 -0.0601  0.3315  0.2740
  512DG     C1811771   0.186   3.138   2.501 -0.1888 -0.5960  0.2199
  512DG     O1911772   0.211   3.275   2.539 -0.3024 -0.4671  0.0562
  512DG     H2011773   0.369   3.302   2.412 -1.1372 -2.3723 -0.0604
  512DG     H2111774   0.232   3.333   2.336  0.5085 -2.1121  0.1479
  512DG     H2211775   0.289   3.097   2.485  1.5057 -0.5119  1.1541
  512DG     H2311776   0.130   3.141   2.403 -1.3388  2.7094 -1.6662
  513DG      C111777   5.088   1.561   5.097  0.0541  0.0053 -0.2568
  513DG      C211778   5.344   0.910   5.199  0.4379  0.3019  0.2643
  513DG      H311779   5.051   1.498   5.018  2.5907 -2.2788 -1.4804
  513DG      H411780   5.134   1.645   5.064  0.3222 -2.7502 -0.7050
  513DG      H511781   5.016   1.578   5.171  3.0611  0.8421 -0.4424
  513DG      H611782   5.315   0.977   5.279 -0.2905 -0.7608  1.2816
  513DG      H711783   5.258   0.866   5.151  1.0607  2.9109  0.2991
  513DG      H811784   5.395   0.825   5.239 -1.7358 -3.2989 -0.8432
  513DG      O911785   5.191   1.480   5.162  0.2408 -0.2690  0.6360
  513DG     O1011786   5.429   0.990   5.110 -0.1841 -0.1165 -0.8257
  513DG     C1111787   5.292   1.442   5.075 -0.2464  0.6772  0.4533
  513DG     C1211788   5.535   1.058   5.176 -0.1311  0.4397 -0.0616
  513DG     H1311789   5.337   1.523   5.028 -0.2857  2.5392  0.0910
  513DG     H1411790   5.246   1.382   4.995 -3.3412 -0.3427  1.1731
  513DG     H1511791   5.598   1.099   5.094 -4.1851  0.0831  2.8656
  513DG     H1611792   5.598   0.998   5.244  0.7280 -1.4495 -0.9098
  513DG     C1711793   5.398   1.375   5.162  0.0848 -0.1900 -0.5379
  513DG     C1811794   5.475   1.176   5.264 -0.3580 -0.5210 -0.5012
  513DG     O1911795   5.366   1.243   5.200 -0.4536  0.1601  0.5345
  513DG     H2011796   5.417   1.429   5.258 -1.5109 -0.9878  0.5814
  513DG     H2111797   5.495   1.372   5.113  1.2484 -2.6400  0.6663
  513DG     H2211798   5.430   1.136   5.354  0.2542 -0.1481  2.3039
  513DG     H2311799   5.554   1.249   5.295 -2.3215 -0.1815 -1.1040
  514DG      C111800   4.902   0.108   5.289  0.5364  0.1734  0.1196
  514DG      C211801   5.540  -0.196   5.358 -0.2214 -0.1137 -0.3872
  514DG      H311802   4.941   0.206   5.309 -1.3873 -0.0888 -0.9660
  514DG      H411803   4.837   0.089   5.373  1.5979 -1.0869 -1.9972
  514DG      H511804   4.829   0.121   5.203  1.8182 -0.3389  0.8879
  514DG      H611805   5.630  -0.136   5.384  1.1671 -1.4035  1.4299
  514DG      H711806   5.570  -0.300   5.379  0.5943  1.2862 -0.1698
  514DG      H811807   5.550  -0.181   5.247  2.1194  2.5742  0.9594
  514DG      O911808   5.000   0.012   5.261 -0.4743  0.7642  0.0980
  514DG     O1011809   5.420  -0.144   5.417 -0.2367 -0.4534  0.3407
  514DG     C1111810   4.947  -0.109   5.213 -0.1785  0.0854  0.1467
  514DG     C1211811   5.307  -0.228   5.386  0.0760 -0.1881 -0.3712
  514DG     H1311812   4.860  -0.094   5.146 -0.6393 -1.3565 -0.9445
  514DG     H1411813   4.902  -0.165   5.294 -0.3226  3.0240  1.1773
  514DG     H1511814   5.227  -0.215   5.460  0.5342  0.3955 -2.6162
  514DG     H1611815   5.344  -0.333   5.390 -0.3276  0.4488 -0.8677
  514DG     C1711816   5.037  -0.201   5.139  0.1059 -0.0033  0.0629
  514DG     C1811817   5.248  -0.192   5.246 -0.2969  0.0705 -0.4459
  514DG     O1911818   5.123  -0.259   5.229  0.1899  0.3618  0.0469
  514DG     H2011819   5.084  -0.143   5.060 -1.6189  0.3789 -0.4466
  514DG     H2111820   4.968  -0.278   5.094 -2.6605  0.4108 -1.6160
  514DG     H2211821   5.237  -0.082   5.241 -0.9090  0.7906  1.1495
  514DG     H2311822   5.321  -0.215   5.169  0.7907  1.5141 -1.1581
  515DG      C111823   4.201   4.716   1.178 -0.0537  0.4099  0.0610
  515DG      C211824   4.439   5.099   1.864 -0.2713 -0.2259  0.1056
  515DG      H311825   4.240   4.612   1.192  0.9230  0.3753  0.3239
  515DG      H411826   4.241   4.759   1.082  1.9944  0.8651 -0.7699
  515DG      H511827   4.093   4.712   1.171  1.7853  2.2525  0.0824
  515DG      H611828   4.391   5.005   1.892  1.4901  0.1169  0.2200
  515DG      H711829   4.548   5.099   1.884  3.5703  1.1652 -2.1776
  515DG      H811830   4.390   5.176   1.916 -4.6846  1.0190 -0.3720
  515DG      O911831   4.241   4.806   1.278  0.4065  0.1004 -0.4896
  515DG     O1011832   4.421   5.116   1.720  0.4711  0.2968 -0.2909
  515DG     C1111833   4.171   4.775   1.402 -0.2396  0.2428  0.8571
  515DG     C1211834   4.490   5.019   1.638 -0.2522  0.1470 -0.1790
  515DG     H1311835   4.165   4.667   1.407  0.6866 -1.3257 -0.1531
  515DG     H1411836   4.073   4.812   1.393  1.6333 -0.2692 -0.6369
  515DG     H1511837   4.510   4.919   1.676  3.2064  1.0157 -3.4585
  515DG     H1611838   4.588   5.059   1.609  1.1862 -0.9316 -1.6756
  515DG     C1711839   4.255   4.819   1.521  0.3978 -0.1834  0.9241
  515DG     C1811840   4.399   5.017   1.513 -0.3188 -0.3894  0.5225
  515DG     O1911841   4.267   4.957   1.541 -0.3002 -0.7195 -0.4469
  515DG     H2011842   4.352   4.769   1.524  1.0263 -1.5760 -0.4875
  515DG     H2111843   4.200   4.778   1.603 -0.9955 -0.0075  0.7714
  515DG     H2211844   4.390   5.127   1.479 -0.6127  1.7990  0.1558
  515DG     H2311845   4.455   4.960   1.438  1.7937  0.1075 -0.1977
  516DG      C111846   4.842   0.093   4.898 -0.9829 -0.0337  0.3246
  516DG      C211847   3.966  -0.002   5.093 -0.0689  0.2828  0.7175
  516DG      H311848   4.942   0.093   4.940  0.1716 -1.0143  1.7659
  516DG      H411849   4.809   0.195   4.896 -0.6457  1.0565  1.5206
  516DG      H511850   4.829   0.043   4.799 -1.7029 -0.8509 -0.0778
  516DG      H611851   3.957   0.028   4.985  2.7287  2.9380 -1.6592
  516DG      H711852   4.011  -0.097   5.102  2.0758  0.8286 -0.1293
  516DG      H811853   3.874   0.007   5.150 -0.3292  0.6088 -1.0694
  516DG      O911854   4.755   0.034   4.990 -0.0332  0.4772  0.2617
  516DG     O1011855   4.067   0.068   5.160 -0.5110  0.4623  0.9257
  516DG     C1111856   4.630   0.097   4.999  0.2743  0.0599  0.0306
  516DG     C1211857   4.177   0.089   5.070  0.0845  0.4513 -0.9286
  516DG     H1311858   4.593   0.108   4.899  1.1021  0.8958  1.7163
  516DG     H1411859   4.631   0.192   5.057 -1.1646 -0.5489 -1.4993
  516DG     H1511860   4.200   0.191   5.106  1.7973  0.0216  0.7041
  516DG     H1611861   4.143   0.093   4.965 -1.5094 -0.7218  2.3027
  516DG     C1711862   4.530  -0.001   5.071  0.9098  0.0705  0.1051
  516DG     C1811863   4.298  -0.012   5.085  0.3556 -0.1477  0.0370
  516DG     O1911864   4.412   0.070   5.069 -0.0205  0.1571 -0.3152
  516DG     H2011865   4.569  -0.018   5.171 -0.8986 -1.9774  1.2493
  516DG     H2111866   4.525  -0.098   5.031 -1.2774 -0.4742  1.7840
  516DG     H2211867   4.307  -0.042   5.190 -2.3940  0.9461 -1.5823
  516DG     H2311868   4.284  -0.098   5.015 -2.3590  0.2022  2.3971
  517DG      C111869   1.661   5.189   0.212  0.1528 -0.2312  0.5947
  517DG      C211870   1.166   5.760   0.189  0.4394  0.1894  0.1282
  517DG      H311871   1.761   5.160   0.244 -2.9229  0.7113  0.8209
  517DG      H411872   1.670   5.212   0.103  0.0525  2.6733  0.1047
  517DG      H511873   1.592   5.104   0.207 -0.9834  1.9236  0.1836
  517DG      H611874   1.132   5.822   0.268 -0.4123 -0.7659  0.1145
  517DG      H711875   1.176   5.828   0.103  1.2928 -1.2646 -1.2968
  517DG      H811876   1.092   5.684   0.174  0.7404  1.9724  0.3686
  517DG      O911877   1.604   5.304   0.278 -0.5986 -0.5144  0.4930
  517DG     O1011878   1.293   5.713   0.221  0.2834  0.2759  0.2528
  517DG     C1111879   1.690   5.423   0.265  0.5195  0.3301 -0.3258
  517DG     C1211880   1.288   5.663   0.355  0.0427  0.6699 -0.1834
  517DG     H1311881   1.689   5.464   0.165  1.1130 -1.3590 -1.5297
  517DG     H1411882   1.789   5.392   0.292 -0.0844 -1.2426 -0.5993
  517DG     H1511883   1.231   5.574   0.357 -0.4732  0.4426  1.0774
  517DG     H1611884   1.240   5.736   0.419  1.0858  1.9949  0.5068
  517DG     C1711885   1.634   5.534   0.352  0.0903  0.1502 -0.3142
  517DG     C1811886   1.430   5.643   0.409  0.1894 -0.5179  0.2716
  517DG     O1911887   1.491   5.536   0.347  0.1861  0.2342  0.4343
  517DG     H2011888   1.666   5.639   0.331  0.0123  5.0257  2.3641
  517DG     H2111889   1.676   5.520   0.452 -0.3359 -0.5982 -0.2152
  517DG     H2211890   1.495   5.732   0.392  1.6689  1.1684 -1.7745
  517DG     H2311891   1.410   5.617   0.516 -0.9110  0.8085 -0.4943
  518DG      C111892   0.212   1.388   0.079 -0.2313 -0.1792  0.2116
  518DG      C211893  -0.547   1.399   0.455  0.3424 -0.0514  0.0809
  518DG      H311894   0.301   1.438   0.054 -1.6365 -0.6846 -0.0861
  518DG      H411895   0.199   1.292   0.027 -1.2742 -0.5938 -0.8615
  518DG      H511896   0.224   1.364   0.181 -0.4827 -2.4243 -0.8754
  518DG      H611897  -0.612   1.483   0.477  3.7901  0.7119 -0.0730
  518DG      H711898  -0.598   1.314   0.412  0.3326 -3.6069 -0.0694
  518DG      H811899  -0.501   1.364   0.545  1.0869 -0.8635 -0.7251
  518DG      O911900   0.104   1.477   0.070 -0.1730 -0.0987  0.1200
  518DG     O1011901  -0.437   1.450   0.382  0.2701  0.9148  0.1133
  518DG     C1111902  -0.026   1.416   0.082  0.2300  0.0128  0.5753
  518DG     C1211903  -0.469   1.519   0.257  0.2318 -0.0176 -0.3630
  518DG     H1311904  -0.035   1.361   0.179 -1.6818 -1.8862  1.1872
  518DG     H1411905  -0.046   1.355  -0.007  0.2725 -0.0340 -1.8116
  518DG     H1511906  -0.531   1.603   0.290  2.3936  0.4181  2.1576
  518DG     H1611907  -0.530   1.451   0.193  1.2618 -0.4251  1.5376
  518DG     C1711908  -0.132   1.522   0.075 -0.6544  0.1982 -0.0156
  518DG     C1811909  -0.343   1.569   0.180 -0.4934  0.5260 -0.2817
  518DG     O1911910  -0.241   1.475   0.149 -0.1892 -0.1880  0.0410
  518DG     H2011911  -0.154   1.570  -0.018 -1.0887 -1.1855 -0.2187
  518DG     H2111912  -0.100   1.612   0.135  3.2744 -0.4483  0.2970
  518DG     H2211913  -0.372   1.623   0.093 -1.4404 -0.3945  1.4521
  518DG     H2311914  -0.295   1.632   0.248 -0.4981 -1.6965  0.4489
  519DG      C111915   4.149   0.978   2.492  0.2346 -0.5278  0.3232
  519DG      C211916   3.979   0.860   3.178 -0.4518 -0.3907 -0.7651
  519DG      H311917   4.092   1.068   2.526  1.3473 -1.4551 -1.7140
  519DG      H411918   4.073   0.928   2.426 -0.3906 -0.8732 -0.4919
  519DG      H511919   4.232   1.009   2.428  0.1898  0.2283 -3.4565
  519DG      H611920   3.927   0.763   3.175 -1.4668 -1.8341  1.0046
  519DG      H711921   3.999   0.871   3.282  1.5878 -0.3572 -0.6838
  519DG      H811922   3.908   0.937   3.145 -3.0660  1.2703 -4.2708
  519DG      O911923   4.192   0.891   2.592  0.3932 -0.6964 -0.6195
  519DG     O1011924   4.096   0.882   3.093  0.2578 -0.2553  0.5047
  519DG     C1111925   4.307   0.944   2.655 -0.0259  0.8176  0.3455
  519DG     C1211926   4.203   0.792   3.104  0.1097  0.5007  0.3967
  519DG     H1311927   4.286   1.047   2.686 -1.2636 -0.4641  0.1963
  519DG     H1411928   4.383   0.953   2.579 -2.4458  1.3121  1.3142
  519DG     H1511929   4.161   0.691   3.103 -1.2045 -1.1138 -0.1831
  519DG     H1611930   4.234   0.786   3.206  0.5357 -2.2942  0.3974
  519DG     C1711931   4.359   0.867   2.782 -0.1080  0.0201 -0.4363
  519DG     C1811932   4.322   0.829   3.011 -0.1862 -0.5328 -0.0811
  519DG     O1911933   4.266   0.869   2.885  0.0592 -0.3944  0.3639
  519DG     H2011934   4.450   0.914   2.815  2.0269  0.3522 -0.1324
  519DG     H2111935   4.394   0.766   2.767  0.8890  2.2992 -0.4477
  519DG     H2211936   4.371   0.920   3.058 -1.6548  1.8389  0.2872
  519DG     H2311937   4.391   0.755   3.010 -0.8941  0.0733  0.2015
  520DG      C111938   5.302   2.779   0.737 -0.0601 -0.6729  0.4896
  520DG      C211939   5.689   2.427   0.307  0.4136 -0.1406 -0.1450
  520DG      H311940   5.328   2.855   0.667 -2.2002 -0.0529 -0.4454
  520DG      H411941   5.371   2.773   0.823 -1.6343 -0.4408  0.1971
  520DG      H511942   5.209   2.820   0.788 -0.1305 -0.3644 -0.5471
  520DG      H611943   5.709   2.524   0.259 -2.1784  3.6086  0.4948
  520DG      H711944   5.760   2.399   0.387 -3.1821  0.6130  0.3380
  520DG      H811945   5.698   2.357   0.218 -1.2793 -0.3287 -0.3119
  520DG      O911946   5.274   2.663   0.657 -0.1340 -0.1314  0.4006
  520DG     O1011947   5.553   2.423   0.353  0.8004 -0.2436  0.3138
  520DG     C1111948   5.246   2.545   0.735  0.1177  0.8446 -0.2597
  520DG     C1211949   5.534   2.320   0.449  0.0770  0.3216 -0.7406
  520DG     H1311950   5.153   2.551   0.790 -1.6705 -0.6666  2.8457
  520DG     H1411951   5.327   2.533   0.812 -0.7918 -0.7127  1.8243
  520DG     H1511952   5.606   2.310   0.532  0.2344 -0.1766  1.9269
  520DG     H1611953   5.561   2.223   0.401 -0.0587  1.8857  1.0633
  520DG     C1711954   5.245   2.429   0.640  0.5738 -0.7027  0.5532
  520DG     C1811955   5.388   2.318   0.493  0.0561 -0.3343  0.1382
  520DG     O1911956   5.379   2.413   0.599  0.3607 -0.7446 -0.0381
  520DG     H2011957   5.182   2.456   0.551  1.8209  0.1551 -0.9234
  520DG     H2111958   5.212   2.343   0.693 -1.6748  1.2883 -1.1141
  520DG     H2211959   5.314   2.350   0.414  0.4319  0.1920 -0.2028
  520DG     H2311960   5.356   2.223   0.528  1.7641 -0.0382  1.6979
  521DG      C111961   4.277   0.486   5.107 -0.9780  0.6072 -0.0923
  521DG      C211962   4.381   0.796   5.653 -0.4334  0.5227 -0.0743
  521DG      H311963   4.171   0.499   5.148 -2.7865  1.5582  0.9405
  521DG      H411964   4.262   0.409   5.028 -0.8450  0.9464  1.4864
  521DG      H511965   4.309   0.576   5.057 -3.2152 -4.0327 -1.2039
  521DG      H611966   4.301   0.728   5.686 -0.0208  0.9583 -1.3277
  521DG      H711967   4.459   0.804   5.733  2.3853  0.8282 -2.4211
  521DG      H811968   4.337   0.892   5.640  0.0644 -1.1791 -2.7487
  521DG      O911969   4.360   0.440   5.211 -0.1280 -0.5028  0.7565
  521DG     O1011970   4.427   0.756   5.527  0.1406  0.0958  0.0197
  521DG     C1111971   4.494   0.441   5.174 -0.3655  0.2019  0.0581
  521DG     C1211972   4.568   0.772   5.504  0.4054 -0.0820 -0.6035
  521DG     H1311973   4.506   0.399   5.072 -1.7529  2.2203  2.3034
  521DG     H1411974   4.545   0.367   5.236 -0.3920 -1.6302 -1.0712
  521DG     H1511975   4.614   0.698   5.566 -1.3560 -3.2284  0.8408
  521DG     H1611976   4.630   0.858   5.523  2.1243 -0.4362 -1.0695
  521DG     C1711977   4.552   0.586   5.190 -0.1943  0.4342  0.7136
  521DG     C1811978   4.593   0.749   5.357 -1.1702 -0.1596  0.5076
  521DG     O1911979   4.526   0.628   5.319 -0.5337 -0.2676  0.1707
  521DG     H2011980   4.504   0.661   5.127  1.5776 -1.1813  0.9025
  521DG     H2111981   4.658   0.587   5.157  1.3844  0.6316  2.1457
  521DG     H2211982   4.552   0.829   5.300 -3.1727  4.8530 -0.9372
  521DG     H2311983   4.700   0.741   5.334 -0.6034  1.4727 -1.2051
  522DG      C111984   4.658   4.623   1.724  0.0107 -0.3130 -0.3916
  522DG      C211985   4.097   4.468   1.625 -0.3198  0.1586  0.0808
  522DG      H311986   4.611   4.577   1.815  0.5235 -4.4231 -2.5235
  522DG      H411987   4.619   4.720   1.731  1.9731  0.0581 -0.7698
  522DG      H511988   4.763   4.622   1.736 -3.0982  2.6588 -0.3520
  522DG      H611989   4.013   4.531   1.605 -0.5469 -1.0612  4.0538
  522DG      H711990   4.060   4.388   1.693 -1.8649 -1.2907 -1.5220
  522DG      H811991   4.170   4.535   1.673 -1.3026  0.0206  2.2014
  522DG      O911992   4.616   4.560   1.604  0.4306  1.0167  0.8367
  522DG     O1011993   4.135   4.421   1.499 -0.0670  0.3962  0.1687
  522DG     C1111994   4.666   4.431   1.592 -0.2022  0.2896 -0.5089
  522DG     C1211995   4.250   4.340   1.497  0.5948 -0.2180  0.4460
  522DG     H1311996   4.637   4.371   1.681 -0.3101 -1.4663 -1.4682
  522DG     H1411997   4.772   4.429   1.579 -0.0333 -1.1195  0.4654
  522DG     H1511998   4.243   4.274   1.412  1.2023  0.5660  2.3688
  522DG     H1611999   4.252   4.267   1.580 -0.3777 -0.4386 -0.4901
  522DG     C1712000   4.611   4.370   1.464 -0.4593  0.2538  0.1608
  522DG     C1812001   4.382   4.414   1.505  0.4366 -0.9924 -0.1707
  522DG     O1912002   4.480   4.316   1.483  0.6600  0.7673  0.2740
  522DG     H2012003   4.686   4.289   1.433  0.7697  3.3197 -1.0979
  522DG     H2112004   4.618   4.446   1.382 -2.1977  3.1429 -0.7354
  522DG     H2212005   4.376   4.484   1.419 -4.2483 -0.4159  2.3876
  522DG     H2312006   4.389   4.464   1.602 -1.6487 -1.0272 -0.9297
  523DG      C112007   0.673   4.254   0.394 -0.1671  0.1486  0.3181
  523DG      C212008   1.174   4.548   0.721  0.0326  0.4088  0.2271
  523DG      H312009   0.672   4.312   0.478 -0.3741 -1.8092 -1.5686
  523DG      H412010   0.597   4.184   0.388  2.0851 -1.8300 -0.1437
  523DG      H512011   0.672   4.318   0.311  2.4794  3.4258 -2.0314
  523DG      H612012   1.144   4.648   0.750  0.7310 -1.5428 -0.7815
  523DG      H712013   1.268   4.513   0.773 -0.2477 -1.8901  0.3060
  523DG      H812014   1.187   4.533   0.609  0.5038  0.9643  0.8671
  523DG      O912015   0.799   4.190   0.399 -0.5241  0.4397 -0.4341
  523DG     O1012016   1.063   4.471   0.771  0.6668  0.0130 -0.1791
  523DG     C1112017   0.900   4.248   0.313  0.0341 -0.3329 -0.0454
  523DG     C1212018   1.066   4.328   0.740  0.7623 -0.1090  0.8714
  523DG     H1312019   0.874   4.272   0.211  1.2673 -0.2798  0.8369
  523DG     H1412020   0.977   4.171   0.310 -1.6180 -1.5897 -3.8528
  523DG     H1512021   0.987   4.280   0.787  0.1201  1.3062  0.5688
  523DG     H1612022   1.154   4.279   0.772  1.1205  1.1089 -3.1500
  523DG     C1712023   0.965   4.376   0.367 -0.2659 -0.4235  0.5512
  523DG     C1812024   1.056   4.298   0.592  0.7137 -0.3853  0.0969
  523DG     O1912025   0.959   4.380   0.509  0.2285 -0.2271 -0.1890
  523DG     H2012026   0.900   4.452   0.330 -0.4192  4.0759  1.2622
  523DG     H2112027   1.065   4.391   0.320 -0.3376 -1.3215 -1.5315
  523DG     H2212028   1.152   4.321   0.540  0.8285  0.2766 -0.3766
  523DG     H2312029   1.049   4.192   0.564  0.1316  2.4829 -1.7736
  524DG      C112030   3.611   3.254   5.055 -0.2890 -0.5058  0.4485
  524DG      C212031   3.201   3.322   4.375 -0.1610  0.0420 -0.2803
  524DG      H312032   3.698   3.199   5.006 -0.1064 -0.1499 -0.3378
  524DG      H412033   3.607   3.219   5.161 -2.9133  0.2226  0.1957
  524DG      H512034   3.630   3.361   5.061 -0.4023 -0.9075 -1.2833
  524DG      H612035   3.288   3.352   4.315 -2.8224  1.2591 -1.0086
  524DG      H712036   3.148   3.243   4.326 -1.6918  1.5883  0.3533
  524DG      H812037   3.130   3.397   4.377  0.3556 -2.3767 -0.1784
  524DG      O912038   3.499   3.229   4.979  0.4861 -0.1187  0.2302
  524DG     O1012039   3.256   3.278   4.499 -0.1127  0.5819 -0.4382
  524DG     C1112040   3.391   3.320   4.982  0.3652 -0.2720  0.1545
  524DG     C1212041   3.147   3.254   4.588  0.4221  0.2040 -0.1208
  524DG     H1312042   3.422   3.410   4.923  1.0940  1.5659 -1.1025
  524DG     H1412043   3.352   3.342   5.085  0.1144  0.0157  2.4669
  524DG     H1512044   3.061   3.210   4.532 -0.5136  0.0125 -2.2450
  524DG     H1612045   3.111   3.347   4.623  2.2540  1.5964 -0.2246
  524DG     C1712046   3.269   3.275   4.902  0.6838  0.4045  0.0680
  524DG     C1812047   3.186   3.162   4.704 -0.0182 -0.4514 -0.1302
  524DG     O1912048   3.292   3.208   4.784 -0.1997  0.3898  0.0678
  524DG     H2012049   3.209   3.362   4.874 -0.1181  1.4630 -1.5035
  524DG     H2112050   3.209   3.213   4.966  0.1659  2.0838  1.5942
  524DG     H2212051   3.100   3.135   4.766 -3.1283  2.0026  0.5342
  524DG     H2312052   3.221   3.071   4.661  0.8347 -1.8729 -0.4789
  525DG      C112053   1.551   2.350   5.127 -0.0415 -1.2880 -0.1304
  525DG      C212054   1.406   2.303   4.508  0.7509 -0.7714 -0.0422
  525DG      H312055   1.512   2.275   5.200 -0.5920 -0.8534 -2.3699
  525DG      H412056   1.549   2.448   5.172  0.0212 -1.1607 -1.9249
  525DG      H512057   1.649   2.319   5.102  2.2926 -2.1881 -0.2118
  525DG      H612058   1.356   2.284   4.416  0.4260  0.5900  2.0799
  525DG      H712059   1.508   2.277   4.481 -1.1742 -0.4021 -0.2424
  525DG      H812060   1.359   2.240   4.582  2.8335  1.3675 -1.1629
  525DG      O912061   1.469   2.343   5.005  0.3494  0.0414 -0.2761
  525DG     O1012062   1.398   2.437   4.544 -0.3175 -0.2208 -0.0750
  525DG     C1112063   1.331   2.379   5.032  1.1226 -0.3112 -0.4608
  525DG     C1212064   1.271   2.493   4.568 -0.1401 -0.0534  0.2757
  525DG     H1312065   1.315   2.482   5.059  1.2343 -1.7074 -1.6072
  525DG     H1412066   1.302   2.316   5.118  1.1892 -1.0249  1.6048
  525DG     H1512067   1.199   2.461   4.492  1.2844  1.5501  1.2959
  525DG     H1612068   1.287   2.604   4.571  2.2194  2.4602 -2.9308
  525DG     C1712069   1.243   2.357   4.917 -0.2659  0.3922 -0.7398
  525DG     C1812070   1.210   2.449   4.704 -0.4961 -0.3416  0.0678
  525DG     O1912071   1.302   2.425   4.808 -0.1615 -0.2212  0.1198
  525DG     H2012072   1.139   2.395   4.936 -0.0729  1.7122 -0.6139
  525DG     H2112073   1.236   2.249   4.893 -0.0247 -2.0620  3.0827
  525DG     H2212074   1.142   2.522   4.734 -1.8198  0.3616 -3.5667
  525DG     H2312075   1.143   2.367   4.681  1.3199  1.6081 -0.1138
  526DG      C112076   0.887   3.374   2.927  0.0903 -0.4083  0.9313
  526DG      C212077   0.143   2.952   3.048  0.3423 -0.4709 -0.0571
  526DG      H312078   0.983   3.347   2.903  2.6271  0.5195  1.2230
  526DG      H412079   0.895   3.461   2.990  1.7538 -0.6137  2.6838
  526DG      H512080   0.836   3.400   2.838 -0.6655  2.2622 -0.8669
  526DG      H612081   0.067   2.968   2.974 -2.7639 -0.5867  1.8176
  526DG      H712082   0.131   2.856   3.085 -0.1054  0.0249  1.2206
  526DG      H812083   0.118   3.016   3.125  0.1003 -0.8674  0.1291
  526DG      O912084   0.820   3.263   2.994 -0.0031 -0.0676 -0.0407
  526DG     O1012085   0.269   2.981   2.993 -0.6187  0.2583  0.0893
  526DG     C1112086   0.685   3.291   3.023  0.6429  0.0508  0.0759
  526DG     C1212087   0.373   2.968   3.094  0.4302  0.0164  0.2696
  526DG     H1312088   0.626   3.318   2.939  0.3274 -2.8065 -0.6298
  526DG     H1412089   0.685   3.378   3.092  0.6983  0.1562 -0.4024
  526DG     H1512090   0.362   2.883   3.166 -0.1012 -2.2337  1.2488
  526DG     H1612091   0.346   3.052   3.165 -0.8086 -0.3563  2.3676
  526DG     C1712092   0.619   3.173   3.087 -0.6709 -0.4880 -0.0276
  526DG     C1812093   0.525   2.957   3.045  0.0772 -0.2299  0.2174
  526DG     O1912094   0.578   3.078   2.985 -0.1945 -0.8018 -0.0737
  526DG     H2012095   0.534   3.192   3.152  2.1639 -0.3515  2.8138
  526DG     H2112096   0.686   3.124   3.152  0.0523  2.4818 -2.4090
  526DG     H2212097   0.597   2.926   3.121  1.0396  0.7461  3.1997
  526DG     H2312098   0.536   2.893   2.953  0.1381  0.1966 -0.2314
  527DG      C112099   2.225   1.446   2.579  0.1993 -0.4810  0.3545
  527DG      C212100   2.108   1.820   3.111  0.1049 -0.2748  0.0479
  527DG      H312101   2.316   1.399   2.536 -0.4506 -1.3004  2.2815
  527DG      H412102   2.160   1.463   2.495  1.9167  0.2186  4.6325
  527DG      H512103   2.185   1.374   2.648 -0.8172 -2.0341  1.6633
  527DG      H612104   2.187   1.748   3.139  1.6865 -0.1904  0.1348
  527DG      H712105   2.108   1.916   3.169  2.1986 -2.1225  2.1176
  527DG      H812106   2.016   1.768   3.132  0.7145 -0.4226  1.8347
  527DG      O912107   2.250   1.570   2.640 -0.8668 -0.0109 -0.2954
  527DG     O1012108   2.128   1.844   2.971  1.0357 -0.0737  0.3960
  527DG     C1112109   2.356   1.648   2.578  0.5047 -0.2325 -0.6799
  527DG     C1212110   2.225   1.945   2.951 -1.0485  0.0494  0.4597
  527DG     H1312111   2.352   1.654   2.468  0.3099  0.9097 -0.0556
  527DG     H1412112   2.451   1.602   2.596  1.4388 -0.9436 -2.4357
  527DG     H1512113   2.321   1.925   3.005  1.8982 -1.8904  1.0362
  527DG     H1612114   2.186   2.041   2.988 -0.2442 -1.6294  0.3177
  527DG     C1712115   2.355   1.795   2.627  0.5205  0.2800 -0.0318
  527DG     C1812116   2.270   1.944   2.804  0.1747  0.0963 -0.3486
  527DG     O1912117   2.308   1.814   2.763  0.2079 -0.4648  0.2092
  527DG     H2012118   2.287   1.868   2.573 -1.8010  3.0182 -1.3006
  527DG     H2112119   2.454   1.837   2.612 -1.9804 -3.5634 -0.8229
  527DG     H2212120   2.173   1.957   2.752  1.4832 -0.9423  0.0023
  527DG     H2312121   2.334   2.026   2.784  0.5052  1.3034  1.6243
  528DG      C112122   4.716   4.535   2.645 -0.1679  0.5351  0.5624
  528DG      C212123   4.474   3.893   2.431  0.2332 -1.1134 -0.3846
  528DG      H312124   4.614   4.530   2.637  3.3981 -2.7122 -0.4989
  528DG      H412125   4.756   4.543   2.545 -0.9007 -1.0146 -2.2291
  528DG      H512126   4.751   4.622   2.698 -3.0589 -0.7151 -0.2970
  528DG      H612127   4.431   3.901   2.337  2.2382 -1.6356  2.7757
  528DG      H712128   4.581   3.872   2.410 -1.0705 -1.1099 -2.1864
  528DG      H812129   4.425   3.815   2.478 -1.5002 -0.8952 -3.4662
  528DG      O912130   4.752   4.401   2.686 -0.6427 -0.7082  0.0061
  528DG     O1012131   4.468   4.018   2.496 -0.3033  0.6526  0.1318
  528DG     C1112132   4.722   4.373   2.825 -0.2869 -0.1606 -0.7582
  528DG     C1212133   4.532   4.032   2.616  0.5203  0.6598  0.1773
  528DG     H1312134   4.728   4.467   2.883  1.3214 -3.6881 -1.6771
  528DG     H1412135   4.799   4.302   2.852 -0.9985 -1.3936 -1.4524
  528DG     H1512136   4.631   3.993   2.606  0.8831  0.7032  0.9297
  528DG     H1612137   4.471   3.983   2.687  1.9832  1.6741 -1.6817
  528DG     C1712138   4.591   4.305   2.850  0.0914 -0.2654 -0.2201
  528DG     C1812139   4.535   4.178   2.661  1.0013 -0.1381  0.1274
  528DG     O1912140   4.599   4.180   2.793  0.1707 -0.3090  0.1034
  528DG     H2012141   4.505   4.359   2.817  2.1590  0.4853 -0.9599
  528DG     H2112142   4.586   4.300   2.956 -0.0086  2.9651 -1.5246
  528DG     H2212143   4.587   4.233   2.579 -0.9612 -0.8496  1.2830
  528DG     H2312144   4.431   4.214   2.670 -1.8415  0.1649  0.4161
  529DG      C112145   4.940   3.473   0.906 -0.0250  0.1787 -0.0878
  529DG      C212146   5.180   3.803   1.634 -0.1399  0.2224 -0.4517
  529DG      H312147   4.833   3.454   0.897  1.5750  0.6276 -0.4633
  529DG      H412148   4.972   3.409   0.827 -0.5220  0.9257  0.2334
  529DG      H512149   4.956   3.580   0.884 -2.7670 -0.2492 -0.0793
  529DG      H612150   5.257   3.824   1.708  1.4761  0.5950  0.4733
  529DG      H712151   5.167   3.897   1.584  0.5296 -1.7519  0.8448
  529DG      H812152   5.083   3.762   1.675 -2.2482  2.3008  1.1314
  529DG      O912153   4.986   3.429   1.036  0.8140 -0.2720  0.6733
  529DG     O1012154   5.246   3.707   1.543  0.3477  0.1151 -0.5692
  529DG     C1112155   5.130   3.421   1.035 -0.1504  0.2929 -0.4828
  529DG     C1212156   5.174   3.684   1.430  1.0078 -0.7512 -0.1375
  529DG     H1312157   5.170   3.514   0.998  1.1910 -1.6386 -1.1943
  529DG     H1412158   5.178   3.365   0.962  1.1619 -0.5681  2.2158
  529DG     H1512159   5.198   3.767   1.370 -2.5326 -0.0496  2.2652
  529DG     H1612160   5.066   3.676   1.446  0.2139  1.8749  0.6110
  529DG     C1712161   5.181   3.412   1.179  0.0337  0.0037  0.1416
  529DG     C1812162   5.221   3.556   1.370  0.6277  0.1417  0.4336
  529DG     O1912163   5.166   3.539   1.237  0.4883  0.0548  0.9062
  529DG     H2012164   5.288   3.396   1.173 -1.1332  2.8795 -0.1974
  529DG     H2112165   5.147   3.319   1.225  2.1289  0.8472  1.1009
  529DG     H2212166   5.330   3.569   1.364  0.1291 -0.4058  0.9675
  529DG     H2312167   5.186   3.481   1.435 -2.0270  0.7917  1.3820
  530DG      C112168   4.883   5.201   3.784  0.0740 -0.6992  0.4538
  530DG      C212169   4.593   5.892   3.779  0.7352 -0.0613  0.3251
  530DG      H312170   4.924   5.168   3.686  2.0030  3.1111  1.1512
  530DG      H412171   4.874   5.110   3.841  0.5063  0.5017 -1.7722
  530DG      H512172   4.972   5.267   3.808  2.6422 -0.8831  0.6944
  530DG      H612173   4.500   5.945   3.790  1.8132 -1.7489  0.7762
  530DG      H712174   4.666   5.937   3.845  0.8946  0.5783 -2.3590
  530DG      H812175   4.620   5.913   3.666 -1.6677  0.5743  1.3719
  530DG      O912176   4.762   5.274   3.766  0.2500 -0.3264 -0.2828
  530DG     O1012177   4.570   5.749   3.794 -0.1461 -0.7818  0.1817
  530DG     C1112178   4.697   5.309   3.889 -0.0476 -0.4416  0.0202
  530DG     C1212179   4.467   5.704   3.710  0.1960 -0.1867  0.2866
  530DG     H1312180   4.766   5.361   3.956 -3.8225 -0.2137  1.0070
  530DG     H1412181   4.685   5.219   3.942  1.5379  1.5768 -0.2013
  530DG     H1512182   4.487   5.719   3.604 -0.7632 -0.4340  2.7725
  530DG     H1612183   4.369   5.749   3.736  2.0921 -1.1079  1.2795
  530DG     C1712184   4.561   5.378   3.861 -0.0188 -0.2520 -0.5764
  530DG     C1812185   4.453   5.552   3.737  0.6841  0.4122 -0.2221
  530DG     O1912186   4.574   5.491   3.775 -0.1796 -0.0275  0.1140
  530DG     H2012187   4.524   5.409   3.961 -0.5222 -0.2611  0.6753
  530DG     H2112188   4.497   5.305   3.825 -0.9887  4.0786  0.7483
  530DG     H2212189   4.385   5.545   3.826  1.3550  0.6652  0.9802
  530DG     H2312190   4.418   5.495   3.655 -0.2417 -0.6333 -0.7423
  531DG      C112191   4.490   3.650   1.111  0.0464 -0.2875  0.3142
  531DG      C212192   4.535   3.600   1.757 -0.0282  0.2853 -0.9535
  531DG      H312193   4.390   3.637   1.142  0.6152 -1.0470 -0.8215
  531DG      H412194   4.499   3.610   1.008 -1.0111  0.0228 -2.0849
  531DG      H512195   4.499   3.768   1.103 -1.4741  1.2572  3.9251
  531DG      H612196   4.594   3.596   1.853 -1.1909  0.1404  1.4504
  531DG      H712197   4.472   3.684   1.765 -0.1672  0.9180  1.6277
  531DG      H812198   4.481   3.502   1.745 -1.0976  0.5570  0.2343
  531DG      O912199   4.591   3.608   1.200  0.2368 -0.4669 -0.0249
  531DG     O1012200   4.631   3.616   1.651  0.6450  0.6451 -0.4959
  531DG     C1112201   4.728   3.648   1.167  0.4082  0.4428  0.0100
  531DG     C1212202   4.732   3.513   1.641  0.5350 -0.8358 -0.3116
  531DG     H1312203   4.721   3.750   1.155 -0.3652 -2.1303 -0.6864
  531DG     H1412204   4.756   3.607   1.066 -0.2257  1.8752 -2.8940
  531DG     H1512205   4.680   3.417   1.630 -1.2629  1.6438  2.2165
  531DG     H1612206   4.794   3.499   1.730  3.2321  0.3980 -0.2051
  531DG     C1712207   4.825   3.607   1.282  0.2154  0.1278 -0.1048
  531DG     C1812208   4.810   3.543   1.514  0.7704  0.9596 -0.4925
  531DG     O1912209   4.742   3.603   1.400 -0.0761  0.1655  0.6336
  531DG     H2012210   4.910   3.670   1.298 -0.1334  0.4205 -0.7238
  531DG     H2112211   4.862   3.513   1.247  0.9335 -0.6831  2.3652
  531DG     H2212212   4.902   3.587   1.546 -0.4849  1.8768  0.3936
  531DG     H2312213   4.845   3.451   1.479 -1.3363  2.3916  3.4109
  532DG      C112214   3.225   2.749   0.758 -0.0254  0.4450  0.7632
  532DG      C212215   3.840   2.916   0.511  0.0822  0.2386 -0.1810
  532DG      H312216   3.158   2.786   0.677  0.3788 -1.1274 -2.2419
  532DG      H412217   3.259   2.832   0.811 -0.0929 -1.2943  0.0549
  532DG      H512218   3.172   2.673   0.826 -2.4993 -0.0054 -2.1489
  532DG      H612219   3.917   2.840   0.523 -2.2213  0.9635 -2.8024
  532DG      H712220   3.850   2.975   0.419  0.1830  0.1518  0.0381
  532DG      H812221   3.836   2.988   0.592 -0.3247  0.1721  1.6138
  532DG      O912222   3.334   2.684   0.698 -0.0091  1.0653  0.1350
  532DG     O1012223   3.706   2.852   0.513 -0.5284 -0.0412 -0.9312
  532DG     C1112224   3.305   2.601   0.582 -0.1518 -0.3647 -0.3644
  532DG     C1212225   3.692   2.759   0.407 -0.1942  0.9478 -1.2237
  532DG     H1312226   3.278   2.669   0.501  0.1724  3.2258  2.6535
  532DG     H1412227   3.220   2.540   0.592 -0.3434  0.4782 -1.5343
  532DG     H1512228   3.759   2.674   0.416 -0.1263  1.1509  1.3278
  532DG     H1612229   3.706   2.804   0.309  0.9063  0.3153  0.5282
  532DG     C1712230   3.429   2.532   0.535  1.1283 -0.5857 -0.3577
  532DG     C1812231   3.555   2.692   0.405  0.0072  0.1473 -0.0572
  532DG     O1912232   3.540   2.620   0.529  0.8054  0.0723  0.8946
  532DG     H2012233   3.411   2.493   0.438 -0.4346  1.3074 -0.1819
  532DG     H2112234   3.443   2.446   0.605  0.6812  2.1325  0.4013
  532DG     H2212235   3.478   2.773   0.399 -0.7034  1.2274 -3.2797
  532DG     H2312236   3.541   2.629   0.314  1.2209  0.7963 -1.9816
  533DG      C112237   3.122   3.494   0.856  0.0947 -0.1942  0.4502
  533DG      C212238   2.418   3.226   1.094  0.2713  0.3512 -0.2634
  533DG      H312239   3.173   3.584   0.848  0.7202 -0.2250  2.4300
  533DG      H412240   3.078   3.449   0.766 -1.8747 -1.6628 -0.8813
  533DG      H512241   3.192   3.426   0.914 -0.7296  0.4048  4.8879
  533DG      H612242   2.475   3.239   1.004 -0.1364 -1.5506  1.6694
  533DG      H712243   2.345   3.153   1.081  0.5738 -0.3009  2.1157
  533DG      H812244   2.371   3.322   1.107 -0.0118  1.2006  1.1122
  533DG      O912245   3.020   3.537   0.943  0.1410 -0.5347  0.0808
  533DG     O1012246   2.501   3.190   1.196 -0.4125 -0.7198 -0.1521
  533DG     C1112247   2.941   3.424   0.991  0.5719 -0.4564  0.2141
  533DG     C1212248   2.567   3.292   1.266  0.4727  1.2363 -0.4128
  533DG     H1312249   2.997   3.366   1.063 -1.9462 -1.8577 -1.3811
  533DG     H1412250   2.926   3.348   0.906 -0.6854 -4.3569  1.1367
  533DG     H1512251   2.644   3.241   1.322  0.6001  0.5772 -0.6626
  533DG     H1612252   2.488   3.332   1.329 -1.1018 -0.2760 -1.5988
  533DG     C1712253   2.808   3.473   1.044  0.3469 -0.5589 -0.1310
  533DG     C1812254   2.632   3.408   1.187 -0.6848 -0.4938  0.7806
  533DG     O1912255   2.738   3.364   1.105 -0.4593 -0.2454  0.3882
  533DG     H2012256   2.741   3.511   0.964 -1.1031 -0.3136  0.9384
  533DG     H2112257   2.831   3.549   1.114  1.4769 -0.4763  2.3498
  533DG     H2212258   2.554   3.468   1.135  2.2745 -1.3110 -0.0176
  533DG     H2312259   2.676   3.477   1.259 -0.3222 -0.6977  3.6246
  534DG      C112260   3.969   4.468   5.192  0.1854  0.8580  0.0697
  534DG      C212261   4.055   4.878   4.896 -0.6403  0.5869 -0.4746
  534DG      H312262   4.079   4.459   5.183 -1.4740 -1.4630  0.1988
  534DG      H412263   3.938   4.454   5.302  1.8497 -2.5871  2.3564
  534DG      H512264   3.931   4.572   5.163 -1.1753  1.0294 -1.8026
  534DG      H612265   4.052   4.791   4.963  0.2892 -1.9420  2.0707
  534DG      H712266   4.141   4.869   4.841 -3.2001 -0.6300  3.3424
  534DG      H812267   4.064   4.968   4.954 -1.1052 -2.2348  1.3730
  534DG      O912268   3.888   4.371   5.116 -0.0962 -0.1627 -0.3416
  534DG     O1012269   3.936   4.891   4.812 -0.2844  0.0672  0.3653
  534DG     C1112270   3.910   4.363   4.971 -0.2643 -0.0207  0.0023
  534DG     C1212271   3.915   4.785   4.724 -0.1330  0.0759 -1.1183
  534DG     H1312272   3.869   4.270   4.928  1.9273 -0.0618 -4.8317
  534DG     H1412273   4.015   4.363   4.948  0.0980  1.8550  0.1801
  534DG     H1512274   4.014   4.751   4.682 -2.1245 -0.4597 -2.1865
  534DG     H1612275   3.876   4.825   4.634 -1.0228 -1.4627 -1.0348
  534DG     C1712276   3.833   4.473   4.897  0.5145  0.0691  0.0422
  534DG     C1812277   3.840   4.662   4.784  0.0115 -0.1199  0.2244
  534DG     O1912278   3.918   4.588   4.882  0.0367  1.0072  0.7313
  534DG     H2012279   3.763   4.503   4.966  1.6515  1.4889  0.0115
  534DG     H2112280   3.780   4.444   4.809  2.0018  1.8531 -1.3179
  534DG     H2212281   3.747   4.701   4.824 -0.6381  0.0374 -1.1254
  534DG     H2312282   3.833   4.599   4.691  1.1050 -0.5698 -1.7379
  535DG      C112283   2.056   3.341   1.241  0.2507  0.4325  0.0912
  535DG      C212284   1.834   3.035   1.829 -0.3468  0.7609  0.0776
  535DG      H312285   2.109   3.408   1.305  0.5493 -0.5418 -2.1076
  535DG      H412286   1.973   3.403   1.196  0.0406  0.1340  1.0085
  535DG      H512287   2.128   3.322   1.163 -2.2387 -1.5944  1.1045
  535DG      H612288   1.750   3.103   1.821 -0.6517 -2.3672 -0.8303
  535DG      H712289   1.807   2.959   1.900 -1.9580  1.3056 -0.7074
  535DG      H812290   1.898   3.103   1.881 -0.8653 -0.6182 -0.2826
  535DG      O912291   2.011   3.230   1.314 -0.3332 -0.0071 -0.3431
  535DG     O1012292   1.909   2.996   1.713  0.0451  0.1203 -0.9679
  535DG     C1112293   1.965   3.122   1.231 -1.1600  0.4371 -0.0274
  535DG     C1212294   1.848   2.898   1.640 -0.2602  0.0872 -0.1839
  535DG     H1312295   2.027   3.108   1.142 -0.4013  1.0436  0.5008
  535DG     H1412296   1.864   3.144   1.196  0.0450  1.8726 -0.1380
  535DG     H1512297   1.743   2.920   1.627 -1.7440 -1.0745 -0.2270
  535DG     H1612298   1.862   2.804   1.704  0.8821  1.0348  1.6162
  535DG     C1712299   1.955   2.998   1.302  0.0558 -0.0605  0.4846
  535DG     C1812300   1.905   2.876   1.502 -0.6619  0.5057 -0.0061
  535DG     O1912301   1.904   3.002   1.433  0.6934  0.3424 -0.1924
  535DG     H2012302   2.050   2.954   1.320 -1.3706 -1.2434  1.8300
  535DG     H2112303   1.897   2.929   1.234  1.6187  0.8410  3.9142
  535DG     H2212304   2.008   2.842   1.508  1.7278 -0.3525  0.3702
  535DG     H2312305   1.838   2.807   1.447  1.2743  0.0458 -1.8714
  536DG      C112306   4.263   1.861   4.902 -0.4521  0.3802  0.2452
  536DG      C212307   4.619   2.428   4.796 -0.0949  0.0940 -0.5819
  536DG      H312308   4.296   1.816   4.804 -1.1734 -2.3703 -1.4248
  536DG      H412309   4.177   1.917   4.876  1.1252 -0.4185  0.5537
  536DG      H512310   4.240   1.779   4.973 -0.2843 -0.9047  0.0436
  536DG      H612311   4.638   2.521   4.849  0.7241  2.8242 -0.7461
  536DG      H712312   4.706   2.419   4.735 -2.9308  1.6430  0.1348
  536DG      H812313   4.536   2.443   4.721  0.1252  2.1471 -1.7932
  536DG      O912314   4.368   1.938   4.962  0.3209  0.2732 -0.9540
  536DG     O1012315   4.596   2.328   4.902  0.5650  0.9344  0.3002
  536DG     C1112316   4.481   1.862   5.003  0.3241 -0.0700  0.5800
  536DG     C1212317   4.714   2.286   4.975  0.4960  0.3873  0.3354
  536DG     H1312318   4.540   1.829   4.913 -1.1049 -0.1370 -0.4489
  536DG     H1412319   4.441   1.782   5.065  0.9309  0.3140 -0.0986
  536DG     H1512320   4.763   2.367   5.030  2.3657 -0.4234 -1.0580
  536DG     H1612321   4.786   2.249   4.900 -1.2708 -1.1285 -0.6970
  536DG     C1712322   4.566   1.960   5.082 -0.1129  0.4563 -0.7028
  536DG     C1812323   4.681   2.170   5.070 -0.6227  0.4052 -0.7927
  536DG     O1912324   4.605   2.070   5.002 -0.1888  0.3510 -0.2256
  536DG     H2012325   4.642   1.907   5.135 -2.7259  1.8431  1.6392
  536DG     H2112326   4.508   2.002   5.160  0.2782  0.3866 -2.3871
  536DG     H2212327   4.781   2.134   5.104 -0.2778  0.2776 -1.0110
  536DG     H2312328   4.623   2.222   5.144 -1.7618 -2.4030 -0.9522
  537DG      C112329   3.379   3.563   4.573  0.0976  0.5915  0.0503
  537DG      C212330   3.794   4.051   4.705  1.0506 -0.7610 -0.5438
  537DG      H312331   3.461   3.502   4.610  1.9551  2.1888 -4.3459
  537DG      H412332   3.350   3.501   4.489 -1.3526 -0.3004 -0.6388
  537DG      H512333   3.300   3.589   4.640  1.8555  1.3247 -1.5434
  537DG      H612334   3.812   4.162   4.700 -0.1550 -0.7131 -0.8340
  537DG      H712335   3.755   4.034   4.807  1.1017 -0.5588  0.8769
  537DG      H812336   3.888   3.998   4.688  0.0736 -1.4537 -0.7902
  537DG      O912337   3.427   3.690   4.525  0.4272  0.1075  0.6809
  537DG     O1012338   3.701   4.026   4.603 -0.4721  0.1164  0.2367
  537DG     C1112339   3.343   3.761   4.435 -0.6306  0.1501  0.0179
  537DG     C1212340   3.601   4.125   4.580 -0.2937  0.2526  0.2565
  537DG     H1312341   3.240   3.783   4.472  1.1822  0.1874  2.1003
  537DG     H1412342   3.327   3.692   4.346 -0.9467  1.6360 -1.3742
  537DG     H1512343   3.649   4.217   4.553 -0.9813 -0.4589  1.1899
  537DG     H1612344   3.556   4.134   4.677  2.1822  2.0147 -1.2444
  537DG     C1712345   3.417   3.880   4.385 -0.1170  0.5787  0.3463
  537DG     C1812346   3.505   4.094   4.464  0.3089  0.1795 -0.4458
  537DG     O1912347   3.455   3.971   4.493  0.4980  0.1064 -0.3354
  537DG     H2012348   3.361   3.929   4.311 -2.0328  0.4392 -0.4384
  537DG     H2112349   3.508   3.839   4.347  1.1476  1.8908  1.6715
  537DG     H2212350   3.432   4.171   4.453  1.4930 -3.2034 -1.6031
  537DG     H2312351   3.567   4.076   4.376  1.4797  2.0602  0.9554
  538DG      C112352   3.076   3.269   0.190 -0.1064  0.0695  0.0439
  538DG      C212353   2.909   3.819   0.710  0.1773  0.0626 -0.1861
  538DG      H312354   3.000   3.203   0.160  1.8215 -0.1363  1.8554
  538DG      H412355   3.169   3.205   0.209  0.7170 -2.7719 -0.4761
  538DG      H512356   3.092   3.344   0.112  0.1520  2.0257  1.3223
  538DG      H612357   2.890   3.925   0.687 -0.0709  0.2261 -4.3525
  538DG      H712358   2.828   3.761   0.666  2.6722  1.0906 -1.9812
  538DG      H812359   2.903   3.789   0.820  1.3224 -0.1780  2.9613
  538DG      O912360   3.035   3.319   0.314 -0.4032 -0.1551 -0.2685
  538DG     O1012361   3.029   3.781   0.658  0.2585 -0.3910 -0.0727
  538DG     C1112362   3.091   3.454   0.333  0.2140 -0.1572  0.1980
  538DG     C1212363   3.043   3.806   0.520  0.5839  0.4685 -0.4386
  538DG     H1312364   3.033   3.522   0.267  0.0581  1.1437 -2.2268
  538DG     H1412365   3.193   3.459   0.294 -1.6353 -3.8858 -2.0120
  538DG     H1512366   3.045   3.915   0.494 -0.9620  1.8927  1.2139
  538DG     H1612367   2.955   3.763   0.473  1.0424  1.0275 -0.6121
  538DG     C1712368   3.072   3.494   0.482 -0.4194 -0.0879  0.5016
  538DG     C1812369   3.168   3.720   0.478  0.2267  0.3009 -0.6419
  538DG     O1912370   3.178   3.586   0.529 -0.0206 -0.3151 -0.2233
  538DG     H2012371   3.093   3.405   0.544  0.4224  0.6849  3.5450
  538DG     H2112372   2.968   3.518   0.508 -0.4368  2.8015  0.4745
  538DG     H2212373   3.170   3.716   0.368  1.1081  3.5076  2.9429
  538DG     H2312374   3.260   3.761   0.507 -2.2273  3.5068 -0.1143
  539DG      C112375   0.592   3.804   4.322 -0.2028  0.0535 -0.0697
  539DG      C212376   0.711   4.063   4.958  0.3431 -0.2670 -0.1040
  539DG      H312377   0.697   3.768   4.328  0.7163 -0.5838 -0.0030
  539DG      H412378   0.564   3.838   4.225  3.4809  3.5767  1.1876
  539DG      H512379   0.525   3.725   4.340  2.6710  0.7944 -1.7397
  539DG      H612380   0.643   4.150   4.920 -1.3903  3.3611  3.3833
  539DG      H712381   0.642   3.992   5.004  0.5092 -0.5423  1.6480
  539DG      H812382   0.772   4.096   5.045  0.0497 -2.8461  0.3896
  539DG      O912383   0.571   3.919   4.407 -0.4790 -0.2167 -0.1681
  539DG     O1012384   0.784   3.992   4.866  0.4670  0.8311 -0.6982
  539DG     C1112385   0.683   4.004   4.378  0.8770 -1.1441  0.0049
  539DG     C1212386   0.883   4.065   4.801  0.7011  0.1078  0.5397
  539DG     H1312387   0.674   4.110   4.409  3.6259 -0.9960  1.9881
  539DG     H1412388   0.702   4.003   4.275  1.5909 -2.8792  0.8849
  539DG     H1512389   0.971   4.063   4.865 -0.9749 -0.8609  1.9314
  539DG     H1612390   0.857   4.170   4.788  0.9215  0.5933 -0.5475
  539DG     C1712391   0.807   3.964   4.459  0.8117  0.2538 -0.1611
  539DG     C1812392   0.916   4.018   4.664  0.3210 -0.5735  0.4679
  539DG     O1912393   0.793   4.013   4.594  0.8746  0.4170 -0.1460
  539DG     H2012394   0.891   4.022   4.408  0.8048 -3.7011  1.1937
  539DG     H2112395   0.831   3.852   4.460 -1.8366 -1.1186  0.2773
  539DG     H2212396   0.974   4.087   4.605  2.5722 -1.3713 -0.3963
  539DG     H2312397   0.970   3.920   4.666 -2.8018  0.1322 -0.6699
  540DG      C112398   3.072   3.706   2.296 -0.2895  0.1245 -0.6909
  540DG      C212399   3.169   3.373   2.964 -0.3326  0.0831  0.2470
  540DG      H312400   3.157   3.772   2.322 -1.5698  0.8187  2.2792
  540DG      H412401   2.993   3.771   2.299  0.6940  0.3939 -0.8462
  540DG      H512402   3.069   3.665   2.195 -1.4533 -1.7021  2.1546
  540DG      H612403   3.097   3.294   2.933 -1.6812  0.4664  3.1438
  540DG      H712404   3.273   3.347   2.939 -0.5468 -1.1391 -0.2206
  540DG      H812405   3.161   3.380   3.073 -0.9867 -0.6536  1.1574
  540DG      O912406   3.060   3.605   2.389  0.6239 -0.5693 -0.5221
  540DG     O1012407   3.119   3.486   2.895  0.0216 -0.0191 -0.7206
  540DG     C1112408   3.006   3.650   2.513 -0.5356  0.3981  0.5429
  540DG     C1212409   3.208   3.592   2.910 -0.3248  0.8895  0.3952
  540DG     H1312410   2.949   3.566   2.555 -1.8945  1.3147  0.3674
  540DG     H1412411   2.941   3.738   2.500 -0.3057  2.5492  3.5301
  540DG     H1512412   3.302   3.565   2.848  2.2834  0.2720  0.0479
  540DG     H1612413   3.238   3.610   3.018 -0.1297  0.7982  1.7053
  540DG     C1712414   3.120   3.679   2.608  0.2119  0.5342  0.5687
  540DG     C1812415   3.157   3.722   2.834 -0.2158 -0.0756  0.1458
  540DG     O1912416   3.058   3.710   2.734  0.2291 -0.0857 -0.1355
  540DG     H2012417   3.199   3.744   2.569  1.1379 -3.2420 -0.1497
  540DG     H2112418   3.164   3.578   2.628 -2.4056 -2.6445  0.6253
  540DG     H2212419   3.106   3.787   2.904  3.4977  1.2571 -0.4649
  540DG     H2312420   3.233   3.787   2.793  1.5294 -2.1334 -0.1764
  541DG      C112421   3.049   5.455   3.117 -0.2502 -0.8017  0.3586
  541DG      C212422   2.993   4.781   2.711  0.4925  0.3572  1.0160
  541DG      H312423   2.943   5.467   3.136 -0.9053 -1.1857 -2.0453
  541DG      H412424   3.065   5.531   3.038  0.1655  1.0062 -0.0301
  541DG      H512425   3.099   5.490   3.209  1.2266  2.1333  0.7822
  541DG      H612426   2.894   4.835   2.708  2.6602 -1.2487  1.0321
  541DG      H712427   3.018   4.751   2.611 -1.2165  2.5904  0.6455
  541DG      H812428   2.983   4.699   2.788  0.9239  2.0464 -1.1632
  541DG      O912429   3.102   5.331   3.064 -0.3517  0.3367  0.0003
  541DG     O1012430   3.082   4.873   2.775  0.0007  0.2452 -0.6528
  541DG     C1112431   3.232   5.333   3.006  0.7242 -0.5008  0.7299
  541DG     C1212432   3.130   4.973   2.691  0.6107 -0.4157  0.6812
  541DG     H1312433   3.302   5.379   3.072 -1.5684 -3.0061  2.1895
  541DG     H1412434   3.221   5.406   2.923  0.3322  0.9109  0.3425
  541DG     H1512435   3.042   5.039   2.664 -0.3284  2.4003  0.0436
  541DG     H1612436   3.176   4.939   2.598  0.8711  0.1703 -3.5333
  541DG     C1712437   3.264   5.188   2.957  0.3371 -0.1511  0.3198
  541DG     C1812438   3.230   5.067   2.764  0.6838 -0.4679 -0.2900
  541DG     O1912439   3.163   5.130   2.873  0.0231 -0.0365 -0.3775
  541DG     H2012440   3.290   5.120   3.037  1.5738 -4.1510  1.6031
  541DG     H2112441   3.357   5.206   2.907  0.1711  0.6135  0.5509
  541DG     H2212442   3.322   5.011   2.786  0.2952  0.3696  2.0733
  541DG     H2312443   3.254   5.151   2.699  1.6250  0.1869 -1.6179
  542DG      C112444   1.704   2.853   0.082  0.5058 -1.5267 -0.3260
  542DG      C212445   1.473   2.065   0.051  0.2654  0.6446  0.0558
  542DG      H312446   1.684   2.934   0.156  0.8851 -0.2282 -1.5584
  542DG      H412447   1.682   2.888  -0.017  1.5667 -0.0780 -0.8357
  542DG      H512448   1.812   2.841   0.087 -0.9953 -1.7167  2.5133
  542DG      H612449   1.441   2.036  -0.053 -0.0958 -1.6955 -0.0118
  542DG      H712450   1.564   2.015   0.086 -0.3406 -0.6023 -1.7107
  542DG      H812451   1.391   2.041   0.118  0.0692 -1.0667 -1.3823
  542DG      O912452   1.630   2.736   0.116 -0.0776 -0.7109  0.3089
  542DG     O1012453   1.490   2.201   0.091 -0.2495 -0.4610 -0.0919
  542DG     C1112454   1.681   2.667   0.231  0.9520  0.2790  0.2963
  542DG     C1212455   1.609   2.253   0.034  0.5217  0.0538  0.0871
  542DG     H1312456   1.699   2.742   0.310  1.8077 -2.0804  0.0840
  542DG     H1412457   1.781   2.624   0.222  0.6813 -1.1503  0.2895
  542DG     H1512458   1.606   2.247  -0.075 -1.9195  1.8260 -2.6351
  542DG     H1612459   1.698   2.205   0.079  1.3697  0.3343  2.1981
  542DG     C1712460   1.584   2.553   0.282  0.2225 -0.0508  0.6074
  542DG     C1812461   1.607   2.407   0.074  0.7881  0.0651 -0.2075
  542DG     O1912462   1.597   2.426   0.216  0.5391  0.1827 -0.1440
  542DG     H2012463   1.485   2.588   0.256  1.8704  0.6087 -3.1938
  542DG     H2112464   1.603   2.538   0.389 -0.0123 -2.8684  0.3578
  542DG     H2212465   1.696   2.456   0.043 -2.2972  1.4503  0.3526
  542DG     H2312466   1.520   2.457   0.024 -1.4092  0.5607 -0.2210
  543DG      C112467   4.612   3.502   0.742 -0.0733 -0.4715  0.6588
  543DG      C212468   3.918   3.268   0.417  0.0462  0.0561 -0.0822
  543DG      H312469   4.693   3.436   0.716  3.9863 -1.5288  0.6499
  543DG      H412470   4.557   3.474   0.838  0.0867 -1.6567  2.3938
  543DG      H512471   4.652   3.598   0.755  0.5272  0.5521 -2.5905
  543DG      H612472   3.972   3.177   0.431 -2.3884 -0.6394  1.4660
  543DG      H712473   3.839   3.274   0.487  0.3212 -0.1111 -1.9747
  543DG      H812474   3.869   3.259   0.322 -1.3023  2.1444  0.2970
  543DG      O912475   4.514   3.494   0.639 -0.2138 -0.1183 -0.2798
  543DG     O1012476   4.016   3.375   0.427  0.2420 -0.2267  0.1027
  543DG     C1112477   4.407   3.590   0.659 -0.7128 -0.1030 -0.2774
  543DG     C1212478   4.133   3.355   0.357 -0.9022  0.3542 -0.3781
  543DG     H1312479   4.454   3.686   0.680  0.2461  1.0947  2.6808
  543DG     H1412480   4.347   3.566   0.744  1.1151  0.5402  0.2600
  543DG     H1512481   4.113   3.327   0.253  0.6374  0.5981  2.9661
  543DG     H1612482   4.202   3.279   0.397  0.3305 -0.5444 -1.8486
  543DG     C1712483   4.337   3.608   0.524 -0.8265 -0.3173  0.9268
  543DG     C1812484   4.210   3.484   0.360 -0.0003 -0.4257 -0.3621
  543DG     O1912485   4.265   3.493   0.495  0.3621  0.1081 -0.1348
  543DG     H2012486   4.405   3.626   0.439 -0.5598 -0.9914  0.0576
  543DG     H2112487   4.261   3.680   0.525  1.6518 -2.2106  3.3466
  543DG     H2212488   4.292   3.473   0.285 -0.1498 -0.0334 -0.4798
  543DG     H2312489   4.143   3.566   0.330  0.9410 -1.7678 -0.2357
  544DG      C112490   5.182   2.632   2.922 -0.3641 -0.1870  0.0418
  544DG      C212491   5.506   2.274   3.401 -0.5994 -0.4653 -0.3452
  544DG      H312492   5.125   2.721   2.923 -1.3801  1.6086 -1.8196
  544DG      H412493   5.215   2.607   3.027 -0.6099 -0.2543  0.0205
  544DG      H512494   5.114   2.574   2.868 -2.5244  1.3868 -0.7868
  544DG      H612495   5.521   2.287   3.505  0.8199  1.4843 -2.2601
  544DG      H712496   5.486   2.171   3.366  1.9359  0.3438  0.5957
  544DG      H812497   5.603   2.316   3.365 -3.1033 -2.5595  2.2639
  544DG      O912498   5.284   2.654   2.828  0.0818 -0.0212 -0.6919
  544DG     O1012499   5.398   2.368   3.365 -0.1946 -0.6034  0.0117
  544DG     C1112500   5.408   2.661   2.890 -0.0314  0.4313 -0.0434
  544DG     C1212501   5.362   2.359   3.231  0.4977  0.2624 -0.1482
  544DG     H1312502   5.424   2.722   2.979  0.2955  0.8459  1.4945
  544DG     H1412503   5.468   2.715   2.816  0.4608  0.0822 -1.4261
  544DG     H1512504   5.256   2.397   3.223  0.5668 -2.1621 -0.7957
  544DG     H1612505   5.347   2.255   3.213  0.0180 -1.1807  0.3917
  544DG     C1712506   5.475   2.520   2.913  0.3334 -0.3484 -0.3843
  544DG     C1812507   5.450   2.455   3.140  0.1974 -0.1984  1.0404
  544DG     O1912508   5.416   2.431   3.006  0.3743 -0.0487  0.2632
  544DG     H2012509   5.578   2.555   2.944  0.1083  0.7378 -1.7468
  544DG     H2112510   5.477   2.468   2.817  4.1801 -1.6092 -0.3374
  544DG     H2212511   5.434   2.554   3.176  0.5145 -1.1574 -1.2565
  544DG     H2312512   5.560   2.430   3.148 -0.0703  1.6897 -2.6655
  545DG      C112513   0.041   0.156   0.156  0.1175 -0.4767  0.0135
  545DG      C212514  -0.471   0.594   0.419  0.1812  0.2304 -0.4502
  545DG      H312515  -0.015   0.060   0.162 -1.1545 -2.2344  1.1351
  545DG      H412516   0.100   0.172   0.246 -0.2292  0.1730 -1.7844
  545DG      H512517   0.105   0.138   0.069  0.9855  0.7641 -0.2251
  545DG      H612518  -0.531   0.503   0.434 -2.9283 -1.0389 -1.4953
  545DG      H712519  -0.397   0.615   0.506 -0.8030 -1.6963  2.5380
  545DG      H812520  -0.538   0.684   0.413  3.8435 -1.2791  1.1503
  545DG      O912521  -0.043   0.265   0.123  0.3730 -0.3380 -0.4666
  545DG     O1012522  -0.393   0.577   0.295 -0.2404 -0.2029 -0.3465
  545DG     C1112523  -0.126   0.256   0.004 -0.1918 -0.0597  0.0144
  545DG     C1212524  -0.478   0.514   0.196 -0.3988  0.0340  0.0060
  545DG     H1312525  -0.204   0.181   0.020 -2.2203  2.0087  1.4116
  545DG     H1412526  -0.067   0.213  -0.080  1.3066 -0.5300 -1.7506
  545DG     H1512527  -0.565   0.577   0.167  1.0067 -0.0170 -3.3680
  545DG     H1612528  -0.520   0.414   0.228  2.0402  0.5549  1.7036
  545DG     C1712529  -0.203   0.392  -0.014  0.0219 -0.0789  0.4379
  545DG     C1812530  -0.406   0.481   0.069 -0.6334 -0.1423  0.1205
  545DG     O1912531  -0.295   0.398   0.100 -0.3025  0.6028 -0.0154
  545DG     H2012532  -0.242   0.371  -0.105 -0.6945 -1.6147  1.4500
  545DG     H2112533  -0.147   0.483  -0.023  0.5324  0.3897 -1.0625
  545DG     H2212534  -0.472   0.429  -0.008 -0.0604 -1.7457 -1.8714
  545DG     H2312535  -0.362   0.573   0.031 -0.1870 -2.5101  0.7461
  546DG      C112536   1.422   0.790   4.798  0.1802  0.5558 -0.0857
  546DG      C212537   0.752   0.794   5.012  0.3387  0.5605 -0.9931
  546DG      H312538   1.457   0.871   4.727 -0.4656  1.7291 -4.3959
  546DG      H412539   1.477   0.700   4.785  0.2625  1.8471  0.6526
  546DG      H512540   1.433   0.831   4.897  3.7353  1.7064  2.0046
  546DG      H612541   0.648   0.763   5.022  0.2735 -0.2539 -2.6623
  546DG      H712542   0.816   0.712   5.034  0.2330  1.9013  1.3804
  546DG      H812543   0.774   0.885   5.072  0.4122  0.4080 -0.6502
  546DG      O912544   1.281   0.763   4.779  0.3933 -0.0967  0.2865
  546DG     O1012545   0.775   0.831   4.872 -0.0346 -0.8799 -0.1611
  546DG     C1112546   1.230   0.669   4.867 -0.1377 -0.0800  0.6895
  546DG     C1212547   0.768   0.735   4.771 -0.7826  0.3504 -0.7906
  546DG     H1312548   1.202   0.721   4.959 -0.2905 -0.2998  2.6115
  546DG     H1412549   1.309   0.602   4.906  0.4923  0.4817  1.2865
  546DG     H1512550   0.792   0.768   4.669 -1.9385  0.4107 -0.7893
  546DG     H1612551   0.674   0.702   4.773  1.1037  0.5519 -0.8889
  546DG     C1712552   1.100   0.595   4.808 -0.2818  0.7237 -0.7116
  546DG     C1812553   0.869   0.615   4.790 -0.1825 -0.0753  0.3676
  546DG     O1912554   0.993   0.689   4.790  0.0730  0.1598 -0.4472
  546DG     H2012555   1.070   0.524   4.883  1.2324  1.8538  0.4605
  546DG     H2112556   1.110   0.540   4.717  2.4556  1.1714 -2.3877
  546DG     H2212557   0.846   0.553   4.870  0.5425  0.6652 -0.7248
  546DG     H2312558   0.869   0.541   4.708  2.1116  0.4556 -2.3428
  547DG      C112559   0.808   3.864   2.087  0.2694  0.3565 -0.3699
  547DG      C212560   0.562   4.242   1.477 -0.0677 -0.2292  0.2791
  547DG      H312561   0.892   3.820   2.030 -0.2535  1.1484  1.2005
  547DG      H412562   0.743   3.791   2.126 -2.6599  1.4897  2.2600
  547DG      H512563   0.827   3.939   2.164 -2.7061  0.8017 -0.3398
  547DG      H612564   0.477   4.302   1.489  3.4147  0.4485  1.2564
  547DG      H712565   0.647   4.312   1.471 -1.9278 -0.4710 -1.3589
  547DG      H812566   0.543   4.191   1.384  0.1210  2.1261 -0.8281
  547DG      O912567   0.734   3.948   1.996 -0.0931 -0.2603 -0.4496
  547DG     O1012568   0.587   4.161   1.591  0.3776 -0.0405  0.4337
  547DG     C1112569   0.609   3.980   2.055 -0.2741  0.2523  0.0883
  547DG     C1212570   0.480   4.070   1.626 -0.0982 -0.3257 -0.1590
  547DG     H1312571   0.607   4.008   2.156  0.6259  1.7591  2.7605
  547DG     H1412572   0.547   3.892   2.043 -1.0027  0.6393 -0.9763
  547DG     H1512573   0.517   3.972   1.598  2.3720  1.3711  1.5554
  547DG     H1612574   0.393   4.078   1.559 -1.0979 -1.2582  0.0398
  547DG     C1712575   0.546   4.098   1.985  0.0913  0.0647 -0.7024
  547DG     C1812576   0.444   4.096   1.772 -0.9700  0.3339  0.1039
  547DG     O1912577   0.561   4.071   1.844 -0.3903 -0.3153  0.2589
  547DG     H2012578   0.583   4.197   2.022 -2.2734 -1.3419  3.0330
  547DG     H2112579   0.440   4.092   2.021 -0.1911  0.6562 -2.5507
  547DG     H2212580   0.401   4.194   1.785 -0.5024 -0.5269 -1.6716
  547DG     H2312581   0.366   4.025   1.795 -2.6771  0.0642  0.2500
  548DG      C112582   3.923   3.662   0.633 -0.2268 -0.1685 -0.3693
  548DG      C212583   3.890   4.120   0.845 -0.5002  0.2832  0.0265
  548DG      H312584   3.891   3.563   0.613  0.7377  0.4755 -1.0169
  548DG      H412585   4.003   3.650   0.711  2.3753  0.2172 -3.7178
  548DG      H512586   3.971   3.698   0.540 -0.4207  2.0724 -2.2022
  548DG      H612587   3.954   4.194   0.803 -1.4435  2.1444 -1.1629
  548DG      H712588   3.927   4.105   0.945  0.0595 -0.1352 -0.7870
  548DG      H812589   3.894   4.027   0.784 -1.8666  0.2453 -0.0937
  548DG      O912590   3.809   3.745   0.668 -0.4168 -0.3067  0.4595
  548DG     O1012591   3.761   4.171   0.872  0.9271 -0.1703 -0.3026
  548DG     C1112592   3.725   3.767   0.555 -0.4656  0.2954  0.6792
  548DG     C1212593   3.689   4.206   0.753  0.5259  0.0916 -1.0916
  548DG     H1312594   3.677   3.673   0.529 -0.6884 -0.4274  0.8121
  548DG     H1412595   3.791   3.797   0.469  0.2819  3.0081 -0.5933
  548DG     H1512596   3.757   4.231   0.672 -0.7285  1.3330  1.8662
  548DG     H1612597   3.614   4.279   0.777  2.1605  2.6765 -1.0695
  548DG     C1712598   3.622   3.874   0.596  0.7844  0.9944  0.1435
  548DG     C1812599   3.600   4.089   0.697 -0.2116  0.5597 -0.0852
  548DG     O1912600   3.686   3.988   0.653 -0.4165 -0.1358  0.6306
  548DG     H2012601   3.548   3.836   0.664  0.1024  0.3315 -0.9370
  548DG     H2112602   3.566   3.891   0.509  0.0211 -0.8117  0.5668
  548DG     H2212603   3.542   4.039   0.774 -4.4778  0.3354  0.7379
  548DG     H2312604   3.537   4.131   0.620  1.3579 -1.3391  1.8907
  549DG      C112605   3.229   4.591   2.758  0.0205  0.5207 -0.6530
  549DG      C212606   4.002   4.696   2.872  0.1364  0.2031 -0.7221
  549DG      H312607   3.191   4.551   2.854 -0.2546  0.7559  0.3624
  549DG      H412608   3.158   4.555   2.679  0.0333 -2.7679  0.4194
  549DG      H512609   3.232   4.702   2.747 -3.0398  2.4684 -1.9298
  549DG      H612610   3.974   4.642   2.965  2.0873 -0.6737 -1.7169
  549DG      H712611   4.099   4.649   2.844  3.1813 -1.0890 -0.2653
  549DG      H812612   4.025   4.798   2.891 -3.1153 -0.3424 -2.9142
  549DG      O912613   3.362   4.541   2.731 -0.6852  0.8867 -0.0027
  549DG     O1012614   3.899   4.685   2.777  0.3419 -0.3458  0.5536
  549DG     C1112615   3.454   4.547   2.844  0.2604  0.2885 -0.1605
  549DG     C1212616   3.887   4.544   2.729 -0.4501 -0.0322  0.2069
  549DG     H1312617   3.414   4.493   2.933 -0.9072 -0.7624 -2.5406
  549DG     H1412618   3.472   4.654   2.860 -2.3108 -1.3452  0.4340
  549DG     H1512619   3.882   4.474   2.819  2.0263  0.3667 -2.7181
  549DG     H1612620   3.980   4.510   2.677  0.4723  0.0591  3.5720
  549DG     C1712621   3.588   4.492   2.798  0.5102  0.3208 -0.0967
  549DG     C1812622   3.764   4.529   2.635 -0.0101  0.3773 -0.6011
  549DG     O1912623   3.639   4.570   2.691  0.6515  0.6039 -0.3395
  549DG     H2012624   3.579   4.392   2.770 -0.5218  0.5366 -0.6649
  549DG     H2112625   3.650   4.496   2.880 -1.4521 -1.8837  0.6609
  549DG     H2212626   3.769   4.593   2.537  1.0134 -0.6041 -0.4915
  549DG     H2312627   3.742   4.427   2.593  0.4490  0.8462  1.5809
  550DG      C112628   2.734   0.368   0.375  0.6864 -0.1304 -0.5985
  550DG      C212629   2.771   0.690  -0.353  0.1944 -0.3823  0.2015
  550DG      H312630   2.662   0.349   0.455 -0.6267 -1.4439  0.6237
  550DG      H412631   2.833   0.380   0.427  0.5477  0.2270 -0.9676
  550DG      H512632   2.733   0.270   0.332  1.3352 -2.7326 -1.3735
  550DG      H612633   2.767   0.787  -0.392 -1.0097  0.6459 -1.3046
  550DG      H712634   2.768   0.617  -0.433 -1.0865  2.0828  1.2938
  550DG      H812635   2.688   0.672  -0.293 -0.0445  1.3391 -0.9626
  550DG      O912636   2.690   0.477   0.293  0.1947  0.1118  0.3221
  550DG     O1012637   2.889   0.678  -0.273  0.2562 -0.3963  0.0013
  550DG     C1112638   2.791   0.527   0.202  0.0840 -0.2419 -0.1237
  550DG     C1212639   2.898   0.788  -0.180  0.1876  0.3023 -0.9163
  550DG     H1312640   2.830   0.443   0.145 -1.7717  1.4506 -0.7001
  550DG     H1412641   2.877   0.566   0.251 -0.8768 -0.3917 -0.6639
  550DG     H1512642   2.906   0.880  -0.234  0.3022 -2.8799 -1.1871
  550DG     H1612643   2.994   0.775  -0.150  2.1218 -2.1184 -3.2345
  550DG     C1712644   2.724   0.631   0.113 -0.8260 -0.1096 -0.4746
  550DG     C1812645   2.808   0.777  -0.058 -0.2764  0.1476 -0.3302
  550DG     O1912646   2.793   0.649  -0.003  0.4319  0.0842 -0.4114
  550DG     H2012647   2.719   0.721   0.175  0.6832 -0.0266 -0.6754
  550DG     H2112648   2.619   0.615   0.095  0.7455  1.0556  1.8541
  550DG     H2212649   2.831   0.847   0.021 -1.6227 -2.0334 -1.1101
  550DG     H2312650   2.714   0.811  -0.093  1.6343  0.8750  1.2153
  551DG      C112651   0.349   3.469   5.203 -0.4009  0.0924  0.4528
  551DG      C212652   0.757   3.837   5.822 -0.0045  0.3332  0.2184
  551DG      H312653   0.274   3.488   5.130  1.6085  2.5452 -1.8707
  551DG      H412654   0.304   3.451   5.306 -2.1953 -1.2238  0.5226
  551DG      H512655   0.402   3.381   5.181  1.0302  0.6996  0.6578
  551DG      H612656   0.692   3.920   5.846  0.9025 -1.3866 -1.8401
  551DG      H712657   0.753   3.751   5.893  0.6412 -2.0750  0.7260
  551DG      H812658   0.862   3.867   5.839 -1.1366  0.5473  0.5132
  551DG      O912659   0.431   3.588   5.205 -0.2667  0.0552  0.4035
  551DG     O1012660   0.737   3.778   5.699  0.1007 -0.1647  0.6625
  551DG     C1112661   0.538   3.589   5.299 -0.0032 -0.0748  0.7240
  551DG     C1212662   0.802   3.850   5.601  0.0931  0.5345 -0.5396
  551DG     H1312663   0.627   3.525   5.264  0.2835  1.8097  1.3355
  551DG     H1412664   0.500   3.542   5.385  1.6158 -0.8566  1.9693
  551DG     H1512665   0.890   3.797   5.584 -0.7251 -2.5742  0.6861
  551DG     H1612666   0.846   3.942   5.641 -1.1820  0.0182  1.9612
  551DG     C1712667   0.564   3.740   5.340 -0.5133  0.4911 -0.2797
  551DG     C1812668   0.717   3.873   5.477 -0.0739 -1.2043 -0.5421
  551DG     O1912669   0.679   3.750   5.422  0.1592 -0.3121 -0.4586
  551DG     H2012670   0.474   3.779   5.388 -0.7820 -0.1221  0.4102
  551DG     H2112671   0.587   3.795   5.243 -0.4383 -0.5032  1.8477
  551DG     H2212672   0.635   3.938   5.507  0.4135 -0.8083 -0.6540
  551DG     H2312673   0.771   3.929   5.406 -0.9214  1.6987 -0.4475
  552DG      C112674   0.848   2.329   4.692  0.3920  1.0210  0.0182
  552DG      C212675   1.154   2.238   5.354 -0.6095 -0.0120  0.0404
  552DG      H312676   0.916   2.247   4.670  0.9777  0.1744  0.1859
  552DG      H412677   0.837   2.389   4.597 -0.8567  2.3821  1.8807
  552DG      H512678   0.746   2.283   4.704 -0.0359 -1.8667  0.4480
  552DG      H612679   1.245   2.181   5.333 -2.5760 -0.1850  1.6768
  552DG      H712680   1.197   2.305   5.426  2.9936  1.2504  3.2145
  552DG      H812681   1.073   2.176   5.400 -0.1869 -1.5831 -0.0201
  552DG      O912682   0.887   2.406   4.800 -0.0222  0.4920 -0.5701
  552DG     O1012683   1.099   2.304   5.243  0.1181  0.1323 -0.3884
  552DG     C1112684   0.789   2.494   4.853  1.1285  0.4380  0.5732
  552DG     C1212685   0.995   2.396   5.282  1.0972 -0.6424  0.3654
  552DG     H1312686   0.698   2.433   4.870 -0.1969  0.9631  1.7688
  552DG     H1412687   0.771   2.566   4.774  0.9558  0.2288 -4.0540
  552DG     H1512688   1.025   2.443   5.374  1.4271 -3.7679  2.1845
  552DG     H1612689   0.909   2.330   5.294  0.9804 -0.3013  0.2947
  552DG     C1712690   0.836   2.558   4.985 -0.1712 -0.5585  0.5353
  552DG     C1812691   0.952   2.505   5.193  0.2519  0.1895 -0.8715
  552DG     O1912692   0.878   2.462   5.078 -0.4676 -0.3648 -0.3739
  552DG     H2012693   0.757   2.608   5.032  0.8710  1.6558  0.3197
  552DG     H2112694   0.926   2.621   4.962  0.6530 -0.0249 -2.3134
  552DG     H2212695   0.891   2.575   5.254 -1.1696  0.3928  0.8249
  552DG     H2312696   1.038   2.563   5.153  2.4795 -0.2327 -1.0637
  553DG      C112697   0.323   3.897   2.237  0.0358  0.3319  0.1508
  553DG      C212698   0.495   4.518   1.808  0.4502  0.0627  0.9250
  553DG      H312699   0.424   3.859   2.269 -0.4754 -1.2173  1.8183
  553DG      H412700   0.304   3.874   2.133 -0.2139 -0.8122  0.0009
  553DG      H512701   0.250   3.851   2.301 -0.7643 -0.4045  0.5289
  553DG      H612702   0.510   4.447   1.722  2.0675 -0.8961  0.7925
  553DG      H712703   0.424   4.598   1.787  0.7254 -0.4191  1.7111
  553DG      H812704   0.593   4.546   1.838 -1.6189 -1.3662 -1.0192
  553DG      O912705   0.350   4.039   2.247  0.4089 -0.7405  0.6361
  553DG     O1012706   0.449   4.448   1.918  0.4743 -0.1141 -0.5520
  553DG     C1112707   0.241   4.116   2.215 -0.3093 -0.0376 -0.4451
  553DG     C1212708   0.477   4.510   2.043 -0.4401 -0.1243 -0.7623
  553DG     H1312709   0.175   4.091   2.299  0.8766  1.5708 -3.6085
  553DG     H1412710   0.201   4.089   2.123  0.4423  1.6800 -0.3149
  553DG     H1512711   0.469   4.618   2.035 -1.0035  0.1552  2.6842
  553DG     H1612712   0.575   4.494   2.086  0.0670  0.6724  1.8946
  553DG     C1712713   0.255   4.272   2.233 -0.4272  0.3780  0.2133
  553DG     C1812714   0.370   4.461   2.151  0.1042  0.2754  0.5307
  553DG     O1912715   0.359   4.323   2.143 -0.3343 -0.3072 -0.1193
  553DG     H2012716   0.270   4.299   2.339 -0.3934 -1.1882 -1.5096
  553DG     H2112717   0.154   4.315   2.206 -0.5849 -0.9475 -1.4026
  553DG     H2212718   0.409   4.488   2.250 -1.5850  1.5374 -3.2627
  553DG     H2312719   0.277   4.510   2.132 -2.5696 -0.0180 -0.2532
  554DG      C112720   5.481   0.514   0.363  0.3608  0.0465  0.6410
  554DG      C212721   5.876   1.015   0.216  0.0746 -0.5126 -0.3770
  554DG      H312722   5.517   0.412   0.387 -0.6014  1.7759  1.6139
  554DG      H412723   5.511   0.517   0.255  0.3555 -0.3385 -0.2734
  554DG      H512724   5.377   0.523   0.375  1.7290  2.3393 -1.4795
  554DG      H612725   5.920   0.950   0.142  1.8625  1.4780 -2.8866
  554DG      H712726   5.786   1.059   0.167 -2.1158 -0.3497 -0.0361
  554DG      H812727   5.952   1.091   0.247 -0.3822  1.4168  1.0777
  554DG      O912728   5.535   0.629   0.428 -0.0487 -0.1202  0.0651
  554DG     O1012729   5.838   0.937   0.325 -0.1099 -0.1873 -0.2698
  554DG     C1112730   5.462   0.688   0.529  0.5427 -0.9855 -0.3012
  554DG     C1212731   5.812   1.003   0.450 -0.1528  0.4642 -0.5756
  554DG     H1312732   5.423   0.615   0.597  0.6746 -1.9384  0.3368
  554DG     H1412733   5.371   0.738   0.486  1.1314  0.6681 -0.8976
  554DG     H1512734   5.740   1.084   0.439  0.5224 -1.9136 -0.2593
  554DG     H1612735   5.907   1.051   0.488  0.5476 -1.6839  0.6223
  554DG     C1712736   5.556   0.782   0.598 -0.4321 -0.0983 -0.8581
  554DG     C1812737   5.749   0.900   0.546 -0.1203 -0.7251  0.3075
  554DG     O1912738   5.631   0.838   0.497 -0.3998  0.3102  0.0038
  554DG     H2012739   5.615   0.722   0.668 -0.2753 -1.7154 -1.3690
  554DG     H2112740   5.503   0.857   0.651 -0.4719 -1.0205  0.2434
  554DG     H2212741   5.822   0.822   0.571 -0.6441  0.1924 -3.6802
  554DG     H2312742   5.731   0.956   0.637 -1.6503 -0.3506 -1.6330
  555DG      C112743   1.216   4.196   1.822  0.5396 -0.3777 -0.4200
  555DG      C212744   0.722   3.866   1.394  0.4892  0.4909 -0.3909
  555DG      H312745   1.158   4.236   1.904 -0.8295 -0.9389  1.3795
  555DG      H412746   1.233   4.275   1.741 -1.5256  2.9689 -0.2382
  555DG      H512747   1.313   4.168   1.868 -0.5654 -2.1850 -2.8692
  555DG      H612748   0.736   3.941   1.314 -0.7523  2.4735 -2.7819
  555DG      H712749   0.787   3.789   1.366 -0.5965  0.1142 -0.3451
  555DG      H812750   0.617   3.843   1.395 -0.6482  0.7263 -0.2964
  555DG      O912751   1.162   4.075   1.775  0.9277 -0.8410  0.1923
  555DG     O1012752   0.771   3.913   1.520  0.0791  0.6556 -0.3682
  555DG     C1112753   1.145   3.972   1.869  0.1804 -0.2494  0.7922
  555DG     C1212754   0.752   3.810   1.614  0.9274  0.6097  0.6856
  555DG     H1312755   1.083   3.989   1.953  0.8532 -0.2073 -1.2257
  555DG     H1412756   1.247   3.945   1.893  1.1590 -0.8417 -3.1169
  555DG     H1512757   0.708   3.721   1.573  0.3999 -0.3576 -2.1611
  555DG     H1612758   0.671   3.841   1.678 -0.8969 -0.1238 -0.9942
  555DG     C1712759   1.081   3.854   1.798  0.6483 -0.1736  0.1168
  555DG     C1812760   0.888   3.778   1.677 -0.3020  0.4371  0.0613
  555DG     O1912761   0.966   3.890   1.719 -0.3305 -0.5073 -0.0124
  555DG     H2012762   1.071   3.763   1.855  0.9019 -1.1379  0.3419
  555DG     H2112763   1.155   3.825   1.725 -0.1600 -1.6625 -0.2244
  555DG     H2212764   0.879   3.722   1.762  0.9975  3.3663  2.5082
  555DG     H2312765   0.950   3.726   1.606  1.8129 -0.3014  0.0420
  556DG      C112766   3.097   4.097   5.214  0.1085 -0.3060 -0.3098
  556DG      C212767   2.598   4.310   4.825  0.6852  0.5230  0.1905
  556DG      H312768   3.094   3.993   5.227  0.2357 -1.9073  2.1388
  556DG      H412769   3.160   4.150   5.290  2.6214  0.2645  0.9615
  556DG      H512770   3.144   4.110   5.116 -1.4365 -1.8712 -1.1456
  556DG      H612771   2.679   4.349   4.770 -2.0036  1.8549  1.6233
  556DG      H712772   2.590   4.209   4.792  2.1217 -0.7529 -0.5186
  556DG      H812773   2.514   4.367   4.787 -0.1953  0.2802  1.4421
  556DG      O912774   2.965   4.154   5.209 -0.1919 -0.1640 -0.7427
  556DG     O1012775   2.618   4.314   4.964  0.2327 -0.2507  0.1285
  556DG     C1112776   2.890   4.142   5.325  0.1051  0.2420 -0.1215
  556DG     C1212777   2.518   4.239   5.032  0.7303  0.3481 -0.1825
  556DG     H1312778   2.942   4.182   5.417  1.2445  0.7401  1.9689
  556DG     H1412779   2.865   4.039   5.352 -2.2669 -0.4044 -3.0344
  556DG     H1512780   2.502   4.138   4.990  0.8429 -3.0259  1.1581
  556DG     H1612781   2.419   4.290   5.013 -1.1637  1.2663 -3.1194
  556DG     C1712782   2.750   4.207   5.308 -0.5086 -0.1651 -0.3218
  556DG     C1812783   2.548   4.221   5.185 -0.7628 -0.7019  1.0059
  556DG     O1912784   2.670   4.153   5.208 -0.2990 -0.0286  0.2154
  556DG     H2012785   2.771   4.308   5.290  2.3064 -1.5953 -0.7427
  556DG     H2112786   2.701   4.175   5.406 -1.6483 -2.5580  0.1094
  556DG     H2212787   2.555   4.325   5.226 -0.4376  2.3868 -2.8454
  556DG     H2312788   2.470   4.170   5.242 -1.7609 -0.2297 -0.9827
  557DG      C112789   3.933   3.558   3.966  0.0312  0.3637  0.7507
  557DG      C212790   3.429   3.129   3.751 -0.2819  0.2770  0.2191
  557DG      H312791   3.877   3.629   3.911 -1.2546 -1.2376  0.7901
  557DG      H412792   4.023   3.527   3.916  0.4724  0.6736 -0.7051
  557DG      H512793   3.968   3.604   4.059  2.0131  1.3143  0.8374
  557DG      H612794   3.364   3.215   3.770  0.6688  1.5547  1.6288
  557DG      H712795   3.471   3.131   3.652 -3.6995 -0.7615  0.7003
  557DG      H812796   3.362   3.035   3.753 -1.8743 -0.3313  2.7560
  557DG      O912797   3.859   3.440   3.990  0.0831  0.6412  0.4693
  557DG     O1012798   3.519   3.132   3.859 -0.0531  0.3142 -0.2692
  557DG     C1112799   3.933   3.333   4.051 -0.9518  0.0656 -0.1318
  557DG     C1212800   3.608   3.026   3.872  0.1386  0.0493 -0.4191
  557DG     H1312801   4.013   3.368   4.121 -0.5919  2.0348 -0.7051
  557DG     H1412802   3.998   3.303   3.972  1.0938  1.2073 -1.0418
  557DG     H1512803   3.670   3.013   3.782 -0.0825 -1.5387  3.4532
  557DG     H1612804   3.578   2.926   3.892 -3.3691 -0.0933  1.1961
  557DG     C1712805   3.849   3.210   4.097 -0.3071  0.1516  0.0741
  557DG     C1812806   3.687   3.063   3.998 -0.2157 -0.1915 -0.3201
  557DG     O1912807   3.773   3.172   3.981  0.3472  0.3339 -0.2168
  557DG     H2012808   3.782   3.249   4.174  0.5406  1.4584 -0.9108
  557DG     H2112809   3.903   3.126   4.138  2.3968  1.2128 -0.5336
  557DG     H2212810   3.625   3.078   4.081 -0.5123 -2.9778  3.6195
  557DG     H2312811   3.752   2.979   4.029 -2.0674  2.9445 -2.1476
  558DG      C112812   3.211   2.123   2.187  0.5057  0.1753  0.1130
  558DG      C212813   2.822   1.641   1.614  0.0768  0.1916 -1.1803
  558DG      H312814   3.239   2.097   2.283 -0.0179 -1.0382  0.1460
  558DG      H412815   3.133   2.198   2.192  3.7098  1.3199  0.3179
  558DG      H512816   3.297   2.156   2.126  0.3065 -1.1160 -0.9104
  558DG      H612817   2.745   1.718   1.600  0.4685  1.4686  0.5350
  558DG      H712818   2.915   1.682   1.590 -0.2336  0.5160  0.3057
  558DG      H812819   2.799   1.557   1.551  0.8109 -2.0210 -1.2920
  558DG      O912820   3.149   2.004   2.131  0.0003  0.6906 -0.4193
  558DG     O1012821   2.825   1.613   1.755  0.5252 -0.2490  0.0730
  558DG     C1112822   3.027   1.959   2.180 -0.2178  0.0765 -0.0335
  558DG     C1212823   2.835   1.720   1.850 -0.3976 -0.3509  0.2117
  558DG     H1312824   2.946   2.033   2.180  0.4381  2.0211 -0.4957
  558DG     H1412825   3.039   1.917   2.280  1.1101 -0.2522 -0.2737
  558DG     H1512826   2.786   1.702   1.946 -2.3635  0.3046 -1.6092
  558DG     H1612827   2.777   1.806   1.815 -3.8594 -1.5247  2.3516
  558DG     C1712828   2.983   1.839   2.091 -0.0824  0.1100  0.5634
  558DG     C1812829   2.981   1.754   1.868  0.3772  0.2095  0.4364
  558DG     O1912830   2.993   1.868   1.953  0.5476 -0.2192  0.0886
  558DG     H2012831   2.880   1.803   2.124  0.1821  3.4075  2.0496
  558DG     H2112832   3.041   1.756   2.116 -1.7507 -3.3672 -3.5017
  558DG     H2212833   3.049   1.672   1.897 -1.2494  0.3471  1.5237
  558DG     H2312834   3.014   1.789   1.770 -1.6675  2.6659  3.4998
  559DG      C112835   1.979   1.064   5.141  0.5449  0.1355  0.3073
  559DG      C212836   2.064   1.682   5.328 -0.6919 -0.3401 -0.5643
  559DG      H312837   1.986   0.954   5.127  3.2223 -2.4774  0.6093
  559DG      H412838   1.987   1.115   5.046  0.6310 -0.6947  0.4782
  559DG      H512839   1.874   1.072   5.171 -0.6962 -1.8695  1.4761
  559DG      H612840   1.968   1.694   5.371  0.8288  3.0566 -0.2131
  559DG      H712841   2.128   1.764   5.364 -3.9258 -2.6053 -1.4062
  559DG      H812842   2.053   1.704   5.223  0.7922 -1.6864 -1.9536
  559DG      O912843   2.082   1.115   5.236 -0.2340  0.3277  0.0693
  559DG     O1012844   2.134   1.561   5.349  0.0979 -0.2434  0.8955
  559DG     C1112845   2.071   1.067   5.365 -0.0144  0.2516 -0.1561
  559DG     C1212846   2.144   1.524   5.485 -0.1709  0.1091  0.7255
  559DG     H1312847   2.091   0.963   5.370  0.3629  1.6257  0.1406
  559DG     H1412848   1.971   1.081   5.406  3.4621  1.4498 -0.7373
  559DG     H1512849   2.052   1.527   5.536 -1.9907 -1.2841  1.2669
  559DG     H1612850   2.201   1.609   5.539  1.9990 -0.3000  0.9327
  559DG     C1712851   2.161   1.150   5.447  0.5827 -0.0815  0.0974
  559DG     C1812852   2.199   1.381   5.499 -0.2001  0.6000  0.2612
  559DG     O1912853   2.124   1.288   5.418 -0.0931 -0.1572  0.0912
  559DG     H2012854   2.264   1.121   5.431  0.3248  0.6381  0.5613
  559DG     H2112855   2.149   1.133   5.549  1.1966  0.9408 -1.7127
  559DG     H2212856   2.304   1.379   5.458 -1.3984 -1.2170 -1.7699
  559DG     H2312857   2.203   1.362   5.602 -2.1659  2.5437  0.9415
  560DG      C112858   2.047   4.733   1.898  0.0885 -0.4741  0.5304
  560DG      C212859   2.217   5.139   1.334 -0.0177  0.0376  0.4553
  560DG      H312860   1.943   4.737   1.875  0.1432  3.0732  3.2298
  560DG      H412861   2.064   4.695   1.994  1.3650  0.8245  0.8696
  560DG      H512862   2.095   4.674   1.821  0.4793  1.7758  1.5298
  560DG      H612863   2.113   5.161   1.334  1.9143 -2.9237 -0.6207
  560DG      H712864   2.274   5.228   1.307  2.5606  0.4753  3.6422
  560DG      H812865   2.240   5.069   1.250  2.8549  0.8173  0.4285
  560DG      O912866   2.101   4.867   1.892 -0.1126  0.6057 -0.6551
  560DG     O1012867   2.263   5.103   1.460  0.0711  0.1618  0.6461
  560DG     C1112868   2.242   4.865   1.910 -0.1732  0.0593  0.0578
  560DG     C1212869   2.243   5.193   1.564  0.4024 -0.1857  1.1435
  560DG     H1312870   2.293   4.787   1.857 -1.8428 -4.8939 -0.3983
  560DG     H1412871   2.246   4.846   2.015 -2.8740 -1.5872 -1.0745
  560DG     H1512872   2.139   5.199   1.582 -0.1932  2.1035  1.1175
  560DG     H1612873   2.275   5.294   1.544 -1.4251  0.3700  0.3280
  560DG     C1712874   2.299   4.994   1.861 -0.6733  0.1787 -0.3500
  560DG     C1812875   2.314   5.150   1.690 -0.0992 -0.2987  0.9882
  560DG     O1912876   2.267   5.018   1.728  1.0298 -0.2229  0.3361
  560DG     H2012877   2.401   4.976   1.875 -1.9025  0.4935  1.9891
  560DG     H2112878   2.265   5.070   1.933 -1.3189 -0.4533 -1.9495
  560DG     H2212879   2.421   5.144   1.669  1.1970 -1.8416 -1.3859
  560DG     H2312880   2.292   5.227   1.759  0.6327  2.3730 -2.4451
  561DG      C112881   0.687   4.859   3.500 -0.4387 -0.2250  0.1598
  561DG      C212882   0.299   5.407   3.894 -0.1132  0.6310 -0.1055
  561DG      H312883   0.700   4.819   3.408  2.3614 -0.6181  0.3369
  561DG      H412884   0.615   4.810   3.567  0.6998  0.2676  2.3126
  561DG      H512885   0.784   4.844   3.548 -0.7722  2.0700  1.8503
  561DG      H612886   0.193   5.386   3.890 -0.3202  0.1751  1.6435
  561DG      H712887   0.334   5.382   3.996 -1.0357  0.9879  0.0073
  561DG      H812888   0.319   5.511   3.881 -2.9346 -4.0835  0.8297
  561DG      O912889   0.658   5.001   3.498  0.8554  0.2630  0.2034
  561DG     O1012890   0.369   5.327   3.802 -0.1759 -0.6497  0.1870
  561DG     C1112891   0.663   5.057   3.629 -0.0342 -0.4664  0.3340
  561DG     C1212892   0.345   5.359   3.665  0.7498 -0.3099  0.6717
  561DG     H1312893   0.763   5.038   3.668 -1.6555 -1.1596  3.6559
  561DG     H1412894   0.592   5.007   3.696 -2.6011 -1.2177 -2.5625
  561DG     H1512895   0.307   5.458   3.647 -0.5645  1.5349  0.1129
  561DG     H1612896   0.256   5.293   3.643  2.9259  0.0765  0.2346
  561DG     C1712897   0.627   5.206   3.630  0.1193 -0.0279 -0.4740
  561DG     C1812898   0.459   5.343   3.569 -0.1021 -0.3593 -0.1355
  561DG     O1912899   0.500   5.208   3.571  0.2955  0.2949 -0.2929
  561DG     H2012900   0.698   5.259   3.566  0.0793  0.2434 -1.9090
  561DG     H2112901   0.625   5.254   3.726 -2.4713  0.5300 -1.6405
  561DG     H2212902   0.435   5.360   3.465  0.8383 -0.5408 -1.1411
  561DG     H2312903   0.539   5.419   3.570  0.5034  2.1033  0.7280
  562DG      C112904   3.539   2.472   3.132  0.3223  0.2075 -0.4245
  562DG      C212905   2.719   2.624   3.040  0.7639 -0.2771 -0.0067
  562DG      H312906   3.616   2.452   3.066 -1.3122  0.5805 -0.2492
  562DG      H412907   3.544   2.409   3.222 -1.3099  0.6421  2.2005
  562DG      H512908   3.552   2.580   3.161  0.5241  1.5122 -0.7105
  562DG      H612909   2.740   2.681   3.132 -1.2900 -0.2011  2.1203
  562DG      H712910   2.745   2.699   2.966  2.0332  0.1978 -4.1615
  562DG      H812911   2.612   2.614   3.035 -0.8941  0.1772 -1.3755
  562DG      O912912   3.419   2.463   3.054 -0.0440  0.3171 -0.2548
  562DG     O1012913   2.789   2.499   3.027 -0.1135 -0.1415  0.4577
  562DG     C1112914   3.386   2.327   3.035 -0.0982  0.1277 -0.6948
  562DG     C1212915   2.931   2.519   3.041 -0.3630 -0.4875  0.4364
  562DG     H1312916   3.385   2.279   3.134 -1.9047 -2.6062 -0.6391
  562DG     H1412917   3.455   2.280   2.964  0.0254  2.4579  3.4601
  562DG     H1512918   2.962   2.533   3.146  0.3158 -1.5599 -1.4887
  562DG     H1612919   2.950   2.614   2.992 -2.0048 -0.2514  1.0223
  562DG     C1712920   3.242   2.302   2.969 -0.1102 -0.2219  0.4299
  562DG     C1812921   3.021   2.403   2.987 -0.1593  0.0562  0.0089
  562DG     O1912922   3.160   2.404   3.025  0.2265  0.0666  0.4053
  562DG     H2012923   3.196   2.198   2.974 -1.2209 -2.0267 -1.3489
  562DG     H2112924   3.252   2.309   2.860 -2.4578 -0.4267 -3.0590
  562DG     H2212925   2.980   2.305   3.013 -0.5086 -1.6017 -0.3325
  562DG     H2312926   3.014   2.400   2.882 -0.6540  0.6758  0.4588
  563DG      C112927   4.462   1.649   4.028 -0.2848 -0.3131 -0.7235
  563DG      C212928   3.933   1.997   4.595 -1.1788 -0.3216  0.6507
  563DG      H312929   4.570   1.635   4.023  0.3153 -3.0346  2.4974
  563DG      H412930   4.433   1.659   3.923 -0.5507  1.2192  1.8776
  563DG      H512931   4.423   1.552   4.065 -1.7875  0.4296  1.0784
  563DG      H612932   3.842   1.947   4.569  0.5261 -1.2233  0.1150
  563DG      H712933   3.963   1.950   4.685 -2.7910  1.7650  0.1164
  563DG      H812934   3.901   2.097   4.619  1.0649 -1.9295 -2.4838
  563DG      O912935   4.431   1.754   4.113 -0.1940 -0.1460  0.1081
  563DG     O1012936   4.024   2.011   4.491 -0.0408 -0.1445  0.4202
  563DG     C1112937   4.286   1.763   4.123 -0.6058  0.4153 -0.2757
  563DG     C1212938   4.050   1.884   4.435  0.5709 -0.3618 -1.0688
  563DG     H1312939   4.244   1.678   4.178 -0.9254  1.4500  2.0823
  563DG     H1412940   4.251   1.757   4.019  0.4378 -1.7546 -0.3568
  563DG     H1512941   3.980   1.870   4.351 -0.9144  0.9484  0.1864
  563DG     H1612942   4.013   1.817   4.510 -0.6430  0.7283  1.2029
  563DG     C1712943   4.228   1.894   4.171  0.1970 -0.1872 -0.0618
  563DG     C1812944   4.200   1.852   4.416  0.1379  0.6122 -0.3860
  563DG     O1912945   4.265   1.930   4.311  0.1116  0.3891 -1.1577
  563DG     H2012946   4.117   1.893   4.163 -0.3407  0.2740 -0.7286
  563DG     H2112947   4.273   1.973   4.105  0.5020  0.4217 -0.3144
  563DG     H2212948   4.249   1.856   4.512 -2.5487  2.1083 -1.2703
  563DG     H2312949   4.198   1.744   4.391 -0.7316 -0.5660  2.4870
  564DG      C112950   3.736   2.447   0.748 -0.3898  0.2357  0.2569
  564DG      C212951   3.536   3.069   0.706  0.1278 -0.1898 -0.2233
  564DG      H312952   3.771   2.360   0.804 -2.1118  1.0394 -0.0561
  564DG      H412953   3.817   2.473   0.685 -1.2459 -1.1119 -0.8147
  564DG      H512954   3.645   2.422   0.691 -1.3220 -0.1038 -0.7883
  564DG      H612955   3.444   3.039   0.657 -1.3253  1.9028 -0.4332
  564DG      H712956   3.521   3.168   0.744  1.0171  0.4126 -1.7435
  564DG      H812957   3.615   3.091   0.631 -1.1512  1.7287  0.4905
  564DG      O912958   3.702   2.560   0.831  0.4775 -0.1182  0.3704
  564DG     O1012959   3.569   2.984   0.811 -0.6107  0.5930  0.3598
  564DG     C1112960   3.592   2.545   0.914 -0.1129 -0.8454 -0.2728
  564DG     C1212961   3.500   3.006   0.929  0.8596  0.1507  0.1857
  564DG     H1312962   3.600   2.454   0.979 -2.6742  0.2586 -1.0338
  564DG     H1412963   3.493   2.539   0.870 -1.6821  1.1994 -0.5745
  564DG     H1512964   3.394   3.021   0.910 -2.3321  3.8435  1.3209
  564DG     H1612965   3.534   3.102   0.968 -0.6753 -0.8729 -1.9124
  564DG     C1712966   3.603   2.659   1.012  0.9628  0.0169  0.6300
  564DG     C1812967   3.530   2.891   1.011 -0.4431 -0.3488  0.5162
  564DG     O1912968   3.544   2.769   0.943  0.3052  0.0879  0.3891
  564DG     H2012969   3.709   2.669   1.036  0.1468 -1.4532 -1.0498
  564DG     H2112970   3.559   2.645   1.110  2.3884 -1.4158  0.5976
  564DG     H2212971   3.617   2.903   1.078 -2.2252  0.3666  0.2528
  564DG     H2312972   3.452   2.867   1.082  1.3092 -1.0285  0.6511
  565DG      C112973   1.272   4.226   4.594  0.3055 -0.9810 -0.6240
  565DG      C212974   1.376   3.519   5.035  0.8854  0.1877 -0.3288
  565DG      H312975   1.360   4.202   4.541 -0.5287  2.0636 -1.7183
  565DG      H412976   1.276   4.328   4.626 -1.9467 -2.3417 -1.0735
  565DG      H512977   1.189   4.231   4.528 -0.0301 -0.3217 -1.5572
  565DG      H612978   1.310   3.468   4.967 -0.8875 -2.1764 -1.9932
  565DG      H712979   1.471   3.523   5.005 -1.6463  0.8450  0.0917
  565DG      H812980   1.387   3.455   5.119 -0.1020  0.2732 -2.9851
  565DG      O912981   1.251   4.144   4.705 -0.2299 -0.4945  0.0917
  565DG     O1012982   1.315   3.646   5.066  0.5659 -0.1250 -0.1971
  565DG     C1112983   1.314   4.172   4.826  0.1816 -0.6588  0.4569
  565DG     C1212984   1.280   3.727   4.955  0.6991  0.5481  1.1347
  565DG     H1312985   1.319   4.275   4.860 -1.4036  0.6105  1.3260
  565DG     H1412986   1.421   4.141   4.808  1.6566  0.3377 -0.6055
  565DG     H1512987   1.206   3.671   4.895  1.5880  0.7871 -1.1830
  565DG     H1612988   1.362   3.742   4.887 -0.3259  1.2600 -0.4818
  565DG     C1712989   1.263   4.091   4.938  0.0270  0.2235  0.5154
  565DG     C1812990   1.238   3.866   4.999 -0.0659  0.6240  0.7795
  565DG     O1912991   1.255   3.961   4.893 -0.3613 -0.5717 -0.4488
  565DG     H2012992   1.166   4.132   4.962  0.3170 -0.6004  0.2234
  565DG     H2112993   1.326   4.087   5.023  0.8502 -0.3275 -3.0380
  565DG     H2212994   1.140   3.880   5.051 -0.5230 -2.1730  2.2214
  565DG     H2312995   1.317   3.892   5.079  2.1028  1.8981  2.6590
  566DG      C112996   0.619   1.866   0.978 -0.1115 -0.3174  0.2369
  566DG      C212997   0.938   1.724   1.572  1.0789  0.1658  0.0686
  566DG      H312998   0.535   1.896   1.034  0.8581 -0.7623 -2.1350
  566DG      H412999   0.585   1.770   0.941  1.5522  0.8329  0.8725
  566DG      H513000   0.629   1.941   0.896  0.7477  2.6955  1.5904
  566DG      H613001   1.014   1.732   1.647 -2.9659  0.5440 -0.8501
  566DG      H713002   0.844   1.775   1.606 -0.5931  1.8108 -0.1782
  566DG      H813003   0.917   1.616   1.565  0.1150 -0.0985 -2.3174
  566DG      O913004   0.738   1.876   1.051 -0.1381 -0.2387 -0.2893
  566DG     O1013005   0.968   1.765   1.436 -0.2806  0.0040  0.2327
  566DG     C1113006   0.851   1.834   0.974 -0.2767 -0.2973 -0.5405
  566DG     C1213007   1.085   1.710   1.371  0.4788 -0.4006  0.0213
  566DG     H1313008   0.857   1.891   0.883 -0.1337  0.5990 -1.5869
  566DG     H1413009   0.853   1.731   0.944  0.3694 -0.3598 -0.4300
  566DG     H1513010   1.071   1.601   1.371  3.1242 -0.5571 -2.6254
  566DG     H1613011   1.174   1.729   1.435  0.5526  0.5116 -1.9502
  566DG     C1713012   0.988   1.856   1.039  0.3956 -0.5664  0.2482
  566DG     C1813013   1.106   1.782   1.238 -0.4378 -0.5976  0.1178
  566DG     O1913014   0.987   1.773   1.155  0.2809  0.1969 -0.3620
  566DG     H2013015   1.012   1.951   1.072 -0.3275 -1.5053  0.0833
  566DG     H2113016   1.073   1.832   0.972 -0.1586 -0.1573 -0.5051
  566DG     H2213017   1.131   1.888   1.255  1.0987 -1.0572 -1.1719
  566DG     H2313018   1.195   1.744   1.181  0.1326 -1.4344 -2.2335
  567DG      C113019   3.075   1.204   0.508  0.3548 -0.3343  0.0456
  567DG      C213020   3.223   1.827   0.503  0.3876  1.0765 -0.2318
  567DG      H313021   3.027   1.116   0.556  1.0193 -0.9843 -2.2139
  567DG      H413022   3.184   1.178   0.514  3.9192  3.3836  0.6761
  567DG      H513023   3.041   1.228   0.411  0.7089 -2.2476 -0.7213
  567DG      H613024   3.209   1.935   0.501 -2.2260  3.9842 -3.0298
  567DG      H713025   3.329   1.808   0.505 -0.7845  0.4961 -2.2597
  567DG      H813026   3.176   1.802   0.406  0.7439  0.2152  2.5536
  567DG      O913027   3.046   1.309   0.603  0.8034  0.2558  0.2396
  567DG     O1013028   3.156   1.756   0.607 -0.1719 -0.0815 -0.4222
  567DG     C1113029   2.905   1.341   0.600 -0.2203 -0.3209  0.7785
  567DG     C1213030   3.015   1.788   0.625  0.8378  0.0049 -0.5995
  567DG     H1313031   2.837   1.255   0.626 -1.0078 -0.2908  2.7838
  567DG     H1413032   2.890   1.388   0.499 -1.1309  2.3270  0.8577
  567DG     H1513033   2.963   1.795   0.529 -2.7099  0.3404 -2.4281
  567DG     H1613034   3.006   1.884   0.664  0.2358 -3.0377 -1.3193
  567DG     C1713035   2.875   1.442   0.703  0.7160  0.1073  0.1830
  567DG     C1813036   2.945   1.683   0.719 -0.2543 -0.0475 -0.0933
  567DG     O1913037   2.941   1.561   0.645 -0.6116 -0.1731 -0.3730
  567DG     H2013038   2.911   1.415   0.796  2.1576 -2.2362  0.1455
  567DG     H2113039   2.764   1.445   0.715  0.9478  0.8355  2.3375
  567DG     H2213040   2.997   1.679   0.819  2.2506 -1.3965  2.0326
  567DG     H2313041   2.849   1.718   0.746 -0.6843  1.7731  0.6582
  568DG      C113042   2.712   0.737   1.184 -0.3681  0.4914 -0.1517
  568DG      C213043   3.427   1.173   1.128  0.4961  0.0938  0.1235
  568DG      H313044   2.683   0.833   1.141  1.0401  2.9916  0.2530
  568DG      H413045   2.637   0.702   1.259 -0.2525 -0.8351  2.1306
  568DG      H513046   2.730   0.670   1.101  1.7386  1.2039 -0.9574
  568DG      H613047   3.384   1.273   1.108 -0.9381  1.2186 -3.7488
  568DG      H713048   3.521   1.181   1.183  2.6915 -1.1369  1.8073
  568DG      H813049   3.439   1.106   1.039  1.6422  1.0512 -0.3449
  568DG      O913050   2.835   0.749   1.264  0.2815  0.3762 -0.4488
  568DG     O1013051   3.330   1.124   1.217 -0.1859 -0.0401 -0.0496
  568DG     C1113052   2.938   0.825   1.208  0.6302 -0.4972  0.2648
  568DG     C1213053   3.366   1.009   1.290 -0.4405  0.0447  0.3338
  568DG     H1313054   2.895   0.928   1.201  1.1031  0.6481  3.0175
  568DG     H1413055   2.973   0.797   1.108 -1.3262 -0.5265  0.7089
  568DG     H1513056   3.423   1.041   1.373  0.8977 -2.8960  1.2109
  568DG     H1613057   3.440   0.940   1.234  3.3890 -0.9393 -1.0214
  568DG     C1713058   3.053   0.820   1.306  0.3900 -0.3448 -0.2545
  568DG     C1813059   3.248   0.934   1.351 -0.4064 -0.2713  0.3866
  568DG     O1913060   3.157   0.894   1.252  0.0408 -0.6305  0.3671
  568DG     H2013061   3.080   0.712   1.314 -0.1513 -3.3856  0.4535
  568DG     H2113062   3.028   0.864   1.400 -2.0500  2.0006 -1.7576
  568DG     H2213063   3.273   0.854   1.422 -0.7637  0.4221  0.1726
  568DG     H2313064   3.209   1.009   1.412  2.0878 -0.4320 -1.9695
  569DG      C113065   1.502   0.330   3.056 -0.1710  0.4988 -0.1482
  569DG      C213066   1.929   0.909   3.279 -0.5726 -0.7837  0.3590
  569DG      H313067   1.411   0.371   3.097  0.7683 -2.1990  2.0748
  569DG      H413068   1.497   0.221   3.066 -0.9077  0.5399 -0.5867
  569DG      H513069   1.494   0.331   2.949 -0.8763 -2.0370  1.3642
  569DG      H613070   1.915   0.914   3.171  0.0177 -1.6127  1.0764
  569DG      H713071   1.852   0.973   3.318  0.8973 -0.6839 -0.6472
  569DG      H813072   2.029   0.959   3.297 -0.3560 -2.2178  1.1839
  569DG      O913073   1.630   0.378   3.102 -0.4655 -0.2999 -0.0464
  569DG     O1013074   1.903   0.780   3.322 -0.8748  0.5817  0.1714
  569DG     C1113075   1.653   0.343   3.239 -0.6312  0.4178  0.3690
  569DG     C1213076   2.006   0.690   3.281 -0.3630 -0.4214 -0.1325
  569DG     H1313077   1.627   0.236   3.243 -0.3444 -1.1067 -2.5812
  569DG     H1413078   1.581   0.410   3.292  1.6032  1.7368  2.9019
  569DG     H1513079   2.108   0.716   3.320  1.8192  3.0602  0.2686
  569DG     H1613080   2.021   0.699   3.174 -0.4092  1.5130 -0.9534
  569DG     C1713081   1.801   0.371   3.293  0.1151 -0.1511 -0.4098
  569DG     C1813082   1.964   0.546   3.329 -0.3420 -0.5330 -0.8329
  569DG     O1913083   1.852   0.503   3.253 -0.0110 -0.0497 -0.1880
  569DG     H2013084   1.861   0.282   3.260  0.5720 -1.3020  1.9677
  569DG     H2113085   1.803   0.368   3.403 -0.6626  1.6035 -0.7257
  569DG     H2213086   2.045   0.479   3.314 -3.4615 -1.6813 -0.9331
  569DG     H2313087   1.945   0.549   3.439 -1.7012  1.0339 -1.1892
  570DG      C113088   0.251   1.477   4.869 -0.0269 -0.5398  0.8713
  570DG      C213089   0.342   1.111   4.416 -0.1614 -0.3423  0.6116
  570DG      H313090   0.188   1.502   4.780  1.4662  0.6016 -0.0700
  570DG      H413091   0.264   1.573   4.921 -0.3894 -2.4858  0.4728
  570DG      H513092   0.190   1.424   4.944 -0.3562 -1.7440 -0.8391
  570DG      H613093   0.241   1.082   4.453  1.7262  0.9468 -0.7705
  570DG      H713094   0.340   1.207   4.360  1.4503 -0.0563  0.8119
  570DG      H813095   0.371   1.029   4.355  0.1518  1.6912 -1.5976
  570DG      O913096   0.376   1.421   4.836 -0.5919 -0.7353 -0.3178
  570DG     O1013097   0.436   1.135   4.520  0.1434 -0.0218  0.3738
  570DG     C1113098   0.449   1.358   4.945  0.3706  0.0360  0.6830
  570DG     C1213099   0.453   1.019   4.608 -0.0192 -0.0567  0.3523
  570DG     H1313100   0.380   1.313   5.019  0.3158 -0.9321 -0.3023
  570DG     H1413101   0.514   1.432   5.000  1.0505 -0.3368  0.5541
  570DG     H1513102   0.510   0.940   4.555 -0.9107 -1.2085 -2.1539
  570DG     H1613103   0.357   0.990   4.653  0.3893  0.1483 -0.8330
  570DG     C1713104   0.534   1.237   4.887  0.1917 -0.2779 -0.0636
  570DG     C1813105   0.545   1.074   4.718  0.5478 -0.3875  0.0671
  570DG     O1913106   0.469   1.179   4.777 -0.6927 -0.2858  0.0478
  570DG     H2013107   0.549   1.163   4.970 -0.3306 -0.1236  0.6887
  570DG     H2113108   0.628   1.280   4.843 -0.5342  0.5407  1.1854
  570DG     H2213109   0.560   0.988   4.782  1.8450 -0.8141  0.4252
  570DG     H2313110   0.644   1.107   4.675  0.5650  0.9497  0.2361
  571DG      C113111   2.297   4.236   3.971 -0.2270 -0.4587  0.4349
  571DG      C213112   2.262   4.179   4.728 -0.1851 -0.1093  0.0648
  571DG      H313113   2.237   4.285   3.897  0.8677 -1.2970  1.2012
  571DG      H413114   2.293   4.121   3.969 -1.3932  3.4337 -0.2130
  571DG      H513115   2.394   4.277   3.963 -0.0076  1.6582  1.3738
  571DG      H613116   2.246   4.093   4.665  0.3979 -0.7738 -2.5463
  571DG      H713117   2.349   4.152   4.784  0.5354 -1.0370 -1.4865
  571DG      H813118   2.183   4.178   4.803 -2.8885  0.6802 -0.2869
  571DG      O913119   2.248   4.278   4.096 -0.1908 -0.1683  0.3901
  571DG     O1013120   2.273   4.294   4.646  0.2099 -0.1217  1.0218
  571DG     C1113121   2.268   4.417   4.125 -1.3274  0.0640 -0.1938
  571DG     C1213122   2.152   4.319   4.585  0.6840 -0.4253 -0.1038
  571DG     H1313123   2.248   4.482   4.036  0.0004  1.7900  1.0326
  571DG     H1413124   2.372   4.445   4.142  2.3255  0.8704 -2.8050
  571DG     H1513125   2.072   4.338   4.661 -2.1110  1.0010  2.3933
  571DG     H1613126   2.104   4.236   4.533  1.1794  1.1870  0.6100
  571DG     C1713127   2.181   4.472   4.238 -0.7429  0.0237  0.4258
  571DG     C1813128   2.159   4.436   4.472 -0.3455  0.6412 -0.7610
  571DG     O1913129   2.222   4.395   4.350  0.1876 -0.0055 -0.4698
  571DG     H2013130   2.076   4.465   4.213  0.5839 -0.0365  1.1624
  571DG     H2113131   2.210   4.580   4.260  1.4370  0.3760 -1.5280
  571DG     H2213132   2.056   4.444   4.447  0.9184 -2.2861 -1.0395
  571DG     H2313133   2.203   4.541   4.496  0.3030  0.9092  0.9643
  572DG      C113134   2.054   4.249   3.604  0.0503  0.1389 -0.3300
  572DG      C213135   2.067   4.066   4.284 -0.2703 -0.0648  0.0479
  572DG      H313136   2.022   4.215   3.508  3.9183 -0.3127 -2.6858
  572DG      H413137   2.154   4.281   3.588  1.8874 -2.7193 -1.8540
  572DG      H513138   1.985   4.322   3.644 -0.6648 -0.3829 -1.6882
  572DG      H613139   2.171   4.103   4.304  1.5156  0.3361  0.4998
  572DG      H713140   1.986   4.141   4.279 -3.1722 -0.7289 -1.1020
  572DG      H813141   2.037   3.997   4.360  1.7199  1.4951  1.2007
  572DG      O913142   2.039   4.147   3.696 -0.3547  0.3602 -0.1557
  572DG     O1013143   2.045   4.010   4.159 -0.2810  0.1536  0.4769
  572DG     C1113144   2.129   4.044   3.672  0.4594 -0.3743 -0.4685
  572DG     C1213145   2.130   3.901   4.132  0.3638 -0.4495  0.7078
  572DG     H1313146   2.228   4.088   3.708  2.7279 -0.1380  0.7639
  572DG     H1413147   2.128   4.006   3.568  0.4945 -0.6065  0.1744
  572DG     H1513148   2.126   3.816   4.201 -1.0769 -1.9792 -0.4645
  572DG     H1613149   2.235   3.938   4.139  0.6889 -2.1297 -0.5062
  572DG     C1713150   2.114   3.917   3.756  0.5266 -0.0568  0.5121
  572DG     C1813151   2.106   3.846   3.983  0.3168 -0.2919 -0.0994
  572DG     O1913152   2.126   3.958   3.892  0.0508 -0.3712 -0.0595
  572DG     H2013153   2.186   3.839   3.733  0.9397 -0.6292  0.4216
  572DG     H2113154   2.009   3.884   3.742 -2.9831 -0.2016 -2.0132
  572DG     H2213155   2.174   3.765   3.958  1.0694  2.5914 -1.7319
  572DG     H2313156   2.008   3.800   3.994  1.8087 -1.4354  2.5843
  573DG      C113157   0.624   0.735   0.073 -0.1744  0.4209  0.0222
  573DG      C213158   1.199   0.262  -0.506 -0.2553 -0.5432  0.6410
  573DG      H313159   0.546   0.753  -0.001 -2.9894 -0.6001 -1.5481
  573DG      H413160   0.632   0.825   0.129 -0.5064 -1.6084  1.3040
  573DG      H513161   0.577   0.661   0.135 -1.0003  0.8422  1.2804
  573DG      H613162   1.300   0.211  -0.501  0.5414 -1.1725  2.3340
  573DG      H713163   1.139   0.204  -0.574  1.4344  1.2740 -0.0494
  573DG      H813164   1.222   0.361  -0.539  1.5610 -1.3610  1.0798
  573DG      O913165   0.751   0.702   0.025 -0.6057  0.3262 -0.3597
  573DG     O1013166   1.156   0.272  -0.374  0.4029  0.4131 -0.0018
  573DG     C1113167   0.761   0.618  -0.088  0.6086 -0.3900  0.9125
  573DG     C1213168   1.028   0.340  -0.365 -0.3733 -0.0382  0.7872
  573DG     H1313169   0.765   0.698  -0.166  2.9919 -0.2074  1.8462
  573DG     H1413170   0.677   0.555  -0.090  1.4355 -0.9543  0.0769
  573DG     H1513171   0.949   0.293  -0.414 -2.8373  2.5714 -1.6827
  573DG     H1613172   1.032   0.439  -0.414 -2.6090  0.8606  0.0484
  573DG     C1713173   0.883   0.532  -0.093  0.4410  0.0493 -0.0295
  573DG     C1813174   1.009   0.373  -0.223 -0.8928  0.0260 -0.0322
  573DG     O1913175   0.899   0.467  -0.216 -0.2677  0.3145  0.1519
  573DG     H2013176   0.883   0.460  -0.005  1.9537  0.8747  0.2085
  573DG     H2113177   0.967   0.596  -0.076  3.1059 -2.9674 -0.7118
  573DG     H2213178   0.995   0.291  -0.157  0.3525  1.8107 -0.6706
  573DG     H2313179   1.100   0.417  -0.186 -1.3309 -2.6463  1.1531
  574DG      C113180   4.890   4.385   1.114 -0.0444 -0.6533  0.6228
  574DG      C213181   5.096   4.721   1.855  0.2886 -0.1631  0.5934
  574DG      H313182   4.925   4.434   1.027  0.4155  1.5677  0.1146
  574DG      H413183   4.782   4.356   1.109 -3.7228 -0.6089 -0.3352
  574DG      H513184   4.959   4.304   1.132  1.4360 -2.1287  1.1637
  574DG      H613185   4.991   4.729   1.897  0.7146  0.0804  0.0296
  574DG      H713186   5.157   4.668   1.930  1.5954  0.1652  0.8034
  574DG      H813187   5.124   4.831   1.852  1.1514  1.2363 -0.9587
  574DG      O913188   4.908   4.475   1.222  0.1748 -0.1185 -0.6499
  574DG     O1013189   5.110   4.660   1.719  0.2238  0.1668  0.2563
  574DG     C1113190   5.045   4.483   1.260  1.3986 -0.1515  0.5586
  574DG     C1213191   5.069   4.529   1.716  0.1162  0.5034  0.6625
  574DG     H1313192   5.113   4.505   1.177 -0.3079 -0.8425 -1.7746
  574DG     H1413193   5.098   4.391   1.291 -0.4926 -0.8878  1.0076
  574DG     H1513194   4.972   4.519   1.772 -0.5096  0.6003  1.1943
  574DG     H1613195   5.146   4.469   1.767  2.7135  0.1848  1.0725
  574DG     C1713196   5.065   4.594   1.363 -0.6613  0.7588  0.4699
  574DG     C1813197   5.075   4.484   1.567  0.1451  0.5214  0.6865
  574DG     O1913198   4.997   4.572   1.485  0.1803  0.0798  0.2779
  574DG     H2013199   5.019   4.683   1.318 -0.1273  2.1313 -0.9532
  574DG     H2113200   5.171   4.617   1.373 -0.1677 -0.4937 -0.5402
  574DG     H2213201   5.179   4.479   1.536  0.3167  0.6503 -1.0764
  574DG     H2313202   5.053   4.381   1.540 -3.1992 -3.0921 -1.2004
  575DG      C113203   4.962   2.530   1.119 -0.1178 -0.2150  0.5506
  575DG      C213204   4.825   3.138   1.086  0.2013  0.6054 -0.3942
  575DG      H313205   4.862   2.530   1.075 -0.1144  0.0193 -0.4750
  575DG      H413206   4.937   2.516   1.219 -1.0825  2.2023  1.4035
  575DG      H513207   5.013   2.440   1.094 -1.1704  0.0915 -0.6862
  575DG      H613208   4.726   3.118   1.139 -0.9003 -1.6386 -1.9772
  575DG      H713209   4.905   3.148   1.155 -0.3707 -0.8211  1.9775
  575DG      H813210   4.814   3.238   1.038  1.6782 -0.0436  1.6444
  575DG      O913211   5.009   2.658   1.093  0.1306  0.6397  0.6786
  575DG     O1013212   4.848   3.039   0.991  0.6993  0.0078 -0.2903
  575DG     C1113213   5.148   2.668   1.117  0.4588  0.7732 -0.5372
  575DG     C1213214   4.966   3.074   0.912 -0.0435 -0.1194 -0.1057
  575DG     H1313215   5.212   2.588   1.077 -0.7789 -0.2888 -2.2477
  575DG     H1413216   5.170   2.651   1.218  0.3499 -0.0291 -2.3013
  575DG     H1513217   4.992   3.179   0.897 -1.6841 -1.3754  2.2046
  575DG     H1613218   4.946   3.028   0.819 -1.6682 -1.0062  0.2796
  575DG     C1713219   5.187   2.817   1.085  0.5370 -0.1759 -0.7609
  575DG     C1813220   5.092   3.014   0.970  0.1787 -0.2661 -0.4260
  575DG     O1913221   5.085   2.873   1.003  0.2090 -0.2292  0.0450
  575DG     H2013222   5.280   2.817   1.024 -0.0956  0.4316  0.7513
  575DG     H2113223   5.200   2.866   1.177  1.9469  1.0067 -1.3836
  575DG     H2213224   5.179   3.033   0.909 -2.2988 -1.1140  3.9329
  575DG     H2313225   5.109   3.055   1.070 -1.0217 -0.3508 -1.0853
  576DG      C113226   4.997   3.179   1.524 -0.7934 -0.4059 -0.2561
  576DG      C213227   4.391   3.028   1.948  0.2816  0.6714 -0.0739
  576DG      H313228   5.018   3.066   1.520 -2.3098 -1.4691  0.7305
  576DG      H413229   5.089   3.233   1.540  1.4907 -1.6647 -1.7808
  576DG      H513230   4.954   3.201   1.428 -0.0114 -1.9939  2.3376
  576DG      H613231   4.385   2.925   1.990  1.7801 -1.8885 -2.9312
  576DG      H713232   4.311   3.076   1.996 -3.3534 -0.4902  3.2420
  576DG      H813233   4.343   3.017   1.846  1.3583 -3.2838  3.5812
  576DG      O913234   4.908   3.207   1.632 -0.5538  0.0897  0.2283
  576DG     O1013235   4.523   3.083   1.955  0.7080  0.7325 -0.6432
  576DG     C1113236   4.972   3.171   1.758 -1.3429  0.3203  0.4173
  576DG     C1213237   4.530   3.222   1.927 -0.2923  0.0233 -0.1270
  576DG     H1313238   5.073   3.217   1.764 -0.9370 -2.0050 -1.8135
  576DG     H1413239   4.993   3.061   1.756  0.1335 -0.0373 -1.4828
  576DG     H1513240   4.463   3.274   1.997 -1.0287 -1.7298 -1.1705
  576DG     H1613241   4.487   3.228   1.826 -0.5747  1.7628  2.3761
  576DG     C1713242   4.888   3.212   1.880  0.2438 -0.9249 -0.4935
  576DG     C1813243   4.673   3.268   1.945 -0.6292  0.2740  0.6069
  576DG     O1913244   4.752   3.183   1.864  0.2159  0.2195 -0.3547
  576DG     H2013245   4.892   3.321   1.884 -0.5225 -1.2467 -2.6359
  576DG     H2113246   4.925   3.168   1.974  1.1652 -0.8287 -0.8281
  576DG     H2213247   4.678   3.368   1.913 -0.2939  2.7896  2.7780
  576DG     H2313248   4.706   3.263   2.054  2.0267 -1.3848 -1.3354
  577DG      C113249   3.750   5.326   4.720 -0.1672  0.5793  0.4338
  577DG      C213250   3.456   4.845   4.611 -0.5711 -0.7720 -0.2201
  577DG      H313251   3.750   5.280   4.624 -2.0615  1.3636 -0.0253
  577DG      H413252   3.840   5.288   4.767 -0.9044  1.1465 -1.5112
  577DG      H513253   3.784   5.429   4.703 -2.0452  3.7007 -0.6819
  577DG      H613254   3.532   4.779   4.573  0.6551  0.2311 -1.0549
  577DG      H713255   3.466   4.865   4.715  0.2238  0.7873  0.3335
  577DG      H813256   3.371   4.779   4.587  1.4403  1.4722  0.9780
  577DG      O913257   3.639   5.312   4.803 -0.6013  0.2786 -0.0481
  577DG     O1013258   3.445   4.963   4.534  0.5183  0.6038  0.0417
  577DG     C1113259   3.517   5.343   4.734  0.9879 -0.2100  0.5643
  577DG     C1213260   3.307   5.003   4.526 -0.1462 -0.1995 -0.3362
  577DG     H1313261   3.524   5.441   4.674  1.8271 -2.2337  1.0774
  577DG     H1413262   3.443   5.358   4.812 -1.0745  0.0703  0.7721
  577DG     H1513263   3.257   4.981   4.621 -2.1429 -2.0651  1.1305
  577DG     H1613264   3.262   4.952   4.445  2.1864  0.0883 -1.5949
  577DG     C1713265   3.484   5.233   4.634  0.1393 -0.2331  0.6802
  577DG     C1813266   3.298   5.154   4.500  0.6618 -0.3517  0.3310
  577DG     O1913267   3.342   5.239   4.609 -0.5408 -0.5559 -0.1164
  577DG     H2013268   3.508   5.136   4.674  0.9030  0.6607 -2.9149
  577DG     H2113269   3.548   5.248   4.555 -3.0308 -0.6303  2.4152
  577DG     H2213270   3.345   5.189   4.411 -1.0144 -1.3840  1.3607
  577DG     H2313271   3.196   5.174   4.479 -1.2066 -1.0509  0.9841
  578DG      C113272   5.332   5.326   2.965  0.0681 -0.3818  0.5162
  578DG      C213273   5.018   5.291   2.423  0.3514 -0.0833  0.2608
  578DG      H313274   5.438   5.337   2.972 -0.4724 -4.4206 -0.4887
  578DG      H413275   5.312   5.260   3.041  0.5612  1.8877  0.7149
  578DG      H513276   5.282   5.426   2.977 -2.7969 -0.6450 -0.0735
  578DG      H613277   4.998   5.384   2.476  2.3381 -1.0218 -1.9954
  578DG      H713278   5.039   5.326   2.316  1.6977  0.1517 -0.4888
  578DG      H813279   4.937   5.219   2.431  0.7513  2.0763  1.8348
  578DG      O913280   5.295   5.262   2.842 -0.2555  0.2945 -0.1715
  578DG     O1013281   5.128   5.240   2.490 -0.1448 -0.1993  0.4944
  578DG     C1113282   5.319   5.116   2.854  0.3839  0.2977  0.2873
  578DG     C1213283   5.160   5.106   2.442 -0.0455  0.0783  0.4846
  578DG     H1313284   5.267   5.081   2.938  1.8682 -2.0642  1.5585
  578DG     H1413285   5.419   5.102   2.869  0.1975  3.4316  0.8779
  578DG     H1513286   5.166   5.094   2.332  0.7862 -0.6263  1.1743
  578DG     H1613287   5.091   5.035   2.467  1.0026  1.8748  1.6044
  578DG     C1713288   5.273   5.048   2.722  0.6591  0.2268 -0.6757
  578DG     C1813289   5.300   5.066   2.492  0.1988 -0.3561 -0.3539
  578DG     O1913290   5.335   5.124   2.622 -0.1366  0.4392 -0.1218
  578DG     H2013291   5.168   5.066   2.718 -2.3974  1.5163 -0.6593
  578DG     H2113292   5.304   4.944   2.715 -1.4244 -0.8285  0.0883
  578DG     H2213293   5.301   4.959   2.498 -0.2938  2.5182  0.9774
  578DG     H2313294   5.373   5.113   2.424 -4.4873  0.3377 -1.5062
  579DG      C113295   4.359   0.293   1.580  0.2522  0.0284  0.2879
  579DG      C213296   4.918   0.879   1.776  0.7808  0.3155  0.1801
  579DG      H313297   4.327   0.342   1.484  1.2818  4.1084  2.4335
  579DG      H413298   4.321   0.351   1.666  0.6970 -0.4964 -1.8593
  579DG      H513299   4.301   0.204   1.597 -0.2709  0.7072  0.5700
  579DG      H613300   4.917   0.910   1.882 -0.3471 -0.2116 -1.2372
  579DG      H713301   5.022   0.872   1.742  1.4946  2.9239  1.5615
  579DG      H813302   4.871   0.953   1.712  2.1567 -1.6503  0.2565
  579DG      O913303   4.498   0.252   1.573  0.3610  0.3355 -0.3676
  579DG     O1013304   4.864   0.746   1.761  0.4484  0.3069 -0.3313
  579DG     C1113305   4.580   0.364   1.569  0.5293  0.6451  0.3781
  579DG     C1213306   4.737   0.734   1.830 -0.2946  0.5046 -0.4466
  579DG     H1313307   4.537   0.446   1.507 -0.2795  0.2673 -1.4619
  579DG     H1413308   4.664   0.336   1.513 -0.9797  1.2982  2.5251
  579DG     H1513309   4.648   0.777   1.772 -1.3600  1.6272 -1.9465
  579DG     H1613310   4.745   0.769   1.936  0.2955 -1.7836 -0.4602
  579DG     C1713311   4.612   0.401   1.714 -0.3222  0.3426 -0.5007
  579DG     C1813312   4.696   0.587   1.833  0.6238 -0.0850 -0.6485
  579DG     O1913313   4.681   0.527   1.708  0.5044  0.0201 -0.1379
  579DG     H2013314   4.678   0.323   1.753  0.8366 -0.5449 -0.9600
  579DG     H2113315   4.528   0.410   1.776 -0.6426  0.0985  1.8352
  579DG     H2213316   4.764   0.523   1.877 -2.6772  0.3810 -0.2549
  579DG     H2313317   4.610   0.584   1.891  3.1351 -3.2058 -1.3573
  580DG      C113318   4.024   5.001   3.387  0.0672  0.5438 -0.1556
  580DG      C213319   4.232   5.732   3.443  0.9301 -0.2216  1.0619
  580DG      H313320   4.131   4.965   3.405  0.4434  0.6059  1.0232
  580DG      H413321   4.002   5.009   3.280 -1.9975 -1.2468  0.3020
  580DG      H513322   3.948   4.930   3.418 -1.5235 -1.9920 -0.1470
  580DG      H613323   4.160   5.753   3.368 -0.5185  0.5668  0.7251
  580DG      H713324   4.238   5.811   3.512 -1.6072  1.8354  1.0454
  580DG      H813325   4.326   5.726   3.393  0.6047 -0.0233  2.4994
  580DG      O913326   3.999   5.113   3.461  0.0969 -0.5139  0.4681
  580DG     O1013327   4.217   5.600   3.494 -0.1277 -0.5964  0.2717
  580DG     C1113328   4.045   5.226   3.393  0.5995  0.5155  0.3918
  580DG     C1213329   4.117   5.600   3.598 -0.2898 -0.2146 -0.4248
  580DG     H1313330   3.997   5.235   3.293  5.6227  3.3750 -2.8466
  580DG     H1413331   4.148   5.227   3.368  3.2521 -1.6881 -1.2077
  580DG     H1513332   4.022   5.636   3.555  1.6623  2.7389 -0.9093
  580DG     H1613333   4.136   5.666   3.690  0.1293 -0.4775  1.3083
  580DG     C1713334   4.012   5.354   3.473  0.2205 -0.2521  0.6350
  580DG     C1813335   4.097   5.462   3.660  0.7767 -0.4185 -0.0439
  580DG     O1913336   4.121   5.358   3.572 -0.3144 -0.4842  0.4312
  580DG     H2013337   3.919   5.341   3.528  0.2234 -1.5411  0.1835
  580DG     H2113338   4.010   5.443   3.413  2.4417  1.4171  0.1288
  580DG     H2213339   4.178   5.457   3.735 -0.0039 -2.7585  0.5190
  580DG     H2313340   4.002   5.452   3.719 -1.5287 -1.3900  0.3963
  581DG      C113341   0.345   2.287   5.449  0.6112 -0.1908 -0.2714
  581DG      C213342   0.598   3.081   5.286 -0.5416 -0.0979  0.2204
  581DG      H313343   0.307   2.187   5.417  1.3498  2.1161  1.4640
  581DG      H413344   0.264   2.359   5.461  0.8981 -0.6304 -1.2990
  581DG      H513345   0.402   2.261   5.541  0.1746 -2.1829 -1.3231
  581DG      H613346   0.675   3.152   5.251 -0.7528 -0.8775  1.9994
  581DG      H713347   0.504   3.113   5.247  2.3558  2.8755  2.1134
  581DG      H813348   0.608   3.107   5.387 -1.1244  0.3025 -2.5959
  581DG      O913349   0.447   2.348   5.374  0.1471  0.4159  0.4208
  581DG     O1013350   0.641   2.951   5.269 -0.9679  0.2690 -0.1189
  581DG     C1113351   0.387   2.412   5.268 -0.1874 -0.2031 -0.1022
  581DG     C1213352   0.549   2.854   5.300 -0.2065 -0.4553 -0.1508
  581DG     H1313353   0.299   2.477   5.284 -1.3823  0.1728 -0.8933
  581DG     H1413354   0.360   2.344   5.188  1.2340 -1.2128  1.2493
  581DG     H1513355   0.449   2.877   5.273 -1.7101  2.3421 -0.2777
  581DG     H1613356   0.556   2.855   5.409 -1.2757 -2.3466  1.7016
  581DG     C1713357   0.491   2.506   5.215  0.4740  0.3632  0.3017
  581DG     C1813358   0.577   2.723   5.243 -0.3072  0.2991  0.0145
  581DG     O1913359   0.476   2.631   5.279  0.2119 -0.1836 -0.1799
  581DG     H2013360   0.482   2.507   5.105 -1.4217 -1.1925 -1.3797
  581DG     H2113361   0.591   2.465   5.234  0.8537 -1.0224  0.4105
  581DG     H2213362   0.589   2.713   5.136  1.2720  1.0706  1.0579
  581DG     H2313363   0.672   2.683   5.284  2.8892 -1.7717 -0.0616
  582DG      C113364   2.165   4.103   0.852  0.1633  0.1063 -0.3177
  582DG      C213365   1.877   3.306   0.793 -0.0634 -0.0178  0.2028
  582DG      H313366   2.138   4.153   0.944  3.2237 -1.0935  0.2927
  582DG      H413367   2.139   4.171   0.770 -0.8524 -1.9070  0.4600
  582DG      H513368   2.268   4.073   0.844  0.9432  0.4460 -4.0473
  582DG      H613369   1.790   3.325   0.738  2.4613  0.5519  0.2488
  582DG      H713370   1.962   3.309   0.726 -0.3227 -1.6971  1.1344
  582DG      H813371   1.875   3.202   0.822 -0.1804 -0.5885  2.0594
  582DG      O913372   2.084   3.985   0.840 -0.0832  0.5404 -0.2324
  582DG     O1013373   1.894   3.384   0.913 -0.1609  0.5300 -0.3432
  582DG     C1113374   2.103   3.911   0.723 -0.9429  0.7385  0.0884
  582DG     C1213375   1.881   3.530   0.888 -0.7163  0.1722  0.4639
  582DG     H1313376   2.188   3.957   0.666 -0.4293  1.8418 -1.1181
  582DG     H1413377   2.006   3.915   0.664 -0.4844 -4.7063 -1.0416
  582DG     H1513378   1.849   3.589   0.971  0.8331  2.6797  2.8968
  582DG     H1613379   1.820   3.542   0.793  0.9088  1.3936 -3.0921
  582DG     C1713380   2.132   3.770   0.766  0.6488  0.3784 -0.5147
  582DG     C1813381   2.021   3.578   0.855  0.1329  0.1919  0.6089
  582DG     O1913382   2.011   3.705   0.792  0.1012  0.4192 -0.1589
  582DG     H2013383   2.209   3.767   0.845 -2.3290  1.9126  0.7051
  582DG     H2113384   2.176   3.722   0.675 -0.3593  1.8169 -0.4264
  582DG     H2213385   2.088   3.577   0.947  2.7061  0.0867 -0.2187
  582DG     H2313386   2.066   3.509   0.785 -0.9323 -2.1806 -1.7919
  583DG      C113387   3.046   2.019   4.643 -0.7383  0.2566  0.2594
  583DG      C213388   3.059   2.312   5.487 -0.1320  0.7942  0.4957
  583DG      H313389   3.102   2.076   4.565 -2.7894  1.9802  2.9809
  583DG      H413390   2.946   2.016   4.613 -1.3482  0.2817 -0.1225
  583DG      H513391   3.081   1.918   4.670 -0.3741  0.8718 -0.4100
  583DG      H613392   2.988   2.228   5.499  1.9580  1.0302 -1.4217
  583DG      H713393   3.163   2.285   5.527  2.3308  0.6957 -0.0196
  583DG      H813394   3.030   2.396   5.549  1.3036  1.1835  0.2501
  583DG      O913395   3.035   2.107   4.759 -0.2781  0.3444 -0.0196
  583DG     O1013396   3.059   2.351   5.349  0.0033 -0.3437 -0.1341
  583DG     C1113397   3.165   2.145   4.799 -0.5666 -0.1875  0.3340
  583DG     C1213398   3.098   2.259   5.256 -0.0209  0.3841  0.6572
  583DG     H1313399   3.227   2.169   4.717  1.2723 -3.9844 -1.1580
  583DG     H1413400   3.218   2.062   4.844 -1.9868 -2.1374  0.8638
  583DG     H1513401   3.038   2.168   5.263  1.4266 -0.3803 -0.6819
  583DG     H1613402   3.196   2.224   5.273 -0.9849  0.7633  0.1955
  583DG     C1713403   3.160   2.268   4.897 -0.5796 -0.4258  0.3861
  583DG     C1813404   3.084   2.321   5.117 -0.5898 -0.0229  0.1656
  583DG     O1913405   3.106   2.219   5.017 -0.5529  0.2747 -0.8070
  583DG     H2013406   3.112   2.357   4.850  2.0421 -0.8689 -2.3143
  583DG     H2113407   3.256   2.314   4.918  1.0278 -0.0451 -1.4455
  583DG     H2213408   2.978   2.356   5.097  0.9736 -0.8741 -0.1626
  583DG     H2313409   3.156   2.401   5.100  0.9154 -2.2344 -1.1735
  584DG      C113410   4.143   1.230   3.575  0.0365 -0.2292 -0.0905
  584DG      C213411   4.808   1.255   3.325 -0.1224  0.1025  0.6191
  584DG      H313412   4.091   1.291   3.500 -1.2941  1.5279  1.5490
  584DG      H413413   4.170   1.286   3.667 -1.1432  2.4806  1.2003
  584DG      H513414   4.070   1.151   3.604 -1.9535  0.0233  0.2379
  584DG      H613415   4.878   1.239   3.248 -0.1863  2.7987  3.2871
  584DG      H713416   4.759   1.348   3.301  0.4599  1.1260  1.3967
  584DG      H813417   4.854   1.268   3.427 -2.8927 -2.0471 -1.4599
  584DG      O913418   4.262   1.175   3.530 -0.7494  0.1615  0.4108
  584DG     O1013419   4.693   1.163   3.330 -0.1817  0.3975  0.2265
  584DG     C1113420   4.249   1.075   3.429 -0.3655  0.1850 -0.0351
  584DG     C1213421   4.714   1.064   3.431  0.3673 -0.3428  0.0661
  584DG     H1313422   4.254   1.107   3.321 -0.0017  2.2670  1.4444
  584DG     H1413423   4.156   1.028   3.449  1.3558  0.3881 -1.8714
  584DG     H1513424   4.729   1.117   3.526  1.1432 -2.2013 -2.8435
  584DG     H1613425   4.801   1.010   3.418 -1.5529  0.3834 -2.2296
  584DG     C1713426   4.363   0.971   3.445  0.4288 -0.3420  0.7241
  584DG     C1813427   4.595   0.961   3.438  0.0117  0.2956 -0.5014
  584DG     O1913428   4.476   1.045   3.435 -0.3840 -0.4596  0.1244
  584DG     H2013429   4.350   0.880   3.379 -1.3120  1.4146  2.7785
  584DG     H2113430   4.354   0.932   3.547 -0.1276 -1.1220 -0.8014
  584DG     H2213431   4.602   0.894   3.361  1.6811  0.6046  2.2648
  584DG     H2313432   4.599   0.906   3.532 -3.1921  1.5792  0.8601
  585DG      C113433   1.327   2.671   2.861  0.7844 -0.0139 -0.0615
  585DG      C213434   0.657   2.120   2.704 -0.3001  0.5375 -0.5001
  585DG      H313435   1.254   2.729   2.916  0.2105 -0.6235  0.0611
  585DG      H413436   1.395   2.747   2.820 -0.8235 -0.8789 -0.9361
  585DG      H513437   1.395   2.609   2.923 -1.0716  0.7513  0.1146
  585DG      H613438   0.564   2.157   2.749  1.4163 -1.0355  0.9290
  585DG      H713439   0.631   2.092   2.609 -0.7264  2.3151  0.3823
  585DG      H813440   0.672   2.024   2.750 -2.0805 -1.2864 -1.7288
  585DG      O913441   1.261   2.590   2.761  0.2939 -0.1387  0.0713
  585DG     O1013442   0.775   2.203   2.708 -0.0138 -0.0768  0.1945
  585DG     C1113443   1.151   2.524   2.812 -0.3406 -0.1187 -0.3383
  585DG     C1213444   0.852   2.192   2.825  0.2576  0.5614  0.2925
  585DG     H1313445   1.073   2.599   2.815  1.5255  0.7768 -0.9076
  585DG     H1413446   1.157   2.470   2.906 -2.8581 -1.5060 -1.6283
  585DG     H1513447   0.874   2.090   2.867 -2.2560 -1.2375  0.4393
  585DG     H1613448   0.806   2.253   2.902  1.3974 -0.5884 -2.4715
  585DG     C1713449   1.101   2.427   2.703  0.5589  0.0952 -0.3080
  585DG     C1813450   0.984   2.261   2.802  0.1935  0.3871 -0.0166
  585DG     O1913451   0.968   2.381   2.730  0.1896  0.0241  0.0383
  585DG     H2013452   1.171   2.354   2.678 -1.0969  0.3607  2.2838
  585DG     H2113453   1.090   2.487   2.606 -0.3961  0.1598 -4.4576
  585DG     H2213454   1.035   2.278   2.897  0.5064  1.2861 -0.0306
  585DG     H2313455   1.035   2.176   2.747  0.6214  0.9527 -2.5949
  586DG      C113456   1.448   3.159   1.820 -0.9260  0.0901 -0.4130
  586DG      C213457   1.287   3.730   2.171 -0.8544  0.3624  0.3720
  586DG      H313458   1.516   3.198   1.742  0.0006  1.5906  1.3202
  586DG      H413459   1.428   3.051   1.803  1.3366  1.5922  3.1548
  586DG      H513460   1.512   3.158   1.915 -2.3528 -1.0685 -0.1050
  586DG      H613461   1.231   3.817   2.162  1.9001 -1.9511 -0.0283
  586DG      H713462   1.305   3.703   2.279  1.0456  0.0908 -1.0878
  586DG      H813463   1.383   3.753   2.130 -0.7508  0.7046  0.0061
  586DG      O913464   1.337   3.243   1.836  0.3022 -0.0155 -1.0090
  586DG     O1013465   1.236   3.623   2.094 -0.2811 -0.1780 -0.2084
  586DG     C1113466   1.238   3.182   1.918  0.1092 -0.4250  0.4537
  586DG     C1213467   1.100   3.592   2.132 -0.2291  0.2100 -0.0847
  586DG     H1313468   1.279   3.142   2.004 -1.6113  0.0386 -1.2491
  586DG     H1413469   1.203   3.091   1.861 -0.3383  0.8738  2.8839
  586DG     H1513470   1.054   3.678   2.088  0.7443 -0.1942 -0.3047
  586DG     H1613471   1.090   3.593   2.234 -2.4099 -2.3831  1.0131
  586DG     C1713472   1.119   3.277   1.945 -0.8226 -0.4067  0.3356
  586DG     C1813473   1.051   3.474   2.043  0.4696 -0.2655  0.1607
  586DG     O1913474   1.154   3.387   2.020 -0.1217  0.2293  0.0164
  586DG     H2013475   1.045   3.215   2.002 -1.1328 -0.8207  0.7532
  586DG     H2113476   1.069   3.309   1.847 -0.7255  0.1993 -0.3040
  586DG     H2213477   0.972   3.416   2.096 -2.1425 -0.0913 -0.4494
  586DG     H2313478   1.016   3.517   1.957  0.5542 -1.8730 -0.9192
  587DG      C113479   1.065   4.529   2.087  0.4275  0.1530 -0.1721
  587DG      C213480   0.562   5.174   2.364 -0.4305 -0.5270 -0.0222
  587DG      H313481   1.049   4.426   2.061  0.7658  0.7575  1.4825
  587DG      H413482   1.151   4.517   2.160 -0.7999 -2.6656  4.5703
  587DG      H513483   1.107   4.581   2.009  0.2249  1.0238  0.9662
  587DG      H613484   0.537   5.175   2.472 -0.1880 -1.1336 -0.5430
  587DG      H713485   0.648   5.235   2.339 -1.5861  0.8069 -0.2602
  587DG      H813486   0.474   5.228   2.332  1.1041  1.4008  2.2301
  587DG      O913487   0.955   4.606   2.136  0.7678  0.6862  0.6503
  587DG     O1013488   0.563   5.041   2.314  0.0550 -0.7502  0.0397
  587DG     C1113489   0.903   4.545   2.257  0.1628 -0.1388  0.2290
  587DG     C1213490   0.688   4.980   2.329 -0.5638  0.1153 -0.1240
  587DG     H1313491   0.978   4.546   2.336  1.4682  0.5285 -1.0146
  587DG     H1413492   0.884   4.438   2.248 -1.5714 -0.1108  0.2391
  587DG     H1513493   0.727   4.999   2.424 -0.6811 -1.8035 -1.0995
  587DG     H1613494   0.762   5.034   2.257  2.7187 -2.0826  2.1206
  587DG     C1713495   0.775   4.612   2.314 -0.1433 -0.3070 -0.3048
  587DG     C1813496   0.679   4.832   2.304 -0.6262  0.2541  0.0968
  587DG     O1913497   0.799   4.756   2.319  0.1834 -0.8137 -0.2039
  587DG     H2013498   0.748   4.578   2.412 -2.2613 -0.3012  1.9442
  587DG     H2113499   0.691   4.587   2.249  3.1361 -1.8006  0.5945
  587DG     H2213500   0.598   4.785   2.349  0.7169 -1.2809 -1.2046
  587DG     H2313501   0.660   4.813   2.199 -0.7505 -0.0683 -1.3457
  588DG      C113502   5.235   2.440   2.611 -0.3346 -0.3567  0.1386
  588DG      C213503   5.853   1.986   2.690 -0.9546  0.5514  0.0983
  588DG      H313504   5.279   2.443   2.709  1.5958  1.4609 -0.0182
  588DG      H413505   5.139   2.392   2.616  3.5197  0.3373 -1.1377
  588DG      H513506   5.219   2.539   2.577 -0.2246 -2.2101 -0.8010
  588DG      H613507   5.781   1.900   2.699 -1.2982 -2.1197 -1.6995
  588DG      H713508   5.941   1.946   2.629 -0.5843 -0.6913 -0.2768
  588DG      H813509   5.886   2.006   2.793 -0.0424  1.0200 -1.6662
  588DG      O913510   5.315   2.362   2.523  0.4541 -0.2066  0.8865
  588DG     O1013511   5.792   2.104   2.622  0.4195 -0.6553 -0.0917
  588DG     C1113512   5.444   2.417   2.496 -0.1395  0.7465 -0.5544
  588DG     C1213513   5.782   2.076   2.487  0.7007  0.4152  0.3573
  588DG     H1313514   5.498   2.420   2.590 -3.3607 -0.1894  5.0634
  588DG     H1413515   5.428   2.511   2.458  3.3853 -0.8807 -1.5756
  588DG     H1513516   5.715   1.992   2.488 -1.4169  0.2381 -0.2926
  588DG     H1613517   5.871   2.033   2.436  2.5060 -2.6131  0.9034
  588DG     C1713518   5.513   2.326   2.398  0.6560 -0.3920  0.2293
  588DG     C1813519   5.713   2.190   2.418  0.3683 -0.5246 -0.1131
  588DG     O1913520   5.584   2.222   2.471  0.2358  0.0448 -0.0812
  588DG     H2013521   5.583   2.387   2.341 -1.3859 -0.5499  1.9779
  588DG     H2113522   5.445   2.289   2.317  0.8568 -2.8986 -0.4880
  588DG     H2213523   5.765   2.281   2.438 -0.6397  1.7862 -3.4972
  588DG     H2313524   5.709   2.192   2.307  2.2183 -3.4359 -1.9391
  589DG      C113525   0.436   0.149   2.461 -0.5190  0.2548  0.3576
  589DG      C213526   1.223   0.231   2.778 -0.6642 -0.1789 -0.3496
  589DG      H313527   0.392   0.124   2.362  0.9495  1.5758  0.3333
  589DG      H413528   0.412   0.256   2.464 -1.7567  0.9601 -1.9192
  589DG      H513529   0.379   0.087   2.530  0.3132 -2.2125 -0.9033
  589DG      H613530   1.329   0.246   2.782  0.9443  1.3119  0.6539
  589DG      H713531   1.183   0.327   2.822 -2.5109  2.2412 -0.6795
  589DG      H813532   1.202   0.143   2.831 -1.4216 -0.7251  0.9168
  589DG      O913533   0.575   0.128   2.467 -0.1330 -0.4420  1.1893
  589DG     O1013534   1.180   0.223   2.647  0.0830 -0.3048  0.4182
  589DG     C1113535   0.639   0.176   2.353  0.0080 -0.1684 -0.1901
  589DG     C1213536   1.037   0.218   2.635  0.9261 -0.2146  0.0884
  589DG     H1313537   0.624   0.286   2.357 -0.8282  0.5642  2.7771
  589DG     H1413538   0.593   0.142   2.261  0.0548 -1.3457  0.4723
  589DG     H1513539   1.019   0.324   2.659 -0.4803 -1.3833  1.5408
  589DG     H1613540   0.994   0.153   2.709  2.2952 -0.5298 -0.5125
  589DG     C1713541   0.787   0.154   2.372 -0.0835  0.0681  0.4039
  589DG     C1813542   0.984   0.181   2.488  0.6960  0.0465 -0.2344
  589DG     O1913543   0.840   0.213   2.484  0.0918  0.1411  0.1051
  589DG     H2013544   0.833   0.192   2.282 -2.5456  1.5648  0.5963
  589DG     H2113545   0.799   0.047   2.377 -1.3480  3.3540  0.3304
  589DG     H2213546   1.026   0.255   2.420 -0.3631 -1.5417 -3.1729
  589DG     H2313547   1.004   0.078   2.465  0.8048 -1.3952  2.1764
  590DG      C113548   3.342   5.245   2.405  0.1721 -0.4065  0.7343
  590DG      C213549   3.671   5.057   3.014 -0.5665  0.0677 -0.0208
  590DG      H313550   3.293   5.213   2.305 -0.3570  0.6808 -1.9723
  590DG      H413551   3.430   5.311   2.378  1.6865 -0.6486  2.2613
  590DG      H513552   3.262   5.301   2.451 -0.5563 -2.3005 -1.4325
  590DG      H613553   3.743   5.126   2.983 -0.6770 -0.8356  0.1371
  590DG      H713554   3.589   5.112   3.045 -1.4719 -0.8372 -2.8725
  590DG      H813555   3.697   4.992   3.097  1.1291  0.5716  1.2713
  590DG      O913556   3.383   5.130   2.480 -0.2557  0.0322 -0.4093
  590DG     O1013557   3.622   5.002   2.894  0.6276 -0.5142 -0.0424
  590DG     C1113558   3.495   5.073   2.417 -0.2626 -0.3763  0.5062
  590DG     C1213559   3.714   4.929   2.824 -0.0457  0.4131 -0.5599
  590DG     H1313560   3.582   5.137   2.424 -1.3654 -0.2851  0.3802
  590DG     H1413561   3.488   5.049   2.313 -0.2780 -1.0046  0.3543
  590DG     H1513562   3.755   4.847   2.886 -1.4694 -0.7123  5.4162
  590DG     H1613563   3.799   4.991   2.780  0.7106 -0.4804  0.4346
  590DG     C1713564   3.545   4.947   2.493 -0.1370  0.4229  0.2838
  590DG     C1813565   3.656   4.876   2.693  0.5413 -0.3254  0.2504
  590DG     O1913566   3.613   4.985   2.611 -0.5432 -0.1821 -1.0444
  590DG     H2013567   3.616   4.900   2.427  1.3149  2.3902  2.1312
  590DG     H2113568   3.464   4.881   2.503 -0.2068  1.0212 -2.5601
  590DG     H2213569   3.732   4.823   2.632 -0.5862 -0.1274 -0.9118
  590DG     H2313570   3.576   4.808   2.712  2.2264 -0.7261  1.9523
  591DG      C113571   4.141   4.693   2.004  0.5311 -0.8548  0.6605
  591DG      C213572   4.723   4.102   2.169  0.5565 -0.2434  0.3618
  591DG      H313573   4.105   4.737   2.094  1.2553 -0.8016 -0.2077
  591DG      H413574   4.055   4.633   1.966 -2.1367  0.8214  0.4421
  591DG      H513575   4.161   4.783   1.933  1.8047  0.9449 -0.1921
  591DG      H613576   4.695   4.089   2.267 -2.2365  1.2545 -1.0613
  591DG      H713577   4.708   4.001   2.127  0.8553 -1.5581 -4.0864
  591DG      H813578   4.825   4.118   2.161 -1.4175 -2.7755  1.0459
  591DG      O913579   4.269   4.624   2.025 -0.4350 -0.3331 -0.1124
  591DG     O1013580   4.646   4.201   2.091 -0.2419  0.0945 -0.3712
  591DG     C1113581   4.256   4.525   2.132  0.0430  0.0891  0.8637
  591DG     C1213582   4.502   4.191   2.120 -0.4052 -0.6420 -0.2672
  591DG     H1313583   4.197   4.438   2.110  4.5575 -2.0772  4.1573
  591DG     H1413584   4.213   4.585   2.216 -1.4236  0.4518 -3.0313
  591DG     H1513585   4.473   4.223   2.225  0.6907  1.2107 -1.0212
  591DG     H1613586   4.476   4.085   2.101 -2.3743 -1.9128 -1.2569
  591DG     C1713587   4.396   4.475   2.177 -0.2437 -0.1050  0.9588
  591DG     C1813588   4.431   4.288   2.029  0.6582  0.1357  0.1069
  591DG     O1913589   4.462   4.422   2.058  0.2339  0.2282 -0.5137
  591DG     H2013590   4.385   4.402   2.260 -1.1517  0.6870 -0.5474
  591DG     H2113591   4.449   4.560   2.224  0.0869  3.1763  1.6875
  591DG     H2213592   4.456   4.270   1.922  0.6602 -1.4934  1.9759
  591DG     H2313593   4.321   4.272   2.025 -1.0096  0.1241  2.5414
  592DG      C113594   2.077   5.366   4.218 -0.6265 -0.0732 -0.6179
  592DG      C213595   2.462   5.635   4.855  0.4745 -0.5383 -0.0840
  592DG      H313596   2.132   5.322   4.142 -1.0639  0.7395  0.9678
  592DG      H413597   1.981   5.387   4.178  2.3036  0.8815  2.0313
  592DG      H513598   2.049   5.303   4.296  1.9820  1.1036 -0.9746
  592DG      H613599   2.485   5.720   4.912  0.4475  1.7035  0.1109
  592DG      H713600   2.348   5.635   4.838 -1.2547 -0.0653 -0.5124
  592DG      H813601   2.490   5.542   4.901  1.3274 -0.6150 -1.0356
  592DG      O913602   2.116   5.491   4.272 -0.4729 -0.7785  0.2920
  592DG     O1013603   2.523   5.649   4.727  0.6044  0.7435  0.6079
  592DG     C1113604   2.214   5.494   4.365  0.0386  0.7708  0.6009
  592DG     C1213605   2.499   5.761   4.654 -0.5425  0.0489  0.6871
  592DG     H1313606   2.306   5.465   4.312 -2.2218  0.2674  0.3102
  592DG     H1413607   2.196   5.421   4.437 -0.5591  1.9725  0.7730
  592DG     H1513608   2.581   5.762   4.575 -0.4764  0.1722  0.2771
  592DG     H1613609   2.514   5.853   4.711  0.1661 -0.7996 -1.3693
  592DG     C1713610   2.228   5.632   4.428  0.2544  0.3076 -0.2657
  592DG     C1813611   2.360   5.753   4.589  0.1731  0.3199  0.6089
  592DG     O1913612   2.337   5.627   4.518  0.3917  0.1046  0.1384
  592DG     H2013613   2.136   5.662   4.479 -0.4162  1.4901 -0.9459
  592DG     H2113614   2.237   5.709   4.350 -0.6268  2.4619 -1.4716
  592DG     H2213615   2.286   5.759   4.671  0.5098  1.2523  3.9992
  592DG     H2313616   2.337   5.839   4.534  1.1987 -0.4978 -0.4445
  593DG      C113617   1.849   3.869   5.267 -0.2826  0.0081  0.3400
  593DG      C213618   1.845   4.028   4.672  0.3057  0.2940 -0.4927
  593DG      H313619   1.813   3.821   5.350  1.1758  0.0144 -1.5632
  593DG      H413620   1.771   3.932   5.217 -1.1615  1.6693  4.0451
  593DG      H513621   1.931   3.941   5.283 -2.5658  0.8877 -0.5173
  593DG      H613622   1.904   3.972   4.591  2.7755 -0.0284 -1.7871
  593DG      H713623   1.781   4.096   4.619  0.0676 -1.5506  0.2529
  593DG      H813624   1.924   4.074   4.728  1.6570 -0.6923  0.5093
  593DG      O913625   1.895   3.770   5.180 -0.2562 -0.4008 -0.3492
  593DG     O1013626   1.767   3.940   4.757  0.1598 -0.0634  0.3395
  593DG     C1113627   1.813   3.652   5.160 -0.0155  0.0455  0.4329
  593DG     C1213628   1.702   3.996   4.859 -0.2438  0.2584  0.3475
  593DG     H1313629   1.791   3.589   5.251  1.2806 -0.8277  0.9833
  593DG     H1413630   1.867   3.581   5.100 -1.2639  1.2051  1.6745
  593DG     H1513631   1.615   4.052   4.819 -3.7065  0.7445  1.5620
  593DG     H1613632   1.769   4.063   4.919  3.6379  0.3750  1.4439
  593DG     C1713633   1.687   3.715   5.089  0.2346  0.4161  0.4688
  593DG     C1813634   1.638   3.890   4.944  0.4568 -0.4653 -0.1789
  593DG     O1913635   1.736   3.796   4.982 -0.1174 -0.1703  0.4509
  593DG     H2013636   1.611   3.767   5.153  2.4254 -0.5795  1.0970
  593DG     H2113637   1.629   3.638   5.037 -2.8574  0.4657 -0.1756
  593DG     H2213638   1.598   3.955   5.022 -0.6059 -0.7792 -1.7689
  593DG     H2313639   1.553   3.838   4.894 -1.4286 -0.0402 -0.9054
  594DG      C113640   1.591   2.703   4.850 -0.0113 -0.5570 -0.5285
  594DG      C213641   1.537   2.057   4.839 -0.2443  0.3564  0.5195
  594DG      H313642   1.631   2.700   4.956 -1.7173  1.9535 -0.2557
  594DG      H413643   1.480   2.698   4.855  1.5455  3.4421 -0.0363
  594DG      H513644   1.616   2.793   4.799 -1.2322 -2.2189 -0.6928
  594DG      H613645   1.429   2.050   4.825 -1.4046  2.1905  0.3964
  594DG      H713646   1.575   1.952   4.834 -0.4861 -1.8582  0.8317
  594DG      H813647   1.570   2.099   4.932 -0.8869 -0.4887  1.3222
  594DG      O913648   1.636   2.591   4.776  0.4932 -0.0849  0.6832
  594DG     O1013649   1.586   2.131   4.728  0.2564  0.5441 -0.5051
  594DG     C1113650   1.777   2.566   4.795 -0.7820  0.8471 -0.2893
  594DG     C1213651   1.727   2.105   4.708 -0.0089  0.3222  0.7410
  594DG     H1313652   1.797   2.539   4.894 -0.0082 -2.6209  1.9191
  594DG     H1413653   1.836   2.658   4.780  1.3027  0.9489  0.6684
  594DG     H1513654   1.738   2.017   4.643 -3.0400  0.9658  0.0782
  594DG     H1613655   1.779   2.085   4.804 -0.6964  0.5455 -0.6817
  594DG     C1713656   1.831   2.449   4.706  0.7009 -0.5327  0.6933
  594DG     C1813657   1.806   2.225   4.654 -0.7817  0.2052 -0.2647
  594DG     O1913658   1.771   2.333   4.746  0.3127  0.0134  0.5567
  594DG     H2013659   1.939   2.448   4.720  0.0052 -1.4495 -0.2258
  594DG     H2113660   1.803   2.470   4.597 -1.2493  2.9350 -1.0048
  594DG     H2213661   1.910   2.205   4.647  1.5867  0.6380  1.6912
  594DG     H2313662   1.773   2.247   4.550 -1.3846 -1.2846 -0.6070
  595DG      C113663   1.883   2.161   2.663  0.4187  0.0546  0.3658
  595DG      C213664   2.634   2.092   2.888  0.4598  0.2124  0.1804
  595DG      H313665   1.789   2.156   2.714  0.9896  1.8703 -0.2602
  595DG      H413666   1.932   2.059   2.661 -0.8119 -0.7598 -0.6955
  595DG      H513667   1.873   2.176   2.554 -0.4785  0.2941 -3.6012
  595DG      H613668   2.661   1.999   2.933  2.0717 -0.2834 -2.6513
  595DG      H713669   2.622   2.074   2.784  0.1990  0.8626  1.6180
  595DG      H813670   2.712   2.164   2.911  0.3447 -0.9843  0.0052
  595DG      O913671   1.981   2.254   2.713 -0.0499 -0.7274  0.1550
  595DG     O1013672   2.515   2.140   2.950  0.2822  0.1591 -0.2603
  595DG     C1113673   2.002   2.240   2.852  0.3236 -0.4763 -0.8187
  595DG     C1213674   2.492   2.277   2.907  0.2906  0.5558  0.4486
  595DG     H1313675   2.034   2.136   2.866 -0.4026 -4.2367 -1.3490
  595DG     H1413676   1.907   2.233   2.910 -1.5644 -1.6185  0.8027
  595DG     H1513677   2.514   2.279   2.801  0.0420  0.8124 -1.0156
  595DG     H1613678   2.573   2.337   2.953  1.2353  0.2266  1.8774
  595DG     C1713679   2.113   2.333   2.914  0.1497  0.2403 -0.2401
  595DG     C1813680   2.355   2.335   2.948  0.1533 -0.1994  0.3059
  595DG     O1913681   2.240   2.283   2.882 -0.3017 -0.3067  0.4887
  595DG     H2013682   2.101   2.320   3.019  1.3396 -0.8189 -1.3902
  595DG     H2113683   2.101   2.429   2.890  1.2322 -2.6188 -0.2805
  595DG     H2213684   2.345   2.314   3.056 -1.7199 -1.9085 -1.3847
  595DG     H2313685   2.349   2.446   2.940 -4.2016  1.9738 -2.4885
  596DG      C113686   0.907   4.717   0.480 -0.5492 -0.0394 -0.2312
  596DG      C213687   0.473   4.937   1.220  0.1552  0.4651 -0.3167
  596DG      H313688   0.932   4.710   0.376  1.9034  1.9278 -1.2146
  596DG      H413689   0.799   4.681   0.482 -1.0278 -2.4962  0.2779
  596DG      H513690   0.979   4.658   0.540  2.5164  0.9193 -0.0275
  596DG      H613691   0.443   4.833   1.212  0.2493 -0.8823 -2.3006
  596DG      H713692   0.545   4.952   1.304  0.6032 -3.6174  1.2421
  596DG      H813693   0.386   4.990   1.268 -2.0252  1.5965  1.4463
  596DG      O913694   0.921   4.846   0.531 -0.0219 -0.2045  0.6692
  596DG     O1013695   0.510   4.995   1.096 -0.3244 -0.5389 -0.0013
  596DG     C1113696   0.896   4.854   0.674  0.3522 -0.0943  0.9101
  596DG     C1213697   0.624   4.938   1.042  0.6143 -0.1755  0.1842
  596DG     H1313698   0.936   4.945   0.702  2.1107 -0.3589 -2.2111
  596DG     H1413699   0.935   4.768   0.728  2.4093 -2.0096 -0.8688
  596DG     H1513700   0.635   4.830   1.061  2.4159  0.4123 -0.2612
  596DG     H1613701   0.715   5.002   1.057 -2.0491  2.7328 -0.9686
  596DG     C1713702   0.742   4.868   0.699  0.1721 -0.8446 -0.5126
  596DG     C1813703   0.601   4.939   0.883 -0.3265 -0.6901  0.8081
  596DG     O1913704   0.737   4.907   0.840  0.2161  0.6436 -0.0108
  596DG     H2013705   0.679   4.780   0.683 -0.7452  1.3785  0.2524
  596DG     H2113706   0.697   4.956   0.643 -2.4839  1.3935  0.0464
  596DG     H2213707   0.534   4.858   0.849  2.5607 -2.4374  1.4257
  596DG     H2313708   0.557   5.037   0.855  0.9915  2.6636  1.5368
  597DG      C113709   4.259   4.238   4.835  0.3013  0.7488 -0.1481
  597DG      C213710   3.750   4.682   4.258 -0.9405 -0.0726 -0.4237
  597DG      H313711   4.207   4.307   4.906 -0.2472 -1.8039 -1.1141
  597DG      H413712   4.359   4.246   4.861  0.8300 -2.0838 -1.0454
  597DG      H513713   4.233   4.131   4.853  0.3719  0.8146 -1.3614
  597DG      H613714   3.660   4.654   4.202 -1.4087 -0.0577  0.1887
  597DG      H713715   3.721   4.723   4.356 -0.6100  1.2055  1.5710
  597DG      H813716   3.806   4.769   4.212 -0.8082 -1.6957 -0.1815
  597DG      O913717   4.258   4.294   4.698  0.0403  0.2654  0.2587
  597DG     O1013718   3.848   4.582   4.288  0.3878 -0.4407 -0.3776
  597DG     C1113719   4.134   4.357   4.671 -0.0525 -0.3694  0.6402
  597DG     C1213720   3.797   4.488   4.390 -0.4486  0.6482 -0.0489
  597DG     H1313721   4.125   4.444   4.726 -1.8899 -3.0630  0.5118
  597DG     H1413722   4.060   4.291   4.704  1.6965  0.5246  0.8484
  597DG     H1513723   3.705   4.436   4.357  1.6921 -0.7250  1.2498
  597DG     H1613724   3.777   4.521   4.491  0.4705 -1.3328  5.5982
  597DG     C1713725   4.138   4.382   4.522 -0.0025 -0.4276 -0.3637
  597DG     C1813726   3.919   4.394   4.415 -0.4248 -0.6864 -0.4738
  597DG     O1913727   4.021   4.465   4.485  0.3900 -0.2903 -0.1650
  597DG     H2013728   4.145   4.285   4.472  0.2004 -2.4817  0.4876
  597DG     H2113729   4.222   4.445   4.490  1.2599 -1.1552 -2.8948
  597DG     H2213730   3.894   4.311   4.474 -0.9764  1.7716 -0.2411
  597DG     H2313731   3.966   4.351   4.321 -0.5589  1.5798  0.0410
  598DG      C113732   1.973   3.371   5.278  0.5351  0.1863  0.0896
  598DG      C213733   1.554   3.671   5.591  1.0215  0.1979  0.2790
  598DG      H313734   1.870   3.384   5.241  1.0792  0.0651  0.5663
  598DG      H413735   2.034   3.296   5.223  0.6160 -1.5488 -2.2805
  598DG      H513736   2.030   3.461   5.256 -2.7674  0.3225 -0.3114
  598DG      H613737   1.588   3.686   5.695 -0.4714  0.4878  1.1554
  598DG      H713738   1.639   3.720   5.540 -0.9876 -0.4539 -0.9009
  598DG      H813739   1.462   3.725   5.575  1.4775  0.0030 -0.8012
  598DG      O913740   1.982   3.332   5.414  0.1697 -1.1372  0.5629
  598DG     O1013741   1.553   3.530   5.569  0.3641  0.6913 -0.1788
  598DG     C1113742   1.882   3.235   5.451  0.1866 -0.2048 -0.2524
  598DG     C1213743   1.508   3.493   5.444 -0.3868  0.3972  0.0078
  598DG     H1313744   1.916   3.188   5.539 -0.1878  3.4531 -2.7194
  598DG     H1413745   1.864   3.149   5.374  1.2544 -3.5355 -1.7871
  598DG     H1513746   1.563   3.553   5.369  3.7161  2.2430  0.5796
  598DG     H1613747   1.405   3.512   5.448 -0.1481 -1.6600  1.8233
  598DG     C1713748   1.744   3.287   5.498 -0.5020 -0.0373 -0.1623
  598DG     C1813749   1.517   3.339   5.418  0.1093 -0.3274  0.3086
  598DG     O1913750   1.652   3.304   5.389  0.2786  0.3133 -0.0811
  598DG     H2013751   1.754   3.389   5.540  2.2068 -0.5046 -1.9707
  598DG     H2113752   1.713   3.216   5.574  2.1808  0.0817  2.5373
  598DG     H2213753   1.473   3.289   5.506 -3.4716  3.4124  0.3713
  598DG     H2313754   1.460   3.310   5.323 -0.4272  2.9782  0.7881
  599DG      C113755   1.167   1.784   1.989  0.6886 -0.6569  0.4959
  599DG      C213756   0.941   1.858   2.647 -0.4245 -0.1394  0.0123
  599DG      H313757   1.239   1.867   1.977 -1.5160 -0.0526 -4.3000
  599DG      H413758   1.066   1.806   1.953  0.7651  0.3132 -1.3310
  599DG      H513759   1.201   1.696   1.924 -0.5345 -1.8249  1.3507
  599DG      H613760   0.931   1.807   2.742 -2.6957  3.6909  2.2478
  599DG      H713761   1.015   1.929   2.666 -3.6294 -4.5070  1.0825
  599DG      H813762   0.841   1.909   2.634 -1.0819 -0.4924 -3.0754
  599DG      O913763   1.153   1.751   2.124  0.0074  0.0309 -0.3171
  599DG     O1013764   0.969   1.769   2.536 -0.0839 -0.1286 -0.1538
  599DG     C1113765   1.269   1.688   2.180 -0.8863 -0.2626 -0.3041
  599DG     C1213766   1.081   1.691   2.586  0.4685  0.2266  0.2541
  599DG     H1313767   1.362   1.742   2.145 -1.5398  1.4310  0.4349
  599DG     H1413768   1.267   1.588   2.132 -0.8180 -1.1587 -0.5383
  599DG     H1513769   1.069   1.645   2.682  0.9406  0.1401  0.2124
  599DG     H1613770   1.167   1.760   2.599 -0.0756 -0.4236  1.4873
  599DG     C1713771   1.258   1.652   2.330  0.5734 -0.4853 -0.0268
  599DG     C1813772   1.113   1.572   2.494  0.3178 -0.0992  0.0403
  599DG     O1913773   1.125   1.625   2.365 -0.2706 -0.2072  0.1792
  599DG     H2013774   1.289   1.743   2.380 -1.3054  1.7469 -0.4074
  599DG     H2113775   1.328   1.575   2.356 -2.1320 -1.1945  0.2324
  599DG     H2213776   1.198   1.520   2.538  0.0875  1.0941 -0.6524
  599DG     H2313777   1.038   1.499   2.480  2.5317 -1.2856  2.1597
  600DG      C113778   2.951   2.116   1.578  0.3757 -0.2310 -0.1832
  600DG      C213779   3.334   2.549   1.372  0.4056 -0.1474 -0.6873
  600DG      H313780   2.965   2.204   1.633 -0.0424 -0.4017 -0.8962
  600DG      H413781   3.004   2.044   1.634 -1.1160 -0.3999  0.1418
  600DG      H513782   2.849   2.085   1.568 -0.7136 -2.3086 -2.2540
  600DG      H613783   3.422   2.507   1.427 -1.0872 -0.6520  1.4153
  600DG      H713784   3.326   2.649   1.398  1.0149 -3.1138 -1.3976
  600DG      H813785   3.238   2.510   1.409  4.0348  1.3598 -2.7629
  600DG      O913786   3.005   2.140   1.450  0.1881 -0.5290  1.2144
  600DG     O1013787   3.354   2.528   1.238 -0.4977 -0.0150  0.1072
  600DG     C1113788   2.937   2.244   1.383 -0.0102  0.5315  0.1506
  600DG     C1213789   3.355   2.396   1.190 -0.3902  0.6021 -0.0936
  600DG     H1313790   2.937   2.330   1.447  2.1737 -0.5955 -1.2794
  600DG     H1413791   2.830   2.222   1.369 -2.1031 -0.4672  1.0136
  600DG     H1513792   3.394   2.324   1.261 -2.4351  0.0386 -0.5965
  600DG     H1613793   3.424   2.381   1.104  2.0645 -0.2381 -0.0135
  600DG     C1713794   2.999   2.276   1.242 -0.0444  0.0456  0.1523
  600DG     C1813795   3.209   2.351   1.153 -0.0465  0.4212 -0.3660
  600DG     O1913796   3.131   2.330   1.271 -0.2461 -0.3200 -0.3320
  600DG     H2013797   2.927   2.349   1.205  2.0815  2.2589  0.7369
  600DG     H2113798   3.002   2.186   1.180 -1.0115 -0.0553  1.4579
  600DG     H2213799   3.152   2.420   1.091  0.1490 -2.0030  0.6223
  600DG     H2313800   3.219   2.260   1.100 -0.3611  0.9883 -1.4251
  601DG      C113801   1.863   1.388   2.505 -0.4230 -0.1345  0.0411
  601DG      C213802   1.668   1.129   3.082  0.4211  0.2922  0.1166
  601DG      H313803   1.852   1.443   2.411 -1.0555 -1.2385 -1.6167
  601DG      H413804   1.909   1.290   2.489 -1.0727 -0.6941 -2.4015
  601DG      H513805   1.928   1.449   2.572 -1.3786 -0.2002 -3.3077
  601DG      H613806   1.769   1.161   3.107  2.5138 -1.7326 -0.9110
  601DG      H713807   1.593   1.169   3.151  2.9100 -1.3681 -1.1572
  601DG      H813808   1.667   1.024   3.101 -1.5217  1.3726 -0.1381
  601DG      O913809   1.734   1.373   2.566  0.1963 -0.2931  0.4321
  601DG     O1013810   1.623   1.170   2.953  0.1206  0.7571  0.5767
  601DG     C1113811   1.648   1.288   2.495 -0.4749 -0.1628  0.2412
  601DG     C1213812   1.511   1.107   2.913  0.4992  0.4966  0.1512
  601DG     H1313813   1.710   1.197   2.483  3.3161 -0.7403  0.3788
  601DG     H1413814   1.635   1.324   2.391 -0.5237 -2.0692  2.4278
  601DG     H1513815   1.438   1.102   2.995  0.8260  0.8245  0.0251
  601DG     H1613816   1.530   1.002   2.890  1.5576  2.2230  0.1992
  601DG     C1713817   1.523   1.257   2.572  0.4707  0.3233 -0.3574
  601DG     C1813818   1.455   1.185   2.789 -0.6626  0.0257 -0.0133
  601DG     O1913819   1.560   1.198   2.693 -0.1366 -0.1974 -0.1837
  601DG     H2013820   1.472   1.179   2.516  2.1281 -0.4484 -2.0781
  601DG     H2113821   1.461   1.348   2.578 -0.2900  1.0226 -0.8888
  601DG     H2213822   1.382   1.117   2.736  1.2363 -0.2864  1.3328
  601DG     H2313823   1.412   1.288   2.813 -1.7848  2.8780 -2.4334
  602DG      C113824   4.317   2.175   2.883  0.0151  0.0251  0.1933
  602DG      C213825   4.635   1.682   2.985 -0.3733  0.0244 -0.0486
  602DG      H313826   4.223   2.229   2.870 -1.6991 -0.9672  1.2283
  602DG      H413827   4.369   2.219   2.973  2.7051 -1.6535 -2.7886
  602DG      H513828   4.299   2.071   2.909 -0.1539  0.6159 -1.5583
  602DG      H613829   4.532   1.677   3.011  1.5617  4.9295  0.8598
  602DG      H713830   4.703   1.610   3.030 -1.3404 -0.2783  3.9413
  602DG      H813831   4.662   1.778   3.007 -0.1397 -0.5484 -0.6190
  602DG      O913832   4.386   2.185   2.759 -0.0329 -0.1800 -0.2612
  602DG     O1013833   4.623   1.655   2.845 -0.1957 -0.0141 -0.2481
  602DG     C1113834   4.527   2.179   2.773  0.1280 -0.0114 -0.3956
  602DG     C1213835   4.544   1.747   2.772  0.0106 -0.5535  0.2327
  602DG     H1313836   4.553   2.144   2.873 -3.0073  2.2185  1.7740
  602DG     H1413837   4.556   2.281   2.761 -0.9784  0.1322 -2.3660
  602DG     H1513838   4.451   1.767   2.817  2.3767  2.0972  3.2387
  602DG     H1613839   4.531   1.718   2.675  0.4233  1.1622  2.4903
  602DG     C1713840   4.584   2.096   2.657  0.3075  0.9616  0.6114
  602DG     C1813841   4.609   1.886   2.758  0.1371  0.6770  0.7774
  602DG     O1913842   4.532   1.962   2.666  0.0212 -0.0159  0.0994
  602DG     H2013843   4.693   2.103   2.655 -3.0843 -1.3510 -2.1724
  602DG     H2113844   4.548   2.129   2.567 -0.7855 -0.4574  0.2413
  602DG     H2213845   4.631   1.930   2.856  1.3734  1.7757 -0.2910
  602DG     H2313846   4.708   1.869   2.717 -2.0892  1.2109 -1.3887
  603DG      C113847   2.222   2.264   1.887  0.0402 -0.2242 -0.1823
  603DG      C213848   2.065   2.455   2.428  0.2203 -0.6592 -0.3398
  603DG      H313849   2.155   2.190   1.936 -3.7262  1.3490  0.4770
  603DG      H413850   2.309   2.216   1.834 -1.0878 -3.5081 -0.1283
  603DG      H513851   2.167   2.333   1.813  1.4207 -0.0176 -0.9041
  603DG      H613852   2.015   2.540   2.393  1.1732  1.8065 -1.0216
  603DG      H713853   2.002   2.374   2.393  2.5314  0.2114  2.1573
  603DG      H813854   2.055   2.454   2.535 -2.4518 -1.2104 -3.4003
  603DG      O913855   2.274   2.339   1.992 -0.3314  0.3669  0.0508
  603DG     O1013856   2.196   2.448   2.378 -0.4588  0.3435  0.0539
  603DG     C1113857   2.365   2.439   1.945  0.0433  0.8741 -0.0149
  603DG     C1213858   2.265   2.571   2.397 -0.1993 -0.1931  0.5669
  603DG     H1313859   2.306   2.516   1.903  1.2386  0.2451  0.7200
  603DG     H1413860   2.433   2.390   1.874  0.1469 -0.8998 -3.4740
  603DG     H1513861   2.293   2.583   2.496  2.2661 -1.9785  1.2351
  603DG     H1613862   2.201   2.658   2.382  1.9951 -1.0510  1.4506
  603DG     C1713863   2.440   2.490   2.077  0.3455  0.0589 -0.0775
  603DG     C1813864   2.382   2.571   2.298  0.8052  0.1588  0.0431
  603DG     O1913865   2.337   2.526   2.167 -0.0930  0.2570 -0.0538
  603DG     H2013866   2.492   2.583   2.061  0.1825  0.9436  2.1960
  603DG     H2113867   2.507   2.412   2.124 -0.9877 -0.6072 -0.0542
  603DG     H2213868   2.418   2.676   2.288 -0.2871  0.4947 -0.2018
  603DG     H2313869   2.458   2.505   2.341 -1.2167 -1.3418  0.1310
  604DG      C113870   2.919   2.623   5.296 -0.5098 -0.5951 -0.1820
  604DG      C213871   2.808   3.043   4.630 -0.0598 -0.9478  0.3290
  604DG      H313872   2.851   2.539   5.332  1.9293 -4.3272  0.1397
  604DG      H413873   2.885   2.719   5.340  1.0835 -1.5668  0.9549
  604DG      H513874   3.012   2.593   5.332  0.0506  1.1692 -0.6123
  604DG      H613875   2.836   3.044   4.520  0.4997  0.0309 -0.5042
  604DG      H713876   2.726   2.980   4.636  0.8852  0.5096 -2.9471
  604DG      H813877   2.782   3.144   4.655  0.8517 -0.0075 -2.2575
  604DG      O913878   2.936   2.629   5.155  0.5921  0.1089  0.0255
  604DG     O1013879   2.908   2.996   4.719 -0.0879  0.1060  0.1945
  604DG     C1113880   3.055   2.686   5.120  0.2710 -0.2723 -1.1116
  604DG     C1213881   2.868   2.990   4.857  0.7284 -0.2211 -0.1212
  604DG     H1313882   3.135   2.629   5.173 -1.5510  0.3903 -0.4330
  604DG     H1413883   3.053   2.784   5.165 -1.5082 -2.2207 -1.6934
  604DG     H1513884   2.774   2.935   4.868 -2.3218 -0.5687 -1.8439
  604DG     H1613885   2.852   3.093   4.881  0.3690 -3.1501 -3.7180
  604DG     C1713886   3.086   2.705   4.971 -0.0651 -0.1428  0.0959
  604DG     C1813887   2.972   2.916   4.943 -0.4779  0.2965  0.0842
  604DG     O1913888   2.986   2.779   4.907  0.0102 -0.1331  0.0622
  604DG     H2013889   3.075   2.611   4.908  1.4296 -1.4504  0.2534
  604DG     H2113890   3.179   2.757   4.953 -1.6085  0.5727  0.1113
  604DG     H2213891   3.070   2.968   4.939  0.5465  0.4951 -3.2996
  604DG     H2313892   2.939   2.917   5.044 -4.1257  2.5068 -0.8823
  605DG      C113893   0.760   2.967   0.302  0.5554  0.7535 -0.3578
  605DG      C213894   1.348   2.617  -0.195 -0.1958 -0.1098  0.1652
  605DG      H313895   0.696   3.022   0.238 -0.9192 -0.4375  0.3125
  605DG      H413896   0.774   3.024   0.390 -1.1118  1.5732 -0.2384
  605DG      H513897   0.705   2.884   0.325 -1.2593 -1.9450 -3.6979
  605DG      H613898   1.419   2.688  -0.152 -1.4951 -2.1734  0.5387
  605DG      H713899   1.406   2.523  -0.196  1.5432 -1.8714  1.1413
  605DG      H813900   1.336   2.664  -0.290 -0.4882 -1.0391 -3.0434
  605DG      O913901   0.884   2.929   0.236 -0.4420 -0.1217  0.3390
  605DG     O1013902   1.224   2.624  -0.122 -0.7138  0.0100  0.5272
  605DG     C1113903   0.847   2.848   0.123 -0.1263  0.2819  0.0251
  605DG     C1213904   1.235   2.631   0.021 -0.8266 -0.2407  0.5577
  605DG     H1313905   0.750   2.877   0.081  0.4232 -1.1815 -0.2897
  605DG     H1413906   0.850   2.748   0.153  2.1958 -2.4976 -1.4630
  605DG     H1513907   1.314   2.702   0.056  0.0266 -2.9510  1.7352
  605DG     H1613908   1.258   2.532   0.055 -0.5742 -0.5130 -0.1699
  605DG     C1713909   0.954   2.860   0.007  0.4463 -1.1563  0.2510
  605DG     C1813910   1.113   2.677   0.078 -0.3811 -0.3486 -0.1635
  605DG     O1913911   1.080   2.814   0.047 -0.0125 -0.2712 -0.1132
  605DG     H2013912   0.956   2.966  -0.010 -1.8725 -1.1438  1.4032
  605DG     H2113913   0.918   2.817  -0.085 -0.1947  1.0070  1.0233
  605DG     H2213914   1.035   2.612   0.043 -2.1703 -2.7123  1.0570
  605DG     H2313915   1.112   2.693   0.187  1.5892  0.8153  0.2411
  606DG      C113916   3.690   0.730   2.819 -1.1258 -0.1060 -0.4663
  606DG      C213917   3.305   0.299   2.964  0.8006 -0.3486  0.4514
  606DG      H313918   3.709   0.774   2.915  3.1838  2.4603 -2.4373
  606DG      H413919   3.704   0.806   2.742 -2.0547  0.7202 -1.9350
  606DG      H513920   3.767   0.655   2.804  3.1737  0.0643  0.0985
  606DG      H613921   3.217   0.234   2.954 -2.0833 -1.4974 -2.9415
  606DG      H713922   3.391   0.234   2.958 -0.3883  1.4928  1.3361
  606DG      H813923   3.310   0.355   3.056  1.1824 -0.0203 -1.2100
  606DG      O913924   3.556   0.681   2.815 -0.5163  0.8563  0.2478
  606DG     O1013925   3.293   0.394   2.865  0.5421 -1.1641 -0.5415
  606DG     C1113926   3.461   0.786   2.835  0.6374  0.3351 -0.0827
  606DG     C1213927   3.162   0.457   2.874 -0.2671  0.2249 -0.2794
  606DG     H1313928   3.462   0.863   2.754 -1.5500 -1.0642 -0.2547
  606DG     H1413929   3.492   0.842   2.917 -1.1366 -0.5107 -1.8995
  606DG     H1513930   3.129   0.492   2.977  1.8186 -1.4236 -1.7795
  606DG     H1613931   3.082   0.386   2.849 -0.0918  0.7858  0.2643
  606DG     C1713932   3.327   0.725   2.867  0.0270  0.1186  0.2507
  606DG     C1813933   3.162   0.574   2.776  0.4684  0.4301  0.0143
  606DG     O1913934   3.293   0.639   2.759  0.1931  0.0726 -0.4023
  606DG     H2013935   3.243   0.791   2.885 -0.4722  0.7617  1.1400
  606DG     H2113936   3.332   0.673   2.964 -1.5245  0.3766  1.8022
  606DG     H2213937   3.121   0.537   2.680 -0.7542  0.3392  0.6613
  606DG     H2313938   3.085   0.651   2.788 -0.3290 -1.5661  2.7446
  607DG      C113939   0.414   2.300   4.739 -0.0718 -0.0760  0.0735
  607DG      C213940   0.195   2.133   4.124  0.6247  0.3893  0.4174
  607DG      H313941   0.461   2.256   4.831  0.4542  1.6042 -2.5219
  607DG      H413942   0.331   2.359   4.772  2.3871 -1.6744  2.4449
  607DG      H513943   0.487   2.361   4.685  1.3760 -0.1969  1.0420
  607DG      H613944   0.263   2.220   4.103  1.7804  1.3181  1.2627
  607DG      H713945   0.197   2.067   4.041  0.4626 -1.0818  0.5893
  607DG      H813946   0.093   2.170   4.144  0.0046 -0.6902  1.2085
  607DG      O913947   0.380   2.202   4.639 -0.1981  0.4265  0.2862
  607DG     O1013948   0.245   2.067   4.240 -0.0505 -0.4465 -0.0148
  607DG     C1113949   0.489   2.107   4.634  0.7245 -0.0346  0.3078
  607DG     C1213950   0.355   1.985   4.201 -0.4014 -0.1407  0.5301
  607DG     H1313951   0.513   2.059   4.723 -1.3487 -0.9878  0.0536
  607DG     H1413952   0.579   2.157   4.602 -0.5988  1.7405 -3.5346
  607DG     H1513953   0.439   2.044   4.161 -0.4203 -0.6666 -1.7746
  607DG     H1613954   0.331   1.909   4.124 -0.7010 -2.1546 -0.6067
  607DG     C1713955   0.467   1.987   4.546  0.3763  0.0412  0.1852
  607DG     C1813956   0.420   1.921   4.324 -0.0327 -0.0019 -0.0578
  607DG     O1913957   0.442   2.031   4.410 -0.0621  0.4775  0.4265
  607DG     H2013958   0.383   1.930   4.580  0.1273  0.4619  0.1690
  607DG     H2113959   0.547   1.924   4.546 -0.2311 -0.0984 -1.8003
  607DG     H2213960   0.355   1.844   4.367 -3.3913 -1.7580  0.5560
  607DG     H2313961   0.517   1.877   4.302  5.1066 -0.0585  1.1364
  608DG      C113962   2.904   4.769   0.850  0.4355 -0.5836 -0.5690
  608DG      C213963   2.677   4.186   0.560  0.1081 -0.0173  0.5660
  608DG      H313964   2.893   4.792   0.746  1.7913 -2.4325 -1.0379
  608DG      H413965   3.010   4.775   0.870 -1.4237  0.2622 -1.0793
  608DG      H513966   2.859   4.847   0.913  0.8621  0.2349  0.7680
  608DG      H613967   2.582   4.144   0.548  1.0894  1.1742 -1.5432
  608DG      H713968   2.678   4.258   0.483 -0.1904 -4.0361  2.0341
  608DG      H813969   2.753   4.109   0.550  0.3539  0.3477 -2.0043
  608DG      O913970   2.845   4.641   0.863 -0.3104  0.5524  0.3903
  608DG     O1013971   2.698   4.264   0.679  0.4871 -0.5919  0.2821
  608DG     C1113972   2.832   4.604   1.001 -0.4769 -0.0651 -0.4819
  608DG     C1213973   2.722   4.184   0.793 -0.6262  0.0024 -0.8460
  608DG     H1313974   2.768   4.689   1.039  0.6418  1.0457  1.5990
  608DG     H1413975   2.929   4.608   1.055  0.8242  0.4974 -0.3435
  608DG     H1513976   2.823   4.136   0.797  0.7719 -1.1594  1.6700
  608DG     H1613977   2.647   4.107   0.798 -0.1717 -1.0586  0.1775
  608DG     C1713978   2.768   4.468   1.024 -0.6250  0.6015 -0.3501
  608DG     C1813979   2.709   4.277   0.921  0.1786 -0.3294  0.0429
  608DG     O1913980   2.783   4.394   0.903 -0.1630  0.2293 -0.2364
  608DG     H2013981   2.659   4.484   1.046 -0.7152  0.8828  1.5856
  608DG     H2113982   2.817   4.427   1.112 -1.6988  0.6207  2.5863
  608DG     H2213983   2.606   4.315   0.932  2.4080  0.4883 -1.0875
  608DG     H2313984   2.718   4.223   1.012 -0.0502  3.2166  0.0690
  609DG      C113985   2.096   5.267   3.698 -0.1720  0.4292 -0.2885
  609DG      C213986   1.455   5.428   4.033 -0.0125  0.0185 -0.6378
  609DG      H313987   2.159   5.175   3.712 -2.2034 -1.7423  0.6375
  609DG      H413988   2.074   5.311   3.799  3.0305 -0.8697 -1.3283
  609DG      H513989   2.158   5.344   3.656  1.1441  3.0343 -3.7815
  609DG      H613990   1.348   5.407   4.003 -1.3471 -0.4078 -2.6189
  609DG      H713991   1.456   5.467   4.132 -1.9437  1.6267 -1.1957
  609DG      H813992   1.478   5.518   3.980  0.8469  0.5719  1.4513
  609DG      O913993   1.987   5.240   3.613  0.1175  0.6690  0.5277
  609DG     O1013994   1.546   5.327   4.009 -0.4441  0.1970 -0.4439
  609DG     C1113995   1.920   5.111   3.616 -0.1857 -0.3570 -0.9414
  609DG     C1213996   1.554   5.283   3.872  0.8490  0.1904 -0.8314
  609DG     H1313997   1.999   5.029   3.596  1.1094 -0.3375 -1.9207
  609DG     H1413998   1.849   5.106   3.530 -0.4088  1.3417 -0.9583
  609DG     H1513999   1.577   5.372   3.816  0.8858  1.9293  0.4377
  609DG     H1614000   1.450   5.253   3.832 -1.2446 -1.5738 -0.7258
  609DG     C1714001   1.848   5.088   3.748  0.1188  0.6196 -0.1387
  609DG     C1814002   1.665   5.180   3.860 -0.2392 -0.1375 -0.1885
  609DG     O1914003   1.747   5.189   3.747  0.4844  0.0302 -0.2675
  609DG     H2014004   1.908   5.085   3.835 -1.5124 -0.8308  1.1742
  609DG     H2114005   1.795   4.992   3.758  2.4317 -0.0134  1.4504
  609DG     H2214006   1.725   5.192   3.953  1.7268  0.3690 -1.3621
  609DG     H2314007   1.622   5.081   3.869  0.7413  0.3595  3.2904
  610DG      C114008   4.179   4.308   0.614 -0.8345 -0.7778  0.0295
  610DG      C214009   4.566   4.659   1.219 -0.3104 -0.0033  0.5931
  610DG      H314010   4.132   4.230   0.661  0.6747  2.4403 -1.9589
  610DG      H414011   4.202   4.286   0.515 -0.2011  3.0286  0.0997
  610DG      H514012   4.110   4.388   0.600  2.9620  0.7872 -1.6654
  610DG      H614013   4.660   4.618   1.252  0.1181 -1.8398  0.4537
  610DG      H714014   4.580   4.767   1.195 -0.3481 -0.7577  1.7746
  610DG      H814015   4.495   4.648   1.301  0.6926  1.2901  3.0936
  610DG      O914016   4.292   4.348   0.687 -0.5789  0.4551  0.7811
  610DG     O1014017   4.527   4.590   1.109 -0.2656 -0.2048  0.0020
  610DG     C1114018   4.269   4.381   0.825 -0.0929 -0.3806  0.7017
  610DG     C1214019   4.627   4.616   0.999 -0.0656  0.4476 -0.0692
  610DG     H1314020   4.218   4.302   0.874  1.1259 -3.8528 -1.0553
  610DG     H1414021   4.218   4.478   0.836 -1.9321  0.1030 -1.1556
  610DG     H1514022   4.728   4.623   1.040  2.3631 -2.1370  0.2828
  610DG     H1614023   4.600   4.714   0.950  0.9207 -0.8209 -0.4106
  610DG     C1714024   4.409   4.393   0.896 -0.1275 -0.2653 -0.1204
  610DG     C1814025   4.612   4.515   0.882 -0.4086  0.1374  0.0189
  610DG     O1914026   4.478   4.499   0.830  0.0499 -0.2124 -0.5855
  610DG     H2014027   4.459   4.294   0.890 -1.8289 -0.3918  1.3423
  610DG     H2114028   4.391   4.407   0.998 -0.0764 -0.3635 -1.1488
  610DG     H2214029   4.667   4.573   0.807 -1.2794  0.8080  1.4251
  610DG     H2314030   4.653   4.416   0.903 -0.0865 -2.5771 -0.9236
  611DG      C114031   4.494   2.316   0.917 -0.1330 -0.5264 -0.4494
  611DG      C214032   4.031   1.860   0.712  0.1397 -0.2533 -0.4754
  611DG      H314033   4.528   2.241   0.987 -0.9032 -0.7038 -0.2092
  611DG      H414034   4.507   2.412   0.965  1.1195 -2.9761 -0.4600
  611DG      H514035   4.563   2.321   0.830 -2.0904  1.7063 -1.6374
  611DG      H614036   4.105   1.812   0.766  0.4041  0.3201 -0.2944
  611DG      H714037   3.933   1.841   0.759  1.0095 -1.7008  1.6196
  611DG      H814038   4.020   1.825   0.613 -0.5939 -0.0301  1.4441
  611DG      O914039   4.353   2.292   0.894  0.3994  0.1326 -0.0916
  611DG     O1014040   4.071   1.992   0.706  0.2479  0.5473  0.4385
  611DG     C1114041   4.293   2.386   0.806 -0.2121 -0.2124 -0.4749
  611DG     C1214042   3.972   2.079   0.667 -0.0686 -0.5327  0.4523
  611DG     H1314043   4.322   2.356   0.706 -0.0408 -0.2027 -0.6459
  611DG     H1414044   4.333   2.489   0.827  1.3412 -1.7991 -0.0531
  611DG     H1514045   3.889   2.085   0.728  1.0750  0.9458 -0.8901
  611DG     H1614046   3.934   2.043   0.573  2.7647  2.1416  1.0877
  611DG     C1714047   4.141   2.367   0.817  0.1290 -0.5266 -0.1723
  611DG     C1814048   4.041   2.215   0.659 -0.2875 -0.5812  0.0302
  611DG     O1914049   4.102   2.233   0.791  0.5371 -0.0089 -0.2419
  611DG     H2014050   4.079   2.441   0.756  0.9949  2.3740 -2.5684
  611DG     H2114051   4.119   2.374   0.925  0.0576 -2.2564  0.7063
  611DG     H2214052   4.131   2.210   0.588  0.5077  0.9760 -2.3047
  611DG     H2314053   3.984   2.304   0.629  0.9474  1.5784 -2.4558
  612DG      C114054   2.575   3.901   4.773 -0.7971 -0.0948  0.1373
  612DG      C214055   3.033   4.165   4.333 -0.4460  0.2406 -0.1923
  612DG      H314056   2.495   3.931   4.710 -0.3498 -3.7562 -0.9557
  612DG      H414057   2.526   3.898   4.874  0.5911 -2.9171  0.9238
  612DG      H514058   2.609   3.804   4.737  0.3528  5.0812 -0.5391
  612DG      H614059   3.030   4.273   4.305 -2.2614  2.3979 -3.2198
  612DG      H714060   3.134   4.140   4.315 -0.7637  2.6291  2.2695
  612DG      H814061   2.970   4.110   4.266  1.8389 -0.6750 -1.6280
  612DG      O914062   2.683   3.990   4.768 -0.1382 -0.2189 -0.3397
  612DG     O1014063   2.988   4.145   4.467 -0.2878 -0.4312 -0.5503
  612DG     C1114064   2.781   3.973   4.875 -0.3058  0.4610  0.3481
  612DG     C1214065   3.098   4.166   4.565  0.8827  0.1426 -0.0230
  612DG     H1314066   2.836   3.879   4.850  0.7812  0.4735  1.5962
  612DG     H1414067   2.743   3.976   4.975  1.3218 -0.2657 -1.5353
  612DG     H1514068   3.147   4.257   4.546  0.8601 -1.1242 -1.0491
  612DG     H1614069   3.170   4.091   4.571  1.4964  0.0186  1.5382
  612DG     C1714070   2.887   4.086   4.862 -1.0937  0.1553  0.5567
  612DG     C1814071   3.040   4.173   4.701  0.2763 -0.3787  0.0645
  612DG     O1914072   2.963   4.060   4.740  0.4567 -0.4876 -0.8009
  612DG     H2014073   2.964   4.090   4.944  0.6334 -3.5409  2.3370
  612DG     H2114074   2.840   4.184   4.863  0.7128 -1.7805 -1.2088
  612DG     H2214075   3.123   4.202   4.775  2.9244  0.1614  0.2263
  612DG     H2314076   2.982   4.261   4.707  4.1035 -0.3533  0.4675
  613DG      C114077   0.636   4.716   1.524 -0.3568 -0.6137  0.2009
  613DG      C214078   0.098   5.138   1.379  0.4185 -0.7462  0.6511
  613DG      H314079   0.704   4.802   1.551  1.1841  0.6033 -1.2580
  613DG      H414080   0.624   4.710   1.413 -2.8495  0.5351 -3.8297
  613DG      H514081   0.683   4.629   1.550 -0.2000  1.2282 -2.8779
  613DG      H614082   0.164   5.048   1.378  0.8105 -0.2472  2.4909
  613DG      H714083   0.042   5.139   1.286 -0.9208  1.1509 -3.5621
  613DG      H814084   0.163   5.221   1.390 -1.5658 -1.1851  2.6388
  613DG      O914085   0.519   4.718   1.597 -0.6007  0.3293 -0.5882
  613DG     O1014086   0.007   5.120   1.492  0.1051 -0.0452 -0.0311
  613DG     C1114087   0.448   4.836   1.576  0.4848 -0.9565  0.0415
  613DG     C1214088   0.068   5.104   1.625 -0.1471 -0.2998  0.1013
  613DG     H1314089   0.436   4.852   1.471  0.4308 -0.1336 -2.2424
  613DG     H1414090   0.493   4.922   1.631 -0.4484 -1.3463 -1.3880
  613DG     H1514091  -0.027   5.108   1.678 -0.6294 -0.3109 -0.5152
  613DG     H1614092   0.133   5.190   1.645  1.4602  2.6414  0.6417
  613DG     C1714093   0.306   4.823   1.624  0.4795 -0.5650 -0.3326
  613DG     C1814094   0.119   4.968   1.668  0.9496  0.2960 -0.1116
  613DG     O1914095   0.234   4.941   1.592 -0.5454 -0.3693  0.1881
  613DG     H2014096   0.308   4.807   1.732  1.0123 -1.0682 -3.8270
  613DG     H2114097   0.254   4.735   1.588 -0.9075 -0.7174  0.2993
  613DG     H2214098   0.134   4.955   1.772  2.7893 -3.2263 -0.4924
  613DG     H2314099   0.054   4.884   1.633 -0.2306 -0.5590  0.5324
  614DG      C114100   4.501   3.422   3.508  0.2341  0.2825 -0.2534
  614DG      C214101   4.887   2.807   3.724  0.3980 -0.7443  0.4472
  614DG      H314102   4.436   3.359   3.571  0.2317  3.7134  2.9479
  614DG      H414103   4.436   3.469   3.432 -1.1761 -0.1332  1.2138
  614DG      H514104   4.541   3.485   3.592  0.3131  0.1365  1.0559
  614DG      H614105   4.881   2.838   3.828 -2.3776 -0.3246  0.5163
  614DG      H714106   4.872   2.700   3.727 -1.6930  0.3249 -1.4713
  614DG      H814107   4.991   2.829   3.687  3.5518  1.1975 -0.0821
  614DG      O914108   4.582   3.329   3.435  0.6675  0.2563  0.0858
  614DG     O1014109   4.788   2.866   3.644  0.3862 -0.0367  0.1801
  614DG     C1114110   4.719   3.334   3.490  0.0501  1.0351 -0.0507
  614DG     C1214111   4.795   2.841   3.504  0.3199  0.2010 -0.6457
  614DG     H1314112   4.711   3.335   3.596 -2.0683  0.5790 -2.0601
  614DG     H1414113   4.762   3.426   3.462 -2.3190  0.4462  1.8965
  614DG     H1514114   4.695   2.811   3.470 -0.5108 -1.9439  1.2037
  614DG     H1614115   4.855   2.762   3.473  2.1513  0.4685  2.3376
  614DG     C1714116   4.804   3.219   3.441 -0.2461  0.3604 -0.1698
  614DG     C1814117   4.836   2.980   3.444 -0.4174  0.4146  0.0627
  614DG     O1914118   4.747   3.089   3.474  0.1692 -0.9592  0.0682
  614DG     H2014119   4.910   3.236   3.472  1.3132  0.2769 -0.2934
  614DG     H2114120   4.816   3.224   3.335  0.3216 -0.2230  0.8623
  614DG     H2214121   4.930   3.012   3.477 -4.0484  0.5602 -1.0363
  614DG     H2314122   4.843   2.958   3.339 -0.2543  0.3001  1.6599
  615DG      C114123   3.448   0.006   2.150 -0.0402  0.1772  0.0290
  615DG      C214124   3.950  -0.636   2.437  0.5094  0.3210  0.2300
  615DG      H314125   3.387   0.060   2.078  0.1628  0.9664  0.4275
  615DG      H414126   3.464   0.080   2.229 -1.8755 -0.2885  0.6883
  615DG      H514127   3.387  -0.069   2.199 -2.6514  0.5826  0.1221
  615DG      H614128   3.927  -0.590   2.532  1.0499  1.1585 -1.8689
  615DG      H714129   3.939  -0.746   2.443  0.1199 -0.9555 -0.8687
  615DG      H814130   4.059  -0.608   2.429  1.1561  0.4855 -0.2907
  615DG      O914131   3.573  -0.056   2.094  0.0299  0.0644 -0.5199
  615DG     O1014132   3.878  -0.592   2.324  0.0275 -0.4926 -0.2394
  615DG     C1114133   3.554  -0.182   2.048  0.1654  0.9648 -0.5074
  615DG     C1214134   3.870  -0.447   2.304 -0.0130  0.0533 -0.2544
  615DG     H1314135   3.509  -0.170   1.946  0.9808 -1.6527 -0.7294
  615DG     H1414136   3.494  -0.248   2.112 -1.6508 -0.4634 -3.3413
  615DG     H1514137   3.965  -0.410   2.321  0.8685 -0.5407 -0.5097
  615DG     H1614138   3.806  -0.412   2.389 -1.5516  1.0352  1.0561
  615DG     C1714139   3.689  -0.257   2.038  0.6733 -0.2366 -0.2737
  615DG     C1814140   3.823  -0.415   2.159 -0.4185  0.7375 -0.2927
  615DG     O1914141   3.741  -0.299   2.163  0.5719  0.3394  0.5012
  615DG     H2014142   3.760  -0.191   1.991 -0.0683  0.8241 -5.9145
  615DG     H2114143   3.669  -0.354   1.990 -1.7279  0.1696 -0.1988
  615DG     H2214144   3.898  -0.409   2.082  3.2567 -3.2350 -1.5026
  615DG     H2314145   3.762  -0.498   2.128 -2.1795  1.3436  0.2506
  616DG      C114146   2.715   5.226   2.531  0.0976  0.1330 -0.2903
  616DG      C214147   2.593   5.674   3.078  0.2372 -0.3182 -0.1533
  616DG      H314148   2.766   5.123   2.529  0.9876 -0.7386 -2.8281
  616DG      H414149   2.765   5.283   2.448 -0.6066  0.1992  1.2085
  616DG      H514150   2.610   5.223   2.498 -1.4514 -0.2100 -1.0274
  616DG      H614151   2.579   5.782   3.073  0.9437  2.0027 -0.8677
  616DG      H714152   2.501   5.618   3.062  1.7586 -1.7478  1.7317
  616DG      H814153   2.612   5.649   3.182  2.6454 -0.3654 -0.5784
  616DG      O914154   2.734   5.270   2.665 -0.1791  0.2342 -0.6194
  616DG     O1014155   2.696   5.638   2.985  0.5623 -0.5262 -0.0652
  616DG     C1114156   2.861   5.306   2.705  0.2515 -0.2469 -0.0054
  616DG     C1214157   2.691   5.708   2.867 -0.6059  0.3324  0.4954
  616DG     H1314158   2.941   5.246   2.665  1.5460 -0.1693 -0.9815
  616DG     H1414159   2.873   5.285   2.810  0.6361 -2.7506 -1.1055
  616DG     H1514160   2.693   5.817   2.887 -2.0806 -1.4767  0.8533
  616DG     H1614161   2.599   5.694   2.812 -1.9627  1.6701 -0.8533
  616DG     C1714162   2.882   5.456   2.676 -0.3585  0.1699  0.0091
  616DG     C1814163   2.803   5.659   2.777  0.9302  0.0265  0.1728
  616DG     O1914164   2.778   5.524   2.746 -0.1861 -0.3277 -0.1005
  616DG     H2014165   2.874   5.457   2.563 -2.8395 -1.7591 -1.5552
  616DG     H2114166   2.982   5.489   2.712 -0.0662 -0.7328  0.3908
  616DG     H2214167   2.810   5.717   2.681 -0.8260  0.8875 -4.0916
  616DG     H2314168   2.898   5.668   2.826  0.2083  1.8603 -0.4822
  617DG      C114169   4.551   3.072   1.581  0.4574  0.3034 -0.2771
  617DG      C214170   4.473   3.276   1.028 -0.2135  0.0734 -0.6008
  617DG      H314171   4.648   3.110   1.601 -0.2449 -2.4412 -0.7593
  617DG      H414172   4.525   3.036   1.679  2.7806  0.2955  0.1785
  617DG      H514173   4.493   3.162   1.554 -0.2249 -1.0873  2.1593
  617DG      H614174   4.421   3.355   0.972  1.4581  0.1629 -0.7159
  617DG      H714175   4.556   3.324   1.071 -1.4936 -0.1550  0.3538
  617DG      H814176   4.510   3.190   0.969  0.8300 -0.7096 -1.2313
  617DG      O914177   4.537   2.982   1.477  0.1115 -0.3859 -0.3546
  617DG     O1014178   4.400   3.219   1.139  0.5274 -0.0919  0.3528
  617DG     C1114179   4.410   2.905   1.490  0.7163 -0.1447 -0.0551
  617DG     C1214180   4.287   3.137   1.102 -0.1677  0.1184 -0.7674
  617DG     H1314181   4.384   2.873   1.597 -1.4003  0.1899  2.4210
  617DG     H1414182   4.427   2.812   1.432 -3.3044 -2.4870 -1.8019
  617DG     H1514183   4.319   3.056   1.040 -1.6268  0.7017 -3.0346
  617DG     H1614184   4.212   3.196   1.053  0.2656  2.0759 -0.4168
  617DG     C1714185   4.281   2.970   1.440 -0.7532  0.5186 -0.3967
  617DG     C1814186   4.225   3.077   1.231  0.5249  1.0993 -0.2123
  617DG     O1914187   4.320   3.008   1.309 -0.4098 -0.2003  0.2154
  617DG     H2014188   4.256   3.057   1.507 -0.6174  1.6761 -1.0128
  617DG     H2114189   4.193   2.898   1.440 -1.9554  0.0594  2.6819
  617DG     H2214190   4.173   3.150   1.295  0.0201 -0.0403 -2.1768
  617DG     H2314191   4.145   3.003   1.198 -0.2652 -0.1456 -1.2061
  618DG      C114192   5.443   5.461   3.680  0.6064 -0.4530  0.0792
  618DG      C214193   5.300   6.049   3.965  0.3699  0.1233 -0.2809
  618DG      H314194   5.530   5.390   3.702 -0.1696 -1.0136 -0.2160
  618DG      H414195   5.468   5.536   3.603  2.7935  2.2173 -0.0254
  618DG      H514196   5.362   5.401   3.643 -1.3433  0.6752  2.6207
  618DG      H614197   5.306   6.114   4.051 -2.0812  1.9165  0.7604
  618DG      H714198   5.388   6.058   3.893 -0.1394 -0.0592  1.4232
  618DG      H814199   5.205   6.066   3.910  0.0738  1.6260  1.2628
  618DG      O914200   5.396   5.531   3.801  0.1041  0.8360 -0.5108
  618DG     O1014201   5.316   5.915   4.013  0.0935  0.9725 -0.2574
  618DG     C1114202   5.361   5.448   3.912 -0.3693 -0.3690  0.0885
  618DG     C1214203   5.203   5.866   4.084 -0.4691  0.0127 -0.8739
  618DG     H1314204   5.452   5.389   3.929  1.5370 -2.6168 -0.1032
  618DG     H1414205   5.283   5.377   3.892 -1.6818  0.3065  3.3259
  618DG     H1514206   5.112   5.889   4.032 -0.9573  3.6627  1.5298
  618DG     H1614207   5.198   5.931   4.170  0.9908  1.3693  1.4248
  618DG     C1714208   5.312   5.520   4.042 -0.2024  0.5999  0.1270
  618DG     C1814209   5.229   5.726   4.131 -0.2672  0.1694 -0.1195
  618DG     O1914210   5.248   5.643   4.019  0.2072 -0.2211 -0.1212
  618DG     H2014211   5.402   5.533   4.098  2.0409  0.5479  2.9237
  618DG     H2114212   5.238   5.453   4.100  1.5803 -1.7041  0.3901
  618DG     H2214213   5.325   5.724   4.186 -0.6757  1.3539 -0.8059
  618DG     H2314214   5.151   5.688   4.188  1.1439 -1.0243 -1.3375
  619DG      C114215   3.700   0.568   5.388 -0.4801  0.5847 -0.1828
  619DG      C214216   4.215   0.468   5.910 -0.2900  0.3465 -0.2340
  619DG      H314217   3.757   0.643   5.339 -0.0442 -1.3702 -0.2210
  619DG      H414218   3.592   0.581   5.364 -0.8147 -0.8060  1.3191
  619DG      H514219   3.733   0.466   5.355 -2.5897  0.9751  1.3927
  619DG      H614220   4.247   0.383   5.851  1.0482 -0.3582  0.3686
  619DG      H714221   4.273   0.557   5.880 -1.6608 -1.6040 -2.4976
  619DG      H814222   4.241   0.441   6.013  1.9037  2.4520 -1.6316
  619DG      O914223   3.731   0.575   5.529  0.4073  0.1115  0.1545
  619DG     O1014224   4.080   0.495   5.877  0.2440  0.1056 -0.1241
  619DG     C1114225   3.647   0.483   5.592  0.5159 -0.0247  0.1849
  619DG     C1214226   3.994   0.401   5.933 -0.2201  0.3746  0.2830
  619DG     H1314227   3.668   0.379   5.558 -0.2657 -1.9343 -0.1908
  619DG     H1414228   3.541   0.503   5.564 -1.3163  0.4999 -0.3616
  619DG     H1514229   4.011   0.386   6.039 -0.7280 -0.4552 -1.9062
  619DG     H1614230   4.008   0.295   5.891 -1.1952 -1.1080 -0.7723
  619DG     C1714231   3.675   0.482   5.741 -0.0860 -0.6734 -0.3826
  619DG     C1814232   3.850   0.446   5.909  0.0113  0.3082 -0.3896
  619DG     O1914233   3.804   0.435   5.772 -0.0402 -0.1327  0.0263
  619DG     H2014234   3.600   0.424   5.801 -1.3727  1.0075  2.3648
  619DG     H2114235   3.652   0.582   5.776 -2.7408  1.1827 -1.1559
  619DG     H2214236   3.789   0.378   5.964  0.6837  0.6650  0.1205
  619DG     H2314237   3.830   0.537   5.954 -1.2735 -3.0199  0.7342
  620DG      C114238   4.835   0.643   3.419  0.5928  0.2865  0.9211
  620DG      C214239   4.045   0.500   3.310 -1.0794 -0.4928  0.3372
  620DG      H314240   4.832   0.742   3.373  1.1831 -0.7299  0.7715
  620DG      H414241   4.897   0.574   3.364  1.4945  3.1459  0.8543
  620DG      H514242   4.894   0.659   3.510 -1.6037 -3.6360  0.3402
  620DG      H614243   4.055   0.417   3.244  0.8994  1.5427 -1.1481
  620DG      H714244   3.975   0.470   3.388 -0.9745  5.6737 -1.8907
  620DG      H814245   4.023   0.590   3.255 -1.6474 -0.7664  0.0834
  620DG      O914246   4.707   0.584   3.439 -0.1444 -0.8416 -0.3683
  620DG     O1014247   4.174   0.515   3.361 -0.6268  0.0117  0.0353
  620DG     C1114248   4.625   0.572   3.325 -0.1837 -0.1450 -0.3207
  620DG     C1214249   4.184   0.628   3.445  0.3597 -1.2472 -0.4794
  620DG     H1314250   4.656   0.495   3.263 -2.9542  1.3095  1.2543
  620DG     H1414251   4.624   0.663   3.268 -0.9163 -4.0871  0.8118
  620DG     H1514252   4.101   0.613   3.518 -0.0687  1.0826 -0.3138
  620DG     H1614253   4.167   0.730   3.395 -3.9726  1.9296 -0.5036
  620DG     C1714254   4.490   0.538   3.384  0.7755  0.9178  0.6384
  620DG     C1814255   4.316   0.630   3.530 -0.6633 -0.4808  0.9257
  620DG     O1914256   4.432   0.653   3.445 -0.0861  0.7588  0.5065
  620DG     H2014257   4.506   0.452   3.443 -1.4099  0.8352 -2.0418
  620DG     H2114258   4.419   0.499   3.312  0.1902 -0.4240  1.7986
  620DG     H2214259   4.313   0.705   3.609 -0.3689 -0.6530 -0.5379
  620DG     H2314260   4.329   0.541   3.595  2.4631  1.6206  1.1725
  621DG      C114261   1.217   0.101   0.957  0.1372 -0.0187 -0.3878
  621DG      C214262   0.537  -0.172   0.890  0.0228 -0.2315  0.2101
  621DG      H314263   1.268   0.196   0.931 -1.6945  1.2566  0.7266
  621DG      H414264   1.292   0.024   0.959 -1.3138 -1.6103 -1.7296
  621DG      H514265   1.176   0.104   1.056 -0.2805  1.9198 -0.9818
  621DG      H614266   0.459  -0.101   0.928 -1.4937 -2.1651 -1.5634
  621DG      H714267   0.479  -0.248   0.841  0.7394  0.1325 -0.5848
  621DG      H814268   0.584  -0.211   0.984 -1.9893 -0.1782  0.6278
  621DG      O914269   1.116   0.059   0.866 -0.2549 -0.2852 -0.5778
  621DG     O1014270   0.638  -0.126   0.794  0.7099 -0.2330 -0.1674
  621DG     C1114271   1.162   0.029   0.739 -0.3534 -0.3736 -0.4801
  621DG     C1214272   0.739  -0.221   0.770  0.0886  0.0266 -0.2069
  621DG     H1314273   1.230  -0.062   0.741 -0.4522 -0.7037  0.8107
  621DG     H1414274   1.208   0.105   0.677 -1.3542 -0.1552 -0.2349
  621DG     H1514275   0.695  -0.309   0.725 -0.3232  1.1359  0.5017
  621DG     H1614276   0.789  -0.242   0.862 -0.3507 -1.0837  0.6211
  621DG     C1714277   1.034  -0.022   0.662  0.1870 -0.3118  0.0699
  621DG     C1814278   0.839  -0.166   0.669 -0.3910  0.1637  0.2166
  621DG     O1914279   0.958  -0.114   0.741 -0.1719 -0.7552 -0.2945
  621DG     H2014280   1.066  -0.063   0.571  0.3890  2.1715  1.0634
  621DG     H2114281   0.977   0.061   0.629 -1.5582 -0.9604  0.1201
  621DG     H2214282   0.861  -0.246   0.602  0.9616  2.6708  0.2334
  621DG     H2314283   0.790  -0.091   0.617 -0.1105 -1.1494 -1.2541
  622DG      C114284   5.098   0.920   2.926  0.0427  0.1770  0.0718
  622DG      C214285   5.578   1.589   2.804 -0.0780 -0.1359 -0.7961
  622DG      H314286   5.139   0.887   2.824 -0.3805 -0.5839 -1.5599
  622DG      H414287   4.984   0.906   2.932 -4.2033  3.2350  1.5108
  622DG      H514288   5.154   0.866   3.006 -0.4716 -2.2615  0.7135
  622DG      H614289   5.602   1.694   2.808  2.3373  0.0526 -0.7766
  622DG      H714290   5.667   1.533   2.815  0.3162  1.2227 -0.6377
  622DG      H814291   5.537   1.564   2.712 -1.0567 -2.8602  0.7692
  622DG      O914292   5.118   1.060   2.933  0.2964 -0.4894  0.1077
  622DG     O1014293   5.477   1.558   2.899  0.7445 -0.1442  0.2373
  622DG     C1114294   5.095   1.116   3.061 -0.6776 -0.5829 -0.0243
  622DG     C1214295   5.403   1.440   2.882  0.2715  0.4104 -0.3270
  622DG     H1314296   5.170   1.068   3.124 -1.9493 -2.5375  2.0949
  622DG     H1414297   4.995   1.103   3.102  0.7281  0.8908 -2.4514
  622DG     H1514298   5.471   1.359   2.899 -0.2851  0.3501  2.4818
  622DG     H1614299   5.355   1.439   2.781 -1.8404  1.7415 -3.5285
  622DG     C1714300   5.125   1.265   3.046 -0.4693 -0.5641 -0.4539
  622DG     C1814301   5.294   1.424   2.992 -0.6171 -0.0444 -0.1901
  622DG     O1914302   5.261   1.287   3.004  0.9139  0.4825 -0.5029
  622DG     H2014303   5.104   1.323   3.132 -0.5544  1.8618 -0.8948
  622DG     H2114304   5.063   1.302   2.963 -1.3034  0.3768  1.3791
  622DG     H2214305   5.322   1.480   3.080  2.3844 -0.5746  2.1465
  622DG     H2314306   5.210   1.475   2.958  1.1998  0.0447  0.0075
  623DG      C114307   4.576   3.336   0.355  0.3969  0.1549 -0.9054
  623DG      C214308   5.072   4.014   0.128  1.2989 -0.2353  0.2632
  623DG      H314309   4.526   3.400   0.424 -1.0451 -0.5406  2.5740
  623DG      H414310   4.646   3.287   0.421 -0.0253  0.7847 -0.4366
  623DG      H514311   4.517   3.276   0.286  2.0770 -0.8925  1.2362
  623DG      H614312   5.102   4.084   0.055 -1.6858  1.3926  0.8798
  623DG      H714313   5.006   4.073   0.190  0.1911 -0.6766  0.5270
  623DG      H814314   5.171   3.983   0.158  1.9898  1.0772 -1.0967
  623DG      O914315   4.665   3.426   0.288  0.5934 -0.2446  0.0665
  623DG     O1014316   5.008   3.910   0.068 -0.5003 -0.0752 -0.4101
  623DG     C1114317   4.770   3.372   0.200 -0.0853  0.2259 -1.4357
  623DG     C1214318   4.949   3.816   0.152 -0.0854 -0.3202  0.0217
  623DG     H1314319   4.745   3.282   0.142 -1.3717 -1.3782 -0.9984
  623DG     H1414320   4.852   3.345   0.269  0.0096  3.3099  1.2347
  623DG     H1514321   4.878   3.857   0.227 -3.4899  0.0085 -3.4740
  623DG     H1614322   5.030   3.783   0.219  0.8034 -0.1209 -0.9677
  623DG     C1714323   4.811   3.481   0.095 -0.0561  0.2727 -0.2210
  623DG     C1814324   4.885   3.700   0.080 -0.4800  0.2679  0.3276
  623DG     O1914325   4.846   3.596   0.171 -0.1874 -0.2642  0.1543
  623DG     H2014326   4.728   3.508   0.032 -1.4267  0.2224  2.0985
  623DG     H2114327   4.898   3.454   0.031  0.7290  2.3152  0.8461
  623DG     H2214328   4.806   3.725   0.013  3.1580 -1.8872 -1.0684
  623DG     H2314329   4.975   3.675   0.019 -2.0025  2.8218  1.0000
  624DG      C114330   1.857   4.884   0.667 -0.2611  1.0203  0.0628
  624DG      C214331   1.992   5.312  -0.012 -0.0254  0.0806  0.2778
  624DG      H314332   1.833   4.781   0.630 -1.0146 -1.3867 -0.0251
  624DG      H414333   1.758   4.930   0.667 -1.1956 -0.8313  2.4657
  624DG      H514334   1.886   4.891   0.775  1.5394 -4.1362 -1.2959
  624DG      H614335   2.007   5.222  -0.066  1.4729 -0.3723  0.3597
  624DG      H714336   1.883   5.317  -0.029  0.6036 -0.3706  0.6929
  624DG      H814337   2.047   5.384  -0.068  0.1350 -2.7906 -0.3675
  624DG      O914338   1.945   4.955   0.586  0.1971  0.3775 -0.4810
  624DG     O1014339   2.014   5.284   0.124  0.0741 -0.6145  0.0738
  624DG     C1114340   1.938   5.104   0.582 -0.0077 -0.4927  0.3612
  624DG     C1214341   2.101   5.178   0.144 -0.1674 -0.3102 -0.1790
  624DG     H1314342   1.921   5.139   0.692 -1.1025  0.2046  0.9045
  624DG     H1414343   1.841   5.124   0.531  0.1449 -0.1361 -0.7287
  624DG     H1514344   2.198   5.176   0.088  0.5741 -1.8651  1.4876
  624DG     H1614345   2.058   5.090   0.113 -1.6516  0.7688 -0.2739
  624DG     C1714346   2.056   5.171   0.509  0.2536 -0.1097  0.0450
  624DG     C1814347   2.141   5.178   0.289 -0.2403 -0.4973  0.2762
  624DG     O1914348   2.028   5.166   0.365 -0.1998  0.0481 -0.1740
  624DG     H2014349   2.143   5.112   0.541  0.7710 -0.8918  0.3319
  624DG     H2114350   2.070   5.274   0.536 -0.7426 -0.9901 -2.7230
  624DG     H2214351   2.208   5.094   0.324  0.2937 -1.4039 -1.4972
  624DG     H2314352   2.190   5.270   0.315  0.4963  1.4431 -1.2431
  625DG      C114353   0.778   1.069   3.717 -0.3915 -0.3523 -0.0444
  625DG      C214354   0.792   0.672   3.076 -0.2195  0.3347  0.1519
  625DG      H314355   0.728   1.149   3.662  0.9099 -1.8381 -0.6554
  625DG      H414356   0.863   1.116   3.775 -0.8393  0.9727  1.1628
  625DG      H514357   0.704   1.022   3.782  0.4883  0.6980  1.9392
  625DG      H614358   0.764   0.559   3.075  1.2491 -2.7913  0.1248
  625DG      H714359   0.753   0.720   2.985  1.9418  2.2157 -1.8599
  625DG      H814360   0.908   0.683   3.082  1.8894 -0.5759  0.3289
  625DG      O914361   0.844   0.997   3.615  0.8694 -0.1574  0.0875
  625DG     O1014362   0.736   0.733   3.188  0.1364  0.1329  0.1967
  625DG     C1114363   0.915   1.069   3.509  0.2937 -0.4214  0.2908
  625DG     C1214364   0.794   0.682   3.316 -0.1535  0.4254 -0.2548
  625DG     H1314365   0.992   1.138   3.535 -1.0191  0.4737 -2.9049
  625DG     H1414366   0.854   1.142   3.462 -1.1132 -0.2350  0.7283
  625DG     H1514367   0.800   0.576   3.327 -1.6531  1.6751  0.9631
  625DG     H1614368   0.735   0.708   3.405  1.5589  0.2854 -0.9372
  625DG     C1714369   0.979   0.978   3.406  0.8870  0.2931 -0.6530
  625DG     C1814370   0.918   0.755   3.353  0.5435  0.3186  0.2085
  625DG     O1914371   0.898   0.894   3.331 -0.1116 -0.1817 -0.3597
  625DG     H2014372   1.049   0.928   3.464  0.4230  1.3406 -0.9431
  625DG     H2114373   1.032   1.034   3.330 -3.0051  1.8080  0.6617
  625DG     H2214374   0.935   0.730   3.462  1.7810 -0.1657  3.0858
  625DG     H2314375   0.996   0.722   3.292 -0.5886 -0.0305 -0.8503
  626DG      C114376   0.784   4.618   5.460 -0.5386 -0.5184  0.7382
  626DG      C214377   0.345   4.896   5.992 -0.0725  0.0827  0.6077
  626DG      H314378   0.768   4.723   5.463 -1.6399 -1.8468 -0.6312
  626DG      H414379   0.744   4.573   5.369  3.3011 -0.6252  1.4837
  626DG      H514380   0.886   4.591   5.470 -0.0047 -1.6470  1.4716
  626DG      H614381   0.446   4.913   6.035 -0.5335 -0.1761 -0.3839
  626DG      H714382   0.302   4.985   5.941 -1.8514  2.1810 -1.4048
  626DG      H814383   0.279   4.860   6.078 -2.2200  0.1802  0.1299
  626DG      O914384   0.697   4.575   5.563 -0.4454  0.1803  0.3138
  626DG     O1014385   0.355   4.790   5.890 -1.1343  0.2794  0.6383
  626DG     C1114386   0.561   4.558   5.523 -0.0335  0.5102 -0.1067
  626DG     C1214387   0.398   4.664   5.943  0.1653  0.3111 -0.1001
  626DG     H1314388   0.551   4.507   5.431 -2.1027 -2.1184  1.9513
  626DG     H1414389   0.515   4.653   5.506  0.2018 -0.5817  0.4940
  626DG     H1514390   0.333   4.650   6.029  2.9381  3.0925 -1.1486
  626DG     H1614391   0.495   4.682   5.990 -0.9081 -1.1165  1.8752
  626DG     C1714392   0.483   4.480   5.628 -0.0295 -0.2056  0.1324
  626DG     C1814393   0.388   4.538   5.847  0.5500  0.0317  0.1527
  626DG     O1914394   0.481   4.562   5.748  0.2741 -0.0545  0.7300
  626DG     H2014395   0.527   4.379   5.641 -2.6710 -1.2420  2.3759
  626DG     H2114396   0.380   4.468   5.588 -1.7636  1.3611  1.7725
  626DG     H2214397   0.409   4.449   5.910 -0.9035 -2.9222  0.4991
  626DG     H2314398   0.283   4.522   5.815  0.3713  2.3077  0.9530
  627DG      C114399   5.439   1.011   2.749  0.0991  0.2165  0.6306
  627DG      C214400   5.586   0.413   2.399 -0.3424  1.0599  0.0563
  627DG      H314401   5.520   1.085   2.732  1.2562  1.0278 -1.7312
  627DG      H414402   5.376   1.050   2.833 -1.5540 -0.0657 -0.6831
  627DG      H514403   5.370   1.007   2.664 -1.0524  1.4961 -0.4638
  627DG      H614404   5.633   0.316   2.381  1.8221  0.1617 -0.8271
  627DG      H714405   5.486   0.410   2.349 -2.3642 -0.6366 -0.2473
  627DG      H814406   5.662   0.475   2.359  0.1627 -0.2417 -2.7719
  627DG      O914407   5.512   0.893   2.786  0.2491  0.8624  0.1162
  627DG     O1014408   5.571   0.419   2.540 -0.0212 -0.4609 -0.2789
  627DG     C1114409   5.432   0.789   2.837  0.3026 -0.2698 -0.2681
  627DG     C1214410   5.689   0.472   2.607  0.8694  0.0393  0.2694
  627DG     H1314411   5.349   0.753   2.775  0.4577 -1.1338  0.1796
  627DG     H1414412   5.383   0.818   2.932  1.6651  3.8945 -0.8569
  627DG     H1514413   5.731   0.561   2.558 -2.2847  1.9573 -0.6199
  627DG     H1614414   5.763   0.385   2.602  1.7530 -1.5553  1.5683
  627DG     C1714415   5.511   0.660   2.857  0.1068 -0.0611 -0.2267
  627DG     C1814416   5.661   0.509   2.751 -0.4501 -0.6775 -0.7490
  627DG     O1914417   5.579   0.620   2.738  0.5558  0.4857 -0.2916
  627DG     H2014418   5.454   0.574   2.889 -0.1827  0.8908  0.7339
  627DG     H2114419   5.589   0.678   2.930 -2.1402  0.3152 -3.5235
  627DG     H2214420   5.634   0.427   2.814 -2.7840  0.7723 -3.7711
  627DG     H2314421   5.756   0.552   2.785  3.9909 -1.4775  1.7464
  628DG      C114422   4.182   4.397   2.510 -0.2517  0.1330 -0.8558
  628DG      C214423   4.237   4.636   3.131 -0.2030 -0.4305  0.1816
  628DG      H314424   4.267   4.339   2.469  1.7785 -2.2093 -2.0311
  628DG      H414425   4.138   4.439   2.422  0.6990  0.5038  0.2068
  628DG      H514426   4.106   4.336   2.557 -1.9665  0.1103  0.0262
  628DG      H614427   4.135   4.639   3.163  1.5842  0.6936  0.9736
  628DG      H714428   4.276   4.530   3.123  2.1347  0.3620 -1.4509
  628DG      H814429   4.297   4.674   3.217  1.3834 -0.8977  1.5744
  628DG      O914430   4.212   4.502   2.601  0.5690  0.1977 -0.3905
  628DG     O1014431   4.247   4.717   3.016  0.2379  0.0513  0.7316
  628DG     C1114432   4.294   4.604   2.541 -0.2020  0.1483  0.4082
  628DG     C1214433   4.382   4.736   2.989  0.2324 -0.3279  0.1432
  628DG     H1314434   4.251   4.644   2.454  0.9188  0.0675  0.5603
  628DG     H1414435   4.391   4.559   2.520  0.3672  2.6931  0.5690
  628DG     H1514436   4.435   4.644   3.012  0.0246 -0.7707  0.5869
  628DG     H1614437   4.438   4.812   3.049  1.4820  0.3674  0.8179
  628DG     C1714438   4.312   4.720   2.642 -0.0450 -0.1291  0.3218
  628DG     C1814439   4.407   4.774   2.853  0.4541  0.0859 -0.7627
  628DG     O1914440   4.339   4.675   2.769  0.5997 -0.5104  0.0475
  628DG     H2014441   4.221   4.781   2.651 -2.6430 -0.0963 -0.0229
  628DG     H2114442   4.393   4.785   2.614  1.3363 -0.9883  4.1693
  628DG     H2214443   4.371   4.874   2.837  0.0896 -1.7215 -0.0914
  628DG     H2314444   4.514   4.769   2.837 -0.5266  0.4456  1.7747
  629DG      C114445   3.438   1.004   0.394  1.0600 -0.3675 -1.0151
  629DG      C214446   3.084   0.398  -0.085 -0.0172  0.4880  0.3491
  629DG      H314447   3.337   1.027   0.413  1.1641  0.4031  0.2089
  629DG      H414448   3.494   1.098   0.407  2.6176  0.6307 -0.5237
  629DG      H514449   3.475   0.921   0.460  0.1152 -1.6934 -1.3847
  629DG      H614450   3.028   0.346  -0.007 -4.0650 -1.1438 -1.9639
  629DG      H714451   3.011   0.451  -0.148  0.5431  3.7384 -1.2377
  629DG      H814452   3.136   0.317  -0.138  0.3706 -1.2742 -0.6182
  629DG      O914453   3.468   0.959   0.263 -0.3357  0.1182  0.2287
  629DG     O1014454   3.163   0.500  -0.035  0.2797  0.5193  0.0105
  629DG     C1114455   3.410   0.830   0.223  0.3496 -0.2966  0.5667
  629DG     C1214456   3.251   0.569  -0.134 -0.1416  0.5239  0.4921
  629DG     H1314457   3.309   0.845   0.243  0.6870 -0.2109 -2.4033
  629DG     H1414458   3.448   0.745   0.285  1.0539 -0.6879  0.0617
  629DG     H1514459   3.197   0.599  -0.218  1.3202  1.7847  1.8373
  629DG     H1614460   3.325   0.496  -0.158  2.0313 -2.5745  0.2164
  629DG     C1714461   3.433   0.812   0.077  0.0524  0.0396 -1.0411
  629DG     C1814462   3.297   0.713  -0.087  0.6055 -0.0592  0.2742
  629DG     O1914463   3.370   0.696   0.035  0.1749  0.3958 -0.6772
  629DG     H2014464   3.533   0.788   0.057 -0.8867 -0.5100 -0.1125
  629DG     H2114465   3.395   0.900   0.026  1.5222 -0.1045  0.1861
  629DG     H2214466   3.365   0.745  -0.165 -0.6155  0.7675  2.0537
  629DG     H2314467   3.216   0.782  -0.085  1.7472 -3.9750 -3.0909
  630DG      C114468   3.933   1.179   1.326  0.2495  0.6750 -0.0541
  630DG      C214469   4.412   1.211   1.667  0.1943 -0.1804 -0.5221
  630DG      H314470   3.924   1.128   1.230  3.6312 -1.8633  3.6615
  630DG      H414471   3.941   1.283   1.311  1.0721 -0.6587  1.3878
  630DG      H514472   3.838   1.172   1.384 -3.6692  3.8431 -0.8122
  630DG      H614473   4.519   1.202   1.675 -0.2134  1.2590 -0.3603
  630DG      H714474   4.392   1.321   1.669 -1.2042  1.3087 -1.2171
  630DG      H814475   4.374   1.183   1.765  0.4671 -1.0504  0.1264
  630DG      O914476   4.030   1.112   1.404 -0.3010  0.1647  0.0706
  630DG     O1014477   4.360   1.123   1.567  0.6215 -0.0802 -0.5524
  630DG     C1114478   4.000   0.975   1.437  0.2426  0.3742 -0.5596
  630DG     C1214479   4.389   0.983   1.602 -0.2961  0.2528  0.2896
  630DG     H1314480   3.973   0.925   1.344 -1.2322 -1.3650 -0.1968
  630DG     H1414481   3.909   0.980   1.492  1.4272 -1.5835 -0.7409
  630DG     H1514482   4.324   0.958   1.688 -0.0351  1.5012  1.2636
  630DG     H1614483   4.500   0.969   1.625  1.1652  2.0013  1.4727
  630DG     C1714484   4.110   0.901   1.508 -0.6184 -0.0891 -1.2880
  630DG     C1814485   4.349   0.873   1.501  0.2962  0.1775 -0.1033
  630DG     O1914486   4.232   0.915   1.431 -0.3279  0.0785  0.1568
  630DG     H2014487   4.088   0.795   1.513  1.6653  0.2350 -0.5007
  630DG     H2114488   4.123   0.926   1.617  1.5553  1.3147 -0.5102
  630DG     H2214489   4.420   0.857   1.418 -1.0341  1.3410 -3.0914
  630DG     H2314490   4.338   0.777   1.552 -1.6238  0.5647 -0.2435
  631DG      C114491   0.342   4.820   5.361  0.2323  0.2120 -0.7635
  631DG      C214492  -0.409   4.589   5.485 -0.0465  0.1640  0.2495
  631DG      H314493   0.306   4.717   5.370  0.1935 -1.5271  0.2953
  631DG      H414494   0.449   4.838   5.392 -0.5155 -1.2821 -0.6516
  631DG      H514495   0.316   4.861   5.260 -0.9415  0.4035 -0.6815
  631DG      H614496  -0.440   4.698   5.493  3.1684  0.6666  1.9608
  631DG      H714497  -0.386   4.554   5.383 -0.7723  0.4475  2.8400
  631DG      H814498  -0.490   4.524   5.529  1.4321  0.4171  1.0740
  631DG      O914499   0.240   4.875   5.447  0.3618  0.0133  0.2033
  631DG     O1014500  -0.295   4.572   5.567  0.3906  0.0191  0.6252
  631DG     C1114501   0.259   4.836   5.584  0.1156 -0.3283 -0.1990
  631DG     C1214502  -0.202   4.679   5.558 -0.6527 -0.4564  0.2729
  631DG     H1314503   0.224   4.923   5.637  3.1599  0.0123 -1.2233
  631DG     H1414504   0.368   4.829   5.612  0.1382 -0.4219  0.2721
  631DG     H1514505  -0.237   4.752   5.626 -1.9037 -0.9445  3.0060
  631DG     H1614506  -0.201   4.721   5.457  3.5732 -2.3663  1.1140
  631DG     C1714507   0.162   4.729   5.637  0.6555  0.5384  0.4239
  631DG     C1814508  -0.056   4.636   5.587  0.7126 -0.7920 -0.4316
  631DG     O1914509   0.026   4.751   5.588  0.3908 -0.1360 -0.7524
  631DG     H2014510   0.152   4.696   5.739 -0.3469 -0.6832  0.2204
  631DG     H2114511   0.200   4.649   5.575  1.0932 -1.6879 -0.5391
  631DG     H2214512  -0.057   4.599   5.691 -1.8877 -1.6400 -1.8909
  631DG     H2314513  -0.013   4.557   5.520 -1.2634  0.6369 -1.3579
  632DG      C114514   1.750   2.529   1.568 -0.3854  0.0021 -0.3983
  632DG      C214515   1.288   2.023   1.531  0.2700  0.2478  0.4143
  632DG      H314516   1.691   2.618   1.579 -0.5530  0.1637 -1.5586
  632DG      H414517   1.752   2.516   1.463  1.5518  0.1610 -0.2867
  632DG      H514518   1.855   2.549   1.590  0.5223 -0.4115  1.7117
  632DG      H614519   1.331   1.986   1.437 -3.6854 -1.0565  1.6932
  632DG      H714520   1.229   1.940   1.573 -2.5392  1.0871  3.8666
  632DG      H814521   1.212   2.098   1.514 -0.0333 -1.2045  3.6503
  632DG      O914522   1.702   2.410   1.635 -0.1960  0.0054  0.2489
  632DG     O1014523   1.388   2.080   1.607  0.0904  0.0245 -0.2323
  632DG     C1114524   1.681   2.404   1.780 -0.3983 -0.0427 -0.0382
  632DG     C1214525   1.344   2.126   1.731  0.4700 -0.0108 -0.5916
  632DG     H1314526   1.603   2.466   1.810  4.1788 -0.3892 -0.1060
  632DG     H1414527   1.772   2.444   1.832 -1.4850  0.7076 -1.3488
  632DG     H1514528   1.325   2.043   1.801 -0.5919 -1.9447 -2.8599
  632DG     H1614529   1.242   2.175   1.718  0.7772 -1.6995  0.8686
  632DG     C1714530   1.658   2.261   1.828  0.5489  0.8334 -0.5283
  632DG     C1814531   1.438   2.233   1.777  0.1038 -0.6134 -0.4916
  632DG     O1914532   1.568   2.182   1.753 -0.6259 -0.1448  0.1147
  632DG     H2014533   1.627   2.255   1.937 -0.6676  1.1794 -0.5685
  632DG     H2114534   1.752   2.215   1.827  0.5259 -0.2624  0.9171
  632DG     H2214535   1.425   2.321   1.726  0.5887  0.4699 -1.2616
  632DG     H2314536   1.424   2.269   1.882 -0.1423 -0.8132  0.5831
  633DG      C114537   0.049   1.010   3.720  0.0208 -0.2593  0.2059
  633DG      C214538   0.403   0.616   3.073  0.4242 -0.5292  0.2790
  633DG      H314539   0.039   1.111   3.688  0.1789  1.3719 -1.7554
  633DG      H414540   0.134   1.008   3.786 -1.9548 -0.7645 -0.6128
  633DG      H514541  -0.044   1.000   3.773  1.8004  0.0717 -0.0717
  633DG      H614542   0.464   0.709   3.071 -0.1491  0.7182  3.8451
  633DG      H714543   0.467   0.538   3.118  0.3176 -0.3841 -1.3791
  633DG      H814544   0.386   0.592   2.969 -1.9243 -2.9751 -1.9429
  633DG      O914545   0.063   0.928   3.607 -0.7983 -0.2218 -0.1176
  633DG     O1014546   0.277   0.627   3.136 -0.9462  0.1715  0.8317
  633DG     C1114547  -0.000   0.799   3.626  0.0824  0.1141 -0.5871
  633DG     C1214548   0.282   0.659   3.272 -0.5976  0.4741 -0.6207
  633DG     H1314549  -0.095   0.812   3.678 -0.6229  2.5005 -2.2267
  633DG     H1414550   0.052   0.750   3.706  1.9069  2.6297  4.2660
  633DG     H1514551   0.318   0.760   3.299 -0.1548  1.0743  2.3642
  633DG     H1614552   0.352   0.598   3.333 -1.1188 -0.6071  0.2071
  633DG     C1714553   0.002   0.716   3.502 -0.4232 -0.3123 -0.0666
  633DG     C1814554   0.134   0.651   3.317 -0.3946  0.1443 -0.4926
  633DG     O1914555   0.131   0.705   3.445  0.0476  0.7052  0.1206
  633DG     H2014556  -0.079   0.745   3.432 -0.4765 -0.9171  0.8511
  633DG     H2114557  -0.023   0.613   3.533  0.5263 -0.7184  1.2434
  633DG     H2214558   0.076   0.706   3.250  2.0375  1.8726 -1.0263
  633DG     H2314559   0.096   0.553   3.315  1.0180  0.8270  1.2335
  634DG      C114560   3.860   0.018   0.131  0.7474  0.1899 -0.5848
  634DG      C214561   3.647  -0.703   0.338 -0.0180 -0.1303 -0.1376
  634DG      H314562   3.775   0.060   0.078  1.7079  0.4100  0.2120
  634DG      H414563   3.932  -0.039   0.066 -0.1401  0.9282 -1.6729
  634DG      H514564   3.926   0.098   0.169  0.8299  2.4280 -0.1399
  634DG      H614565   3.554  -0.707   0.292  0.0239  0.4628 -3.1258
  634DG      H714566   3.710  -0.773   0.277  0.5840 -2.3061  0.0073
  634DG      H814567   3.637  -0.753   0.435  2.3328  0.5920 -1.9646
  634DG      O914568   3.821  -0.059   0.243  0.1234  0.2003  0.5147
  634DG     O1014569   3.696  -0.568   0.351  0.4021  0.5026 -0.1662
  634DG     C1114570   3.940  -0.104   0.312  0.4949 -0.6245  0.3946
  634DG     C1214571   3.826  -0.562   0.426  0.0159  0.3848 -0.0013
  634DG     H1314572   4.004  -0.025   0.365  0.0085  0.6069 -0.1879
  634DG     H1414573   4.006  -0.158   0.247 -3.0138 -1.3680  1.3250
  634DG     H1514574   3.905  -0.602   0.356  0.0628 -2.5164  0.1248
  634DG     H1614575   3.809  -0.623   0.514 -0.6579  0.2578  0.9104
  634DG     C1714576   3.907  -0.204   0.421 -0.0173 -0.1987  0.0601
  634DG     C1814577   3.849  -0.418   0.469 -0.3257 -0.4226 -0.8609
  634DG     O1914578   3.851  -0.317   0.365 -0.3041  0.0549 -0.8663
  634DG     H2014579   3.843  -0.170   0.503  2.1527  0.1727 -0.5565
  634DG     H2114580   3.997  -0.231   0.466  0.3890  0.3124  0.1200
  634DG     H2214581   3.773  -0.396   0.546 -0.0687 -0.4604  3.4016
  634DG     H2314582   3.945  -0.432   0.524 -0.1129  2.5491  1.0138
  635DG      C114583   1.135   4.274   2.429  0.6853 -0.0288 -0.3568
  635DG      C214584   1.537   3.820   2.836  0.8016 -0.3488 -0.1401
  635DG      H314585   1.145   4.382   2.422  0.8365  3.9946  1.4534
  635DG      H414586   1.099   4.242   2.525 -1.0448  0.9973 -1.0220
  635DG      H514587   1.059   4.240   2.356  0.5637  1.0891  2.0269
  635DG      H614588   1.427   3.827   2.858  1.7449  1.1423  1.5522
  635DG      H714589   1.583   3.721   2.858 -0.7491  1.5067 -0.7543
  635DG      H814590   1.584   3.888   2.905 -2.8763  0.1388 -0.5969
  635DG      O914591   1.259   4.212   2.400  0.3988  0.3149 -0.1010
  635DG     O1014592   1.551   3.865   2.700  0.0532 -0.5647  0.2004
  635DG     C1114593   1.265   4.069   2.383  0.7918 -0.6873  0.0968
  635DG     C1214594   1.527   3.756   2.606  0.3042 -0.3384  0.1835
  635DG     H1314595   1.243   4.036   2.283  0.1763  1.0213  1.1839
  635DG     H1414596   1.189   4.011   2.439 -2.8448  1.5184 -2.5269
  635DG     H1514597   1.431   3.713   2.625  0.4439 -0.7296 -2.3213
  635DG     H1614598   1.603   3.676   2.604 -0.7796 -0.2953  0.1956
  635DG     C1714599   1.407   4.016   2.430  0.1088 -0.1035 -0.2596
  635DG     C1814600   1.513   3.814   2.465  0.3802  0.5245 -0.1345
  635DG     O1914601   1.393   3.878   2.431 -0.1411  0.0472 -0.2424
  635DG     H2014602   1.431   4.049   2.532  1.5790  0.4707 -0.9472
  635DG     H2114603   1.484   4.051   2.358  0.0401 -1.3495 -0.5161
  635DG     H2214604   1.592   3.891   2.440 -1.0249 -1.2454 -0.1778
  635DG     H2314605   1.519   3.735   2.394 -0.0096  1.0008 -0.5815
  636DG      C114606   5.207   3.959   5.232  0.7761  0.6650  0.1311
  636DG      C214607   4.569   4.048   5.157 -0.1114  0.0583 -0.0627
  636DG      H314608   5.219   3.855   5.225  1.3527 -0.7830  0.0501
  636DG      H414609   5.161   3.987   5.332 -3.2708  1.0752 -2.3732
  636DG      H514610   5.294   4.009   5.208 -1.6116  1.4009 -3.4814
  636DG      H614611   4.478   4.059   5.109 -0.5947 -1.6280 -1.6853
  636DG      H714612   4.581   3.958   5.214 -1.6899  2.8388 -2.9177
  636DG      H814613   4.574   4.126   5.229  0.1797 -0.7783  0.4463
  636DG      O914614   5.112   3.986   5.130 -1.0681  0.4695  0.3819
  636DG     O1014615   4.678   4.057   5.067  0.2390 -0.1273 -0.2035
  636DG     C1114616   5.137   3.914   5.001 -0.5772  0.0238  0.3796
  636DG     C1214617   4.679   3.956   4.972 -0.1519 -0.9557  0.4438
  636DG     H1314618   5.120   3.802   5.007  1.5589 -0.9031  0.7030
  636DG     H1414619   5.243   3.926   4.967  3.8226  1.6163  1.8155
  636DG     H1514620   4.593   3.943   4.915 -1.0357 -1.7475  2.9426
  636DG     H1614621   4.698   3.861   5.024 -0.4578 -0.8117 -0.5931
  636DG     C1714622   5.040   3.967   4.891  0.5416  0.1521  0.3749
  636DG     C1814623   4.799   3.980   4.881 -0.7564 -0.8664 -0.4685
  636DG     O1914624   4.912   3.969   4.962  0.4167 -0.1951  0.4670
  636DG     H2014625   5.032   3.885   4.816  0.1434 -0.4955 -1.2994
  636DG     H2114626   5.056   4.062   4.845 -1.9118 -1.6099  1.3791
  636DG     H2214627   4.802   3.902   4.801  1.2459 -0.6211  1.7363
  636DG     H2314628   4.795   4.079   4.830 -2.2437  0.5468  1.5927
  637DG      C114629   4.351   1.810   2.433  0.1112 -0.1459 -0.0039
  637DG      C214630   4.090   2.017   1.887 -0.4461  0.3606 -0.5246
  637DG      H314631   4.438   1.848   2.477  2.2601  0.4231  0.2046
  637DG      H414632   4.366   1.718   2.374  1.2869  2.2049  2.4708
  637DG      H514633   4.272   1.794   2.507  0.7734  1.4014 -0.8752
  637DG      H614634   4.031   1.937   1.837  2.8567  0.3436 -3.0366
  637DG      H714635   4.048   2.035   1.982 -1.6694 -0.3351 -2.1678
  637DG      H814636   4.064   2.106   1.827  2.4347 -1.1407  1.5723
  637DG      O914637   4.307   1.899   2.328  0.4103 -0.4873 -0.0409
  637DG     O1014638   4.225   1.974   1.891  0.1913  0.4170 -0.0486
  637DG     C1114639   4.301   2.033   2.367 -0.7669 -0.4426 -0.1753
  637DG     C1214640   4.317   2.089   1.898 -0.3118  0.2081 -0.6362
  637DG     H1314641   4.406   2.066   2.377  1.0824 -2.3860 -2.1847
  637DG     H1414642   4.242   2.037   2.457  0.5745 -0.3885  0.3514
  637DG     H1514643   4.304   2.158   1.815  0.9852 -0.0435 -0.5281
  637DG     H1614644   4.416   2.052   1.879  2.0320  2.4194 -1.9495
  637DG     C1714645   4.255   2.125   2.253  0.7653 -0.2495  0.5341
  637DG     C1814646   4.311   2.155   2.027  0.2649 -0.3189 -0.6913
  637DG     O1914647   4.304   2.064   2.134  0.4839  0.6722  0.2582
  637DG     H2014648   4.293   2.230   2.280 -0.3530  0.7501  0.7496
  637DG     H2114649   4.141   2.132   2.258  0.1401  1.8426  0.6079
  637DG     H2214650   4.403   2.217   2.047  0.6415  0.6553  0.7854
  637DG     H2314651   4.231   2.224   2.037  1.0522  0.0226  0.3439
  638DG      C114652   5.324   2.227   0.992  0.0312 -0.5768 -0.3060
  638DG      C214653   5.869   2.818   1.112 -0.3964  0.4819 -0.6190
  638DG      H314654   5.224   2.246   1.022  0.7880 -1.4472 -1.6683
  638DG      H414655   5.349   2.121   1.003 -1.0829 -0.8632  0.7767
  638DG      H514656   5.334   2.261   0.883 -0.6773  1.6722 -1.3788
  638DG      H614657   5.970   2.781   1.109  0.4161  1.5051  1.8768
  638DG      H714658   5.844   2.843   1.016  1.0644 -1.8473 -0.5725
  638DG      H814659   5.863   2.906   1.174  2.1308 -1.7578 -1.7011
  638DG      O914660   5.388   2.325   1.070  0.6594  0.2260 -0.8030
  638DG     O1014661   5.786   2.723   1.176  0.1253  0.9563  0.2328
  638DG     C1114662   5.517   2.294   1.107 -0.4825 -0.5695  1.1257
  638DG     C1214663   5.646   2.746   1.160  0.0130 -0.2272  0.5706
  638DG     H1314664   5.575   2.273   1.020 -1.2059 -1.3693  1.0614
  638DG     H1414665   5.522   2.199   1.161  1.1961 -0.3610  0.5037
  638DG     H1514666   5.631   2.757   1.053  0.2121 -0.6222 -1.6253
  638DG     H1614667   5.598   2.829   1.212 -3.7869 -0.2315 -0.9404
  638DG     C1714668   5.589   2.385   1.205  0.4059  0.0647 -0.6161
  638DG     C1814669   5.576   2.622   1.209  0.3061  0.4212  0.3737
  638DG     O1914670   5.623   2.509   1.140 -0.0290  0.3962  0.2660
  638DG     H2014671   5.681   2.342   1.244 -0.4087  0.1046 -2.0983
  638DG     H2114672   5.532   2.393   1.296  0.3081  0.0355  1.0326
  638DG     H2214673   5.604   2.622   1.314 -0.3821  0.7435  3.2244
  638DG     H2314674   5.467   2.632   1.209  1.0710 -0.2852  0.4085
  639DG      C114675   2.419   1.788   1.304 -0.3035 -0.1421  0.2520
  639DG      C214676   2.676   2.347   1.135  0.3343 -0.1705 -0.6144
  639DG      H314677   2.323   1.749   1.284  1.7697  0.4470  1.5219
  639DG      H414678   2.477   1.735   1.383 -0.4706  0.6109 -0.7668
  639DG      H514679   2.489   1.786   1.221  0.0237  1.4835 -1.0773
  639DG      H614680   2.743   2.295   1.070  3.0701  1.9096 -0.7347
  639DG      H714681   2.590   2.370   1.085  1.4448  0.1789 -1.0224
  639DG      H814682   2.708   2.445   1.163  0.7920 -0.9208  0.3294
  639DG      O914683   2.418   1.923   1.348  0.4781  0.0157 -0.2795
  639DG     O1014684   2.649   2.284   1.255  0.3401  0.0098  0.1854
  639DG     C1114685   2.351   1.955   1.466  0.3107  0.4592 -0.2273
  639DG     C1214686   2.575   2.359   1.356 -0.2526 -0.1321 -0.0989
  639DG     H1314687   2.358   1.875   1.545  0.1275 -0.8846 -0.0291
  639DG     H1414688   2.242   1.962   1.437  1.2113 -4.2070  1.4958
  639DG     H1514689   2.483   2.388   1.305  0.5200  2.7910  0.0720
  639DG     H1614690   2.622   2.452   1.400 -1.9663 -0.4595  1.0714
  639DG     C1714691   2.410   2.084   1.524  0.5376 -0.3612 -0.4850
  639DG     C1814692   2.551   2.260   1.469  0.1454 -0.4456 -0.3043
  639DG     O1914693   2.462   2.160   1.421 -0.6330  0.2235  0.0956
  639DG     H2014694   2.491   2.057   1.590  1.5355 -0.0233  4.0222
  639DG     H2114695   2.331   2.135   1.578  1.7385  0.1854  3.3515
  639DG     H2214696   2.638   2.207   1.491 -0.8628  1.3075 -1.1771
  639DG     H2314697   2.508   2.303   1.557  0.1733 -1.4338 -1.7111
  640DG      C114698   4.426   2.458   3.698 -0.2749 -0.5885  0.2832
  640DG      C214699   4.575   2.228   4.237 -0.6014  0.4096  0.2458
  640DG      H314700   4.503   2.396   3.648  2.9526  2.1145 -2.2276
  640DG      H414701   4.396   2.541   3.635 -3.4812 -0.8841 -1.1878
  640DG      H514702   4.334   2.404   3.712  1.1581  0.0350  0.9593
  640DG      H614703   4.485   2.164   4.235 -1.8989 -1.5648 -0.8018
  640DG      H714704   4.661   2.177   4.188  0.3859 -2.0387 -0.7509
  640DG      H814705   4.589   2.218   4.347 -4.1338  0.1983  2.7573
  640DG      O914706   4.464   2.509   3.824 -0.9702 -0.4892 -0.3033
  640DG     O1014707   4.546   2.363   4.202 -0.0324 -0.1477  0.0147
  640DG     C1114708   4.575   2.604   3.803 -0.7701  0.5166 -0.4438
  640DG     C1214709   4.659   2.452   4.225 -0.2544  0.6104 -0.4715
  640DG     H1314710   4.563   2.693   3.744  0.0128 -3.0827  1.5435
  640DG     H1414711   4.664   2.564   3.750  0.3941  2.1434 -0.3240
  640DG     H1514712   4.743   2.403   4.178 -0.7359  0.2210 -3.9100
  640DG     H1614713   4.674   2.462   4.334 -2.2243 -0.2483 -4.2620
  640DG     C1714714   4.621   2.663   3.933 -0.2277 -0.0295  0.7431
  640DG     C1814715   4.658   2.587   4.153 -0.0257 -0.4497 -0.0618
  640DG     O1914716   4.620   2.552   4.020 -0.1062  0.2924 -0.1409
  640DG     H2014717   4.559   2.749   3.975 -0.8785 -0.9030  0.0071
  640DG     H2114718   4.725   2.678   3.927  0.9259 -1.9754 -2.7083
  640DG     H2214719   4.588   2.662   4.194  2.9602  0.0082 -1.6569
  640DG     H2314720   4.751   2.637   4.160  0.2138 -2.3523  1.8511
  641DG      C114721   1.992   4.340   1.385  0.6899 -0.5353  0.2100
  641DG      C214722   2.764   4.472   1.403 -0.5971 -0.1817  0.0359
  641DG      H314723   1.939   4.392   1.306  2.6319  0.0491 -0.2757
  641DG      H414724   2.048   4.415   1.440 -2.1785 -1.0313  1.6264
  641DG      H514725   1.927   4.288   1.456  2.5887 -1.2415 -0.0856
  641DG      H614726   2.753   4.458   1.509 -1.0393  0.9435  2.1235
  641DG      H714727   2.859   4.426   1.387  2.3899 -1.9241  0.7060
  641DG      H814728   2.774   4.575   1.369 -0.7599  0.5881 -2.9398
  641DG      O914729   2.082   4.248   1.324  0.1417  0.1316 -0.0291
  641DG     O1014730   2.680   4.404   1.311  0.1018 -0.1556  0.5963
  641DG     C1114731   2.160   4.304   1.220 -0.7269  0.8084  0.2841
  641DG     C1214732   2.643   4.282   1.366  0.7014  0.5020  0.5535
  641DG     H1314733   2.170   4.414   1.229 -1.3291  1.1242 -0.8719
  641DG     H1414734   2.100   4.294   1.125 -2.0335  3.3206 -1.1660
  641DG     H1514735   2.605   4.295   1.468 -2.2853  1.4213  1.3800
  641DG     H1614736   2.727   4.212   1.367 -1.8844 -0.2807 -2.0371
  641DG     C1714737   2.303   4.241   1.205  0.3212 -0.0695  0.4800
  641DG     C1814738   2.525   4.217   1.286 -0.3058  0.7046  0.8112
  641DG     O1914739   2.397   4.282   1.303  0.2238 -0.5099  0.8642
  641DG     H2014740   2.334   4.264   1.108 -0.6670  0.1461 -0.0793
  641DG     H2114741   2.297   4.138   1.202 -0.4091  0.1810 -0.3257
  641DG     H2214742   2.554   4.215   1.178 -0.2691 -1.5016  1.5066
  641DG     H2314743   2.510   4.112   1.310 -1.4287 -1.2107 -1.5015
  642DG      C114744   0.268   4.881   2.460 -0.3249  0.3248  0.2934
  642DG      C214745  -0.169   4.712   3.025 -0.4235 -0.1111 -0.4438
  642DG      H314746   0.179   4.931   2.443  0.0019  2.1292  0.5253
  642DG      H414747   0.309   4.836   2.370 -3.5690  0.4028 -0.8641
  642DG      H514748   0.343   4.953   2.491  1.0448 -0.4476  1.6561
  642DG      H614749  -0.268   4.739   2.992  3.2606 -2.2407 -0.6416
  642DG      H714750  -0.185   4.661   3.124  4.5066 -1.0026 -0.0848
  642DG      H814751  -0.115   4.806   3.029  0.2336 -1.7656 -0.5540
  642DG      O914752   0.238   4.784   2.556 -0.0683  0.1506 -0.0084
  642DG     O1014753  -0.110   4.627   2.935 -0.5442  0.2011  0.5350
  642DG     C1114754   0.145   4.685   2.503  0.3904  0.1660  0.2388
  642DG     C1214755   0.012   4.572   2.960 -0.2441  0.4442  0.0953
  642DG     H1314756   0.182   4.647   2.408  0.8756 -0.3855 -2.7691
  642DG     H1414757   0.046   4.721   2.491 -0.6980  1.2107  1.0837
  642DG     H1514758   0.005   4.500   3.039  2.3856 -0.1071 -0.5556
  642DG     H1614759   0.077   4.648   2.999  0.6436 -1.8003  2.5358
  642DG     C1714760   0.140   4.561   2.603 -0.1744  0.0831  0.2486
  642DG     C1814761   0.071   4.506   2.831 -0.1144  0.1476 -0.7692
  642DG     O1914762   0.094   4.603   2.727  0.2401  0.1649 -0.0294
  642DG     H2014763   0.241   4.528   2.607 -1.9911  2.2247 -2.1576
  642DG     H2114764   0.082   4.473   2.571  1.7586  2.8092  1.1252
  642DG     H2214765   0.163   4.454   2.871  1.9144 -0.0348  0.7445
  642DG     H2314766   0.004   4.433   2.787 -1.8114 -0.7640  1.9262
  643DG      C114767   3.933   4.992   5.418  0.5841 -0.5566 -0.1664
  643DG      C214768   3.257   5.038   5.337 -0.1263 -0.4597  0.4462
  643DG      H314769   4.025   5.033   5.468  0.7679  0.0924  3.1838
  643DG      H414770   3.935   4.974   5.311  0.7709  1.4599 -0.7823
  643DG      H514771   3.904   4.903   5.469 -1.6139  1.4355 -1.5696
  643DG      H614772   3.227   4.935   5.370  1.1460  2.7016 -0.4666
  643DG      H714773   3.158   5.091   5.329 -2.6489 -0.9926  0.2405
  643DG      H814774   3.289   5.029   5.237 -1.2106  2.6575  2.8250
  643DG      O914775   3.821   5.084   5.443 -0.4224  0.6510  0.2869
  643DG     O1014776   3.358   5.102   5.411  0.1414  0.0223 -0.2761
  643DG     C1114777   3.810   5.134   5.574  0.1269 -0.0638 -0.0572
  643DG     C1214778   3.336   5.129   5.548  0.4591 -0.8432  0.0002
  643DG     H1314779   3.901   5.186   5.605 -0.7328  0.1286 -0.8739
  643DG     H1414780   3.805   5.053   5.648  0.2260  3.3984 -0.2686
  643DG     H1514781   3.331   5.047   5.616  0.5127  2.5917 -0.5065
  643DG     H1614782   3.244   5.183   5.558  0.6641  0.6392 -1.0288
  643DG     C1714783   3.689   5.220   5.591 -0.7989  0.6510 -0.0605
  643DG     C1814784   3.454   5.213   5.601 -0.1925 -0.6898  0.8876
  643DG     O1914785   3.570   5.144   5.563  0.7351 -0.2548 -0.0480
  643DG     H2014786   3.686   5.313   5.526 -3.2514  0.0301 -3.5800
  643DG     H2114787   3.689   5.254   5.693 -0.3841 -1.6615  2.9166
  643DG     H2214788   3.460   5.323   5.581  0.5365  2.4339  0.1974
  643DG     H2314789   3.443   5.220   5.707  3.5011 -0.5940 -0.5690
  644DG      C114790   0.953   3.194   0.902  0.0866  0.7100  0.1507
  644DG      C214791   1.502   3.385   0.383  0.0846  0.3028 -0.0713
  644DG      H314792   0.910   3.114   0.850  1.9411 -0.9900  0.7674
  644DG      H414793   0.890   3.228   0.982  4.2172 -3.1191  0.6984
  644DG      H514794   1.058   3.170   0.934  4.6772  1.6677 -0.5520
  644DG      H614795   1.547   3.474   0.348  2.3838  1.0926 -0.1267
  644DG      H714796   1.555   3.342   0.472 -0.9116 -0.0512  0.6054
  644DG      H814797   1.515   3.313   0.305 -1.6183  0.2448  0.1983
  644DG      O914798   0.960   3.301   0.806 -0.1348 -0.3073 -0.3240
  644DG     O1014799   1.367   3.399   0.413 -0.3318  0.3322  0.1253
  644DG     C1114800   0.979   3.254   0.674 -0.0136  0.7418  0.2991
  644DG     C1214801   1.330   3.503   0.503  0.0418 -1.0039 -0.4059
  644DG     H1314802   0.892   3.205   0.641  0.2034  1.3467 -1.2949
  644DG     H1414803   1.069   3.190   0.669 -2.7946  0.8661 -0.3358
  644DG     H1514804   1.387   3.598   0.477  0.0762  0.1962 -1.7322
  644DG     H1614805   1.382   3.474   0.588  0.3577 -1.1177 -2.8524
  644DG     C1714806   1.003   3.372   0.583  0.4030 -0.4397  0.5523
  644DG     C1814807   1.180   3.522   0.517  0.6472  0.5867 -0.6079
  644DG     O1914808   1.142   3.419   0.600  0.4168 -0.5918 -0.0801
  644DG     H2014809   0.936   3.451   0.618 -1.8006  0.0897  0.1962
  644DG     H2114810   0.989   3.354   0.477 -2.1860  2.3171 -1.0091
  644DG     H2214811   1.151   3.628   0.553 -0.2069  0.5162 -0.2571
  644DG     H2314812   1.133   3.507   0.416  0.8756  0.7541 -1.1809
  645DG      C114813   3.338   2.153   1.745 -0.8974  0.3130  0.4492
  645DG      C214814   3.580   2.837   2.100  0.4587  0.6315  0.1318
  645DG      H314815   3.230   2.173   1.706 -0.6637 -0.0997  0.5979
  645DG      H414816   3.319   2.147   1.852 -1.2473  2.5353 -1.5497
  645DG      H514817   3.379   2.058   1.712 -1.8342  1.3603  0.1348
  645DG      H614818   3.496   2.816   2.168  2.0362  0.5074  1.1248
  645DG      H714819   3.675   2.831   2.159  1.7835 -0.9811 -1.1002
  645DG      H814820   3.566   2.939   2.061 -0.6268  2.0215 -0.8239
  645DG      O914821   3.415   2.264   1.717 -0.3765 -0.0131 -0.4226
  645DG     O1014822   3.553   2.736   2.001  0.1678 -0.1980  0.0547
  645DG     C1114823   3.549   2.262   1.769  0.1430  1.0064 -0.0978
  645DG     C1214824   3.668   2.724   1.920  0.5876 -0.1422 -0.2934
  645DG     H1314825   3.600   2.179   1.727  1.7280  1.7218  1.8796
  645DG     H1414826   3.545   2.259   1.875 -2.9669  2.7760  2.4558
  645DG     H1514827   3.755   2.686   1.972 -0.6622 -1.4561 -2.5606
  645DG     H1614828   3.697   2.818   1.880  1.9629 -2.6606 -0.4893
  645DG     C1714829   3.620   2.396   1.733 -0.1513  0.2658 -0.3803
  645DG     C1814830   3.632   2.629   1.806  0.7193  0.2464 -0.4376
  645DG     O1914831   3.611   2.490   1.842 -0.3367 -0.2680  0.3946
  645DG     H2014832   3.569   2.425   1.648  0.3336 -1.3641  3.1067
  645DG     H2114833   3.730   2.375   1.709  0.9426  0.7228 -0.8642
  645DG     H2214834   3.552   2.670   1.754 -3.3808 -1.4349  0.1859
  645DG     H2314835   3.712   2.631   1.733 -0.9709  0.7017 -0.9048
  646DG      C114836   0.313   4.098   5.023  0.3373 -0.9363  0.6235
  646DG      C214837  -0.127   4.381   4.561 -0.2155  0.5494 -0.0492
  646DG      H314838   0.308   4.001   4.967 -0.3583  0.1020  1.0323
  646DG      H414839   0.256   4.086   5.116 -1.4273  1.0711  2.0454
  646DG      H514840   0.423   4.101   5.047  1.8030 -2.2908  1.4397
  646DG      H614841  -0.111   4.292   4.495  0.9045  1.3635  1.8093
  646DG      H714842  -0.226   4.363   4.609 -0.0557  1.4473  0.9945
  646DG      H814843  -0.148   4.466   4.491  1.2391 -0.9565  1.2537
  646DG      O914844   0.286   4.213   4.938 -0.4081 -0.1416 -0.0408
  646DG     O1014845  -0.019   4.411   4.652 -0.3233 -0.0644  0.0873
  646DG     C1114846   0.292   4.334   5.014 -0.4375 -0.6776  0.1124
  646DG     C1214847  -0.033   4.517   4.747  0.1756 -0.0548  0.1405
  646DG     H1314848   0.393   4.339   5.061  3.4879 -1.9742 -0.9567
  646DG     H1414849   0.207   4.338   5.091 -1.9554 -2.1239 -0.1017
  646DG     H1514850  -0.099   4.497   4.830  1.3047 -1.0547 -0.7712
  646DG     H1614851  -0.067   4.600   4.690  1.7180 -1.7320  0.0445
  646DG     C1714852   0.282   4.440   4.913  0.1134 -0.3667 -1.2852
  646DG     C1814853   0.106   4.553   4.805 -0.3053 -0.0506  0.2548
  646DG     O1914854   0.152   4.432   4.864  0.0613 -0.1173  0.1787
  646DG     H2014855   0.356   4.429   4.830 -1.9371  1.5229 -3.0780
  646DG     H2114856   0.296   4.533   4.968 -0.2114 -0.9060  1.1226
  646DG     H2214857   0.172   4.577   4.730 -3.3415 -2.1067  2.0828
  646DG     H2314858   0.122   4.630   4.878  1.7199  2.0109 -0.4021
  647DG      C114859   0.848   5.469   3.061 -0.5959 -0.5558  0.6290
  647DG      C214860   0.470   5.734   2.979 -0.2692 -0.8034 -0.3492
  647DG      H314861   0.759   5.470   3.122 -0.9032  2.7945  1.4368
  647DG      H414862   0.938   5.454   3.135 -0.8017 -0.0106  2.1310
  647DG      H514863   0.845   5.383   2.996 -0.4998  1.1445  0.3548
  647DG      H614864   0.507   5.830   3.017 -0.1368  0.7947 -0.5444
  647DG      H714865   0.375   5.707   3.015  3.4101  0.7346 -0.7283
  647DG      H814866   0.542   5.658   3.009  0.2087  2.8812  0.3813
  647DG      O914867   0.869   5.586   2.984 -0.2620 -0.5798 -0.2020
  647DG     O1014868   0.467   5.737   2.838 -0.0681 -0.2517  0.1569
  647DG     C1114869   0.835   5.712   3.047 -0.2733 -0.1282 -0.3211
  647DG     C1214870   0.544   5.846   2.781 -0.3290 -0.4504 -0.4477
  647DG     H1314871   0.898   5.728   3.136  0.2783  1.0771 -1.7623
  647DG     H1414872   0.731   5.711   3.080  0.2792 -0.6889  1.4548
  647DG     H1514873   0.521   5.950   2.824 -3.1520  1.1907  3.4812
  647DG     H1614874   0.515   5.852   2.672  0.0356 -0.3862 -1.8196
  647DG     C1714875   0.861   5.825   2.950  0.7141 -0.4352  0.4816
  647DG     C1814876   0.690   5.808   2.778  0.2651 -0.2383  0.0496
  647DG     O1914877   0.743   5.870   2.896  0.1048 -0.5557  0.3453
  647DG     H2014878   0.935   5.800   2.880 -0.9796 -0.2804  0.3378
  647DG     H2114879   0.901   5.915   2.998 -0.1723  1.6691  0.8358
  647DG     H2214880   0.703   5.697   2.764 -2.0304 -0.5283 -1.2587
  647DG     H2314881   0.756   5.852   2.702  1.2705 -0.7814  1.4118
  648DG      C114882   2.774   4.611   3.015 -0.3721  0.1533 -0.0970
  648DG      C214883   2.921   5.113   3.469  0.1569  0.9738  0.6511
  648DG      H314884   2.875   4.577   2.985 -0.4150 -0.2610  3.0807
  648DG      H414885   2.771   4.716   2.971 -1.8243 -1.3670  0.0810
  648DG      H514886   2.703   4.548   2.971  0.6961  0.1604 -2.1191
  648DG      H614887   3.032   5.109   3.490  1.4387  3.2318  2.1236
  648DG      H714888   2.902   5.161   3.374 -2.9730  0.0186 -2.3066
  648DG      H814889   2.889   5.186   3.545 -1.3551 -1.2228 -3.7931
  648DG      O914890   2.765   4.629   3.158  0.1798 -0.1634  0.3628
  648DG     O1014891   2.851   4.988   3.477  0.7402  0.2445  0.3003
  648DG     C1114892   2.631   4.606   3.210  0.2132 -0.2783  1.6980
  648DG     C1214893   2.904   4.889   3.395  0.2801 -0.6556 -0.1922
  648DG     H1314894   2.601   4.505   3.182 -0.1693 -1.3675  0.8862
  648DG     H1414895   2.569   4.677   3.158  1.6629 -1.2041  0.4151
  648DG     H1514896   3.011   4.883   3.404 -0.1399 -1.2843 -2.3018
  648DG     H1614897   2.874   4.925   3.297 -1.2592  2.1655  1.5024
  648DG     C1714898   2.652   4.616   3.357 -0.0384 -0.0145  0.2889
  648DG     C1814899   2.837   4.752   3.417 -0.1886  0.2128  0.0086
  648DG     O1914900   2.694   4.747   3.384  0.1951 -0.4303  0.7441
  648DG     H2014901   2.719   4.534   3.378 -1.0239  2.7969  1.5558
  648DG     H2114902   2.563   4.593   3.408  2.0134  0.4583  1.1488
  648DG     H2214903   2.892   4.678   3.363  1.9796 -0.2020 -2.1102
  648DG     H2314904   2.842   4.735   3.521 -1.0949 -0.3310  2.4257
  649DG      C114905   1.416   2.997   5.471  0.1535  0.5075  0.7256
  649DG      C214906   0.843   2.979   4.805  0.1290 -0.3295 -0.5136
  649DG      H314907   1.463   2.899   5.440  2.5872 -0.4246 -0.5584
  649DG      H414908   1.348   2.971   5.550 -1.7253 -1.1296 -1.0154
  649DG      H514909   1.500   3.049   5.516  1.7035  1.1542  0.0480
  649DG      H614910   0.748   3.032   4.814 -1.7391 -0.4165 -0.1059
  649DG      H714911   0.887   2.986   4.708 -1.0372  1.9753 -0.3913
  649DG      H814912   0.829   2.877   4.830  0.7728 -1.4606  2.8291
  649DG      O914913   1.373   3.061   5.351  0.7769 -0.6805 -0.1027
  649DG     O1014914   0.933   3.034   4.898  0.3721  0.1515  0.3202
  649DG     C1114915   1.256   3.002   5.298 -0.1976  0.6112 -0.3695
  649DG     C1214916   0.878   3.019   5.026  0.9103 -0.2011  0.9869
  649DG     H1314917   1.177   3.004   5.371  0.9626 -0.9467  1.1715
  649DG     H1414918   1.279   2.902   5.259  2.8187  0.5677 -0.4473
  649DG     H1514919   0.872   2.920   5.044 -0.4859  2.0896 -0.2595
  649DG     H1614920   0.783   3.065   5.039  0.8741  1.8023 -3.7747
  649DG     C1714921   1.209   3.095   5.184  0.0760 -0.3130 -0.9190
  649DG     C1814922   0.977   3.077   5.126  0.1866  0.0583  0.6901
  649DG     O1914923   1.111   3.036   5.101  0.2644  0.0646 -0.1115
  649DG     H2014924   1.283   3.137   5.112 -0.7367  0.6674 -0.0307
  649DG     H2114925   1.178   3.186   5.237  2.1771  1.0452 -0.5090
  649DG     H2214926   0.975   3.191   5.123 -1.6735  0.1352  0.9666
  649DG     H2314927   0.955   3.048   5.227 -1.2644  2.2268  0.6816
  650DG      C114928   1.354   5.493   4.797  0.4912  0.2346 -0.0590
  650DG      C214929   1.985   5.702   4.708  0.2081  0.0959 -0.1297
  650DG      H314930   1.247   5.491   4.790  0.8168 -0.6681 -2.6675
  650DG      H414931   1.375   5.485   4.902 -0.1774 -3.2846  0.5222
  650DG      H514932   1.398   5.398   4.753  0.9577 -0.6633 -1.4123
  650DG      H614933   2.002   5.604   4.673  2.3453  4.9336 -0.5000
  650DG      H714934   2.070   5.769   4.684 -0.9534  0.4661  3.0091
  650DG      H814935   1.982   5.693   4.811 -0.3072 -1.7232  0.4034
  650DG      O914936   1.409   5.608   4.748  0.2926 -0.6171 -0.0594
  650DG     O1014937   1.852   5.744   4.679  0.3319  0.4976 -0.2368
  650DG     C1114938   1.383   5.624   4.610  0.2749  0.7763  0.3764
  650DG     C1214939   1.824   5.793   4.546  0.1714 -0.5446  0.1519
  650DG     H1314940   1.277   5.640   4.581 -1.2272  0.6943  0.3412
  650DG     H1414941   1.413   5.525   4.572  1.0648 -1.3786  1.1623
  650DG     H1514942   1.855   5.721   4.477  3.1570  1.0028  1.1842
  650DG     H1614943   1.881   5.887   4.533 -0.0190  3.2478 -0.2760
  650DG     C1714944   1.470   5.739   4.566 -0.0965 -0.2843  1.2175
  650DG     C1814945   1.685   5.840   4.536  0.2142  0.0620  0.7230
  650DG     O1914946   1.610   5.719   4.562  0.2748 -0.0426  1.0136
  650DG     H2014947   1.438   5.823   4.630 -0.6783 -1.8528 -1.9397
  650DG     H2114948   1.452   5.771   4.459  2.2076  1.6923 -1.7590
  650DG     H2214949   1.670   5.899   4.621  0.8800 -0.0749 -0.7954
  650DG     H2314950   1.671   5.887   4.446  1.8343  1.1959  0.6043
  651PF6-    P114951   2.241   4.359   3.276 -0.0979 -0.3893  0.0098
  651PF6-    F214952   2.161   4.438   3.391 -0.0364 -0.1713 -0.1980
  651PF6-    F314953   2.324   4.286   3.164  0.2437 -0.7744 -0.7740
  651PF6-    F414954   2.264   4.496   3.203 -0.1775  0.1470 -0.1291
  651PF6-    F514955   2.216   4.223   3.342 -0.2885 -0.1985 -0.4757
  651PF6-    F614956   2.099   4.344   3.191 -0.3947 -0.0578  0.1270
  651PF6-    F714957   2.376   4.370   3.355 -0.1184  0.3861 -0.4077
  652PF6-    P114958   0.639   3.455   2.241  0.4059  0.6807  0.4633
  652PF6-    F214959   0.597   3.505   2.092 -0.0500 -0.3877  0.0510
  652PF6-    F314960   0.675   3.409   2.390 -0.1967 -0.2943  0.1342
  652PF6-    F414961   0.757   3.362   2.176 -0.0905 -0.1319 -0.0335
  652PF6-    F514962   0.523   3.551   2.301  0.4310 -0.1115  0.0690
  652PF6-    F614963   0.539   3.334   2.241  0.2689 -0.1875  0.3416
  652PF6-    F714964   0.740   3.582   2.244  0.1539 -0.2670 -0.2308
  653PF6-    P114965   3.077   5.165   0.991  0.1550  0.2431 -0.3097
  653PF6-    F214966   3.069   5.305   1.061  0.3017 -0.0966 -0.3415
  653PF6-    F314967   3.095   5.023   0.919  0.4500  0.0629  0.3156
  653PF6-    F414968   3.221   5.204   0.931  0.7187 -0.3553  0.2649
  653PF6-    F514969   2.935   5.134   1.059 -0.2742 -0.1265 -0.7315
  653PF6-    F614970   3.010   5.228   0.862 -0.0328 -0.1381 -0.0630
  653PF6-    F714971   3.153   5.110   1.123 -0.1038  0.2211 -0.7027
  654PF6-    P114972   1.162   2.004   4.269  0.3046  0.0014 -0.1934
  654PF6-    F214973   1.065   1.980   4.145 -0.2707 -0.6802  0.2605
  654PF6-    F314974   1.251   2.029   4.400  0.2765  0.1739 -0.0758
  654PF6-    F414975   1.045   2.088   4.340 -0.2112  0.2422 -0.0125
  654PF6-    F514976   1.280   1.921   4.199 -0.2515  0.2148 -0.2647
  654PF6-    F614977   1.223   2.141   4.209  0.0492 -0.5008 -0.6121
  654PF6-    F714978   1.108   1.869   4.342 -0.4765 -0.2850  0.2607
  655PF6-    P114979   0.470   1.056   5.292 -0.0237 -0.1399 -0.1863
  655PF6-    F214980   0.413   1.020   5.146 -0.3730 -0.0021  0.1539
  655PF6-    F314981   0.522   1.088   5.440  0.3843 -0.2021  0.6174
  655PF6-    F414982   0.323   1.098   5.339  0.3894  0.2513  0.0345
  655PF6-    F514983   0.620   1.021   5.242  0.0153  0.0100 -0.0014
  655PF6-    F614984   0.489   1.208   5.246 -0.0607 -0.0559  0.3040
  655PF6-    F714985   0.449   0.904   5.329 -0.0621 -0.2946  0.2853
  656PF6-    P114986   0.460   0.457   2.135  0.0864  0.2759 -0.0708
  656PF6-    F214987   0.343   0.560   2.160 -0.2665 -0.1864 -0.2489
  656PF6-    F314988   0.575   0.349   2.106 -0.6381 -0.3877 -0.4717
  656PF6-    F414989   0.380   0.398   2.013 -0.2223 -0.2645  0.6533
  656PF6-    F514990   0.538   0.517   2.256 -0.2135  0.1711  0.0948
  656PF6-    F614991   0.384   0.351   2.234  0.4101 -0.1736  0.0259
  656PF6-    F714992   0.530   0.565   2.039  0.0630  0.3592  0.4126
  657PF6-    P114993   2.451   2.844   3.352  0.4554  0.1988  0.0234
  657PF6-    F214994   2.313   2.896   3.293 -0.2575 -0.0036 -0.7323
  657PF6-    F314995   2.592   2.795   3.416  0.1050  0.2996 -0.1090
  657PF6-    F414996   2.409   2.693   3.335 -0.1283 -0.1725 -0.0731
  657PF6-    F514997   2.503   2.996   3.371  0.3923  0.6963  0.4393
  657PF6-    F614998   2.387   2.845   3.498 -0.1954 -0.3212 -0.2668
  657PF6-    F714999   2.516   2.846   3.201 -0.4202 -0.2805 -0.3321
  658PF6-    P115000   1.874   4.576   4.811  0.1408 -0.0544  0.1250
  658PF6-    F215001   1.779   4.694   4.760  0.4435 -0.2078 -0.2127
  658PF6-    F315002   1.968   4.456   4.860  0.0440 -0.6057 -0.8415
  658PF6-    F415003   1.790   4.575   4.951  0.2564 -0.1822 -0.4654
  658PF6-    F515004   1.958   4.581   4.669 -0.0544 -0.6656  0.2450
  658PF6-    F615005   1.967   4.691   4.869 -0.4652  0.4819  0.0030
  658PF6-    F715006   1.776   4.468   4.752 -0.1243 -0.0493  0.4192
  659PF6-    P115007   1.273   1.399   5.111 -0.1478  0.1911 -0.1974
  659PF6-    F215008   1.171   1.438   5.229  0.1948 -0.7406  0.6391
  659PF6-    F315009   1.363   1.369   4.984  0.2364 -0.6341  0.1686
  659PF6-    F415010   1.173   1.485   5.018 -0.6220 -0.2133 -0.1060
  659PF6-    F515011   1.365   1.323   5.211 -0.2575  0.1494 -0.2406
  659PF6-    F615012   1.190   1.263   5.087 -0.0986  0.1200 -0.3341
  659PF6-    F715013   1.353   1.530   5.137 -0.3519  0.1182  0.9209
  660PF6-    P115014   3.503   0.594   0.654  0.0368 -0.2099 -0.0504
  660PF6-    F215015   3.467   0.457   0.567  0.0119 -0.5619  0.7202
  660PF6-    F315016   3.541   0.728   0.734  0.5079  0.2255  0.5440
  660PF6-    F415017   3.551   0.500   0.766  0.3774  0.2998  0.0033
  660PF6-    F515018   3.446   0.682   0.532 -0.2968  0.0819 -0.1965
  660PF6-    F615019   3.354   0.594   0.722  0.0588 -0.2010  0.0673
  660PF6-    F715020   3.648   0.593   0.590  0.1000  0.6731 -0.1869
  661PF6-    P115021   4.009   2.531   3.657 -0.8887  0.6660 -0.0539
  661PF6-    F215022   4.133   2.638   3.631  0.8330  0.0837 -0.0640
  661PF6-    F315023   3.893   2.428   3.685  0.4535 -0.1126  0.1739
  661PF6-    F415024   4.101   2.427   3.568 -0.5501  0.8278 -0.1795
  661PF6-    F515025   3.928   2.639   3.747 -0.1010  0.0485 -0.1005
  661PF6-    F615026   3.933   2.583   3.526  0.6813  0.0481  0.0695
  661PF6-    F715027   4.081   2.482   3.785  0.2044 -0.0581  0.2724
  662PF6-    P115028   2.675   1.164   5.416 -0.2510 -0.6531  0.6616
  662PF6-    F215029   2.619   1.064   5.297  0.4294 -0.7135 -0.0264
  662PF6-    F315030   2.729   1.269   5.523 -0.3314  0.5331  0.3693
  662PF6-    F415031   2.826   1.108   5.387 -0.0469 -0.4995  0.2768
  662PF6-    F515032   2.525   1.221   5.445  0.2910 -0.2962 -0.6681
  662PF6-    F615033   2.658   1.056   5.537  0.0032 -0.4584  0.1052
  662PF6-    F715034   2.691   1.275   5.301 -0.1707 -0.7345  0.0125
  663PF6-    P115035   3.662   0.505   3.551  0.3601 -0.0679 -0.0566
  663PF6-    F215036   3.586   0.645   3.565 -0.0884  0.4501 -0.3122
  663PF6-    F315037   3.728   0.361   3.540  0.1901 -0.3776 -0.2137
  663PF6-    F415038   3.585   0.452   3.686  0.0386  0.3359  0.0724
  663PF6-    F515039   3.728   0.554   3.414 -0.3004  0.2831  0.1161
  663PF6-    F615040   3.784   0.560   3.642  0.5212 -0.1082 -0.0463
  663PF6-    F715041   3.541   0.445   3.466 -0.2303 -0.3057  0.3111
  664PF6-    P115042   5.207   2.983   3.170 -0.3547 -0.0973 -0.4498
  664PF6-    F215043   5.117   3.121   3.152  0.2406  0.3412  0.2298
  664PF6-    F315044   5.290   2.846   3.184  0.8810  0.8299  0.3138
  664PF6-    F415045   5.167   2.977   3.329 -0.0323 -0.2505  0.2930
  664PF6-    F515046   5.248   2.988   3.016 -0.4965 -0.0528  0.0513
  664PF6-    F615047   5.339   3.071   3.199  0.2541 -0.0673 -0.1411
  664PF6-    F715048   5.072   2.900   3.133  0.0549 -0.5453  0.1927
  665PF6-    P115049   5.178   4.105   0.537  0.1209 -0.2048  0.5648
  665PF6-    F215050   5.314   4.169   0.588 -0.1747 -0.3003  0.3594
  665PF6-    F315051   5.051   4.029   0.481  0.4947 -0.2528  0.2607
  665PF6-    F415052   5.251   3.963   0.533  0.1136 -0.1221  0.2585
  665PF6-    F515053   5.100   4.245   0.535  0.1680 -0.2621  0.0404
  665PF6-    F615054   5.224   4.128   0.383  0.1476 -0.1493  0.2096
  665PF6-    F715055   5.140   4.072   0.688 -0.1340  0.1587 -0.6287
  666PF6-    P115056   3.728   1.862   1.517  0.2310 -0.4194 -0.1003
  666PF6-    F215057   3.691   2.013   1.536  0.4546 -0.3466  0.2793
  666PF6-    F315058   3.781   1.711   1.494 -0.4816  0.0363  0.3702
  666PF6-    F415059   3.617   1.851   1.404 -0.3959  0.4248  0.3305
  666PF6-    F515060   3.829   1.876   1.644  0.5823 -0.0772 -0.0918
  666PF6-    F615061   3.621   1.816   1.624 -0.1239 -0.6398 -0.2210
  666PF6-    F715062   3.836   1.912   1.410  0.1980  0.5098 -0.2829
  667PF6-    P115063   0.140   5.396   4.302 -0.0179 -0.4175 -0.0087
  667PF6-    F215064   0.100   5.274   4.396  0.0175  0.1354  0.2945
  667PF6-    F315065   0.192   5.511   4.200 -0.1758 -0.6721  0.1613
  667PF6-    F415066   0.149   5.496   4.432 -0.1350  0.4646 -0.2818
  667PF6-    F515067   0.132   5.291   4.179 -0.3265 -0.4371 -0.9561
  667PF6-    F615068  -0.013   5.436   4.282  0.0217 -0.4121 -0.3516
  667PF6-    F715069   0.293   5.353   4.325 -0.3183 -0.0446  0.3888
  668PF6-    P115070   0.110   1.919   1.411  0.3497 -0.3903  0.4239
  668PF6-    F215071   0.217   1.973   1.300  0.0530  0.1169  0.2812
  668PF6-    F315072   0.019   1.851   1.520  0.4545 -0.0129 -0.2216
  668PF6-    F415073   0.019   1.865   1.298  0.0786  0.7708  0.1392
  668PF6-    F515074   0.200   1.978   1.527 -0.8998 -0.3204  0.3334
  668PF6-    F615075   0.025   2.059   1.405  0.3772  0.0719  0.1584
  668PF6-    F715076   0.192   1.782   1.409  0.3180  0.4198 -0.5344
  669PF6-    P115077   3.496   1.588   3.080 -0.4852 -0.3688  0.1226
  669PF6-    F215078   3.453   1.727   3.148  0.7917 -0.6994  0.1935
  669PF6-    F315079   3.548   1.454   3.013 -0.2521  0.2156  0.4864
  669PF6-    F415080   3.567   1.549   3.217  0.1399  0.2646 -0.5597
  669PF6-    F515081   3.421   1.641   2.946  0.0478  0.0875 -0.1848
  669PF6-    F615082   3.633   1.666   3.033  0.0344 -0.0652 -0.0300
  669PF6-    F715083   3.357   1.526   3.129 -0.0045 -0.0686  0.5022
  670PF6-    P115084   1.350   4.773   1.731 -0.0310  0.1653  0.1435
  670PF6-    F215085   1.421   4.902   1.787  0.4986  0.5210  0.4074
  670PF6-    F315086   1.275   4.643   1.685  0.5692 -0.5560  0.0863
  670PF6-    F415087   1.340   4.836   1.583 -0.0369  0.3864 -0.4584
  670PF6-    F515088   1.364   4.714   1.880  0.1740  0.0973 -0.0596
  670PF6-    F615089   1.204   4.835   1.759 -0.1074 -0.1441 -0.6914
  670PF6-    F715090   1.490   4.704   1.694  0.4490 -0.0486  0.5090
  671PF6-    P115091   2.544   0.649   3.269 -0.4807 -0.0786 -0.0807
  671PF6-    F215092   2.595   0.495   3.272 -0.0580  0.5325 -0.5498
  671PF6-    F315093   2.500   0.802   3.266  0.2155 -0.6442 -0.0558
  671PF6-    F415094   2.387   0.612   3.279 -0.6717 -0.3551 -0.1946
  671PF6-    F515095   2.698   0.694   3.271 -0.1920 -0.0094  0.0047
  671PF6-    F615096   2.539   0.643   3.104 -0.1236 -0.4995  0.0231
  671PF6-    F715097   2.553   0.659   3.426  0.0005 -0.0964  0.1569
  672PF6-    P115098   1.508   4.826   2.793  0.6238 -0.5258  0.2061
  672PF6-    F215099   1.388   4.854   2.691  0.0085 -0.2500  0.2349
  672PF6-    F315100   1.628   4.796   2.895 -0.3692  0.4832  0.2921
  672PF6-    F415101   1.587   4.740   2.678 -0.0306 -0.1459 -0.6204
  672PF6-    F515102   1.434   4.907   2.911 -0.7746 -0.2650  0.1701
  672PF6-    F615103   1.428   4.700   2.842 -0.2758  0.1301  0.0832
  672PF6-    F715104   1.579   4.961   2.748 -0.1852 -0.3449  0.0441
  673PF6-    P115105   4.940   3.696   2.060 -0.1392 -0.1838 -0.3584
  673PF6-    F215106   4.820   3.768   1.983  0.4097 -0.0845 -0.4106
  673PF6-    F315107   5.054   3.623   2.145 -0.1585  0.0857 -0.1262
  673PF6-    F415108   4.997   3.835   2.109  0.7049 -0.5311  0.0650
  673PF6-    F515109   4.881   3.557   2.016 -0.1920  0.3039  0.0813
  673PF6-    F615110   5.039   3.694   1.933  0.0138  0.3050  0.4049
  673PF6-    F715111   4.844   3.689   2.189  0.5413  0.1191  0.4469
  674PF6-    P115112   1.569   2.053   2.373 -0.1181 -0.2511  0.1880
  674PF6-    F215113   1.632   2.192   2.427  0.0227 -0.3397  0.1486
  674PF6-    F315114   1.509   1.909   2.323 -0.3150  0.3902 -0.2397
  674PF6-    F415115   1.548   2.118   2.225  0.7110 -0.8210  0.2438
  674PF6-    F515116   1.601   1.990   2.518 -0.1290 -0.3978 -0.0856
  674PF6-    F615117   1.422   2.095   2.423 -0.1847 -0.0137 -0.4443
  674PF6-    F715118   1.718   2.005   2.327  0.0541 -0.2832 -0.5581
  675PF6-    P115119   2.200   2.560   1.511  0.2550 -0.5458 -0.5902
  675PF6-    F215120   2.109   2.431   1.533 -0.0024 -0.5771 -0.0828
  675PF6-    F315121   2.297   2.685   1.492 -1.1091 -0.3204  0.6281
  675PF6-    F415122   2.252   2.498   1.373 -0.2961 -0.0480 -0.0058
  675PF6-    F515123   2.155   2.625   1.653 -0.6290 -0.2743 -0.2221
  675PF6-    F615124   2.314   2.482   1.588 -0.0388  0.0148  0.1302
  675PF6-    F715125   2.076   2.642   1.438  0.0789 -0.5203 -0.1042
  676PF6-    P115126   4.261   3.758   4.946  0.1404  0.3738 -0.2577
  676PF6-    F215127   4.250   3.684   5.091  0.5576  0.1184 -0.2303
  676PF6-    F315128   4.287   3.830   4.804  0.0627 -0.1883 -0.1310
  676PF6-    F415129   4.254   3.617   4.867  0.5030  0.5481  0.2960
  676PF6-    F515130   4.267   3.894   5.027  0.1605 -0.7047  0.0695
  676PF6-    F615131   4.417   3.742   4.950  0.3949  0.3200  0.0532
  676PF6-    F715132   4.099   3.770   4.934  0.0185  0.1532 -0.1350
  677PF6-    P115133   3.926   3.021   1.660 -0.1688 -0.0222 -0.0125
  677PF6-    F215134   3.873   3.181   1.652 -0.3465  0.0936 -0.1345
  677PF6-    F315135   3.965   2.864   1.670  0.2528 -0.1513 -0.0215
  677PF6-    F415136   3.858   3.015   1.805  0.4151 -0.1836 -0.3266
  677PF6-    F515137   3.992   3.035   1.511 -0.5250 -0.5669  0.1571
  677PF6-    F615138   4.065   3.063   1.728  0.6127  0.3969 -0.3620
  677PF6-    F715139   3.783   2.977   1.601  0.6430  0.0054 -0.5413
  678PF6-    P115140   1.956   3.032   0.446  0.0963  0.0926 -0.8480
  678PF6-    F215141   2.089   3.017   0.361 -0.0953  0.3620  0.7400
  678PF6-    F315142   1.820   3.033   0.532  0.1746  0.0639  0.3361
  678PF6-    F415143   1.922   3.174   0.389  0.2530 -0.4437  0.4486
  678PF6-    F515144   1.985   2.880   0.502  0.4626  0.4577  0.7295
  678PF6-    F615145   2.040   3.093   0.570 -0.1918 -0.5451 -0.1737
  678PF6-    F715146   1.871   2.959   0.327  0.0844 -0.2763  0.0991
  679PF6-    P115147   0.334   1.567   2.459 -0.5466  0.1597  0.1060
  679PF6-    F215148   0.460   1.475   2.487  0.3528  0.1296 -0.4484
  679PF6-    F315149   0.208   1.656   2.425 -0.1739  0.2689 -0.3283
  679PF6-    F415150   0.334   1.621   2.611 -0.1882  0.1968 -0.3547
  679PF6-    F515151   0.344   1.513   2.304 -0.0987  0.0330  0.1989
  679PF6-    F615152   0.238   1.447   2.503 -0.3850  0.1162  0.2074
  679PF6-    F715153   0.428   1.690   2.422 -0.3517  0.2903 -0.5018
  680PF6-    P115154   5.373   1.785   4.764  0.2729  0.2052 -0.2309
  680PF6-    F215155   5.462   1.670   4.835  0.3369  0.5364 -0.4924
  680PF6-    F315156   5.288   1.894   4.691 -0.3916 -0.2322 -0.1109
  680PF6-    F415157   5.246   1.756   4.862  0.4138 -0.1928  0.2560
  680PF6-    F515158   5.498   1.822   4.662 -0.1250 -0.4785 -0.0033
  680PF6-    F615159   5.321   1.673   4.662  0.0317  0.2989  0.2655
  680PF6-    F715160   5.433   1.898   4.866  0.4042  0.0997 -0.3180
  681PF6-    P115161   0.630   1.274   1.683  0.2592  0.4371  0.0417
  681PF6-    F215162   0.516   1.169   1.723  0.5819 -0.3065  0.1292
  681PF6-    F315163   0.740   1.382   1.634 -0.8953 -0.2413 -0.1274
  681PF6-    F415164   0.575   1.382   1.795 -0.4701 -0.1229 -0.4861
  681PF6-    F515165   0.684   1.171   1.574  0.4770  0.2296 -0.0164
  681PF6-    F615166   0.535   1.337   1.577 -1.0497  0.0989  0.6306
  681PF6-    F715167   0.725   1.213   1.796 -0.0277  0.6376  0.7234
  682PF6-    P115168   2.800   3.952   0.193 -0.2969 -0.6011 -0.2757
  682PF6-    F215169   2.773   3.796   0.233  0.4693 -0.5137  0.1578
  682PF6-    F315170   2.824   4.100   0.148  0.1470 -0.1478  0.0978
  682PF6-    F415171   2.952   3.929   0.206 -0.1162  0.3645 -0.0843
  682PF6-    F515172   2.641   3.973   0.176  0.2043  0.4925 -0.1538
  682PF6-    F615173   2.797   3.997   0.349  0.3221 -0.6686  0.6226
  682PF6-    F715174   2.809   3.903   0.042  0.5619  0.3087  0.3805
  683PF6-    P115175   1.553   1.676   1.668 -0.0648 -0.1344 -0.0409
  683PF6-    F215176   1.612   1.560   1.564 -0.5124  0.0163 -0.7171
  683PF6-    F315177   1.491   1.776   1.773 -0.1328  0.0069 -0.1842
  683PF6-    F415178   1.612   1.590   1.791  0.1165  0.8410 -0.5126
  683PF6-    F515179   1.494   1.755   1.549 -0.3267 -0.3568  0.7268
  683PF6-    F615180   1.415   1.590   1.677  0.0386  0.0636 -0.1010
  683PF6-    F715181   1.690   1.763   1.657 -0.0327  0.0742 -0.1092
  684PF6-    P115182   1.914   1.331   0.874 -0.1680 -0.1844 -0.1111
  684PF6-    F215183   2.008   1.328   0.754  0.0979  0.5717  0.2701
  684PF6-    F315184   1.818   1.341   1.003  0.7943  0.3598  0.0789
  684PF6-    F415185   1.788   1.287   0.788 -0.0970 -0.4768 -0.0044
  684PF6-    F515186   2.029   1.377   0.969  0.0222  0.3305 -0.2447
  684PF6-    F615187   1.882   1.481   0.850 -0.3177 -0.3926  0.2503
  684PF6-    F715188   1.946   1.174   0.912  0.2951 -0.5374 -0.2091
  685PF6-    P115189   0.552   0.146   5.452  0.0434  0.0461 -0.0698
  685PF6-    F215190   0.621   0.030   5.534 -0.4926  0.7078  0.2723
  685PF6-    F315191   0.485   0.270   5.370 -0.4891  0.1616 -0.1924
  685PF6-    F415192   0.639   0.116   5.320  0.7890 -0.0764 -0.3716
  685PF6-    F515193   0.454   0.177   5.574 -0.1282  0.3321 -0.0417
  685PF6-    F615194   0.657   0.242   5.511 -0.0923 -0.6719  0.2110
  685PF6-    F715195   0.435   0.049   5.394 -0.1079  0.2607 -0.0725
  686PF6-    P115196   4.628   0.825   4.772  0.0313 -0.5721  0.3300
  686PF6-    F215197   4.572   0.970   4.745  0.1723  0.0742 -0.0775
  686PF6-    F315198   4.679   0.675   4.802 -0.0386  0.3215 -0.6223
  686PF6-    F415199   4.589   0.785   4.622  0.3178 -0.4859  0.1190
  686PF6-    F515200   4.659   0.863   4.923  0.2450  0.1111  0.3052
  686PF6-    F615201   4.484   0.783   4.824  0.0400  0.0180 -0.2463
  686PF6-    F715202   4.777   0.876   4.734 -0.1867 -0.0050 -0.4005
  687PF6-    P115203   3.524   1.801   0.045  0.0564 -0.1076 -0.0785
  687PF6-    F215204   3.422   1.689   0.012 -0.0511 -0.6221 -0.1575
  687PF6-    F315205   3.625   1.921   0.081  0.2338  0.0239 -0.6720
  687PF6-    F415206   3.433   1.907  -0.039  0.5369  0.0621  0.0939
  687PF6-    F515207   3.610   1.697   0.132  0.1427  0.0417 -0.8549
  687PF6-    F615208   3.598   1.767  -0.096 -0.2166  0.1104 -0.3322
  687PF6-    F715209   3.439   1.830   0.174  0.6535  0.0831 -0.1846
  688PF6-    P115210   4.382   3.388   3.917  0.2905 -0.2902  0.1272
  688PF6-    F215211   4.269   3.315   3.828  0.6026  0.4008  0.2692
  688PF6-    F315212   4.498   3.467   4.003  0.2249 -0.2898 -0.1451
  688PF6-    F415213   4.265   3.466   4.007 -0.3940  0.3325 -0.1443
  688PF6-    F515214   4.498   3.319   3.832 -0.8084 -0.2522  0.3873
  688PF6-    F615215   4.384   3.513   3.813 -0.0504 -0.1382  0.6570
  688PF6-    F715216   4.389   3.266   4.025  0.4100 -0.1795  0.2615
  689PF6-    P115217   4.323   5.105   5.275  0.2143  0.7479  0.0817
  689PF6-    F215218   4.191   5.193   5.296 -0.4211  0.8003  0.2994
  689PF6-    F315219   4.460   5.031   5.260  0.4242  0.4052 -0.3700
  689PF6-    F415220   4.314   5.070   5.429  0.1379  0.2945  0.1215
  689PF6-    F515221   4.315   5.135   5.115 -0.0762 -0.6238 -0.8374
  689PF6-    F615222   4.403   5.236   5.303 -0.6164  0.3810  0.2292
  689PF6-    F715223   4.225   4.973   5.245 -0.2499  0.2291 -0.2586
  690PF6-    P115224   5.175   0.495   3.100  0.3213 -0.0274 -0.1121
  690PF6-    F215225   5.241   0.419   2.974  0.1549  0.6236 -0.3947
  690PF6-    F315226   5.111   0.577   3.222 -0.3634  0.2722  0.3948
  690PF6-    F415227   5.157   0.352   3.180 -0.3060  0.5525 -0.0816
  690PF6-    F515228   5.194   0.632   3.028  0.1329  0.3781  0.1307
  690PF6-    F615229   5.031   0.479   3.034  0.3361  0.0004  0.1057
  690PF6-    F715230   5.322   0.508   3.171  0.1703  0.1234  0.1092
  691PF6-    P115231   4.625   0.551   0.373 -0.3358 -0.5943  0.0342
  691PF6-    F215232   4.693   0.571   0.514  0.3266 -0.2691  0.1878
  691PF6-    F315233   4.546   0.529   0.231 -0.2281 -0.4563  0.0923
  691PF6-    F415234   4.519   0.664   0.417 -0.5226 -0.7296  0.6295
  691PF6-    F515235   4.729   0.437   0.333  0.1303 -0.7102  0.3864
  691PF6-    F615236   4.528   0.438   0.438  0.3637  0.2819  0.6680
  691PF6-    F715237   4.723   0.658   0.311  0.2782 -0.8658  0.0887
  692PF6-    P115238   5.114   1.030   3.641  0.4276 -0.0941  0.2395
  692PF6-    F215239   4.995   1.131   3.689  0.0067 -0.2060  0.3557
  692PF6-    F315240   5.233   0.943   3.587 -0.3856  0.2521 -0.3587
  692PF6-    F415241   5.145   0.978   3.790 -0.2800  0.2534 -0.0700
  692PF6-    F515242   5.086   1.079   3.492  0.2405 -0.4948  0.5711
  692PF6-    F615243   5.221   1.149   3.661  0.1506 -0.5841  0.0406
  692PF6-    F715244   5.012   0.908   3.626 -0.4213  0.5422  0.1908
  693PF6-    P115245   0.926   3.713   3.786 -0.2952  0.1543  0.2011
  693PF6-    F215246   0.992   3.852   3.752  0.0873 -0.3577  0.3460
  693PF6-    F315247   0.861   3.568   3.815  0.0233  0.0438 -0.1688
  693PF6-    F415248   0.812   3.784   3.874  0.0120 -0.3403 -0.2392
  693PF6-    F515249   1.049   3.642   3.703  0.2878 -0.2640 -0.0422
  693PF6-    F615250   1.011   3.701   3.922 -0.2450  0.2219  0.1081
  693PF6-    F715251   0.844   3.726   3.653  0.2277  0.1720 -0.2110
  694PF6-    P115252   1.757   2.276   0.910  0.0979  0.6919  0.4207
  694PF6-    F215253   1.823   2.212   0.774 -0.3777  0.9938  0.1414
  694PF6-    F315254   1.701   2.335   1.046 -0.2111  0.0724  0.2943
  694PF6-    F415255   1.611   2.264   0.845  0.1783 -0.3177  0.0477
  694PF6-    F515256   1.903   2.292   0.971  0.6011 -0.2424 -0.3313
  694PF6-    F615257   1.759   2.425   0.849  0.6101  0.4238 -0.5404
  694PF6-    F715258   1.752   2.123   0.961 -0.5699 -0.5490 -0.0188
  695PF6-    P115259   2.153   3.454   4.272 -0.0228 -0.3748 -0.2017
  695PF6-    F215260   2.172   3.417   4.428  0.0795  0.0728  0.3035
  695PF6-    F315261   2.139   3.497   4.117  0.0649 -0.4196 -0.1473
  695PF6-    F415262   2.254   3.574   4.293  0.3818 -0.1650  0.1048
  695PF6-    F515263   2.047   3.329   4.249  0.1000 -0.0312  0.5494
  695PF6-    F615264   2.030   3.548   4.306  0.1167  0.6511  0.3462
  695PF6-    F715265   2.277   3.355   4.236 -0.0622  0.2117  0.2240
  696PF6-    P115266   5.032   0.617   5.160  0.1632  0.0059  0.6192
  696PF6-    F215267   5.121   0.708   5.062 -0.4052  0.3781  0.5091
  696PF6-    F315268   4.948   0.529   5.262 -0.0082  0.1353  0.4773
  696PF6-    F415269   4.944   0.748   5.193 -0.4884 -0.3096 -0.4526
  696PF6-    F515270   5.122   0.492   5.125  0.4384 -0.8334  0.1313
  696PF6-    F615271   5.138   0.654   5.276 -0.2426  0.1090 -0.2784
  696PF6-    F715272   4.925   0.572   5.050  0.5544 -0.4086 -0.1662
  697PF6-    P115273   0.492   1.950   3.132  0.4653 -0.3641 -0.3974
  697PF6-    F215274   0.405   2.069   3.069 -0.3795 -0.0337  0.1892
  697PF6-    F315275   0.574   1.829   3.201  0.1949  0.7726  0.2494
  697PF6-    F415276   0.367   1.906   3.217  0.1128 -0.2672  0.7949
  697PF6-    F515277   0.620   1.993   3.049  0.0872 -0.2317  0.6286
  697PF6-    F615278   0.534   2.044   3.259 -0.0616  0.3999  0.2410
  697PF6-    F715279   0.443   1.864   3.012  0.3293 -0.0209  0.1648
  698PF6-    P115280   2.574   3.877   1.040  0.1880 -0.0571  0.3284
  698PF6-    F215281   2.471   3.766   0.977 -0.0676  0.5513  0.4103
  698PF6-    F315282   2.675   3.983   1.104 -0.7531  0.1382  0.2121
  698PF6-    F415283   2.645   3.769   1.140  0.5975  0.1814 -0.0764
  698PF6-    F515284   2.516   3.995   0.945  0.0561  0.1774 -0.1039
  698PF6-    F615285   2.469   3.918   1.159 -0.1114 -0.0530  0.2239
  698PF6-    F715286   2.680   3.848   0.924 -0.3177  0.1692  0.5217
  699PF6-    P115287   0.038   3.496   3.816 -0.1156  0.0285  0.1061
  699PF6-    F215288   0.143   3.617   3.824 -0.2951  0.3400 -0.2298
  699PF6-    F315289  -0.071   3.386   3.794 -0.2906 -0.4651  0.1406
  699PF6-    F415290  -0.073   3.605   3.816  0.1553  0.0405  0.3817
  699PF6-    F515291   0.153   3.383   3.821 -0.1524 -0.4501  0.9037
  699PF6-    F615292   0.022   3.489   3.974 -0.5715 -0.1334  0.6212
  699PF6-    F715293   0.053   3.505   3.658  0.4315 -0.1111  0.1604
  700PF6-    P115294   3.820   3.947   4.181  0.6396 -0.4308  0.2526
  700PF6-    F215295   3.953   3.869   4.222 -0.7840 -0.0468  0.0396
  700PF6-    F315296   3.684   4.023   4.127 -0.3874 -0.1349  0.9442
  700PF6-    F415297   3.868   3.935   4.033 -0.3284 -0.3791  0.5107
  700PF6-    F515298   3.783   3.970   4.335  0.3602 -0.0453  0.1602
  700PF6-    F615299   3.898   4.087   4.196 -0.0928  0.2050 -0.0571
  700PF6-    F715300   3.736   3.806   4.177 -0.0289 -0.2162  0.0082
  701PF6-    P115301   1.826   4.571   1.019 -0.4606 -0.5919  0.2915
  701PF6-    F215302   1.900   4.557   0.875  0.4740  0.2734 -0.3511
  701PF6-    F315303   1.763   4.586   1.160  0.1746 -0.3344  0.1620
  701PF6-    F415304   1.892   4.717   1.028 -0.0489 -0.5153  0.1030
  701PF6-    F515305   1.767   4.421   0.996 -0.0196 -0.3323 -0.5931
  701PF6-    F615306   1.956   4.511   1.087 -0.4274 -0.1065  0.6626
  701PF6-    F715307   1.701   4.632   0.951 -0.7591 -0.1545 -0.1229
  702PF6-    P115308   0.494   2.769   4.602 -0.1706 -0.1143 -0.0229
  702PF6-    F215309   0.467   2.818   4.748 -0.4219  0.2825  0.1350
  702PF6-    F315310   0.518   2.726   4.447 -0.6711  0.0630  0.0364
  702PF6-    F415311   0.649   2.811   4.614 -0.1317  0.1617  0.1900
  702PF6-    F515312   0.342   2.733   4.586 -0.1676 -0.4201  0.2229
  702PF6-    F615313   0.465   2.921   4.561 -0.1663  0.4263 -0.3292
  702PF6-    F715314   0.529   2.621   4.647  0.4266 -0.1344 -0.6369
  703PF6-    P115315   4.722   1.308   1.942 -0.3802  0.4453  0.1579
  703PF6-    F215316   4.564   1.284   1.944  0.3692 -0.5030 -0.2625
  703PF6-    F315317   4.883   1.325   1.939  0.1867 -0.0259  0.1354
  703PF6-    F415318   4.739   1.150   1.905  0.3293 -0.5496  0.4670
  703PF6-    F515319   4.706   1.468   1.973  0.0085  0.5977  0.0517
  703PF6-    F615320   4.721   1.274   2.098 -0.5646 -0.0577 -0.0167
  703PF6-    F715321   4.717   1.345   1.788  0.1670  0.2463  0.0660
  704PF6-    P115322   0.050   0.795   4.438 -0.1003 -0.2398  0.0667
  704PF6-    F215323   0.028   0.675   4.537  0.1756  0.6224 -0.5985
  704PF6-    F315324   0.083   0.919   4.343 -0.2236  0.1846 -0.0589
  704PF6-    F415325   0.016   0.896   4.553 -0.2083  0.3407 -0.1721
  704PF6-    F515326   0.089   0.705   4.316  0.1778 -0.2044  0.1164
  704PF6-    F615327  -0.109   0.796   4.395 -0.2306  0.1256 -0.1986
  704PF6-    F715328   0.208   0.799   4.483  0.5645  0.1607  0.1851
  705PF6-    P115329   1.100   0.369   3.348  0.1829  0.1828 -0.0851
  705PF6-    F215330   1.137   0.516   3.401 -0.2596  0.1821 -0.1597
  705PF6-    F315331   1.068   0.222   3.287  0.1929 -0.4690  0.2158
  705PF6-    F415332   1.244   0.360   3.284 -0.4435  0.1723 -0.0971
  705PF6-    F515333   0.951   0.378   3.408  0.3585 -0.3730 -0.2055
  705PF6-    F615334   1.047   0.438   3.216  0.2444 -0.0143 -0.0531
  705PF6-    F715335   1.148   0.303   3.483  0.0463  0.4785 -0.5873
  706PF6-    P115336   5.043   3.656   3.115 -0.4707  0.3852 -0.2037
  706PF6-    F215337   5.195   3.615   3.114  0.1445  0.1228  0.4748
  706PF6-    F315338   4.889   3.700   3.124 -0.0872  0.0996 -0.1895
  706PF6-    F415339   5.005   3.534   3.216 -0.7949  0.1647 -0.2168
  706PF6-    F515340   5.070   3.771   3.010 -0.4271  0.0875 -0.4225
  706PF6-    F615341   5.012   3.559   2.993  0.0079  0.2415 -0.9393
  706PF6-    F715342   5.067   3.749   3.237 -0.1933  0.2325  0.3315
  707PF6-    P115343   2.919   3.716   4.426 -0.3047  0.1450  0.0092
  707PF6-    F215344   2.990   3.603   4.506  0.0976 -0.4134 -0.0915
  707PF6-    F315345   2.855   3.836   4.347  0.0155  0.2128 -0.1200
  707PF6-    F415346   3.029   3.695   4.308  0.3880  0.1615 -0.5454
  707PF6-    F515347   2.808   3.736   4.530  0.0672  0.6705  0.3362
  707PF6-    F615348   3.008   3.825   4.503  0.0153  0.1873 -0.1103
  707PF6-    F715349   2.820   3.605   4.352 -0.5718 -0.2984 -0.0097
  708PF6-    P115350   1.767   0.212   1.510 -0.1796 -0.1640 -0.1543
  708PF6-    F215351   1.721   0.187   1.356 -0.2652  0.3769  0.0151
  708PF6-    F315352   1.812   0.235   1.667 -0.2293  0.1124 -0.1444
  708PF6-    F415353   1.675   0.344   1.516 -0.1405  0.5389  0.2830
  708PF6-    F515354   1.855   0.078   1.499 -0.3500  0.2643 -0.7621
  708PF6-    F615355   1.889   0.302   1.457  0.8735  0.1244 -0.4691
  708PF6-    F715356   1.642   0.124   1.566  0.1185  1.0322  0.3705
  709PF6-    P115357   4.344   2.385   0.153  0.3717  0.1418  0.3292
  709PF6-    F215358   4.209   2.469   0.175 -0.1426  0.1121  0.8752
  709PF6-    F315359   4.480   2.304   0.143  0.2503 -0.0532 -0.2244
  709PF6-    F415360   4.386   2.418   0.301 -0.4997  0.3412  0.0914
  709PF6-    F515361   4.306   2.354   0.001 -0.0839 -0.1608  0.3722
  709PF6-    F615362   4.420   2.518   0.100  0.3304  1.1342  0.0495
  709PF6-    F715363   4.264   2.252   0.191  0.0938 -0.1555  0.0217
  710PF6-    P115364   1.242   3.478   1.524 -0.3424  0.3527  0.2259
  710PF6-    F215365   1.285   3.499   1.680  0.1325  0.5332  0.4549
  710PF6-    F315366   1.203   3.450   1.367 -0.3919  0.3134 -0.4912
  710PF6-    F415367   1.348   3.595   1.481 -0.3178 -0.3853 -0.4294
  710PF6-    F515368   1.138   3.368   1.574 -0.4028 -0.4593  0.1051
  710PF6-    F615369   1.126   3.585   1.534 -0.1165 -0.2053 -0.0057
  710PF6-    F715370   1.358   3.366   1.518 -0.0329 -0.1685 -0.1292
  711PF6-    P115371   1.662   0.785   4.453 -0.0923 -0.6485 -0.0647
  711PF6-    F215372   1.622   0.795   4.292  0.5239  0.2805  0.2946
  711PF6-    F315373   1.699   0.780   4.603 -0.4364 -0.4937 -0.3690
  711PF6-    F415374   1.788   0.883   4.425 -0.5261  0.4420  0.1065
  711PF6-    F515375   1.540   0.686   4.476 -0.4404 -0.5033  0.1078
  711PF6-    F615376   1.759   0.657   4.428 -0.1693 -0.5593 -0.2031
  711PF6-    F715377   1.569   0.911   4.489  0.1928  0.0176  0.2141
  712PF6-    P115378   3.557   3.402   2.603 -0.2842  0.3561 -0.2262
  712PF6-    F215379   3.639   3.433   2.466  0.2261  0.2861 -0.4169
  712PF6-    F315380   3.476   3.371   2.738  0.2049  0.1001 -0.0965
  712PF6-    F415381   3.425   3.463   2.544 -0.4786 -0.4484  0.1698
  712PF6-    F515382   3.682   3.341   2.669 -0.2962  0.3125 -0.5166
  712PF6-    F615383   3.600   3.546   2.663  0.0294  0.0179 -0.4151
  712PF6-    F715384   3.512   3.261   2.539 -0.0947  0.0202  0.5691
  713PF6-    P115385   5.365   3.026   1.425 -0.0743 -0.5496 -0.0453
  713PF6-    F215386   5.415   3.014   1.272  0.0656 -0.1082  0.0745
  713PF6-    F315387   5.314   3.041   1.565 -0.3308 -0.1898 -0.3934
  713PF6-    F415388   5.465   3.149   1.439  0.4436 -0.4291  0.4944
  713PF6-    F515389   5.277   2.894   1.397 -0.3286 -0.6506  0.3392
  713PF6-    F615390   5.480   2.935   1.476 -0.3676  0.0158  0.0913
  713PF6-    F715391   5.234   3.113   1.377  0.1105  0.8461  0.4121
  714PF6-    P115392   2.328   2.122   3.987  0.2110  0.2319 -0.1078
  714PF6-    F215393   2.374   2.203   3.851  0.3960 -0.5883  0.3965
  714PF6-    F315394   2.279   2.054   4.128  0.3165 -0.3872  0.3095
  714PF6-    F415395   2.286   2.269   4.051 -0.1232  0.5787 -0.6193
  714PF6-    F515396   2.372   1.985   3.924 -0.2587 -0.0127  0.1682
  714PF6-    F615397   2.478   2.128   4.048 -0.2859 -0.1942  0.2800
  714PF6-    F715398   2.184   2.112   3.923  0.5974 -0.2152  0.2163
  715PF6-    P115399   4.087   0.544   1.822 -0.4774  0.0518 -0.7180
  715PF6-    F215400   4.147   0.402   1.850 -0.6789  0.8713 -0.0311
  715PF6-    F315401   4.030   0.690   1.796 -0.1720  0.1607  0.0032
  715PF6-    F415402   4.189   0.604   1.940  0.3414  0.3297  0.0554
  715PF6-    F515403   3.989   0.480   1.709  0.8194  0.1860  0.0862
  715PF6-    F615404   3.970   0.515   1.932  0.4441  0.2770  0.3026
  715PF6-    F715405   4.203   0.573   1.713 -0.5774 -0.0657  0.0432
  716PF6-    P115406   5.330   5.141   3.392 -0.5469  0.3323 -0.4657
  716PF6-    F215407   5.425   5.076   3.507 -0.0001 -0.7825 -0.1274
  716PF6-    F315408   5.240   5.205   3.281  0.2257 -0.0324 -0.1638
  716PF6-    F415409   5.424   5.272   3.398 -0.0195 -0.0297  0.7944
  716PF6-    F515410   5.245   5.006   3.394  0.3442  0.3138 -0.1423
  716PF6-    F615411   5.234   5.196   3.510 -0.2588 -0.3096  0.0165
  716PF6-    F715412   5.422   5.082   3.274  0.0253  0.0504 -0.1494
  717PF6-    P115413   4.717   1.697   3.419 -0.3057 -0.4657 -0.2900
  717PF6-    F215414   4.788   1.683   3.564  0.4091  0.3514  0.0457
  717PF6-    F315415   4.651   1.706   3.278 -0.4314  0.0794  0.3355
  717PF6-    F415416   4.787   1.840   3.386 -0.1214  0.2228  0.2316
  717PF6-    F515417   4.655   1.549   3.446 -0.4505 -0.1212 -0.2216
  717PF6-    F615418   4.588   1.773   3.483 -0.2708  0.1788  0.1148
  717PF6-    F715419   4.839   1.624   3.356 -0.1304  0.0318 -0.7599
  718PF6-    P115420   0.250   4.112   2.727  0.1794 -0.2889  0.1820
  718PF6-    F215421   0.213   4.266   2.738  0.6534  0.1196 -0.5245
  718PF6-    F315422   0.296   3.955   2.718 -0.2610  0.3153  0.0107
  718PF6-    F415423   0.198   4.083   2.878  0.7509  0.0777 -0.2784
  718PF6-    F515424   0.298   4.134   2.581 -0.2674 -0.1416  0.2173
  718PF6-    F615425   0.393   4.146   2.785 -0.5272  0.1111 -0.1123
  718PF6-    F715426   0.101   4.078   2.670  0.0088 -0.3079 -0.2179
  719PF6-    P115427   5.295   5.121   1.983  0.2854  0.2082 -0.0901
  719PF6-    F215428   5.153   5.081   1.934  0.3028 -0.0964 -0.6960
  719PF6-    F315429   5.440   5.148   2.045  0.0651 -0.5453  0.1058
  719PF6-    F415430   5.327   5.213   1.853 -0.1419 -0.2482  0.3085
  719PF6-    F515431   5.266   5.033   2.112 -0.0264 -0.1440 -0.0296
  719PF6-    F615432   5.357   5.002   1.901  0.4815 -0.2008  0.1756
  719PF6-    F715433   5.243   5.254   2.062 -0.0207  0.3739  0.2558
  720PF6-    P115434   2.086   4.936   4.094 -0.2587 -0.1601 -0.0703
  720PF6-    F215435   2.183   5.055   4.045 -0.0891  0.2464  0.6452
  720PF6-    F315436   1.983   4.815   4.136 -0.1067  0.7337 -0.5788
  720PF6-    F415437   2.115   4.972   4.245  0.4064  0.5488 -0.3821
  720PF6-    F515438   2.064   4.902   3.941  0.3770  0.0113 -0.5201
  720PF6-    F615439   2.206   4.828   4.094  0.6271  0.1773 -0.3850
  720PF6-    F715440   1.965   5.039   4.089 -0.2984 -0.1088  0.0396
  721PF6-    P115441   3.118   2.221   0.770  0.2978  0.0085 -0.3827
  721PF6-    F215442   3.198   2.147   0.654 -0.2187  0.1627 -0.0794
  721PF6-    F315443   3.034   2.286   0.889 -0.1349  0.0203  0.3853
  721PF6-    F415444   2.987   2.146   0.709 -0.0824  0.5496 -0.1920
  721PF6-    F515445   3.251   2.291   0.821 -0.3062 -0.4023  0.9691
  721PF6-    F615446   3.088   2.339   0.669  0.0219 -0.1027 -0.2708
  721PF6-    F715447   3.145   2.107   0.880  0.1969 -0.4470 -0.3247
  722PF6-    P115448   1.787   3.330   2.632  0.1941  0.0092  0.1475
  722PF6-    F215449   1.757   3.404   2.497  0.4718 -0.0085 -0.5300
  722PF6-    F315450   1.814   3.250   2.765 -0.2547  0.3124 -0.0748
  722PF6-    F415451   1.652   3.258   2.618 -0.2056  0.0703 -0.1056
  722PF6-    F515452   1.935   3.404   2.646  0.1858 -0.2394  0.1849
  722PF6-    F615453   1.725   3.455   2.717 -0.1159  0.4458  0.4855
  722PF6-    F715454   1.857   3.208   2.550 -0.4963  0.1953  0.3467
  723PF6-    P115455   3.188   2.785   0.094  0.2042  0.0607 -0.0828
  723PF6-    F215456   3.315   2.877   0.067 -0.0167  0.4309 -0.0302
  723PF6-    F315457   3.053   2.701   0.122  0.3940  0.1930  0.7932
  723PF6-    F415458   3.233   2.681  -0.014 -0.2910  0.0263 -0.0386
  723PF6-    F515459   3.141   2.893   0.208 -0.4535  0.2198  0.3689
  723PF6-    F615460   3.110   2.864  -0.026 -0.6942  0.2123 -0.5538
  723PF6-    F715461   3.276   2.707   0.208  0.2430  0.2650 -0.0721
  724PF6-    P115462   3.233   4.065   1.984 -0.2873  0.7591 -0.2095
  724PF6-    F215463   3.155   3.980   2.096 -0.1695 -0.0020 -0.0372
  724PF6-    F315464   3.316   4.148   1.875  0.4916  0.5966  0.1383
  724PF6-    F415465   3.361   3.968   1.999 -0.5275  0.0310 -0.5706
  724PF6-    F515466   3.110   4.159   1.962  0.4028 -0.0695 -0.1270
  724PF6-    F615467   3.287   4.163   2.095  0.0359 -0.4576 -0.5332
  724PF6-    F715468   3.175   3.964   1.871  0.5532 -0.0104  0.2322
  725PF6-    P115469   4.901   2.227   0.850 -0.1508 -0.2598  0.3593
  725PF6-    F215470   5.014   2.157   0.759 -0.2031  0.4053  0.0848
  725PF6-    F315471   4.786   2.299   0.936  0.5590 -0.2667 -0.7502
  725PF6-    F415472   4.822   2.267   0.713  0.1525 -0.0554 -0.0860
  725PF6-    F515473   4.978   2.185   0.989 -0.2024  0.1695 -0.2549
  725PF6-    F615474   4.985   2.365   0.842  0.6369 -0.1861  0.5334
  725PF6-    F715475   4.817   2.091   0.853 -0.1078  0.1162 -0.2698
  726PF6-    P115476   4.980   4.239   3.892  0.2615 -0.0062 -0.7970
  726PF6-    F215477   5.062   4.100   3.896  0.0698  0.0297  0.0713
  726PF6-    F315478   4.893   4.373   3.890  0.4397  0.1097 -0.1560
  726PF6-    F415479   5.017   4.264   3.740 -0.6385  0.3314 -0.1419
  726PF6-    F515480   4.945   4.224   4.050  0.3562 -0.3549  0.4706
  726PF6-    F615481   5.116   4.322   3.927 -0.3793  0.1715  0.1968
  726PF6-    F715482   4.848   4.163   3.852 -0.5038  0.2795  0.1156
  727PF6-    P115483   2.003   2.332   5.303 -0.0533  0.3311 -0.4041
  727PF6-    F215484   1.846   2.313   5.319 -0.5028  0.0001 -0.1446
  727PF6-    F315485   2.160   2.356   5.296  0.2778  0.3884  0.2613
  727PF6-    F415486   2.011   2.371   5.457 -0.2989 -0.1100 -0.1782
  727PF6-    F515487   2.004   2.291   5.145  0.4624 -0.0329  0.1729
  727PF6-    F615488   1.990   2.488   5.261  0.3150 -0.0114 -0.5039
  727PF6-    F715489   2.032   2.175   5.343  0.1122 -0.1760  0.1878
  728PF6-    P115490   3.418   4.457   4.770 -0.2646 -0.3833 -0.1441
  728PF6-    F215491   3.317   4.526   4.670 -0.1157 -0.1149 -0.0868
  728PF6-    F315492   3.526   4.395   4.873 -0.5702  0.5961 -0.2829
  728PF6-    F415493   3.293   4.462   4.886  0.0301 -0.0647  0.5079
  728PF6-    F515494   3.532   4.458   4.659 -0.1841 -0.6831  0.4144
  728PF6-    F615495   3.469   4.599   4.820 -0.1214 -0.2232  0.0110
  728PF6-    F715496   3.373   4.313   4.733  0.0118 -0.5822 -0.2491
  729PF6-    P115497   1.864   0.898   0.301 -0.4085  0.4676  0.0861
  729PF6-    F215498   1.879   0.746   0.247 -0.1391  0.3641  0.0830
  729PF6-    F315499   1.848   1.051   0.355 -0.4044 -0.1812  0.5541
  729PF6-    F415500   1.958   0.951   0.180  0.2425  0.0556 -0.1992
  729PF6-    F515501   1.779   0.850   0.422  0.1502  0.1879  0.1002
  729PF6-    F615502   1.994   0.880   0.386  0.3622 -0.7578 -0.3162
  729PF6-    F715503   1.731   0.910   0.203  1.3401 -0.1697  0.1980
  730PF6-    P115504   0.930   0.203   4.601  0.1140 -0.6428 -0.0338
  730PF6-    F215505   0.841   0.094   4.538  0.1505  0.1895 -0.3821
  730PF6-    F315506   1.018   0.320   4.670 -0.6017 -0.4970  1.0462
  730PF6-    F415507   0.845   0.193   4.740  0.0349  0.2109  0.0012
  730PF6-    F515508   1.007   0.220   4.464  0.0183 -0.3875 -0.1965
  730PF6-    F615509   0.826   0.311   4.556 -0.8142  0.0938  0.1476
  730PF6-    F715510   1.036   0.093   4.656  0.2673  0.1477  0.1991
  731PF6-    P115511   2.679   5.102   2.044  0.2702  0.6907  0.0266
  731PF6-    F215512   2.806   5.161   1.974 -0.4998 -0.3449  0.5490
  731PF6-    F315513   2.545   5.050   2.118 -0.4476  0.0196 -0.2390
  731PF6-    F415514   2.629   5.251   2.076  0.5782 -0.2808  0.1641
  731PF6-    F515515   2.723   4.948   2.011  0.4025 -0.2693 -0.3773
  731PF6-    F615516   2.751   5.092   2.187 -0.2793 -0.2985 -0.3266
  731PF6-    F715517   2.607   5.101   1.906  0.3498  0.3426 -0.2797
  732PF6-    P115518   0.654   4.768   4.958 -0.3485 -0.1424  0.0978
  732PF6-    F215519   0.734   4.907   4.921  0.5360  0.0178  0.8814
  732PF6-    F315520   0.584   4.628   4.985  0.7492 -0.2568 -0.0681
  732PF6-    F415521   0.765   4.702   4.866 -0.2655  0.1029  0.2723
  732PF6-    F515522   0.541   4.837   5.053  0.0312  0.0639  0.4048
  732PF6-    F615523   0.561   4.782   4.835  0.0870  0.3211 -0.1499
  732PF6-    F715524   0.744   4.756   5.092  0.0363 -0.0424  0.3117
  733PF6-    P115525   1.279   0.597   2.023  0.4420 -0.0136 -0.2148
  733PF6-    F215526   1.315   0.717   2.127 -0.0374  0.7582 -0.1663
  733PF6-    F315527   1.242   0.481   1.918 -0.0617 -0.6368  0.3571
  733PF6-    F415528   1.322   0.489   2.131 -0.1496 -0.1899  0.0838
  733PF6-    F515529   1.237   0.702   1.916 -0.5637 -0.1428 -0.1514
  733PF6-    F615530   1.433   0.601   1.958 -0.8056  0.2304  0.4076
  733PF6-    F715531   1.129   0.604   2.072 -0.0420  0.4093  0.1977
  734PF6-    P115532   2.153   1.246   4.405 -0.0141 -0.2012 -0.3726
  734PF6-    F215533   2.021   1.171   4.350 -0.0087 -0.5199  0.3492
  734PF6-    F315534   2.281   1.329   4.462  0.1883  0.2592 -0.0043
  734PF6-    F415535   2.205   1.280   4.254  0.3575 -0.2712 -0.3381
  734PF6-    F515536   2.107   1.222   4.556  0.0461  0.0710  0.5074
  734PF6-    F615537   2.235   1.115   4.409  0.0171  0.0301  0.3862
  734PF6-    F715538   2.076   1.385   4.404  0.0176 -0.0282  0.2792
  735PF6-    P115539   2.942   5.059   0.287 -0.4640 -0.2584 -0.3982
  735PF6-    F215540   2.788   5.080   0.306 -0.4761 -0.1301 -0.1577
  735PF6-    F315541   3.104   5.040   0.278 -0.0082 -0.3476  0.6952
  735PF6-    F415542   2.960   5.106   0.441  0.1773  0.6118  0.2181
  735PF6-    F515543   2.919   5.021   0.136 -0.4681 -0.1349 -0.0991
  735PF6-    F615544   2.948   5.213   0.247  0.1702 -0.0860  0.4295
  735PF6-    F715545   2.928   4.902   0.331 -0.0629  0.2023 -0.2226
  736PF6-    P115546   3.124   1.814   4.318  0.1413 -0.0505 -0.1677
  736PF6-    F215547   3.250   1.796   4.220 -0.0079  0.6616  0.2345
  736PF6-    F315548   2.997   1.828   4.413  0.0010 -0.3011 -0.3313
  736PF6-    F415549   3.026   1.810   4.191 -0.6697  0.3132  0.5664
  736PF6-    F515550   3.220   1.812   4.448  0.2800  0.3815  0.5029
  736PF6-    F615551   3.139   1.965   4.301  0.0042  0.0963  0.6974
  736PF6-    F715552   3.109   1.655   4.335  0.3170  0.1038  0.2496
  737PF6-    P115553   4.312   2.768   4.724  0.1755  0.1455  0.1806
  737PF6-    F215554   4.419   2.693   4.634 -0.5061  0.0899  0.3973
  737PF6-    F315555   4.209   2.846   4.816  0.0535 -0.0055  0.0785
  737PF6-    F415556   4.334   2.904   4.639 -0.1039  0.9977 -0.4720
  737PF6-    F515557   4.292   2.636   4.811  0.0937  0.1972  0.0203
  737PF6-    F615558   4.426   2.808   4.833  0.1887 -0.3760  0.4958
  737PF6-    F715559   4.193   2.721   4.619 -0.5406 -0.0371  0.2169
  738PF6-    P115560   3.213   0.323   2.438  0.2263 -0.5196 -0.0553
  738PF6-    F215561   3.333   0.331   2.333 -0.0957 -0.7542 -0.1592
  738PF6-    F315562   3.096   0.312   2.548  0.0157 -0.2316 -0.2898
  738PF6-    F415563   3.232   0.169   2.433  0.2600 -0.6777  0.1394
  738PF6-    F515564   3.203   0.484   2.444  0.0744 -0.2773 -0.3959
  738PF6-    F615565   3.106   0.326   2.318  0.0229  0.0932 -0.1453
  738PF6-    F715566   3.327   0.335   2.554 -0.4290  0.1458 -0.1118
  739PF6-    P115567   4.147   1.403   1.001  0.2249 -0.2379  0.2917
  739PF6-    F215568   4.276   1.373   0.912 -0.1937  0.2380  0.1015
  739PF6-    F315569   4.023   1.422   1.093  0.2531 -0.1997  0.3282
  739PF6-    F415570   4.229   1.502   1.094 -0.1727 -0.3606 -0.1584
  739PF6-    F515571   4.066   1.297   0.912  0.0591  0.2328  0.0504
  739PF6-    F615572   4.197   1.285   1.095 -0.0939 -0.0939 -0.2762
  739PF6-    F715573   4.100   1.527   0.905  0.5397 -0.2533  0.4890
  740PF6-    P115574   4.014   1.572   4.749 -0.0587  0.1409  0.3364
  740PF6-    F215575   3.910   1.488   4.835 -0.6808  0.1234 -0.2591
  740PF6-    F315576   4.118   1.659   4.659  0.1994  0.2641 -0.1016
  740PF6-    F415577   4.019   1.460   4.640 -0.1824 -0.1828  0.6236
  740PF6-    F515578   4.014   1.685   4.860 -0.1183 -0.3779  0.2976
  740PF6-    F615579   4.134   1.500   4.817 -0.5883  0.1264 -0.7006
  740PF6-    F715580   3.898   1.647   4.675 -0.8832  0.1584  0.6037
  741PF6-    P115581   1.928   1.383   3.364  0.0192  0.0581 -0.1844
  741PF6-    F215582   1.852   1.377   3.505  0.0509 -0.7482  0.0078
  741PF6-    F315583   2.002   1.397   3.224  0.1959  0.3394 -0.1607
  741PF6-    F415584   1.784   1.402   3.292 -0.3351  0.0981  0.2305
  741PF6-    F515585   2.067   1.366   3.440 -0.3538  0.5951  0.2720
  741PF6-    F615586   1.917   1.226   3.352 -0.0022  0.4724 -0.9092
  741PF6-    F715587   1.938   1.537   3.379 -0.2411  0.4202 -0.0723
  742PF6-    P115588   3.329   4.600   1.003  0.1605  0.7109  0.1939
  742PF6-    F215589   3.382   4.514   1.123 -0.0922  0.4961  0.7141
  742PF6-    F315590   3.277   4.687   0.880  0.5487 -0.5167 -0.0164
  742PF6-    F415591   3.471   4.680   0.997  0.5060  0.2953 -0.3929
  742PF6-    F515592   3.187   4.518   1.012 -0.0131  0.6494  0.1955
  742PF6-    F615593   3.272   4.711   1.108 -0.7460  0.2197  0.0315
  742PF6-    F715594   3.391   4.491   0.899  0.3057 -1.1722  0.2451
  743PF6-    P115595   1.317   2.715   1.945 -0.2240 -0.2009 -0.0975
  743PF6-    F215596   1.309   2.648   2.084  0.3484  0.2487  0.4324
  743PF6-    F315597   1.330   2.789   1.802 -0.1657 -0.2107  0.4830
  743PF6-    F415598   1.468   2.738   1.971  0.0644 -0.2013 -0.4379
  743PF6-    F515599   1.161   2.684   1.922 -0.4110 -0.0888  0.1632
  743PF6-    F615600   1.280   2.856   2.017 -0.5765  0.6448  0.2055
  743PF6-    F715601   1.349   2.571   1.883 -1.1057 -0.5775  0.0031
  744PF6-    P115602   0.174   2.725   2.303 -0.1096  0.3329 -0.2181
  744PF6-    F215603   0.069   2.824   2.373 -0.5081  0.1201 -0.1999
  744PF6-    F315604   0.284   2.634   2.237  0.5224 -0.1552 -0.1542
  744PF6-    F415605   0.153   2.802   2.164 -0.3696 -0.3677 -0.0927
  744PF6-    F515606   0.194   2.647   2.442 -0.0179  0.3341  0.6708
  744PF6-    F615607   0.055   2.622   2.268 -0.1285  0.2731 -0.0299
  744PF6-    F715608   0.298   2.828   2.344 -0.4719 -0.1164  0.1013
  745PF6-    P115609   0.574   4.466   3.538  0.2438 -0.0221 -0.2317
  745PF6-    F215610   0.608   4.330   3.624  0.0592 -0.3137  0.0243
  745PF6-    F315611   0.538   4.595   3.445  0.3697  0.1370 -0.1741
  745PF6-    F415612   0.418   4.423   3.533 -0.5347  0.3015 -0.3313
  745PF6-    F515613   0.724   4.513   3.549 -0.0730  0.3069 -0.5196
  745PF6-    F615614   0.600   4.382   3.400  0.4186  0.1110  0.0704
  745PF6-    F715615   0.550   4.552   3.671  0.5107  0.2553  0.1479
  746PF6-    P115616   4.981   3.569   4.573  0.2656  0.3299 -0.2441
  746PF6-    F215617   4.946   3.569   4.418  0.1237  1.2505 -0.2593
  746PF6-    F315618   5.021   3.575   4.727 -0.2974  0.1611  0.0040
  746PF6-    F415619   4.996   3.723   4.555  0.2669  0.1508  0.2309
  746PF6-    F515620   4.958   3.416   4.575 -0.5753  0.0481 -0.1108
  746PF6-    F615621   5.137   3.550   4.530  0.1584  0.5542 -0.1855
  746PF6-    F715622   4.833   3.588   4.623 -0.0567 -0.8604 -0.0445
  747PF6-    P115623   2.729   1.499   1.094 -0.2257 -0.2047  0.0303
  747PF6-    F215624   2.622   1.402   1.156 -0.7871  0.2077  0.1274
  747PF6-    F315625   2.834   1.600   1.030  0.2663  0.0376  0.1539
  747PF6-    F415626   2.608   1.595   1.053 -1.0493 -0.0511 -0.1119
  747PF6-    F515627   2.842   1.390   1.130 -0.1125 -0.2646  0.3589
  747PF6-    F615628   2.712   1.424   0.951 -0.0168 -0.1044  0.0620
  747PF6-    F715629   2.749   1.574   1.233 -0.1419 -0.3222  0.4223
  748PF6-    P115630   2.510   3.316   2.027  0.0594  0.0642 -0.3081
  748PF6-    F215631   2.510   3.321   1.862 -0.1217 -0.1279  0.1095
  748PF6-    F315632   2.521   3.319   2.186 -0.1630 -0.3699  0.2551
  748PF6-    F415633   2.385   3.411   2.032  0.0289 -0.0261  0.4087
  748PF6-    F515634   2.640   3.219   2.024  0.9217 -0.3806 -0.1968
  748PF6-    F615635   2.608   3.441   2.024  0.0864  0.5500 -0.1425
  748PF6-    F715636   2.415   3.179   2.031 -0.6787  0.2349  0.0906
  749PF6-    P115637   1.183   1.381   3.759 -0.1432 -0.6248  0.0269
  749PF6-    F215638   1.299   1.405   3.647 -0.2642 -0.1918 -0.4627
  749PF6-    F315639   1.066   1.341   3.871 -0.4141 -0.2996  0.4176
  749PF6-    F415640   1.162   1.543   3.788  0.0677 -0.0111 -0.0964
  749PF6-    F515641   1.205   1.221   3.739  0.7348  0.5482  0.1617
  749PF6-    F615642   1.292   1.373   3.875  0.2850  0.3214 -0.1122
  749PF6-    F715643   1.074   1.390   3.635 -0.1856 -0.0680  0.1546
  750PF6-    P115644   1.284   3.952   0.355 -0.3674 -0.3337  0.0646
  750PF6-    F215645   1.317   3.826   0.268  0.3142 -0.2494  0.1768
  750PF6-    F315646   1.245   4.084   0.434  0.1478  0.3535 -0.4623
  750PF6-    F415647   1.431   4.020   0.310 -0.1935 -0.0542  0.2116
  750PF6-    F515648   1.149   3.874   0.395  0.4725 -0.0011 -0.0047
  750PF6-    F615649   1.356   3.887   0.479  0.3995  0.1403  0.6150
  750PF6-    F715650   1.221   4.028   0.226  0.3970  0.4958 -0.5545
  751Na+     N115651   4.071   1.079   0.334 -0.3903 -0.1960 -0.1208
  752Na+     N115652   3.394   1.691   1.294 -0.5148 -0.0800 -0.0834
  753Na+     N115653   5.206   3.477   3.840 -0.4948  0.7083  0.1042
  754Na+     N115654   4.338   2.485   4.031 -0.0853 -0.1682  0.3398
  755Na+     N115655   4.386   0.526   5.470  0.5777  0.0572 -0.0517
  756Na+     N115656   1.639   1.994   1.642  0.4226  0.2755  0.3393
  757Na+     N115657   1.772   0.312   5.195 -0.4819 -0.0493 -0.1795
  758Na+     N115658   3.241   1.473   3.684 -0.0578 -0.4339  0.3077
  759Na+     N115659   3.817   3.985   2.358 -0.6683  0.0869  0.1001
  760Na+     N115660   1.131   2.147   3.628  0.0649  0.1383 -0.1599
  761Na+     N115661   4.464   1.287   3.443 -0.0259  0.2829  0.3272
  762Na+     N115662   2.055   3.237   4.534 -0.4695 -0.2904 -0.2353
  763Na+     N115663   4.421   2.164   4.900 -0.1232 -0.2917 -0.5130
  764Na+     N115664   4.501   3.103   3.389  0.1361 -0.0569 -0.2408
  765Na+     N115665   0.161   4.234   4.721  0.4499  0.3781  0.3342
  766Na+     N115666   2.131   0.858   3.847  0.3303 -0.2026 -0.4804
  767Na+     N115667   2.357   4.872   1.502 -0.1094  0.4397 -0.1199
  768Na+     N115668   4.722   3.295   4.567  0.0689 -0.3617 -0.2310
  769Na+     N115669   4.981   0.662   2.402 -0.0783  0.0816  0.4355
  770Na+     N115670   3.346   3.294   1.906  0.1297 -0.0906 -0.1371
  771Na+     N115671   3.670   3.338   3.862  0.0988  0.2030  0.2933
  772Na+     N115672   1.465   3.816   1.002 -0.0336  0.2620  0.2805
  773Na+     N115673   0.788   4.075   1.734 -0.1418 -0.1320 -0.1556
  774Na+     N115674   5.432   1.283   1.772 -0.0543  0.4870  0.1072
  775Na+     N115675   2.491   2.109   1.196  0.2880 -0.0452  0.0746
  776Na+     N115676   4.268   2.063   0.863  0.7506  0.0982  0.1414
  777Na+     N115677   4.235   1.824   2.101 -0.3237 -0.1777  0.3206
  778Na+     N115678   3.578   2.752   0.719 -0.1747  0.3716 -0.0552
  779Na+     N115679   0.389   3.829   3.409 -0.6964 -0.3693  0.2619
  780Na+     N115680   0.175   0.746   0.252 -0.4750 -0.1167 -0.3037
  781Na+     N115681   5.036   1.241   4.192  0.0327  0.3765  0.1072
  782Na+     N115682   2.442   3.412   2.906  0.1751  0.0147 -0.0584
  783Na+     N115683   0.622   3.000   1.771 -0.3952  0.2014  0.2670
  784Na+     N115684   0.494   3.240   4.233 -0.1162 -0.3748 -0.5449
  785Na+     N115685   2.195   1.176   1.567  0.3455 -0.1969  0.4253
  786Na+     N115686   1.867   1.732   0.402 -0.1617  0.5522 -0.2808
  787Na+     N115687   3.608   5.033   5.349  0.5009 -0.4366 -0.4540
  788Na+     N115688   2.779   3.991   4.540  0.2828 -0.1228 -0.4149
  789Na+     N115689   2.097   1.376   5.199  0.3856 -0.1549 -0.1626
  790Na+     N115690   0.795   1.112   2.051  0.0304 -0.1001  0.0155
  791Na+     N115691   1.449   5.064   1.498  0.3802 -0.1113 -0.7509
  792Na+     N115692   5.352   0.279   3.817  0.1410 -0.2978  0.0762
  793Na+     N115693   1.542   2.373   4.727 -0.0294  0.0018 -0.1629
  794Na+     N115694   1.966   4.132   3.926  0.0601 -0.1230 -0.1216
  795Na+     N115695   2.347   2.856   3.745 -0.1718 -0.3925 -0.0627
  796Na+     N115696   3.325   4.936   0.926 -0.4809  0.1680 -0.2741
  797Na+     N115697   0.874   2.808   2.557 -0.2541  0.1445 -0.1297
  798Na+     N115698   5.292   1.803   2.880  0.0484  0.4969  0.4062
  799Na+     N115699   2.601   4.988   3.320  0.1204  0.1841 -0.2097
  800Na+     N115700   3.043   2.280   3.835 -0.0052 -0.0582  0.2331
  801Na+     N115701   2.482   0.873   0.749 -0.4406 -0.1033  0.0884
  802Na+     N115702   4.663   4.387   0.074 -0.1324 -0.4430  0.2693
  803Na+     N115703   2.194   2.734   0.415 -0.2147 -0.7309  0.0514
  804Na+     N115704   5.355   5.365   2.639  0.1444  0.3907  0.5157
  805Na+     N115705   0.309   2.231   4.412  0.2597 -0.2374 -0.1693
  806Na+     N115706   2.885   4.464   0.693 -0.1213  0.0669 -0.3951
  807Na+     N115707   3.304   0.236   0.570 -0.9586  0.2690  0.1887
  808Na+     N115708   0.473   5.011   4.438  0.0500  0.0847 -0.3904
  809Na+     N115709   1.694   0.018   2.320  0.1536  0.6559 -0.2039
  810Na+     N115710   4.307   1.132   1.304 -0.2841 -0.3949  0.3327
  811Na+     N115711   3.139   1.510   0.535 -0.6500 -0.2245 -0.0542
  812Na+     N115712   1.378   3.451   1.960 -0.2098  0.4386  0.8264
  813Na+     N115713   3.607   2.681   4.943  0.0073 -0.5413 -0.4398
  814Na+     N115714   1.085   1.366   4.814 -0.4099 -0.4255 -0.1277
  815Na+     N115715   2.502   1.508   4.230 -0.1621 -0.2007 -0.4412
  816Na+     N115716   0.829   4.738   2.890  0.2661 -0.3019 -0.4093
  817Na+     N115717   4.484   3.973   4.286 -0.2016 -0.2318  0.1049
  818Na+     N115718   0.324   1.323   4.636  0.0093 -0.2127  0.2920
  819Na+     N115719   1.961   3.195   1.568  0.5568 -0.4655  0.2451
  820Na+     N115720   3.472   0.469   2.715  0.6639 -0.1699 -0.4433
  821Na+     N115721   4.951   0.846   4.910 -0.2659  0.1557 -0.1210
  822Na+     N115722   3.262   1.595   5.007  0.6709  0.3177  0.2034
  823Na+     N115723   3.602   3.819   4.620 -0.1999 -0.1336  0.2451
  824Na+     N115724   0.791   1.720   1.245 -0.2224 -0.4184 -0.6391
  825Na+     N115725   0.011   4.771   3.695  0.4315  0.0759  0.0687
  826Na+     N115726   5.031   2.607   1.898 -0.5566  0.4106  0.0635
  827Na+     N115727   1.115   0.724   4.100  0.3108  0.0585  0.3475
  828Na+     N115728   1.341   2.892   0.742 -0.2601  0.0507 -0.1279
  829Na+     N115729   0.291   0.429   4.983  0.0545 -0.2534 -0.1821
  830Na+     N115730   1.844   4.579   2.483 -0.1009  0.1665  0.0723
  831Na+     N115731   1.546   1.381   4.033  0.1491 -0.4292  0.2173
  832Na+     N115732   0.982   1.797   2.299 -0.2458  0.3362 -0.2782
  833Na+     N115733   5.447   2.619   0.512  0.2690  0.2804  0.0925
  834Na+     N115734   4.702   5.446   3.568 -0.7378 -0.1052 -0.0475
  835Na+     N115735   1.274   4.856   3.464  0.0093 -0.1290 -0.2266
  836Na+     N115736   1.094   0.411   1.712 -0.5353 -0.0116  0.1617
  837Na+     N115737   2.325   5.090   4.611 -0.4521  0.1325 -0.0178
  838Na+     N115738   4.863   2.788   0.957 -0.4785 -0.1799  0.2526
  839Na+     N115739   4.530   3.719   1.457  0.6844  0.5604  0.0153
  840Na+     N115740   3.259   3.967   1.324  0.3987  0.3791  0.3756
  841Na+     N115741   0.320   1.231   3.143 -0.1134  0.2180 -0.1450
  842Na+     N115742   2.899   0.235   2.192 -0.8621  0.2430 -0.1083
  843Na+     N115743   2.096   2.509   2.114 -0.1537  0.1962 -0.2658
  844Na+     N115744   0.747   5.107   5.053 -0.1121 -0.0029  0.1000
  845Na+     N115745   2.120   4.419   0.176  0.0874  0.2162 -0.2138
  846Na+     N115746   1.710   1.338   2.826 -0.4631 -0.0622 -0.0196
  847Na+     N115747   5.029   0.013   0.619 -0.1963  0.5856 -0.4121
  848Na+     N115748   0.072   3.365   2.705  0.7809 -0.2572  0.5424
  849Na+     N115749   5.161   3.996   2.633  0.0149 -0.1941  0.6886
  850Na+     N115750   2.537   3.467   0.402 -0.0567 -0.1488 -0.3929
   5.50274   5.50274   5.50274
