DG-PF6-Na           Amber RESP
15750
    1DG      C1    1   1.434   1.780   1.476  0.0966  0.2787 -0.5977
    1DG      C2    2   1.526   1.544   2.214  0.4027  0.0136 -0.6338
    1DG      H3    3   1.410   1.726   1.385 -0.0109 -1.0923  0.2174
    1DG      H4    4   1.456   1.886   1.458  1.6392  0.5553  2.2624
    1DG      H5    5   1.342   1.772   1.534 -1.0940  1.4615 -2.2096
    1DG      H6    6   1.571   1.642   2.226 -1.3585  0.8854 -0.8078
    1DG      H7    7   1.420   1.555   2.237  0.3403 -0.7181 -0.5247
    1DG      H8    8   1.569   1.464   2.275  0.4819  1.0608  0.7258
    1DG      O9    9   1.544   1.723   1.554  0.6801  0.1300 -0.4537
    1DG     O10   10   1.550   1.515   2.076  0.1066 -0.6320 -0.1305
    1DG     C11   11   1.525   1.583   1.576  0.0979 -0.0652  0.2436
    1DG     C12   12   1.696   1.506   2.039  0.2480 -0.5115 -0.1655
    1DG     H13   13   1.532   1.537   1.478  1.7519  1.0322 -0.1949
    1DG     H14   14   1.425   1.558   1.611 -0.0386 -1.3030 -0.9624
    1DG     H15   15   1.736   1.435   2.112 -0.6672  2.2018  3.2438
    1DG     H16   16   1.748   1.594   2.076 -1.3217  0.2694  0.2593
    1DG     C17   17   1.641   1.533   1.667  0.8760  0.1535  0.2909
    1DG     C18   18   1.714   1.473   1.893  0.1382 -0.2970 -0.0499
    1DG     O19   19   1.631   1.557   1.808  0.5795 -0.3517 -0.7181
    1DG     H20   20   1.735   1.570   1.628  0.7910 -0.3999 -0.4595
    1DG     H21   21   1.642   1.426   1.646 -1.0504 -0.4745  2.9198
    1DG     H22   22   1.812   1.473   1.845 -0.8519  0.1556 -2.2137
    1DG     H23   23   1.672   1.372   1.889  0.1574 -0.5370  3.2584
    2DG      C1   24   2.713   3.616   4.182 -0.8112  0.1587 -0.3482
    2DG      C2   25   2.814   3.109   3.959 -0.0085  0.7600 -0.3194
    2DG      H3   26   2.741   3.600   4.078 -1.3605 -3.0033 -0.1117
    2DG      H4   27   2.778   3.550   4.239 -0.9584  1.6568  1.6515
    2DG      H5   28   2.744   3.719   4.197  1.0868  0.0569 -2.8360
    2DG      H6   29   2.830   3.002   3.968 -0.1750  0.7720  0.1507
    2DG      H7   30   2.727   3.133   3.898 -1.6043  0.3316  1.6549
    2DG      H8   31   2.906   3.149   3.918  0.2721  1.0512  0.5598
    2DG      O9   32   2.572   3.597   4.193  0.3099  0.4366  0.5029
    2DG     O10   33   2.800   3.160   4.092 -0.6580 -0.7830  0.6487
    2DG     C11   34   2.536   3.552   4.321 -0.3934 -0.5933 -0.4306
    2DG     C12   35   2.690   3.107   4.161  1.2298 -0.2444  0.6819
    2DG     H13   36   2.428   3.563   4.320 -0.4043 -0.7017 -0.4740
    2DG     H14   37   2.563   3.619   4.402  0.1284  0.2182 -1.2502
    2DG     H15   38   2.714   3.007   4.195 -0.5857 -0.8595  0.2929
    2DG     H16   39   2.600   3.106   4.099  0.9072  0.7976  1.1111
    2DG     C17   40   2.568   3.407   4.357 -0.4594  0.3071 -0.1381
    2DG     C18   41   2.650   3.190   4.284 -0.1194 -0.5706  0.4877
    2DG     O19   42   2.604   3.319   4.245  0.0177  0.2587  0.2456
    2DG     H20   43   2.487   3.367   4.419  0.8579  1.2751  2.3685
    2DG     H21   44   2.657   3.411   4.420  0.1421 -0.2543 -0.9309
    2DG     H22   45   2.576   3.136   4.344  0.0388 -0.0078  1.2089
    2DG     H23   46   2.739   3.205   4.346  0.0447  1.5084 -0.1662
    3DG      C1   47   1.064   5.483   2.926 -0.2313 -0.5094 -0.2924
    3DG      C2   48   1.310   4.834   3.093 -0.0019 -0.4265  0.1431
    3DG      H3   49   0.967   5.439   2.949 -0.2634 -0.3009 -0.0360
    3DG      H4   50   1.103   5.416   2.849 -0.7265  0.6201 -1.5642
    3DG      H5   51   1.039   5.583   2.893 -1.6090 -1.8010 -3.6779
    3DG      H6   52   1.350   4.870   2.998 -0.5959  1.6696  0.6349
    3DG      H7   53   1.362   4.740   3.112  0.2723 -0.4770 -0.7936
    3DG      H8   54   1.207   4.804   3.070  0.1222 -0.8190  0.0949
    3DG      O9   55   1.140   5.480   3.045  0.5325 -0.1532 -0.2751
    3DG     O10   56   1.317   4.930   3.200  0.2349  0.0689  0.4057
    3DG     C11   57   1.159   5.362   3.116  0.4288 -0.5283 -0.4820
    3DG     C12   58   1.437   5.002   3.195  0.0792 -0.7708 -0.5077
    3DG     H13   59   1.071   5.298   3.114 -0.5813  0.7584  0.5622
    3DG     H14   60   1.175   5.393   3.220  0.0439 -0.4029 -0.4544
    3DG     H15   61   1.517   4.941   3.156  1.9721 -0.0478  1.9606
    3DG     H16   62   1.458   5.034   3.297  0.4641  1.4049 -1.2133
    3DG     C17   63   1.293   5.302   3.068  0.0009  0.5863 -0.2564
    3DG     C18   64   1.428   5.125   3.106 -0.6647  0.1442  0.0167
    3DG     O19   65   1.333   5.208   3.164 -0.0095  0.1510  0.2631
    3DG     H20   66   1.367   5.378   3.044  0.1076  0.6920  0.3780
    3DG     H21   67   1.253   5.252   2.980  1.3710 -0.2834 -0.4034
    3DG     H22   68   1.522   5.179   3.097  0.2455 -1.3593  0.3555
    3DG     H23   69   1.399   5.097   3.004  2.8201 -0.9430 -0.7882
    4DG      C1   70   2.167   2.789   0.068 -0.1853 -0.1277  0.1862
    4DG      C2   71   2.831   2.745   0.315 -0.2334 -0.0640  0.3858
    4DG      H3   72   2.133   2.723  -0.011 -0.2215 -1.1752  1.0487
    4DG      H4   73   2.198   2.880   0.017  1.0505  0.3178  1.6343
    4DG      H5   74   2.088   2.800   0.142 -1.1809 -2.0715 -0.5188
    4DG      H6   75   2.890   2.710   0.401 -2.6620 -3.6912  0.8090
    4DG      H7   76   2.865   2.694   0.225 -0.8092  0.0242  0.1140
    4DG      H8   77   2.840   2.853   0.308 -2.3805  0.0656 -1.3964
    4DG      O9   78   2.281   2.727   0.127  0.2749 -0.0473  0.2501
    4DG     O10   79   2.700   2.709   0.343  0.1299  0.3020 -0.0571
    4DG     C11   80   2.262   2.598   0.181 -0.3141  0.6135 -0.2907
    4DG     C12   81   2.699   2.569   0.371  0.2324 -0.8907  0.2429
    4DG     H13   82   2.281   2.532   0.096 -0.1036  0.1042  0.1428
    4DG     H14   83   2.159   2.590   0.216  0.8154  1.7280  3.8893
    4DG     H15   84   2.767   2.533   0.448 -1.3053 -0.7792  1.7118
    4DG     H16   85   2.729   2.520   0.278 -0.8024 -0.1430 -0.5057
    4DG     C17   86   2.339   2.570   0.311  0.0001  0.3680 -0.7175
    4DG     C18   87   2.552   2.544   0.416  0.5718 -0.0985  0.4423
    4DG     O19   88   2.477   2.572   0.295 -0.1684 -0.2675  0.0055
    4DG     H20   89   2.313   2.470   0.345 -1.7008  0.3229 -2.0560
    4DG     H21   90   2.306   2.644   0.384 -1.2197 -0.4953 -0.3670
    4DG     H22   91   2.536   2.439   0.438 -0.4459 -0.0609 -0.0641
    4DG     H23   92   2.515   2.605   0.499 -0.5996 -0.5162  0.2475
    5DG      C1   93   2.290   1.017   1.680 -0.5074  0.4711  1.1523
    5DG      C2   94   2.599   1.718   1.631  0.0661  0.3047  0.6601
    5DG      H3   95   2.211   0.956   1.637  1.1846 -0.7175 -0.4691
    5DG      H4   96   2.255   1.045   1.779 -1.1679  0.5075  0.9105
    5DG      H5   97   2.371   0.945   1.694 -0.6451 -0.0050 -0.3105
    5DG      H6   98   2.493   1.742   1.621  0.0024 -0.1229  0.3030
    5DG      H7   99   2.634   1.760   1.726  1.4713  0.2854  0.1678
    5DG      H8  100   2.654   1.770   1.553 -0.6845 -0.9234 -0.7424
    5DG      O9  101   2.338   1.120   1.586 -0.6857 -0.1635 -0.5995
    5DG     O10  102   2.613   1.575   1.630  0.1118  0.1031 -0.3542
    5DG     C11  103   2.242   1.224   1.583  1.0267  0.4149 -0.3034
    5DG     C12  104   2.542   1.511   1.525 -0.0606 -0.1251  0.3374
    5DG     H13  105   2.138   1.191   1.584  1.8608 -2.5856  1.3128
    5DG     H14  106   2.255   1.274   1.488 -0.4908  1.0620 -0.1865
    5DG     H15  107   2.573   1.407   1.513 -0.8108 -0.4377  1.0902
    5DG     H16  108   2.550   1.562   1.428  0.9885 -0.3360  0.2937
    5DG     C17  109   2.268   1.333   1.692 -0.2308  0.0539 -0.1115
    5DG     C18  110   2.390   1.492   1.565  0.0846 -0.1528 -0.4801
    5DG     O19  111   2.394   1.384   1.667 -0.4858  0.0818  0.4536
    5DG     H20  112   2.259   1.292   1.793 -1.6457 -1.7595 -0.9029
    5DG     H21  113   2.194   1.413   1.687  1.9507  2.2778  0.8909
    5DG     H22  114   2.328   1.574   1.599  0.7302  1.1373 -2.2821
    5DG     H23  115   2.341   1.464   1.471 -0.3678  1.0444 -0.6188
    6DG      C1  116   0.528   3.099   3.597 -0.6739  0.2787  0.2763
    6DG      C2  117  -0.102   2.900   3.268  0.1414  0.8700  0.0672
    6DG      H3  118   0.585   3.120   3.687  0.9081 -0.4704 -0.5232
    6DG      H4  119   0.423   3.095   3.627 -0.3698 -0.9247  1.2240
    6DG      H5  120   0.554   3.175   3.523 -0.9226 -0.8313 -0.9894
    6DG      H6  121  -0.140   2.943   3.175 -2.6637 -0.6082  0.4323
    6DG      H7  122  -0.087   2.794   3.249 -1.2007  0.8105 -0.8268
    6DG      H8  123  -0.190   2.912   3.331 -0.9506  0.6145 -1.3591
    6DG      O9  124   0.567   2.978   3.539  0.0474 -0.1113 -0.3771
    6DG     O10  125   0.009   2.968   3.321 -0.7598  0.2055  0.2012
    6DG     C11  126   0.513   2.946   3.409  0.1806 -0.2853 -0.4215
    6DG     C12  127   0.060   2.909   3.436 -0.2979 -0.4682  0.4087
    6DG     H13  128   0.571   2.870   3.356  0.7023  1.8748 -3.2477
    6DG     H14  129   0.541   3.031   3.346  0.2569  1.4800  1.8712
    6DG     H15  130   0.105   2.814   3.408 -1.6434 -1.1778  0.5498
    6DG     H16  131  -0.018   2.887   3.509 -1.3006  0.0213 -0.4886
    6DG     C17  132   0.369   2.910   3.411  0.1231  0.8098 -0.3458
    6DG     C18  133   0.163   3.005   3.497  0.1736  0.5271  0.2303
    6DG     O19  134   0.274   3.017   3.406  0.0543 -0.7620 -0.1841
    6DG     H20  135   0.354   2.827   3.479  0.2217 -0.2560 -1.5916
    6DG     H21  136   0.334   2.863   3.319 -1.9510  1.3997  0.0890
    6DG     H22  137   0.125   3.107   3.499  0.1283  0.5025  1.2385
    6DG     H23  138   0.197   2.970   3.595  2.1673  0.1901 -0.5394
    7DG      C1  139   2.019   1.713   1.656  0.3016 -0.8369 -0.1531
    7DG      C2  140   2.499   2.327   1.658  0.1953 -0.4444  0.4066
    7DG      H3  141   1.946   1.664   1.720  0.3175 -0.5287  0.1008
    7DG      H4  142   2.075   1.630   1.612 -0.8531 -1.7771  0.1119
    7DG      H5  143   1.973   1.775   1.580  1.0341  0.0956  0.1445
    7DG      H6  144   2.602   2.298   1.641  0.5463  1.5748 -1.2463
    7DG      H7  145   2.461   2.378   1.570  2.7243 -0.7367 -0.9290
    7DG      H8  146   2.523   2.414   1.719  0.4819  0.3339 -0.7936
    7DG      O9  147   2.104   1.798   1.735  0.1352  0.1379 -0.5348
    7DG     O10  148   2.420   2.233   1.731  0.5317 -1.0942  0.4787
    7DG     C11  149   2.043   1.915   1.785  0.2695 -0.2088 -0.0392
    7DG     C12  150   2.429   2.099   1.676  0.4859 -0.8061 -1.0868
    7DG     H13  151   1.949   1.884   1.831 -0.4559  1.1244 -0.5498
    7DG     H14  152   1.997   1.983   1.713 -1.2523 -1.0786  0.0616
    7DG     H15  153   2.533   2.070   1.692  0.3810  0.1114  2.0877
    7DG     H16  154   2.395   2.100   1.573  2.7839 -0.0822 -1.8833
    7DG     C17  155   2.138   1.985   1.877 -0.3289 -0.3791 -0.4988
    7DG     C18  156   2.344   1.994   1.753  0.0814 -0.3732 -0.3664
    7DG     O19  157   2.233   2.059   1.800  0.1554  0.1748 -0.3834
    7DG     H20  158   2.184   1.922   1.954  0.2604 -0.0815 -0.5990
    7DG     H21  159   2.083   2.069   1.919 -0.4466  0.7292 -2.7710
    7DG     H22  160   2.309   1.911   1.692  0.2258 -0.0718 -0.8573
    7DG     H23  161   2.411   1.960   1.832  1.1341  1.9904 -0.1572
    8DG      C1  162   3.880   3.839   4.348 -0.3926 -0.1355  0.1128
    8DG      C2  163   3.491   3.297   4.154 -0.0963 -0.5480 -0.0400
    8DG      H3  164   3.840   3.894   4.262  1.2855  0.4359 -0.3463
    8DG      H4  165   3.974   3.881   4.383 -0.5124 -0.6234  1.0349
    8DG      H5  166   3.802   3.857   4.422 -0.9386  0.7754 -0.6557
    8DG      H6  167   3.458   3.198   4.186 -1.0008 -0.6504 -1.2358
    8DG      H7  168   3.399   3.342   4.118 -0.2610 -0.8645 -0.0168
    8DG      H8  169   3.563   3.286   4.073 -2.0875  1.0202 -2.1432
    8DG      O9  170   3.909   3.704   4.310  0.4567  0.1544  0.0404
    8DG     O10  171   3.546   3.371   4.261  0.3124 -0.3599 -0.1641
    8DG     C11  172   3.938   3.624   4.423 -0.1807 -0.5335 -0.1000
    8DG     C12  173   3.606   3.288   4.360 -0.2100  0.2249 -0.1255
    8DG     H13  174   3.998   3.674   4.498 -0.6616  0.7753 -0.5457
    8DG     H14  175   3.993   3.535   4.393  0.7920 -0.3046  0.9686
    8DG     H15  176   3.682   3.231   4.307 -1.5860 -0.6039 -1.3087
    8DG     H16  177   3.539   3.222   4.415  0.5959  0.4734  1.1882
    8DG     C17  178   3.798   3.580   4.488  0.3013 -0.5359 -0.1334
    8DG     C18  179   3.667   3.379   4.463  0.8730 -0.6427  0.1644
    8DG     O19  180   3.734   3.489   4.397 -0.0730 -0.2925 -0.5855
    8DG     H20  181   3.731   3.657   4.527 -0.9569 -2.3910  1.5065
    8DG     H21  182   3.834   3.533   4.579 -0.4405 -1.2818 -0.2203
    8DG     H22  183   3.592   3.423   4.529  0.1426 -0.9251 -0.4609
    8DG     H23  184   3.733   3.309   4.515 -1.0971 -2.9310 -0.2066
    9DG      C1  185   1.268   3.038   2.333  0.2519  0.1818  0.9930
    9DG      C2  186   1.603   3.111   3.032 -0.1425  0.5775  0.8971
    9DG      H3  187   1.282   2.974   2.246 -0.1357  1.1562  0.1936
    9DG      H4  188   1.342   3.119   2.332  1.2451 -0.6470 -1.5667
    9DG      H5  189   1.175   3.091   2.312  0.6748  0.5970  0.1420
    9DG      H6  190   1.525   3.174   3.076 -0.8599 -1.2814  2.4141
    9DG      H7  191   1.626   3.053   3.121 -1.9012  0.3024  1.2152
    9DG      H8  192   1.685   3.177   3.003 -1.1840  0.9006 -1.6279
    9DG      O9  193   1.264   2.965   2.452 -0.0562  0.2364 -0.3142
    9DG     O10  194   1.563   3.034   2.918  0.7158  0.1161  0.0046
    9DG     C11  195   1.368   2.877   2.472  0.1483  0.0606 -0.2873
    9DG     C12  196   1.449   2.960   2.945 -0.1595 -0.2060 -0.2046
    9DG     H13  197   1.459   2.922   2.432  1.7938 -1.1532  1.9271
    9DG     H14  198   1.341   2.793   2.408 -0.0644 -0.0952  0.0040
    9DG     H15  199   1.377   3.041   2.957 -0.1438  0.2876 -2.8449
    9DG     H16  200   1.469   2.906   3.037 -0.0197  0.9453  0.4510
    9DG     C17  201   1.372   2.823   2.616  0.2835 -0.0704 -0.4858
    9DG     C18  202   1.415   2.863   2.840  0.1008  0.3356 -0.1566
    9DG     O19  203   1.382   2.923   2.716  0.3457 -0.2182  0.6031
    9DG     H20  204   1.453   2.750   2.624 -0.1516 -0.5097  0.0485
    9DG     H21  205   1.296   2.747   2.636  0.3049  0.3081  1.1965
    9DG     H22  206   1.503   2.801   2.824 -1.3350 -1.5806 -1.0310
    9DG     H23  207   1.330   2.801   2.868  0.6887 -0.1951  0.4828
   10DG      C1  208   2.391   3.937   4.233  0.2825  0.7217  0.8570
   10DG      C2  209   2.358   4.675   4.457 -0.5504  0.0504  0.0213
   10DG      H3  210   2.384   3.844   4.177  1.3345  1.8295 -1.2294
   10DG      H4  211   2.426   3.922   4.335 -0.4798  1.9218  1.3092
   10DG      H5  212   2.488   3.972   4.196  0.1018 -0.7403 -1.1787
   10DG      H6  213   2.457   4.705   4.422 -0.1728 -0.6873  0.4389
   10DG      H7  214   2.294   4.759   4.484 -1.9201 -1.2240  0.8794
   10DG      H8  215   2.359   4.612   4.546  0.5299 -1.4901 -1.0454
   10DG      O9  216   2.278   4.026   4.206 -0.1720 -0.4739  0.0869
   10DG     O10  217   2.294   4.606   4.350 -0.0523  0.2685 -0.2180
   10DG     C11  218   2.255   4.124   4.301 -0.5212 -0.7489 -0.1741
   10DG     C12  219   2.156   4.581   4.381 -0.2935  0.0674 -0.2480
   10DG     H13  220   2.349   4.173   4.324 -1.1932  0.0740  0.8832
   10DG     H14  221   2.197   4.081   4.383 -0.8727  1.4150  0.7714
   10DG     H15  222   2.106   4.676   4.365 -0.3245  0.0091 -0.5175
   10DG     H16  223   2.133   4.561   4.485 -3.5165 -0.2560 -0.9039
   10DG     C17  224   2.168   4.234   4.243 -0.3250 -0.5936 -1.4967
   10DG     C18  225   2.114   4.465   4.276 -0.3232 -0.3300 -0.2763
   10DG     O19  226   2.166   4.348   4.329 -0.2840 -0.2284 -0.3870
   10DG     H20  227   2.068   4.193   4.227 -0.3494 -0.1275 -2.5781
   10DG     H21  228   2.208   4.266   4.147  2.8099 -3.7889 -1.4804
   10DG     H22  229   2.005   4.458   4.266 -0.6486  1.6251  1.1907
   10DG     H23  230   2.157   4.491   4.179 -0.0309 -0.3591 -0.1559
   11DG      C1  231   5.412   5.177   3.516  0.1280  0.3487 -0.2603
   11DG      C2  232   4.750   4.935   3.124 -0.1936 -0.5713  0.2394
   11DG      H3  233   5.367   5.112   3.591  1.2278 -1.8596 -1.3885
   11DG      H4  234   5.419   5.274   3.564  0.5417  0.3771 -0.3735
   11DG      H5  235   5.512   5.146   3.486  1.2760  2.0193  1.5745
   11DG      H6  236   4.706   5.029   3.156  0.5977  0.1424 -0.7323
   11DG      H7  237   4.737   4.926   3.016  0.1155  0.7425  0.0768
   11DG      H8  238   4.695   4.849   3.163 -1.2404 -0.0598 -0.0682
   11DG      O9  239   5.315   5.198   3.411 -0.1574 -0.4221  0.3468
   11DG     O10  240   4.892   4.941   3.147 -0.0381 -0.3731  0.7366
   11DG     C11  241   5.316   5.087   3.323  0.0951  0.5210 -0.4210
   11DG     C12  242   4.956   5.014   3.054 -0.2222 -0.4375 -0.2272
   11DG     H13  243   5.284   4.996   3.374  1.8396 -0.4998 -1.0706
   11DG     H14  244   5.417   5.060   3.293  0.5576 -2.5571  3.1642
   11DG     H15  245   4.937   5.116   3.089 -1.0517 -1.4296  2.4606
   11DG     H16  246   4.907   5.012   2.956 -0.1688  0.5715 -0.2934
   11DG     C17  247   5.212   5.116   3.211 -0.5777 -0.1840 -0.7875
   11DG     C18  248   5.102   4.989   3.041 -0.2300 -0.0011  0.0810
   11DG     O19  249   5.169   4.989   3.162 -0.2012 -0.3078  0.4458
   11DG     H20  250   5.266   5.182   3.144 -0.4295 -0.3675 -0.8496
   11DG     H21  251   5.130   5.176   3.252  0.0650 -0.0979  0.4079
   11DG     H22  252   5.115   4.888   3.002 -2.9067 -0.0898 -0.7800
   11DG     H23  253   5.138   5.060   2.966 -1.4373  0.1106 -0.4329
   12DG      C1  254   2.274   3.491   5.656 -0.1282  0.3348 -0.2624
   12DG      C2  255   2.008   3.327   4.954  0.1424 -0.3718  0.4200
   12DG      H3  256   2.214   3.569   5.703  2.3173  1.8392  0.5307
   12DG      H4  257   2.369   3.502   5.707 -0.5208  1.2989  0.2979
   12DG      H5  258   2.249   3.388   5.678  1.8140 -0.0520  0.2901
   12DG      H6  259   1.913   3.331   5.009 -0.5946 -1.9946 -0.6859
   12DG      H7  260   1.993   3.363   4.852  0.2649 -0.3764  0.4009
   12DG      H8  261   2.031   3.221   4.949 -0.8352 -0.5688 -0.1670
   12DG      O9  262   2.279   3.528   5.520 -0.0808 -0.0324 -0.1047
   12DG     O10  263   2.120   3.381   5.016  0.1297 -0.4960 -0.9121
   12DG     C11  264   2.374   3.457   5.438  0.3102 -0.4258  0.1091
   12DG     C12  265   2.100   3.521   5.044  0.4416 -0.6495  0.5624
   12DG     H13  266   2.345   3.352   5.435 -0.2710 -0.3575  2.0935
   12DG     H14  267   2.478   3.464   5.470 -0.1555  1.3743  1.3898
   12DG     H15  268   2.010   3.538   5.103  0.2095  1.6797 -0.3696
   12DG     H16  269   2.079   3.580   4.955 -1.0125  0.5971  1.6904
   12DG     C17  270   2.366   3.528   5.303 -0.1673  0.3210 -0.1473
   12DG     C18  271   2.229   3.570   5.118  0.5408 -0.0631  0.3103
   12DG     O19  272   2.238   3.524   5.251  0.2464  0.0700  0.2677
   12DG     H20  273   2.432   3.489   5.225 -1.0940 -0.2077 -0.6823
   12DG     H21  274   2.400   3.630   5.317 -0.2752  0.4267 -0.6479
   12DG     H22  275   2.322   3.547   5.065  0.2002 -3.2744  0.9048
   12DG     H23  276   2.226   3.678   5.122  0.0324  0.0093 -1.3656
   13DG      C1  277   1.108   3.256   3.794  0.0409  0.3991 -0.2273
   13DG      C2  278   0.566   3.873   3.551  0.5429  0.6401 -0.6164
   13DG      H3  279   1.178   3.297   3.866  1.1954 -0.2322 -0.9701
   13DG      H4  280   1.140   3.276   3.692  0.0484 -0.6939 -0.4594
   13DG      H5  281   1.100   3.150   3.819 -1.7806  0.4329 -0.5383
   13DG      H6  282   0.458   3.856   3.556  0.6823 -0.8954 -2.2860
   13DG      H7  283   0.595   3.976   3.572  0.6319  0.1444  2.0835
   13DG      H8  284   0.592   3.853   3.447 -1.8554  0.0095 -1.1482
   13DG      O9  285   0.976   3.313   3.823  0.4742  0.3003  0.3597
   13DG     O10  286   0.634   3.776   3.632  0.1968  0.9572 -0.0761
   13DG     C11  287   0.983   3.456   3.799 -0.2380  0.3832  0.4524
   13DG     C12  288   0.640   3.804   3.769 -1.2323  0.2091  0.1370
   13DG     H13  289   1.008   3.481   3.695  1.2845 -1.4116  0.3412
   13DG     H14  290   1.059   3.502   3.861  0.0572  1.1295 -0.4449
   13DG     H15  291   0.544   3.845   3.802 -1.4886 -0.3462  0.1087
   13DG     H16  292   0.707   3.888   3.780  1.1609 -1.6233  0.2705
   13DG     C17  293   0.840   3.493   3.827 -0.3700 -0.0989 -0.3506
   13DG     C18  294   0.698   3.680   3.837 -0.7388  0.0055 -0.2914
   13DG     O19  295   0.824   3.625   3.781  0.2823  0.2328  0.0509
   13DG     H20  296   0.824   3.498   3.934 -1.1482  2.4790 -0.5240
   13DG     H21  297   0.770   3.419   3.788  1.2199 -0.4569 -2.7530
   13DG     H22  298   0.721   3.700   3.942  1.4357  0.2353 -0.7608
   13DG     H23  299   0.626   3.598   3.838  0.6212 -1.2363  0.7897
   14DG      C1  300   0.339   3.996   4.729 -0.5087  0.2347 -0.1890
   14DG      C2  301  -0.290   4.150   4.510  0.2110 -0.2061 -0.1023
   14DG      H3  302   0.287   3.993   4.825 -0.8405  0.7791 -0.3506
   14DG      H4  303   0.412   4.076   4.719  3.5932 -2.8105  2.2034
   14DG      H5  304   0.399   3.905   4.718  0.3102  0.8835 -1.2729
   14DG      H6  305  -0.313   4.247   4.555  2.3207  0.2852  0.0736
   14DG      H7  306  -0.368   4.114   4.444  0.5057  1.5882 -1.5035
   14DG      H8  307  -0.284   4.077   4.591  0.1090  0.1499  0.2287
   14DG      O9  308   0.242   4.005   4.630 -0.0844 -0.4962  0.1666
   14DG     O10  309  -0.165   4.166   4.446  0.1759  0.1072 -0.2783
   14DG     C11  310   0.302   3.995   4.499 -0.0684 -0.0334  0.1704
   14DG     C12  311  -0.147   4.082   4.337 -0.4128  0.1533  0.4866
   14DG     H13  312   0.286   3.890   4.475 -0.9766  0.0341  0.4446
   14DG     H14  313   0.406   4.029   4.491 -0.6287  1.7804  0.1905
   14DG     H15  314  -0.211   4.115   4.255 -0.9285  2.7010  1.8041
   14DG     H16  315  -0.175   3.979   4.358  0.3091  0.0863  1.1672
   14DG     C17  316   0.221   4.079   4.397 -0.6260 -0.0760 -0.2614
   14DG     C18  317   0.007   4.078   4.299  0.2617  0.1022 -0.8228
   14DG     O19  318   0.081   4.044   4.414  0.1067 -0.0552  0.3233
   14DG     H20  319   0.255   4.047   4.299  2.9384 -1.1542  1.1727
   14DG     H21  320   0.235   4.187   4.404 -0.4057 -0.0886 -0.5042
   14DG     H22  321   0.022   3.996   4.229 -0.1204 -2.8644  2.2390
   14DG     H23  322   0.027   4.172   4.249 -0.4990  1.2956  0.9906
   15DG      C1  323   4.284   2.176   3.593 -0.8659 -0.9074 -0.1201
   15DG      C2  324   4.612   2.338   4.124 -0.3865 -0.3504 -0.2919
   15DG      H3  325   4.390   2.162   3.576 -1.0730 -2.1810 -0.5061
   15DG      H4  326   4.242   2.218   3.502  0.9914 -2.3326 -1.6986
   15DG      H5  327   4.245   2.075   3.610 -2.0627 -0.2128  1.6254
   15DG      H6  328   4.699   2.332   4.058  1.8680  1.6636  2.2824
   15DG      H7  329   4.640   2.406   4.204 -0.4264  1.3266 -1.6423
   15DG      H8  330   4.600   2.235   4.160  1.0846 -0.4448 -0.0044
   15DG      O9  331   4.261   2.260   3.708 -0.2101  0.4257 -0.1301
   15DG     O10  332   4.494   2.372   4.060  0.1435  1.0853  0.0880
   15DG     C11  333   4.129   2.273   3.750 -0.3381  0.8019 -0.2096
   15DG     C12  334   4.376   2.381   4.144  0.1452  0.1409 -0.2368
   15DG     H13  335   4.086   2.175   3.774 -0.7900  1.1941  0.6414
   15DG     H14  336   4.061   2.311   3.674 -0.3909  0.1902 -0.4739
   15DG     H15  337   4.402   2.449   4.224  0.9467  0.3045 -0.6217
   15DG     H16  338   4.354   2.284   4.188  0.1149  0.4076  0.3430
   15DG     C17  339   4.138   2.360   3.871  0.4602 -0.3181  0.2727
   15DG     C18  340   4.254   2.420   4.051 -0.3605 -0.1668 -0.5320
   15DG     O19  341   4.248   2.325   3.949 -0.1924  0.3224 -1.0002
   15DG     H20  342   4.049   2.367   3.934  0.4615  1.5415  0.1163
   15DG     H21  343   4.146   2.464   3.840 -2.6327  0.0741  0.5095
   15DG     H22  344   4.165   2.438   4.110 -0.7029  0.4120 -1.2051
   15DG     H23  345   4.288   2.510   3.998  2.3501 -0.0606  1.1722
   16DG      C1  346   2.914   1.561   1.508  0.0518  0.8022 -1.0582
   16DG      C2  347   2.976   1.890   0.818  0.3834  0.3950  0.1307
   16DG      H3  348   2.818   1.525   1.472  0.1925 -1.3471  0.5272
   16DG      H4  349   2.876   1.628   1.586  0.3646  0.2964 -0.4586
   16DG      H5  350   2.969   1.482   1.559 -1.3866  0.1629 -0.4330
   16DG      H6  351   3.027   1.928   0.729 -1.2487  2.2908 -0.0916
   16DG      H7  352   2.880   1.852   0.782 -0.4139  1.7085  0.8155
   16DG      H8  353   2.963   1.965   0.895  0.6846 -2.5613  3.2744
   16DG      O9  354   3.009   1.617   1.412  0.2966 -0.2349  0.6640
   16DG     O10  355   3.037   1.775   0.874 -0.0012  0.2892  0.1815
   16DG     C11  356   3.044   1.519   1.315 -0.1437 -0.3652 -0.3183
   16DG     C12  357   3.157   1.807   0.946 -0.2642  0.2477 -0.4294
   16DG     H13  358   2.949   1.485   1.272 -0.1727 -1.5357  0.6333
   16DG     H14  359   3.077   1.431   1.369 -2.2568 -0.9484  0.1045
   16DG     H15  360   3.141   1.879   1.025  2.2795 -0.3609  0.7598
   16DG     H16  361   3.236   1.849   0.883  2.1718 -3.4702 -0.1971
   16DG     C17  362   3.150   1.570   1.212  0.3825 -0.1214 -0.3860
   16DG     C18  363   3.204   1.680   1.015  0.4187  0.5309 -0.3056
   16DG     O19  364   3.103   1.643   1.105 -0.1675 -0.1652 -0.2035
   16DG     H20  365   3.190   1.477   1.171  0.4163 -0.1535 -0.2816
   16DG     H21  366   3.231   1.612   1.272  0.2007 -0.9260  0.4595
   16DG     H22  367   3.211   1.589   0.955 -0.6458  0.7266 -0.7446
   16DG     H23  368   3.306   1.685   1.054  0.7651 -0.7074 -0.9796
   17DG      C1  369   1.170   5.151   4.876 -0.2737 -0.3117 -0.4808
   17DG      C2  370   1.130   5.631   4.247  0.0612  0.2556  0.5148
   17DG      H3  371   1.230   5.068   4.915 -0.1494  1.1277  2.6891
   17DG      H4  372   1.094   5.166   4.953 -1.3802 -1.7786 -1.2249
   17DG      H5  373   1.228   5.243   4.878  1.6944 -1.4817 -0.4933
   17DG      H6  374   1.058   5.644   4.167  0.7152  1.0715  0.0412
   17DG      H7  375   1.117   5.699   4.331 -0.2137  2.2033 -1.0363
   17DG      H8  376   1.212   5.664   4.183 -0.3469  3.5897  1.5130
   17DG      O9  377   1.101   5.134   4.755  0.1021 -0.3287 -0.1149
   17DG     O10  378   1.150   5.496   4.285  0.0930  0.0292  0.1976
   17DG     C11  379   1.181   5.090   4.648 -0.0430  0.7884 -0.2691
   17DG     C12  380   1.035   5.443   4.348  0.1985  0.1730 -0.2697
   17DG     H13  381   1.187   4.981   4.648  4.0872  0.8259 -1.2317
   17DG     H14  382   1.288   5.107   4.660  0.2679 -1.2397  0.2228
   17DG     H15  383   0.956   5.478   4.281  0.4653 -1.5641 -1.5604
   17DG     H16  384   1.013   5.488   4.445 -0.8913 -3.0225  1.1138
   17DG     C17  385   1.118   5.122   4.508 -0.7968 -0.5899  0.3795
   17DG     C18  386   1.038   5.291   4.358  0.1848  0.0337  0.5518
   17DG     O19  387   1.101   5.262   4.483 -0.0885 -0.5223  0.2065
   17DG     H20  388   1.017   5.083   4.514 -0.2526 -2.0186  0.7117
   17DG     H21  389   1.171   5.074   4.425  0.0624 -0.9864  1.1334
   17DG     H22  390   0.940   5.243   4.355  0.4179 -0.4457  0.3498
   17DG     H23  391   1.094   5.240   4.279 -0.9629  0.3191 -0.4655
   18DG      C1  392   0.575   1.868   2.411  0.3234  0.6019 -0.1363
   18DG      C2  393   1.027   1.363   2.368  0.6524  0.1229  0.0662
   18DG      H3  394   0.645   1.933   2.463  0.2172  0.7917 -0.2305
   18DG      H4  395   0.523   1.807   2.485 -0.4419 -0.4215 -1.4702
   18DG      H5  396   0.497   1.923   2.358 -0.1666 -1.9641 -2.3094
   18DG      H6  397   0.945   1.296   2.392  1.1414 -0.4125  0.2708
   18DG      H7  398   1.101   1.304   2.315 -0.7923 -1.1110 -0.6430
   18DG      H8  399   1.068   1.401   2.462 -0.0655  0.9956  0.0379
   18DG      O9  400   0.655   1.783   2.328  0.6792 -0.2073  0.0195
   18DG     O10  401   0.995   1.473   2.281  0.2081 -0.0697 -0.1872
   18DG     C11  402   0.574   1.718   2.226  0.2715  0.5144  0.3399
   18DG     C12  403   0.966   1.446   2.142 -0.2286  0.7481  0.2851
   18DG     H13  404   0.496   1.775   2.176 -0.7988 -0.7780  0.4826
   18DG     H14  405   0.521   1.633   2.268 -1.8729 -0.0402 -3.0867
   18DG     H15  406   0.931   1.345   2.124 -0.8081  1.2486 -1.6622
   18DG     H16  407   1.059   1.450   2.085 -0.3864  1.1298  0.0516
   18DG     C17  408   0.661   1.663   2.113  0.3443 -0.3624 -0.0866
   18DG     C18  409   0.878   1.559   2.101 -0.2617  0.5366  0.4060
   18DG     O19  410   0.754   1.584   2.179 -0.3115 -0.2171  0.0288
   18DG     H20  411   0.715   1.746   2.067  1.0308 -1.5896 -1.5611
   18DG     H21  412   0.613   1.601   2.037  1.9337 -1.9691  0.1554
   18DG     H22  413   0.939   1.649   2.103  2.0302 -0.9292  1.9484
   18DG     H23  414   0.843   1.528   2.002 -2.0918  1.2615  0.7905
   19DG      C1  415   1.157   1.491   4.933 -0.4370 -0.2261  0.6024
   19DG      C2  416   1.566   1.298   4.481 -0.3716  0.4649 -0.1022
   19DG      H3  417   1.127   1.559   5.012  1.1912  1.2626  0.0052
   19DG      H4  418   1.199   1.393   4.954 -0.8154 -0.7017 -0.7234
   19DG      H5  419   1.072   1.475   4.866 -1.1030  1.9252  0.8422
   19DG      H6  420   1.618   1.291   4.386  0.0803 -1.5391  0.2653
   19DG      H7  421   1.617   1.236   4.555 -1.0747  0.4713  0.3921
   19DG      H8  422   1.465   1.265   4.460  0.3442 -0.5038 -2.3948
   19DG      O9  423   1.263   1.553   4.859 -0.2138  0.0910 -0.4856
   19DG     O10  424   1.557   1.422   4.542 -0.8715  0.1614 -0.3883
   19DG     C11  425   1.361   1.603   4.946 -0.1648  0.5379  0.5609
   19DG     C12  426   1.675   1.459   4.618  0.4907  0.0770  0.2115
   19DG     H13  427   1.405   1.530   5.013  0.8832  0.6384 -0.0013
   19DG     H14  428   1.314   1.679   5.009  0.1274  0.5180  0.8038
   19DG     H15  429   1.764   1.473   4.558  0.2109  0.1177 -0.1965
   19DG     H16  430   1.697   1.379   4.689 -1.7238 -1.0782 -0.2988
   19DG     C17  431   1.464   1.668   4.848 -0.1205 -0.4811 -0.6388
   19DG     C18  432   1.637   1.588   4.696 -0.0549  0.1840  0.3231
   19DG     O19  433   1.511   1.562   4.765 -0.0378  0.3681  0.2090
   19DG     H20  434   1.541   1.698   4.920 -2.5226  0.3638  1.7337
   19DG     H21  435   1.414   1.751   4.799 -2.2574 -0.6325  1.1153
   19DG     H22  436   1.713   1.600   4.773 -1.2767  0.4098  1.5278
   19DG     H23  437   1.629   1.681   4.639  0.7772 -0.4093 -0.8050
   20DG      C1  438   2.214   4.443   4.861 -0.4285 -0.2996  0.4588
   20DG      C2  439   1.616   4.268   4.241 -0.0710  0.2894  0.7678
   20DG      H3  440   2.185   4.474   4.961  2.5117  1.3306  0.9279
   20DG      H4  441   2.249   4.528   4.803 -2.4922 -0.9604 -1.9589
   20DG      H5  442   2.293   4.367   4.858 -0.4034 -0.2513 -0.8177
   20DG      H6  443   1.667   4.343   4.179 -0.2664 -0.1434  0.0792
   20DG      H7  444   1.647   4.168   4.213 -0.1626  0.9473 -1.9179
   20DG      H8  445   1.513   4.274   4.208  0.0924 -0.1451  0.1536
   20DG      O9  446   2.107   4.387   4.788  0.2494 -0.2447 -0.2864
   20DG     O10  447   1.644   4.289   4.380  0.4966 -0.0626  1.0660
   20DG     C11  448   2.127   4.338   4.656 -0.4214 -0.0620 -0.0287
   20DG     C12  449   1.781   4.300   4.413 -0.1229 -0.0501 -0.1281
   20DG     H13  450   2.206   4.262   4.650  0.0303  0.3340  0.7443
   20DG     H14  451   2.169   4.420   4.599  0.7377 -0.5749  0.0476
   20DG     H15  452   1.816   4.389   4.361 -1.6447  3.0385  3.6068
   20DG     H16  453   1.823   4.200   4.401  0.2644  0.3699 -2.8533
   20DG     C17  454   1.996   4.280   4.612  0.4768  0.1404  0.0462
   20DG     C18  455   1.775   4.328   4.559 -0.0217 -0.2441  0.1575
   20DG     O19  456   1.896   4.382   4.616 -0.4982  0.3660  0.7020
   20DG     H20  457   1.954   4.201   4.673 -3.2389  0.0959 -2.2772
   20DG     H21  458   2.000   4.235   4.513 -0.4165  1.8729 -0.8188
   20DG     H22  459   1.700   4.403   4.582  2.3954  2.1408  0.7462
   20DG     H23  460   1.750   4.248   4.628 -0.9052 -0.0623  0.0559
   21DG      C1  461   1.515   4.707   5.403 -0.1497 -0.2885  1.0072
   21DG      C2  462   1.823   5.233   5.706 -0.0179 -0.7082 -0.1304
   21DG      H3  463   1.434   4.744   5.340  0.8076  0.8777  0.4194
   21DG      H4  464   1.471   4.692   5.501 -0.7537 -2.5316  0.4630
   21DG      H5  465   1.529   4.608   5.359 -0.9837  0.8482 -2.1001
   21DG      H6  466   1.731   5.239   5.764  0.8261  1.2559  1.0695
   21DG      H7  467   1.913   5.224   5.767  0.5731  2.4006 -0.3838
   21DG      H8  468   1.839   5.335   5.671  0.3829 -1.7389 -3.2999
   21DG      O9  469   1.636   4.783   5.407 -0.5531 -0.3462 -0.0457
   21DG     O10  470   1.810   5.138   5.597 -0.1807  0.4987 -0.2963
   21DG     C11  471   1.707   4.781   5.285  0.5447 -0.4203 -0.0160
   21DG     C12  472   1.848   5.196   5.477 -0.9148  0.6883  0.2735
   21DG     H13  473   1.644   4.838   5.216  1.0927  1.2826  0.8274
   21DG     H14  474   1.729   4.682   5.247  0.3277 -0.8620  0.9811
   21DG     H15  475   1.925   5.272   5.491 -0.3685  0.3863 -0.8882
   21DG     H16  476   1.777   5.245   5.411  0.8940  1.7460 -0.9719
   21DG     C17  477   1.840   4.868   5.298  0.7674  0.0122 -0.1011
   21DG     C18  478   1.910   5.079   5.391  0.6709 -0.1388 -0.1168
   21DG     O19  479   1.802   4.990   5.366  0.0226 -0.2360  0.4587
   21DG     H20  480   1.875   4.894   5.199  0.4193  0.3436 -0.1399
   21DG     H21  481   1.914   4.820   5.362 -0.9545 -1.7343  0.7087
   21DG     H22  482   1.947   5.118   5.296 -1.4534  2.3240 -0.0519
   21DG     H23  483   1.995   5.026   5.433  2.7580  1.9726 -1.4150
   22DG      C1  484   3.382   3.543   3.796 -0.3700  0.3702  0.0350
   22DG      C2  485   2.807   3.948   3.384 -0.0455 -0.3927 -0.3741
   22DG      H3  486   3.422   3.632   3.747 -0.5293 -1.0089 -2.8335
   22DG      H4  487   3.444   3.455   3.780 -1.4073 -0.3301 -0.2051
   22DG      H5  488   3.370   3.563   3.902 -2.2485  0.6320 -0.2055
   22DG      H6  489   2.717   3.967   3.442  0.1363  0.8947 -0.5002
   22DG      H7  490   2.882   4.014   3.428 -0.8089  0.4018 -0.2538
   22DG      H8  491   2.803   3.964   3.277 -0.1200 -0.9282 -0.4527
   22DG      O9  492   3.257   3.522   3.734 -0.0314  0.1778 -0.9359
   22DG     O10  493   2.854   3.812   3.390  0.5616 -0.4465 -0.0271
   22DG     C11  494   3.265   3.511   3.591 -0.9111  0.2465 -0.1042
   22DG     C12  495   2.853   3.768   3.521 -0.5358 -0.2145 -0.5894
   22DG     H13  496   3.309   3.417   3.561  1.0700  1.1560 -0.2160
   22DG     H14  497   3.324   3.594   3.551 -2.7926  1.3336 -0.7344
   22DG     H15  498   2.754   3.777   3.565  0.3573 -1.5852  1.8961
   22DG     H16  499   2.927   3.834   3.568 -1.4053  1.6501 -1.7068
   22DG     C17  500   3.121   3.507   3.534  0.0054 -0.6748 -0.4783
   22DG     C18  501   2.912   3.629   3.521 -0.4903  0.0100 -0.0352
   22DG     O19  502   3.058   3.638   3.531  0.4451 -0.4412  0.7398
   22DG     H20  503   3.066   3.435   3.595 -1.7209  0.8600 -0.1178
   22DG     H21  504   3.127   3.479   3.429 -0.5959 -0.9590 -0.4389
   22DG     H22  505   2.875   3.570   3.605 -1.1001  1.2561  0.6132
   22DG     H23  506   2.892   3.588   3.423  1.4285  0.4488 -0.6513
   23DG      C1  507   2.778   4.166  -0.033 -0.8421 -0.7496  0.0790
   23DG      C2  508   3.091   4.789   0.132  0.3011  0.0214  0.6155
   23DG      H3  509   2.715   4.223  -0.101  1.4120  1.1197 -0.6031
   23DG      H4  510   2.722   4.149   0.058  0.2713  1.1640  1.1988
   23DG      H5  511   2.798   4.069  -0.079  0.1474 -0.2290 -0.6420
   23DG      H6  512   3.000   4.808   0.075 -1.6138 -1.7755  2.8226
   23DG      H7  513   3.074   4.796   0.240 -2.2678  0.3194  0.2581
   23DG      H8  514   3.181   4.846   0.114  1.0740 -0.1350  3.4426
   23DG      O9  515   2.886   4.246   0.003  0.1012  0.3474 -0.0757
   23DG     O10  516   3.118   4.653   0.104 -0.7119 -0.1271  0.4489
   23DG     C11  517   2.972   4.178   0.097 -0.2227 -0.4129 -0.1141
   23DG     C12  518   3.207   4.589   0.200  0.4861 -0.1465  0.0191
   23DG     H13  519   2.981   4.074   0.067 -1.6033 -1.0064  1.3925
   23DG     H14  520   2.920   4.187   0.192  0.2335  1.1349  0.0163
   23DG     H15  521   3.171   4.567   0.301 -0.6345 -2.7132 -0.8371
   23DG     H16  522   3.290   4.658   0.213  0.7614 -0.6179  0.8826
   23DG     C17  523   3.110   4.242   0.099  0.1617 -0.3841 -0.1463
   23DG     C18  524   3.237   4.450   0.150  0.6952  0.2483 -0.3086
   23DG     O19  525   3.107   4.384   0.137  0.2894  0.4068  0.4584
   23DG     H20  526   3.160   4.223   0.004  0.4389  1.2373 -0.3583
   23DG     H21  527   3.168   4.195   0.178 -1.0150 -0.3083  0.7928
   23DG     H22  528   3.285   4.445   0.052 -0.6576 -0.8784 -0.9655
   23DG     H23  529   3.297   4.401   0.226  0.8908  0.4495 -0.3325
   24DG      C1  530   3.177   4.980   3.808 -0.1879  0.1283  0.0881
   24DG      C2  531   2.822   5.626   3.898  0.4480  0.1602  0.4323
   24DG      H3  532   3.118   4.978   3.716  0.1814  2.8756 -0.3093
   24DG      H4  533   3.163   4.886   3.861 -2.1766  0.3423  0.0273
   24DG      H5  534   3.278   5.002   3.775 -0.8211  1.6029 -1.0317
   24DG      H6  535   2.734   5.647   3.958 -2.0818 -1.1752 -2.5312
   24DG      H7  536   2.902   5.700   3.911  1.6842 -0.8247 -1.1553
   24DG      H8  537   2.793   5.610   3.794  0.9223 -0.4563  0.3847
   24DG      O9  538   3.118   5.084   3.877  0.1487  0.6347 -0.5992
   24DG     O10  539   2.864   5.504   3.962 -0.0334  0.0216  0.4749
   24DG     C11  540   3.188   5.136   3.989  0.2094  0.3650 -0.4704
   24DG     C12  541   2.897   5.511   4.097 -0.1672 -0.7319 -0.2783
   24DG     H13  542   3.258   5.214   3.961  0.7976 -0.2323 -0.6957
   24DG     H14  543   3.236   5.052   4.039  0.5112  0.1895 -1.0487
   24DG     H15  544   2.819   5.551   4.161  0.8794  2.1177 -0.6441
   24DG     H16  545   2.967   5.594   4.103 -0.5046 -0.4600 -0.0928
   24DG     C17  546   3.083   5.192   4.089 -0.4413  0.3246  0.4037
   24DG     C18  547   2.944   5.372   4.147 -0.2604  0.0147 -0.2266
   24DG     O19  548   3.007   5.300   4.042 -0.0731  0.2576  0.6681
   24DG     H20  549   3.153   5.217   4.169 -0.1962  0.1454  0.2481
   24DG     H21  550   3.014   5.115   4.122 -0.7168 -0.3074 -1.5175
   24DG     H22  551   3.002   5.376   4.239  1.1340 -1.4230 -0.9945
   24DG     H23  552   2.854   5.317   4.175 -0.1985 -0.7454 -1.4404
   25DG      C1  553   5.446   3.742   1.059  0.8302  0.3296  0.2187
   25DG      C2  554   5.043   4.118   0.851  0.1372 -0.7884 -0.1684
   25DG      H3  555   5.384   3.692   0.984  2.0491 -0.9769  0.0315
   25DG      H4  556   5.452   3.670   1.140 -0.0616  1.0128  0.9030
   25DG      H5  557   5.547   3.761   1.020  1.5210  0.7197  2.0684
   25DG      H6  558   4.992   4.024   0.833 -0.6282 -0.9233  2.3340
   25DG      H7  559   4.965   4.194   0.841 -0.5066 -1.5442 -0.9746
   25DG      H8  560   5.116   4.150   0.776 -1.8551 -0.2067 -1.9608
   25DG      O9  561   5.398   3.866   1.096  0.1657 -0.1719  0.0743
   25DG     O10  562   5.094   4.109   0.984  0.0982  0.8582 -0.1892
   25DG     C11  563   5.473   3.934   1.191  0.0924 -0.7146 -0.7662
   25DG     C12  564   5.129   4.234   1.047  0.1509  0.8418 -0.0922
   25DG     H13  565   5.567   3.977   1.155 -1.2313  5.4717  1.8454
   25DG     H14  566   5.500   3.865   1.270  0.9743  0.5308  0.0688
   25DG     H15  567   5.036   4.279   1.082 -0.4810  1.0666 -1.9701
   25DG     H16  568   5.173   4.300   0.972  1.4246 -0.8160 -0.8842
   25DG     C17  569   5.368   4.039   1.244  0.5621 -0.0810  0.7511
   25DG     C18  570   5.217   4.204   1.172 -0.2144 -0.5678 -0.6595
   25DG     O19  571   5.320   4.118   1.133  0.4195 -0.3155  0.2645
   25DG     H20  572   5.403   4.109   1.320 -0.7362  1.1821  0.2365
   25DG     H21  573   5.287   3.980   1.288 -0.2159 -0.0025 -0.5388
   25DG     H22  574   5.251   4.304   1.199 -2.0918  0.6857 -2.5419
   25DG     H23  575   5.146   4.165   1.245  0.3744  0.1409  0.3113
   26DG      C1  576   3.854   2.232   1.663  0.1164  0.5995  0.9364
   26DG      C2  577   4.610   2.033   1.720 -0.2650 -0.0615 -0.6275
   26DG      H3  578   3.801   2.181   1.744 -1.7000  2.9383  1.3352
   26DG      H4  579   3.779   2.247   1.585  1.1956 -0.6581 -0.3787
   26DG      H5  580   3.894   2.326   1.702  0.6106 -0.1751  2.3847
   26DG      H6  581   4.540   2.030   1.804 -0.0432 -2.5730 -0.4715
   26DG      H7  582   4.656   1.934   1.718 -1.3081 -0.5837  0.2532
   26DG      H8  583   4.679   2.118   1.726 -0.8389  0.3841 -0.2439
   26DG      O9  584   3.967   2.161   1.621 -0.1602 -0.0802 -0.0297
   26DG     O10  585   4.529   2.055   1.607 -0.3779 -0.1429  0.1749
   26DG     C11  586   4.035   2.228   1.509  1.0607 -0.0236 -0.6138
   26DG     C12  587   4.435   1.950   1.581  0.3017  0.0720 -0.0037
   26DG     H13  588   4.064   2.326   1.545  1.0628 -0.0343 -0.5861
   26DG     H14  589   3.955   2.242   1.436 -0.1018 -2.8318 -0.0426
   26DG     H15  590   4.383   1.910   1.668 -0.1494 -0.5211 -0.5287
   26DG     H16  591   4.488   1.860   1.549 -1.9755 -0.8680 -1.4159
   26DG     C17  592   4.162   2.161   1.446  0.9886  0.3125 -0.0395
   26DG     C18  593   4.330   1.999   1.477  0.1840 -0.5730  1.2143
   26DG     O19  594   4.248   2.101   1.538 -0.2659 -0.0241 -0.0168
   26DG     H20  595   4.202   2.230   1.372 -2.2033  2.3621 -0.0398
   26DG     H21  596   4.117   2.078   1.391  0.2964  1.3243 -1.0384
   26DG     H22  597   4.379   2.046   1.392 -2.1616 -0.2293 -0.0278
   26DG     H23  598   4.275   1.913   1.439  1.8706 -1.4458  0.6522
   27DG      C1  599   0.532   0.582   2.888  0.3129 -0.1497 -0.1432
   27DG      C2  600   0.627  -0.146   3.267  0.4213 -0.6912 -0.2978
   27DG      H3  601   0.484   0.634   2.970 -1.6399 -2.6280  0.4201
   27DG      H4  602   0.484   0.583   2.790 -0.2703  0.4347  0.1474
   27DG      H5  603   0.628   0.631   2.869  0.5928 -0.5708  0.1453
   27DG      H6  604   0.549  -0.124   3.340  0.3148  2.0306 -1.1180
   27DG      H7  605   0.662  -0.249   3.280 -0.0318 -0.7634  0.4343
   27DG      H8  606   0.709  -0.080   3.292 -0.8725  1.1168 -0.6473
   27DG      O9  607   0.558   0.451   2.929  0.1324  0.3318  0.2316
   27DG     O10  608   0.580  -0.125   3.135 -0.2562 -0.0169  0.1604
   27DG     C11  609   0.624   0.361   2.839  0.1180  0.2024  0.3924
   27DG     C12  610   0.561   0.010   3.101 -0.0194  0.8064  0.7092
   27DG     H13  611   0.717   0.413   2.816 -0.7911  0.9044 -2.0233
   27DG     H14  612   0.568   0.346   2.746 -0.4407  1.4126  0.5083
   27DG     H15  613   0.647   0.073   3.125 -0.2275  1.4755 -0.2233
   27DG     H16  614   0.482   0.060   3.157  1.2419  1.4459  1.9629
   27DG     C17  615   0.634   0.219   2.895 -0.1479 -0.0959 -0.3533
   27DG     C18  616   0.531   0.019   2.946  0.7307 -0.0216  0.2040
   27DG     O19  617   0.510   0.153   2.913  0.0152 -0.2399 -0.0641
   27DG     H20  618   0.686   0.231   2.990 -1.2427  0.8375  0.1551
   27DG     H21  619   0.697   0.159   2.829 -1.0721 -1.2379 -0.2209
   27DG     H22  620   0.611  -0.026   2.887  1.1854  1.6054 -0.4748
   27DG     H23  621   0.436  -0.030   2.924 -1.7945  3.4373  2.3427
   28DG      C1  622   0.394   1.380   4.705  0.0809  0.1277 -0.3947
   28DG      C2  623   1.017   1.137   4.972  0.2975 -0.5997 -0.8238
   28DG      H3  624   0.386   1.295   4.637  0.1398  0.8275 -1.2978
   28DG      H4  625   0.456   1.454   4.654  1.7742 -0.9862 -0.0717
   28DG      H5  626   0.297   1.415   4.739  0.2566  1.3058 -1.0442
   28DG      H6  627   1.079   1.220   4.939 -0.6361 -0.3996 -2.1509
   28DG      H7  628   1.066   1.118   5.067 -0.9132 -2.0298 -0.4471
   28DG      H8  629   1.028   1.055   4.900  2.3235  0.3180 -1.6421
   28DG      O9  630   0.461   1.329   4.819  0.2647 -0.0952 -0.2299
   28DG     O10  631   0.887   1.189   4.996 -0.0370  0.0755  0.2745
   28DG     C11  632   0.393   1.218   4.880  0.0399 -0.4792 -1.2645
   28DG     C12  633   0.826   1.097   5.080  0.7813 -0.5232 -0.4881
   28DG     H13  634   0.385   1.134   4.811  2.4601 -3.0050  1.2664
   28DG     H14  635   0.294   1.238   4.921  1.6379 -1.1326  3.6036
   28DG     H15  636   0.875   1.102   5.178 -3.1959  3.4869  1.6785
   28DG     H16  637   0.818   0.999   5.032 -1.7284  0.3731 -2.0636
   28DG     C17  638   0.473   1.195   5.011  0.3191 -1.1294  0.2176
   28DG     C18  639   0.678   1.147   5.112 -0.0532  0.2796 -0.0227
   28DG     O19  640   0.599   1.135   4.992  0.0303  0.3649  0.2750
   28DG     H20  641   0.414   1.128   5.073 -0.9687  0.6269  0.9857
   28DG     H21  642   0.478   1.290   5.065  0.2817 -1.8021  1.4315
   28DG     H22  643   0.635   1.083   5.190  0.2107  1.8923  1.5074
   28DG     H23  644   0.671   1.244   5.162 -3.6473  1.0181 -1.6308
   29DG      C1  645   4.342   3.469   2.785 -0.8196 -0.9704 -0.0017
   29DG      C2  646   3.561   3.385   2.329 -0.2350 -0.6318  0.2477
   29DG      H3  647   4.383   3.554   2.730  1.6775 -2.0691  0.0272
   29DG      H4  648   4.386   3.376   2.748 -2.9533 -1.4358 -1.5945
   29DG      H5  649   4.381   3.494   2.883 -0.7097  2.2743 -0.7617
   29DG      H6  650   3.504   3.295   2.305 -1.9425  0.0826  1.3881
   29DG      H7  651   3.484   3.459   2.350  2.4464  1.9045  1.8607
   29DG      H8  652   3.598   3.426   2.236 -2.1016  0.4561 -0.0628
   29DG      O9  653   4.205   3.445   2.794  0.1636  0.0186  0.1855
   29DG     O10  654   3.673   3.379   2.418 -0.2691 -0.4000  0.4096
   29DG     C11  655   4.150   3.424   2.660 -0.1905  0.8691 -0.1869
   29DG     C12  656   3.737   3.504   2.431  0.0857 -0.0763  0.1305
   29DG     H13  657   4.184   3.329   2.621  0.1565  1.0969 -0.4442
   29DG     H14  658   4.184   3.503   2.592 -0.4788  0.5024 -0.7617
   29DG     H15  659   3.673   3.593   2.437  0.0669  0.3198 -3.4599
   29DG     H16  660   3.800   3.523   2.344 -2.9634  1.7587 -1.9170
   29DG     C17  661   3.999   3.436   2.687 -0.2578 -0.4164  0.2219
   29DG     C18  662   3.820   3.515   2.555 -0.1666 -0.0694 -0.4128
   29DG     O19  663   3.933   3.429   2.565 -0.2360  0.4472 -0.1729
   29DG     H20  664   3.980   3.532   2.736 -0.6037 -0.2786 -0.1808
   29DG     H21  665   3.967   3.356   2.754  1.3685 -0.2394  1.2826
   29DG     H22  666   3.857   3.618   2.563  0.4386 -0.3789  1.3052
   29DG     H23  667   3.757   3.505   2.644  0.8235  4.1982  0.9970
   30DG      C1  668   0.519   2.569   4.066  0.3696  0.2143 -0.3494
   30DG      C2  669   0.609   2.111   3.352  0.2043 -0.2197  0.2060
   30DG      H3  670   0.413   2.545   4.080  0.3170 -1.5351 -2.9857
   30DG      H4  671   0.519   2.650   3.992  1.2699  1.0272  0.5142
   30DG      H5  672   0.553   2.611   4.160  1.1627 -0.9505 -0.0982
   30DG      H6  673   0.500   2.108   3.343  0.1965 -1.0508  0.5099
   30DG      H7  674   0.652   2.185   3.285  0.8968  0.5403  1.4472
   30DG      H8  675   0.661   2.019   3.326  1.0073  0.3000 -0.0795
   30DG      O9  676   0.600   2.463   4.027 -0.1927 -0.3310 -0.1829
   30DG     O10  677   0.644   2.160   3.483  0.0666 -0.4394  0.5598
   30DG     C11  678   0.562   2.414   3.896  0.7291 -0.2180  0.3709
   30DG     C12  679   0.639   2.063   3.588 -0.2439  0.1994  0.1277
   30DG     H13  680   0.569   2.492   3.820  0.5476  0.6503  1.2344
   30DG     H14  681   0.465   2.363   3.899  0.5093  0.0888 -0.7156
   30DG     H15  682   0.702   1.981   3.553  1.8755  2.9824 -3.2846
   30DG     H16  683   0.544   2.015   3.611 -0.2108 -0.0213 -0.1906
   30DG     C17  684   0.657   2.296   3.863 -0.7652 -0.7579  0.5210
   30DG     C18  685   0.700   2.126   3.711 -0.4742 -0.3802 -0.1599
   30DG     O19  686   0.621   2.236   3.743  0.6172 -0.2235  0.3258
   30DG     H20  687   0.667   2.235   3.953  1.7358  0.0846  0.9071
   30DG     H21  688   0.758   2.335   3.848 -1.7518  1.5991 -0.4368
   30DG     H22  689   0.688   2.054   3.793  0.4372  0.0495  0.3678
   30DG     H23  690   0.806   2.139   3.690 -0.6272  0.0074 -0.7112
   31DG      C1  691   4.465   4.613   3.261 -0.3477  0.0371 -0.0850
   31DG      C2  692   3.743   4.729   3.136 -0.3251  0.1622 -0.2730
   31DG      H3  693   4.476   4.583   3.365  1.4826 -0.9884 -0.5260
   31DG      H4  694   4.469   4.721   3.244 -0.9793 -0.2856 -2.7452
   31DG      H5  695   4.552   4.565   3.217 -0.9341 -0.9136 -0.2390
   31DG      H6  696   3.776   4.737   3.032  1.5209 -1.0247  0.1727
   31DG      H7  697   3.647   4.676   3.139  0.9580 -2.3456  3.2578
   31DG      H8  698   3.748   4.828   3.180  1.5790 -0.1759  0.3427
   31DG      O9  699   4.353   4.547   3.201  0.0895 -0.9777 -0.6336
   31DG     O10  700   3.837   4.655   3.208  0.4571  0.3182 -0.1918
   31DG     C11  701   4.316   4.608   3.079 -0.6143 -0.0104  0.1201
   31DG     C12  702   3.857   4.521   3.156  0.4714  0.1205  0.1501
   31DG     H13  703   4.400   4.598   3.011 -0.9032 -0.8060 -0.1261
   31DG     H14  704   4.296   4.713   3.099  0.3709 -0.1385  2.0874
   31DG     H15  705   3.766   4.471   3.124  1.2407  0.0775 -2.1867
   31DG     H16  706   3.900   4.473   3.243  0.3643 -0.7312 -0.2563
   31DG     C17  707   4.192   4.526   3.025 -0.0165  0.5672 -0.2110
   31DG     C18  708   3.958   4.509   3.040  0.1924  0.5002  0.0164
   31DG     O19  709   4.080   4.564   3.096 -0.0609 -0.0720 -0.2890
   31DG     H20  710   4.215   4.420   3.032  1.2203  0.9215  2.0188
   31DG     H21  711   4.168   4.555   2.923  0.6167  0.4031 -0.4053
   31DG     H22  712   3.976   4.413   2.992 -1.6399  0.9120 -1.6075
   31DG     H23  713   3.919   4.575   2.962 -0.7788  0.1514  0.1911
   32DG      C1  714   3.307   2.014   4.730 -0.2865 -0.2880 -0.7507
   32DG      C2  715   3.228   2.630   4.473  0.7099  0.0547 -0.1068
   32DG      H3  716   3.352   1.915   4.743 -1.8520 -1.0094 -0.5627
   32DG      H4  717   3.202   2.006   4.758 -0.1733  0.1595 -0.1808
   32DG      H5  718   3.344   2.095   4.793 -0.4261  0.1525 -1.2250
   32DG      H6  719   3.233   2.676   4.374  0.5469 -0.0642 -0.1708
   32DG      H7  720   3.128   2.630   4.517  0.3488  1.8702 -0.8098
   32DG      H8  721   3.298   2.677   4.541 -2.5753  1.3463  2.6411
   32DG      O9  722   3.310   2.062   4.598 -0.4163 -0.0482  0.2096
   32DG     O10  723   3.271   2.493   4.458  0.0581  0.2534  0.1342
   32DG     C11  724   3.446   2.076   4.551 -0.0991  0.0691 -0.6727
   32DG     C12  725   3.397   2.490   4.399  0.0000 -0.9107 -0.5910
   32DG     H13  726   3.496   1.979   4.554 -1.0983 -0.4435  1.2726
   32DG     H14  727   3.507   2.138   4.617 -0.2031 -1.4544  0.9261
   32DG     H15  728   3.464   2.569   4.432 -0.7304 -0.1164 -0.9894
   32DG     H16  729   3.397   2.494   4.290 -1.4695 -0.7885 -0.6047
   32DG     C17  730   3.446   2.124   4.404  0.5391  0.2608 -0.1312
   32DG     C18  731   3.475   2.365   4.443 -0.6313 -0.2194  0.3184
   32DG     O19  732   3.398   2.257   4.393  0.9925 -0.0112 -0.6759
   32DG     H20  733   3.400   2.054   4.334  2.6817 -2.0253  0.6106
   32DG     H21  734   3.544   2.108   4.358  0.7872 -2.1182  1.0713
   32DG     H22  735   3.567   2.370   4.385 -0.8470 -1.3920 -0.1590
   32DG     H23  736   3.509   2.365   4.546  2.3441 -4.7758 -0.3651
   33DG      C1  737   4.498   0.983   1.155  0.4211  0.1703 -0.4423
   33DG      C2  738   4.799   1.723   1.408 -0.1377  0.1551  0.1659
   33DG      H3  739   4.593   0.933   1.176 -0.2032 -0.8677 -0.0111
   33DG      H4  740   4.447   0.934   1.072  0.1294 -0.6141  0.1829
   33DG      H5  741   4.437   0.948   1.238  0.0446  0.4227 -0.6122
   33DG      H6  742   4.842   1.664   1.489  2.0304  1.5704  0.1221
   33DG      H7  743   4.858   1.701   1.319 -1.1658  3.5495 -1.5463
   33DG      H8  744   4.807   1.830   1.428 -0.1001 -0.1749  2.0917
   33DG      O9  745   4.514   1.124   1.156 -0.1390  0.5695 -0.2457
   33DG     O10  746   4.669   1.686   1.381  0.1352 -0.1622  0.1743
   33DG     C11  747   4.383   1.187   1.155 -0.1256 -0.2264  0.1190
   33DG     C12  748   4.645   1.545   1.372 -0.4358  0.0534 -0.1174
   33DG     H13  749   4.315   1.154   1.233 -1.4853 -0.3115 -1.0580
   33DG     H14  750   4.312   1.151   1.080  0.4609 -1.1146 -0.0341
   33DG     H15  751   4.619   1.508   1.471 -1.3167 -1.9161 -1.0258
   33DG     H16  752   4.734   1.490   1.342 -0.2484 -0.0617  0.6311
   33DG     C17  753   4.401   1.338   1.172 -0.3228 -0.0819  0.2102
   33DG     C18  754   4.530   1.510   1.280  0.5773 -0.2267 -0.3924
   33DG     O19  755   4.489   1.371   1.278  0.2608  0.1320 -0.3590
   33DG     H20  756   4.298   1.373   1.175 -0.6876 -0.5305 -3.0197
   33DG     H21  757   4.437   1.386   1.081  1.9218 -2.2774 -0.1521
   33DG     H22  758   4.450   1.580   1.303  0.9964  0.8729 -2.1203
   33DG     H23  759   4.568   1.545   1.184 -1.6770  0.8888 -0.9365
   34DG      C1  760   4.646   3.400   4.842  0.4734 -0.6111  0.3533
   34DG      C2  761   4.273   4.009   4.588 -0.0441 -0.0112 -0.6725
   34DG      H3  762   4.559   3.340   4.869  0.3373 -1.2351 -1.3512
   34DG      H4  763   4.712   3.363   4.920 -0.7993 -0.1080  1.6988
   34DG      H5  764   4.662   3.354   4.744  0.1412  0.5140 -0.2419
   34DG      H6  765   4.286   3.963   4.490 -1.4666  0.5005 -1.1248
   34DG      H7  766   4.190   3.959   4.637 -1.2300  1.8547 -0.6568
   34DG      H8  767   4.250   4.112   4.561 -1.1087 -0.4642 -1.5394
   34DG      O9  768   4.627   3.542   4.842  0.0325 -0.1127  0.0617
   34DG     O10  769   4.402   4.000   4.655 -0.5144  0.2072  0.0190
   34DG     C11  770   4.718   3.618   4.765 -0.2277 -0.2399  0.1819
   34DG     C12  771   4.399   3.954   4.791  0.2036  0.0255 -0.1133
   34DG     H13  772   4.702   3.626   4.657  2.0812 -0.6259 -0.2290
   34DG     H14  773   4.818   3.581   4.782  0.2441 -0.0177 -1.8221
   34DG     H15  774   4.349   3.859   4.810 -0.1506  0.7809  3.5089
   34DG     H16  775   4.336   4.027   4.841  0.7112  2.6838 -3.0324
   34DG     C17  776   4.708   3.764   4.814 -0.3307  0.3871  0.8253
   34DG     C18  777   4.540   3.936   4.840  0.2093 -0.1752  0.7663
   34DG     O19  778   4.583   3.814   4.773  0.1165 -0.1644 -0.3985
   34DG     H20  779   4.790   3.826   4.776  1.5272 -0.8107  2.6072
   34DG     H21  780   4.723   3.751   4.921 -2.2355  1.5540  1.2790
   34DG     H22  781   4.606   4.020   4.821 -0.6976  1.0330  2.6465
   34DG     H23  782   4.542   3.912   4.946 -1.8631  0.4858  0.9996
   35DG      C1  783   5.566   4.391   4.584 -0.0406 -0.3792  0.7512
   35DG      C2  784   5.346   3.787   4.719  0.4672  0.3378  0.1596
   35DG      H3  785   5.584   4.488   4.630  2.0586  0.4675 -1.6132
   35DG      H4  786   5.486   4.399   4.510  0.8134  0.1226 -0.1478
   35DG      H5  787   5.658   4.369   4.531  0.5070  2.6836  0.2214
   35DG      H6  788   5.259   3.802   4.655 -0.0037 -0.2830  0.6415
   35DG      H7  789   5.432   3.754   4.661  0.0228  0.9101 -0.8580
   35DG      H8  790   5.323   3.706   4.789 -1.1996  0.5430 -0.1001
   35DG      O9  791   5.533   4.307   4.697  0.4720  0.2162  0.3869
   35DG     O10  792   5.373   3.906   4.790 -0.5594  0.0093 -0.4053
   35DG     C11  793   5.625   4.320   4.809  0.1992 -0.1316  0.7505
   35DG     C12  794   5.459   3.882   4.905  0.2400 -0.2832 -0.2711
   35DG     H13  795   5.636   4.426   4.834  0.0820 -0.2346  1.2569
   35DG     H14  796   5.724   4.288   4.778  0.6370  2.7604 -1.2928
   35DG     H15  797   5.554   3.835   4.877 -0.1546 -0.3381 -1.6136
   35DG     H16  798   5.406   3.817   4.974  1.9384 -2.1912 -0.6477
   35DG     C17  799   5.564   4.244   4.930 -0.3393  0.4261  0.4965
   35DG     C18  800   5.484   4.016   4.975  0.0280 -0.0587 -0.2125
   35DG     O19  801   5.552   4.104   4.888  0.2591 -0.3062 -0.8608
   35DG     H20  802   5.461   4.278   4.935 -0.9428 -1.1205 -0.5514
   35DG     H21  803   5.614   4.260   5.026  1.5720 -3.0701  0.2593
   35DG     H22  804   5.399   4.066   5.022  0.5777 -0.8751  1.7371
   35DG     H23  805   5.553   3.998   5.057 -0.5681 -0.1261  0.2844
   36DG      C1  806   5.201   0.363   2.453  0.0583  0.1144  0.2647
   36DG      C2  807   4.959   0.271   3.082 -0.4642 -0.4969 -0.4278
   36DG      H3  808   5.272   0.433   2.497 -1.0679  0.8212  1.0135
   36DG      H4  809   5.188   0.384   2.347 -1.4040  1.0729  0.6133
   36DG      H5  810   5.241   0.262   2.465 -3.2816 -1.4295 -0.3307
   36DG      H6  811   5.043   0.314   3.136  0.1124 -2.0755 -0.0037
   36DG      H7  812   4.872   0.270   3.148 -1.6342  1.5001 -1.8370
   36DG      H8  813   4.996   0.174   3.048  0.3386  0.5399 -2.7258
   36DG      O9  814   5.077   0.386   2.522  0.6308 -0.4380  0.2438
   36DG     O10  815   4.923   0.335   2.961  0.0008  0.1068  0.2525
   36DG     C11  816   5.016   0.521   2.519 -0.2630  0.2774  0.1552
   36DG     C12  817   4.897   0.470   2.978  0.5126  0.3093  0.1832
   36DG     H13  818   4.979   0.532   2.417  0.1088 -2.4696 -0.3727
   36DG     H14  819   5.088   0.599   2.541  1.9788 -1.0066 -2.0921
   36DG     H15  820   4.986   0.524   3.012 -0.2103  1.2337  0.6561
   36DG     H16  821   4.813   0.482   3.046 -2.6425 -0.0958 -3.3194
   36DG     C17  822   4.902   0.520   2.611  0.2632 -0.3426  0.8357
   36DG     C18  823   4.846   0.532   2.845 -0.0279  0.8936 -0.2663
   36DG     O19  824   4.940   0.494   2.741  0.7115 -0.1477  0.1498
   36DG     H20  825   4.832   0.444   2.576  0.1505  0.4416 -0.7186
   36DG     H21  826   4.848   0.614   2.598  0.2143 -0.7137 -2.4562
   36DG     H22  827   4.743   0.507   2.820  0.4709 -0.5429 -1.0535
   36DG     H23  828   4.844   0.640   2.855 -3.7238  0.8465  1.2182
   37DG      C1  829   5.254   1.397   3.292 -1.2019 -0.3836  0.3280
   37DG      C2  830   5.496   0.917   2.768 -0.3177  0.2441  0.3756
   37DG      H3  831   5.334   1.471   3.286 -1.5910  0.1590  1.5874
   37DG      H4  832   5.224   1.390   3.396  1.0290 -0.3349  1.0218
   37DG      H5  833   5.175   1.416   3.220  1.4325 -3.2168 -3.7653
   37DG      H6  834   5.551   0.976   2.694  0.4362 -1.6519 -0.6499
   37DG      H7  835   5.493   0.816   2.729 -1.0611  0.3689  0.1022
   37DG      H8  836   5.392   0.948   2.767  0.2052  2.1153 -0.3475
   37DG      O9  837   5.307   1.268   3.253 -0.2002 -0.4760  0.0535
   37DG     O10  838   5.556   0.942   2.898 -0.0133  0.0086  0.7726
   37DG     C11  839   5.424   1.218   3.321  0.1298  0.3377 -0.0868
   37DG     C12  840   5.554   1.083   2.916 -0.1691 -0.6339 -1.0711
   37DG     H13  841   5.405   1.220   3.429 -0.7762  1.2979 -0.2529
   37DG     H14  842   5.510   1.279   3.296 -0.1618  0.6201 -0.4078
   37DG     H15  843   5.471   1.140   2.875  0.2952  1.8039  1.0827
   37DG     H16  844   5.644   1.124   2.869 -1.0189  1.2792 -1.1303
   37DG     C17  845   5.465   1.072   3.272  0.9135 -0.3697  0.4424
   37DG     C18  846   5.564   1.127   3.060  0.2123 -0.3127  0.1512
   37DG     O19  847   5.455   1.063   3.126 -0.7108 -0.1067 -0.3867
   37DG     H20  848   5.396   0.995   3.306 -0.8994  0.3290 -1.4540
   37DG     H21  849   5.566   1.046   3.304  1.6670 -0.1257 -1.5441
   37DG     H22  850   5.664   1.102   3.097 -0.0424  0.2178  1.2578
   37DG     H23  851   5.544   1.234   3.055 -0.4592 -0.5066 -3.1678
   38DG      C1  852   4.429   5.346  -0.240  1.2813 -0.0587 -0.4390
   38DG      C2  853   4.009   5.408   0.447 -0.2566  0.6319  0.0237
   38DG      H3  854   4.508   5.417  -0.268  2.6232 -0.8272  1.2117
   38DG      H4  855   4.333   5.397  -0.242  1.3494  0.0543 -1.6682
   38DG      H5  856   4.415   5.259  -0.305 -3.0588  0.4183 -0.4163
   38DG      H6  857   3.981   5.507   0.412 -2.4025 -0.2368 -0.8947
   38DG      H7  858   3.927   5.337   0.433  0.9671 -0.5446 -1.5435
   38DG      H8  859   4.035   5.417   0.553 -2.8671  2.6850  0.6041
   38DG      O9  860   4.465   5.303  -0.105  0.2386 -1.0865  0.0240
   38DG     O10  861   4.122   5.364   0.370 -0.1953  0.5071 -0.3200
   38DG     C11  862   4.357   5.242  -0.038 -0.7493  0.1786 -0.5085
   38DG     C12  863   4.162   5.232   0.405  0.4001 -0.0862 -0.3962
   38DG     H13  864   4.339   5.142  -0.076  0.8580 -1.3699  2.4672
   38DG     H14  865   4.273   5.312  -0.046  0.0397  1.6096  2.2789
   38DG     H15  866   4.077   5.166   0.387  0.6698 -0.5218 -0.0935
   38DG     H16  867   4.201   5.235   0.507 -0.0430  0.9586 -0.2551
   38DG     C17  868   4.390   5.205   0.112  0.8018 -0.2109  0.3030
   38DG     C18  869   4.279   5.180   0.321 -0.4294 -0.0672 -0.2113
   38DG     O19  870   4.269   5.209   0.182  0.0446 -0.6152  0.1300
   38DG     H20  871   4.471   5.269   0.146  0.3375  1.1161 -1.0046
   38DG     H21  872   4.434   5.106   0.128  2.6818  0.5170 -0.0393
   38DG     H22  873   4.357   5.246   0.358 -1.1968 -0.5835  2.5423
   38DG     H23  874   4.297   5.073   0.331  0.6385  0.0860 -0.4365
   39DG      C1  875   4.705   0.278   1.398  0.7404 -1.0440 -0.1545
   39DG      C2  876   5.151   0.296   0.871  0.9256 -0.7340  0.1452
   39DG      H3  877   4.623   0.210   1.418  1.7375 -1.9466  1.0113
   39DG      H4  878   4.664   0.368   1.352 -2.7311 -3.4107 -2.0743
   39DG      H5  879   4.757   0.283   1.494  0.7080 -0.0103 -0.1734
   39DG      H6  880   5.230   0.327   0.940 -1.3634  0.3683  2.4609
   39DG      H7  881   5.202   0.258   0.782 -0.3383 -0.6888 -0.6208
   39DG      H8  882   5.082   0.378   0.853  1.0027 -0.7041 -0.0173
   39DG      O9  883   4.795   0.219   1.312 -0.0512 -0.4624 -0.3801
   39DG     O10  884   5.082   0.206   0.946  0.1851 -0.0699  0.4651
   39DG     C11  885   4.842   0.088   1.350 -0.0129 -0.3082 -0.1184
   39DG     C12  886   5.149   0.085   0.966 -0.3327 -1.2591 -0.2817
   39DG     H13  887   4.759   0.023   1.379 -0.2942  0.2700  0.4049
   39DG     H14  888   4.908   0.101   1.436 -0.5980  2.8811 -0.0424
   39DG     H15  889   5.229   0.111   1.035  0.2105  0.3003 -1.4252
   39DG     H16  890   5.191   0.045   0.873  1.7505  1.3658 -0.5965
   39DG     C17  891   4.891   0.001   1.229  0.7690  0.2006  0.3377
   39DG     C18  892   5.044  -0.002   1.037  0.7149 -0.1679 -0.1059
   39DG     O19  893   4.992   0.074   1.148 -0.0041  0.5198 -0.6239
   39DG     H20  894   4.808  -0.020   1.161  2.8110  2.8686 -3.3460
   39DG     H21  895   4.942  -0.089   1.264  0.0384  0.0438  1.0371
   39DG     H22  896   4.965  -0.040   0.972  0.5434  1.5605 -0.9601
   39DG     H23  897   5.093  -0.091   1.075  1.2889 -0.6032 -1.7653
   40DG      C1  898   3.991   3.583   3.301  0.5720 -0.4760 -0.5293
   40DG      C2  899   4.297   4.226   3.376 -0.1651 -0.0564  0.2189
   40DG      H3  900   3.885   3.563   3.286  0.5086 -0.0378 -0.6740
   40DG      H4  901   4.043   3.500   3.348  1.4709  0.4205  0.1009
   40DG      H5  902   4.029   3.597   3.199  0.0540 -0.8885 -0.7832
   40DG      H6  903   4.269   4.219   3.271 -0.4149 -1.5083  0.3557
   40DG      H7  904   4.227   4.291   3.427 -0.0663  0.1845  0.0502
   40DG      H8  905   4.402   4.256   3.372 -0.0944 -0.4168 -2.4651
   40DG      O9  906   4.016   3.703   3.373  0.1683 -0.0505 -0.2438
   40DG     O10  907   4.282   4.088   3.422 -0.9603 -0.3837 -0.6832
   40DG     C11  908   4.003   3.692   3.520 -0.2026  0.8120  0.5527
   40DG     C12  909   4.299   4.073   3.566  0.3794 -0.3219 -0.6526
   40DG     H13  910   3.955   3.601   3.556 -1.3925 -0.1336 -3.0772
   40DG     H14  911   3.927   3.756   3.564 -3.0522 -0.9272 -1.5499
   40DG     H15  912   4.222   4.134   3.612 -0.5031  1.0864 -3.6991
   40DG     H16  913   4.392   4.111   3.607  0.0788 -1.2462  0.9639
   40DG     C17  914   4.133   3.730   3.590 -0.5876 -0.3776 -0.5259
   40DG     C18  915   4.289   3.919   3.606  0.5347  0.1735  0.4702
   40DG     O19  916   4.163   3.860   3.550  0.0096  0.1735 -0.0783
   40DG     H20  917   4.218   3.661   3.587  0.3222  0.4485  2.5999
   40DG     H21  918   4.103   3.742   3.694 -2.1164  0.1233 -1.0001
   40DG     H22  919   4.374   3.864   3.566 -0.0861 -0.0178 -0.6251
   40DG     H23  920   4.285   3.899   3.713  1.3768 -0.4470  0.3967
   41DG      C1  921  -0.224  -0.284   0.835  0.8329  0.2573 -0.0578
   41DG      C2  922   0.346   0.247   0.854 -0.5217  0.5899  0.3814
   41DG      H3  923  -0.177  -0.377   0.803  3.0236  1.7209 -1.3891
   41DG      H4  924  -0.252  -0.224   0.748 -0.8573  0.5952  0.6977
   41DG      H5  925  -0.314  -0.310   0.890  1.7102 -2.4928  0.2586
   41DG      H6  926   0.430   0.184   0.826 -0.1915  1.1384  0.1281
   41DG      H7  927   0.321   0.305   0.765  2.3829  0.5774 -0.5312
   41DG      H8  928   0.378   0.317   0.931 -1.0360  0.7675  0.4382
   41DG      O9  929  -0.136  -0.228   0.930 -0.1564 -0.5769  1.2658
   41DG     O10  930   0.239   0.165   0.897 -0.1048 -0.4395  0.9026
   41DG     C11  931  -0.020  -0.172   0.872 -0.1512  0.0508 -0.4383
   41DG     C12  932   0.105   0.221   0.913 -0.4882 -0.0873  0.8240
   41DG     H13  933  -0.059  -0.110   0.792  1.2162 -0.8153 -1.8290
   41DG     H14  934   0.042  -0.254   0.835 -0.3173  0.7046 -2.2284
   41DG     H15  935   0.045   0.246   0.826 -1.2750 -1.2204  1.0243
   41DG     H16  936   0.135   0.322   0.941  3.6123  0.4153 -4.0152
   41DG     C17  937   0.042  -0.080   0.972  0.0450 -0.1181  0.7189
   41DG     C18  938   0.033   0.152   1.028  0.2938 -0.5000  0.1917
   41DG     O19  939  -0.035   0.040   0.977 -0.4363  0.0654  0.5366
   41DG     H20  940   0.142  -0.067   0.932 -0.7869 -0.8619 -1.8037
   41DG     H21  941   0.055  -0.110   1.076 -0.1606 -0.7726  0.5615
   41DG     H22  942   0.104   0.115   1.102  0.3831 -2.6985 -0.9214
   41DG     H23  943  -0.036   0.225   1.073  0.5562 -0.4792  0.5660
   42DG      C1  944   1.418   4.414   4.952  0.3249 -0.6224 -0.2541
   42DG      C2  945   2.021   3.903   5.227 -0.2252  0.1628 -0.1214
   42DG      H3  946   1.428   4.497   4.881  0.7937 -1.2376 -0.9156
   42DG      H4  947   1.384   4.440   5.052  2.1512  0.0057  0.2516
   42DG      H5  948   1.352   4.336   4.915 -0.8989 -0.1715  0.9007
   42DG      H6  949   2.008   3.944   5.327 -1.6361 -2.6797  0.9574
   42DG      H7  950   1.960   3.814   5.211  0.5944 -0.2938 -0.7601
   42DG      H8  951   2.128   3.885   5.226 -0.1976  0.3206 -0.5071
   42DG      O9  952   1.543   4.353   4.975  0.0979  0.0966  0.0221
   42DG     O10  953   1.986   4.002   5.127  0.0558 -0.0431  0.3994
   42DG     C11  954   1.651   4.442   5.005  0.3390 -0.0697 -0.6647
   42DG     C12  955   2.012   4.136   5.161 -0.2415 -0.4416 -0.5785
   42DG     H13  956   1.642   4.479   5.107 -1.2943 -0.3065 -0.7056
   42DG     H14  957   1.635   4.534   4.949  1.5490  0.1740 -0.6459
   42DG     H15  958   2.120   4.135   5.177 -0.2420  0.4272 -0.4577
   42DG     H16  959   1.957   4.183   5.243  1.7281  1.2501 -0.1513
   42DG     C17  960   1.791   4.392   4.973  0.0466 -0.2325 -0.4607
   42DG     C18  961   1.967   4.229   5.042 -0.1835  0.5774  0.4156
   42DG     O19  962   1.830   4.280   5.053  0.2133 -0.5877  0.3508
   42DG     H20  963   1.868   4.467   4.989  0.2551 -0.3746 -0.7943
   42DG     H21  964   1.784   4.375   4.865 -0.1644  0.9993 -0.6596
   42DG     H22  965   2.026   4.319   5.056 -0.5334  1.2191 -1.7750
   42DG     H23  966   1.986   4.180   4.947  0.8524 -0.3242  1.0704
   43DG      C1  967   4.666   3.159   0.862 -0.3745  0.3283  0.1114
   43DG      C2  968   3.908   3.064   1.002 -0.2779  0.5083 -0.2504
   43DG      H3  969   4.631   3.226   0.782 -1.3698 -0.0387  0.2245
   43DG      H4  970   4.702   3.067   0.816  2.9677  2.0246 -1.0007
   43DG      H5  971   4.744   3.203   0.924 -1.6537  1.3031  1.0811
   43DG      H6  972   3.931   3.170   0.998 -2.4580  1.0093 -1.7891
   43DG      H7  973   3.874   3.038   0.901 -0.4905 -1.4187  0.2672
   43DG      H8  974   3.827   3.042   1.071 -0.0240  1.6200  0.4222
   43DG      O9  975   4.557   3.129   0.948  0.6981 -0.6954 -0.4466
   43DG     O10  976   4.011   2.972   1.036  0.3323 -0.0718 -0.1713
   43DG     C11  977   4.572   3.014   1.033  0.5349  0.1769  0.4025
   43DG     C12  978   4.138   3.011   0.990 -0.6929 -0.3343  0.3557
   43DG     H13  979   4.644   3.029   1.113  2.0003 -0.8171 -0.6705
   43DG     H14  980   4.615   2.929   0.980  0.2510  1.0537 -1.3035
   43DG     H15  981   4.175   3.076   1.069 -1.3311 -0.5370  0.8295
   43DG     H16  982   4.133   3.062   0.895  1.3801 -1.5717 -0.4921
   43DG     C17  983   4.433   2.968   1.070  0.6893  0.5299 -0.6212
   43DG     C18  984   4.236   2.895   0.974  0.4515  0.3469  0.0026
   43DG     O19  985   4.366   2.944   0.949 -0.0805 -0.3244  0.1750
   43DG     H20  986   4.377   3.051   1.114  0.6131 -0.6821  1.7125
   43DG     H21  987   4.431   2.890   1.145 -0.3120  0.1257 -1.0613
   43DG     H22  988   4.226   2.827   1.059 -0.1488 -0.0819 -0.4008
   43DG     H23  989   4.203   2.852   0.879  1.2553 -0.4436  0.0656
   44DG      C1  990   2.916   0.710   3.309 -1.0792  1.2548 -0.0906
   44DG      C2  991   2.976   0.194   2.815  0.7993 -0.8147  0.3919
   44DG      H3  992   2.927   0.811   3.350  0.6508  1.0975 -0.0932
   44DG      H4  993   2.978   0.637   3.361 -2.3482 -0.4055 -0.8157
   44DG      H5  994   2.814   0.674   3.321 -0.3969 -1.6861 -2.0136
   44DG      H6  995   3.017   0.139   2.900  1.4217  1.0902  1.3915
   44DG      H7  996   2.887   0.147   2.774  0.7572 -2.7606  2.4833
   44DG      H8  997   3.052   0.187   2.737  0.9184 -0.5773  0.4846
   44DG      O9  998   2.953   0.699   3.169  0.1963 -0.0368  0.0497
   44DG     O10  999   2.963   0.333   2.861 -0.1954  0.0592 -0.3988
   44DG     C11 1000   2.864   0.776   3.088  0.2801  0.0443 -0.0910
   44DG     C12 1001   2.898   0.423   2.768  0.5291 -0.7751 -0.2610
   44DG     H13 1002   2.882   0.882   3.101 -1.1406  0.4982 -1.4999
   44DG     H14 1003   2.765   0.750   3.126 -0.0893  1.8079  0.2482
   44DG     H15 1004   2.792   0.402   2.754  0.7147 -1.7560 -0.2892
   44DG     H16 1005   2.930   0.400   2.667 -0.8981  1.2397 -1.2350
   44DG     C17 1006   2.881   0.732   2.943 -0.1440  0.3899  0.3086
   44DG     C18 1007   2.924   0.571   2.796  0.2530 -0.0945  0.0745
   44DG     O19 1008   2.873   0.594   2.919  0.0228 -0.1375  0.7842
   44DG     H20 1009   2.974   0.764   2.897  0.0469 -2.7280 -1.7480
   44DG     H21 1010   2.800   0.778   2.886 -0.7345 -0.6881  0.2515
   44DG     H22 1011   3.025   0.602   2.769 -0.0383 -1.3137 -2.6878
   44DG     H23 1012   2.866   0.632   2.727  1.3647 -0.2060 -0.9912
   45DG      C1 1013   2.289   2.572   3.234 -0.5209  0.1266 -0.2539
   45DG      C2 1014   2.946   2.764   3.793  0.2762  0.6825  0.8489
   45DG      H3 1015   2.237   2.519   3.154 -0.4533  1.1721 -1.0095
   45DG      H4 1016   2.335   2.659   3.188  4.1014 -1.6417  0.4708
   45DG      H5 1017   2.218   2.605   3.309 -2.5716 -1.9068 -1.1747
   45DG      H6 1018   3.045   2.719   3.793  0.2581  0.5730 -1.3292
   45DG      H7 1019   2.962   2.867   3.762  0.9650  0.7149  1.2869
   45DG      H8 1020   2.905   2.762   3.895 -0.4905  0.2213  0.5426
   45DG      O9 1021   2.404   2.497   3.283  0.5826  0.2442 -0.3261
   45DG     O10 1022   2.856   2.683   3.709 -0.3383 -0.6414 -0.3278
   45DG     C11 1023   2.490   2.577   3.372  0.7522  0.1593  0.3535
   45DG     C12 1024   2.903   2.648   3.572  0.4931  0.1160 -0.5710
   45DG     H13 1025   2.426   2.616   3.451 -1.6253  0.6245 -1.6485
   45DG     H14 1026   2.537   2.657   3.315  2.6084 -2.0544 -1.3902
   45DG     H15 1027   3.007   2.619   3.579  0.5116  0.4593  0.8706
   45DG     H16 1028   2.890   2.738   3.512 -1.6580 -0.6468 -1.3458
   45DG     C17 1029   2.602   2.498   3.427 -0.6117  0.3372  0.2971
   45DG     C18 1030   2.821   2.536   3.512 -0.2690  0.4865  0.2778
   45DG     O19 1031   2.692   2.577   3.513  0.5588 -0.2203  0.1822
   45DG     H20 1032   2.663   2.451   3.350  1.4163  1.8039  0.9359
   45DG     H21 1033   2.554   2.419   3.487  0.8904  0.2817  1.4709
   45DG     H22 1034   2.861   2.531   3.411  0.1202  2.2886  0.3022
   45DG     H23 1035   2.837   2.442   3.563  2.0341  1.0966  0.7684
   46DG      C1 1036   0.467   2.409   3.052 -0.2452  0.5397  0.6805
   46DG      C2 1037  -0.078   2.133   2.873 -0.2187 -1.0972  0.0414
   46DG      H3 1038   0.546   2.366   3.114 -0.7477 -0.0132  0.9565
   46DG      H4 1039   0.469   2.517   3.065 -2.5785  0.5402  1.5297
   46DG      H5 1040   0.498   2.394   2.949  0.1401  0.3401  0.8226
   46DG      H6 1041  -0.067   2.241   2.880 -1.9509 -0.8544 -0.5604
   46DG      H7 1042   0.023   2.092   2.885  0.0792 -0.4787 -0.3139
   46DG      H8 1043  -0.118   2.099   2.778 -0.8670 -1.6243  0.4865
   46DG      O9 1044   0.335   2.369   3.091  0.3947 -0.3014  0.2408
   46DG     O10 1045  -0.156   2.083   2.978  0.2029  0.1668 -0.5476
   46DG     C11 1046   0.310   2.231   3.074  0.1924 -0.1239  0.0896
   46DG     C12 1047  -0.125   2.130   3.110 -0.2949  0.6462  0.0427
   46DG     H13 1048   0.375   2.160   3.125 -0.4106 -0.6084  0.2003
   46DG     H14 1049   0.312   2.208   2.967 -1.8172 -2.3156  0.4239
   46DG     H15 1050  -0.211   2.119   3.177  0.0406  0.6566  0.4796
   46DG     H16 1051  -0.104   2.236   3.096  0.7322  0.5854  0.9887
   46DG     C17 1052   0.169   2.213   3.140 -0.0392 -0.1417  0.2895
   46DG     C18 1053  -0.008   2.053   3.183  0.0126 -0.3101 -0.0782
   46DG     O19 1054   0.124   2.075   3.127 -0.0302 -0.1808 -0.1583
   46DG     H20 1055   0.108   2.279   3.080 -0.0246  0.8141  1.2909
   46DG     H21 1056   0.178   2.247   3.244  0.8136 -0.2661  0.2625
   46DG     H22 1057  -0.009   2.078   3.290 -0.3578  0.0138 -0.1530
   46DG     H23 1058  -0.037   1.949   3.175  2.4995 -1.0337 -0.2572
   47DG      C1 1059   2.152   2.516   2.694 -0.5099  0.4350  0.1099
   47DG      C2 1060   2.175   1.847   3.089  0.7594  0.2030  0.3205
   47DG      H3 1061   2.141   2.582   2.779 -0.0569  0.7546 -0.0779
   47DG      H4 1062   2.056   2.488   2.649 -0.0393 -1.6296  0.3029
   47DG      H5 1063   2.203   2.575   2.618  0.7431 -2.9331 -1.9315
   47DG      H6 1064   2.097   1.892   3.150 -1.6198  0.4119 -2.6140
   47DG      H7 1065   2.115   1.796   3.014  0.2970  0.6248  0.4068
   47DG      H8 1066   2.230   1.772   3.147 -0.7761 -0.7272  0.6271
   47DG      O9 1067   2.233   2.402   2.738 -0.0255 -0.0898  0.4549
   47DG     O10 1068   2.249   1.948   3.033 -0.2995 -0.0555 -0.3220
   47DG     C11 1069   2.167   2.310   2.822  0.2859 -0.1929  0.1187
   47DG     C12 1070   2.344   1.890   2.940 -1.0291  0.0880 -0.5192
   47DG     H13 1071   2.093   2.268   2.754  1.0002 -0.7473 -0.3281
   47DG     H14 1072   2.114   2.361   2.903 -0.7584  1.5731 -1.6152
   47DG     H15 1073   2.306   1.809   2.878 -1.7616 -0.2088  0.3057
   47DG     H16 1074   2.427   1.848   2.997 -0.9592 -0.7556 -1.2148
   47DG     C17 1075   2.263   2.204   2.891  0.0592 -0.9412 -0.2879
   47DG     C18 1076   2.406   2.011   2.858  0.4583 -0.0366 -0.2064
   47DG     O19 1077   2.315   2.104   2.800 -0.2852  0.1044 -0.0140
   47DG     H20 1078   2.203   2.168   2.975 -2.9963  1.6815 -1.1205
   47DG     H21 1079   2.347   2.259   2.932 -0.2734 -0.3466 -0.3849
   47DG     H22 1080   2.480   2.067   2.915  1.3967 -2.3871  1.0365
   47DG     H23 1081   2.459   1.963   2.776  3.3723  0.5470  1.1955
   48DG      C1 1082   3.371   5.653   4.394  0.2745 -0.1124 -0.6828
   48DG      C2 1083   3.734   5.235   4.076  0.1624  0.3863 -0.0082
   48DG      H3 1084   3.297   5.692   4.464  0.3349 -1.8958  0.4415
   48DG      H4 1085   3.322   5.605   4.309 -0.0183 -1.9472  0.4827
   48DG      H5 1086   3.437   5.735   4.366  1.8620 -0.8802  0.6322
   48DG      H6 1087   3.811   5.313   4.075 -1.4748  2.0740  0.6938
   48DG      H7 1088   3.776   5.150   4.022 -0.1864  0.0475  0.2458
   48DG      H8 1089   3.649   5.276   4.022 -0.2476 -0.0996  0.2522
   48DG      O9 1090   3.463   5.568   4.460 -0.2827  0.4262  0.1869
   48DG     O10 1091   3.698   5.227   4.214 -0.5596  0.6843 -0.5497
   48DG     C11 1092   3.417   5.469   4.542 -0.3230 -0.3322  0.0392
   48DG     C12 1093   3.609   5.130   4.252  0.0506 -0.1882 -0.3533
   48DG     H13 1094   3.330   5.498   4.601 -0.4949  0.9829 -0.8301
   48DG     H14 1095   3.494   5.455   4.618  1.0428  1.1823 -1.0001
   48DG     H15 1096   3.658   5.075   4.332 -1.4462  1.2652  1.6816
   48DG     H16 1097   3.604   5.053   4.175  1.0583 -0.4040 -0.2063
   48DG     C17 1098   3.379   5.340   4.467  0.0193  0.5018  0.4598
   48DG     C18 1099   3.471   5.191   4.298  0.0200  0.4411 -0.0650
   48DG     O19 1100   3.495   5.283   4.403 -0.1092 -0.2276  0.1773
   48DG     H20 1101   3.298   5.360   4.398  1.3879  1.2495 -0.9933
   48DG     H21 1102   3.340   5.266   4.537 -0.0550 -0.8379 -0.9326
   48DG     H22 1103   3.438   5.240   4.207  0.0678 -1.3691 -1.1172
   48DG     H23 1104   3.403   5.115   4.338  1.1902  0.2482  1.7156
   49DG      C1 1105   0.114   4.781   2.943  0.2548  0.1883  0.6359
   49DG      C2 1106   0.364   4.983   3.377  0.7197 -0.1338 -0.3778
   49DG      H3 1107   0.148   4.679   2.924  1.5548  1.1174 -2.8274
   49DG      H4 1108   0.012   4.771   2.978 -0.5138  2.3352 -0.7604
   49DG      H5 1109   0.183   4.819   3.019  1.5221 -1.2995  0.2713
   49DG      H6 1110   0.452   4.957   3.318  1.5935 -0.6771  1.1090
   49DG      H7 1111   0.386   5.057   3.454 -2.4710  0.4558  0.0961
   49DG      H8 1112   0.335   4.891   3.428  0.1848  0.8405  1.1413
   49DG      O9 1113   0.132   4.851   2.824 -0.5606 -0.1111  0.7115
   49DG     O10 1114   0.266   5.038   3.285  0.2161  0.2818 -0.1898
   49DG     C11 1115   0.089   4.981   2.821  0.3203 -0.4084  0.1400
   49DG     C12 1116   0.287   5.159   3.223 -0.3951  0.0605  0.1367
   49DG     H13 1117   0.005   4.996   2.888  0.7799 -1.1422  0.8949
   49DG     H14 1118   0.067   4.993   2.715  0.9917 -1.5365 -0.1479
   49DG     H15 1119   0.367   5.214   3.273 -0.1402  1.8539 -2.0707
   49DG     H16 1120   0.201   5.223   3.242  1.1070  2.3532 -0.3957
   49DG     C17 1121   0.201   5.079   2.865  0.5880  0.5255  0.3486
   49DG     C18 1122   0.308   5.141   3.073 -0.1470  0.2546  0.2910
   49DG     O19 1123   0.207   5.064   3.009  0.3227 -0.0490 -0.6248
   49DG     H20 1124   0.194   5.183   2.833  2.2872  0.7689  0.6989
   49DG     H21 1125   0.298   5.040   2.836 -0.0980  0.3350 -1.9183
   49DG     H22 1126   0.312   5.238   3.024 -2.1932 -0.3237 -1.1515
   49DG     H23 1127   0.401   5.084   3.070 -1.4235 -1.9557  0.5052
   50DG      C1 1128   4.321   1.720   2.489 -0.5194 -0.8395  0.0023
   50DG      C2 1129   4.221   2.103   3.199  0.7093  0.8224  0.2517
   50DG      H3 1130   4.389   1.635   2.482  0.1649 -0.2238 -0.8814
   50DG      H4 1131   4.346   1.758   2.390 -1.7489  0.8869  0.3188
   50DG      H5 1132   4.220   1.682   2.505 -0.6618 -0.3258  0.3148
   50DG      H6 1133   4.205   1.997   3.216 -0.0007  0.5727 -1.7061
   50DG      H7 1134   4.288   2.144   3.275  0.4116 -0.3706  1.1781
   50DG      H8 1135   4.127   2.155   3.212  0.5804  0.3055  1.5450
   50DG      O9 1136   4.370   1.804   2.592  0.1131  0.1516  0.2681
   50DG     O10 1137   4.274   2.109   3.069 -0.2454  0.1218 -0.5678
   50DG     C11 1138   4.304   1.928   2.586 -0.4947  0.1179 -0.6410
   50DG     C12 1139   4.389   2.029   3.050 -0.4295 -0.0460 -0.3761
   50DG     H13 1140   4.198   1.908   2.605 -0.3468 -3.2031 -2.4886
   50DG     H14 1141   4.324   1.967   2.487 -0.7702  1.4458 -0.1876
   50DG     H15 1142   4.356   1.929   3.078 -0.4459  0.3405  1.0260
   50DG     H16 1143   4.472   2.055   3.115  1.3347 -1.0233 -2.1045
   50DG     C17 1144   4.371   2.021   2.690  0.1356 -0.0791  0.0682
   50DG     C18 1145   4.433   2.047   2.904 -0.2104  0.4375  0.0254
   50DG     O19 1146   4.336   1.989   2.821 -0.0565 -0.0501 -0.0985
   50DG     H20 1147   4.342   2.123   2.665  1.7745  0.4110  0.0433
   50DG     H21 1148   4.478   2.020   2.671  0.3753 -0.7992  1.3500
   50DG     H22 1149   4.429   2.154   2.883  1.3534  0.4505 -0.3216
   50DG     H23 1150   4.532   2.004   2.888 -0.6561 -0.5220 -0.2246
   51DG      C1 1151   1.370   0.622   3.241  0.2096  0.6184 -0.2505
   51DG      C2 1152   1.913   1.013   2.782 -0.2970  0.0308  0.7075
   51DG      H3 1153   1.469   0.589   3.274 -0.2444  0.6671  1.2510
   51DG      H4 1154   1.314   0.529   3.236  2.7799 -1.0083 -0.9837
   51DG      H5 1155   1.324   0.683   3.319  1.3657  0.5863  0.5001
   51DG      H6 1156   1.976   0.925   2.779  1.1060  0.9547  1.8739
   51DG      H7 1157   1.937   1.078   2.697  1.8240 -0.7979  0.6076
   51DG      H8 1158   1.934   1.064   2.876 -0.9692 -0.0298  0.8962
   51DG      O9 1159   1.375   0.674   3.112 -0.1742  0.1133  0.0544
   51DG     O10 1160   1.780   0.970   2.784  0.3866 -0.5128  0.4167
   51DG     C11 1161   1.473   0.778   3.101 -0.6282 -0.4648  0.1867
   51DG     C12 1162   1.694   1.076   2.821  0.7901 -0.2150  0.4708
   51DG     H13 1163   1.574   0.741   3.116 -0.4705  0.0413  0.4074
   51DG     H14 1164   1.462   0.850   3.183 -0.8484  1.2661 -1.3078
   51DG     H15 1165   1.681   1.152   2.744 -0.7339  2.1594  2.8918
   51DG     H16 1166   1.723   1.122   2.915 -1.1571 -1.3353  1.6837
   51DG     C17 1167   1.449   0.858   2.979  0.7553 -0.2445  0.1635
   51DG     C18 1168   1.553   1.021   2.842 -0.0624 -0.2336  0.6374
   51DG     O19 1169   1.563   0.940   2.952 -0.2435  0.0152  0.0635
   51DG     H20 1170   1.362   0.923   2.987  1.3074  0.6061 -0.5756
   51DG     H21 1171   1.428   0.798   2.890  1.2760  1.4225 -1.1492
   51DG     H22 1172   1.466   1.087   2.833 -0.2569 -0.7185 -1.6455
   51DG     H23 1173   1.524   0.955   2.760  0.2897 -2.0356  1.9073
   52DG      C1 1174   4.324   5.287   2.451  0.3179 -0.3659  0.5351
   52DG      C2 1175   3.786   5.249   2.365  0.3467 -0.3663 -0.2830
   52DG      H3 1176   4.330   5.377   2.389 -0.2402  0.2708  1.3897
   52DG      H4 1177   4.265   5.210   2.401 -0.9645  0.3377  0.9064
   52DG      H5 1178   4.422   5.241   2.456 -0.3843 -2.0888 -0.6297
   52DG      H6 1179   3.815   5.204   2.270 -1.8684  2.2964 -2.3920
   52DG      H7 1180   3.686   5.211   2.387  0.6184 -0.4065  0.8955
   52DG      H8 1181   3.776   5.357   2.354  0.0897 -0.4647 -1.1421
   52DG      O9 1182   4.261   5.317   2.577 -0.4172  0.2760 -0.1138
   52DG     O10 1183   3.884   5.234   2.458 -0.1855  0.2659 -0.4778
   52DG     C11 1184   4.280   5.215   2.675 -0.3734  0.3626  0.5322
   52DG     C12 1185   3.909   5.092   2.475  0.0331  0.5944 -0.2350
   52DG     H13 1186   4.259   5.254   2.775 -0.1456  3.7456 -0.6201
   52DG     H14 1187   4.384   5.186   2.684  0.0486  0.7007 -2.3944
   52DG     H15 1188   3.972   5.038   2.404  0.8116 -0.1183  0.9455
   52DG     H16 1189   3.817   5.033   2.478  0.8281 -0.6670  0.7764
   52DG     C17 1190   4.186   5.102   2.665 -0.5598  0.4562  0.0355
   52DG     C18 1191   3.955   5.067   2.622  0.2647 -0.3755  0.5814
   52DG     O19 1192   4.058   5.152   2.658  0.3866  0.3510 -0.5386
   52DG     H20 1193   4.204   5.024   2.740  1.7683 -0.9907 -1.8484
   52DG     H21 1194   4.209   5.054   2.569 -0.8499  2.5632 -1.1359
   52DG     H22 1195   3.868   5.106   2.674 -0.1830  0.7505 -0.9429
   52DG     H23 1196   3.963   4.963   2.652  1.3567 -0.6826 -0.6920
   53DG      C1 1197   1.702   0.080  -0.108 -0.0352 -0.3858 -0.3515
   53DG      C2 1198   2.292   0.119   0.406  0.5409  0.8113  0.7169
   53DG      H3 1199   1.601   0.041  -0.096 -1.1492  2.5078  0.6266
   53DG      H4 1200   1.775   0.001  -0.095 -0.9688 -1.2919 -0.5429
   53DG      H5 1201   1.719   0.112  -0.211  1.7451 -0.5784 -0.1604
   53DG      H6 1202   2.333   0.022   0.438  2.3287  2.0925  2.5823
   53DG      H7 1203   2.360   0.178   0.344  1.3301  0.0707  0.8502
   53DG      H8 1204   2.294   0.181   0.496  1.3725  1.2340  0.4202
   53DG      O9 1205   1.744   0.182  -0.019  0.1962  0.7617  0.2488
   53DG     O10 1206   2.160   0.130   0.355 -0.4525 -0.1999  0.1803
   53DG     C11 1207   1.713   0.128   0.116 -0.3716  0.6034  0.6504
   53DG     C12 1208   2.148   0.106   0.214 -0.3712  0.1080  0.3124
   53DG     H13 1209   1.736   0.022   0.123 -2.2638  0.2483  2.6245
   53DG     H14 1210   1.605   0.139   0.129 -0.3211  1.2260  0.5969
   53DG     H15 1211   2.196   0.013   0.182 -0.9173 -0.6278  1.5740
   53DG     H16 1212   2.191   0.199   0.178 -0.4768 -0.0162 -0.1537
   53DG     C17 1213   1.783   0.201   0.225 -0.3034 -0.0966 -0.5535
   53DG     C18 1214   2.001   0.089   0.174  0.4181  0.5405 -0.0634
   53DG     O19 1215   1.926   0.209   0.207 -0.2248 -0.2959  0.6309
   53DG     H20 1216   1.757   0.141   0.312  0.0124 -1.7739 -1.5678
   53DG     H21 1217   1.737   0.299   0.237  3.9744  2.5832 -3.3292
   53DG     H22 1218   1.995   0.060   0.069 -0.1843 -1.0294  0.3862
   53DG     H23 1219   1.946   0.013   0.228  0.9918 -2.2042 -2.9905
   54DG      C1 1220   1.333   0.906   0.313 -0.5998 -1.1003  0.9932
   54DG      C2 1221   1.673   0.546  -0.315  0.6572 -0.5578 -0.3346
   54DG      H3 1222   1.249   0.921   0.380 -0.6333 -0.8322  0.8943
   54DG      H4 1223   1.419   0.970   0.334  0.5497 -2.2626 -0.0379
   54DG      H5 1224   1.374   0.808   0.336  1.4295 -1.0019 -1.6950
   54DG      H6 1225   1.709   0.443  -0.308 -1.5449 -1.3747 -0.2641
   54DG      H7 1226   1.604   0.576  -0.394 -0.6534  0.2904  1.0648
   54DG      H8 1227   1.764   0.605  -0.311  1.5477 -1.9549  2.8840
   54DG      O9 1228   1.299   0.932   0.177  0.1494 -0.2912  0.1974
   54DG     O10 1229   1.597   0.566  -0.204  0.1102 -0.4148 -0.3094
   54DG     C11 1230   1.402   0.880   0.088 -0.4130  0.3727 -0.0163
   54DG     C12 1231   1.650   0.518  -0.084 -0.4103  0.6012  0.4262
   54DG     H13 1232   1.499   0.923   0.112  1.3163 -1.9550 -2.2374
   54DG     H14 1233   1.387   0.905  -0.016 -2.4262  1.7469  0.5580
   54DG     H15 1234   1.746   0.558  -0.053 -0.1468  2.4904 -2.5031
   54DG     H16 1235   1.657   0.409  -0.092 -1.7819  0.6176 -1.4935
   54DG     C17 1236   1.401   0.725   0.085  0.0185 -0.4710  0.1371
   54DG     C18 1237   1.539   0.546   0.018  0.0784  0.1714  1.2047
   54DG     O19 1238   1.518   0.690   0.014 -0.3583  0.4899  0.1894
   54DG     H20 1239   1.313   0.684   0.034  1.4578 -0.0278 -2.9222
   54DG     H21 1240   1.393   0.674   0.181  0.1312  0.1335  0.4748
   54DG     H22 1241   1.444   0.496   0.002 -1.4786  3.5380 -1.4302
   54DG     H23 1242   1.576   0.517   0.116  1.5948  1.5957  1.0975
   55DG      C1 1243   4.041   1.280   1.379  0.2566 -0.3530  0.2354
   55DG      C2 1244   3.639   1.669   1.658  0.5970 -0.1384  0.6794
   55DG      H3 1245   4.026   1.241   1.278  0.9718 -1.0963  0.4049
   55DG      H4 1246   3.994   1.209   1.447  1.0273 -0.0858  1.0621
   55DG      H5 1247   4.141   1.305   1.414 -0.0631  1.8409 -0.2760
   55DG      H6 1248   3.632   1.577   1.716  1.8648 -0.1080  0.9162
   55DG      H7 1249   3.615   1.762   1.709  1.3624 -0.4690  1.6837
   55DG      H8 1250   3.573   1.664   1.572  2.9170  0.5111 -1.2399
   55DG      O9 1251   3.959   1.401   1.387  0.6074  0.5042 -0.6664
   55DG     O10 1252   3.775   1.672   1.610 -0.2272 -0.7575 -0.5520
   55DG     C11 1253   4.004   1.505   1.301  0.2245  0.8775  0.0243
   55DG     C12 1254   3.798   1.801   1.547 -0.0162  0.7957 -0.4176
   55DG     H13 1255   3.973   1.498   1.197 -2.8565 -1.1869  0.9564
   55DG     H14 1256   4.112   1.512   1.315  0.3307 -2.3603  1.9300
   55DG     H15 1257   3.778   1.880   1.619  1.0129  0.3931  0.3206
   55DG     H16 1258   3.733   1.812   1.460 -2.8218  0.2179  1.4822
   55DG     C17 1259   3.953   1.645   1.342  0.6434  0.3294  0.1792
   55DG     C18 1260   3.940   1.807   1.504 -0.4181  0.3424  0.1566
   55DG     O19 1261   3.995   1.677   1.468  0.3453  0.5241  0.8703
   55DG     H20 1262   3.844   1.647   1.348  0.7203  1.3945  1.8758
   55DG     H21 1263   3.983   1.718   1.267  2.1009  1.2930  1.6352
   55DG     H22 1264   3.955   1.890   1.435 -2.3070 -0.8353 -1.7920
   55DG     H23 1265   4.005   1.845   1.583  1.2559 -1.0008 -0.4989
   56DG      C1 1266   4.656   5.053   3.684 -1.2002  0.0458  0.4958
   56DG      C2 1267   5.095   5.452   3.418 -0.2758  0.1457  0.2861
   56DG      H3 1268   4.673   4.945   3.688  0.8660  0.1958 -1.9659
   56DG      H4 1269   4.592   5.063   3.597 -0.4481 -1.4367 -0.2689
   56DG      H5 1270   4.598   5.091   3.768  0.0455  2.9162  0.1564
   56DG      H6 1271   5.027   5.502   3.349  0.6628 -1.2859 -1.8071
   56DG      H7 1272   5.196   5.493   3.414  0.3913 -0.9861  3.0549
   56DG      H8 1273   5.100   5.354   3.370  1.1067  1.6603 -2.9804
   56DG      O9 1274   4.785   5.122   3.677  0.0659  0.0487 -0.2784
   56DG     O10 1275   5.042   5.462   3.550  0.6970  0.6931 -0.0110
   56DG     C11 1276   4.863   5.100   3.801  0.4379  0.4211 -0.3643
   56DG     C12 1277   5.128   5.405   3.653 -0.2427 -0.3455 -0.4245
   56DG     H13 1278   4.907   5.000   3.812 -0.0702  0.1665 -0.6150
   56DG     H14 1279   4.811   5.127   3.893  0.6752  1.3142 -0.4830
   56DG     H15 1280   5.226   5.450   3.664 -0.2924  0.1128 -1.6448
   56DG     H16 1281   5.163   5.306   3.623  0.9573 -0.5867  1.6000
   56DG     C17 1282   4.983   5.181   3.804  0.0287 -0.0269  0.2422
   56DG     C18 1283   5.054   5.402   3.790 -0.7168 -0.9201  0.2462
   56DG     O19 1284   4.945   5.318   3.800  0.3721  0.1680 -0.2624
   56DG     H20 1285   5.033   5.153   3.712 -1.4606 -0.6082 -0.4279
   56DG     H21 1286   5.048   5.169   3.890  1.1827 -0.1798 -0.6337
   56DG     H22 1287   5.122   5.381   3.872  0.1736  2.6809  0.6188
   56DG     H23 1288   5.004   5.495   3.818  0.7260 -0.7667  2.5424
   57DG      C1 1289   1.990   1.263   4.572  0.1298  0.4703  0.1160
   57DG      C2 1290   2.261   1.071   3.918 -0.7102  0.1345 -0.8096
   57DG      H3 1291   1.905   1.251   4.639  0.6180  2.5396  1.1809
   57DG      H4 1292   1.955   1.337   4.500  0.1962  0.9818  0.6084
   57DG      H5 1293   2.078   1.299   4.625 -0.0980 -2.3761  2.6649
   57DG      H6 1294   2.226   1.104   3.820 -1.1417 -0.8255 -0.9860
   57DG      H7 1295   2.332   1.137   3.968 -1.1482  0.0201 -0.0254
   57DG      H8 1296   2.322   0.984   3.896 -0.2726  0.4151 -0.7203
   57DG      O9 1297   2.022   1.140   4.505  0.5510 -0.3409  0.3041
   57DG     O10 1298   2.161   1.040   4.016 -0.0851 -0.4884 -0.0492
   57DG     C11 1299   1.907   1.085   4.444 -1.0197  0.4179 -0.2539
   57DG     C12 1300   2.136   1.154   4.097  0.7014  0.3412 -0.2336
   57DG     H13 1301   1.841   1.151   4.387 -1.6153 -0.3164 -0.4382
   57DG     H14 1302   1.846   1.057   4.529  0.8533  4.9496  2.9857
   57DG     H15 1303   2.115   1.232   4.024 -1.9847 -0.1023 -0.0468
   57DG     H16 1304   2.220   1.179   4.161 -1.0207 -1.2532  2.8848
   57DG     C17 1305   1.965   0.970   4.351 -0.5241  0.3682 -0.1400
   57DG     C18 1306   2.016   1.130   4.176  0.5228  0.4031 -0.0345
   57DG     O19 1307   2.058   1.016   4.255  0.1518  0.1004 -0.5951
   57DG     H20 1308   1.885   0.921   4.297 -0.1374 -0.0271 -0.3655
   57DG     H21 1309   2.013   0.898   4.417 -1.5181 -2.3398 -2.1908
   57DG     H22 1310   2.001   1.210   4.248 -0.2065  1.6191 -1.4865
   57DG     H23 1311   1.931   1.106   4.112 -0.3381  2.9174  0.0817
   58DG      C1 1312   3.389   2.986   1.524 -0.3941  0.6201 -0.7355
   58DG      C2 1313   3.052   3.557   0.976  0.8359  0.2905  0.7501
   58DG      H3 1314   3.479   2.929   1.550 -0.0908  1.7247  0.7653
   58DG      H4 1315   3.316   2.913   1.490 -1.3639  0.6516  1.1298
   58DG      H5 1316   3.349   3.031   1.615  0.9970  1.8159 -0.6774
   58DG      H6 1317   3.075   3.655   0.935 -0.8933  1.3054  2.0677
   58DG      H7 1318   3.033   3.484   0.897  3.1151  0.2348  0.2000
   58DG      H8 1319   2.964   3.559   1.041 -0.6587 -0.8057 -1.1070
   58DG      O9 1320   3.429   3.085   1.434 -0.2859  0.4203  1.0328
   58DG     O10 1321   3.157   3.515   1.057  0.5483 -0.4333 -0.0213
   58DG     C11 1322   3.315   3.161   1.386  0.4463  0.0437 -0.0593
   58DG     C12 1323   3.171   3.582   1.186  0.0372 -0.1908  0.0598
   58DG     H13 1324   3.251   3.179   1.472  2.5717 -2.4939  2.2384
   58DG     H14 1325   3.258   3.101   1.315  1.9786  0.4998 -1.7443
   58DG     H15 1326   3.082   3.575   1.247  0.9743  0.4052  1.5365
   58DG     H16 1327   3.214   3.682   1.172  0.6482 -0.3044  1.0474
   58DG     C17 1328   3.349   3.299   1.336  0.4976 -0.0493 -0.1181
   58DG     C18 1329   3.281   3.499   1.262 -0.0600  0.2840  0.6470
   58DG     O19 1330   3.234   3.376   1.303  0.2463 -0.0103 -0.1391
   58DG     H20 1331   3.398   3.276   1.241 -0.5659 -0.5241 -0.5701
   58DG     H21 1332   3.420   3.342   1.407  0.6721  0.5078 -0.6184
   58DG     H22 1333   3.373   3.492   1.203 -0.0884 -1.8377  0.7873
   58DG     H23 1334   3.293   3.552   1.356 -0.3011  0.2778  0.6821
   59DG      C1 1335   4.473   1.977   4.588  0.4659  0.5207  0.5781
   59DG      C2 1336   3.900   1.670   4.646 -0.0193  0.5255 -0.1874
   59DG      H3 1337   4.415   2.069   4.585  0.2770  0.3891 -1.2298
   59DG      H4 1338   4.564   1.987   4.530  0.1586 -0.4740 -0.1014
   59DG      H5 1339   4.492   1.951   4.692 -1.4896  0.5385  0.9944
   59DG      H6 1340   3.817   1.613   4.604  0.0965 -0.6293  1.0695
   59DG      H7 1341   3.933   1.625   4.740 -3.7355 -3.2399 -0.3680
   59DG      H8 1342   3.860   1.767   4.672  0.2404  0.8335 -0.9071
   59DG      O9 1343   4.393   1.877   4.523 -0.1219 -0.1677  0.3245
   59DG     O10 1344   4.001   1.684   4.550 -0.3410 -0.0218 -0.0007
   59DG     C11 1345   4.469   1.763   4.472  0.9036  0.3930 -0.2890
   59DG     C12 1346   4.049   1.565   4.494  0.6003 -0.7921 -0.1420
   59DG     H13 1347   4.505   1.704   4.556 -0.2882  1.3419  0.9300
   59DG     H14 1348   4.555   1.788   4.409  1.4058 -0.1008  0.1898
   59DG     H15 1349   3.968   1.499   4.464 -1.9603  2.2436 -0.4180
   59DG     H16 1350   4.108   1.509   4.566  0.7938  1.1212  1.2821
   59DG     C17 1351   4.380   1.675   4.382  0.1769  0.1483  0.4440
   59DG     C18 1352   4.150   1.608   4.379 -0.2677 -0.4229 -1.1953
   59DG     O19 1353   4.259   1.659   4.456  0.0020  0.3997  0.0718
   59DG     H20 1354   4.434   1.584   4.358  1.6075  1.2501 -0.6808
   59DG     H21 1355   4.361   1.734   4.292  0.4638  0.1613  0.3906
   59DG     H22 1356   4.180   1.519   4.325  1.6717 -0.6950  0.2306
   59DG     H23 1357   4.096   1.670   4.306  1.2186  0.7619 -1.3368
   60DG      C1 1358   3.201   4.797   0.623 -0.0672  0.3368  0.0410
   60DG      C2 1359   2.474   4.741   0.995  0.5409 -0.2813 -0.8295
   60DG      H3 1360   3.227   4.903   0.614  0.0774  0.1254 -2.5702
   60DG      H4 1361   3.233   4.746   0.532  0.3601 -1.2812  1.0482
   60DG      H5 1362   3.254   4.747   0.705  1.4723 -0.7889 -1.5633
   60DG      H6 1363   2.396   4.702   0.929  0.0566 -1.3621  0.3192
   60DG      H7 1364   2.472   4.688   1.090 -1.7232  2.3334  0.7693
   60DG      H8 1365   2.447   4.844   1.020 -0.0625 -0.8042  0.8407
   60DG      O9 1366   3.061   4.773   0.636  0.4018  0.1421  0.1479
   60DG     O10 1367   2.607   4.738   0.948  0.1487  0.1219 -0.0424
   60DG     C11 1368   2.980   4.835   0.539  0.4069 -0.1450  0.5257
   60DG     C12 1369   2.630   4.808   0.829 -0.0092  0.5213 -0.0282
   60DG     H13 1370   2.991   4.778   0.447 -2.1393 -1.5276  0.9860
   60DG     H14 1371   3.021   4.935   0.530  0.7392 -0.4358 -1.8377
   60DG     H15 1372   2.586   4.907   0.844  0.5677  0.6953  0.5524
   60DG     H16 1373   2.594   4.746   0.747  1.5837 -0.9490  0.3293
   60DG     C17 1374   2.831   4.832   0.576 -0.0021 -0.2178 -0.3426
   60DG     C18 1375   2.780   4.816   0.813 -0.4527 -0.4653 -0.0675
   60DG     O19 1376   2.828   4.897   0.705  0.1764 -0.0446 -0.6092
   60DG     H20 1377   2.798   4.728   0.573  2.8334 -1.2921  1.6978
   60DG     H21 1378   2.777   4.888   0.500  2.4258  3.0065  0.1281
   60DG     H22 1379   2.823   4.866   0.900 -2.3066 -1.5790  1.5842
   60DG     H23 1380   2.818   4.715   0.799 -0.7786 -0.6047  0.0449
   61DG      C1 1381   0.766   3.279   1.889 -0.8230  0.2661 -0.1353
   61DG      C2 1382   0.726   2.885   1.279  0.2942  0.0220 -0.4452
   61DG      H3 1383   0.804   3.252   1.988  2.2640  0.6799 -1.0998
   61DG      H4 1384   0.657   3.273   1.884 -0.7968  0.5810 -1.4835
   61DG      H5 1385   0.811   3.378   1.880 -1.0107  0.5983  1.9822
   61DG      H6 1386   0.775   2.856   1.186 -0.2615  1.9284 -1.3936
   61DG      H7 1387   0.666   2.807   1.326 -1.9677  1.7943 -0.1839
   61DG      H8 1388   0.648   2.957   1.254 -1.4568 -2.1778 -1.7591
   61DG      O9 1389   0.812   3.193   1.794 -0.7676 -0.2290  0.3548
   61DG     O10 1390   0.831   2.934   1.362 -0.6457 -0.0493 -0.0286
   61DG     C11 1391   0.947   3.218   1.757  0.2687  0.6723  0.1515
   61DG     C12 1392   0.884   3.060   1.312 -1.0335  0.4169 -0.5896
   61DG     H13 1393   1.013   3.218   1.843  0.1437 -0.6034  0.2661
   61DG     H14 1394   0.955   3.318   1.715  3.4829  0.5540  0.2558
   61DG     H15 1395   0.806   3.136   1.303 -2.0422 -0.7366 -2.1021
   61DG     H16 1396   0.915   3.057   1.208  0.2432 -1.9099 -0.2154
   61DG     C17 1397   1.007   3.122   1.655  0.1799  0.5363  0.5942
   61DG     C18 1398   0.993   3.105   1.418 -0.0501 -0.4974  0.1351
   61DG     O19 1399   0.922   3.123   1.540  0.1247  0.0402 -0.1150
   61DG     H20 1400   1.012   3.022   1.697  4.8576  0.5096  0.4410
   61DG     H21 1401   1.106   3.155   1.623  0.3306 -0.0791  0.4237
   61DG     H22 1402   1.065   3.024   1.432 -1.1634 -1.3583  1.1424
   61DG     H23 1403   1.043   3.197   1.389  0.2487 -0.8874 -0.6258
   62DG      C1 1404   1.873   4.607   1.485  1.0131  0.6071 -0.3443
   62DG      C2 1405   1.520   5.161   1.407 -0.1526  0.1050  0.0888
   62DG      H3 1406   1.822   4.573   1.575 -0.1913  0.7072 -0.9680
   62DG      H4 1407   1.971   4.562   1.496  0.0251 -1.4321  0.5475
   62DG      H5 1408   1.823   4.569   1.396  1.6192  1.0671 -0.8981
   62DG      H6 1409   1.513   5.124   1.305  2.2802  1.7156 -0.7489
   62DG      H7 1410   1.427   5.135   1.458  0.5359 -1.4003  0.6031
   62DG      H8 1411   1.560   5.262   1.403 -1.5601  0.6545 -1.3242
   62DG      O9 1412   1.877   4.748   1.489  0.0551  0.1292  1.1277
   62DG     O10 1413   1.622   5.085   1.473  0.5662 -0.6856  0.1127
   62DG     C11 1414   1.970   4.791   1.586 -0.2787  0.0097 -0.0173
   62DG     C12 1415   1.628   5.111   1.605 -0.0146  0.3067 -0.1219
   62DG     H13 1416   2.071   4.755   1.569 -0.9561 -2.3164  0.5599
   62DG     H14 1417   1.935   4.739   1.676 -1.6105 -0.2678 -0.6604
   62DG     H15 1418   1.563   5.051   1.668  0.1152  0.5527  0.2514
   62DG     H16 1419   1.602   5.212   1.639 -1.2363 -0.5599  1.7159
   62DG     C17 1420   1.950   4.945   1.597  0.3959  0.3585  0.0713
   62DG     C18 1421   1.774   5.094   1.640  0.3999  0.1553  0.1881
   62DG     O19 1422   1.812   4.955   1.620 -0.4992  0.0811 -0.0826
   62DG     H20 1423   1.972   4.984   1.498 -1.2212 -0.8145 -0.7741
   62DG     H21 1424   2.009   4.999   1.672  0.1105 -0.9972  1.3134
   62DG     H22 1425   1.815   5.169   1.573 -1.9323  0.2156 -1.2566
   62DG     H23 1426   1.787   5.128   1.743  0.7060 -0.5285  0.3819
   63DG      C1 1427   5.688   2.355   0.716 -0.2380  0.0394  0.7385
   63DG      C2 1428   5.060   2.381   0.268  0.2230 -0.0547  0.1070
   63DG      H3 1429   5.756   2.289   0.771  2.2847  0.6700 -1.4224
   63DG      H4 1430   5.655   2.439   0.778 -0.5654 -0.7469  1.6498
   63DG      H5 1431   5.744   2.392   0.631 -0.6164 -0.8561  0.0881
   63DG      H6 1432   5.071   2.389   0.160  0.8082  1.0726  0.2313
   63DG      H7 1433   4.958   2.354   0.293  0.7694 -0.8858  1.5928
   63DG      H8 1434   5.075   2.480   0.312  0.9134 -0.6284  1.2270
   63DG      O9 1435   5.567   2.292   0.678 -0.3505  0.0602  0.1784
   63DG     O10 1436   5.151   2.286   0.323  0.0148 -0.4418 -0.4648
   63DG     C11 1437   5.579   2.194   0.570  0.0113 -0.7322  0.4691
   63DG     C12 1438   5.129   2.275   0.460  0.5090  0.7529 -0.3585
   63DG     H13 1439   5.663   2.127   0.589  1.0242  0.4920  0.4370
   63DG     H14 1440   5.603   2.256   0.484 -0.8846 -1.1184 -0.0688
   63DG     H15 1441   5.025   2.253   0.483  1.0520 -2.4111 -0.4579
   63DG     H16 1442   5.154   2.368   0.512  2.0191 -0.0453  0.4314
   63DG     C17 1443   5.452   2.119   0.552  0.8322  0.4721  0.0858
   63DG     C18 1444   5.222   2.172   0.516 -0.4492  0.0075  0.2765
   63DG     O19 1445   5.351   2.225   0.522  0.5050  0.0786 -0.1081
   63DG     H20 1446   5.437   2.068   0.647  1.1364  0.3078  0.0476
   63DG     H21 1447   5.448   2.040   0.477  0.9102 -0.4182  0.9975
   63DG     H22 1448   5.191   2.150   0.618 -0.1707 -0.2564  0.3044
   63DG     H23 1449   5.225   2.084   0.452 -2.5021  1.6085 -2.2505
   64DG      C1 1450   1.046   0.950   1.560 -0.5241  0.3190 -0.4478
   64DG      C2 1451   1.704   0.805   1.291 -0.2831  0.5280  0.2749
   64DG      H3 1452   0.977   1.021   1.514 -1.9239 -0.4486  0.4050
   64DG      H4 1453   1.023   0.941   1.666 -1.5389 -0.2990 -0.7059
   64DG      H5 1454   1.026   0.851   1.519  0.7016 -0.0122 -0.2917
   64DG      H6 1455   1.675   0.757   1.198 -1.3457  0.1815  0.7734
   64DG      H7 1456   1.807   0.840   1.278  0.6507 -1.8516  0.7928
   64DG      H8 1457   1.708   0.741   1.379 -1.2663 -3.6039 -2.4288
   64DG      O9 1458   1.180   0.987   1.528 -0.3306  0.4253 -0.1810
   64DG     O10 1459   1.611   0.912   1.322 -0.8315 -0.4542 -0.3493
   64DG     C11 1460   1.231   1.104   1.588  0.2904  0.1782 -0.4143
   64DG     C12 1461   1.677   1.005   1.412  0.1909  0.0328 -0.0591
   64DG     H13 1462   1.248   1.100   1.696 -1.8138 -0.8714 -0.0720
   64DG     H14 1463   1.153   1.180   1.576 -2.9436 -2.7816  0.1396
   64DG     H15 1464   1.760   1.050   1.359 -0.6675  1.8691  0.0816
   64DG     H16 1465   1.716   0.951   1.499  0.2757  2.7429  1.7109
   64DG     C17 1466   1.347   1.158   1.510 -0.3911  0.2453  0.0069
   64DG     C18 1467   1.574   1.106   1.463  1.3161 -0.2644  0.2306
   64DG     O19 1468   1.447   1.055   1.502  0.2495  0.6541  0.0769
   64DG     H20 1469   1.380   1.250   1.558 -1.9467 -0.2091  2.0922
   64DG     H21 1470   1.317   1.194   1.411 -1.0718  1.1032  0.5067
   64DG     H22 1471   1.614   1.161   1.548 -0.6332 -0.7277  1.4926
   64DG     H23 1472   1.558   1.183   1.386 -3.2185 -3.4112 -2.4547
   65DG      C1 1473   2.291   5.353   4.816 -0.6647 -0.0528 -0.4813
   65DG      C2 1474   2.954   5.750   4.433  0.4121 -0.0816 -0.0891
   65DG      H3 1475   2.233   5.435   4.772  3.4107  3.7660  0.5427
   65DG      H4 1476   2.296   5.361   4.924 -2.0411 -2.6356 -0.1523
   65DG      H5 1477   2.230   5.264   4.803  1.7835 -1.9689  0.4603
   65DG      H6 1478   3.059   5.754   4.407  1.0603  0.2745  2.3720
   65DG      H7 1479   2.890   5.810   4.369 -1.0006 -0.3247  1.0248
   65DG      H8 1480   2.955   5.807   4.526  1.8676  0.2606 -0.2991
   65DG      O9 1481   2.417   5.345   4.750  0.0512 -0.2215  0.1221
   65DG     O10 1482   2.905   5.619   4.440  0.1018 -0.3197 -0.5184
   65DG     C11 1483   2.403   5.342   4.608  0.1262  0.0904  0.4238
   65DG     C12 1484   2.762   5.603   4.467  0.6394  0.2011  0.1690
   65DG     H13 1485   2.346   5.430   4.578  1.5061  0.8450 -0.0341
   65DG     H14 1486   2.340   5.256   4.584 -1.7773  1.6507 -0.5119
   65DG     H15 1487   2.705   5.653   4.389 -0.4351 -0.3882  0.5575
   65DG     H16 1488   2.744   5.639   4.568 -2.3627 -0.5125 -0.0148
   65DG     C17 1489   2.529   5.338   4.530  0.9857 -0.1245 -0.5311
   65DG     C18 1490   2.719   5.461   4.478 -0.0734 -0.0576 -0.4084
   65DG     O19 1491   2.602   5.453   4.559  0.8229 -0.3553 -0.0162
   65DG     H20 1492   2.517   5.326   4.422  1.3721  2.8432 -0.9692
   65DG     H21 1493   2.589   5.257   4.573  1.5738  1.3943  1.6704
   65DG     H22 1494   2.697   5.438   4.373 -2.8246 -0.1151  0.1150
   65DG     H23 1495   2.799   5.399   4.518  0.4897 -0.5458 -2.1916
   66DG      C1 1496   3.243   1.268   4.063 -0.0070  0.1048  0.1864
   66DG      C2 1497   3.052   0.695   4.549  0.2012  0.2027 -0.2004
   66DG      H3 1498   3.241   1.235   3.959 -1.0427  0.6923  0.0041
   66DG      H4 1499   3.319   1.225   4.128  0.2567  0.1458 -0.0934
   66DG      H5 1500   3.249   1.377   4.055  3.0812  0.0924  1.2138
   66DG      H6 1501   3.115   0.687   4.638 -0.4377  0.1623  0.2563
   66DG      H7 1502   2.971   0.625   4.568  0.1226  0.8696  2.2705
   66DG      H8 1503   3.103   0.657   4.461 -0.5472  0.4039 -0.7289
   66DG      O9 1504   3.124   1.237   4.126 -0.1351 -0.3607  0.1642
   66DG     O10 1505   3.011   0.829   4.537 -0.6386 -0.0558  0.1912
   66DG     C11 1506   3.119   1.289   4.261 -0.4799  0.5219  0.0611
   66DG     C12 1507   2.947   0.849   4.409  0.2446  0.0015  0.7535
   66DG     H13 1508   3.098   1.396   4.263 -1.6050  0.3508  2.6195
   66DG     H14 1509   3.204   1.271   4.327 -2.2121 -1.5115  1.9133
   66DG     H15 1510   2.847   0.805   4.411  0.3806 -0.3182  0.5197
   66DG     H16 1511   3.000   0.801   4.327 -0.1906  1.3973 -0.3870
   66DG     C17 1512   2.999   1.214   4.318  0.0557  0.2041  0.6163
   66DG     C18 1513   2.919   1.003   4.391  0.2650  0.2527  0.5166
   66DG     O19 1514   3.033   1.082   4.362  0.2490  0.1879  0.1255
   66DG     H20 1515   2.922   1.206   4.242  1.0512 -0.7961 -0.3259
   66DG     H21 1516   2.967   1.271   4.405  1.5944  1.0096  0.6981
   66DG     H22 1517   2.839   1.029   4.321  0.7658  1.8691  0.5166
   66DG     H23 1518   2.891   1.035   4.492  0.4278 -0.2006  0.7113
   67DG      C1 1519   1.795   0.881   0.265  0.2370 -0.2947 -0.5263
   67DG      C2 1520   2.311   0.682   0.565 -0.2851  0.5365 -0.0704
   67DG      H3 1521   1.841   0.922   0.175 -0.4386 -0.2581 -0.8668
   67DG      H4 1522   1.805   0.956   0.343  0.1428 -1.2295  0.3962
   67DG      H5 1523   1.688   0.867   0.247 -0.7374  0.8270  3.3541
   67DG      H6 1524   2.326   0.646   0.667 -0.8265 -1.0741 -0.5345
   67DG      H7 1525   2.400   0.668   0.504  0.2545  1.5282  0.4577
   67DG      H8 1526   2.301   0.791   0.563  1.4447  0.8913  2.9120
   67DG      O9 1527   1.864   0.771   0.310  0.0466 -0.7062  0.0700
   67DG     O10 1528   2.187   0.634   0.511 -0.1833 -0.1071 -0.3512
   67DG     C11 1529   1.871   0.669   0.212  0.2725  0.0442  0.1416
   67DG     C12 1530   2.189   0.494   0.503  0.1323 -0.0731  0.4255
   67DG     H13 1531   1.936   0.713   0.137 -0.9028  0.5523 -0.6176
   67DG     H14 1532   1.774   0.664   0.162 -1.1872  2.7230  2.3812
   67DG     H15 1533   2.189   0.449   0.603  1.4486  0.1947  0.5615
   67DG     H16 1534   2.282   0.460   0.459  0.6059 -0.5153  1.7046
   67DG     C17 1535   1.929   0.533   0.259  0.1479 -0.0167 -0.0779
   67DG     C18 1536   2.074   0.436   0.425  0.7881 -0.3232 -0.4625
   67DG     O19 1537   2.021   0.553   0.363 -0.6366  0.0976 -0.2423
   67DG     H20 1538   1.972   0.476   0.177  0.5413  1.3678 -0.8680
   67DG     H21 1539   1.852   0.464   0.293 -2.9031  2.0430 -2.2672
   67DG     H22 1540   2.116   0.371   0.349  0.2394 -2.3663  0.9159
   67DG     H23 1541   2.000   0.390   0.490 -0.3421  1.8222 -0.1243
   68DG      C1 1542   2.957   0.288   0.327  0.3143 -0.2579  0.0762
   68DG      C2 1543   2.619   0.794   0.699 -0.0152 -0.9926 -0.6867
   68DG      H3 1544   2.936   0.194   0.274  0.1272  0.6338 -1.4983
   68DG      H4 1545   3.032   0.262   0.401 -1.2055 -1.1288  1.3811
   68DG      H5 1546   3.019   0.349   0.262  0.3212  1.3132  1.4954
   68DG      H6 1547   2.710   0.854   0.691 -0.0028 -1.1840 -2.5850
   68DG      H7 1548   2.585   0.767   0.599 -1.5132 -1.2655 -0.1325
   68DG      H8 1549   2.548   0.860   0.749 -1.0946 -1.1457 -1.9745
   68DG      O9 1550   2.855   0.369   0.379  0.0324  0.1704 -0.1510
   68DG     O10 1551   2.631   0.678   0.769  0.3288 -0.1787 -0.2414
   68DG     C11 1552   2.761   0.412   0.285 -0.2372  0.0992 -0.1138
   68DG     C12 1553   2.728   0.588   0.706  0.2086  0.0421 -0.4646
   68DG     H13 1554   2.732   0.334   0.214  1.9331 -2.5229  1.6702
   68DG     H14 1555   2.803   0.495   0.229  0.7481  0.1483  0.6894
   68DG     H15 1556   2.767   0.519   0.780 -2.0572  0.3404  1.1295
   68DG     H16 1557   2.819   0.642   0.680 -0.2274  0.8436 -0.3790
   68DG     C17 1558   2.637   0.466   0.362 -0.4704 -0.4939 -0.4147
   68DG     C18 1559   2.670   0.501   0.588 -0.0908  0.6328 -0.3373
   68DG     O19 1560   2.672   0.563   0.460  0.2311 -0.1994  0.3529
   68DG     H20 1561   2.585   0.378   0.399  1.0819 -0.3478  2.3966
   68DG     H21 1562   2.567   0.505   0.288  1.3144  0.5862 -1.6118
   68DG     H22 1563   2.725   0.407   0.593  0.5924  0.8966 -2.0875
   68DG     H23 1564   2.567   0.470   0.605  0.0599  0.6152  0.5695
   69DG      C1 1565   0.187   0.961   1.703 -0.0415 -0.2729 -0.2310
   69DG      C2 1566   0.351   0.132   1.463  0.1951  0.2184 -0.3856
   69DG      H3 1567   0.137   1.027   1.774 -0.6657  1.9319 -2.5597
   69DG      H4 1568   0.161   0.988   1.601 -0.4400  0.2602  0.0062
   69DG      H5 1569   0.292   0.984   1.721  0.1766 -2.1571  1.2538
   69DG      H6 1570   0.457   0.151   1.479  0.3074 -1.3378  0.9876
   69DG      H7 1571   0.333   0.028   1.491  0.5658 -0.1542 -1.4790
   69DG      H8 1572   0.348   0.129   1.354  1.2486 -1.3495 -0.3990
   69DG      O9 1573   0.149   0.825   1.729  0.0092  0.2731  0.3982
   69DG     O10 1574   0.264   0.237   1.504 -0.0613  0.2414 -0.1368
   69DG     C11 1575   0.206   0.734   1.649 -0.6911  0.0837 -0.0266
   69DG     C12 1576   0.256   0.249   1.647 -0.6689 -0.3850  0.5708
   69DG     H13 1577   0.314   0.736   1.665 -0.4754  1.4713 -1.3944
   69DG     H14 1578   0.187   0.754   1.543  1.4439  0.8005 -0.3233
   69DG     H15 1579   0.360   0.259   1.681 -0.8448  1.2954  0.6646
   69DG     H16 1580   0.226   0.152   1.688 -1.5436 -0.4359 -0.1728
   69DG     C17 1581   0.149   0.610   1.702  0.3439  0.0834  0.4428
   69DG     C18 1582   0.179   0.373   1.702 -0.0701 -0.0546  0.5794
   69DG     O19 1583   0.218   0.498   1.644 -0.2141  0.4286 -0.2735
   69DG     H20 1584   0.042   0.596   1.688  0.6821 -1.1992 -1.1175
   69DG     H21 1585   0.161   0.609   1.811  1.9240  0.5852  0.3014
   69DG     H22 1586   0.075   0.355   1.676 -0.1869  0.4924  0.6461
   69DG     H23 1587   0.182   0.373   1.811 -3.7009 -2.1330  0.8011
   70DG      C1 1588   5.007   4.859   4.060 -0.9940 -0.1573  0.1589
   70DG      C2 1589   4.523   4.874   4.679 -0.2752 -0.4048  0.4485
   70DG      H3 1590   5.102   4.892   4.018 -0.3185 -0.8367  1.0893
   70DG      H4 1591   4.924   4.910   4.011 -0.3073  1.8090  0.9216
   70DG      H5 1592   5.001   4.751   4.048  1.5845 -0.6282  2.1140
   70DG      H6 1593   4.522   4.896   4.786  0.8913  0.7670  0.2382
   70DG      H7 1594   4.464   4.949   4.626 -0.8979 -1.4705 -0.4171
   70DG      H8 1595   4.474   4.776   4.673 -3.5480  0.8214  3.3933
   70DG      O9 1596   5.002   4.857   4.205 -0.6312  0.2677  0.5390
   70DG     O10 1597   4.654   4.858   4.636 -0.0378  0.3695  0.4816
   70DG     C11 1598   5.041   4.982   4.257  0.3090  0.4090 -0.0276
   70DG     C12 1599   4.727   4.982   4.622 -0.2463 -1.0492  0.7130
   70DG     H13 1600   4.969   5.051   4.214 -1.1859 -2.5167 -2.6119
   70DG     H14 1601   5.142   4.997   4.220  1.2291  0.1483  2.1837
   70DG     H15 1602   4.711   5.026   4.721 -1.9097  2.6897 -1.0087
   70DG     H16 1603   4.678   5.045   4.548  0.5235 -1.8182 -0.4856
   70DG     C17 1604   5.031   4.959   4.412 -0.9415 -0.3214 -0.5664
   70DG     C18 1605   4.875   4.957   4.596 -0.1893  0.0561 -0.0693
   70DG     O19 1606   4.902   4.929   4.458  0.2913  0.5472 -0.1912
   70DG     H20 1607   5.066   5.050   4.461  2.8956 -2.0778  0.3465
   70DG     H21 1608   5.094   4.882   4.457  0.6161  1.1748 -0.1024
   70DG     H22 1609   4.931   5.038   4.642  0.2084  0.7200 -1.6601
   70DG     H23 1610   4.909   4.871   4.655  2.3254 -0.6713 -2.3660
   71DG      C1 1611   3.581   2.495   2.905 -1.0215  0.1389  0.3204
   71DG      C2 1612   4.114   2.478   3.362  0.0704  0.0204  0.8778
   71DG      H3 1613   3.581   2.397   2.857 -1.8249  0.2509  0.0788
   71DG      H4 1614   3.677   2.543   2.885 -1.9999  1.9311 -0.2658
   71DG      H5 1615   3.501   2.555   2.861 -1.5920 -2.6144 -2.8559
   71DG      H6 1616   4.152   2.409   3.287  0.1553  0.0365  0.9062
   71DG      H7 1617   4.166   2.571   3.338 -0.4008  0.1407  0.2712
   71DG      H8 1618   4.134   2.436   3.460  0.0484 -2.3736 -0.0679
   71DG      O9 1619   3.558   2.475   3.045 -0.0488  0.1020  0.4858
   71DG     O10 1620   3.968   2.495   3.359  0.4973 -0.1906  0.2688
   71DG     C11 1621   3.554   2.599   3.116  0.1846 -0.1864 -0.4988
   71DG     C12 1622   3.897   2.380   3.347 -0.7819  0.5852  0.3181
   71DG     H13 1623   3.458   2.642   3.090  0.9312  1.8089 -0.1307
   71DG     H14 1624   3.632   2.667   3.082  1.4085 -1.1574  0.2567
   71DG     H15 1625   3.933   2.305   3.417  0.8930  0.9992 -0.0772
   71DG     H16 1626   3.913   2.340   3.247  0.6478  1.2802  0.2504
   71DG     C17 1627   3.586   2.561   3.262 -0.3581  0.0162  0.4221
   71DG     C18 1628   3.750   2.417   3.359 -1.0211 -0.3700  0.3805
   71DG     O19 1629   3.719   2.506   3.248  0.3640 -0.1894  0.0252
   71DG     H20 1630   3.523   2.486   3.309  0.1559 -1.6552 -1.3990
   71DG     H21 1631   3.593   2.649   3.326  1.4209 -0.8286  1.4524
   71DG     H22 1632   3.692   2.326   3.374  0.7132 -1.5327  0.3257
   71DG     H23 1633   3.724   2.474   3.449  0.0679 -0.0507  0.5038
   72DG      C1 1634   5.763   4.898   1.727  0.2482  0.2751  0.4193
   72DG      C2 1635   5.264   4.419   1.542  0.7086 -0.0814 -0.0748
   72DG      H3 1636   5.793   4.812   1.787  0.7979 -0.7429 -1.2381
   72DG      H4 1637   5.723   4.981   1.784 -0.7883 -0.4620  0.8014
   72DG      H5 1638   5.847   4.923   1.661  1.0781 -1.3096  0.8203
   72DG      H6 1639   5.281   4.369   1.637  0.4141  2.4050  1.3587
   72DG      H7 1640   5.156   4.408   1.534  0.8668 -0.9412 -1.2649
   72DG      H8 1641   5.293   4.346   1.466 -0.5584  0.4606 -1.1231
   72DG      O9 1642   5.656   4.852   1.640 -0.3956  0.0825 -0.2819
   72DG     O10 1643   5.312   4.545   1.531  0.0592 -0.4276 -0.3001
   72DG     C11 1644   5.634   4.937   1.525 -0.0296  0.6196 -0.2531
   72DG     C12 1645   5.308   4.584   1.397 -0.3854 -0.6174 -0.5705
   72DG     H13 1646   5.711   4.919   1.451 -1.4474  1.8888 -2.1194
   72DG     H14 1647   5.627   5.042   1.552 -2.6870  0.4858 -0.1510
   72DG     H15 1648   5.213   4.559   1.351 -0.1411 -0.8270 -0.9640
   72DG     H16 1649   5.384   4.528   1.342  0.3770 -0.8906  0.6991
   72DG     C17 1650   5.506   4.897   1.442  0.5797 -0.1123 -0.9918
   72DG     C18 1651   5.353   4.729   1.398  0.2266  0.5508 -0.2403
   72DG     O19 1652   5.485   4.754   1.463  0.4693  0.0012 -0.0110
   72DG     H20 1653   5.514   4.921   1.336  0.0053 -0.2436 -1.0672
   72DG     H21 1654   5.434   4.963   1.490  1.7728 -0.6990  1.8069
   72DG     H22 1655   5.357   4.760   1.294  0.3415  0.3629 -0.2917
   72DG     H23 1656   5.282   4.796   1.446  0.6442  1.4912 -0.9068
   73DG      C1 1657   0.179   1.272   4.436 -0.3079 -0.0887  0.2201
   73DG      C2 1658   0.776   1.471   4.605 -0.7526  0.6020 -0.5322
   73DG      H3 1659   0.127   1.191   4.486 -0.5041  0.8282  1.5618
   73DG      H4 1660   0.109   1.314   4.363  1.2206  0.8317 -0.7911
   73DG      H5 1661   0.201   1.354   4.505  2.2578 -0.1252 -0.4346
   73DG      H6 1662   0.677   1.510   4.581 -2.1377 -1.6200  1.1749
   73DG      H7 1663   0.781   1.421   4.702 -0.7884 -0.6905 -1.1831
   73DG      H8 1664   0.842   1.557   4.595 -2.1116  1.6806 -0.5162
   73DG      O9 1665   0.299   1.232   4.377  0.1352  0.4095  0.0419
   73DG     O10 1666   0.831   1.382   4.504  0.3524 -0.6496 -0.4922
   73DG     C11 1667   0.357   1.320   4.284  0.1220 -0.4479  0.1105
   73DG     C12 1668   0.747   1.267   4.493  0.4512  0.1668  0.2048
   73DG     H13 1669   0.296   1.368   4.208  1.7417  1.8431  0.1342
   73DG     H14 1670   0.424   1.249   4.236  1.7256 -0.1811  1.8159
   73DG     H15 1671   0.697   1.241   4.586  0.9778  0.5014  0.5875
   73DG     H16 1672   0.804   1.186   4.447 -3.9443 -3.1661 -0.0301
   73DG     C17 1673   0.444   1.426   4.357  0.3094  0.7285  0.2111
   73DG     C18 1674   0.637   1.285   4.390 -0.1689 -0.2489  0.3276
   73DG     O19 1675   0.531   1.368   4.445 -0.2088 -0.3759 -0.7646
   73DG     H20 1676   0.390   1.508   4.406 -0.5692  1.9311 -2.5720
   73DG     H21 1677   0.508   1.476   4.284 -0.6554 -1.2261 -2.1040
   73DG     H22 1678   0.683   1.328   4.301  0.1890 -0.0671  0.5976
   73DG     H23 1679   0.599   1.187   4.362 -1.4533 -0.4066  2.4089
   74DG      C1 1680   5.331   5.030   5.547 -0.3935  0.1766 -0.0160
   74DG      C2 1681   5.281   4.948   4.747 -0.5067  0.4369 -0.1548
   74DG      H3 1682   5.225   5.048   5.529 -0.5308  0.8202  1.2831
   74DG      H4 1683   5.382   5.116   5.506  0.8547 -1.1504 -1.3489
   74DG      H5 1684   5.333   5.020   5.656 -0.7864  2.3313  0.2397
   74DG      H6 1685   5.355   5.028   4.753 -0.3011  0.1717  1.1601
   74DG      H7 1686   5.313   4.882   4.667  2.0610 -1.8965  2.5816
   74DG      H8 1687   5.178   4.983   4.731 -0.9860 -0.4616  0.8754
   74DG      O9 1688   5.386   4.919   5.478  0.5384  0.5664  0.0349
   74DG     O10 1689   5.281   4.858   4.856  0.0931 -0.4543  0.2714
   74DG     C11 1690   5.361   4.924   5.340  0.3247 -0.3184  0.4756
   74DG     C12 1691   5.410   4.807   4.887  0.0642  0.2995  0.7027
   74DG     H13 1692   5.388   5.020   5.295 -1.0594 -0.2436 -0.2799
   74DG     H14 1693   5.254   4.914   5.321  0.6792 -0.5943 -1.5603
   74DG     H15 1694   5.477   4.893   4.885 -0.2602  0.5472  0.3563
   74DG     H16 1695   5.445   4.737   4.811  0.1380 -0.8565  1.7852
   74DG     C17 1696   5.428   4.814   5.256  0.4775  0.5893  0.2753
   74DG     C18 1697   5.410   4.737   5.024 -0.2033 -0.6940  0.2554
   74DG     O19 1698   5.386   4.839   5.118  0.1855  0.1555  0.4435
   74DG     H20 1699   5.402   4.716   5.294 -0.2427  1.0838  1.0880
   74DG     H21 1700   5.537   4.813   5.246  0.3963 -2.9651 -2.0451
   74DG     H22 1701   5.337   4.658   5.045 -0.3697 -0.2562  1.4106
   74DG     H23 1702   5.504   4.686   5.043 -0.0569 -0.4050  0.2948
   75DG      C1 1703   1.410   3.259   2.661  0.3698  0.2720 -0.0981
   75DG      C2 1704   1.776   3.758   2.567  0.1369 -0.4531 -0.8990
   75DG      H3 1705   1.500   3.215   2.705 -0.5838 -1.7650 -0.1065
   75DG      H4 1706   1.388   3.224   2.560  3.3770  0.7222 -1.0188
   75DG      H5 1707   1.324   3.230   2.720  1.1335 -0.6994  0.5738
   75DG      H6 1708   1.796   3.865   2.559 -0.1149 -0.5194 -2.6720
   75DG      H7 1709   1.729   3.741   2.664  0.1145 -1.2221 -1.0386
   75DG      H8 1710   1.874   3.715   2.586 -0.4232 -0.7617  1.6857
   75DG      O9 1711   1.419   3.400   2.657  0.3992  0.0137  0.2505
   75DG     O10 1712   1.700   3.727   2.454 -0.2500 -0.7001  0.0199
   75DG     C11 1713   1.302   3.477   2.635  0.9225  0.0935 -0.7141
   75DG     C12 1714   1.585   3.810   2.433 -0.6303 -0.2741  0.6458
   75DG     H13 1715   1.233   3.455   2.717  1.0894  1.5946 -0.1250
   75DG     H14 1716   1.259   3.440   2.542 -1.8836  0.1260  0.4617
   75DG     H15 1717   1.542   3.789   2.335 -0.0873  3.9972 -0.7271
   75DG     H16 1718   1.618   3.913   2.416 -0.4664 -0.3113  0.7373
   75DG     C17 1719   1.346   3.625   2.628  0.6922  0.5084 -0.2247
   75DG     C18 1720   1.475   3.785   2.542  0.5955 -0.2642  0.1077
   75DG     O19 1721   1.458   3.644   2.554 -0.4546  0.2331 -0.1961
   75DG     H20 1722   1.365   3.649   2.733  0.2636 -1.1631  0.2565
   75DG     H21 1723   1.259   3.678   2.588  0.4090  0.6401  0.5437
   75DG     H22 1724   1.495   3.826   2.641 -2.8963  1.8556  0.0971
   75DG     H23 1725   1.383   3.839   2.521  1.3077  2.4966  3.1681
   76DG      C1 1726   3.730   4.345   3.434 -0.4729 -0.0739  0.2879
   76DG      C2 1727   3.335   4.192   4.015  0.4073  0.3977  0.2105
   76DG      H3 1728   3.833   4.313   3.415  0.3023  1.5946  1.3950
   76DG      H4 1729   3.697   4.427   3.370  0.6845 -0.6625 -1.1337
   76DG      H5 1730   3.672   4.258   3.406 -0.1144 -0.7751  1.6645
   76DG      H6 1731   3.285   4.216   4.109  0.0675 -0.6200  0.3099
   76DG      H7 1732   3.292   4.251   3.934  0.3963 -0.2473 -0.2629
   76DG      H8 1733   3.314   4.088   3.991 -0.2968  0.2325  1.4159
   76DG      O9 1734   3.723   4.373   3.564  0.1087  0.6256 -0.5268
   76DG     O10 1735   3.475   4.212   4.015 -0.7258  0.6073 -0.1196
   76DG     C11 1736   3.782   4.269   3.647  0.1333  0.6582 -0.9341
   76DG     C12 1737   3.511   4.345   4.019  0.6026  0.1060 -0.1006
   76DG     H13 1738   3.876   4.223   3.617  0.2338 -0.7155  1.2936
   76DG     H14 1739   3.706   4.190   3.647 -0.9261  1.6228  1.1003
   76DG     H15 1740   3.497   4.388   4.118 -0.0905  2.7338 -1.2604
   76DG     H16 1741   3.446   4.416   3.968  0.7105  0.3389  0.0847
   76DG     C17 1742   3.803   4.330   3.787  0.2811  0.3261 -0.0184
   76DG     C18 1743   3.651   4.369   3.977 -0.0129  0.3265  0.1256
   76DG     O19 1744   3.665   4.334   3.838  0.7083  0.5333  0.1767
   76DG     H20 1745   3.839   4.433   3.783 -1.2921  0.9472  0.5428
   76DG     H21 1746   3.872   4.283   3.856  1.2409  1.9047  0.1467
   76DG     H22 1747   3.661   4.474   4.004 -2.8799  1.1648 -1.6186
   76DG     H23 1748   3.715   4.315   4.047 -1.2508  0.0936  1.1096
   77DG      C1 1749   0.601   0.286   5.143  0.9523 -0.1001  0.1739
   77DG      C2 1750   0.398  -0.050   5.727 -0.2844 -0.1364  0.7348
   77DG      H3 1751   0.624   0.379   5.196 -3.2440  0.2083  1.9164
   77DG      H4 1752   0.493   0.295   5.125  0.7404  0.6341  1.6039
   77DG      H5 1753   0.651   0.282   5.047  1.4781 -2.8776  0.5053
   77DG      H6 1754   0.404  -0.138   5.792 -0.0283 -0.5126  0.2020
   77DG      H7 1755   0.427   0.041   5.780 -1.7198  1.0846 -0.4803
   77DG      H8 1756   0.291  -0.037   5.710 -0.0436 -1.6202 -2.7441
   77DG      O9 1757   0.628   0.183   5.236  0.8032  0.0105  0.2082
   77DG     O10 1758   0.480  -0.048   5.611 -0.2124  0.1635 -0.7827
   77DG     C11 1759   0.763   0.150   5.253 -0.8839  0.3406 -0.1471
   77DG     C12 1760   0.613  -0.083   5.648  0.5641  0.1306  0.2259
   77DG     H13 1761   0.801   0.226   5.322 -1.0501 -0.4368  0.8173
   77DG     H14 1762   0.808   0.139   5.154 -0.5033 -0.6865  0.1353
   77DG     H15 1763   0.619  -0.180   5.696 -1.6912 -0.0030  0.3114
   77DG     H16 1764   0.652  -0.012   5.721  0.9412 -0.0197  0.1739
   77DG     C17 1765   0.761   0.017   5.328 -0.6109 -1.1330 -0.2856
   77DG     C18 1766   0.701  -0.087   5.527 -0.4796  0.0050 -0.0856
   77DG     O19 1767   0.694   0.029   5.451 -0.1873 -0.4819  0.2945
   77DG     H20 1768   0.859  -0.030   5.344 -0.8251 -1.5690 -0.2336
   77DG     H21 1769   0.706  -0.051   5.263 -1.8761 -0.9176  0.5343
   77DG     H22 1770   0.806  -0.103   5.553 -0.9861 -1.2397  1.3089
   77DG     H23 1771   0.676  -0.177   5.471 -1.5616 -0.6466  1.3749
   78DG      C1 1772   3.322   0.882   4.012  0.0003 -0.0889  0.1900
   78DG      C2 1773   2.720   0.516   3.922 -0.1339  0.0061  0.1273
   78DG      H3 1774   3.353   0.985   3.995 -0.3440  0.1707  1.0755
   78DG      H4 1775   3.387   0.815   3.954  1.3454  2.0076 -0.8326
   78DG      H5 1776   3.331   0.866   4.119  1.7678 -1.1055 -0.0658
   78DG      H6 1777   2.682   0.612   3.886  0.2743  0.6551  1.3634
   78DG      H7 1778   2.797   0.478   3.855 -0.2092  0.0967 -0.0105
   78DG      H8 1779   2.630   0.455   3.915  0.6716 -1.3115  0.8823
   78DG      O9 1780   3.185   0.846   3.981 -0.6091  0.2824 -0.3439
   78DG     O10 1781   2.772   0.529   4.053  0.2760 -0.3949 -0.5579
   78DG     C11 1782   3.088   0.919   4.053  0.1137 -0.3651 -0.4184
   78DG     C12 1783   2.910   0.519   4.073 -0.2343 -0.0602 -0.0599
   78DG     H13 1784   3.103   1.025   4.036  1.8969 -0.8807 -2.4353
   78DG     H14 1785   3.098   0.901   4.161 -2.7638  0.8139  0.1349
   78DG     H15 1786   2.966   0.434   4.033  0.2031 -0.2109  0.8398
   78DG     H16 1787   2.925   0.518   4.181  1.3517  1.5283 -0.2105
   78DG     C17 1788   2.946   0.880   4.011 -0.0053  1.1575  0.9731
   78DG     C18 1789   2.980   0.646   4.031 -0.2243  0.0653 -0.3087
   78DG     O19 1790   2.900   0.758   4.067  0.3565  0.2680 -0.5179
   78DG     H20 1791   2.932   0.866   3.904  0.1420  0.8808  0.9874
   78DG     H21 1792   2.871   0.956   4.032 -1.3339  0.6499 -1.4691
   78DG     H22 1793   3.070   0.648   4.093  0.1115 -0.4628 -0.7728
   78DG     H23 1794   3.012   0.644   3.927  0.4836  2.5617 -0.2009
   79DG      C1 1795   1.300   4.701   4.399 -0.1145 -0.0003 -0.2108
   79DG      C2 1796   0.864   4.098   4.385 -0.5100 -0.3203  0.5045
   79DG      H3 1797   1.262   4.797   4.435  0.9347  0.8278 -1.2106
   79DG      H4 1798   1.256   4.691   4.299 -0.0687  0.2576 -0.2590
   79DG      H5 1799   1.402   4.735   4.384 -1.0926  4.1368  0.9558
   79DG      H6 1800   0.841   4.101   4.279  0.8414  1.5709  0.2033
   79DG      H7 1801   0.840   3.994   4.404 -0.0365 -0.5960 -0.3657
   79DG      H8 1802   0.788   4.161   4.432 -0.6240 -0.3772  0.3983
   79DG      O9 1803   1.286   4.580   4.474 -0.2864 -0.2253  0.1189
   79DG     O10 1804   0.996   4.143   4.402 -0.4395  0.2123 -0.1942
   79DG     C11 1805   1.387   4.482   4.479 -0.4104  0.1359  0.0610
   79DG     C12 1806   1.042   4.160   4.534 -0.3002 -0.1374  0.2241
   79DG     H13 1807   1.468   4.522   4.541  0.2793 -1.1048 -0.0085
   79DG     H14 1808   1.436   4.458   4.385 -1.1693  1.7970 -0.8050
   79DG     H15 1809   1.020   4.066   4.584 -0.8503 -1.0382 -1.6252
   79DG     H16 1810   0.983   4.238   4.581 -0.5770 -1.5623  2.3779
   79DG     C17 1811   1.349   4.356   4.546 -0.0225 -0.4099 -0.7172
   79DG     C18 1812   1.190   4.197   4.539 -0.2946 -0.4099 -0.1716
   79DG     O19 1813   1.225   4.326   4.492  0.2375  0.7010 -0.2579
   79DG     H20 1814   1.332   4.379   4.652  0.9375 -2.3624 -0.1032
   79DG     H21 1815   1.427   4.281   4.541  0.3491 -0.2096  1.2980
   79DG     H22 1816   1.220   4.178   4.642  0.4739  0.3001 -0.2491
   79DG     H23 1817   1.250   4.121   4.490  1.9847  2.2360 -1.8344
   80DG      C1 1818   5.090   1.217   0.083  0.0474 -0.7045  0.2208
   80DG      C2 1819   5.235   0.338   0.177  0.1838  0.2257 -1.0697
   80DG      H3 1820   5.197   1.211   0.065  0.1356  0.5991  0.2086
   80DG      H4 1821   5.078   1.297   0.157 -1.1822 -0.2689 -0.4062
   80DG      H5 1822   5.033   1.259  -0.001  1.6350  0.3661 -0.3589
   80DG      H6 1823   5.255   0.279   0.088 -1.0665 -0.3843 -0.9669
   80DG      H7 1824   5.327   0.348   0.235  0.0012  1.8579 -1.0168
   80DG      H8 1825   5.165   0.275   0.232  0.2194 -0.0294 -1.3122
   80DG      O9 1826   5.032   1.091   0.108 -0.2858  0.2466 -0.4666
   80DG     O10 1827   5.172   0.464   0.156  0.3551  0.6473  0.4689
   80DG     C11 1828   5.104   1.009   0.195  0.6435 -0.1992  0.1757
   80DG     C12 1829   5.148   0.531   0.279  0.2338  0.0541  0.1553
   80DG     H13 1830   5.119   1.045   0.297 -0.0468  0.4945  0.0487
   80DG     H14 1831   5.205   0.990   0.159  0.6508 -1.5025  0.8450
   80DG     H15 1832   5.241   0.563   0.325  1.2566 -0.6611 -1.3233
   80DG     H16 1833   5.096   0.465   0.348  1.2267 -1.9708 -0.9351
   80DG     C17 1834   5.029   0.874   0.191 -0.0318 -0.3313  0.4138
   80DG     C18 1835   5.051   0.642   0.251  0.9173  0.2559  0.0175
   80DG     O19 1836   5.118   0.766   0.238 -0.0966  0.2500  0.2138
   80DG     H20 1837   5.012   0.845   0.087  0.3665 -0.1666  0.3020
   80DG     H21 1838   4.938   0.885   0.250  0.6482  0.6028  1.3225
   80DG     H22 1839   4.999   0.608   0.161 -3.1978 -3.1960  3.2307
   80DG     H23 1840   4.965   0.646   0.317  1.0024  0.3710  0.1219
   81DG      C1 1841   2.896   0.405   5.260  0.1658  0.4981  0.3355
   81DG      C2 1842   2.670   0.993   4.795 -0.1549  0.5165  0.2574
   81DG      H3 1843   2.930   0.305   5.234 -1.4964  0.0390 -0.2413
   81DG      H4 1844   2.938   0.420   5.359  1.5155  0.4371 -0.2159
   81DG      H5 1845   2.956   0.476   5.204  1.8571 -1.8291 -0.9658
   81DG      H6 1846   2.710   1.095   4.797  0.6339  0.2126  0.9478
   81DG      H7 1847   2.750   0.937   4.747  0.0084  1.8873 -1.1491
   81DG      H8 1848   2.577   0.985   4.739  0.5236  0.4297 -0.9026
   81DG      O9 1849   2.752   0.431   5.242 -0.3792 -0.1266  0.0936
   81DG     O10 1850   2.656   0.952   4.927  0.1281 -0.1227  0.5053
   81DG     C11 1851   2.710   0.548   5.310  0.1463  0.6918  0.4770
   81DG     C12 1852   2.641   0.811   4.933 -0.0489 -0.2471 -0.0213
   81DG     H13 1853   2.788   0.623   5.324  0.7116  0.0944  0.5904
   81DG     H14 1854   2.691   0.518   5.413  1.4851 -0.5339  0.4057
   81DG     H15 1855   2.723   0.758   4.885  1.2930  0.8477  0.9472
   81DG     H16 1856   2.541   0.785   4.899  0.3857 -1.4274 -0.4470
   81DG     C17 1857   2.583   0.608   5.242 -0.0486 -0.3980 -0.2750
   81DG     C18 1858   2.641   0.784   5.085 -0.1007  0.0261  0.0612
   81DG     O19 1859   2.601   0.642   5.105 -0.6493 -0.1147  0.5368
   81DG     H20 1860   2.544   0.687   5.306 -1.1854 -0.1458 -1.2497
   81DG     H21 1861   2.509   0.529   5.246 -1.6013  0.8447 -2.2484
   81DG     H22 1862   2.740   0.805   5.124 -0.9901  0.7986  1.9956
   81DG     H23 1863   2.562   0.845   5.129 -0.6701  0.5891 -1.6279
   82DG      C1 1864   3.125   2.439   4.745 -0.7875 -0.4711  0.0175
   82DG      C2 1865   3.119   2.069   4.158 -0.0079 -0.5044 -0.2389
   82DG      H3 1866   3.179   2.389   4.826  0.1981  0.2204 -0.1955
   82DG      H4 1867   3.075   2.529   4.781 -1.4443 -0.4395 -0.9282
   82DG      H5 1868   3.209   2.484   4.694  0.1194  0.5695  2.3117
   82DG      H6 1869   3.142   2.156   4.097 -0.1990  0.7251  1.3951
   82DG      H7 1870   3.221   2.031   4.166 -0.0290 -0.4181  0.4790
   82DG      H8 1871   3.060   1.995   4.104 -0.2432 -0.6746  0.2500
   82DG      O9 1872   3.048   2.352   4.659  0.1274 -0.1645 -0.2324
   82DG     O10 1873   3.068   2.085   4.288  0.0202 -0.3184  0.4566
   82DG     C11 1874   2.960   2.271   4.727  0.4389 -0.0801  0.3900
   82DG     C12 1875   3.076   1.967   4.362 -0.8002 -0.0537  0.8313
   82DG     H13 1876   2.883   2.326   4.781  2.3160  2.0748  1.0422
   82DG     H14 1877   3.003   2.208   4.805 -1.6615 -0.6084  1.1878
   82DG     H15 1878   3.179   1.951   4.394  1.0832 -0.2023 -4.2743
   82DG     H16 1879   3.044   1.876   4.311 -0.7231 -0.0847  0.8377
   82DG     C17 1880   2.909   2.170   4.625 -0.5954  0.2212  0.5058
   82DG     C18 1881   2.987   1.989   4.491  0.2864  0.0287  0.8524
   82DG     O19 1882   3.028   2.102   4.568  0.1027  0.2742  0.3279
   82DG     H20 1883   2.849   2.223   4.551  0.6989  1.0785  0.0243
   82DG     H21 1884   2.845   2.093   4.668 -0.5979 -0.4365 -0.6296
   82DG     H22 1885   2.882   2.002   4.465 -0.1006 -0.3326  2.1530
   82DG     H23 1886   2.995   1.901   4.556 -2.0114 -2.2777 -1.7287
   83DG      C1 1887   3.697   1.983   0.510 -0.1166 -0.1386  0.0427
   83DG      C2 1888   4.077   1.528   0.135 -0.7025 -0.3496  0.0657
   83DG      H3 1889   3.595   1.985   0.549  1.1511  0.8293  3.6504
   83DG      H4 1890   3.701   2.028   0.411  0.8043 -1.1695 -0.4070
   83DG      H5 1891   3.770   2.027   0.578 -0.1739 -1.5642  1.0693
   83DG      H6 1892   4.183   1.524   0.163 -0.7203 -4.0551  0.1060
   83DG      H7 1893   4.054   1.426   0.104 -1.4495 -0.3481  0.5936
   83DG      H8 1894   4.073   1.598   0.051 -0.2447  0.0854  0.3988
   83DG      O9 1895   3.727   1.850   0.487  0.2870  0.4982 -0.0792
   83DG     O10 1896   3.996   1.573   0.240  1.0715  0.3482 -0.2595
   83DG     C11 1897   3.752   1.792   0.615  0.2215 -0.3355  0.5022
   83DG     C12 1898   4.003   1.488   0.351 -0.0373 -0.4908  0.0243
   83DG     H13 1899   3.679   1.806   0.695 -0.1827  0.6142 -0.0185
   83DG     H14 1900   3.847   1.829   0.653 -0.3204  1.0639  0.5298
   83DG     H15 1901   4.102   1.489   0.396  0.1131 -1.2873 -0.2688
   83DG     H16 1902   4.004   1.389   0.305  0.1087 -0.3649 -0.2479
   83DG     C17 1903   3.771   1.643   0.586  0.0372 -0.4905  0.2072
   83DG     C18 1904   3.892   1.495   0.451  0.6073 -0.1160 -0.0941
   83DG     O19 1905   3.867   1.634   0.486 -0.2366  0.4287  0.1682
   83DG     H20 1906   3.682   1.584   0.562  0.5007 -0.0214 -3.0747
   83DG     H21 1907   3.817   1.604   0.677  2.1037  0.7779 -0.2246
   83DG     H22 1908   3.799   1.453   0.412 -2.1193  2.6696  2.7807
   83DG     H23 1909   3.926   1.439   0.538  1.3682 -0.6750 -0.7465
   84DG      C1 1910   1.322   5.754   4.668 -0.4389  0.2060  0.6212
   84DG      C2 1911   1.577   5.025   4.413  0.2605 -0.5502 -0.2895
   84DG      H3 1912   1.214   5.756   4.650 -0.3548 -0.3593 -0.0092
   84DG      H4 1913   1.373   5.808   4.588  2.1789  1.9440  3.2726
   84DG      H5 1914   1.346   5.818   4.753 -1.2756  0.7894  0.4257
   84DG      H6 1915   1.562   4.929   4.464 -1.3607  0.0834  0.4939
   84DG      H7 1916   1.511   5.008   4.328  0.5902 -1.0852 -0.4467
   84DG      H8 1917   1.682   5.036   4.387  1.5001  0.4877  4.3454
   84DG      O9 1918   1.368   5.620   4.692 -0.4311  0.1367 -0.2014
   84DG     O10 1919   1.526   5.128   4.493  0.0772  0.1888  0.0681
   84DG     C11 1920   1.353   5.532   4.584  0.1159  0.1357  0.9249
   84DG     C12 1921   1.629   5.159   4.584  0.2722  0.1804 -0.5692
   84DG     H13 1922   1.419   5.551   4.499 -0.7823 -1.7771 -0.2730
   84DG     H14 1923   1.253   5.529   4.539  1.0339 -0.5096 -1.2029
   84DG     H15 1924   1.703   5.214   4.527  0.9244  0.4610  0.5291
   84DG     H16 1925   1.674   5.077   4.641 -1.0092 -1.4289 -1.7583
   84DG     C17 1926   1.392   5.382   4.625  0.6546 -0.6389  0.7235
   84DG     C18 1927   1.585   5.256   4.701  0.3551  0.5316  0.0198
   84DG     O19 1928   1.531   5.378   4.651  0.2706  0.1365 -0.0536
   84DG     H20 1929   1.370   5.309   4.547  0.9614 -0.9940  0.9660
   84DG     H21 1930   1.332   5.359   4.713 -0.8952 -2.1734 -0.6480
   84DG     H22 1931   1.523   5.211   4.778  1.5431  0.9452  1.2759
   84DG     H23 1932   1.679   5.273   4.754  0.7980 -0.9789 -0.2502
   85DG      C1 1933   2.994   2.533  -0.223  0.3240 -1.0635 -0.4123
   85DG      C2 1934   2.999   1.828   0.264 -0.4470  0.0471  0.5605
   85DG      H3 1935   2.891   2.551  -0.253  1.0763  0.7311 -2.2037
   85DG      H4 1936   3.044   2.485  -0.307 -0.5264 -1.1658 -0.8725
   85DG      H5 1937   3.033   2.631  -0.196 -0.8830 -0.6827  0.0347
   85DG      H6 1938   2.947   1.771   0.187 -0.0653  1.2332 -0.6161
   85DG      H7 1939   3.089   1.770   0.282 -1.1981 -1.5762 -0.6828
   85DG      H8 1940   2.936   1.839   0.353  0.9451 -0.4952  1.6396
   85DG      O9 1941   2.986   2.440  -0.114  0.1503  0.1180  0.0702
   85DG     O10 1942   3.026   1.961   0.220 -1.0330  0.1829  0.0108
   85DG     C11 1943   3.116   2.393  -0.072 -0.2248 -0.4830  0.2197
   85DG     C12 1944   3.053   1.977   0.087 -0.4910  0.4460  0.7572
   85DG     H13 1945   3.184   2.478  -0.061  0.7388 -1.2702  0.4095
   85DG     H14 1946   3.177   2.331  -0.137  0.5274  1.2904 -0.8604
   85DG     H15 1947   2.956   1.970   0.038  1.5947 -1.4293 -3.7744
   85DG     H16 1948   3.116   1.894   0.054 -0.8958 -0.0217  1.1495
   85DG     C17 1949   3.094   2.343   0.068  0.2984  0.3327  0.6777
   85DG     C18 1950   3.110   2.109   0.049  0.5525 -0.4241 -0.1539
   85DG     O19 1951   3.022   2.217   0.077 -0.3361 -0.5368 -0.1382
   85DG     H20 1952   3.049   2.422   0.129 -1.3367 -0.5091  0.6344
   85DG     H21 1953   3.193   2.338   0.113  0.5780  0.2712  0.0658
   85DG     H22 1954   3.210   2.125   0.091 -0.1317  0.4171  1.2356
   85DG     H23 1955   3.104   2.118  -0.059 -3.3350 -0.5896 -0.0682
   86DG      C1 1956   4.833   4.347   0.080  0.1598  0.0754 -0.6002
   86DG      C2 1957   5.125   4.837   0.377 -0.6758 -0.1464 -0.6773
   86DG      H3 1958   4.864   4.416   0.002  0.1818 -2.2787 -2.7915
   86DG      H4 1959   4.737   4.308   0.045  0.9143  0.7286 -3.7338
   86DG      H5 1960   4.907   4.268   0.088 -0.5236 -0.4894  0.2735
   86DG      H6 1961   5.082   4.913   0.442  1.8225  1.2874 -0.5555
   86DG      H7 1962   5.219   4.796   0.413 -2.0186 -0.9230  2.1775
   86DG      H8 1963   5.133   4.887   0.280 -0.6621  1.0711 -0.0708
   86DG      O9 1964   4.823   4.419   0.203  0.7152  0.5663 -0.2128
   86DG     O10 1965   5.046   4.723   0.372  0.8520 -0.2197 -0.1753
   86DG     C11 1966   4.785   4.333   0.309 -0.5531 -0.0007 -0.4778
   86DG     C12 1967   5.019   4.673   0.501 -0.4518 -0.0839  0.2864
   86DG     H13 1968   4.865   4.267   0.340 -0.3412  0.3581 -0.2629
   86DG     H14 1969   4.701   4.267   0.288 -2.5284  1.9691  0.7276
   86DG     H15 1970   4.952   4.741   0.554 -2.5475 -0.0179 -2.2230
   86DG     H16 1971   5.107   4.656   0.564  0.2995  0.5501 -0.5576
   86DG     C17 1972   4.746   4.423   0.430 -0.1157  0.0152 -0.4558
   86DG     C18 1973   4.947   4.536   0.496  0.4527 -0.5281  1.1510
   86DG     O19 1974   4.816   4.551   0.436 -0.4899  0.5458  0.5560
   86DG     H20 1975   4.749   4.364   0.522  2.6951  0.2371 -0.3309
   86DG     H21 1976   4.642   4.453   0.415  0.3670  2.3791  0.5953
   86DG     H22 1977   4.993   4.461   0.432 -1.6778 -1.1796  0.3002
   86DG     H23 1978   4.934   4.499   0.598  1.2476 -2.2543  0.6464
   87DG      C1 1979   1.404   1.289   3.042 -0.0902 -0.4305 -0.4876
   87DG      C2 1980   1.560   1.507   3.744  0.2979  0.2612  0.0597
   87DG      H3 1981   1.511   1.277   3.028  0.3355 -0.9012  2.4762
   87DG      H4 1982   1.382   1.394   3.020  1.3938  0.2589  1.1018
   87DG      H5 1983   1.352   1.225   2.971  0.4189 -1.1160 -0.2509
   87DG      H6 1984   1.669   1.502   3.752  0.5458  0.5470 -2.2716
   87DG      H7 1985   1.529   1.582   3.671  0.7747  1.9628  1.5390
   87DG      H8 1986   1.525   1.533   3.844  0.4618  0.5193  0.0484
   87DG      O9 1987   1.370   1.270   3.183  0.0164  0.1579  0.4659
   87DG     O10 1988   1.525   1.378   3.703  0.0259  0.6749  0.1931
   87DG     C11 1989   1.408   1.156   3.246  0.3387 -0.1037 -0.2142
   87DG     C12 1990   1.378   1.358   3.688  0.4617 -0.0855  0.0840
   87DG     H13 1991   1.516   1.145   3.252  0.2314 -0.3737  1.7094
   87DG     H14 1992   1.383   1.070   3.184  2.0409 -0.1638 -0.8749
   87DG     H15 1993   1.336   1.450   3.647 -0.4283 -1.2984 -1.8869
   87DG     H16 1994   1.333   1.357   3.788  0.9959  2.2878  0.4117
   87DG     C17 1995   1.337   1.139   3.379 -0.1471  0.1056 -1.1423
   87DG     C18 1996   1.330   1.247   3.595 -0.6413 -0.1843 -0.1448
   87DG     O19 1997   1.391   1.238   3.467 -0.3223  0.3232  0.0437
   87DG     H20 1998   1.358   1.039   3.419 -0.6913  0.1427 -0.7703
   87DG     H21 1999   1.229   1.141   3.379 -0.2229 -1.6541  0.0643
   87DG     H22 2000   1.361   1.156   3.646 -0.4660  1.1695  2.2850
   87DG     H23 2001   1.221   1.249   3.583 -0.6841  2.0246  0.2258
   88DG      C1 2002   2.210   2.468  -0.180 -0.0480  0.3216  0.2708
   88DG      C2 2003   1.981   2.496   0.596  0.0545  0.0447  0.0953
   88DG      H3 2004   2.317   2.450  -0.194 -0.4061 -0.8415 -1.2855
   88DG      H4 2005   2.199   2.576  -0.167 -1.2810  0.3036 -0.4479
   88DG      H5 2006   2.180   2.448  -0.283 -0.7586 -0.2816  0.5850
   88DG      H6 2007   1.969   2.412   0.665  0.2796  0.5186  0.7247
   88DG      H7 2008   2.088   2.514   0.589 -0.0485  1.5308  1.7010
   88DG      H8 2009   1.936   2.587   0.635 -1.4556  0.2882 -2.0162
   88DG      O9 2010   2.147   2.383  -0.086 -0.1454 -0.2050 -0.6632
   88DG     O10 2011   1.930   2.466   0.462 -0.2006 -0.0603 -0.8448
   88DG     C11 2012   2.012   2.423  -0.070  1.1288 -0.8912  0.0644
   88DG     C12 2013   1.985   2.343   0.413 -0.0221  0.5380  0.7699
   88DG     H13 2014   1.955   2.405  -0.160 -0.6440 -1.8977  1.3205
   88DG     H14 2015   2.008   2.529  -0.045 -3.0450 -1.2716  1.8592
   88DG     H15 2016   1.960   2.264   0.483 -0.2650 -0.8093 -0.7748
   88DG     H16 2017   2.092   2.348   0.397  0.1012 -0.6830  1.1109
   88DG     C17 2018   1.929   2.347   0.041 -0.3490  0.1206 -0.0441
   88DG     C18 2019   1.923   2.294   0.285  0.5319  0.0290  0.5392
   88DG     O19 2020   1.993   2.364   0.170 -0.3851  0.0032  0.2905
   88DG     H20 2021   1.948   2.241   0.026 -0.0660  0.1232  0.2843
   88DG     H21 2022   1.823   2.376   0.044 -0.6579 -0.9557 -0.1840
   88DG     H22 2023   1.932   2.189   0.261 -1.4022  0.4533 -2.5567
   88DG     H23 2024   1.817   2.316   0.276  0.7473  1.1367  0.5284
   89DG      C1 2025   4.905   3.165   2.704 -0.2634 -0.3516 -0.1705
   89DG      C2 2026   4.752   2.701   3.074  0.1449 -0.1068 -0.4374
   89DG      H3 2027   4.814   3.219   2.677 -1.3053 -0.4554  2.7475
   89DG      H4 2028   4.992   3.211   2.659 -0.4770 -0.6765 -0.9241
   89DG      H5 2029   4.908   3.174   2.813  1.8568  2.1267 -0.3408
   89DG      H6 2030   4.693   2.627   3.127  0.7677  0.2024  0.7271
   89DG      H7 2031   4.856   2.670   3.088  0.3650  1.6202  2.7426
   89DG      H8 2032   4.733   2.790   3.134 -1.2658  1.1845 -2.6554
   89DG      O9 2033   4.893   3.030   2.654 -0.1855 -0.5330  0.3984
   89DG     O10 2034   4.703   2.711   2.936  1.1160 -0.5635 -0.1792
   89DG     C11 2035   4.768   2.969   2.664  0.5992 -0.0715  0.0414
   89DG     C12 2036   4.744   2.604   2.853  0.4461 -0.1346 -0.1131
   89DG     H13 2037   4.693   3.025   2.608 -0.1331 -0.3188  0.7550
   89DG     H14 2038   4.717   2.980   2.760 -1.6504 -0.7663 -0.9861
   89DG     H15 2039   4.727   2.502   2.886 -0.6018 -0.5678 -1.8386
   89DG     H16 2040   4.852   2.614   2.841  0.2543  1.5266 -0.7687
   89DG     C17 2041   4.781   2.818   2.639  0.3111  0.5408  0.0733
   89DG     C18 2042   4.673   2.616   2.715 -0.0454 -0.0659 -0.2014
   89DG     O19 2043   4.658   2.750   2.677 -0.9292 -0.6089 -0.2827
   89DG     H20 2044   4.863   2.791   2.705 -1.2043  1.1414  2.3014
   89DG     H21 2045   4.815   2.803   2.537 -0.1770  1.8789 -0.3075
   89DG     H22 2046   4.719   2.554   2.638 -0.3978  0.1509 -0.5921
   89DG     H23 2047   4.574   2.573   2.728  1.4478 -3.2215  2.0007
   90DG      C1 2048   0.704   4.504   5.146 -0.4450  0.0045  0.2368
   90DG      C2 2049   0.420   4.581   4.553  0.0332  0.2234  0.4216
   90DG      H3 2050   0.796   4.461   5.188 -2.0393 -1.8686  2.0239
   90DG      H4 2051   0.633   4.472   5.222  1.4033  0.2655  2.1776
   90DG      H5 2052   0.715   4.611   5.133  1.2112 -0.1755 -0.1405
   90DG      H6 2053   0.418   4.577   4.444  1.7795  0.8908  0.3347
   90DG      H7 2054   0.324   4.543   4.587  0.4720  0.1081  1.5677
   90DG      H8 2055   0.429   4.687   4.577  2.4706  0.3569 -0.7525
   90DG      O9 2056   0.683   4.446   5.017  0.3654 -0.0317  1.0591
   90DG     O10 2057   0.529   4.513   4.613 -0.0719  0.3725 -0.7011
   90DG     C11 2058   0.677   4.302   5.012  0.1992 -0.4070 -0.8829
   90DG     C12 2059   0.522   4.371   4.572 -0.2674  0.3374  0.1355
   90DG     H13 2060   0.573   4.292   5.045  0.4491  0.5943  0.2982
   90DG     H14 2061   0.747   4.252   5.079 -1.0990 -0.3274  0.6036
   90DG     H15 2062   0.537   4.353   4.465  0.4139  0.4673  0.2024
   90DG     H16 2063   0.423   4.332   4.595 -0.8259  1.1763 -0.7871
   90DG     C17 2064   0.687   4.238   4.873 -0.5490 -0.0523  0.4504
   90DG     C18 2065   0.627   4.283   4.646 -0.1691  0.9265  0.0982
   90DG     O19 2066   0.616   4.326   4.784  0.2153  0.2878  0.6293
   90DG     H20 2067   0.647   4.137   4.869  0.9117 -0.6196 -2.6526
   90DG     H21 2068   0.790   4.230   4.840 -1.0624  0.8241 -1.4886
   90DG     H22 2069   0.609   4.179   4.623 -0.2492  1.3594 -2.0382
   90DG     H23 2070   0.725   4.313   4.607 -0.3405  0.5710 -0.6142
   91DG      C1 2071   4.818   4.086   4.569 -0.1460 -0.0868  0.1347
   91DG      C2 2072   4.924   3.915   4.031  0.0672  0.4299 -0.2961
   91DG      H3 2073   4.913   4.139   4.564  0.9935 -2.1106 -0.7309
   91DG      H4 2074   4.800   4.042   4.667 -1.9785  3.3736  1.5518
   91DG      H5 2075   4.742   4.164   4.569 -0.5980 -0.5084  1.2355
   91DG      H6 2076   4.980   3.830   4.070  0.1574  1.1306  1.2000
   91DG      H7 2077   4.937   3.926   3.924 -3.3122 -1.8590 -1.1033
   91DG      H8 2078   4.943   4.007   4.086  2.4569  0.0227 -0.3485
   91DG      O9 2079   4.798   4.001   4.456  0.1528  0.3054  0.2071
   91DG     O10 2080   4.789   3.874   4.037  0.2211  0.7968  0.2518
   91DG     C11 2081   4.670   3.946   4.454  0.1670  0.3960  0.0888
   91DG     C12 2082   4.695   3.976   4.004 -0.3788 -0.2239 -0.4982
   91DG     H13 2083   4.597   4.023   4.482  0.8972  1.3971 -0.7131
   91DG     H14 2084   4.655   3.868   4.529  0.6505  0.1469 -0.0726
   91DG     H15 2085   4.655   3.954   3.905 -0.0918  1.1829 -0.9418
   91DG     H16 2086   4.742   4.074   3.994  2.0710 -1.4336 -1.9408
   91DG     C17 2087   4.624   3.904   4.317 -0.3890 -0.1524  0.8069
   91DG     C18 2088   4.580   3.983   4.104  0.3217  0.1756 -0.1043
   91DG     O19 2089   4.634   4.016   4.229  0.2215 -0.2784 -0.1939
   91DG     H20 2090   4.524   3.862   4.320 -0.4518 -1.1151 -4.4234
   91DG     H21 2091   4.690   3.823   4.283 -1.1997  0.0642 -1.4855
   91DG     H22 2092   4.527   4.074   4.076 -0.5954 -0.6976 -1.3209
   91DG     H23 2093   4.523   3.890   4.105 -0.7892  0.8258 -0.6242
   92DG      C1 2094   1.073   2.575   3.479  0.4700 -0.9886  0.3018
   92DG      C2 2095   0.496   2.739   3.708  0.0360  0.9952 -0.0952
   92DG      H3 2096   1.180   2.591   3.467  0.6101 -1.3651  1.0302
   92DG      H4 2097   1.018   2.563   3.385 -0.1941  0.7496  0.4220
   92DG      H5 2098   1.045   2.494   3.546 -1.7538 -0.4224  0.1488
   92DG      H6 2099   0.465   2.687   3.799  0.3672  1.9814  0.5977
   92DG      H7 2100   0.428   2.824   3.710 -0.0877  0.8894  0.5458
   92DG      H8 2101   0.463   2.689   3.617 -0.6454  1.5225 -0.1425
   92DG      O9 2102   1.013   2.697   3.536  0.0887 -0.5488 -0.1405
   92DG     O10 2103   0.632   2.764   3.693  0.1136 -0.9736  0.0370
   92DG     C11 2104   1.084   2.744   3.655  0.3019 -0.1417  0.6965
   92DG     C12 2105   0.683   2.821   3.809  0.3238  0.6862  0.4127
   92DG     H13 2106   1.191   2.762   3.642  0.1190  1.9401  1.5574
   92DG     H14 2107   1.089   2.670   3.735 -1.0018 -0.9012  0.0903
   92DG     H15 2108   0.658   2.753   3.890  0.7034 -0.6382 -0.5525
   92DG     H16 2109   0.643   2.919   3.831  2.1034  1.3527  0.8884
   92DG     C17 2110   1.022   2.878   3.696  0.7983  0.2273 -0.5109
   92DG     C18 2111   0.834   2.797   3.814  0.1211 -0.5048 -0.0503
   92DG     O19 2112   0.876   2.874   3.703  0.0071 -0.1543 -0.8052
   92DG     H20 2113   1.044   2.964   3.632 -1.4325  2.0783  1.0322
   92DG     H21 2114   1.064   2.911   3.791 -0.9043 -1.3325  0.8487
   92DG     H22 2115   0.868   2.847   3.904 -2.0645  4.3405 -1.6200
   92DG     H23 2116   0.856   2.691   3.799 -0.8837 -0.6313 -0.7040
   93DG      C1 2117   1.184   4.487   2.687 -0.1711 -0.1486  0.5054
   93DG      C2 2118   1.259   4.925   2.282  0.8937  0.1158  0.4156
   93DG      H3 2119   1.230   4.461   2.783 -0.1018 -0.8308  0.2860
   93DG      H4 2120   1.233   4.435   2.606 -0.7829 -0.8347  0.5631
   93DG      H5 2121   1.078   4.460   2.689 -0.6790  1.7131  1.4046
   93DG      H6 2122   1.344   4.878   2.233  0.3816  1.0438 -1.4615
   93DG      H7 2123   1.183   4.849   2.271  1.5450 -0.2468 -1.9232
   93DG      H8 2124   1.235   5.018   2.230  2.7869 -0.6602 -2.0237
   93DG      O9 2125   1.190   4.635   2.670  0.1955  0.7428  0.3508
   93DG     O10 2126   1.293   4.948   2.413  0.2502  0.0624  0.3430
   93DG     C11 2127   1.142   4.706   2.781 -0.3111  1.1417  0.5870
   93DG     C12 2128   1.193   5.023   2.482 -0.6215 -0.2257 -0.6085
   93DG     H13 2129   1.218   4.698   2.859 -0.4773 -2.6109  0.5464
   93DG     H14 2130   1.053   4.657   2.821 -0.4654  0.4685 -0.5474
   93DG     H15 2131   1.099   4.968   2.478 -0.0652 -1.2916  0.2778
   93DG     H16 2132   1.174   5.124   2.445 -1.4274 -0.3877 -0.6672
   93DG     C17 2133   1.110   4.845   2.730 -0.0514 -0.2085 -0.0911
   93DG     C18 2134   1.232   5.028   2.629  0.1828 -0.2357  0.2513
   93DG     O19 2135   1.235   4.897   2.678  0.2195 -0.1901 -0.1082
   93DG     H20 2136   1.072   4.917   2.802 -0.3557 -0.4675  0.0091
   93DG     H21 2137   1.036   4.830   2.652  1.2279 -1.0002 -1.2165
   93DG     H22 2138   1.328   5.079   2.639  0.2178 -0.1919 -0.2840
   93DG     H23 2139   1.154   5.084   2.679 -0.5611 -1.0185 -0.0084
   94DG      C1 2140  -0.378   5.210   5.168  0.1390 -0.3860  0.1267
   94DG      C2 2141   0.345   4.979   4.634  0.2270 -0.6668 -0.5588
   94DG      H3 2142  -0.437   5.270   5.237 -0.0263  0.1488 -0.4607
   94DG      H4 2143  -0.381   5.105   5.196 -0.8530 -0.6752 -0.9455
   94DG      H5 2144  -0.443   5.209   5.080 -1.6487  1.0971  1.3515
   94DG      H6 2145   0.314   4.880   4.669 -1.1980  0.3371  1.2164
   94DG      H7 2146   0.297   4.990   4.537 -0.1665 -1.3824 -0.4569
   94DG      H8 2147   0.451   4.977   4.612  0.3007  0.5967 -0.3913
   94DG      O9 2148  -0.250   5.256   5.128 -0.4142 -0.3382  0.3242
   94DG     O10 2149   0.306   5.082   4.719 -0.2711  0.4511 -0.7029
   94DG     C11 2150  -0.191   5.180   5.032  0.3539  0.6720 -0.3475
   94DG     C12 2151   0.169   5.088   4.746 -0.1234  0.8977 -0.2016
   94DG     H13 2152  -0.252   5.183   4.941 -1.7156 -1.1218  0.8851
   94DG     H14 2153  -0.172   5.076   5.056  0.4869  0.8516  0.3295
   94DG     H15 2154   0.127   4.990   4.769  2.2518 -0.2244 -0.3629
   94DG     H16 2155   0.120   5.115   4.652 -1.7391 -2.1251 -0.3400
   94DG     C17 2156  -0.056   5.237   4.999 -0.3493  1.0920 -0.0808
   94DG     C18 2157   0.141   5.188   4.862 -0.2610 -0.0330 -0.0598
   94DG     O19 2158   0.009   5.157   4.904 -0.2495  0.7684  0.0693
   94DG     H20 2159   0.014   5.252   5.081  0.7286  2.1317 -1.1474
   94DG     H21 2160  -0.063   5.336   4.954 -2.0753  2.0055  2.0023
   94DG     H22 2161   0.208   5.183   4.948  0.9874 -2.4955 -1.0918
   94DG     H23 2162   0.140   5.284   4.811  0.9671  0.3602  0.6066
   95DG      C1 2163   3.199   0.642   0.380 -0.1472  1.3851 -0.2689
   95DG      C2 2164   3.030   0.900  -0.218  0.1662 -0.0055 -0.0017
   95DG      H3 2165   3.261   0.617   0.467 -0.6467 -1.2507 -0.5769
   95DG      H4 2166   3.160   0.544   0.351  2.1309  0.2647  0.1778
   95DG      H5 2167   3.110   0.695   0.413 -0.5488  0.4745  0.1404
   95DG      H6 2168   3.081   0.971  -0.152  1.5804 -0.4523 -0.5752
   95DG      H7 2169   3.055   0.911  -0.323 -0.9865 -0.4537 -0.3420
   95DG      H8 2170   2.922   0.911  -0.225 -0.1789 -2.4569  0.7392
   95DG      O9 2171   3.256   0.687   0.263  0.1252 -0.0405  0.2774
   95DG     O10 2172   3.059   0.760  -0.192 -0.5639  0.5706  0.1918
   95DG     C11 2173   3.371   0.625   0.222 -0.1391  0.1473  0.3909
   95DG     C12 2174   3.193   0.715  -0.179 -0.4385  0.0699  0.4867
   95DG     H13 2175   3.343   0.523   0.195 -2.1497  0.2072  1.9763
   95DG     H14 2176   3.448   0.620   0.300 -0.8610 -1.7816  1.0326
   95DG     H15 2177   3.254   0.766  -0.254 -0.2311  0.9030  1.1945
   95DG     H16 2178   3.200   0.607  -0.192  2.7970  0.2404  0.0200
   95DG     C17 2179   3.437   0.701   0.106  0.6624  0.0716 -0.5826
   95DG     C18 2180   3.250   0.745  -0.036 -0.0622 -0.5491 -1.0357
   95DG     O19 2181   3.371   0.685  -0.012 -0.1493  0.3254  0.2729
   95DG     H20 2182   3.540   0.679   0.078  1.4386  1.4948  1.0028
   95DG     H21 2183   3.442   0.806   0.135  0.0088 -0.2879  0.9085
   95DG     H22 2184   3.264   0.852  -0.025 -0.7075 -0.7047  2.2137
   95DG     H23 2185   3.169   0.711   0.029 -2.2251  0.4606 -3.0377
   96DG      C1 2186   0.868   1.215   0.782  0.8376  0.4023 -0.5681
   96DG      C2 2187   0.989   1.899   0.795 -0.1772  0.2735 -0.5748
   96DG      H3 2188   0.903   1.125   0.832 -1.7251 -1.1033 -1.3198
   96DG      H4 2189   0.898   1.221   0.678 -1.4382 -0.9269 -1.3584
   96DG      H5 2190   0.760   1.201   0.788  0.9907 -1.3633 -1.4061
   96DG      H6 2191   1.045   1.977   0.848  0.1343  1.4252 -2.5074
   96DG      H7 2192   1.047   1.868   0.709 -0.5997  1.1141 -1.1820
   96DG      H8 2193   0.891   1.933   0.762  0.0166  0.7007 -0.7277
   96DG      O9 2194   0.909   1.330   0.852 -0.6972 -0.3982 -0.3477
   96DG     O10 2195   0.971   1.783   0.868  0.1190  0.2056  0.4792
   96DG     C11 2196   0.855   1.338   0.986  0.3667  0.4666 -0.1181
   96DG     C12 2197   0.902   1.804   0.989 -0.1562 -0.2797 -0.4853
   96DG     H13 2198   0.883   1.246   1.038  2.0552  0.6705 -0.6070
   96DG     H14 2199   0.749   1.356   0.973 -0.1553 -0.7449  2.0004
   96DG     H15 2200   0.796   1.817   0.964  0.4826  0.8271 -2.9787
   96DG     H16 2201   0.928   1.901   1.033  1.3929 -0.7019 -0.4192
   96DG     C17 2202   0.918   1.454   1.061  0.1317  0.6626  0.3101
   96DG     C18 2203   0.933   1.685   1.075 -0.0796 -0.5431 -0.7712
   96DG     O19 2204   0.883   1.579   1.005  0.1910  0.5095  0.1930
   96DG     H20 2205   1.026   1.444   1.070  0.0908 -3.2559 -1.3831
   96DG     H21 2206   0.884   1.445   1.164 -0.4132 -0.3810  0.0573
   96DG     H22 2207   1.038   1.678   1.104 -0.0153  0.6224 -0.6771
   96DG     H23 2208   0.882   1.704   1.169  0.2129  0.6301 -0.8360
   97DG      C1 2209   1.517   5.080   0.841 -0.8010  0.1970  0.0973
   97DG      C2 2210   2.147   4.894   0.893  0.1441 -0.1764  0.4384
   97DG      H3 2211   1.514   5.026   0.936  0.8347 -1.6999 -0.8632
   97DG      H4 2212   1.415   5.097   0.806 -1.2316  0.1281  1.2502
   97DG      H5 2213   1.555   5.179   0.865  0.2705 -0.6660  2.2251
   97DG      H6 2214   2.233   4.844   0.851  0.0241 -0.3923  0.4484
   97DG      H7 2215   2.172   4.995   0.924 -1.8233  0.1175  1.2383
   97DG      H8 2216   2.112   4.847   0.985 -1.1261 -0.1914 -0.0274
   97DG      O9 2217   1.614   5.013   0.761  0.0686  0.5719  0.3922
   97DG     O10 2218   2.051   4.907   0.791  0.0278  0.4491  0.4640
   97DG     C11 2219   1.642   5.090   0.643  0.0925  0.0653  0.2088
   97DG     C12 2220   2.098   4.967   0.673  0.5814 -0.0236  0.0933
   97DG     H13 2221   1.685   5.186   0.670 -1.9976  1.1816 -0.1895
   97DG     H14 2222   1.550   5.101   0.584 -0.1663  0.9401  0.7542
   97DG     H15 2223   2.177   4.907   0.630 -0.1268  1.2332 -3.2165
   97DG     H16 2224   2.136   5.068   0.690  2.4241 -0.2596 -2.2401
   97DG     C17 2225   1.744   5.015   0.554  0.4673  0.0290  0.1770
   97DG     C18 2226   1.978   4.959   0.575  0.5043 -0.9187 -0.4726
   97DG     O19 2227   1.860   5.012   0.636 -0.5077 -0.1582  0.0241
   97DG     H20 2228   1.773   5.055   0.457  3.3066  0.0666  0.9449
   97DG     H21 2229   1.722   4.911   0.532 -0.0519  0.2004 -0.1108
   97DG     H22 2230   2.003   5.010   0.481  0.7651 -1.9646 -0.9876
   97DG     H23 2231   1.959   4.856   0.547  0.0924 -1.0773  0.3778
   98DG      C1 2232   3.474   4.077   0.453  0.4662  0.3946 -0.3254
   98DG      C2 2233   2.943   3.624   0.518 -0.1794  0.2840 -0.0413
   98DG      H3 2234   3.470   4.059   0.346 -0.4230  0.3863 -0.2974
   98DG      H4 2235   3.578   4.107   0.469  0.0518  1.1379  1.2484
   98DG      H5 2236   3.408   4.157   0.487 -0.3462  0.3369 -1.7307
   98DG      H6 2237   2.959   3.596   0.414 -1.3234 -0.1808 -0.1111
   98DG      H7 2238   2.894   3.536   0.560 -1.3145  0.8293 -0.1754
   98DG      H8 2239   2.864   3.699   0.526 -0.5866  0.0341 -1.4316
   98DG      O9 2240   3.450   3.958   0.531 -0.2100  0.0836 -0.5421
   98DG     O10 2241   3.058   3.650   0.592  0.3542 -0.4113 -0.7312
   98DG     C11 2242   3.514   3.835   0.490  0.3519  0.1830  0.6345
   98DG     C12 2243   3.143   3.538   0.609 -0.7422  0.6510 -0.2813
   98DG     H13 2244   3.621   3.852   0.497  0.2901  2.0069 -1.5838
   98DG     H14 2245   3.509   3.813   0.383  0.3783  2.2012  0.1823
   98DG     H15 2246   3.135   3.477   0.519  0.9402  0.0927 -0.0791
   98DG     H16 2247   3.118   3.469   0.690 -1.0903  0.0182 -0.9102
   98DG     C17 2248   3.471   3.730   0.583  0.0089  0.8776  0.4151
   98DG     C18 2249   3.290   3.588   0.636 -0.0496  0.4658  0.3446
   98DG     O19 2250   3.343   3.681   0.543 -0.2156  0.1608 -0.0401
   98DG     H20 2251   3.480   3.766   0.685  0.4616  2.1260 -0.0464
   98DG     H21 2252   3.533   3.640   0.586 -0.3814  0.5416 -0.8306
   98DG     H22 2253   3.270   3.639   0.731 -0.4338  2.3958 -0.7305
   98DG     H23 2254   3.358   3.505   0.652 -0.4606 -0.1229 -0.8569
   99DG      C1 2255   0.469   5.323   0.815 -0.4455 -0.5006 -0.7940
   99DG      C2 2256   1.065   5.217   0.715  0.5067  0.9321  0.2516
   99DG      H3 2257   0.498   5.396   0.890 -2.2928 -0.7917  0.2655
   99DG      H4 2258   0.468   5.224   0.861  4.0262 -0.8423 -0.9828
   99DG      H5 2259   0.372   5.361   0.784 -0.5246 -1.5038 -1.8126
   99DG      H6 2260   1.054   5.123   0.769  1.6932  1.6403  1.8069
   99DG      H7 2261   1.171   5.234   0.695  0.1108  3.1933 -0.1869
   99DG      H8 2262   1.042   5.286   0.796 -0.6299  0.6267  0.2000
   99DG      O9 2263   0.560   5.306   0.705  0.0874 -0.6431 -0.2747
   99DG     O10 2264   0.982   5.205   0.596 -0.1053 -0.2974  0.0821
   99DG     C11 2265   0.569   5.433   0.630 -0.2728 -0.6873  0.2016
   99DG     C12 2266   1.000   5.314   0.511 -0.6329  0.1347  0.6999
   99DG     H13 2267   0.592   5.515   0.698  1.1111 -0.2279 -0.7952
   99DG     H14 2268   0.467   5.456   0.596 -0.1671  0.2786  0.5066
   99DG     H15 2269   1.090   5.302   0.449 -1.6885 -1.7950 -0.5795
   99DG     H16 2270   1.011   5.405   0.569  1.6470  1.1603 -1.1293
   99DG     C17 2271   0.657   5.424   0.504 -0.0584  0.1089 -0.2659
   99DG     C18 2272   0.865   5.330   0.436  0.2886 -0.8112 -0.3456
   99DG     O19 2273   0.784   5.381   0.541 -0.1218  0.0624  0.2051
   99DG     H20 2274   0.669   5.516   0.447 -3.3377 -0.0161 -1.3824
   99DG     H21 2275   0.612   5.356   0.432 -1.1265  0.3795  0.1299
   99DG     H22 2276   0.868   5.407   0.359  1.4957  0.2081  0.6755
   99DG     H23 2277   0.818   5.241   0.395  0.6740 -1.9692  1.6054
  100DG      C1 2278   3.631   0.305   2.047 -0.7067 -0.2464 -0.0725
  100DG      C2 2279   3.427   0.960   1.865 -0.5141  1.0703 -0.4940
  100DG      H3 2280   3.581   0.219   2.091 -1.3915  0.5674  0.7791
  100DG      H4 2281   3.690   0.359   2.121  0.4557 -0.7797 -0.5838
  100DG      H5 2282   3.707   0.282   1.972 -1.8329  0.3001 -1.4233
  100DG      H6 2283   3.465   0.945   1.765  1.6708 -0.9215  0.5433
  100DG      H7 2284   3.360   1.046   1.860 -1.2583  0.7203  2.0967
  100DG      H8 2285   3.502   0.987   1.939 -1.6994  1.4346  0.6183
  100DG      O9 2286   3.518   0.375   1.989 -0.1134 -0.0603  0.3984
  100DG     O10 2287   3.367   0.836   1.915  0.5934 -0.2247  0.6213
  100DG     C11 2288   3.428   0.411   2.090  0.7881 -0.6543  0.0405
  100DG     C12 2289   3.271   0.774   1.829  0.3862  0.1475  0.5844
  100DG     H13 2290   3.464   0.491   2.154  0.9391  0.3803 -1.2923
  100DG     H14 2291   3.416   0.328   2.160 -0.8890 -0.6246 -0.1569
  100DG     H15 2292   3.332   0.736   1.747  1.7777  1.3544  1.0092
  100DG     H16 2293   3.193   0.840   1.791 -0.0990 -0.8202 -0.1669
  100DG     C17 2294   3.296   0.459   2.017 -0.7591 -0.2068 -0.0804
  100DG     C18 2295   3.215   0.653   1.900  0.0821  0.0881 -0.7118
  100DG     O19 2296   3.314   0.597   1.986 -0.0076  1.3609 -0.1016
  100DG     H20 2297   3.206   0.450   2.078 -0.1572 -1.7194  0.6594
  100DG     H21 2298   3.276   0.389   1.935 -0.4093 -0.4809  0.0664
  100DG     H22 2299   3.122   0.664   1.956 -0.2834  0.2469 -1.3418
  100DG     H23 2300   3.178   0.583   1.825 -2.1583  2.1148 -1.6417
  101DG      C1 2301   1.900   4.239   3.391  0.3422 -0.7014  0.5331
  101DG      C2 2302   2.125   4.572   2.697  0.3247  1.0271 -0.4272
  101DG      H3 2303   1.870   4.151   3.333 -0.3360  0.7520 -1.4175
  101DG      H4 2304   1.816   4.305   3.413  0.2586 -0.9009  0.8116
  101DG      H5 2305   1.941   4.204   3.486 -0.9546 -1.8943  0.7000
  101DG      H6 2306   2.206   4.540   2.630  0.7045 -1.3499  1.0422
  101DG      H7 2307   2.037   4.611   2.646 -2.3204 -1.7484  1.6355
  101DG      H8 2308   2.175   4.654   2.749 -1.1831  1.9969 -0.4634
  101DG      O9 2309   1.984   4.325   3.307 -0.0296 -0.0415  0.0817
  101DG     O10 2310   2.092   4.455   2.771  0.2612 -0.1388  0.7095
  101DG     C11 2311   2.103   4.257   3.261  0.5183 -0.1996 -0.3537
  101DG     C12 2312   2.007   4.479   2.886  0.5463  0.0122 -0.0235
  101DG     H13 2313   2.072   4.153   3.244 -0.5308 -0.0481  0.5320
  101DG     H14 2314   2.182   4.272   3.334 -0.7633 -0.1091  1.0530
  101DG     H15 2315   1.916   4.530   2.857 -0.8903 -3.1970 -1.7185
  101DG     H16 2316   2.057   4.545   2.957 -1.1440 -1.9449  3.2387
  101DG     C17 2317   2.138   4.321   3.122 -0.2692  0.2384  0.1386
  101DG     C18 2318   1.966   4.346   2.953  0.1311 -0.3587 -0.2797
  101DG     O19 2319   2.079   4.273   3.006  0.2732 -0.5895  0.4413
  101DG     H20 2320   2.240   4.288   3.102 -1.1432 -1.0981 -2.4453
  101DG     H21 2321   2.138   4.430   3.121  0.6146  0.2540  0.6589
  101DG     H22 2322   1.895   4.373   3.032 -0.9708 -0.4061 -1.2319
  101DG     H23 2323   1.917   4.278   2.883  2.9706 -2.4255 -0.4361
  102DG      C1 2324   4.982   1.763   3.372 -0.0208 -0.3408  0.1132
  102DG      C2 2325   4.326   1.373   3.555  0.0250  0.0163 -0.1860
  102DG      H3 2326   5.069   1.789   3.432 -0.3816  0.1707  0.4165
  102DG      H4 2327   4.932   1.857   3.353 -1.1803 -0.5670  1.8349
  102DG      H5 2328   5.022   1.739   3.273 -1.0038 -0.0041 -0.3744
  102DG      H6 2329   4.270   1.443   3.494 -0.3169 -1.3581 -1.5166
  102DG      H7 2330   4.259   1.289   3.574  0.1153 -0.8339 -3.1905
  102DG      H8 2331   4.365   1.424   3.643 -0.4855  1.7947 -0.9478
  102DG      O9 2332   4.893   1.662   3.422  0.0046 -0.7065 -0.4554
  102DG     O10 2333   4.416   1.307   3.476 -0.4363 -0.8854  0.0039
  102DG     C11 2334   4.953   1.540   3.453  0.0074 -0.0987  0.9624
  102DG     C12 2335   4.536   1.391   3.473 -0.0394 -0.7500  0.1080
  102DG     H13 2336   5.016   1.568   3.538  1.1395  4.5101 -1.1152
  102DG     H14 2337   5.011   1.505   3.368 -2.0181  1.8714 -1.3894
  102DG     H15 2338   4.572   1.403   3.575  0.9569 -2.3270 -0.0242
  102DG     H16 2339   4.520   1.487   3.424  1.2331 -0.8078 -0.4560
  102DG     C17 2340   4.857   1.431   3.492  0.2026 -0.0082  0.4731
  102DG     C18 2341   4.657   1.325   3.399 -0.0721 -0.2999  0.0285
  102DG     O19 2342   4.770   1.415   3.381  0.3655  0.6090 -0.6503
  102DG     H20 2343   4.809   1.461   3.586  0.9350 -0.8470  1.1342
  102DG     H21 2344   4.897   1.331   3.508  0.5848 -0.1491 -1.1976
  102DG     H22 2345   4.699   1.234   3.440  0.9132  0.6886  1.2717
  102DG     H23 2346   4.642   1.306   3.292  1.9044  1.9760 -0.7531
  103DG      C1 2347   0.059   2.350   5.361  0.0749  0.3962 -0.5996
  103DG      C2 2348   0.115   3.127   5.095 -0.1260  0.3139 -0.0726
  103DG      H3 2349  -0.020   2.275   5.369 -0.9434  1.3191 -1.6462
  103DG      H4 2350   0.141   2.339   5.432  1.4007  1.1768 -1.9371
  103DG      H5 2351   0.111   2.338   5.265  0.9159  0.0854 -0.1213
  103DG      H6 2352   0.023   3.157   5.046  0.1665  1.1514 -0.1233
  103DG      H7 2353   0.127   3.174   5.193  0.4682  3.5785 -1.5963
  103DG      H8 2354   0.196   3.158   5.029  0.7943 -0.3013  0.7300
  103DG      O9 2355  -0.003   2.481   5.365 -0.0301  0.1800  0.3030
  103DG     O10 2356   0.101   2.986   5.103 -0.1603  0.2433  0.0285
  103DG     C11 2357  -0.058   2.520   5.236  0.5143 -0.5039 -0.1326
  103DG     C12 2358   0.212   2.920   5.167  0.5335 -0.3340  0.3184
  103DG     H13 2359  -0.149   2.580   5.240  0.0543 -1.0860 -1.2773
  103DG     H14 2360  -0.097   2.431   5.187 -2.6117  0.7577 -0.1411
  103DG     H15 2361   0.206   2.919   5.276  0.1275  1.3494  0.3380
  103DG     H16 2362   0.310   2.966   5.153  0.0003  1.7983  2.7363
  103DG     C17 2363   0.048   2.585   5.141  0.2984  0.0403 -0.3207
  103DG     C18 2364   0.199   2.776   5.131  0.8949  0.4256  0.4142
  103DG     O19 2365   0.076   2.717   5.182  0.2758 -0.5326  0.4980
  103DG     H20 2366  -0.004   2.599   5.047 -0.7544 -0.4607  0.1776
  103DG     H21 2367   0.138   2.524   5.136  1.2383  1.3802 -0.2839
  103DG     H22 2368   0.198   2.758   5.023 -0.1064 -1.5375  0.7025
  103DG     H23 2369   0.289   2.721   5.159  2.3308  2.1308 -0.6055
  104DG      C1 2370   2.852   1.282   2.228 -0.2966 -0.9128  0.6210
  104DG      C2 2371   3.609   1.489   1.982  0.3403  0.6454  0.3129
  104DG      H3 2372   2.788   1.262   2.314  0.3828 -0.1951  1.3071
  104DG      H4 2373   2.865   1.192   2.169  1.2990 -0.2411 -0.1026
  104DG      H5 2374   2.816   1.364   2.166  2.3134  0.5386  0.8768
  104DG      H6 2375   3.718   1.490   1.990  0.3914 -2.7250  1.5636
  104DG      H7 2376   3.565   1.431   1.901 -2.5453 -0.5694  2.5714
  104DG      H8 2377   3.569   1.590   1.974 -0.6306  0.1848 -0.9108
  104DG      O9 2378   2.980   1.322   2.272  0.3306 -0.2443 -0.2354
  104DG     O10 2379   3.565   1.428   2.098 -0.1568  0.0279 -0.5675
  104DG     C11 2380   3.060   1.214   2.330  0.2684 -0.8333 -0.3292
  104DG     C12 2381   3.430   1.414   2.114  0.7176 -0.1706 -0.2773
  104DG     H13 2382   3.055   1.126   2.266 -0.8205 -0.3758 -0.8957
  104DG     H14 2383   3.012   1.184   2.423  1.0744 -0.9623  0.0606
  104DG     H15 2384   3.380   1.371   2.026 -0.4102 -0.3545  0.4362
  104DG     H16 2385   3.394   1.515   2.131 -0.5028 -0.8631  1.5474
  104DG     C17 2386   3.206   1.248   2.361 -0.0035 -0.4174  0.0757
  104DG     C18 2387   3.398   1.325   2.237  0.0110  0.2971  0.1124
  104DG     O19 2388   3.256   1.346   2.270  0.1160 -0.1234 -0.5279
  104DG     H20 2389   3.265   1.156   2.357  0.7909 -0.0137  1.6685
  104DG     H21 2390   3.217   1.299   2.457 -2.3334 -1.1585  0.7961
  104DG     H22 2391   3.423   1.224   2.206 -1.7981 -0.1022 -0.1548
  104DG     H23 2392   3.451   1.347   2.330 -0.2460  0.2822  0.2623
  105DG      C1 2393   1.571   0.599   4.685  0.1038  0.5149 -0.3634
  105DG      C2 2394   1.330   0.974   5.196  0.1409 -0.5553 -0.6405
  105DG      H3 2395   1.547   0.496   4.657 -0.5609  0.5722 -0.0077
  105DG      H4 2396   1.677   0.610   4.664  0.0518 -0.9856 -1.6518
  105DG      H5 2397   1.517   0.670   4.622  0.0517  0.8930  0.1085
  105DG      H6 2398   1.359   0.905   5.274 -2.5361 -0.2955  0.7010
  105DG      H7 2399   1.414   1.020   5.144 -0.1498 -0.3128 -0.9058
  105DG      H8 2400   1.256   1.043   5.239  0.9620  1.0294 -1.6526
  105DG      O9 2401   1.528   0.617   4.821  0.1688 -0.0593 -0.0540
  105DG     O10 2402   1.279   0.916   5.080 -0.2307 -0.0027  0.0626
  105DG     C11 2403   1.390   0.639   4.838  0.1721 -0.6602  0.2667
  105DG     C12 2404   1.166   0.835   5.098  1.0574 -0.2779 -0.8082
  105DG     H13 2405   1.328   0.571   4.781 -2.0867  1.5557 -0.0732
  105DG     H14 2406   1.364   0.737   4.799 -0.4642 -0.7781  0.3974
  105DG     H15 2407   1.085   0.906   5.114  1.9082  0.8846 -1.4819
  105DG     H16 2408   1.163   0.778   5.191  1.5490  1.8900  0.6304
  105DG     C17 2409   1.352   0.620   4.984 -0.2428  0.5346  0.3954
  105DG     C18 2410   1.148   0.736   4.977 -0.2105  0.6894  0.7717
  105DG     O19 2411   1.214   0.615   4.999 -0.4637  0.0880 -0.2727
  105DG     H20 2412   1.400   0.689   5.054 -1.0426 -0.4164  1.9432
  105DG     H21 2413   1.393   0.520   4.995 -1.8053 -0.4035 -1.7527
  105DG     H22 2414   1.041   0.719   4.968  0.0269  0.4240 -2.5798
  105DG     H23 2415   1.160   0.784   4.880 -0.0826 -0.5641  0.1516
  106DG      C1 2416   0.616  -0.103   2.043 -0.9308 -0.0994  0.5663
  106DG      C2 2417   1.321   0.332   1.932 -0.6978 -0.3258  0.0085
  106DG      H3 2418   0.634  -0.180   2.118 -0.6327  0.6134  1.2348
  106DG      H4 2419   0.538  -0.132   1.972 -0.4241  0.5956 -0.2962
  106DG      H5 2420   0.595  -0.014   2.103  1.0586  0.1903  0.9049
  106DG      H6 2421   1.394   0.319   1.852  0.4808  0.3888  0.9445
  106DG      H7 2422   1.356   0.393   2.015 -3.0333 -0.1925  0.9832
  106DG      H8 2423   1.319   0.229   1.968 -1.6006  0.3466  1.9868
  106DG      O9 2424   0.737  -0.066   1.968 -0.1303 -0.0129 -0.0932
  106DG     O10 2425   1.193   0.369   1.897  0.5819 -0.0283  0.3443
  106DG     C11 2426   0.743   0.065   1.913 -0.1538  0.1781  0.3139
  106DG     C12 2427   1.120   0.296   1.802 -0.1558 -0.7500  0.4916
  106DG     H13 2428   0.648   0.118   1.905  0.3840  1.1864  0.3600
  106DG     H14 2429   0.784   0.043   1.814 -0.9124  0.3815 -0.0573
  106DG     H15 2430   1.189   0.258   1.727 -1.5050 -2.2606 -0.0428
  106DG     H16 2431   1.058   0.366   1.745  1.5012  0.4408  0.0450
  106DG     C17 2432   0.834   0.162   1.995  0.4820 -0.1674  0.3719
  106DG     C18 2433   1.034   0.186   1.860  0.3545  0.3718  0.0645
  106DG     O19 2434   0.917   0.249   1.909 -0.1968  0.3496 -0.4931
  106DG     H20 2435   0.901   0.107   2.062  0.5430 -1.1673 -0.4764
  106DG     H21 2436   0.767   0.225   2.054 -2.1356 -0.1088 -2.4261
  106DG     H22 2437   1.013   0.112   1.784  1.0011 -0.1571  0.3929
  106DG     H23 2438   1.082   0.149   1.951 -0.1569 -0.1732  0.1130
  107DG      C1 2439   1.305   2.113   2.170 -0.4260 -0.5199  0.2893
  107DG      C2 2440   1.872   1.844   2.127 -0.3369 -0.3305  0.2311
  107DG      H3 2441   1.286   2.044   2.088 -0.5926  0.2164 -0.2933
  107DG      H4 2442   1.345   2.209   2.138  1.2130 -1.3283 -0.2093
  107DG      H5 2443   1.204   2.122   2.211 -1.4976 -2.4643 -1.6797
  107DG      H6 2444   1.840   1.815   2.027 -1.2882  0.5123  0.2799
  107DG      H7 2445   1.912   1.945   2.120 -0.3418 -0.0904  2.8355
  107DG      H8 2446   1.944   1.771   2.163 -0.7238 -1.2829 -0.8487
  107DG      O9 2447   1.396   2.065   2.261  0.4302  0.4824  0.3147
  107DG     O10 2448   1.769   1.840   2.216  0.1624  0.0918 -0.4575
  107DG     C11 2449   1.430   2.138   2.373 -0.5371  0.2788 -0.8295
  107DG     C12 2450   1.818   1.885   2.355  1.1364  0.0041  0.1252
  107DG     H13 2451   1.336   2.164   2.421 -0.2847 -1.7713  0.8966
  107DG     H14 2452   1.482   2.230   2.345  0.7673 -0.2258 -0.1619
  107DG     H15 2453   1.863   1.983   2.341 -1.6876  1.2147 -1.2431
  107DG     H16 2454   1.892   1.809   2.379 -0.2428 -1.3715  0.2136
  107DG     C17 2455   1.525   2.056   2.458 -0.1081  0.1133 -0.2809
  107DG     C18 2456   1.703   1.899   2.452 -0.1233  0.0794 -1.0782
  107DG     O19 2457   1.630   1.998   2.385 -0.0211 -0.1708 -0.3703
  107DG     H20 2458   1.469   1.975   2.505 -2.2189  1.3482 -0.5347
  107DG     H21 2459   1.574   2.113   2.537  0.3703  1.1563 -1.3002
  107DG     H22 2460   1.647   1.805   2.459  0.1701 -0.0118  0.5205
  107DG     H23 2461   1.736   1.937   2.548 -1.0497 -0.1255 -0.6590
  108DG      C1 2462   2.688   3.970   0.543  0.1169 -0.5051 -0.2851
  108DG      C2 2463   2.317   4.166  -0.041  0.1184 -0.3913 -0.6867
  108DG      H3 2464   2.780   4.028   0.547 -0.5368  0.4796  1.4432
  108DG      H4 2465   2.713   3.875   0.589 -0.8320 -0.8341 -0.4232
  108DG      H5 2466   2.614   4.025   0.601  1.0420  0.3080  0.1480
  108DG      H6 2467   2.233   4.219   0.006 -1.5004 -0.0904 -3.6822
  108DG      H7 2468   2.413   4.217  -0.029 -1.0202  2.3768 -2.4038
  108DG      H8 2469   2.287   4.176  -0.145 -1.0896 -1.3365 -0.4478
  108DG      O9 2470   2.636   3.943   0.412  0.3732 -0.0771  0.3550
  108DG     O10 2471   2.331   4.034  -0.000 -0.3777  0.5422 -0.3311
  108DG     C11 2472   2.732   3.925   0.302 -0.4800  0.3936 -0.3442
  108DG     C12 2473   2.423   3.957  -0.074  0.6617 -0.0958 -0.1091
  108DG     H13 2474   2.821   3.876   0.342 -0.3916  1.2874  0.5721
  108DG     H14 2475   2.775   4.019   0.268  0.1645  0.2929  0.1695
  108DG     H15 2476   2.494   4.024  -0.122  1.8639 -1.9971 -1.1504
  108DG     H16 2477   2.376   3.905  -0.157 -1.0562  0.2778  0.5988
  108DG     C17 2478   2.670   3.850   0.181 -0.0270 -1.1584  0.2951
  108DG     C18 2479   2.497   3.862   0.023  0.1758  0.7566 -0.4167
  108DG     O19 2480   2.583   3.937   0.109  0.3801 -0.2835  0.0260
  108DG     H20 2481   2.613   3.765   0.218  0.3521 -1.6706 -0.2633
  108DG     H21 2482   2.733   3.820   0.097 -0.6580 -0.4476 -0.4429
  108DG     H22 2483   2.425   3.807   0.083  0.0038  2.2570  0.8042
  108DG     H23 2484   2.564   3.797  -0.035  1.0117 -0.1670  1.4891
  109DG      C1 2485   5.261   2.977   4.037 -0.2507 -0.0057 -0.7114
  109DG      C2 2486   4.881   3.494   3.701  0.7860  0.0667  0.8400
  109DG      H3 2487   5.245   2.872   4.058  0.4337  0.1744  0.8591
  109DG      H4 2488   5.239   3.039   4.124  1.8662  1.6456 -1.2705
  109DG      H5 2489   5.369   2.989   4.042 -0.1944 -0.9201  0.5541
  109DG      H6 2490   4.866   3.548   3.795  0.5852  1.6136 -0.0544
  109DG      H7 2491   4.961   3.550   3.653  1.1600  0.7081  2.1738
  109DG      H8 2492   4.784   3.500   3.651  0.2919 -0.6690  1.6729
  109DG      O9 2493   5.194   3.037   3.929 -0.2940 -0.1969 -0.9280
  109DG     O10 2494   4.927   3.360   3.722 -0.1710 -0.2396  0.0603
  109DG     C11 2495   5.213   2.954   3.817  0.1247  0.4513 -0.7142
  109DG     C12 2496   4.941   3.293   3.593 -0.3279  0.3436  0.5563
  109DG     H13 2497   5.210   2.848   3.842  1.0285  0.6930  0.5409
  109DG     H14 2498   5.316   2.976   3.791  0.4207 -1.1077 -0.9267
  109DG     H15 2499   5.030   3.314   3.533 -1.2898  1.7052 -0.4538
  109DG     H16 2500   4.861   3.298   3.519 -1.0799  1.9868  1.4384
  109DG     C17 2501   5.108   2.980   3.703 -0.5831 -0.2254  0.1822
  109DG     C18 2502   4.962   3.140   3.615  0.0251  0.6085 -0.1336
  109DG     O19 2503   5.083   3.118   3.689  0.3835 -0.1804 -0.2724
  109DG     H20 2504   5.021   2.915   3.705  0.1601 -1.2437  0.6264
  109DG     H21 2505   5.162   2.944   3.616 -0.1427  1.0605 -0.0995
  109DG     H22 2506   4.875   3.092   3.661  1.6951 -2.2750  0.2355
  109DG     H23 2507   4.982   3.088   3.521 -1.8663 -0.3070 -0.0798
  110DG      C1 2508   0.884   4.144   3.789  0.3455  1.0422 -0.3284
  110DG      C2 2509   1.181   4.357   3.085 -0.2624  0.6802  0.0470
  110DG      H3 2510   0.870   4.038   3.807  0.8672  0.8881 -0.8148
  110DG      H4 2511   0.790   4.195   3.810 -0.8311 -0.7868 -0.9418
  110DG      H5 2512   0.944   4.186   3.870 -0.6804  1.7154  0.1036
  110DG      H6 2513   1.127   4.399   3.001  1.2432  0.4556 -1.0951
  110DG      H7 2514   1.238   4.432   3.140 -2.2722  0.8168  2.0753
  110DG      H8 2515   1.238   4.268   3.056 -1.1481 -0.4956  1.7229
  110DG      O9 2516   0.956   4.174   3.675  0.3872  0.0974  0.6107
  110DG     O10 2517   1.095   4.314   3.188  0.4013  0.5086  0.5703
  110DG     C11 2518   0.887   4.135   3.560 -0.2079  0.2718 -0.5297
  110DG     C12 2519   0.977   4.250   3.137 -0.1218 -0.7223  0.5752
  110DG     H13 2520   0.799   4.196   3.542 -0.9929 -0.0881  1.7242
  110DG     H14 2521   0.850   4.035   3.580  2.1891 -0.4854  0.5292
  110DG     H15 2522   1.014   4.168   3.075 -0.5902 -1.8495  1.7429
  110DG     H16 2523   0.934   4.314   3.061  0.3151 -0.7578  0.2948
  110DG     C17 2524   0.988   4.133   3.441 -0.9125 -0.1855 -0.8718
  110DG     C18 2525   0.879   4.211   3.245 -0.3474  0.3978  0.3266
  110DG     O19 2526   0.926   4.095   3.317 -0.4110  0.0576  0.4202
  110DG     H20 2527   1.065   4.062   3.469  1.4975  1.8673 -1.8767
  110DG     H21 2528   1.049   4.224   3.442 -0.2066 -0.6101  1.6582
  110DG     H22 2529   0.850   4.297   3.304 -1.6706  0.2431 -0.0690
  110DG     H23 2530   0.789   4.171   3.198 -0.7155  0.0444  1.2993
  111DG      C1 2531   4.991   4.751   4.986 -0.0345 -0.3370  0.1311
  111DG      C2 2532   4.383   4.767   5.098  0.1090 -0.4905  0.3424
  111DG      H3 2533   5.078   4.746   5.051 -1.5687  0.4326  2.3758
  111DG      H4 2534   5.018   4.795   4.890  0.5040 -2.8749 -0.9814
  111DG      H5 2535   4.961   4.647   4.967  0.7925 -0.2702 -1.7237
  111DG      H6 2536   4.363   4.660   5.088  1.2370 -0.7204  0.3567
  111DG      H7 2537   4.283   4.808   5.100 -0.4223 -1.6497 -0.8991
  111DG      H8 2538   4.431   4.801   5.006  1.2721  2.5684  1.9317
  111DG      O9 2539   4.884   4.816   5.048 -0.3425  0.1247 -0.1478
  111DG     O10 2540   4.471   4.796   5.205  0.3667 -0.3868 -0.2341
  111DG     C11 2541   4.916   4.932   5.117 -0.5647  0.7920 -0.1567
  111DG     C12 2542   4.492   4.940   5.222 -0.6212  0.1466 -0.3144
  111DG     H13 2543   4.945   5.010   5.048  2.2952 -0.0729 -0.0449
  111DG     H14 2544   4.994   4.917   5.192 -0.1349  0.8138 -0.5980
  111DG     H15 2545   4.401   4.984   5.263  0.8242  2.5763  0.5173
  111DG     H16 2546   4.512   4.979   5.122  1.8119  2.1977  0.8492
  111DG     C17 2547   4.799   4.986   5.198 -0.0301  0.7436  0.2507
  111DG     C18 2548   4.609   4.956   5.321 -0.3397 -0.1684  0.7712
  111DG     O19 2549   4.726   4.889   5.273  0.2709 -0.0037  0.3137
  111DG     H20 2550   4.736   5.047   5.134  0.9912  0.6050 -0.9259
  111DG     H21 2551   4.846   5.053   5.269  0.6945 -2.2288  2.8049
  111DG     H22 2552   4.629   5.059   5.351  1.1863 -0.3783  0.5700
  111DG     H23 2553   4.584   4.915   5.420 -1.1181  1.2666  1.1939
  112DG      C1 2554   4.793   3.121   2.322  0.1543 -0.3672 -1.0032
  112DG      C2 2555   4.643   3.495   1.694 -0.7532  0.2909 -0.3657
  112DG      H3 2556   4.805   3.202   2.395 -0.1530 -1.8327  0.7444
  112DG      H4 2557   4.896   3.084   2.320  0.6299  0.6546  1.1572
  112DG      H5 2558   4.725   3.049   2.367  0.9927 -0.3536  0.3426
  112DG      H6 2559   4.545   3.519   1.653 -1.5915  0.1227  1.4103
  112DG      H7 2560   4.696   3.587   1.718  1.7096 -0.8343 -1.2016
  112DG      H8 2561   4.700   3.439   1.620  1.5272 -1.6015  2.5330
  112DG      O9 2562   4.756   3.179   2.194  0.3618 -0.5132 -1.1075
  112DG     O10 2563   4.626   3.397   1.805  0.0935 -0.2369 -0.0965
  112DG     C11 2564   4.751   3.073   2.106  0.3306 -0.7108 -0.2736
  112DG     C12 2565   4.542   3.286   1.768 -0.4387  0.1777  0.5483
  112DG     H13 2566   4.676   3.004   2.145  0.1050 -0.9772 -1.1383
  112DG     H14 2567   4.848   3.024   2.094  0.3513 -0.9618  0.8132
  112DG     H15 2568   4.608   3.221   1.709  1.0645  1.3922  0.8188
  112DG     H16 2569   4.456   3.307   1.704 -0.9447 -2.0061  0.4305
  112DG     C17 2570   4.697   3.115   1.973  0.0068 -0.4060 -0.3611
  112DG     C18 2571   4.490   3.221   1.894  0.1047 -0.2407 -0.3940
  112DG     O19 2572   4.584   3.200   1.998 -0.2728  0.2956 -0.5085
  112DG     H20 2573   4.679   3.026   1.913 -0.7702 -0.6185  0.1711
  112DG     H21 2574   4.773   3.178   1.925  0.0854  0.1439  0.4717
  112DG     H22 2575   4.410   3.281   1.936  2.4977  2.9691 -0.0852
  112DG     H23 2576   4.443   3.127   1.863 -1.6688  0.5683 -0.2632
  113DG      C1 2577   3.639   0.636   3.281  0.8540  0.0983 -0.5087
  113DG      C2 2578   4.085   0.779   2.667 -0.3889 -0.9159 -0.2402
  113DG      H3 2579   3.711   0.567   3.237 -0.6693  0.1539 -3.3281
  113DG      H4 2580   3.549   0.575   3.290  1.5967 -1.3679 -2.3575
  113DG      H5 2581   3.669   0.686   3.374  1.7086  0.5138 -0.9955
  113DG      H6 2582   4.085   0.862   2.596  1.8916  0.6211  1.4223
  113DG      H7 2583   4.148   0.815   2.749  0.7658 -1.4640 -0.8608
  113DG      H8 2584   4.141   0.697   2.622  0.6801  1.0184 -2.6529
  113DG      O9 2585   3.619   0.736   3.185 -0.2153  0.1386  0.2125
  113DG     O10 2586   3.963   0.764   2.728 -0.2410 -0.3571 -0.0138
  113DG     C11 2587   3.575   0.690   3.055  0.6124 -0.7662 -0.2052
  113DG     C12 2588   3.925   0.880   2.795 -0.2037  0.4372 -0.1408
  113DG     H13 2589   3.468   0.669   3.063  0.5845 -0.8225 -0.7414
  113DG     H14 2590   3.618   0.595   3.023  3.0683  0.5515 -1.0515
  113DG     H15 2591   3.930   0.973   2.739  1.2586  0.6193  0.2545
  113DG     H16 2592   3.971   0.886   2.893 -1.8537  1.0725  0.6433
  113DG     C17 2593   3.598   0.792   2.949  0.5200 -0.3865  0.0817
  113DG     C18 2594   3.771   0.883   2.816 -0.1908 -0.9317  0.7741
  113DG     O19 2595   3.735   0.791   2.919 -0.0287 -0.0999  0.0138
  113DG     H20 2596   3.555   0.890   2.969  0.1233 -0.1348 -1.8152
  113DG     H21 2597   3.526   0.757   2.875  0.7156 -1.6280  0.4595
  113DG     H22 2598   3.750   0.986   2.843 -0.8337 -1.0608  0.7830
  113DG     H23 2599   3.723   0.864   2.720 -0.5148  0.8153  0.5693
  114DG      C1 2600   4.963   2.639   2.031  0.9149 -0.3949  0.0002
  114DG      C2 2601   4.759   1.936   2.261 -0.1345 -0.4037  0.0422
  114DG      H3 2602   4.923   2.728   1.982  0.2350 -0.9594 -0.4904
  114DG      H4 2603   5.061   2.623   1.986 -0.1092  1.0545 -2.9950
  114DG      H5 2604   4.987   2.662   2.135  2.2655 -0.1038 -0.3577
  114DG      H6 2605   4.792   1.933   2.365 -2.7017 -0.1342  0.9445
  114DG      H7 2606   4.682   1.863   2.236 -2.0670  1.4109  0.3512
  114DG      H8 2607   4.843   1.936   2.192 -0.2414  0.4793 -0.0990
  114DG      O9 2608   4.864   2.534   2.030 -0.3481  0.0969 -0.4075
  114DG     O10 2609   4.686   2.055   2.242  0.2378 -0.5607  0.2390
  114DG     C11 2610   4.748   2.560   2.110  0.2562  0.1652  0.5194
  114DG     C12 2611   4.664   2.084   2.103 -1.1448 -0.0508  0.3784
  114DG     H13 2612   4.706   2.657   2.083 -1.0252 -0.5524 -0.1606
  114DG     H14 2613   4.786   2.566   2.212  0.0337 -1.1252  0.7029
  114DG     H15 2614   4.606   2.010   2.047  0.2486  0.3352 -1.6901
  114DG     H16 2615   4.761   2.090   2.054 -0.9325 -1.2175  0.6258
  114DG     C17 2616   4.640   2.452   2.085  0.2672 -0.4903  0.4852
  114DG     C18 2617   4.600   2.219   2.088  0.5383 -0.7996  0.5329
  114DG     O19 2618   4.691   2.321   2.118  0.2418  0.5126  0.0450
  114DG     H20 2619   4.599   2.455   1.984 -1.1186  0.6595  1.0428
  114DG     H21 2620   4.549   2.468   2.142 -0.8650  1.2354 -1.6688
  114DG     H22 2621   4.578   2.227   1.982 -0.8268 -0.9193  0.7890
  114DG     H23 2622   4.507   2.226   2.145  0.0692  1.9383 -0.4270
  115DG      C1 2623   5.120   1.532   1.414  0.5393 -0.0318 -0.3814
  115DG      C2 2624   5.772   1.343   1.339 -0.6572 -0.4764 -0.0437
  115DG      H3 2625   5.177   1.502   1.326  0.5252  1.1238 -0.8090
  115DG      H4 2626   5.098   1.635   1.386 -1.1796 -0.2250  0.1585
  115DG      H5 2627   5.033   1.468   1.429 -0.4060  1.0951 -0.8622
  115DG      H6 2628   5.697   1.313   1.266  1.9646 -1.6911 -2.4849
  115DG      H7 2629   5.822   1.432   1.300  0.0410 -1.0031 -0.3745
  115DG      H8 2630   5.846   1.262   1.338 -2.7971 -2.5257 -0.7010
  115DG      O9 2631   5.185   1.539   1.538  0.0508  0.3147  0.4629
  115DG     O10 2632   5.716   1.364   1.463  0.3663 -0.5399 -0.3854
  115DG     C11 2633   5.310   1.604   1.535 -0.5073 -0.2847 -0.4443
  115DG     C12 2634   5.625   1.253   1.495 -0.3189 -0.4272 -0.2823
  115DG     H13 2635   5.329   1.648   1.633 -1.7441  1.9303 -1.1296
  115DG     H14 2636   5.293   1.698   1.481 -2.0623 -1.3013 -1.8146
  115DG     H15 2637   5.634   1.247   1.604 -0.7806  1.4090 -0.1246
  115DG     H16 2638   5.670   1.160   1.460 -0.6340 -1.1248  1.0741
  115DG     C17 2639   5.426   1.511   1.480  0.7988 -0.2578  0.7639
  115DG     C18 2640   5.483   1.281   1.462  0.1298  0.2333 -0.2398
  115DG     O19 2641   5.413   1.376   1.534 -0.2798  0.0092  0.2112
  115DG     H20 2642   5.526   1.548   1.500  0.9477  0.4040 -1.0235
  115DG     H21 2643   5.396   1.495   1.376  0.2933  0.5406  0.7829
  115DG     H22 2644   5.475   1.292   1.354  0.2447 -1.2225 -0.4168
  115DG     H23 2645   5.417   1.199   1.490  2.1713 -1.2183  0.6314
  116DG      C1 2646   4.692   4.036   2.277  0.8176 -0.4988 -0.0375
  116DG      C2 2647   5.168   3.519   2.152  0.9707 -0.0738 -0.0550
  116DG      H3 2648   4.615   4.074   2.344  0.1548 -1.8871  0.0151
  116DG      H4 2649   4.638   3.992   2.193  0.8035  0.4033 -0.5151
  116DG      H5 2650   4.746   4.124   2.241 -2.1205  0.8177 -1.5264
  116DG      H6 2651   5.230   3.454   2.089  0.5288  0.3436 -0.9472
  116DG      H7 2652   5.144   3.611   2.099  0.0678 -1.5015 -2.2824
  116DG      H8 2653   5.225   3.541   2.241  0.4928 -1.6034  0.6681
  116DG      O9 2654   4.784   3.958   2.354  0.2490 -0.2853  0.4055
  116DG     O10 2655   5.051   3.445   2.185  0.2072  0.1117  0.2964
  116DG     C11 2656   4.865   3.877   2.280 -0.1420 -0.6358 -0.0834
  116DG     C12 2657   4.954   3.446   2.075  0.2021 -0.3813 -0.2646
  116DG     H13 2658   4.914   3.813   2.353  0.7833 -1.1754 -1.1352
  116DG     H14 2659   4.945   3.920   2.219 -1.3039 -2.0228 -2.8029
  116DG     H15 2660   4.902   3.350   2.065  2.5144 -1.6876 -0.3287
  116DG     H16 2661   4.995   3.484   1.981  0.8314  0.2175  0.2461
  116DG     C17 2662   4.796   3.768   2.196  0.4905  0.8232  0.0712
  116DG     C18 2663   4.839   3.542   2.127 -0.7664  0.7035 -0.3130
  116DG     O19 2664   4.890   3.673   2.153 -0.0436  0.3974  0.4257
  116DG     H20 2665   4.754   3.798   2.100  2.8293  0.9572 -0.9672
  116DG     H21 2666   4.719   3.712   2.251  1.0567 -1.4835 -1.3458
  116DG     H22 2667   4.760   3.549   2.052  0.0958  0.9892 -1.2219
  116DG     H23 2668   4.810   3.496   2.222 -2.7638  0.4329 -1.0029
  117DG      C1 2669   2.447   1.509   2.984  0.0133  0.0510  0.0006
  117DG      C2 2670   2.162   1.089   3.514  0.2255 -0.5282  0.7299
  117DG      H3 2671   2.485   1.438   2.909 -1.2250 -1.5435  0.8174
  117DG      H4 2672   2.490   1.608   2.969  0.9409  0.0922  2.4889
  117DG      H5 2673   2.338   1.505   2.977 -0.0420 -1.3617  1.1355
  117DG      H6 2674   2.204   0.988   3.514  0.2481 -0.5190  0.5624
  117DG      H7 2675   2.120   1.098   3.614 -1.9820 -0.7353 -0.1256
  117DG      H8 2676   2.071   1.091   3.454  2.1115  1.1291 -2.3234
  117DG      O9 2677   2.476   1.469   3.111 -0.2904 -0.2485 -0.0636
  117DG     O10 2678   2.247   1.194   3.475 -0.4028  0.1976  0.2562
  117DG     C11 2679   2.421   1.557   3.213 -0.2898  0.1750  0.2003
  117DG     C12 2680   2.375   1.193   3.526  0.4733 -0.2520 -0.3436
  117DG     H13 2681   2.313   1.550   3.224 -0.1589  0.5908  2.0912
  117DG     H14 2682   2.438   1.664   3.202  0.5203  0.2035  1.4764
  117DG     H15 2683   2.436   1.120   3.472 -1.6378 -1.5455 -1.0840
  117DG     H16 2684   2.380   1.169   3.633 -0.2010 -2.0755 -0.6877
  117DG     C17 2685   2.469   1.513   3.355  0.1918  0.3448 -0.2509
  117DG     C18 2686   2.436   1.337   3.504 -0.1761 -0.3788 -0.1047
  117DG     O19 2687   2.420   1.380   3.370 -0.8528 -0.0779  0.6501
  117DG     H20 2688   2.444   1.582   3.436  1.2230 -0.0981  0.4676
  117DG     H21 2689   2.576   1.496   3.353 -0.1797 -2.4348 -1.9515
  117DG     H22 2690   2.375   1.404   3.564  0.6119 -0.1159  0.4201
  117DG     H23 2691   2.536   1.357   3.543 -0.9308  1.3515  1.0543
  118DG      C1 2692   4.751   2.980   3.373 -0.0558  0.1034  0.3350
  118DG      C2 2693   4.962   2.328   2.988 -0.3688  0.0976  0.3833
  118DG      H3 2694   4.813   3.067   3.351  0.2446 -0.0579  0.5298
  118DG      H4 2695   4.703   2.988   3.470  0.8683 -1.5201  0.9544
  118DG      H5 2696   4.681   2.967   3.291  0.4994 -0.9049 -0.0030
  118DG      H6 2697   4.870   2.272   2.979 -1.5936  1.7852  1.6625
  118DG      H7 2698   4.965   2.400   2.906  2.1873  0.5578  0.7716
  118DG      H8 2699   5.053   2.269   2.984 -0.1506  0.4094  0.6016
  118DG      O9 2700   4.851   2.883   3.366  0.2064  0.3396  0.2549
  118DG     O10 2701   4.950   2.400   3.114 -0.1531  0.3639  0.4175
  118DG     C11 2702   4.819   2.765   3.430 -0.6499 -0.4003  0.3398
  118DG     C12 2703   5.064   2.481   3.132  0.8303 -0.0520  0.2863
  118DG     H13 2704   4.728   2.721   3.390  0.1538  0.0509 -2.1104
  118DG     H14 2705   4.799   2.783   3.536 -0.8734 -3.2892  0.8745
  118DG     H15 2706   5.069   2.553   3.051  0.5290 -1.9514 -1.5125
  118DG     H16 2707   5.153   2.421   3.111  1.3913 -0.0683  2.4707
  118DG     C17 2708   4.944   2.669   3.423 -0.4730 -0.1808 -0.4083
  118DG     C18 2709   5.064   2.539   3.270  0.1038 -0.3462  0.2435
  118DG     O19 2710   4.952   2.626   3.289 -0.2470 -0.0030  0.9216
  118DG     H20 2711   4.929   2.591   3.498 -0.3039 -0.9824 -1.1801
  118DG     H21 2712   5.024   2.739   3.446 -0.9803  0.7427 -1.4150
  118DG     H22 2713   5.066   2.462   3.347  1.1795  0.7251  1.3148
  118DG     H23 2714   5.162   2.582   3.286  0.4680 -0.3562 -1.6650
  119DG      C1 2715   3.232  -0.179   2.941 -0.3510 -0.2298 -0.1690
  119DG      C2 2716   3.676   0.465   2.725  0.2128 -0.4394 -0.1290
  119DG      H3 2717   3.127  -0.166   2.967 -0.7080 -1.4507 -0.9140
  119DG      H4 2718   3.265  -0.255   3.012 -0.4621 -1.6455 -1.5836
  119DG      H5 2719   3.240  -0.229   2.844  1.2371 -1.5532  0.5929
  119DG      H6 2720   3.747   0.457   2.642  0.6497  0.8059  0.1021
  119DG      H7 2721   3.627   0.561   2.706  0.2098 -0.9759 -3.6027
  119DG      H8 2722   3.722   0.455   2.823  0.0398  0.4568  0.0541
  119DG      O9 2723   3.297  -0.054   2.949  0.0342  0.0610  0.0350
  119DG     O10 2724   3.574   0.368   2.723 -0.1990 -0.5261 -0.1376
  119DG     C11 2725   3.434  -0.068   2.912  0.3445 -0.3765  0.3752
  119DG     C12 2726   3.475   0.395   2.824 -0.4808  0.1719  1.1480
  119DG     H13 2727   3.447  -0.091   2.806 -0.2201  0.4751  0.1151
  119DG     H14 2728   3.486  -0.149   2.963  1.5016  1.5090  2.3460
  119DG     H15 2729   3.382   0.381   2.771 -0.1396 -1.9487  1.0289
  119DG     H16 2730   3.475   0.500   2.854 -0.6369  0.3175  0.6470
  119DG     C17 2731   3.508   0.058   2.952 -0.2893 -0.1441  0.0840
  119DG     C18 2732   3.493   0.294   2.934  0.5068 -0.3916  0.0633
  119DG     O19 2733   3.467   0.168   2.876 -0.1725  0.7110  0.2320
  119DG     H20 2734   3.616   0.049   2.944 -0.3100  0.0953 -0.5334
  119DG     H21 2735   3.478   0.080   3.054  0.0468  1.5174 -0.1419
  119DG     H22 2736   3.595   0.293   2.971  0.5946 -1.5882 -0.1742
  119DG     H23 2737   3.427   0.311   3.020  0.9913  0.8597  0.2000
  120DG      C1 2738   3.913   2.700   0.865  0.4380  0.1981 -0.4750
  120DG      C2 2739   4.396   2.328   0.328 -0.2874 -0.6680 -0.5902
  120DG      H3 2740   3.885   2.615   0.927  1.0114 -0.4301 -1.0580
  120DG      H4 2741   3.834   2.774   0.859  0.1030 -0.0978  0.1709
  120DG      H5 2742   4.002   2.738   0.915  0.7136 -1.4331  0.3445
  120DG      H6 2743   4.389   2.304   0.222 -0.5707 -0.4725 -0.6182
  120DG      H7 2744   4.499   2.339   0.362 -0.8299  0.7731  0.7522
  120DG      H8 2745   4.368   2.235   0.377  1.0867 -0.5616  0.4503
  120DG      O9 2746   3.935   2.656   0.732  0.0644 -0.6653 -0.0513
  120DG     O10 2747   4.322   2.435   0.367  0.0305 -0.1847  0.3244
  120DG     C11 2748   4.000   2.747   0.648 -0.0857 -0.0943  0.3236
  120DG     C12 2749   4.345   2.472   0.501  0.2030  0.3239  0.1732
  120DG     H13 2750   4.100   2.768   0.688 -0.2274  0.0106  0.6252
  120DG     H14 2751   3.949   2.843   0.657  2.6965  1.3925  1.8388
  120DG     H15 2752   4.451   2.495   0.515  0.6628 -1.6484  0.1123
  120DG     H16 2753   4.312   2.395   0.571 -2.0225  1.5815  0.6288
  120DG     C17 2754   4.040   2.696   0.506 -0.2264  0.0576 -0.3977
  120DG     C18 2755   4.271   2.607   0.537 -0.5363  0.0286 -0.7382
  120DG     O19 2756   4.132   2.586   0.516 -0.1972 -0.6660 -0.6570
  120DG     H20 2757   4.068   2.779   0.441 -0.5908  0.7517  0.3066
  120DG     H21 2758   3.949   2.658   0.460 -0.7557 -0.7917  1.2509
  120DG     H22 2759   4.276   2.620   0.645 -0.2059  0.9122 -0.8483
  120DG     H23 2760   4.305   2.700   0.490  0.5246  0.2886  0.4871
  121DG      C1 2761   4.866   5.405   2.982  0.3216 -0.4723 -0.4993
  121DG      C2 2762   5.206   5.085   2.653 -0.0650 -0.3080  0.3225
  121DG      H3 2763   4.934   5.325   2.953  0.5070 -1.1303  1.6001
  121DG      H4 2764   4.902   5.437   3.080 -0.3732 -0.6167 -0.1942
  121DG      H5 2765   4.886   5.487   2.912 -0.8737  0.0372 -0.2740
  121DG      H6 2766   5.290   5.091   2.723  0.0247  1.9394  0.0778
  121DG      H7 2767   5.220   4.987   2.607  1.3125  0.4249 -0.8965
  121DG      H8 2768   5.215   5.167   2.582  0.1301 -0.7991 -0.2249
  121DG      O9 2769   4.733   5.377   3.004 -0.2436 -0.4597  0.6351
  121DG     O10 2770   5.085   5.093   2.717  0.0381  0.2477 -0.1190
  121DG     C11 2771   4.662   5.361   2.885 -0.7415  0.3173  0.6410
  121DG     C12 2772   4.978   5.092   2.627 -0.0592  0.2980 -0.4055
  121DG     H13 2773   4.661   5.447   2.819 -1.0336  0.3060  0.6293
  121DG     H14 2774   4.555   5.356   2.906 -0.6178 -2.2091  0.9916
  121DG     H15 2775   4.977   5.005   2.561  0.4649  0.0713 -0.1195
  121DG     H16 2776   4.981   5.183   2.568 -0.8677  0.5915 -0.0049
  121DG     C17 2777   4.688   5.219   2.826  0.2481 -0.8463  0.1039
  121DG     C18 2778   4.839   5.092   2.691 -0.5495 -0.0770 -0.0844
  121DG     O19 2779   4.808   5.214   2.750 -0.4481 -0.1249 -0.1050
  121DG     H20 2780   4.601   5.200   2.762 -1.6119 -1.4648  2.6455
  121DG     H21 2781   4.676   5.138   2.898 -0.0579 -0.9812 -0.0958
  121DG     H22 2782   4.757   5.075   2.620 -1.7623  0.7818  1.0691
  121DG     H23 2783   4.839   5.003   2.754  0.2113 -0.2631 -0.3369
  122DG      C1 2784   2.870   1.495   4.020 -0.2768 -0.2893 -0.2593
  122DG      C2 2785   3.614   1.626   3.717 -0.0958  0.1053  0.0812
  122DG      H3 2786   2.817   1.469   4.112  1.9183 -5.4382 -0.0996
  122DG      H4 2787   2.860   1.399   3.970 -1.3753 -0.2395 -0.1504
  122DG      H5 2788   2.829   1.575   3.959  1.5849  0.7063 -0.2830
  122DG      H6 2789   3.634   1.700   3.640 -1.0095  1.7873  1.3733
  122DG      H7 2790   3.683   1.641   3.800  2.9085 -3.7681 -1.4330
  122DG      H8 2791   3.637   1.524   3.687 -1.2310 -0.4105  0.8733
  122DG      O9 2792   3.007   1.528   4.031  0.4632  0.2017 -0.1596
  122DG     O10 2793   3.486   1.628   3.768 -0.5323 -0.0032 -0.3737
  122DG     C11 2794   3.036   1.665   4.038 -1.0917  0.1399 -0.4666
  122DG     C12 2795   3.476   1.537   3.887  0.2907 -0.1642  0.5663
  122DG     H13 2796   2.979   1.709   4.120  0.4273 -0.6976  1.1016
  122DG     H14 2797   3.010   1.720   3.947  0.8504  1.9252 -0.0184
  122DG     H15 2798   3.574   1.499   3.914  0.2320  0.0166  1.0341
  122DG     H16 2799   3.413   1.449   3.870 -1.8210  1.0317  1.6872
  122DG     C17 2800   3.189   1.678   4.072 -0.4857  0.1375  0.2989
  122DG     C18 2801   3.404   1.618   3.995  0.0031  0.2149  0.1910
  122DG     O19 2802   3.271   1.634   3.961  0.0395  0.7475  0.4833
  122DG     H20 2803   3.200   1.628   4.168  0.1518  2.9022  1.7600
  122DG     H21 2804   3.222   1.778   4.099  2.0590 -0.4359 -0.4312
  122DG     H22 2805   3.424   1.554   4.081  0.8806 -1.8510 -1.4741
  122DG     H23 2806   3.446   1.718   4.003  1.6771 -0.5904  2.8193
  123DG      C1 2807   2.481   0.905   2.922  0.3443 -0.4929 -0.4121
  123DG      C2 2808   1.815   1.437   3.030  0.2876 -0.7015  0.0867
  123DG      H3 2809   2.562   0.944   2.860  0.1832 -0.8439 -0.8485
  123DG      H4 2810   2.504   0.799   2.921 -0.7635 -0.7339 -0.5951
  123DG      H5 2811   2.501   0.930   3.027  0.1036  0.5780 -0.6037
  123DG      H6 2812   1.766   1.447   3.126  1.1040  2.5914  0.2811
  123DG      H7 2813   1.849   1.538   3.004  0.4173 -0.7146  0.2070
  123DG      H8 2814   1.743   1.405   2.954 -2.2069  3.9474  0.1019
  123DG      O9 2815   2.352   0.947   2.876 -0.3406  0.4575  0.0267
  123DG     O10 2816   1.919   1.346   3.029 -0.3104  0.2918  0.4173
  123DG     C11 2817   2.312   1.079   2.887  0.2330 -0.2005 -0.1972
  123DG     C12 2818   2.026   1.360   3.130  0.6795  0.0268  0.7228
  123DG     H13 2819   2.229   1.097   2.818  0.9312 -0.9294 -1.2517
  123DG     H14 2820   2.390   1.151   2.862 -1.4664  1.2245 -1.7218
  123DG     H15 2821   1.980   1.389   3.225  2.2396 -0.9210  1.8040
  123DG     H16 2822   2.091   1.444   3.104  0.1764  0.6361  1.3925
  123DG     C17 2823   2.255   1.101   3.034 -0.4989  0.1555  0.6316
  123DG     C18 2824   2.116   1.242   3.158  0.1306  0.1480 -0.3128
  123DG     O19 2825   2.169   1.208   3.034 -0.3424  0.3245 -0.0030
  123DG     H20 2826   2.345   1.114   3.093 -0.9334 -0.7858  1.5337
  123DG     H21 2827   2.196   1.018   3.074 -1.4612  0.6948  0.3772
  123DG     H22 2828   2.189   1.281   3.230  0.5696 -1.6595  0.2797
  123DG     H23 2829   2.064   1.164   3.213 -2.8194  3.1589  1.5168
  124DG      C1 2830  -0.126   0.443   0.578 -0.3340  0.4358 -0.5774
  124DG      C2 2831   0.237   0.795  -0.050 -0.3527 -0.2961 -0.3751
  124DG      H3 2832  -0.051   0.403   0.646 -1.9782 -0.0930  0.9812
  124DG      H4 2833  -0.208   0.373   0.589  2.5080 -3.0464  0.5939
  124DG      H5 2834  -0.145   0.539   0.625  1.0338  1.8369 -2.6797
  124DG      H6 2835   0.306   0.792   0.035 -0.3495 -1.1692 -0.3979
  124DG      H7 2836   0.293   0.751  -0.133  0.3699 -0.6664  0.2848
  124DG      H8 2837   0.202   0.894  -0.078 -3.6175 -1.3042 -0.2897
  124DG      O9 2838  -0.077   0.455   0.445 -0.6598 -0.0384 -0.1267
  124DG     O10 2839   0.126   0.717  -0.010 -0.8099  0.1115 -0.1123
  124DG     C11 2840   0.024   0.545   0.444 -0.0943 -0.1559 -0.0570
  124DG     C12 2841   0.041   0.773   0.092  0.6460  1.0173 -0.4871
  124DG     H13 2842   0.101   0.519   0.517 -0.4033  0.3234  0.4437
  124DG     H14 2843  -0.011   0.638   0.487 -1.1465 -0.8744  0.7059
  124DG     H15 2844  -0.015   0.858   0.053 -0.4939  0.3740 -0.2986
  124DG     H16 2845   0.094   0.807   0.181  1.0530 -3.1682  1.1072
  124DG     C17 2846   0.078   0.544   0.298 -0.2818 -0.1168 -0.0347
  124DG     C18 2847  -0.062   0.674   0.148 -0.1131 -0.1527 -0.1172
  124DG     O19 2848  -0.011   0.549   0.186 -0.1496 -0.5632  0.2843
  124DG     H20 2849   0.124   0.447   0.282 -2.3286 -0.7158 -2.8803
  124DG     H21 2850   0.165   0.609   0.285 -0.8647  0.3996 -1.5179
  124DG     H22 2851  -0.108   0.709   0.240  1.6884 -0.5587  0.9920
  124DG     H23 2852  -0.142   0.652   0.077  0.1769  2.7956 -1.4908
  125DG      C1 2853   3.569   2.080   3.280  0.7201  0.0321 -0.5797
  125DG      C2 2854   3.176   1.551   2.757  0.5365 -0.3225 -0.1349
  125DG      H3 2855   3.650   2.010   3.258  1.1068 -0.2083  1.4590
  125DG      H4 2856   3.575   2.096   3.388  0.6368  1.2928 -0.7437
  125DG      H5 2857   3.598   2.177   3.239 -1.5806  1.2274  0.4012
  125DG      H6 2858   3.283   1.547   2.737  0.4470 -1.4319 -0.4404
  125DG      H7 2859   3.136   1.451   2.739  2.3309 -0.8981 -1.0973
  125DG      H8 2860   3.128   1.626   2.694 -0.2634  1.6763  2.6454
  125DG      O9 2861   3.442   2.031   3.229 -0.5606  0.4829  0.1159
  125DG     O10 2862   3.130   1.595   2.888  0.2774 -0.3272 -0.3535
  125DG     C11 2863   3.382   1.930   3.309  0.4707  0.4323 -0.2228
  125DG     C12 2864   3.227   1.691   2.932 -0.3225  0.3721 -0.5612
  125DG     H13 2865   3.364   1.957   3.414 -0.7512 -0.4915 -0.1736
  125DG     H14 2866   3.452   1.849   3.328 -0.6787 -0.1613  1.8615
  125DG     H15 2867   3.251   1.769   2.860  0.3436  2.1323  1.4503
  125DG     H16 2868   3.320   1.640   2.958 -0.7790  0.0432  0.5054
  125DG     C17 2869   3.248   1.899   3.243  0.2227 -0.3606 -0.1877
  125DG     C18 2870   3.175   1.764   3.055 -0.8481 -0.0055  0.5971
  125DG     O19 2871   3.282   1.840   3.120  0.4465  0.1205 -0.1063
  125DG     H20 2872   3.196   1.992   3.221  0.9358  0.2459  0.6671
  125DG     H21 2873   3.183   1.837   3.306 -2.0170  0.4904 -1.5219
  125DG     H22 2874   3.097   1.833   3.023  0.2240  0.8162 -0.3432
  125DG     H23 2875   3.132   1.690   3.121  2.2051 -1.5190  1.0778
  126DG      C1 2876   3.570   5.351   1.931  0.0762 -0.5354  0.0089
  126DG      C2 2877   2.968   5.291   2.097  0.0620  0.2063  0.0993
  126DG      H3 2878   3.646   5.422   1.964 -1.1613  1.0967 -0.5277
  126DG      H4 2879   3.580   5.307   1.831  0.2622 -0.0777 -0.1765
  126DG      H5 2880   3.559   5.269   2.002  0.2256 -0.7707 -0.2362
  126DG      H6 2881   3.030   5.229   2.163 -1.7754 -1.9060 -0.0327
  126DG      H7 2882   2.892   5.327   2.167  0.4327  0.4915  0.3612
  126DG      H8 2883   2.921   5.223   2.027 -0.7003  1.2520 -0.4296
  126DG      O9 2884   3.449   5.420   1.939 -0.0642  0.4216 -0.2301
  126DG     O10 2885   3.055   5.377   2.030 -0.7971  0.4702 -0.0585
  126DG     C11 2886   3.452   5.542   1.857 -1.2032  0.7107 -0.2947
  126DG     C12 2887   2.996   5.499   1.986 -0.4653  0.0499 -0.0695
  126DG     H13 2888   3.466   5.524   1.750  0.6945  1.6041 -0.2245
  126DG     H14 2889   3.532   5.610   1.885 -1.3960  0.6673  0.3691
  126DG     H15 2890   2.923   5.549   2.049  0.6911  1.8045 -0.0435
  126DG     H16 2891   2.931   5.476   1.902 -3.2446  1.1387  1.6403
  126DG     C17 2892   3.325   5.621   1.888  0.1021  0.7901  0.9847
  126DG     C18 2893   3.107   5.602   1.953  0.5444  0.7995 -0.7890
  126DG     O19 2894   3.218   5.534   1.903  0.4083 -0.2611  0.6624
  126DG     H20 2895   3.292   5.685   1.806 -0.9642  0.2698  0.9780
  126DG     H21 2896   3.325   5.663   1.988  2.0260 -0.0924  1.4029
  126DG     H22 2897   3.060   5.672   1.885 -2.1914  2.2128  2.2541
  126DG     H23 2898   3.127   5.656   2.046 -0.1632  0.7037 -0.5726
  127DG      C1 2899   2.516   2.010   4.547 -0.2976  0.6710  0.7688
  127DG      C2 2900   2.975   1.665   5.237 -0.5676  0.0181  0.2644
  127DG      H3 2901   2.409   2.017   4.568 -1.1445 -2.1279 -1.8948
  127DG      H4 2902   2.533   1.911   4.504 -3.3921  0.1302  0.5223
  127DG      H5 2903   2.544   2.088   4.476 -1.7944  0.9163  0.4117
  127DG      H6 2904   3.011   1.570   5.198  0.7527  0.4330  0.4428
  127DG      H7 2905   3.016   1.753   5.189 -0.3426  0.0421  0.4974
  127DG      H8 2906   3.011   1.681   5.339  1.2926  0.9483 -0.4896
  127DG      O9 2907   2.589   2.013   4.670  0.3293  0.3571  0.0084
  127DG     O10 2908   2.833   1.671   5.250 -0.5341 -0.4076 -0.2169
  127DG     C11 2909   2.598   1.890   4.734 -0.5489 -0.3392  0.1546
  127DG     C12 2910   2.760   1.672   5.128 -0.3661 -0.3589 -0.8062
  127DG     H13 2911   2.669   1.825   4.683  1.6962  2.3465 -0.3489
  127DG     H14 2912   2.501   1.841   4.746 -0.4567 -0.3659  0.8307
  127DG     H15 2913   2.657   1.637   5.143 -1.1173  2.0880  0.3118
  127DG     H16 2914   2.807   1.598   5.064  2.0710 -0.8464  1.4055
  127DG     C17 2915   2.653   1.918   4.877 -0.4135  0.2208  0.2638
  127DG     C18 2916   2.746   1.811   5.068  0.1289  0.3269 -0.3195
  127DG     O19 2917   2.685   1.793   4.940 -0.2237 -0.1943 -0.1207
  127DG     H20 2918   2.582   1.965   4.945  1.2172  1.5947  1.0898
  127DG     H21 2919   2.735   1.989   4.880 -1.8726  1.9617  0.8996
  127DG     H22 2920   2.690   1.872   5.139 -0.4959 -0.3545 -0.2035
  127DG     H23 2921   2.842   1.859   5.052  1.8612 -2.6899  0.2444
  128DG      C1 2922   3.577   4.439   4.593  0.2864  0.2587  0.3520
  128DG      C2 2923   3.429   4.730   3.805  0.4876  0.5529  0.5122
  128DG      H3 2924   3.683   4.455   4.574  0.3001  1.1705  1.1220
  128DG      H4 2925   3.565   4.331   4.593  1.3906  0.1091  1.6749
  128DG      H5 2926   3.558   4.465   4.697  0.9931  2.9383 -0.1197
  128DG      H6 2927   3.402   4.796   3.722  2.1581 -1.2060 -1.5504
  128DG      H7 2928   3.534   4.703   3.795 -0.0172 -1.3434  0.0086
  128DG      H8 2929   3.380   4.633   3.804  1.2460  0.1350  1.6176
  128DG      O9 2930   3.498   4.511   4.491 -0.4734  0.3230  0.3696
  128DG     O10 2931   3.393   4.793   3.935 -0.4610 -0.5375  0.0451
  128DG     C11 2932   3.518   4.648   4.499 -0.0643 -0.4227 -0.5641
  128DG     C12 2933   3.431   4.712   4.043  0.8521 -0.0137  0.2926
  128DG     H13 2934   3.622   4.665   4.472  0.2377 -1.5921 -0.1851
  128DG     H14 2935   3.494   4.690   4.596 -0.3289  1.3469 -1.3511
  128DG     H15 2936   3.538   4.694   4.051  0.9826  0.5723 -0.0041
  128DG     H16 2937   3.381   4.616   4.032 -0.0389  0.3248  1.2679
  128DG     C17 2938   3.426   4.721   4.407  0.8053 -0.7353  0.2522
  128DG     C18 2939   3.373   4.768   4.177 -0.5222 -0.2261 -0.4540
  128DG     O19 2940   3.448   4.697   4.271  0.2567 -0.1047 -0.3100
  128DG     H20 2941   3.424   4.826   4.437 -0.4775 -0.9420  0.9521
  128DG     H21 2942   3.326   4.685   4.431 -0.6398  0.8336 -2.7827
  128DG     H22 2943   3.399   4.874   4.175 -3.0283  0.4607 -0.4441
  128DG     H23 2944   3.265   4.756   4.188 -0.7866  0.8126 -1.6579
  129DG      C1 2945   3.657   3.701   0.068 -0.1593 -0.4591  0.1706
  129DG      C2 2946   3.796   4.411   0.009 -0.1983 -0.0079 -0.5653
  129DG      H3 2947   3.639   3.670   0.171 -2.6160  1.3843  0.3794
  129DG      H4 2948   3.765   3.691   0.055 -0.5611 -2.3578 -2.7167
  129DG      H5 2949   3.603   3.624   0.013 -2.8791  0.7047  1.0408
  129DG      H6 2950   3.891   4.414  -0.046  0.2597  0.3448  0.2292
  129DG      H7 2951   3.766   4.516   0.007 -0.9150 -0.2133 -2.3276
  129DG      H8 2952   3.818   4.386   0.113 -3.6891  0.2429  0.3301
  129DG      O9 2953   3.624   3.834   0.025 -0.1035  0.5715  0.1683
  129DG     O10 2954   3.703   4.321  -0.035  0.8296  0.7459  0.2997
  129DG     C11 2955   3.493   3.880   0.062  0.7998  0.3396  0.3107
  129DG     C12 2956   3.576   4.341   0.016 -0.0215  0.8569  0.0265
  129DG     H13 2957   3.484   3.901   0.168 -0.2897  0.3857  0.2181
  129DG     H14 2958   3.427   3.797   0.038  2.0014 -0.0718 -1.8750
  129DG     H15 2959   3.545   4.438  -0.022  0.1596  0.5612 -0.9111
  129DG     H16 2960   3.592   4.327   0.123  2.9083 -1.4352 -0.5883
  129DG     C17 2961   3.433   4.000  -0.014 -0.1005 -0.2922 -0.4476
  129DG     C18 2962   3.468   4.237  -0.029  0.2616  0.2661  0.2205
  129DG     O19 2963   3.520   4.117   0.012  0.0574  0.3339  0.1246
  129DG     H20 2964   3.327   4.012   0.011  0.1989 -0.1649  0.7751
  129DG     H21 2965   3.434   3.981  -0.122 -0.3058 -1.4417 -0.2639
  129DG     H22 2966   3.369   4.262   0.010 -1.2892 -3.2260 -1.0403
  129DG     H23 2967   3.460   4.232  -0.137 -0.0203  0.6287  0.2234
  130DG      C1 2968   3.071   2.866   4.128 -0.0901  0.3264  0.6649
  130DG      C2 2969   2.978   3.138   3.428  0.1347 -0.0642  0.3829
  130DG      H3 2970   2.964   2.846   4.124 -0.0542  0.2770 -1.6299
  130DG      H4 2971   3.122   2.886   4.222  2.0550  2.5850 -0.8698
  130DG      H5 2972   3.106   2.774   4.081 -1.8813 -0.4124  0.7032
  130DG      H6 2973   2.925   3.072   3.497  0.6033 -2.7091 -1.6281
  130DG      H7 2974   2.908   3.215   3.394  0.6481  0.2041 -0.0664
  130DG      H8 2975   3.000   3.079   3.340  1.7162  2.7818 -1.2695
  130DG      O9 2976   3.087   2.970   4.030  0.1292 -0.6695 -1.1551
  130DG     O10 2977   3.094   3.202   3.482 -0.3189 -0.1416  0.0199
  130DG     C11 2978   3.226   3.007   4.016  0.0779 -0.3667  0.2044
  130DG     C12 2979   3.187   3.128   3.562  0.1006 -0.1130  1.2289
  130DG     H13 2980   3.279   2.913   4.000  1.7464  0.8505 -1.8779
  130DG     H14 2981   3.256   3.036   4.117 -0.9350 -0.7963  0.6424
  130DG     H15 2982   3.288   3.159   3.534  0.1774 -2.0257 -0.9623
  130DG     H16 2983   3.198   3.028   3.521  0.0258  0.4191 -0.1727
  130DG     C17 2984   3.275   3.112   3.910 -0.0141 -0.5064 -0.5606
  130DG     C18 2985   3.149   3.139   3.706  0.0170  0.5151  0.3820
  130DG     O19 2986   3.243   3.073   3.779 -0.0525 -0.0896  0.2343
  130DG     H20 2987   3.384   3.117   3.916 -0.1300  1.5958  1.3612
  130DG     H21 2988   3.231   3.209   3.935  0.8968 -0.1956 -0.1243
  130DG     H22 2989   3.144   3.247   3.723 -0.1347  0.5628  0.0386
  130DG     H23 2990   3.047   3.101   3.718 -0.3821  1.2490 -0.5449
  131DG      C1 2991   3.331   5.276   4.961  0.4974 -0.2425  0.4926
  131DG      C2 2992   2.637   5.348   5.134  0.1539 -0.1872  1.3306
  131DG      H3 2993   3.364   5.379   4.946  1.9312 -0.5937  1.0216
  131DG      H4 2994   3.408   5.223   4.904 -1.3541  0.4620 -2.9469
  131DG      H5 2995   3.341   5.240   5.063  0.1384 -2.0005 -0.0525
  131DG      H6 2996   2.669   5.351   5.238  3.0175 -2.8052  0.6959
  131DG      H7 2997   2.571   5.433   5.118  2.1141  1.1832  0.1031
  131DG      H8 2998   2.576   5.258   5.128 -2.1349  1.3224  0.7654
  131DG      O9 2999   3.197   5.245   4.918 -0.4280 -0.0916  0.6768
  131DG     O10 3000   2.756   5.353   5.053  0.3467  0.5100  0.0774
  131DG     C11 3001   3.176   5.258   4.782 -0.1904 -0.0395  0.1495
  131DG     C12 3002   2.725   5.374   4.920 -0.5408 -0.9214 -0.1171
  131DG     H13 3003   3.240   5.185   4.733  0.5760  0.6157  0.1594
  131DG     H14 3004   3.206   5.355   4.744 -0.3214  0.7377  1.9580
  131DG     H15 3005   2.759   5.475   4.894 -1.7371 -0.0283  1.6182
  131DG     H16 3006   2.621   5.374   4.889 -0.4206  0.4144 -0.6154
  131DG     C17 3007   3.027   5.245   4.749  0.4858 -0.0122 -0.0665
  131DG     C18 3008   2.803   5.276   4.829 -0.3616 -0.1055 -0.7790
  131DG     O19 3009   2.942   5.298   4.848 -0.1303 -0.4983  0.2497
  131DG     H20 3010   3.002   5.139   4.748 -0.9867  0.2857  1.3523
  131DG     H21 3011   3.004   5.283   4.650 -0.2041  1.1317  0.5188
  131DG     H22 3012   2.777   5.173   4.855 -1.2434  0.1517 -0.5987
  131DG     H23 3013   2.773   5.287   4.725  1.4139  1.9377 -1.1329
  132DG      C1 3014   2.359   3.322   2.108  0.3909 -0.5426 -0.3471
  132DG      C2 3015   2.703   3.975   1.777  0.3174  0.3270  0.1623
  132DG      H3 3016   2.433   3.245   2.126  1.0622  0.2444  0.3285
  132DG      H4 3017   2.257   3.294   2.080 -0.1273  1.1178 -0.2267
  132DG      H5 3018   2.347   3.372   2.204  2.6475  1.2337 -0.9163
  132DG      H6 3019   2.773   3.968   1.694  0.6742  0.4943  0.4485
  132DG      H7 3020   2.693   4.083   1.791  3.1465  0.5436  1.2144
  132DG      H8 3021   2.749   3.927   1.863 -0.1440  1.8473  1.3054
  132DG      O9 3022   2.401   3.411   2.010  0.0457 -0.0976  0.4375
  132DG     O10 3023   2.580   3.911   1.758  0.1630  0.6285 -0.5220
  132DG     C11 3024   2.333   3.533   2.013  0.0691  0.1628  0.3326
  132DG     C12 3025   2.594   3.786   1.695 -0.6655  0.2450 -0.1677
  132DG     H13 3026   2.386   3.595   2.086  1.1927  0.3157 -0.5931
  132DG     H14 3027   2.228   3.518   2.041  0.0605  1.1518  0.8800
  132DG     H15 3028   2.677   3.732   1.741  2.1882  3.0115 -1.6472
  132DG     H16 3029   2.625   3.803   1.591 -0.4906 -0.9908 -0.3359
  132DG     C17 3030   2.328   3.598   1.876 -0.5272  1.0100  0.0645
  132DG     C18 3031   2.473   3.693   1.697  0.2350 -0.1910  0.2680
  132DG     O19 3032   2.452   3.666   1.842 -0.4141  0.1088  0.5204
  132DG     H20 3033   2.252   3.677   1.879 -1.0492  0.5625 -0.9217
  132DG     H21 3034   2.295   3.528   1.799  1.0930  1.7176 -1.3489
  132DG     H22 3035   2.383   3.745   1.666 -0.0486 -2.1848 -2.6038
  132DG     H23 3036   2.487   3.599   1.644 -0.3145  0.0859 -0.3776
  133DG      C1 3037   2.410   4.032   1.997 -0.2785  0.5126 -0.2891
  133DG      C2 3038   2.119   4.102   2.760  0.0810 -0.7317  0.2664
  133DG      H3 3039   2.367   3.985   1.908 -1.7704  1.7008 -0.2298
  133DG      H4 3040   2.507   3.996   2.032 -1.8122 -2.0122  1.7730
  133DG      H5 3041   2.404   4.139   1.978  1.8128  0.9263  1.0099
  133DG      H6 3042   2.100   4.203   2.721 -3.1231 -1.0381  0.7174
  133DG      H7 3043   2.081   4.085   2.861  2.0330  0.7656  1.3198
  133DG      H8 3044   2.225   4.083   2.774  0.1809 -1.1456 -0.9210
  133DG      O9 3045   2.333   4.005   2.113 -0.5471  0.2648 -0.0459
  133DG     O10 3046   2.061   4.016   2.663 -0.4144  0.0184  0.5648
  133DG     C11 3047   2.334   3.870   2.164 -0.6766 -1.3488 -0.2214
  133DG     C12 3048   2.133   4.003   2.539  0.2479  0.5130 -0.4560
  133DG     H13 3049   2.436   3.834   2.151  0.8902  2.6667 -0.2728
  133DG     H14 3050   2.274   3.800   2.107 -2.1589 -0.4556  0.1895
  133DG     H15 3051   2.239   3.986   2.559 -0.3875 -1.2250  1.7783
  133DG     H16 3052   2.134   4.102   2.493 -0.2931  0.5192 -0.4634
  133DG     C17 3053   2.275   3.861   2.311  0.2866 -0.4409 -0.2586
  133DG     C18 3054   2.078   3.896   2.442  0.0642  0.1785 -0.0130
  133DG     O19 3055   2.138   3.904   2.310  0.3181 -0.3422 -0.4673
  133DG     H20 3056   2.344   3.917   2.375 -2.0031  1.7404  0.4280
  133DG     H21 3057   2.274   3.762   2.357 -0.7873 -0.2578  0.1381
  133DG     H22 3058   2.097   3.796   2.479  2.6037 -0.0303 -1.6323
  133DG     H23 3059   1.973   3.919   2.424 -0.0744  0.0733  0.6461
  134DG      C1 3060   2.202   2.876   4.338  0.0237  0.1844 -0.7917
  134DG      C2 3061   2.661   3.301   4.764  0.0293 -0.3184  0.3232
  134DG      H3 3062   2.300   2.855   4.295  1.2386  0.5173  1.6476
  134DG      H4 3063   2.135   2.933   4.274 -0.0372 -2.7768 -3.6130
  134DG      H5 3064   2.173   2.777   4.371  1.8396  0.0616  0.6040
  134DG      H6 3065   2.699   3.395   4.803 -2.0847  0.2113  1.2458
  134DG      H7 3066   2.655   3.224   4.841  1.5870 -2.6015 -1.6930
  134DG      H8 3067   2.727   3.252   4.692  0.4430 -0.1464  0.5807
  134DG      O9 3068   2.235   2.949   4.459 -0.0660 -0.3108  0.2548
  134DG     O10 3069   2.544   3.327   4.686 -0.2206  0.0343  0.2915
  134DG     C11 3070   2.269   3.084   4.444  0.1472  0.2050 -0.0942
  134DG     C12 3071   2.431   3.350   4.769  0.0873  0.2377  0.0434
  134DG     H13 3072   2.193   3.131   4.381 -0.0618  1.4056  1.0050
  134DG     H14 3073   2.359   3.093   4.381 -0.1254 -0.3239 -0.5634
  134DG     H15 3074   2.453   3.434   4.835 -3.2853  0.5566  0.9425
  134DG     H16 3075   2.406   3.266   4.835  0.0516  1.7639  2.0785
  134DG     C17 3076   2.268   3.147   4.587 -0.0203  0.0670 -0.1331
  134DG     C18 3077   2.307   3.377   4.677 -0.0258  0.5516  0.3712
  134DG     O19 3078   2.300   3.280   4.568  0.3874 -0.3578 -0.2095
  134DG     H20 3079   2.337   3.095   4.654  0.8171  0.2028 -0.8672
  134DG     H21 3080   2.169   3.134   4.632 -0.0324 -0.6383 -0.3623
  134DG     H22 3081   2.218   3.383   4.739  1.0144  0.4748  1.9504
  134DG     H23 3082   2.324   3.476   4.634 -2.5750  1.2586  0.8518
  135DG      C1 3083   2.519   2.986   1.775 -0.5628 -0.8768  0.0670
  135DG      C2 3084   2.561   3.525   1.379 -0.1274  0.1467  0.1191
  135DG      H3 3085   2.450   3.015   1.855  0.5532  0.4135  0.5998
  135DG      H4 3086   2.604   2.943   1.827  0.7184 -0.4929 -1.6361
  135DG      H5 3087   2.469   2.919   1.705 -3.7113  1.4850 -0.1950
  135DG      H6 3088   2.492   3.443   1.397 -1.2722  0.0447 -3.7710
  135DG      H7 3089   2.503   3.615   1.400  1.9561  1.2493  1.4681
  135DG      H8 3090   2.580   3.519   1.272  1.9604 -1.2791  0.5293
  135DG      O9 3091   2.561   3.102   1.704 -0.0929  0.6790  0.1842
  135DG     O10 3092   2.676   3.533   1.463  0.1395 -0.6894 -0.0496
  135DG     C11 3093   2.601   3.210   1.791 -0.1911 -0.4258  0.0636
  135DG     C12 3094   2.774   3.438   1.435 -0.4931  0.6771 -0.0656
  135DG     H13 3095   2.678   3.168   1.857 -1.2968  0.9805  2.3960
  135DG     H14 3096   2.521   3.246   1.855 -0.9253  1.0885 -1.6327
  135DG     H15 3097   2.848   3.476   1.366 -2.2491  0.5354 -2.1229
  135DG     H16 3098   2.729   3.350   1.389 -1.6635  1.5340 -0.6070
  135DG     C17 3099   2.655   3.326   1.706  0.0386 -0.1092 -0.3023
  135DG     C18 3100   2.851   3.396   1.569  0.2108  0.0431  0.0403
  135DG     O19 3101   2.783   3.296   1.646 -0.1893 -0.5809 -1.1399
  135DG     H20 3102   2.663   3.411   1.774 -1.3825 -0.5306  0.4324
  135DG     H21 3103   2.585   3.360   1.629 -1.2128  0.4925  1.0632
  135DG     H22 3104   2.947   3.344   1.558  1.4367  2.2331 -0.1866
  135DG     H23 3105   2.885   3.480   1.628  0.4859 -0.6984  0.9643
  136DG      C1 3106   1.426   1.472   1.089  0.2017 -0.3093  0.0418
  136DG      C2 3107   1.725   2.239   0.796 -0.5371 -0.0524 -0.4777
  136DG      H3 3108   1.462   1.420   1.000 -1.5187 -1.1566 -0.2102
  136DG      H4 3109   1.318   1.482   1.096  0.1154 -0.9958 -0.2731
  136DG      H5 3110   1.463   1.411   1.171  0.5777  0.1154  0.1903
  136DG      H6 3111   1.810   2.308   0.790 -0.5868  0.0761  0.2219
  136DG      H7 3112   1.707   2.180   0.706 -0.7662 -0.1683 -0.3570
  136DG      H8 3113   1.639   2.303   0.813 -0.6515  0.1182 -1.6307
  136DG      O9 3114   1.480   1.599   1.090  0.2132  0.3132 -0.3243
  136DG     O10 3115   1.748   2.147   0.907 -0.2735 -0.2979 -0.0455
  136DG     C11 3116   1.625   1.605   1.124 -0.7592 -0.0769 -0.3625
  136DG     C12 3117   1.651   2.045   0.913 -0.5325 -0.2660  0.4997
  136DG     H13 3118   1.680   1.554   1.045 -1.9148 -4.6794  1.4507
  136DG     H14 3119   1.656   1.559   1.218  0.1585  0.5656 -0.3396
  136DG     H15 3120   1.669   1.981   0.827  0.9612  1.6016 -0.6358
  136DG     H16 3121   1.546   2.077   0.917 -0.4126  0.0593  1.4366
  136DG     C17 3122   1.674   1.751   1.142  0.2941  0.1485 -0.7658
  136DG     C18 3123   1.682   1.967   1.042  0.1249 -0.1791  0.3656
  136DG     O19 3124   1.636   1.833   1.035  0.5956  0.0133  1.0474
  136DG     H20 3125   1.782   1.756   1.154  0.1866  2.7998 -0.1589
  136DG     H21 3126   1.627   1.797   1.229  0.5296  0.0700 -0.5968
  136DG     H22 3127   1.790   1.970   1.055  0.5645  1.9929 -2.7369
  136DG     H23 3128   1.640   2.022   1.127  0.3858  0.2389  0.2274
  137DG      C1 3129   2.524   4.817   1.385  0.1012  0.0692  0.2673
  137DG      C2 3130   1.961   4.221   1.160  0.4599 -0.2951 -0.7348
  137DG      H3 3131   2.618   4.762   1.373 -0.0051  0.0039 -0.2745
  137DG      H4 3132   2.524   4.855   1.487 -1.6736  1.0423 -0.0655
  137DG      H5 3133   2.527   4.905   1.321 -0.8729 -0.4276 -0.4860
  137DG      H6 3134   1.895   4.261   1.083 -0.2392  1.7824  0.8573
  137DG      H7 3135   1.982   4.116   1.139  0.5718 -1.2397  3.2439
  137DG      H8 3136   1.912   4.215   1.257 -0.7258 -3.5291 -1.4076
  137DG      O9 3137   2.425   4.730   1.347  0.2685  0.5845  0.0373
  137DG     O10 3138   2.088   4.288   1.169 -0.1637 -0.0392  0.4019
  137DG     C11 3139   2.301   4.795   1.346  0.4960 -0.4828 -0.3820
  137DG     C12 3140   2.080   4.431   1.173  0.1821  0.2676  0.8416
  137DG     H13 3141   2.280   4.873   1.273 -0.7960  0.2579  0.7185
  137DG     H14 3142   2.270   4.849   1.436  0.9046  0.0320 -0.5471
  137DG     H15 3143   2.015   4.443   1.260  0.6183 -2.1765  1.5846
  137DG     H16 3144   2.032   4.470   1.083  0.1716  0.5471  0.9692
  137DG     C17 3145   2.199   4.689   1.310  0.7649 -0.2875 -0.8335
  137DG     C18 3146   2.224   4.489   1.183 -0.4377 -0.6180  0.1641
  137DG     O19 3147   2.224   4.635   1.183  0.3871 -0.0076  0.1349
  137DG     H20 3148   2.102   4.739   1.323  2.1252  2.6613 -1.1730
  137DG     H21 3149   2.203   4.612   1.387  0.1191  0.6596  0.1951
  137DG     H22 3150   2.280   4.461   1.272 -0.9603 -1.8993  0.1072
  137DG     H23 3151   2.281   4.444   1.101  0.3308 -1.7445  1.2783
  138DG      C1 3152   3.884   4.897   4.266 -0.1553 -0.6873  1.1868
  138DG      C2 3153   4.283   4.217   4.295 -0.6465  0.2616  0.0970
  138DG      H3 3154   3.919   4.890   4.163 -1.4118 -0.5811  0.7408
  138DG      H4 3155   3.888   5.000   4.301  0.3942 -0.1958 -0.2505
  138DG      H5 3156   3.779   4.867   4.275 -0.2513  0.1003  3.2663
  138DG      H6 3157   4.190   4.162   4.307 -1.6071  2.1060  1.7843
  138DG      H7 3158   4.311   4.210   4.190  0.0941 -1.6397  0.3789
  138DG      H8 3159   4.367   4.167   4.342  0.4831 -0.1921 -2.2441
  138DG      O9 3160   3.940   4.804   4.355  1.0096  0.3032  0.3239
  138DG     O10 3161   4.249   4.341   4.359 -0.2087 -0.2546  0.3378
  138DG     C11 3162   4.073   4.840   4.388  1.0877 -0.1996  0.6636
  138DG     C12 3163   4.159   4.421   4.279  0.1474  0.0543  0.6236
  138DG     H13 3164   4.063   4.936   4.439 -0.5063  0.2968 -0.5239
  138DG     H14 3165   4.135   4.849   4.299  1.0186 -0.0859  0.6270
  138DG     H15 3166   4.076   4.372   4.229 -0.9025  2.9137 -0.6503
  138DG     H16 3167   4.208   4.462   4.191 -1.2482 -0.3032 -0.3461
  138DG     C17 3168   4.141   4.733   4.482 -0.5016  0.3403  0.4398
  138DG     C18 3169   4.090   4.525   4.361  0.1557  0.1681 -0.4205
  138DG     O19 3170   4.187   4.620   4.404 -0.4584  0.0555  0.1164
  138DG     H20 3171   4.078   4.708   4.568  0.0193 -1.7123  0.2876
  138DG     H21 3172   4.225   4.785   4.529 -1.0519  0.5852  1.1674
  138DG     H22 3173   4.008   4.579   4.315 -1.4487 -2.4549 -0.8409
  138DG     H23 3174   4.035   4.485   4.446  2.0874 -0.1606  0.7459
  139DG      C1 3175   5.325   2.930   5.276 -0.7654 -0.1371 -0.2391
  139DG      C2 3176   4.653   2.574   5.060 -0.6711 -0.0268  0.1483
  139DG      H3 3177   5.365   2.830   5.262  0.4450  0.3535 -0.4071
  139DG      H4 3178   5.400   2.976   5.340 -0.5373 -1.5950  0.5793
  139DG      H5 3179   5.322   2.987   5.183 -0.9612  0.9988  0.4342
  139DG      H6 3180   4.685   2.568   4.956 -2.3018 -1.0027 -0.3402
  139DG      H7 3181   4.655   2.475   5.105 -1.2516  1.0123  2.6189
  139DG      H8 3182   4.553   2.609   5.037 -0.0616  0.9881 -1.0850
  139DG      O9 3183   5.210   2.932   5.353 -0.2037  0.6872 -0.1722
  139DG     O10 3184   4.736   2.667   5.126  0.6541  0.6914  0.0600
  139DG     C11 3185   5.126   2.830   5.299 -0.7454 -0.2812  0.6770
  139DG     C12 3186   4.684   2.681   5.259 -0.2555  0.8688 -0.6142
  139DG     H13 3187   5.179   2.736   5.287  0.8148  0.6521 -0.0965
  139DG     H14 3188   5.103   2.870   5.200  3.4934 -0.0132 -0.4081
  139DG     H15 3189   4.679   2.585   5.310  0.7983  2.1544  2.1024
  139DG     H16 3190   4.583   2.719   5.259 -1.1536 -1.1715  1.9140
  139DG     C17 3191   5.004   2.816   5.387  0.3545  0.5067 -0.0793
  139DG     C18 3192   4.774   2.776   5.331 -0.5093  0.3330 -0.7417
  139DG     O19 3193   4.910   2.746   5.306  0.5616 -0.3025 -0.4950
  139DG     H20 3194   4.971   2.911   5.428  2.3964  1.0370  0.4434
  139DG     H21 3195   5.018   2.750   5.473  1.6008 -0.0015 -0.6548
  139DG     H22 3196   4.751   2.880   5.307  0.8079  0.9449  0.5283
  139DG     H23 3197   4.755   2.764   5.437 -0.4779  0.8055 -0.6811
  140DG      C1 3198   1.666   4.081   1.102 -0.2689 -0.2884  0.6295
  140DG      C2 3199   1.502   4.753   1.380 -0.7216  0.6762  0.0368
  140DG      H3 3200   1.692   4.036   1.198  1.0234  0.2550  0.5581
  140DG      H4 3201   1.742   4.061   1.027 -1.1377 -1.7344  0.1050
  140DG      H5 3202   1.578   4.026   1.071 -0.8007  0.9975 -0.2483
  140DG      H6 3203   1.595   4.736   1.435 -1.3659 -0.1573  0.9149
  140DG      H7 3204   1.507   4.827   1.301  0.2621 -0.3033 -0.8618
  140DG      H8 3205   1.420   4.774   1.449 -1.9453 -2.4212 -0.3177
  140DG      O9 3206   1.625   4.214   1.125 -0.4337  0.5594 -0.3642
  140DG     O10 3207   1.464   4.622   1.330 -0.1079 -0.4911 -0.3167
  140DG     C11 3208   1.559   4.265   1.013  0.2142 -0.3956 -0.2250
  140DG     C12 3209   1.345   4.631   1.259 -0.0190 -0.2955  0.4669
  140DG     H13 3210   1.553   4.187   0.937  0.6007 -1.6398  0.9819
  140DG     H14 3211   1.626   4.342   0.977  0.6953 -0.2428  0.9470
  140DG     H15 3212   1.342   4.710   1.185  0.4546 -0.6394  0.0763
  140DG     H16 3213   1.266   4.659   1.329  0.3757  0.1801  0.7271
  140DG     C17 3214   1.429   4.334   1.048  0.6170 -0.1815  0.3697
  140DG     C18 3215   1.321   4.489   1.204 -0.1848 -0.1873 -0.5926
  140DG     O19 3216   1.438   4.457   1.118 -0.2067  0.4514  0.2098
  140DG     H20 3217   1.373   4.258   1.103  0.3113 -0.5645 -0.4531
  140DG     H21 3218   1.377   4.357   0.955  0.9266  1.3697  0.5538
  140DG     H22 3219   1.331   4.416   1.284 -0.9790 -1.6883 -1.8104
  140DG     H23 3220   1.225   4.478   1.153  0.0656 -2.6439 -0.6595
  141DG      C1 3221   0.462   3.899   2.429 -0.3980 -0.5374 -0.1090
  141DG      C2 3222   0.510   3.027   2.320 -0.4134  0.3958 -0.2082
  141DG      H3 3223   0.389   3.980   2.431  0.4787  0.3227  2.9168
  141DG      H4 3224   0.555   3.929   2.383 -0.4902  2.8383  1.6139
  141DG      H5 3225   0.489   3.893   2.535 -0.8149  0.3280  0.0595
  141DG      H6 3226   0.556   2.959   2.249 -0.2543 -0.7373  0.9533
  141DG      H7 3227   0.511   2.974   2.415  1.0322  0.1532 -0.3422
  141DG      H8 3228   0.406   3.048   2.295 -0.2335  0.3734 -1.0038
  141DG      O9 3229   0.400   3.786   2.366 -0.1834 -0.4785  0.7804
  141DG     O10 3230   0.602   3.137   2.331  0.5290 -0.2663  0.1799
  141DG     C11 3231   0.489   3.676   2.360  0.0748 -0.0373  0.1310
  141DG     C12 3232   0.589   3.220   2.219 -0.0624 -0.4872  0.7729
  141DG     H13 3233   0.498   3.641   2.463 -0.9300  0.4682  0.3973
  141DG     H14 3234   0.587   3.709   2.326  0.7090 -1.2244  0.7443
  141DG     H15 3235   0.584   3.167   2.123  2.7193  2.3594 -1.1442
  141DG     H16 3236   0.683   3.276   2.216  0.4298 -1.3206  0.0268
  141DG     C17 3237   0.440   3.564   2.268  0.0289 -0.4540  0.2859
  141DG     C18 3238   0.480   3.327   2.229  0.1063 -0.8887 -0.0701
  141DG     O19 3239   0.531   3.449   2.285 -0.0756  0.1916  0.5614
  141DG     H20 3240   0.448   3.608   2.168  1.1916  0.2470  0.6612
  141DG     H21 3241   0.340   3.531   2.296  0.1729 -0.5661  0.6711
  141DG     H22 3242   0.456   3.348   2.125  5.1468  1.2367 -1.1102
  141DG     H23 3243   0.389   3.280   2.266 -0.1261 -0.5513 -0.2068
  142DG      C1 3244   3.673   5.389   5.716 -0.1602 -0.0675 -0.0760
  142DG      C2 3245   4.070   5.534   5.051 -0.4604  0.0164  0.7046
  142DG      H3 3246   3.754   5.431   5.775  0.9503 -2.2038 -0.0239
  142DG      H4 3247   3.633   5.312   5.782  0.7045  0.7863  1.5260
  142DG      H5 3248   3.587   5.457   5.716 -0.1615 -0.0462  1.0233
  142DG      H6 3249   4.033   5.636   5.034  2.6790  0.9857 -1.1734
  142DG      H7 3250   4.178   5.539   5.035 -0.7365  0.9951 -1.1066
  142DG      H8 3251   4.021   5.479   4.971 -1.1925  0.5594  0.7704
  142DG      O9 3252   3.715   5.344   5.593 -0.0552  0.2753  0.5134
  142DG     O10 3253   4.043   5.474   5.178 -0.1897  0.4096  0.2699
  142DG     C11 3254   3.834   5.263   5.596  0.7141  0.1419 -0.0347
  142DG     C12 3255   3.915   5.431   5.200 -0.7330  0.2291  0.1059
  142DG     H13 3256   3.831   5.177   5.528  2.2992 -1.4649  1.8110
  142DG     H14 3257   3.837   5.221   5.696  0.7023 -0.3434 -0.2335
  142DG     H15 3258   3.891   5.337   5.151 -0.8463  0.8062 -0.9653
  142DG     H16 3259   3.853   5.503   5.148  0.7699  1.1172 -0.5251
  142DG     C17 3260   3.952   5.349   5.570  0.1743  0.5723  0.7752
  142DG     C18 3261   3.883   5.425   5.345  0.6280 -0.1901 -0.6348
  142DG     O19 3262   3.976   5.352   5.429  0.1432  0.2508  0.1548
  142DG     H20 3263   4.032   5.290   5.614  0.0271 -1.7715 -1.8138
  142DG     H21 3264   3.942   5.451   5.607 -1.7082  1.3108 -1.4600
  142DG     H22 3265   3.898   5.526   5.383 -1.1802  0.1095 -0.6162
  142DG     H23 3266   3.783   5.386   5.364  0.8277  0.9455  3.9439
  143DG      C1 3267   4.432   0.867   3.450 -0.1642 -0.4068 -0.3348
  143DG      C2 3268   3.800   0.828   3.624 -0.4429 -0.1581  0.3268
  143DG      H3 3269   4.454   0.800   3.367 -0.4675 -0.1005 -0.6686
  143DG      H4 3270   4.530   0.892   3.490  0.0660  0.6229 -1.4712
  143DG      H5 3271   4.387   0.946   3.390  2.1789  2.9014  1.9327
  143DG      H6 3272   3.741   0.886   3.552 -0.8811 -0.2468  0.6099
  143DG      H7 3273   3.864   0.760   3.567  1.1588 -0.2565  2.1514
  143DG      H8 3274   3.725   0.773   3.681  0.3384 -0.1380  1.3983
  143DG      O9 3275   4.331   0.811   3.542 -0.0625 -0.3208 -0.4219
  143DG     O10 3276   3.871   0.917   3.711  0.1351 -0.5872  0.0469
  143DG     C11 3277   4.275   0.920   3.611  0.5191 -0.6464  0.0591
  143DG     C12 3278   3.925   0.853   3.824 -0.1666  0.6307  0.6906
  143DG     H13 3279   4.202   0.974   3.551  1.1665 -0.2274 -0.3648
  143DG     H14 3280   4.352   0.995   3.631 -0.7564  0.7357  0.0271
  143DG     H15 3281   3.847   0.813   3.888 -0.2297  2.7850  2.1009
  143DG     H16 3282   3.963   0.939   3.880 -0.2946  2.2777 -1.6049
  143DG     C17 3283   4.205   0.886   3.736  0.5684  0.3208 -0.3889
  143DG     C18 3284   4.022   0.740   3.792 -0.0145 -0.3338  0.0968
  143DG     O19 3285   4.120   0.781   3.700  0.3394  0.0790  1.1775
  143DG     H20 3286   4.143   0.971   3.761 -0.0322 -0.0829 -0.4753
  143DG     H21 3287   4.270   0.863   3.821 -0.6170  2.8889  1.3327
  143DG     H22 3288   4.067   0.702   3.884 -1.1887 -0.1571  0.7729
  143DG     H23 3289   3.975   0.651   3.749  0.2408 -1.5625  2.2258
  144DG      C1 3290   0.420   4.767   0.762  0.4399 -0.4320  0.1338
  144DG      C2 3291  -0.223   5.150   0.460  0.4322 -0.8636  0.3082
  144DG      H3 3292   0.512   4.777   0.820  0.9052 -3.6487  0.1347
  144DG      H4 3293   0.425   4.712   0.668 -1.0918 -1.1555  0.4397
  144DG      H5 3294   0.336   4.734   0.823 -0.8243  2.8408  0.3270
  144DG      H6 3295  -0.305   5.220   0.474  0.0853 -0.7285 -1.9618
  144DG      H7 3296  -0.211   5.142   0.352  0.5121  1.8660  0.0318
  144DG      H8 3297  -0.251   5.057   0.509 -1.6582 -0.7128 -0.5422
  144DG      O9 3298   0.390   4.899   0.729 -0.3001  0.3313 -0.1453
  144DG     O10 3299  -0.110   5.216   0.512  0.9191  0.1320 -0.1683
  144DG     C11 3300   0.281   4.912   0.645 -0.1523  0.7884 -0.1416
  144DG     C12 3301  -0.000   5.214   0.431  0.3550  0.5488 -0.8775
  144DG     H13 3302   0.200   4.860   0.697  1.4192  0.2564  1.9216
  144DG     H14 3303   0.296   4.872   0.545  0.3668  1.1184 -0.1980
  144DG     H15 3304  -0.006   5.295   0.358  1.7825  0.7218 -0.8323
  144DG     H16 3305  -0.013   5.127   0.367 -1.6960  1.7342 -2.1977
  144DG     C17 3306   0.258   5.066   0.641  0.5383 -0.8259  0.4784
  144DG     C18 3307   0.127   5.206   0.511 -0.1155  0.5043  0.9946
  144DG     O19 3308   0.139   5.076   0.563  0.1551 -0.0602 -0.4321
  144DG     H20 3309   0.333   5.132   0.599 -1.8552  1.1314 -1.0015
  144DG     H21 3310   0.232   5.106   0.739 -3.3898 -0.3841 -0.5662
  144DG     H22 3311   0.215   5.225   0.449  1.1918 -0.6878  2.3979
  144DG     H23 3312   0.123   5.281   0.591 -0.4508 -0.0374  1.4893
  145DG      C1 3313   0.913   0.130   3.310  0.8053 -0.9659  0.3433
  145DG      C2 3314   0.286  -0.020   3.609 -0.3652 -0.3697 -0.0856
  145DG      H3 3315   0.897   0.147   3.204  2.2282 -3.8496 -0.4453
  145DG      H4 3316   0.944   0.026   3.315  0.6037 -1.1109 -1.0296
  145DG      H5 3317   0.993   0.199   3.338 -0.3816  1.7216 -2.3000
  145DG      H6 3318   0.361  -0.063   3.675  1.7074  1.5744 -1.0119
  145DG      H7 3319   0.197   0.012   3.664  0.0099  0.5584  0.0052
  145DG      H8 3320   0.272  -0.094   3.530 -0.2892  0.7561 -1.1940
  145DG      O9 3321   0.791   0.146   3.387  0.5294 -0.2040  0.5144
  145DG     O10 3322   0.344   0.089   3.543  0.4057 -0.1562  0.0146
  145DG     C11 3323   0.780   0.255   3.460 -0.2846 -0.3676 -0.8792
  145DG     C12 3324   0.380   0.184   3.641 -0.5349 -0.6173 -0.1993
  145DG     H13 3325   0.785   0.350   3.407 -2.4791 -0.0562 -0.6178
  145DG     H14 3326   0.867   0.278   3.523 -0.8878  3.2957 -1.1827
  145DG     H15 3327   0.453   0.136   3.706  0.0574 -2.0504 -1.8393
  145DG     H16 3328   0.293   0.216   3.697 -0.0222  0.1741  0.1613
  145DG     C17 3329   0.664   0.253   3.554 -0.4319 -0.0703 -0.1428
  145DG     C18 3330   0.440   0.308   3.581  0.0786  0.7725 -0.3407
  145DG     O19 3331   0.543   0.281   3.496  0.3615 -0.2002 -0.1367
  145DG     H20 3332   0.684   0.317   3.640  0.9285 -2.3731  1.3626
  145DG     H21 3333   0.677   0.159   3.607  1.4113  0.5786  0.6144
  145DG     H22 3334   0.364   0.362   3.525 -0.2384  0.6688 -0.0156
  145DG     H23 3335   0.465   0.387   3.652 -2.3663  1.7862 -0.4909
  146DG      C1 3336   4.620   4.548   2.115  0.3277 -0.1104 -0.3748
  146DG      C2 3337   3.981   4.551   2.215 -0.7111 -0.5140  0.1165
  146DG      H3 3338   4.709   4.561   2.054 -0.9125  0.3723 -2.1684
  146DG      H4 3339   4.629   4.453   2.168 -0.7860  0.3616  0.7056
  146DG      H5 3340   4.614   4.629   2.188  0.3947  1.7495 -2.3643
  146DG      H6 3341   3.897   4.521   2.152 -2.5933  1.4594  1.5299
  146DG      H7 3342   4.009   4.468   2.279 -0.5330  0.3161  1.1372
  146DG      H8 3343   3.954   4.635   2.279 -2.1006 -1.0406  0.2745
  146DG      O9 3344   4.502   4.542   2.032 -0.0135 -0.7678  0.7147
  146DG     O10 3345   4.095   4.585   2.137  0.0088 -0.0312 -0.2163
  146DG     C11 3346   4.508   4.635   1.926  0.1370  0.3071 -0.9086
  146DG     C12 3347   4.069   4.682   2.035  0.5888 -0.1031  0.5583
  146DG     H13 3348   4.582   4.595   1.858 -0.6300 -0.0527 -1.5544
  146DG     H14 3349   4.528   4.736   1.964 -2.4860  0.3200  0.7315
  146DG     H15 3350   4.042   4.776   2.084 -0.2462  1.3323 -2.3845
  146DG     H16 3351   3.991   4.652   1.964  0.5659 -1.5137  1.1706
  146DG     C17 3352   4.378   4.616   1.845 -0.3934  0.0500 -0.6526
  146DG     C18 3353   4.200   4.706   1.965 -0.4363  0.0150  0.0086
  146DG     O19 3354   4.255   4.583   1.921 -0.3179  0.0065 -0.1804
  146DG     H20 3355   4.398   4.526   1.787  0.1699 -0.5160  0.4019
  146DG     H21 3356   4.371   4.700   1.776  1.1422  1.3667  0.7127
  146DG     H22 3357   4.178   4.782   1.890  1.1932  0.9719  0.4676
  146DG     H23 3358   4.273   4.755   2.030  0.2495 -0.3107 -0.5089
  147DG      C1 3359   3.666   4.544   1.915  0.2301  0.8982 -0.0576
  147DG      C2 3360   3.192   4.897   2.452  0.6054  0.4304  0.1612
  147DG      H3 3361   3.679   4.453   1.856  1.4478  0.8423  0.2709
  147DG      H4 3362   3.761   4.595   1.899  0.6834  0.4806  1.2428
  147DG      H5 3363   3.591   4.611   1.871  0.4094 -0.0838 -1.9932
  147DG      H6 3364   3.096   4.941   2.422  0.6883  0.0645 -0.6615
  147DG      H7 3365   3.182   4.846   2.547 -0.3041  1.3161  0.5707
  147DG      H8 3366   3.253   4.987   2.457 -2.6677  2.8331  0.5124
  147DG      O9 3367   3.658   4.524   2.053 -0.2509 -0.0212  0.3557
  147DG     O10 3368   3.248   4.816   2.349 -0.5036 -0.1515 -0.0445
  147DG     C11 3369   3.552   4.439   2.089 -0.5206 -1.1571 -0.6928
  147DG     C12 3370   3.365   4.746   2.380 -0.4894  0.0625  0.2863
  147DG     H13 3371   3.577   4.335   2.069 -0.2284 -0.7490 -2.6626
  147DG     H14 3372   3.458   4.464   2.039  0.2233 -0.9923 -2.0717
  147DG     H15 3373   3.358   4.704   2.480 -2.7979  2.0624  1.0636
  147DG     H16 3374   3.457   4.803   2.368  2.0827 -3.0815  3.1270
  147DG     C17 3375   3.527   4.453   2.239  0.0775  0.3765 -0.3636
  147DG     C18 3376   3.389   4.638   2.282  0.1648  0.4241  0.5418
  147DG     O19 3377   3.508   4.573   2.308  0.5374 -0.1478 -0.3683
  147DG     H20 3378   3.614   4.413   2.291 -1.1133 -1.4289  0.3128
  147DG     H21 3379   3.448   4.386   2.274  1.0654 -0.2680  0.7046
  147DG     H22 3380   3.303   4.571   2.290  1.3559 -1.1998  0.3839
  147DG     H23 3381   3.395   4.668   2.177 -1.7712 -1.0433 -0.0452
  148DG      C1 3382   1.390   0.674   1.088 -0.0820 -0.3795  0.0177
  148DG      C2 3383   1.477   0.840   1.725  0.4857  0.5512 -0.3010
  148DG      H3 3384   1.429   0.583   1.042  1.1766 -0.8895  1.9662
  148DG      H4 3385   1.461   0.757   1.083  1.4640 -1.7095 -1.5002
  148DG      H5 3386   1.294   0.712   1.054 -0.5092 -0.0783  1.4626
  148DG      H6 3387   1.539   0.804   1.807 -0.9818 -0.5453  0.3570
  148DG      H7 3388   1.547   0.823   1.642  0.4920  0.3234 -0.2502
  148DG      H8 3389   1.455   0.945   1.741 -0.0359  0.5345 -0.8512
  148DG      O9 3390   1.377   0.652   1.232  0.6948 -0.3680 -0.0487
  148DG     O10 3391   1.358   0.772   1.712  0.1903  0.1292 -0.5104
  148DG     C11 3392   1.292   0.540   1.254  0.6555 -0.0901 -0.1292
  148DG     C12 3393   1.377   0.627   1.727  0.1533 -0.8293  0.0533
  148DG     H13 3394   1.298   0.469   1.172 -0.2622 -0.5079  0.1559
  148DG     H14 3395   1.193   0.584   1.241  0.0050 -1.4144  0.1738
  148DG     H15 3396   1.373   0.589   1.830 -0.5464 -1.0844 -0.0611
  148DG     H16 3397   1.472   0.592   1.688  0.3195  0.8399 -1.1463
  148DG     C17 3398   1.308   0.481   1.394  0.0857  0.2293  0.4845
  148DG     C18 3399   1.290   0.553   1.627 -0.0054 -0.2964 -0.9324
  148DG     O19 3400   1.334   0.581   1.490  0.0948  0.2571 -0.0142
  148DG     H20 3401   1.386   0.404   1.401  0.1668  0.1634 -0.9432
  148DG     H21 3402   1.219   0.425   1.424  0.2351 -0.0909  0.3405
  148DG     H22 3403   1.308   0.446   1.639  1.8729  0.2131  1.4361
  148DG     H23 3404   1.184   0.574   1.639  0.4328  1.6986 -0.2222
  149DG      C1 3405   0.825   3.586   5.024 -0.2267 -0.1946  0.0938
  149DG      C2 3406   1.249   3.104   4.586 -0.7139 -0.4797  0.4946
  149DG      H3 3407   0.784   3.517   5.098 -0.5426 -1.1442 -0.9315
  149DG      H4 3408   0.754   3.664   4.994  1.8644  1.8466  0.1668
  149DG      H5 3409   0.904   3.638   5.078 -0.2377  0.7661 -0.7777
  149DG      H6 3410   1.225   3.061   4.488 -2.6195  2.7051 -0.6054
  149DG      H7 3411   1.356   3.112   4.604 -0.9897  0.3467  1.8445
  149DG      H8 3412   1.208   3.031   4.657 -1.5142 -1.3303 -0.7797
  149DG      O9 3413   0.861   3.521   4.903 -0.1784  0.2688 -0.1485
  149DG     O10 3414   1.181   3.223   4.605 -0.8478  0.0119 -0.2257
  149DG     C11 3415   0.938   3.602   4.819 -0.2057 -0.0494  0.7570
  149DG     C12 3416   1.175   3.260   4.742  0.1506  0.3756  0.1835
  149DG     H13 3417   1.035   3.625   4.862 -0.5622  2.1645  0.5236
  149DG     H14 3418   0.893   3.702   4.815 -0.7973 -0.3289 -2.7259
  149DG     H15 3419   1.266   3.237   4.797  1.8779  0.4546 -2.4960
  149DG     H16 3420   1.094   3.206   4.792  1.1585 -0.8450  0.5685
  149DG     C17 3421   0.954   3.548   4.674  0.3997 -0.0049  0.4492
  149DG     C18 3422   1.133   3.405   4.735 -0.3654 -0.1768  0.5990
  149DG     O19 3423   1.004   3.414   4.674  0.1056 -0.1397 -0.3625
  149DG     H20 3424   1.019   3.615   4.618 -1.4069  0.8306 -0.7341
  149DG     H21 3425   0.860   3.533   4.622  0.3014 -1.8877  1.1014
  149DG     H22 3426   1.137   3.431   4.840 -1.3650 -0.6859  0.7739
  149DG     H23 3427   1.208   3.467   4.686  0.7161  0.7472  3.2388
  150DG      C1 3428   5.033   0.879   2.813  0.7097 -0.3849  0.4443
  150DG      C2 3429   5.489   0.773   2.393 -0.0757  0.7837  0.0859
  150DG      H3 3430   4.956   0.925   2.875 -1.3119 -0.7263 -1.6718
  150DG      H4 3431   5.111   0.944   2.774 -1.5385  1.3269 -1.4952
  150DG      H5 3432   5.087   0.809   2.877 -0.2233 -0.3854  1.2445
  150DG      H6 3433   5.522   0.725   2.300 -1.5521  2.6024 -1.4579
  150DG      H7 3434   5.567   0.847   2.411  0.7594 -0.3783  1.4786
  150DG      H8 3435   5.492   0.707   2.479  2.3827  3.2530  2.1056
  150DG      O9 3436   4.964   0.818   2.704 -0.1473 -0.4976 -0.1112
  150DG     O10 3437   5.366   0.848   2.377  0.2245 -0.3330  0.8737
  150DG     C11 3438   4.916   0.917   2.617 -0.1561 -0.2223  0.1589
  150DG     C12 3439   5.265   0.764   2.328  0.0564 -0.1787 -0.6708
  150DG     H13 3440   4.956   1.014   2.647  1.8122 -1.2637  1.0641
  150DG     H14 3441   4.809   0.930   2.637 -0.3865 -0.7615 -0.6375
  150DG     H15 3442   5.255   0.687   2.405 -0.6905  1.0225  0.4682
  150DG     H16 3443   5.294   0.716   2.235 -1.4802 -0.1296 -1.2047
  150DG     C17 3444   4.959   0.899   2.464  0.3800 -0.4820 -0.2298
  150DG     C18 3445   5.133   0.840   2.311 -0.4209 -0.3159 -0.2782
  150DG     O19 3446   5.091   0.869   2.446 -0.7275  0.9130 -1.0764
  150DG     H20 3447   4.911   0.980   2.409 -3.4805 -0.5043  2.6833
  150DG     H21 3448   4.895   0.816   2.434 -2.0681  1.1318  0.2328
  150DG     H22 3449   5.146   0.933   2.257  1.2246 -0.1197  0.3993
  150DG     H23 3450   5.066   0.775   2.255 -0.0378 -0.8833 -0.0863
  151DG      C1 3451   0.734   5.218   3.596 -0.3625  0.1610  0.5458
  151DG      C2 3452   0.449   4.851   4.227 -0.3110 -0.1159  0.1038
  151DG      H3 3453   0.732   5.150   3.511  1.7762  0.1657  0.4337
  151DG      H4 3454   0.822   5.182   3.648  0.0308 -0.6169 -0.6192
  151DG      H5 3455   0.757   5.319   3.563  1.9847 -0.4621  0.0692
  151DG      H6 3456   0.361   4.827   4.286 -0.5547 -0.5192 -0.4176
  151DG      H7 3457   0.447   4.778   4.146  0.0153 -3.9683  3.2621
  151DG      H8 3458   0.532   4.823   4.292 -1.1681 -1.2385  0.7578
  151DG      O9 3459   0.622   5.207   3.685 -0.3201 -0.0514 -0.2887
  151DG     O10 3460   0.462   4.986   4.187 -0.0459 -0.1873 -0.5236
  151DG     C11 3461   0.637   5.291   3.804  0.7300  0.3969  0.3118
  151DG     C12 3462   0.351   5.038   4.104 -0.7693  0.0369 -0.1909
  151DG     H13 3463   0.657   5.392   3.770  1.4052 -0.3378 -1.5988
  151DG     H14 3464   0.717   5.266   3.873  0.2548 -2.3691 -0.0143
  151DG     H15 3465   0.252   5.028   4.150 -0.1296 -2.5871  0.8123
  151DG     H16 3466   0.342   4.985   4.010  2.8431 -2.4603  0.6330
  151DG     C17 3467   0.504   5.284   3.885 -0.8499 -0.0527 -0.0761
  151DG     C18 3468   0.375   5.177   4.053 -0.3743 -0.6595 -0.3647
  151DG     O19 3469   0.482   5.165   3.962 -0.1480 -0.4612 -0.1470
  151DG     H20 3470   0.414   5.295   3.824  0.1191  3.0818 -1.1614
  151DG     H21 3471   0.510   5.364   3.959 -2.4606  0.9243 -0.9286
  151DG     H22 3472   0.290   5.223   4.002  0.1316  1.3323  0.4720
  151DG     H23 3473   0.398   5.247   4.133  0.5824 -0.4455 -0.8154
  152DG      C1 3474   0.614   4.171   0.284  0.3785  0.3932  0.3265
  152DG      C2 3475   1.055   3.669   0.022  0.3441  0.5722 -0.4303
  152DG      H3 3476   0.672   4.247   0.337  3.1879 -0.8813 -0.7133
  152DG      H4 3477   0.587   4.095   0.358 -0.9341 -0.4139 -0.9116
  152DG      H5 3478   0.524   4.203   0.232  0.1194 -0.7281  0.0577
  152DG      H6 3479   1.158   3.665   0.058  0.1349  2.3743  0.4814
  152DG      H7 3480   0.998   3.597   0.081  0.8592  1.4339  1.2157
  152DG      H8 3481   1.050   3.621  -0.075 -1.7751  1.3760 -0.7532
  152DG      O9 3482   0.698   4.119   0.188 -0.6252  0.0269  0.6455
  152DG     O10 3483   0.996   3.802   0.018  0.4570 -0.1809  0.1548
  152DG     C11 3484   0.745   4.214   0.090 -0.9377  0.0041 -0.1403
  152DG     C12 3485   1.043   3.878  -0.085 -0.2410 -0.4304  0.1146
  152DG     H13 3486   0.822   4.279   0.133 -2.6472  1.9504  0.1068
  152DG     H14 3487   0.670   4.288   0.062  0.1946  1.8813  1.5639
  152DG     H15 3488   1.071   3.816  -0.170  1.6623 -0.3565  0.6313
  152DG     H16 3489   1.141   3.920  -0.059 -0.3445 -0.6040  0.7879
  152DG     C17 3490   0.793   4.141  -0.034 -0.1736 -0.1708 -0.1537
  152DG     C18 3491   0.946   3.994  -0.123  0.0856 -0.6687  0.8604
  152DG     O19 3492   0.903   4.055  -0.001 -0.8295 -0.3181  0.1288
  152DG     H20 3493   0.812   4.211  -0.114 -0.4185 -0.7817 -0.7616
  152DG     H21 3494   0.711   4.080  -0.073 -2.7050  3.7225 -1.5218
  152DG     H22 3495   0.990   4.077  -0.177 -0.5640 -0.2813  0.9171
  152DG     H23 3496   0.871   3.952  -0.191  1.4771 -0.2609 -0.9954
  153DG      C1 3497   4.677   1.044   4.285  0.2891  0.7326 -0.2998
  153DG      C2 3498   4.764   1.050   3.663  0.1006 -0.0026  0.2362
  153DG      H3 3499   4.730   0.951   4.260  0.4697  0.7950 -0.1513
  153DG      H4 3500   4.581   1.014   4.242  0.4931  0.5895 -0.6612
  153DG      H5 3501   4.681   1.052   4.393 -0.8936 -0.1254 -0.1778
  153DG      H6 3502   4.842   0.982   3.699 -1.8912 -1.4581  2.0478
  153DG      H7 3503   4.717   1.000   3.578  0.0533 -2.3232  1.5381
  153DG      H8 3504   4.816   1.141   3.634  1.0176 -0.2798  0.9611
  153DG      O9 3505   4.742   1.152   4.218 -0.3404 -0.1439  0.2846
  153DG     O10 3506   4.680   1.063   3.772  0.0198 -0.1218  0.2236
  153DG     C11 3507   4.664   1.271   4.234 -0.1831 -0.1566  0.4576
  153DG     C12 3508   4.584   1.170   3.763 -0.0500 -0.2036  0.8635
  153DG     H13 3509   4.728   1.354   4.205  0.0257 -0.4649  0.0264
  153DG     H14 3510   4.625   1.287   4.335  0.7802 -2.1604  1.2074
  153DG     H15 3511   4.508   1.136   3.692 -0.2318 -0.0937  1.0024
  153DG     H16 3512   4.639   1.260   3.737 -1.5470  0.7500  0.8873
  153DG     C17 3513   4.550   1.263   4.130  0.1000  0.0402  0.1438
  153DG     C18 3514   4.515   1.196   3.899  0.0874 -0.5638 -0.8179
  153DG     O19 3515   4.610   1.229   4.003 -0.0298 -0.5911  0.2925
  153DG     H20 3516   4.497   1.358   4.126  1.5025  0.8040 -0.9234
  153DG     H21 3517   4.476   1.191   4.167 -1.9662  1.3634 -1.2213
  153DG     H22 3518   4.454   1.282   3.870 -0.6882 -1.7750 -2.9931
  153DG     H23 3519   4.447   1.121   3.941 -0.4144  0.6027  0.5458
  154DG      C1 3520   2.308   4.881   3.285  0.0733  0.3388 -0.4061
  154DG      C2 3521   2.461   4.029   3.130  0.0176  0.2102  0.6891
  154DG      H3 3522   2.334   4.864   3.389 -0.6429  1.7022  0.0187
  154DG      H4 3523   2.200   4.891   3.280  0.0689 -0.1254 -1.6453
  154DG      H5 3524   2.364   4.967   3.247  1.9262 -1.0022 -0.8864
  154DG      H6 3525   2.432   4.074   3.036 -0.1886  1.7909  1.4807
  154DG      H7 3526   2.565   3.999   3.144 -0.5127 -2.1810 -0.0229
  154DG      H8 3527   2.403   3.937   3.140 -1.9860  1.2921 -0.3776
  154DG      O9 3528   2.362   4.776   3.218  0.4438  0.3006 -0.1845
  154DG     O10 3529   2.425   4.117   3.236 -0.6443  0.5249  0.4348
  154DG     C11 3530   2.297   4.650   3.249  0.7887 -0.2102 -0.1281
  154DG     C12 3531   2.511   4.230   3.234  0.3500 -0.4125  0.0336
  154DG     H13 3532   2.285   4.603   3.151 -1.4105 -0.8563  0.3992
  154DG     H14 3533   2.200   4.660   3.296  0.6135 -1.1615 -0.2780
  154DG     H15 3534   2.506   4.279   3.137 -1.3112  0.7265  0.6417
  154DG     H16 3535   2.616   4.203   3.246  1.0555  1.9531 -0.2408
  154DG     C17 3536   2.387   4.559   3.329 -0.5944  0.6268 -0.0359
  154DG     C18 3537   2.467   4.334   3.335  0.3226  0.0723 -0.9905
  154DG     O19 3538   2.379   4.429   3.271 -0.4673 -0.0101 -0.0667
  154DG     H20 3539   2.361   4.559   3.435  0.7605  0.3418  0.3127
  154DG     H21 3540   2.491   4.583   3.309 -0.4446 -1.2039 -1.7369
  154DG     H22 3541   2.424   4.290   3.425  0.5667  0.6408 -0.5919
  154DG     H23 3542   2.559   4.385   3.365 -0.7601  0.5954  1.7252
  155DG      C1 3543   4.751   0.018   3.976  0.4070  0.7190 -0.0055
  155DG      C2 3544   4.782  -0.249   3.363  0.0898  0.2884  0.1356
  155DG      H3 3545   4.648  -0.014   3.989  0.4259  0.8130  0.3841
  155DG      H4 3546   4.762   0.102   4.045 -2.4729 -0.2275  1.7750
  155DG      H5 3547   4.826  -0.059   3.998  1.0430  1.7393  1.5283
  155DG      H6 3548   4.824  -0.237   3.263  1.5630 -0.8587  0.5894
  155DG      H7 3549   4.854  -0.309   3.419  0.5174  0.4227 -0.2618
  155DG      H8 3550   4.689  -0.306   3.361 -0.0448  0.4656  1.2339
  155DG      O9 3551   4.773   0.058   3.838 -0.5570 -0.4146  0.1640
  155DG     O10 3552   4.775  -0.136   3.433  1.2069  0.0534  0.1604
  155DG     C11 3553   4.704   0.178   3.804  0.2625 -0.2425  0.3047
  155DG     C12 3554   4.710  -0.029   3.370 -0.4783 -0.3469 -0.0946
  155DG     H13 3555   4.737   0.265   3.861 -1.2131  0.4411  0.1744
  155DG     H14 3556   4.600   0.156   3.826  0.5969 -1.8852  0.3881
  155DG     H15 3557   4.602  -0.044   3.368 -0.5270 -0.0579  0.2473
  155DG     H16 3558   4.751  -0.016   3.270 -0.4760 -0.2899 -0.0858
  155DG     C17 3559   4.739   0.198   3.655  0.6058  0.5741 -0.2620
  155DG     C18 3560   4.747   0.103   3.444 -0.6363 -0.1060  0.3028
  155DG     O19 3561   4.692   0.094   3.574 -0.1696 -0.4849 -0.2647
  155DG     H20 3562   4.848   0.205   3.650  0.5767  0.4048 -1.9514
  155DG     H21 3563   4.689   0.289   3.619  0.8793  1.0092  0.4372
  155DG     H22 3564   4.854   0.116   3.458 -0.4397 -1.4369  0.1325
  155DG     H23 3565   4.711   0.190   3.389 -0.6908 -1.3485 -1.7305
  156DG      C1 3566   4.372   2.494   1.243 -0.0013 -0.7183 -0.3467
  156DG      C2 3567   4.997   2.414   1.563 -0.0041  0.0431  0.1682
  156DG      H3 3568   4.267   2.466   1.253  0.0114 -1.3198 -1.7052
  156DG      H4 3569   4.426   2.421   1.184  0.2925 -1.0061  0.2677
  156DG      H5 3570   4.383   2.583   1.182  0.5500 -0.8943 -0.5045
  156DG      H6 3571   5.008   2.337   1.487  0.9959 -0.4031  0.7322
  156DG      H7 3572   5.053   2.503   1.532 -1.0871  0.1487 -1.5983
  156DG      H8 3573   5.039   2.382   1.659  2.5655  2.7887  0.1182
  156DG      O9 3574   4.418   2.511   1.382  0.0258 -0.1255  0.1433
  156DG     O10 3575   4.856   2.428   1.577  0.3793 -0.0611  0.3680
  156DG     C11 3576   4.384   2.417   1.482  0.0405  0.4757  0.5543
  156DG     C12 3577   4.807   2.490   1.694 -0.0232 -0.0155 -0.7433
  156DG     H13 3578   4.417   2.317   1.453 -0.9202  0.5149 -0.7673
  156DG     H14 3579   4.277   2.408   1.501 -0.0588  1.2485  0.3810
  156DG     H15 3580   4.820   2.599   1.694 -1.1523  0.1295 -0.6457
  156DG     H16 3581   4.845   2.455   1.790  0.8388 -0.9678 -1.4176
  156DG     C17 3582   4.448   2.459   1.613 -0.1685 -0.0524  0.0315
  156DG     C18 3583   4.664   2.447   1.712 -0.4197 -0.1842  0.2470
  156DG     O19 3584   4.589   2.451   1.595  0.5895  0.1620  0.0680
  156DG     H20 3585   4.410   2.381   1.678  0.3597 -0.6816 -0.4032
  156DG     H21 3586   4.417   2.558   1.648  0.8138  0.4079 -0.3417
  156DG     H22 3587   4.671   2.346   1.752  1.5498  0.3299  1.3466
  156DG     H23 3588   4.623   2.516   1.786  0.9815 -0.0517  0.9308
  157DG      C1 3589   1.249   4.712   5.066  0.6017 -0.2496 -0.1513
  157DG      C2 3590   0.761   4.705   4.475  0.4771  0.5245 -0.5008
  157DG      H3 3591   1.297   4.663   5.151 -0.7301 -1.7700 -0.2172
  157DG      H4 3592   1.169   4.768   5.115 -0.2587 -2.4119  1.1102
  157DG      H5 3593   1.321   4.778   5.018 -0.6135  0.5300 -0.9462
  157DG      H6 3594   0.679   4.761   4.519  0.9025 -0.6140  1.9396
  157DG      H7 3595   0.818   4.760   4.400  0.4388  1.8961  0.4398
  157DG      H8 3596   0.711   4.615   4.441 -2.3690  2.7092 -2.5774
  157DG      O9 3597   1.197   4.626   4.968 -0.5398  0.0798 -0.0812
  157DG     O10 3598   0.836   4.667   4.593 -0.3664  0.2236  0.2269
  157DG     C11 3599   1.090   4.550   5.026  0.5107 -0.6271  0.7036
  157DG     C12 3600   0.951   4.582   4.574  1.0208 -0.1028  1.5168
  157DG     H13 3601   1.015   4.613   5.073  0.4043 -0.9974  1.0281
  157DG     H14 3602   1.140   4.489   5.101  1.3674  0.0615  0.7083
  157DG     H15 3603   1.013   4.612   4.489  0.7119  0.0866  1.3575
  157DG     H16 3604   0.917   4.485   4.538  2.8361  0.3018 -1.6799
  157DG     C17 3605   1.031   4.460   4.918  0.2542  0.9263  0.0133
  157DG     C18 3606   1.025   4.573   4.710 -0.0143  0.0006 -0.7723
  157DG     O19 3607   0.950   4.520   4.820  0.2372 -0.3558  0.3685
  157DG     H20 3608   0.962   4.391   4.968  1.8630 -1.4762 -0.8972
  157DG     H21 3609   1.100   4.388   4.874 -0.5807 -0.7753  1.3818
  157DG     H22 3610   1.120   4.521   4.690 -0.6822 -0.8980 -1.7466
  157DG     H23 3611   1.059   4.670   4.747  0.2643 -0.9707  1.7233
  158DG      C1 3612   2.591   0.174   2.610  0.9133  0.6163 -0.3471
  158DG      C2 3613   3.257   0.526   2.545 -0.0560 -0.6615 -0.0468
  158DG      H3 3614   2.577   0.249   2.688 -0.9356  0.9388 -0.9157
  158DG      H4 3615   2.615   0.076   2.651 -0.1380 -0.1610 -1.4962
  158DG      H5 3616   2.495   0.168   2.559  0.4953 -3.7613  0.5284
  158DG      H6 3617   3.325   0.448   2.580 -0.3732 -0.9568 -0.0861
  158DG      H7 3618   3.321   0.579   2.474  1.8050 -2.6063  0.0708
  158DG      H8 3619   3.214   0.582   2.627  1.4227 -1.0240  1.0119
  158DG      O9 3620   2.700   0.209   2.519  0.6827  0.2174  0.1490
  158DG     O10 3621   3.145   0.465   2.480 -0.5248  0.3423 -0.1009
  158DG     C11 3622   2.655   0.298   2.418  0.0651  0.1787  0.4744
  158DG     C12 3623   3.061   0.559   2.409 -0.2036  0.1285  0.7430
  158DG     H13 3624   2.609   0.386   2.463  0.6391  0.9458 -0.4059
  158DG     H14 3625   2.579   0.244   2.360  1.2150 -0.4148 -0.5200
  158DG     H15 3626   3.123   0.629   2.352 -1.8624  1.0916  0.0589
  158DG     H16 3627   3.000   0.616   2.479  0.1713 -1.7229  2.6661
  158DG     C17 3628   2.767   0.359   2.329 -0.0727 -0.2320  0.7475
  158DG     C18 3629   2.965   0.475   2.334  0.0162  0.3674  0.3354
  158DG     O19 3630   2.864   0.419   2.414  0.2011  0.4852  0.1282
  158DG     H20 3631   2.719   0.435   2.268  1.0510 -0.5682 -0.6210
  158DG     H21 3632   2.811   0.284   2.264  1.0910  0.9244  0.1601
  158DG     H22 3633   2.923   0.527   2.248  1.9253 -0.1850 -1.0030
  158DG     H23 3634   3.015   0.392   2.285 -1.2555 -0.1590 -0.1253
  159DG      C1 3635   3.324   3.301   2.661 -0.3908 -0.2571  0.4213
  159DG      C2 3636   2.683   3.003   2.612 -0.6454 -0.0645 -0.0791
  159DG      H3 3637   3.250   3.377   2.634  0.1749  0.6065  1.2318
  159DG      H4 3638   3.381   3.264   2.576 -0.8903  0.9824 -0.4793
  159DG      H5 3639   3.405   3.341   2.722 -1.4050 -0.2653  1.8282
  159DG      H6 3640   2.587   3.041   2.578  0.6272  2.5725 -0.9949
  159DG      H7 3641   2.738   3.025   2.520 -1.5111  1.2905 -0.2928
  159DG      H8 3642   2.685   2.894   2.617  2.8667 -0.1515 -0.3715
  159DG      O9 3643   3.259   3.201   2.740 -0.7073 -0.1531  0.2491
  159DG     O10 3644   2.729   3.066   2.731  0.0879  0.1860 -0.3926
  159DG     C11 3645   3.206   3.230   2.863  0.3167 -0.0357 -0.1269
  159DG     C12 3646   2.839   2.987   2.784  0.6174 -0.5256  0.8328
  159DG     H13 3647   3.119   3.295   2.850 -1.6790 -2.5241  0.0176
  159DG     H14 3648   3.278   3.293   2.915 -0.9667  2.3999 -1.1236
  159DG     H15 3649   2.910   2.966   2.705  1.6597  0.1720  1.5545
  159DG     H16 3650   2.813   2.891   2.828 -2.1318 -1.3542 -2.2229
  159DG     C17 3651   3.157   3.105   2.948 -0.0694 -0.0311  0.5592
  159DG     C18 3652   2.922   3.070   2.888 -0.0307  0.0941 -0.6380
  159DG     O19 3653   3.056   3.032   2.872  0.4578 -0.4993 -0.3019
  159DG     H20 3654   3.120   3.144   3.043  0.0913  1.7883 -0.0721
  159DG     H21 3655   3.244   3.039   2.953 -0.3251 -0.4754 -0.5802
  159DG     H22 3656   2.892   3.172   2.861  1.5685  0.1221 -2.5488
  159DG     H23 3657   2.897   3.045   2.991  1.0039 -0.3694 -0.4857
  160DG      C1 3658   0.818   0.287   1.527  0.3174 -0.7613 -0.4954
  160DG      C2 3659   0.289  -0.264   1.119  0.4676  0.7650 -0.3968
  160DG      H3 3660   0.807   0.227   1.618  1.0895 -1.6099 -0.9421
  160DG      H4 3661   0.793   0.390   1.550 -0.6505 -0.9882 -0.4995
  160DG      H5 3662   0.926   0.296   1.510  0.3489  0.1884  0.1435
  160DG      H6 3663   0.220  -0.261   1.203  0.6198  1.6611 -0.2888
  160DG      H7 3664   0.225  -0.296   1.038 -1.1211 -0.2364  1.2018
  160DG      H8 3665   0.360  -0.346   1.129 -0.0365  0.2372 -1.0985
  160DG      O9 3666   0.740   0.219   1.431 -0.4150  0.2875  0.0199
  160DG     O10 3667   0.352  -0.137   1.103  0.2759  0.1678  1.0690
  160DG     C11 3668   0.783   0.244   1.302 -0.6856 -0.5989  0.3744
  160DG     C12 3669   0.451  -0.099   1.198 -0.3617 -0.1289 -0.5510
  160DG     H13 3670   0.879   0.194   1.288 -0.6535 -0.2202 -0.9747
  160DG     H14 3671   0.799   0.350   1.284 -0.3118 -0.6875  0.1848
  160DG     H15 3672   0.530  -0.174   1.196 -0.5286 -0.2998 -1.3598
  160DG     H16 3673   0.409  -0.092   1.298 -2.9138 -0.4494 -1.5314
  160DG     C17 3674   0.683   0.195   1.201  0.4193  0.5782  0.3238
  160DG     C18 3675   0.514   0.037   1.151  0.2816 -0.3263 -0.3359
  160DG     O19 3676   0.638   0.060   1.220  0.5521  0.5650  0.4509
  160DG     H20 3677   0.735   0.198   1.105 -1.6306 -0.7656 -0.8880
  160DG     H21 3678   0.594   0.257   1.190  0.0743  0.1509  0.6561
  160DG     H22 3679   0.540   0.023   1.046  1.5521  0.5850 -0.1646
  160DG     H23 3680   0.434   0.110   1.147  0.5274 -0.0830 -3.1171
  161DG      C1 3681   3.746   2.886   0.204 -0.4866  0.3400  1.0469
  161DG      C2 3682   4.446   2.932   0.568 -0.3989 -0.1958 -0.0271
  161DG      H3 3683   3.761   2.781   0.177  0.3941  0.5321  0.7271
  161DG      H4 3684   3.648   2.917   0.168 -0.5218 -0.0702  0.7803
  161DG      H5 3685   3.747   2.895   0.312 -0.0779  0.8291  1.0090
  161DG      H6 3686   4.512   3.007   0.612  0.6532 -0.8061 -0.5114
  161DG      H7 3687   4.453   2.837   0.622  3.1829 -0.1845 -0.2109
  161DG      H8 3688   4.476   2.926   0.463  0.2853  0.6920  0.1025
  161DG      O9 3689   3.843   2.966   0.135  0.0055  0.2821  0.1960
  161DG     O10 3690   4.314   2.955   0.584  0.7829 -0.1194  0.0917
  161DG     C11 3691   3.975   2.973   0.192 -0.0079 -0.1060  0.1278
  161DG     C12 3692   4.284   3.090   0.548  0.4619 -0.3370  0.0306
  161DG     H13 3693   4.044   3.005   0.115 -0.5869  0.8851  0.0079
  161DG     H14 3694   3.997   2.869   0.218 -1.4388 -0.0039  2.0120
  161DG     H15 3695   4.335   3.129   0.460 -0.1421  0.9453  0.2195
  161DG     H16 3696   4.306   3.153   0.633  0.6071 -0.8522  0.3788
  161DG     C17 3697   3.988   3.054   0.321  0.1141  0.8267 -0.7688
  161DG     C18 3698   4.124   3.082   0.511 -0.4769 -0.1984  0.4417
  161DG     O19 3699   4.112   3.016   0.383 -0.5758  0.3903  0.4455
  161DG     H20 3700   3.898   3.040   0.382 -0.1769  1.8753 -0.9393
  161DG     H21 3701   3.987   3.161   0.301  2.2267  1.0342  0.0397
  161DG     H22 3702   4.065   3.026   0.584  0.2133 -1.9732 -0.3059
  161DG     H23 3703   4.087   3.184   0.507  1.4367  0.5017 -0.1289
  162DG      C1 3704   2.764   0.830   0.090 -0.4820 -0.7934  0.3088
  162DG      C2 3705   3.336   0.924   0.537  0.0164  0.8194  0.2626
  162DG      H3 3706   2.663   0.789   0.084 -0.4831 -0.6617 -0.7634
  162DG      H4 3707   2.829   0.780   0.162  0.3407 -1.8347 -1.0901
  162DG      H5 3708   2.804   0.826  -0.011 -1.1944  4.0726 -0.3912
  162DG      H6 3709   3.401   0.880   0.613  1.8800  1.3854 -0.9282
  162DG      H7 3710   3.368   0.870   0.448  2.4584  1.9783  0.3604
  162DG      H8 3711   3.384   1.021   0.523  1.9298 -0.0774  0.1945
  162DG      O9 3712   2.763   0.971   0.104 -0.0687  0.0026 -0.2252
  162DG     O10 3713   3.193   0.931   0.555 -1.1822 -0.2288  0.3443
  162DG     C11 3714   2.701   1.018   0.225  0.6678 -0.4171 -0.9122
  162DG     C12 3715   3.119   0.983   0.443 -0.8139 -0.3978  0.0768
  162DG     H13 3716   2.599   0.984   0.243 -0.0757  2.5294  1.2149
  162DG     H14 3717   2.696   1.127   0.232 -0.8481 -0.5613  1.8809
  162DG     H15 3718   3.149   0.929   0.353  0.9018 -2.6525  1.8866
  162DG     H16 3719   3.144   1.089   0.440 -0.4639 -0.5002 -1.3766
  162DG     C17 3720   2.773   0.969   0.359  0.6268  0.0934 -0.7784
  162DG     C18 3721   2.973   0.972   0.466 -0.3504 -0.5318  0.1994
  162DG     O19 3722   2.909   0.992   0.341 -0.2668 -0.0747 -0.2983
  162DG     H20 3723   2.767   0.863   0.383  1.4944  0.2888  0.3605
  162DG     H21 3724   2.738   1.034   0.439 -2.1567 -2.1241 -0.0117
  162DG     H22 3725   2.950   0.879   0.519 -0.1095 -0.9052 -0.3400
  162DG     H23 3726   2.945   1.047   0.540  0.4233 -0.7897  0.7805
  163DG      C1 3727   2.054  -0.024   1.614 -0.2820 -0.5363  0.0972
  163DG      C2 3728   1.718   0.456   1.249 -0.5236  0.1670 -0.2904
  163DG      H3 3729   2.151   0.022   1.632  0.5648 -1.8148 -1.0343
  163DG      H4 3730   2.056  -0.081   1.522  0.6425 -1.0590  0.4277
  163DG      H5 3731   2.040  -0.090   1.700  1.5436  1.5229  2.1039
  163DG      H6 3732   1.804   0.522   1.241 -0.6985  0.8014  2.1939
  163DG      H7 3733   1.733   0.383   1.170 -0.1015  1.9776 -1.9626
  163DG      H8 3734   1.638   0.523   1.218  2.3616  3.6801 -0.7293
  163DG      O9 3735   1.951   0.076   1.607  0.0740 -0.3080  0.0444
  163DG     O10 3736   1.705   0.393   1.375 -0.2272 -0.3990 -0.1484
  163DG     C11 3737   1.955   0.166   1.716  0.1124  0.0144  0.4478
  163DG     C12 3738   1.678   0.472   1.484 -0.7377  0.1016  0.3731
  163DG     H13 3739   2.044   0.229   1.715 -0.7949  1.3329  0.5204
  163DG     H14 3740   1.944   0.100   1.802  0.2511 -2.5251 -1.3953
  163DG     H15 3741   1.578   0.515   1.477 -1.0156 -0.6350 -0.4662
  163DG     H16 3742   1.759   0.545   1.486 -1.8328  1.3501  0.2405
  163DG     C17 3743   1.823   0.241   1.720 -0.4769  0.3340 -0.0397
  163DG     C18 3744   1.678   0.392   1.615 -0.4875 -0.0115 -1.1992
  163DG     O19 3745   1.802   0.324   1.604 -0.0549 -1.1993  0.7891
  163DG     H20 3746   1.813   0.304   1.809 -0.2217  1.3585 -0.7170
  163DG     H21 3747   1.748   0.164   1.739  1.7804 -1.7770  0.8662
  163DG     H22 3748   1.697   0.468   1.691  0.6384 -0.1226 -1.3528
  163DG     H23 3749   1.602   0.317   1.636  1.0938 -1.5108 -0.6925
  164DG      C1 3750   3.177   0.133   1.458 -0.2361 -0.2466 -0.2336
  164DG      C2 3751   3.564   0.662   1.269  0.4007  0.0444 -0.6445
  164DG      H3 3752   3.270   0.077   1.448  0.0221 -0.3435  2.2035
  164DG      H4 3753   3.101   0.089   1.394 -1.8709 -0.6127  1.8608
  164DG      H5 3754   3.145   0.118   1.561  2.3534  0.0538  0.6861
  164DG      H6 3755   3.581   0.639   1.164 -1.1156 -0.9309 -0.7054
  164DG      H7 3756   3.588   0.765   1.292 -1.4725  0.8577 -2.1118
  164DG      H8 3757   3.625   0.606   1.340  1.1318  3.0562  1.2918
  164DG      O9 3758   3.200   0.269   1.431  0.3264 -0.0065 -0.6422
  164DG     O10 3759   3.436   0.627   1.320  0.0204  1.1653 -0.3784
  164DG     C11 3760   3.073   0.338   1.441 -0.2165 -0.4948 -0.1670
  164DG     C12 3761   3.334   0.726   1.298 -0.7590  0.7203 -0.0617
  164DG     H13 3762   3.020   0.298   1.528  0.2262 -2.2198 -0.6564
  164DG     H14 3763   2.999   0.309   1.366 -0.6367 -0.3106  0.1743
  164DG     H15 3764   3.315   0.724   1.191 -0.5257  1.7778 -0.1360
  164DG     H16 3765   3.367   0.827   1.325  1.5761 -0.4458  1.7715
  164DG     C17 3766   3.081   0.488   1.447 -0.5017 -0.3535  1.0002
  164DG     C18 3767   3.213   0.676   1.374  0.1268  0.1588 -0.2678
  164DG     O19 3768   3.200   0.530   1.377 -0.0743 -0.1433 -0.2390
  164DG     H20 3769   3.068   0.525   1.549 -1.3541  1.7769  0.1873
  164DG     H21 3770   2.991   0.523   1.395  0.5106 -1.1081 -1.3861
  164DG     H22 3771   3.233   0.705   1.477  2.3493  2.0600 -1.1478
  164DG     H23 3772   3.125   0.734   1.347  0.0986  0.0590 -0.3906
  165DG      C1 3773   4.918   4.591   4.643 -1.1439  0.3932 -0.1330
  165DG      C2 3774   4.780   4.494   3.959 -0.3927  0.2091 -0.6846
  165DG      H3 3775   5.000   4.622   4.708 -1.0452  2.7003 -1.2705
  165DG      H4 3776   4.899   4.484   4.654 -1.3886  0.4748  0.2939
  165DG      H5 3777   4.819   4.636   4.655 -1.1000  1.0522 -2.0399
  165DG      H6 3778   4.685   4.455   3.994 -0.4559  1.9837  1.3412
  165DG      H7 3779   4.773   4.601   3.939  0.9561  0.5504  0.4959
  165DG      H8 3780   4.822   4.445   3.871 -0.1446 -1.2209  0.2114
  165DG      O9 3781   4.948   4.642   4.511  0.1225  0.0839 -0.1269
  165DG     O10 3782   4.858   4.481   4.077  0.2738  0.1482  0.1936
  165DG     C11 3783   5.074   4.600   4.452  0.3659  0.2228  0.1064
  165DG     C12 3784   4.906   4.350   4.081 -0.1307  0.2707 -0.0099
  165DG     H13 3785   5.146   4.592   4.532  0.0640 -0.6442  0.2987
  165DG     H14 3786   5.112   4.674   4.381  0.8118  0.0825  0.2022
  165DG     H15 3787   4.954   4.307   3.993  0.1598 -0.2696  0.4105
  165DG     H16 3788   4.822   4.291   4.118 -1.1769  1.1601 -0.9101
  165DG     C17 3789   5.083   4.463   4.393 -0.2461  0.0057  0.0693
  165DG     C18 3790   5.008   4.345   4.205  0.1130 -0.3535  0.6638
  165DG     O19 3791   5.000   4.462   4.280  0.7227  0.5162 -0.1541
  165DG     H20 3792   5.050   4.384   4.461 -1.0854  1.2146  1.1013
  165DG     H21 3793   5.188   4.438   4.376 -0.5008  0.3374 -2.3755
  165DG     H22 3794   4.986   4.258   4.267 -1.2874 -0.4285  0.1035
  165DG     H23 3795   5.111   4.337   4.169 -0.4139 -1.1093 -0.7446
  166DG      C1 3796   2.269   0.712   3.698  0.1699 -0.5976  0.4583
  166DG      C2 3797   2.840   1.211   3.614 -0.1790  0.7678  0.6563
  166DG      H3 3798   2.287   0.687   3.803  5.3044  2.5720  0.6849
  166DG      H4 3799   2.257   0.626   3.632  0.4550 -0.0296 -0.3426
  166DG      H5 3800   2.175   0.760   3.675  0.3430 -0.0975  0.7720
  166DG      H6 3801   2.875   1.118   3.569  1.0415  0.5517  1.9637
  166DG      H7 3802   2.827   1.274   3.526  1.0524  0.5057  0.2677
  166DG      H8 3803   2.913   1.253   3.684  0.5698 -1.1811  1.1059
  166DG      O9 3804   2.368   0.787   3.627  0.1109  0.6626 -0.4081
  166DG     O10 3805   2.708   1.184   3.675 -0.1999  0.0578  0.7885
  166DG     C11 3806   2.484   0.722   3.595  0.3168 -0.0313 -0.4179
  166DG     C12 3807   2.713   1.069   3.759 -0.3464  0.6253  0.0318
  166DG     H13 3808   2.464   0.635   3.533 -1.4041 -0.9687  1.3424
  166DG     H14 3809   2.536   0.685   3.684  0.5694  2.1320  0.3948
  166DG     H15 3810   2.624   1.077   3.821 -0.2573 -1.0819  0.4276
  166DG     H16 3811   2.803   1.070   3.821 -1.8131 -2.2621  2.4397
  166DG     C17 3812   2.583   0.809   3.519 -0.3282  0.9822  0.3288
  166DG     C18 3813   2.710   0.937   3.681  0.1396  0.8182 -0.2558
  166DG     O19 3814   2.606   0.936   3.589  0.3146 -0.3088 -0.1414
  166DG     H20 3815   2.551   0.836   3.418 -0.6677 -0.8261 -0.0828
  166DG     H21 3816   2.670   0.747   3.497 -1.1239 -0.1238  0.2200
  166DG     H22 3817   2.806   0.921   3.632 -1.1927 -0.0780 -2.7561
  166DG     H23 3818   2.699   0.852   3.749 -0.1436  1.6950  0.8108
  167DG      C1 3819   5.338   1.644   4.931  0.0318 -0.0794 -0.0110
  167DG      C2 3820   4.795   1.315   4.713 -0.3099  0.4306 -0.3359
  167DG      H3 3821   5.309   1.698   5.021  0.9779 -0.5267  0.5719
  167DG      H4 3822   5.426   1.703   4.907  0.9184 -1.4221 -0.1022
  167DG      H5 3823   5.357   1.540   4.956 -0.9227 -0.6531 -1.4956
  167DG      H6 3824   4.692   1.296   4.681 -0.6438  0.1830  0.8272
  167DG      H7 3825   4.867   1.235   4.701 -1.9313 -1.4012  1.3726
  167DG      H8 3826   4.782   1.327   4.821 -1.1862  0.5067 -0.4399
  167DG      O9 3827   5.244   1.671   4.820  0.1353 -0.0342 -0.4906
  167DG     O10 3828   4.843   1.439   4.659 -1.0574 -0.1946  0.0573
  167DG     C11 3829   5.299   1.634   4.695 -0.0824 -0.3326 -0.2897
  167DG     C12 3830   4.888   1.434   4.521  0.4940  0.3108 -0.0123
  167DG     H13 3831   5.321   1.528   4.701 -2.9601 -1.2209 -2.9989
  167DG     H14 3832   5.387   1.697   4.677 -0.8481  1.1335  0.8899
  167DG     H15 3833   4.806   1.439   4.449 -0.4649  3.7667  1.1370
  167DG     H16 3834   4.936   1.338   4.501  0.0365  0.7976 -4.4982
  167DG     C17 3835   5.206   1.643   4.573  0.1370 -0.4133 -0.2558
  167DG     C18 3836   5.003   1.538   4.499  0.3526  0.6613 -0.8347
  167DG     O19 3837   5.104   1.541   4.600  0.0144  0.0120  0.5569
  167DG     H20 3838   5.257   1.608   4.483 -1.6207 -0.5780 -1.2397
  167DG     H21 3839   5.165   1.739   4.543 -1.1937 -0.4090  1.4109
  167DG     H22 3840   5.057   1.509   4.409  1.6364  0.7109 -0.0981
  167DG     H23 3841   4.954   1.636   4.500 -0.3828  0.3392  1.4353
  168DG      C1 3842   2.515   2.900   1.018  0.1255 -0.0964 -0.1329
  168DG      C2 3843   3.047   2.941   0.680  0.5109  0.3938 -0.0157
  168DG      H3 3844   2.464   2.835   0.948  0.3895  0.2114 -0.6132
  168DG      H4 3845   2.439   2.930   1.090 -0.7094  0.0879 -1.0740
  168DG      H5 3846   2.583   2.827   1.062  1.8821  0.8499 -1.1655
  168DG      H6 3847   3.028   2.862   0.608 -0.4864  1.2608 -0.7237
  168DG      H7 3848   3.131   3.003   0.648  1.7659 -0.7302  0.9585
  168DG      H8 3849   3.081   2.896   0.773 -1.1441 -0.5553  0.1694
  168DG      O9 3850   2.575   3.015   0.952  0.4046 -0.0069  0.2650
  168DG     O10 3851   2.929   3.014   0.709 -0.5713 -0.4794  0.1780
  168DG     C11 3852   2.492   3.072   0.850  0.1212  0.1551 -0.3714
  168DG     C12 3853   2.887   3.080   0.593 -0.1701 -0.3781 -0.4127
  168DG     H13 3854   2.408   3.120   0.900 -0.5697  0.0055 -1.3706
  168DG     H14 3855   2.457   2.994   0.783 -0.4050 -0.4944  0.6404
  168DG     H15 3856   2.848   2.999   0.532 -1.6229  0.7933 -1.0813
  168DG     H16 3857   2.971   3.128   0.544 -0.5293  1.0515  0.3049
  168DG     C17 3858   2.582   3.164   0.773 -0.4518 -0.2609  0.3584
  168DG     C18 3859   2.767   3.169   0.639  0.4489  0.2200  0.0619
  168DG     O19 3860   2.684   3.089   0.720 -0.0055  0.5338 -0.0998
  168DG     H20 3861   2.611   3.247   0.837 -1.7169 -0.3172  1.0431
  168DG     H21 3862   2.531   3.216   0.693  1.6577 -0.2876 -1.0916
  168DG     H22 3863   2.806   3.258   0.689  3.3877 -0.4990 -0.7464
  168DG     H23 3864   2.703   3.198   0.556 -1.1751 -4.7664 -0.7714
  169DG      C1 3865  -0.119   1.449   2.164 -0.2025 -0.0665  0.0240
  169DG      C2 3866   0.586   1.655   1.749 -0.1703 -0.1762 -0.0500
  169DG      H3 3867  -0.062   1.395   2.240  1.6317 -0.8782 -1.8180
  169DG      H4 3868  -0.215   1.398   2.158  1.4933 -3.4371 -0.7841
  169DG      H5 3869  -0.124   1.547   2.211  0.8152  0.2775 -0.5462
  169DG      H6 3870   0.645   1.573   1.789  0.2014 -0.7763 -1.7463
  169DG      H7 3871   0.639   1.664   1.654 -0.4684 -0.2128 -0.2217
  169DG      H8 3872   0.586   1.746   1.810 -0.4495  0.6959 -1.2966
  169DG      O9 3873  -0.052   1.471   2.044  0.6360  0.2444  0.1714
  169DG     O10 3874   0.458   1.611   1.710 -0.4426  0.2083  0.4680
  169DG     C11 3875  -0.019   1.348   1.988 -0.1466  0.4265  0.1221
  169DG     C12 3876   0.378   1.557   1.815  0.7768  0.2943  0.2389
  169DG     H13 3877  -0.113   1.295   1.970  0.2402 -0.2195 -0.0124
  169DG     H14 3878   0.051   1.295   2.054 -1.2712 -0.8941  0.3168
  169DG     H15 3879   0.355   1.636   1.887  1.1600  0.4223  0.2206
  169DG     H16 3880   0.441   1.489   1.872  0.9232 -0.1355 -0.4247
  169DG     C17 3881   0.057   1.373   1.854  0.6319 -0.0061  0.2521
  169DG     C18 3882   0.249   1.487   1.762 -0.9616 -1.1168  0.7602
  169DG     O19 3883   0.175   1.441   1.869 -0.0193  0.0307 -0.0987
  169DG     H20 3884  -0.018   1.422   1.791  2.7358  1.2606 -1.3727
  169DG     H21 3885   0.080   1.277   1.807 -0.2464  0.6911 -1.7515
  169DG     H22 3886   0.202   1.554   1.691 -2.9699 -2.9620  0.2503
  169DG     H23 3887   0.288   1.405   1.702  3.7305 -0.2428  2.1178
  170DG      C1 3888   3.884   5.076   2.989 -0.0433 -0.7269 -0.5430
  170DG      C2 3889   4.360   4.829   3.560 -0.8907  0.5072  0.1738
  170DG      H3 3890   3.820   5.143   3.046  0.9004 -0.8499  0.6942
  170DG      H4 3891   3.822   5.020   2.918 -1.7025  1.3520 -0.8241
  170DG      H5 3892   3.950   5.146   2.937 -0.9573  1.3862  1.0187
  170DG      H6 3893   4.438   4.885   3.610 -1.3194  1.2947 -0.0155
  170DG      H7 3894   4.263   4.854   3.604 -0.1679 -0.8490  2.7165
  170DG      H8 3895   4.389   4.724   3.568  1.3907  1.2016  1.9988
  170DG      O9 3896   3.949   4.982   3.087  0.2509 -0.0705  0.0800
  170DG     O10 3897   4.350   4.870   3.422 -0.1384 -0.1443  0.0001
  170DG     C11 3898   4.061   4.907   3.028  0.4001  0.0446  0.5650
  170DG     C12 3899   4.334   5.011   3.409 -0.2575 -0.2086 -0.2135
  170DG     H13 3900   4.051   4.904   2.920 -3.0799 -1.7938  0.7972
  170DG     H14 3901   4.053   4.805   3.064  0.6065 -1.1923 -2.6133
  170DG     H15 3902   4.414   5.064   3.460 -0.4462 -2.2484  2.4103
  170DG     H16 3903   4.242   5.039   3.460 -0.8821 -0.0108 -1.4026
  170DG     C17 3904   4.191   4.977   3.060 -0.4475  0.3777 -0.0909
  170DG     C18 3905   4.324   5.043   3.258 -0.7189  0.2649  1.1698
  170DG     O19 3906   4.201   4.995   3.201 -0.0299 -0.1770  0.4641
  170DG     H20 3907   4.203   5.066   3.000  0.1033 -1.0112 -2.1343
  170DG     H21 3908   4.272   4.920   3.013  0.2515  1.9627 -0.8630
  170DG     H22 3909   4.321   5.152   3.257 -1.4815  0.3559 -2.8571
  170DG     H23 3910   4.416   5.016   3.206 -1.6838  2.6550 -2.1306
  171DG      C1 3911   2.514   2.795   4.042 -0.2575  0.0813 -0.0819
  171DG      C2 3912   2.382   1.965   3.897 -0.4882  1.1159 -0.3393
  171DG      H3 3913   2.592   2.766   4.112  0.4047  0.1772 -0.7618
  171DG      H4 3914   2.424   2.832   4.092  0.9335  1.6491  1.0180
  171DG      H5 3915   2.547   2.879   3.980  0.0701 -0.7777 -1.1104
  171DG      H6 3916   2.378   1.884   3.825  0.4710 -0.2377  1.0762
  171DG      H7 3917   2.466   1.952   3.965  0.4862 -0.9394 -1.8217
  171DG      H8 3918   2.294   1.974   3.961 -0.0257  1.9550  0.1990
  171DG      O9 3919   2.474   2.686   3.951  0.7531 -0.0835 -0.0273
  171DG     O10 3920   2.403   2.083   3.822 -0.2317  0.2748  0.4929
  171DG     C11 3921   2.585   2.644   3.865  0.0679 -0.2340  0.2226
  171DG     C12 3922   2.429   2.202   3.899 -0.5381  0.1365 -0.0035
  171DG     H13 3923   2.675   2.614   3.919 -0.5316 -2.0218  0.2936
  171DG     H14 3924   2.597   2.732   3.802 -1.1136  0.4579  0.9251
  171DG     H15 3925   2.522   2.184   3.951 -0.6784 -0.7240 -0.0367
  171DG     H16 3926   2.347   2.225   3.967 -1.2649 -1.7575 -0.1714
  171DG     C17 3927   2.549   2.519   3.788 -0.5815 -0.7583  0.1972
  171DG     C18 3928   2.454   2.312   3.797  0.6261  1.3030 -0.6562
  171DG     O19 3929   2.502   2.422   3.874  0.5342 -0.5418  0.1536
  171DG     H20 3930   2.643   2.486   3.742 -0.0525  1.8144 -0.7023
  171DG     H21 3931   2.472   2.543   3.716 -1.4260 -2.1206  0.6091
  171DG     H22 3932   2.529   2.275   3.727 -0.4966 -0.9385 -0.7582
  171DG     H23 3933   2.368   2.340   3.735 -1.2672 -0.9010  0.8089
  172DG      C1 3934   1.300   3.374   1.388 -0.6596 -0.0349  0.9993
  172DG      C2 3935   1.088   3.679   0.711  0.1156 -0.0641 -0.4877
  172DG      H3 3936   1.397   3.392   1.435 -0.4366 -0.0107  0.5338
  172DG      H4 3937   1.258   3.283   1.432 -1.3636  0.4069  1.2513
  172DG      H5 3938   1.240   3.454   1.432  0.3993 -0.8850  4.2928
  172DG      H6 3939   1.181   3.726   0.742 -0.2896  0.4731 -0.0667
  172DG      H7 3940   1.090   3.651   0.606 -1.9011 -1.5676 -0.1775
  172DG      H8 3941   1.009   3.752   0.728  0.0851 -0.4944  1.5084
  172DG      O9 3942   1.303   3.385   1.251  0.2943  0.1918 -0.7096
  172DG     O10 3943   1.057   3.563   0.788  0.3278  0.2873  0.8892
  172DG     C11 3944   1.365   3.507   1.218  0.0867 -1.1344  0.3078
  172DG     C12 3945   1.155   3.469   0.771  0.2391  0.2179  0.4782
  172DG     H13 3946   1.460   3.530   1.267 -1.3436  3.8080  1.3722
  172DG     H14 3947   1.312   3.595   1.256 -2.1555 -1.4162 -1.9473
  172DG     H15 3948   1.167   3.453   0.664 -0.0759 -1.2356  0.6280
  172DG     H16 3949   1.115   3.374   0.807 -0.1377  0.0094 -0.4710
  172DG     C17 3950   1.385   3.520   1.066 -0.8513 -0.7097 -0.0626
  172DG     C18 3951   1.279   3.487   0.861 -0.1905  0.1670 -0.1040
  172DG     O19 3952   1.264   3.509   1.001  0.8822  0.0728 -0.1464
  172DG     H20 3953   1.450   3.441   1.028  1.4470  0.5621  1.0255
  172DG     H21 3954   1.440   3.610   1.037 -1.6002  0.1846  1.2248
  172DG     H22 3955   1.352   3.409   0.841 -0.0824 -0.3317  1.9410
  172DG     H23 3956   1.327   3.578   0.826 -0.2392  0.1545 -0.2025
  173DG      C1 3957   4.026   5.231   3.304  0.7694  0.1503  0.2149
  173DG      C2 3958   4.124   4.594   3.472 -0.0974 -0.0289  0.7479
  173DG      H3 3959   4.071   5.214   3.206  1.4272  0.6082  0.4260
  173DG      H4 3960   4.106   5.278   3.362  0.4099  0.2411  0.6381
  173DG      H5 3961   3.945   5.303   3.295  1.3343  1.0333  1.8114
  173DG      H6 3962   4.184   4.595   3.381 -0.1957  1.3196  0.6893
  173DG      H7 3963   4.187   4.610   3.559 -0.3673 -3.2415  1.6801
  173DG      H8 3964   4.088   4.491   3.481  1.3037 -0.6214 -0.0727
  173DG      O9 3965   3.987   5.106   3.366  0.4859  0.3375 -0.4424
  173DG     O10 3966   4.011   4.680   3.458  0.3084  0.4145  0.3028
  173DG     C11 3967   3.932   5.129   3.500 -0.3011 -0.3211  0.6976
  173DG     C12 3968   3.936   4.698   3.581 -0.0979 -0.0655  0.8023
  173DG     H13 3969   3.832   5.168   3.482 -0.0387 -0.7891 -2.4626
  173DG     H14 3970   3.991   5.202   3.556 -0.3361  1.9479 -1.9668
  173DG     H15 3971   3.995   4.746   3.659 -0.2752  0.9394  0.3430
  173DG     H16 3972   3.896   4.604   3.619 -0.7502 -0.2508 -0.2925
  173DG     C17 3973   3.921   4.996   3.577  0.2169 -0.3031  0.4948
  173DG     C18 3974   3.818   4.780   3.554  0.2346 -0.4194 -0.4318
  173DG     O19 3975   3.849   4.908   3.492  0.2071 -0.1378  0.0595
  173DG     H20 3976   3.888   5.014   3.679  0.9115 -1.4633  0.9385
  173DG     H21 3977   4.020   4.950   3.589 -0.3145 -1.5735  0.1697
  173DG     H22 3978   3.748   4.733   3.485  0.4245  1.1754 -1.7854
  173DG     H23 3979   3.763   4.792   3.648  0.2516 -2.1729 -0.1809
  174DG      C1 3980   2.248   3.991   3.906 -0.1545 -0.0111  0.4457
  174DG      C2 3981   2.339   3.441   3.407  0.0883 -0.5209  0.7480
  174DG      H3 3982   2.207   4.092   3.915 -3.2606 -1.2138  1.4808
  174DG      H4 3983   2.356   3.987   3.915 -0.0064 -0.3089 -1.1953
  174DG      H5 3984   2.219   3.927   3.990 -1.4981  0.4120  0.3410
  174DG      H6 3985   2.350   3.406   3.510  2.0052  0.3528  0.8715
  174DG      H7 3986   2.248   3.398   3.365  0.0509 -1.3642  1.6547
  174DG      H8 3987   2.431   3.416   3.356 -0.3661  1.2730 -1.0807
  174DG      O9 3988   2.209   3.932   3.783  0.0596 -0.9866  0.9936
  174DG     O10 3989   2.325   3.582   3.397 -0.1875 -0.5806  0.5441
  174DG     C11 3990   2.260   4.006   3.678  0.0003 -0.1721  0.4019
  174DG     C12 3991   2.425   3.647   3.473 -0.0912 -0.0543 -0.7056
  174DG     H13 3992   2.368   3.989   3.666  0.1663  2.0171 -2.0934
  174DG     H14 3993   2.220   4.107   3.670 -0.0124 -0.0780  1.5465
  174DG     H15 3994   2.521   3.619   3.429 -0.9761 -3.7691 -0.6156
  174DG     H16 3995   2.419   3.612   3.577  4.0496  0.2459 -0.1849
  174DG     C17 3996   2.234   3.944   3.543  0.5297  0.0390  0.0527
  174DG     C18 3997   2.396   3.793   3.480  0.1375 -0.6002 -0.2948
  174DG     O19 3998   2.273   3.808   3.539 -0.0750  0.2379  0.1230
  174DG     H20 3999   2.280   4.002   3.463  0.3545  1.1278  0.7328
  174DG     H21 4000   2.126   3.951   3.526  0.0096 -2.2902  1.8009
  174DG     H22 4001   2.474   3.855   3.527  0.8315  1.3896 -3.7218
  174DG     H23 4002   2.403   3.829   3.377  2.0130  1.8110  0.5475
  175DG      C1 4003   2.841   4.637   4.199  0.5312  0.0280  0.1098
  175DG      C2 4004   2.612   4.605   3.605  0.1342  0.9399 -0.5270
  175DG      H3 4005   2.855   4.741   4.228  2.5419 -0.6920  2.0030
  175DG      H4 4006   2.895   4.572   4.268  1.1626  0.5910  0.1565
  175DG      H5 4007   2.733   4.625   4.206  0.1854  3.3538  3.4886
  175DG      H6 4008   2.614   4.708   3.569 -1.5817  0.7902 -1.1395
  175DG      H7 4009   2.610   4.538   3.520  1.2733  0.4210 -0.1553
  175DG      H8 4010   2.522   4.583   3.663  1.8003  1.6546  2.5520
  175DG      O9 4011   2.875   4.632   4.064 -0.1998 -0.3189 -0.0418
  175DG     O10 4012   2.728   4.580   3.683 -0.2226  0.5261 -0.4394
  175DG     C11 4013   3.010   4.676   4.040  0.4127 -0.2016 -0.4254
  175DG     C12 4014   2.839   4.598   3.601  0.2978 -0.0127 -0.0333
  175DG     H13 4015   3.084   4.662   4.120 -1.4973  2.4046  2.0208
  175DG     H14 4016   3.011   4.781   4.012 -2.3898 -0.2381 -0.8995
  175DG     H15 4017   2.856   4.702   3.570  0.3469 -0.6828 -2.4612
  175DG     H16 4018   2.830   4.535   3.512 -1.8826  0.2504 -0.0553
  175DG     C17 4019   3.051   4.607   3.909  0.1058  1.3241 -0.4414
  175DG     C18 4020   2.955   4.557   3.692  0.2116 -0.3785 -0.4003
  175DG     O19 4021   2.939   4.620   3.823 -0.3183 -0.2942  0.1361
  175DG     H20 4022   3.073   4.501   3.925 -2.3093  0.5887 -1.4414
  175DG     H21 4023   3.129   4.659   3.854 -1.5171  3.5110 -0.8211
  175DG     H22 4024   2.946   4.449   3.703  0.9211 -0.2689  1.6177
  175DG     H23 4025   3.051   4.583   3.647  0.4231 -0.4865 -0.0222
  176DG      C1 4026   1.706   3.411   2.456 -0.2343 -0.1352 -0.2337
  176DG      C2 4027   2.173   2.979   1.963  0.5182  1.0546 -0.2430
  176DG      H3 4028   1.644   3.471   2.389 -0.2163  0.0505 -0.0841
  176DG      H4 4029   1.782   3.476   2.500 -0.3715  0.9424 -1.5387
  176DG      H5 4030   1.636   3.385   2.536 -2.4184  0.1894 -1.9525
  176DG      H6 4031   2.202   3.084   1.954 -0.4112  1.2623 -1.0291
  176DG      H7 4032   2.221   2.928   2.046  0.7272 -1.5950 -1.8836
  176DG      H8 4033   2.209   2.919   1.879  0.5890  0.9889 -0.1660
  176DG      O9 4034   1.752   3.295   2.395 -0.0566  0.7474 -0.2237
  176DG     O10 4035   2.035   2.963   1.981 -0.1397 -0.0288  0.7109
  176DG     C11 4036   1.652   3.201   2.363  0.5199 -0.1898  0.6721
  176DG     C12 4037   1.982   3.065   2.060  0.7792  0.3875 -0.1357
  176DG     H13 4038   1.573   3.244   2.301 -1.0331 -2.4324  0.9633
  176DG     H14 4039   1.597   3.166   2.450  0.0972  0.5112  0.6941
  176DG     H15 4040   1.974   3.164   2.016 -0.0415  0.3818 -0.0015
  176DG     H16 4041   2.049   3.071   2.147  0.7363 -0.3089 -0.0491
  176DG     C17 4042   1.698   3.081   2.290  0.4252  0.7968 -0.1200
  176DG     C18 4043   1.845   3.019   2.112  0.4388 -0.0729 -0.1853
  176DG     O19 4044   1.792   3.125   2.195  0.1270 -0.5255  0.1970
  176DG     H20 4045   1.620   3.033   2.230  0.9942 -1.8225  1.0948
  176DG     H21 4046   1.739   3.010   2.362  1.0437  1.5486  0.2841
  176DG     H22 4047   1.781   2.983   2.032  1.2432 -0.4221 -0.6851
  176DG     H23 4048   1.875   2.924   2.156  1.8989 -0.1107 -1.1820
  177DG      C1 4049   3.286   4.828   0.993  0.0208  0.5385 -0.5940
  177DG      C2 4050   3.597   4.847   1.557  0.0164 -0.0317 -0.0126
  177DG      H3 4051   3.255   4.900   0.916  0.0496  0.1339 -0.9881
  177DG      H4 4052   3.212   4.842   1.071 -0.0814 -0.3049 -0.5404
  177DG      H5 4053   3.276   4.732   0.943  0.9075 -0.1351  0.5094
  177DG      H6 4054   3.505   4.874   1.609  0.5190  1.6053  0.0959
  177DG      H7 4055   3.601   4.739   1.561 -1.7249 -0.1569 -0.9826
  177DG      H8 4056   3.677   4.899   1.610 -0.7919 -0.8715  2.1455
  177DG      O9 4057   3.412   4.860   1.054  0.4260  0.0719 -0.0232
  177DG     O10 4058   3.594   4.911   1.424 -0.4638  0.0866 -0.1776
  177DG     C11 4059   3.519   4.851   0.966 -0.8364  0.0981  0.5531
  177DG     C12 4060   3.715   4.889   1.368 -0.0157  0.2390 -0.6010
  177DG     H13 4061   3.514   4.929   0.890 -1.9819 -0.7255 -0.2539
  177DG     H14 4062   3.526   4.751   0.923  0.6607  0.9842 -1.4443
  177DG     H15 4063   3.718   4.786   1.333 -0.8547 -0.0379  0.1079
  177DG     H16 4064   3.802   4.889   1.435  0.3826 -0.0565 -1.1054
  177DG     C17 4065   3.645   4.858   1.056 -0.0736 -0.5816 -0.1538
  177DG     C18 4066   3.741   4.976   1.249 -0.5370  0.0023 -0.8726
  177DG     O19 4067   3.638   4.973   1.145 -0.1933  0.4886  0.2882
  177DG     H20 4068   3.737   4.852   0.999 -1.1927 -0.7735 -2.0390
  177DG     H21 4069   3.648   4.769   1.118  0.7796 -1.1168 -0.9396
  177DG     H22 4070   3.744   5.080   1.283 -0.1717 -0.5868  1.0008
  177DG     H23 4071   3.843   4.953   1.218  0.1852 -0.9828  1.9532
  178DG      C1 4072   5.328   4.119   2.015 -1.0210  0.3144 -0.2465
  178DG      C2 4073   4.896   4.392   1.379 -0.3857  0.1134  0.1641
  178DG      H3 4074   5.305   4.014   1.997  0.8304  0.3629 -3.8053
  178DG      H4 4075   5.334   4.120   2.124  0.5783  1.2695 -0.3036
  178DG      H5 4076   5.431   4.127   1.980 -0.6518 -0.6857  0.5587
  178DG      H6 4077   4.894   4.494   1.341 -0.3388 -0.3986 -1.2719
  178DG      H7 4078   4.985   4.351   1.331 -0.3009  1.1193 -0.5574
  178DG      H8 4079   4.809   4.341   1.338 -0.2806  2.2590 -3.0470
  178DG      O9 4080   5.256   4.213   1.950  0.2186  0.8579  0.3645
  178DG     O10 4081   4.916   4.383   1.523  0.1266  0.1168  0.0247
  178DG     C11 4082   5.119   4.216   1.992 -0.2904  0.3069  0.3317
  178DG     C12 4083   4.866   4.263   1.580 -0.3729 -0.1357 -0.2962
  178DG     H13 4084   5.113   4.242   2.097 -1.4960  0.6249  0.1981
  178DG     H14 4085   5.059   4.125   1.985 -2.4394  1.7666 -2.2738
  178DG     H15 4086   4.905   4.174   1.533 -0.1205  1.2315 -2.8152
  178DG     H16 4087   4.759   4.246   1.562 -0.3554  0.7667 -1.3299
  178DG     C17 4088   5.036   4.315   1.909  0.1094  0.6295  0.3405
  178DG     C18 4089   4.887   4.249   1.731  0.0546  1.0479  0.0517
  178DG     O19 4090   5.017   4.272   1.775 -0.5438 -0.0277 -0.0456
  178DG     H20 4091   5.086   4.411   1.904  2.4367 -0.5181  0.4494
  178DG     H21 4092   4.943   4.339   1.962  0.0091  1.3485 -0.1572
  178DG     H22 4093   4.819   4.315   1.785 -0.7954  0.5228 -0.3534
  178DG     H23 4094   4.843   4.156   1.766  3.7865 -0.4448  1.2723
  179DG      C1 4095   0.906   4.611   3.065  0.0666 -0.0657 -0.0711
  179DG      C2 4096   0.819   5.143   2.521  0.4261  0.1560 -0.2016
  179DG      H3 4097   0.928   4.541   2.984 -1.0663  0.1066 -0.5542
  179DG      H4 4098   0.797   4.610   3.071 -0.0265 -0.2193 -1.4368
  179DG      H5 4099   0.962   4.591   3.156  3.1773  0.5876 -1.6993
  179DG      H6 4100   0.711   5.150   2.525  0.5246  1.1644  1.0841
  179DG      H7 4101   0.855   5.240   2.486 -1.1729  1.1402  0.7622
  179DG      H8 4102   0.846   5.065   2.450  0.1271 -0.2576  0.1390
  179DG      O9 4103   0.944   4.734   3.012 -0.6190 -0.4480  0.1037
  179DG     O10 4104   0.887   5.116   2.643  0.0869  0.8548 -0.0833
  179DG     C11 4105   0.901   4.837   3.095 -0.0203  0.3323 -0.0620
  179DG     C12 4106   0.835   5.176   2.760  0.1717 -0.3986  0.0919
  179DG     H13 4107   0.948   4.805   3.188  1.2301  2.3486  0.0527
  179DG     H14 4108   0.793   4.841   3.103 -0.5816 -2.4491 -3.6165
  179DG     H15 4109   0.728   5.156   2.761  0.0268  0.3515  0.1123
  179DG     H16 4110   0.842   5.285   2.759  2.0988 -0.4798  0.8611
  179DG     C17 4111   0.956   4.970   3.040  0.0639 -0.4231 -0.1651
  179DG     C18 4112   0.906   5.135   2.888 -0.7904 -0.1358 -0.3821
  179DG     O19 4113   0.869   5.002   2.930 -0.0124  0.2399 -0.3933
  179DG     H20 4114   1.060   4.971   3.007  0.4158  2.2131  0.8398
  179DG     H21 4115   0.954   5.035   3.127 -1.1530 -0.6425 -0.0085
  179DG     H22 4116   1.014   5.144   2.875 -0.5760  1.2246  1.7059
  179DG     H23 4117   0.888   5.200   2.974 -0.9153 -0.0038 -0.5078
  180DG      C1 4118   0.765   2.209   0.835 -0.5552  0.2910  0.5075
  180DG      C2 4119   0.523   1.649   1.237 -0.5189  0.1334 -0.3626
  180DG      H3 4120   0.865   2.187   0.873 -0.0316  1.0026 -0.4197
  180DG      H4 4121   0.728   2.302   0.878  0.5329  1.7510 -1.5404
  180DG      H5 4122   0.777   2.213   0.727 -2.2498  1.7199  0.3141
  180DG      H6 4123   0.458   1.668   1.322  0.4506  0.3582  0.3375
  180DG      H7 4124   0.529   1.541   1.226  1.6441  0.1036  0.7396
  180DG      H8 4125   0.620   1.698   1.247  0.7819 -2.3906  0.1081
  180DG      O9 4126   0.668   2.103   0.860 -0.3473 -0.3911  0.6426
  180DG     O10 4127   0.466   1.683   1.112 -0.4069 -0.4512  0.0854
  180DG     C11 4128   0.541   2.138   0.808  0.4650 -0.0027  0.1189
  180DG     C12 4129   0.379   1.802   1.127 -0.3158  0.2885 -0.3370
  180DG     H13 4130   0.542   2.177   0.707 -1.8223  0.9891  0.4293
  180DG     H14 4131   0.490   2.215   0.865 -2.6055 -1.4613 -0.4819
  180DG     H15 4132   0.429   1.879   1.186 -1.9872  2.6012 -1.7873
  180DG     H16 4133   0.288   1.771   1.178  0.9020 -0.2187  1.6835
  180DG     C17 4134   0.451   2.014   0.822 -0.2155 -0.8286  0.3106
  180DG     C18 4135   0.353   1.861   0.988 -0.5126  0.9674 -0.2286
  180DG     O19 4136   0.460   1.950   0.951 -0.2064  0.5948  0.0821
  180DG     H20 4137   0.469   1.926   0.759 -0.6755 -0.7733  0.0968
  180DG     H21 4138   0.353   2.058   0.809  0.0299 -0.2707  0.3284
  180DG     H22 4139   0.335   1.791   0.907  3.9983 -0.8430  0.0609
  180DG     H23 4140   0.264   1.922   1.002 -2.0922 -1.1959 -0.4223
  181DG      C1 4141   0.517   2.371   2.521  0.1885  0.4290  0.0411
  181DG      C2 4142   0.514   3.170   2.664 -0.1938  0.2572 -0.7897
  181DG      H3 4143   0.591   2.291   2.511 -0.4935 -0.1511 -0.4861
  181DG      H4 4144   0.479   2.384   2.420 -0.9642  0.3986  0.4554
  181DG      H5 4145   0.439   2.335   2.588  2.2671 -2.8491  0.9663
  181DG      H6 4146   0.598   3.233   2.633  1.6107 -2.5479 -1.9929
  181DG      H7 4147   0.426   3.199   2.606  0.9640  1.0219 -2.2741
  181DG      H8 4148   0.477   3.193   2.764 -1.8465 -3.4612 -0.4278
  181DG      O9 4149   0.576   2.493   2.565 -0.0489  0.4032  0.3148
  181DG     O10 4150   0.536   3.035   2.653  0.3847 -0.1840  0.0406
  181DG     C11 4151   0.605   2.493   2.705 -0.4397  0.5286 -0.3902
  181DG     C12 4152   0.658   2.989   2.724  0.7019 -0.0694 -0.3909
  181DG     H13 4153   0.646   2.396   2.734 -1.0343 -0.0946 -1.5376
  181DG     H14 4154   0.513   2.489   2.763 -1.0597 -1.0421 -1.3798
  181DG     H15 4155   0.648   2.995   2.832 -0.2783  1.3622 -0.5215
  181DG     H16 4156   0.742   3.055   2.703  1.7388 -1.3213 -0.2650
  181DG     C17 4157   0.699   2.616   2.735  0.3856 -0.8200  0.4892
  181DG     C18 4158   0.719   2.851   2.694  0.0276 -0.2407  0.6272
  181DG     O19 4159   0.630   2.747   2.723  0.1404  0.2544  0.1972
  181DG     H20 4160   0.791   2.606   2.676 -1.2790 -3.5540 -1.9709
  181DG     H21 4161   0.724   2.605   2.840  0.7898 -1.6781  0.3201
  181DG     H22 4162   0.744   2.851   2.588 -1.3290  2.2109  0.2332
  181DG     H23 4163   0.802   2.833   2.762 -0.4803 -0.3006  1.2416
  182DG      C1 4164   4.892   5.277   0.652 -0.1311  0.2337 -0.5755
  182DG      C2 4165   4.760   5.429  -0.106  0.0470  0.3214 -0.8828
  182DG      H3 4166   4.808   5.219   0.690 -0.8851  1.6756  0.0082
  182DG      H4 4167   4.904   5.353   0.729  0.6589  0.9638 -1.3917
  182DG      H5 4168   4.975   5.206   0.649 -0.3793 -0.2310  1.8590
  182DG      H6 4169   4.819   5.521  -0.119 -0.0463  0.4542 -0.4052
  182DG      H7 4170   4.745   5.371  -0.197 -0.8697 -0.2057 -0.4044
  182DG      H8 4171   4.661   5.451  -0.067  0.6864  0.2510  0.8722
  182DG      O9 4172   4.870   5.341   0.528 -0.0974 -0.1248 -0.0638
  182DG     O10 4173   4.816   5.334  -0.013  0.3780 -0.5837 -0.7974
  182DG     C11 4174   4.955   5.449   0.502 -0.0668 -0.7448 -0.2686
  182DG     C12 4175   4.830   5.389   0.119  0.3835 -0.0267  0.2472
  182DG     H13 4176   5.054   5.415   0.533 -0.2510 -2.6364 -1.5453
  182DG     H14 4177   4.923   5.527   0.571 -0.7348 -1.6744  0.5150
  182DG     H15 4178   4.805   5.319   0.198  0.7759  0.5518  0.8978
  182DG     H16 4179   4.762   5.473   0.133  0.1680 -0.1159 -0.2405
  182DG     C17 4180   4.956   5.500   0.362  0.1848 -0.6686 -0.9850
  182DG     C18 4181   4.980   5.426   0.140 -0.0477 -0.1484  0.9651
  182DG     O19 4182   5.025   5.408   0.276  0.2563  0.0695 -0.2595
  182DG     H20 4183   5.016   5.591   0.364  1.4645 -1.0662  5.8971
  182DG     H21 4184   4.852   5.526   0.345 -0.0818 -2.0901 -1.6291
  182DG     H22 4185   5.041   5.354   0.086 -2.3530 -1.1108 -0.5193
  182DG     H23 4186   5.005   5.524   0.099  1.8090 -1.4588 -1.2412
  183DG      C1 4187   4.903   1.971   0.239  0.6972 -0.5091 -0.7859
  183DG      C2 4188   4.320   2.327   0.935  0.2307  0.2276  0.1476
  183DG      H3 4189   4.813   1.928   0.195  1.1804 -2.4973  0.0326
  183DG      H4 4190   4.958   1.890   0.288 -1.8734 -0.8727  1.7886
  183DG      H5 4191   4.963   2.024   0.165 -0.4211 -0.8952 -1.9983
  183DG      H6 4192   4.344   2.266   1.021  0.3780  1.1991  0.8141
  183DG      H7 4193   4.282   2.422   0.972 -2.2125 -1.4571  2.2682
  183DG      H8 4194   4.239   2.280   0.879  1.5733 -2.2302  0.1335
  183DG      O9 4195   4.860   2.064   0.343 -0.7583  0.2306  0.3109
  183DG     O10 4196   4.424   2.331   0.850  0.2585 -0.0798  0.1138
  183DG     C11 4197   4.737   2.056   0.412 -0.3683  0.1075 -0.1179
  183DG     C12 4198   4.467   2.213   0.779 -0.5244  0.5366  0.3095
  183DG     H13 4199   4.733   1.954   0.451  3.0162  0.2143  0.7842
  183DG     H14 4200   4.657   2.077   0.341 -0.7535  0.4039  0.3946
  183DG     H15 4201   4.384   2.170   0.723  0.1194  0.4184 -0.5887
  183DG     H16 4202   4.498   2.132   0.845 -0.1045  0.2735 -0.2039
  183DG     C17 4203   4.733   2.161   0.525  0.1380  0.3290 -0.1731
  183DG     C18 4204   4.583   2.261   0.690 -0.7191  0.2394  0.0548
  183DG     O19 4205   4.606   2.159   0.600  0.0442 -0.6100 -0.2061
  183DG     H20 4206   4.750   2.260   0.484 -0.9870  1.2666  1.5127
  183DG     H21 4207   4.815   2.135   0.592 -0.0430 -1.7782 -0.6873
  183DG     H22 4208   4.572   2.357   0.639  2.2723  0.8060  0.3382
  183DG     H23 4209   4.670   2.282   0.751  0.1654  1.6018 -1.6064
  184DG      C1 4210   1.636   4.996   2.781 -0.2826 -0.0290  0.3923
  184DG      C2 4211   1.288   4.541   2.359  0.1767  0.1039  0.2882
  184DG      H3 4212   1.673   5.099   2.783  0.4199 -0.2830  0.7300
  184DG      H4 4213   1.711   4.918   2.789 -0.4880 -0.3726 -0.8896
  184DG      H5 4214   1.581   4.993   2.876  1.3819  2.6566  1.5793
  184DG      H6 4215   1.279   4.576   2.256 -0.8796 -0.3534  0.2200
  184DG      H7 4216   1.307   4.435   2.347 -0.6808  0.1409 -1.6932
  184DG      H8 4217   1.200   4.577   2.412 -0.0447 -1.9081  1.3795
  184DG      O9 4218   1.553   4.991   2.665  0.2233 -0.8351 -0.2961
  184DG     O10 4219   1.404   4.604   2.421  1.0052  0.3796 -0.4711
  184DG     C11 4220   1.618   5.028   2.544  0.8381  0.4590  0.0412
  184DG     C12 4221   1.518   4.599   2.349 -0.6175 -0.2275  0.1870
  184DG     H13 4222   1.676   5.119   2.562 -0.7692  1.9223 -1.7757
  184DG     H14 4223   1.534   5.054   2.480 -1.2264 -4.3028  0.3582
  184DG     H15 4224   1.495   4.645   2.252  0.8595  0.2098  0.0081
  184DG     H16 4225   1.546   4.495   2.336 -0.3144  0.0995 -2.2881
  184DG     C17 4226   1.680   4.906   2.481 -0.1043 -0.2288  0.0409
  184DG     C18 4227   1.642   4.680   2.407  0.7388 -0.1856 -0.1281
  184DG     O19 4228   1.587   4.801   2.451  0.5604  0.5037  0.0177
  184DG     H20 4229   1.755   4.869   2.551  0.3649  0.5611 -0.0384
  184DG     H21 4230   1.733   4.932   2.389  3.0848 -1.5410  1.3523
  184DG     H22 4231   1.683   4.629   2.494  0.8446  1.1012  0.6081
  184DG     H23 4232   1.717   4.698   2.330  1.0465 -0.4249  0.1110
  185DG      C1 4233   2.256   4.654   0.560  0.5284  0.1210  0.3193
  185DG      C2 4234   2.033   5.329   0.522 -0.3245  0.6609  0.0412
  185DG      H3 4235   2.316   4.573   0.520  1.3003  1.1107 -0.5483
  185DG      H4 4236   2.161   4.607   0.587  0.1694 -0.0073 -1.1257
  185DG      H5 4237   2.301   4.701   0.648 -0.9147  1.0436  0.5961
  185DG      H6 4238   2.094   5.353   0.609  0.3731 -2.0675  0.4154
  185DG      H7 4239   2.015   5.424   0.473 -2.3767 -0.1985 -0.9795
  185DG      H8 4240   1.937   5.295   0.560 -0.9655  3.7258  1.4631
  185DG      O9 4241   2.241   4.758   0.463  0.0667  0.4822 -0.8134
  185DG     O10 4242   2.098   5.224   0.451  0.3844 -0.2353  0.1664
  185DG     C11 4243   2.369   4.808   0.430  0.3450 -0.3369  0.8799
  185DG     C12 4244   2.219   5.254   0.385  0.1920  0.5946 -0.3141
  185DG     H13 4245   2.429   4.725   0.393 -0.2715 -0.1464 -0.6387
  185DG     H14 4246   2.426   4.838   0.518  2.3040  1.2374 -0.8446
  185DG     H15 4247   2.287   5.282   0.466  1.0524 -0.6322 -0.5770
  185DG     H16 4248   2.206   5.342   0.323 -0.9903  0.0865 -0.8111
  185DG     C17 4249   2.360   4.923   0.330  0.5706 -0.0968  0.9230
  185DG     C18 4250   2.257   5.134   0.300 -0.3057 -0.4454  0.1012
  185DG     O19 4251   2.278   5.026   0.388 -0.2052  0.9606  0.2052
  185DG     H20 4252   2.304   4.885   0.244 -0.1423  0.6400  1.0442
  185DG     H21 4253   2.454   4.970   0.303  0.8804 -1.6557 -0.9228
  185DG     H22 4254   2.182   5.109   0.225  0.5332 -0.9968 -0.5814
  185DG     H23 4255   2.345   5.163   0.243 -0.8855  0.4252 -0.3679
  186DG      C1 4256   2.128   0.106   2.242 -0.0523 -0.3201 -0.1716
  186DG      C2 4257   2.466   0.000   1.567  0.1752  0.1651  0.5332
  186DG      H3 4258   2.079   0.177   2.310 -1.9674 -1.6258 -0.1283
  186DG      H4 4259   2.232   0.091   2.268 -0.0106  2.1093  1.4684
  186DG      H5 4260   2.080   0.009   2.249 -0.1548 -0.2680 -0.1453
  186DG      H6 4261   2.532  -0.063   1.625 -0.2681  0.2119  1.0907
  186DG      H7 4262   2.387  -0.072   1.543  0.4932  0.2933 -1.0109
  186DG      H8 4263   2.515   0.027   1.473  0.3209 -2.3057 -0.1643
  186DG      O9 4264   2.126   0.149   2.102  0.1155  0.3721  0.4135
  186DG     O10 4265   2.409   0.117   1.632 -0.1497 -0.0913 -0.3209
  186DG     C11 4266   2.191   0.265   2.084  0.3045  0.2201 -0.5287
  186DG     C12 4267   2.493   0.210   1.699 -0.2639  0.0374  0.3667
  186DG     H13 4268   2.286   0.259   2.138 -0.3154 -3.3947  0.4370
  186DG     H14 4269   2.120   0.332   2.132  0.7769  0.4398 -0.1248
  186DG     H15 4270   2.569   0.257   1.637  0.8868 -1.4888  0.5564
  186DG     H16 4271   2.556   0.158   1.771 -0.4009 -1.7663 -0.7333
  186DG     C17 4272   2.213   0.321   1.938 -0.3001  0.1254  0.0877
  186DG     C18 4273   2.402   0.309   1.786 -0.0522  0.0647  0.4326
  186DG     O19 4274   2.318   0.243   1.879 -0.5816  0.8000 -0.2894
  186DG     H20 4275   2.255   0.421   1.943 -0.1336  0.0535  0.1261
  186DG     H21 4276   2.122   0.331   1.879  1.2342 -0.8890 -2.5979
  186DG     H22 4277   2.466   0.383   1.836  1.2134  0.4886 -1.6855
  186DG     H23 4278   2.328   0.364   1.728  0.1074  1.7346  1.7348
  187DG      C1 4279  -0.116   4.382   2.414 -0.7262  0.0001 -0.3499
  187DG      C2 4280   0.479   4.158   2.134  0.3850  0.4293 -0.2512
  187DG      H3 4281  -0.184   4.455   2.370 -0.5550 -0.2296 -1.0096
  187DG      H4 4282  -0.045   4.446   2.467  0.3730 -0.4084 -1.2853
  187DG      H5 4283  -0.178   4.338   2.492 -0.8560  0.8185  0.0185
  187DG      H6 4284   0.552   4.102   2.075 -0.5241 -2.7243  1.3948
  187DG      H7 4285   0.538   4.244   2.166 -0.0840  0.8214 -0.4221
  187DG      H8 4286   0.454   4.095   2.219  0.9327 -0.1809 -0.5388
  187DG      O9 4287  -0.063   4.282   2.334 -0.6471 -0.0322 -0.1518
  187DG     O10 4288   0.374   4.199   2.056  0.2359 -0.5152 -0.2664
  187DG     C11 4289   0.049   4.220   2.397 -0.2142  0.4507  0.4909
  187DG     C12 4290   0.285   4.098   2.002 -0.3133  0.0117 -0.5536
  187DG     H13 4291   0.029   4.195   2.501  2.1557 -2.2298  0.4319
  187DG     H14 4292   0.124   4.299   2.403  0.4849 -0.0154 -1.3575
  187DG     H15 4293   0.346   4.020   1.955  1.4595  0.0647  1.5258
  187DG     H16 4294   0.216   4.140   1.928 -0.5043  0.1247 -0.3127
  187DG     C17 4295   0.113   4.094   2.329  0.5592 -0.7212  0.0751
  187DG     C18 4296   0.206   4.036   2.120  0.4266 -0.2738  0.2611
  187DG     O19 4297   0.175   4.139   2.213 -0.0875  0.0372 -0.3010
  187DG     H20 4298   0.047   4.011   2.307 -1.0518  0.4824  0.2130
  187DG     H21 4299   0.192   4.056   2.395 -0.0298 -0.3517  1.0183
  187DG     H22 4300   0.123   3.972   2.090  0.8355 -0.4242 -0.5825
  187DG     H23 4301   0.275   3.965   2.165 -0.4175 -0.8420  0.6710
  188DG      C1 4302   5.419   5.370   4.369 -0.1086 -0.9347 -0.2972
  188DG      C2 4303   4.717   5.337   4.303 -0.0596  0.5852 -0.1417
  188DG      H3 4304   5.418   5.477   4.348  2.3609 -0.7336  0.2817
  188DG      H4 4305   5.399   5.312   4.280 -0.7114 -0.1467 -0.6900
  188DG      H5 4306   5.518   5.340   4.405 -0.4900  0.5753  2.3385
  188DG      H6 4307   4.630   5.383   4.349  1.9491  2.8807  1.6117
  188DG      H7 4308   4.759   5.424   4.252 -0.2161  2.1352  2.2395
  188DG      H8 4309   4.683   5.256   4.239  0.8979 -1.3543  1.6825
  188DG      O9 4310   5.319   5.367   4.472  0.0285  0.1949  0.0474
  188DG     O10 4311   4.804   5.288   4.404  0.7243 -0.5581 -0.3168
  188DG     C11 4312   5.283   5.240   4.525 -0.1134  0.0265 -0.0808
  188DG     C12 4313   4.841   5.382   4.502 -0.0747 -0.1411  0.0097
  188DG     H13 4314   5.367   5.209   4.588 -0.4370  1.7050  1.2649
  188DG     H14 4315   5.265   5.164   4.449  2.0639  0.1282 -0.7651
  188DG     H15 4316   4.755   5.415   4.561 -1.2558  0.4551 -1.9630
  188DG     H16 4317   4.885   5.469   4.454  2.2359 -3.0603 -3.7034
  188DG     C17 4318   5.163   5.262   4.611  0.3954  0.1475 -0.2803
  188DG     C18 4319   4.944   5.331   4.598 -0.8678 -0.3456 -0.3953
  188DG     O19 4320   5.057   5.302   4.524  0.6755 -0.7972  0.2560
  188DG     H20 4321   5.183   5.338   4.687  0.8372  1.1940 -1.4008
  188DG     H21 4322   5.131   5.169   4.656 -1.6199  0.3258 -1.2421
  188DG     H22 4323   4.972   5.414   4.664 -0.0546  0.1894 -1.3927
  188DG     H23 4324   4.922   5.258   4.676 -0.0626 -0.7589 -0.5503
  189DG      C1 4325   2.271   2.265   3.472  0.1271  0.6852 -0.9211
  189DG      C2 4326   1.403   2.431   3.510 -0.4195  1.0832 -0.0999
  189DG      H3 4327   2.296   2.198   3.554  0.0421  1.0670 -0.5826
  189DG      H4 4328   2.344   2.345   3.485  0.3365  0.2667  0.6719
  189DG      H5 4329   2.289   2.222   3.373 -3.0620  0.5001 -1.5275
  189DG      H6 4330   1.368   2.493   3.592 -0.3221 -0.2818  1.0221
  189DG      H7 4331   1.346   2.437   3.417  1.5404  1.2938 -1.3318
  189DG      H8 4332   1.383   2.331   3.550 -1.5437  1.3070 -0.0673
  189DG      O9 4333   2.136   2.290   3.469  0.1720 -0.2287  0.5456
  189DG     O10 4334   1.547   2.446   3.490 -0.1717 -0.1807 -0.9143
  189DG     C11 4335   2.089   2.405   3.535  0.1880  0.2324  0.1152
  189DG     C12 4336   1.621   2.382   3.596  0.4107  0.3298 -0.3154
  189DG     H13 4337   2.166   2.481   3.523  0.2009  0.4365  1.3515
  189DG     H14 4338   2.088   2.372   3.639  1.4467 -2.4102 -0.6274
  189DG     H15 4339   1.631   2.275   3.579  3.1056  0.4264  0.2587
  189DG     H16 4340   1.578   2.396   3.695  1.7077  3.4955 -0.0714
  189DG     C17 4341   1.965   2.452   3.471  0.4303 -0.3686  0.2481
  189DG     C18 4342   1.764   2.433   3.612 -0.8095 -0.2289 -0.4099
  189DG     O19 4343   1.842   2.388   3.496  0.3479 -0.8770  0.4639
  189DG     H20 4344   1.987   2.450   3.364 -0.4605 -0.3590  0.0507
  189DG     H21 4345   1.951   2.558   3.494 -0.0884  0.0630 -1.7907
  189DG     H22 4346   1.751   2.540   3.626  1.6204 -0.1971  2.9863
  189DG     H23 4347   1.799   2.393   3.707  2.2095 -1.3150 -1.8572
  190DG      C1 4348   4.575   4.682   0.086  0.3442 -0.2196  0.4711
  190DG      C2 4349   4.633   4.782   0.798 -0.7025  0.3646 -0.0070
  190DG      H3 4350   4.661   4.745   0.066  1.3336 -0.8630  2.5100
  190DG      H4 4351   4.497   4.697   0.011  0.4115 -2.3224 -0.0878
  190DG      H5 4352   4.610   4.579   0.074  1.7525  0.2438  0.4206
  190DG      H6 4353   4.582   4.794   0.893  0.1936  0.7905  0.4268
  190DG      H7 4354   4.698   4.695   0.807 -0.7169  0.5251  1.9190
  190DG      H8 4355   4.701   4.867   0.797 -1.3713  0.9199  1.0434
  190DG      O9 4356   4.533   4.683   0.217 -0.4921  0.2542  0.0873
  190DG     O10 4357   4.548   4.766   0.687 -0.1881  0.4308  0.0752
  190DG     C11 4358   4.455   4.790   0.251  0.5887 -0.5615  0.3660
  190DG     C12 4359   4.466   4.648   0.699  0.0357  0.5230  0.2857
  190DG     H13 4360   4.353   4.773   0.217  1.0450 -0.3267 -1.2009
  190DG     H14 4361   4.478   4.883   0.198 -0.8784 -1.3593 -1.8421
  190DG     H15 4362   4.424   4.632   0.798 -0.8370 -0.9424 -0.2890
  190DG     H16 4363   4.524   4.556   0.685 -0.4703 -0.3094  3.0040
  190DG     C17 4364   4.443   4.793   0.403  0.1990  0.2442  0.6432
  190DG     C18 4365   4.352   4.660   0.595  1.0720  0.0118 -0.5764
  190DG     O19 4366   4.378   4.673   0.450  0.6462 -0.2927 -0.1030
  190DG     H20 4367   4.370   4.870   0.426 -2.3231 -1.3684 -1.3128
  190DG     H21 4368   4.542   4.805   0.445 -0.5030  0.4441  2.2978
  190DG     H22 4369   4.300   4.565   0.604  2.9054 -0.9840  0.0785
  190DG     H23 4370   4.289   4.749   0.606  0.2726 -0.2793 -2.4044
  191DG      C1 4371   2.158   0.142   4.222 -0.2134  0.5035  0.2588
  191DG      C2 4372   2.611   0.694   4.572 -0.2035 -0.2535 -0.8573
  191DG      H3 4373   2.179   0.048   4.273  1.2210 -0.0936 -1.3584
  191DG      H4 4374   2.152   0.113   4.118 -0.1665 -1.2461  0.7063
  191DG      H5 4375   2.068   0.184   4.266  1.5614  4.1892  0.7579
  191DG      H6 4376   2.663   0.787   4.593 -2.4878  1.1900 -1.2394
  191DG      H7 4377   2.521   0.710   4.512 -2.0664 -0.5076  1.7086
  191DG      H8 4378   2.562   0.664   4.665  0.3101 -1.1697 -0.8719
  191DG      O9 4379   2.254   0.244   4.245 -0.3374 -0.5943  0.0535
  191DG     O10 4380   2.699   0.593   4.523 -0.0522 -0.7019  0.3530
  191DG     C11 4381   2.375   0.212   4.179 -0.2671 -0.2869  0.2071
  191DG     C12 4382   2.642   0.471   4.494 -0.1836 -0.0907  0.3479
  191DG     H13 4383   2.362   0.206   4.071 -1.0632  1.5412  0.1665
  191DG     H14 4384   2.421   0.115   4.202  1.6347  0.5962  0.3115
  191DG     H15 4385   2.564   0.436   4.561 -1.4204  1.6232 -0.1310
  191DG     H16 4386   2.717   0.392   4.503  0.3188  0.2992 -0.2953
  191DG     C17 4387   2.478   0.326   4.200 -0.0371 -0.6241 -0.5681
  191DG     C18 4388   2.592   0.463   4.353 -0.3678 -0.3867 -0.1460
  191DG     O19 4389   2.516   0.341   4.336  0.7775  0.2003 -0.0506
  191DG     H20 4390   2.429   0.419   4.171 -0.2474 -0.6475 -0.3043
  191DG     H21 4391   2.572   0.311   4.147  1.0919  1.6735  0.6541
  191DG     H22 4392   2.521   0.545   4.343 -0.7156 -0.4477  1.5077
  191DG     H23 4393   2.669   0.490   4.281  1.3421 -1.8007  1.0596
  192DG      C1 4394   0.631   5.702   4.538  0.0914  0.3228  0.2172
  192DG      C2 4395   0.780   5.126   4.656 -0.5075 -0.5605  0.2380
  192DG      H3 4396   0.705   5.645   4.481  1.3781  2.7700 -0.7266
  192DG      H4 4397   0.674   5.711   4.637 -1.7678 -0.3735  1.1228
  192DG      H5 4398   0.616   5.796   4.484  1.7531 -1.3214 -3.4870
  192DG      H6 4399   0.794   5.137   4.763 -3.2760 -1.6351  0.8060
  192DG      H7 4400   0.799   5.023   4.627 -1.3763 -0.7806  0.4104
  192DG      H8 4401   0.848   5.198   4.611 -0.8326  0.9540  2.0527
  192DG      O9 4402   0.503   5.629   4.553 -0.4262  0.3990 -0.0472
  192DG     O10 4403   0.649   5.170   4.625  0.1472  0.5026  0.2427
  192DG     C11 4404   0.449   5.597   4.427 -0.1667 -0.2886 -0.0171
  192DG     C12 4405   0.620   5.178   4.490  0.2716  0.9837  0.6909
  192DG     H13 4406   0.520   5.618   4.347 -1.2978  1.2926 -0.6616
  192DG     H14 4407   0.369   5.670   4.415 -0.3504 -0.4857  0.0138
  192DG     H15 4408   0.642   5.081   4.444  1.2345  1.5115 -0.0046
  192DG     H16 4409   0.698   5.245   4.454  3.5604 -1.4749  2.5801
  192DG     C17 4410   0.392   5.453   4.423  0.8984 -0.6434 -0.6989
  192DG     C18 4411   0.477   5.241   4.459  0.1789  0.0651  0.5079
  192DG     O19 4412   0.505   5.371   4.445  0.0406 -0.3328  0.4535
  192DG     H20 4413   0.333   5.441   4.332  0.6145 -1.3046 -0.4372
  192DG     H21 4414   0.317   5.432   4.500  1.0455  1.4243  0.0486
  192DG     H22 4415   0.446   5.202   4.362  0.6502  3.4361 -1.1432
  192DG     H23 4416   0.400   5.226   4.534  0.4643  1.1020  1.0280
  193DG      C1 4417   1.220   1.914   3.366  0.3756  0.0488 -0.1360
  193DG      C2 4418   0.777   1.378   3.059 -0.4747 -0.3127 -0.2564
  193DG      H3 4419   1.142   1.927   3.440 -0.3515 -2.1698 -0.4547
  193DG      H4 4420   1.183   1.976   3.284 -0.6013 -0.7875 -0.3423
  193DG      H5 4421   1.315   1.953   3.404 -0.7481  1.2787  1.5382
  193DG      H6 4422   0.705   1.349   3.135  0.1925  0.3086  0.6345
  193DG      H7 4423   0.731   1.440   2.982 -0.8897  1.0352  1.0248
  193DG      H8 4424   0.808   1.292   2.999 -1.3573 -0.1306 -0.9895
  193DG      O9 4425   1.230   1.780   3.315  0.1294  0.5696 -0.0500
  193DG     O10 4426   0.895   1.436   3.116 -0.2242  0.2844 -0.0880
  193DG     C11 4427   1.266   1.679   3.410 -0.2201  0.1977  0.2217
  193DG     C12 4428   0.965   1.351   3.195 -0.7925  0.4110 -0.2602
  193DG     H13 4429   1.219   1.689   3.508  0.7206 -1.1718  0.8350
  193DG     H14 4430   1.369   1.694   3.442 -0.2759  1.3137 -0.0899
  193DG     H15 4431   0.994   1.261   3.141  0.7077  0.0413  1.0784
  193DG     H16 4432   0.907   1.309   3.277  1.6756  0.4649  1.6264
  193DG     C17 4433   1.245   1.544   3.340 -0.0643 -0.6636  0.2541
  193DG     C18 4434   1.103   1.406   3.230 -0.3293  0.5087 -0.2821
  193DG     O19 4435   1.106   1.529   3.309  0.4385 -0.2386  0.7086
  193DG     H20 4436   1.277   1.472   3.415  0.8135  1.5086  2.0903
  193DG     H21 4437   1.317   1.539   3.259  0.3692  1.7623  0.4094
  193DG     H22 4438   1.139   1.318   3.283 -0.4598  0.9281  0.5154
  193DG     H23 4439   1.150   1.424   3.134 -0.9745  0.0761 -0.6853
  194DG      C1 4440   0.254   1.865   0.509  0.0198  0.2054  0.9095
  194DG      C2 4441   0.636   2.480   0.631  0.1903  0.7689  0.8079
  194DG      H3 4442   0.252   1.770   0.456 -0.2193 -0.6188  2.3703
  194DG      H4 4443   0.171   1.923   0.470  1.2962  2.0385  0.7787
  194DG      H5 4444   0.237   1.835   0.612  1.0824 -2.8331  0.2956
  194DG      H6 4445   0.647   2.448   0.735  2.0871 -1.8367 -0.0919
  194DG      H7 4446   0.725   2.541   0.615  1.8293 -1.5940  0.4089
  194DG      H8 4447   0.552   2.549   0.623  0.4629  0.9315 -0.9650
  194DG      O9 4448   0.382   1.931   0.478  0.0913  0.2378 -0.4108
  194DG     O10 4449   0.616   2.356   0.558  0.1858 -0.2502 -0.1127
  194DG     C11 4450   0.390   1.968   0.339 -0.1327 -0.0556 -0.3692
  194DG     C12 4451   0.625   2.372   0.420 -0.2025 -0.5598  0.1897
  194DG     H13 4452   0.309   2.037   0.314 -0.2573 -0.5759 -1.4580
  194DG     H14 4453   0.362   1.886   0.273 -1.1019  0.0757 -0.1428
  194DG     H15 4454   0.703   2.441   0.388 -0.7609  0.7902  1.5496
  194DG     H16 4455   0.527   2.410   0.393 -1.3495 -2.8661  0.8389
  194DG     C17 4456   0.522   2.029   0.315  0.5970 -0.0977 -0.1711
  194DG     C18 4457   0.637   2.229   0.359  0.8123 -1.2008  0.0350
  194DG     O19 4458   0.527   2.150   0.391 -0.4535  0.1044 -0.3070
  194DG     H20 4459   0.543   2.050   0.210  0.2300 -1.1800 -0.4674
  194DG     H21 4460   0.603   1.964   0.348  0.2407 -0.3294  0.2649
  194DG     H22 4461   0.653   2.236   0.252 -0.1879 -0.5876 -0.0891
  194DG     H23 4462   0.728   2.192   0.407  0.6103 -1.0356  0.5583
  195DG      C1 4463   1.114   0.969   3.120  0.6178  0.0595  0.0832
  195DG      C2 4464   0.427   1.285   3.024 -0.1586 -0.6347 -0.2523
  195DG      H3 4465   1.184   1.012   3.048 -0.0040 -0.7359 -1.0397
  195DG      H4 4466   1.137   0.863   3.130 -2.3870 -0.6608  0.4658
  195DG      H5 4467   1.126   1.025   3.213 -0.6555 -1.5534  1.2637
  195DG      H6 4468   0.464   1.365   2.959  0.0450  0.0383  0.6791
  195DG      H7 4469   0.329   1.254   2.988 -1.6922  2.4406  0.8601
  195DG      H8 4470   0.402   1.323   3.123 -1.7390 -0.8090 -0.5591
  195DG      O9 4471   0.978   0.990   3.084 -0.1712  0.2134 -0.1067
  195DG     O10 4472   0.507   1.174   3.039  0.1280 -0.2846  0.2059
  195DG     C11 4473   0.883   0.937   3.182  0.0144 -0.2126  0.0003
  195DG     C12 4474   0.532   1.096   2.920  0.2460  0.5414 -0.2756
  195DG     H13 4475   0.868   1.022   3.249 -0.9441  0.5341 -1.1182
  195DG     H14 4476   0.919   0.852   3.240  2.2952  0.9113  0.3304
  195DG     H15 4477   0.609   1.135   2.853  0.8107 -1.4797 -0.8899
  195DG     H16 4478   0.436   1.071   2.874 -1.0692 -1.0728  3.0170
  195DG     C17 4479   0.761   0.887   3.105 -0.7756  0.1006 -0.5733
  195DG     C18 4480   0.584   0.966   2.975 -0.0474 -0.1257  0.5337
  195DG     O19 4481   0.697   0.999   3.050 -0.4155 -0.1013  0.9850
  195DG     H20 4482   0.691   0.833   3.169  1.1808 -2.2740 -0.2839
  195DG     H21 4483   0.798   0.821   3.027 -2.7625  0.8700 -2.2499
  195DG     H22 4484   0.517   0.920   3.047  2.3847 -1.5961  1.9948
  195DG     H23 4485   0.600   0.891   2.897 -2.4754  1.1665 -1.3389
  196DG      C1 4486   4.945   0.383   2.134  0.2193 -0.2858  0.8112
  196DG      C2 4487   4.289   0.335   1.574  0.0417  0.0712 -0.9216
  196DG      H3 4488   5.018   0.386   2.053 -0.8538  2.0245 -0.1614
  196DG      H4 4489   4.958   0.281   2.170 -3.5686 -1.1017  0.2721
  196DG      H5 4490   4.980   0.438   2.221  0.5263  1.1541 -0.1786
  196DG      H6 4491   4.206   0.267   1.591 -0.0738 -0.2033 -2.3908
  196DG      H7 4492   4.249   0.423   1.522  1.0595  0.2397 -1.4414
  196DG      H8 4493   4.362   0.286   1.509 -0.0596 -1.8145  0.3092
  196DG      O9 4494   4.818   0.424   2.086 -0.6964  0.1094 -0.0081
  196DG     O10 4495   4.334   0.381   1.703  0.2230 -0.2995 -0.5701
  196DG     C11 4496   4.711   0.358   2.150  0.5596  0.3598  0.0045
  196DG     C12 4497   4.430   0.304   1.772  0.7041 -0.3008  0.1773
  196DG     H13 4498   4.703   0.381   2.256 -2.4933  0.8150 -0.2354
  196DG     H14 4499   4.721   0.250   2.142 -1.5092  0.2031 -0.9691
  196DG     H15 4500   4.529   0.293   1.728  0.2255  1.2166 -1.3770
  196DG     H16 4501   4.391   0.203   1.784  2.3633 -1.2520 -1.9321
  196DG     C17 4502   4.582   0.407   2.091 -0.0658  0.5115  0.8614
  196DG     C18 4503   4.452   0.387   1.902 -0.1321  0.2760  0.1676
  196DG     O19 4504   4.562   0.332   1.969  0.0616 -0.5436 -0.8400
  196DG     H20 4505   4.582   0.516   2.090 -1.2687  0.5807 -2.0148
  196DG     H21 4506   4.502   0.370   2.154 -0.2286 -0.9631 -0.1577
  196DG     H22 4507   4.484   0.488   1.877  0.4732  0.4937  1.6560
  196DG     H23 4508   4.364   0.391   1.966 -0.7734  1.6695 -0.7803
  197DG      C1 4509   4.807   2.092   2.672 -0.1618 -0.4383  0.3294
  197DG      C2 4510   5.279   2.299   2.591 -0.1083  0.0017 -0.5804
  197DG      H3 4511   4.907   2.132   2.689 -0.2336 -0.4995  0.9260
  197DG      H4 4512   4.810   2.030   2.582  3.5296 -0.5343  0.3684
  197DG      H5 4513   4.771   2.025   2.749  0.2699  1.1589  1.9962
  197DG      H6 4514   5.281   2.224   2.512  1.1175 -0.1956 -0.3895
  197DG      H7 4515   5.364   2.364   2.574  1.6386 -2.0658 -0.2649
  197DG      H8 4516   5.303   2.252   2.687  1.6401  0.5675 -0.7051
  197DG      O9 4517   4.709   2.201   2.654  0.4874  0.3787  0.0291
  197DG     O10 4518   5.159   2.371   2.609 -0.2369 -0.3157  0.0443
  197DG     C11 4519   4.704   2.262   2.518  0.0238 -0.2959 -0.3784
  197DG     C12 4520   5.122   2.423   2.484 -0.4560 -0.2204 -0.3892
  197DG     H13 4521   4.643   2.352   2.519 -0.7317 -0.7763 -1.5191
  197DG     H14 4522   4.657   2.188   2.453  1.5050 -0.9334 -0.7629
  197DG     H15 4523   5.128   2.335   2.420  2.9731 -0.1562 -0.3250
  197DG     H16 4524   5.199   2.494   2.454 -0.8828  0.4417  0.0661
  197DG     C17 4525   4.836   2.302   2.457 -0.9977  0.5072 -0.2638
  197DG     C18 4526   4.985   2.487   2.481 -0.0308  0.4042  0.9026
  197DG     O19 4527   4.880   2.407   2.541 -0.3466 -0.2908 -0.9373
  197DG     H20 4528   4.820   2.334   2.353 -1.0806  0.1875 -0.3493
  197DG     H21 4529   4.907   2.220   2.446 -2.6912 -1.5162  2.7184
  197DG     H22 4530   4.986   2.586   2.526  2.7877  1.1585 -0.5657
  197DG     H23 4531   4.951   2.500   2.378  0.2288  1.0096  0.8887
  198DG      C1 4532   2.279   0.730   4.994  0.2344 -0.4250  0.3710
  198DG      C2 4533   2.033   0.108   5.012  0.4587 -0.0819  0.3317
  198DG      H3 4534   2.356   0.672   4.945 -0.4844 -0.2223 -1.0594
  198DG      H4 4535   2.313   0.829   5.025  0.2600  0.0438 -1.0811
  198DG      H5 4536   2.205   0.743   4.914 -0.0397 -1.5576  0.4139
  198DG      H6 4537   1.967   0.130   4.928  0.1462 -0.4008  0.4902
  198DG      H7 4538   2.112   0.041   4.978  0.8612 -0.2070  1.4855
  198DG      H8 4539   1.969   0.037   5.064  0.1053 -0.4948 -0.6321
  198DG      O9 4540   2.226   0.643   5.091  0.1759 -0.3550 -0.5017
  198DG     O10 4541   2.074   0.222   5.090 -0.3070 -0.6834  0.4961
  198DG     C11 4542   2.127   0.697   5.171  0.0713  0.0900 -0.3169
  198DG     C12 4543   1.991   0.244   5.203 -0.1014 -0.0151 -0.1496
  198DG     H13 4544   2.045   0.742   5.115 -1.2404 -0.7196  0.8769
  198DG     H14 4545   2.166   0.785   5.222 -2.2037  0.8960  0.1164
  198DG     H15 4546   2.011   0.151   5.255  1.7840  0.3052 -0.2463
  198DG     H16 4547   1.884   0.257   5.185 -0.0181  0.7587 -0.1436
  198DG     C17 4548   2.091   0.590   5.276 -0.7177 -0.1212  0.7217
  198DG     C18 4549   2.033   0.356   5.289 -0.1105  0.3984 -0.7747
  198DG     O19 4550   2.057   0.466   5.207  0.0323 -0.0713 -0.6492
  198DG     H20 4551   2.031   0.616   5.363  1.1634  0.9507  1.7450
  198DG     H21 4552   2.187   0.582   5.326  0.7680  1.0698 -1.7450
  198DG     H22 4553   1.968   0.387   5.370  1.4562 -0.1225  0.7599
  198DG     H23 4554   2.125   0.336   5.344 -0.7304  1.0648  0.5564
  199DG      C1 4555   5.006   3.443   1.646  0.1727 -0.1826  0.7686
  199DG      C2 4556   5.407   3.150   1.310  0.0850  0.6257  0.0002
  199DG      H3 4557   5.097   3.447   1.706 -0.2161 -0.2912  1.3822
  199DG      H4 4558   4.928   3.473   1.716  2.1894 -0.7672  3.4795
  199DG      H5 4559   5.004   3.513   1.563 -0.8864  0.9406  1.7163
  199DG      H6 4560   5.403   3.222   1.228 -1.0293  1.3466  0.6607
  199DG      H7 4561   5.481   3.171   1.386  1.5820 -1.8361 -0.6582
  199DG      H8 4562   5.464   3.065   1.272 -1.2058  0.4869 -1.8207
  199DG      O9 4563   4.987   3.310   1.594 -0.1234 -0.3153 -0.6341
  199DG     O10 4564   5.277   3.122   1.354 -0.4673  0.5490 -0.3503
  199DG     C11 4565   4.959   3.219   1.703 -0.0109 -0.4890  0.3686
  199DG     C12 4566   5.273   2.998   1.426 -0.2423  0.7000  0.2202
  199DG     H13 4567   4.859   3.242   1.740  0.4760  4.3935 -0.6318
  199DG     H14 4568   5.023   3.233   1.790  0.6025  0.0938 -0.1655
  199DG     H15 4569   5.345   3.016   1.506 -0.7147  0.7474  0.6436
  199DG     H16 4570   5.297   2.909   1.368 -1.2128  1.1500 -0.9278
  199DG     C17 4571   4.981   3.077   1.639 -0.1804 -0.0657 -0.2229
  199DG     C18 4572   5.136   2.975   1.493 -0.4687 -0.1369  0.0893
  199DG     O19 4573   5.095   3.096   1.556  1.0653 -0.1679  0.1279
  199DG     H20 4574   4.896   3.035   1.586 -0.5212  0.2311  0.0837
  199DG     H21 4575   5.009   3.018   1.726 -0.7036 -1.1512 -0.7798
  199DG     H22 4576   5.058   2.953   1.420  0.6260  0.6431 -1.3638
  199DG     H23 4577   5.144   2.888   1.558  1.0156 -0.6946 -0.7912
  200DG      C1 4578   1.802   3.662   3.758  0.3629  0.1328  0.3588
  200DG      C2 4579   2.256   3.182   4.117  0.0094  0.7462  0.2948
  200DG      H3 4580   1.719   3.610   3.710  0.2238  1.2963 -0.7166
  200DG      H4 4581   1.791   3.769   3.739 -0.2653 -0.1733 -1.1791
  200DG      H5 4582   1.807   3.628   3.861  2.2357 -0.6439  0.0563
  200DG      H6 4583   2.161   3.141   4.151 -1.5428  3.7687  0.0248
  200DG      H7 4584   2.319   3.095   4.105 -0.2758  0.3659  1.4331
  200DG      H8 4585   2.287   3.238   4.205 -0.9622  0.4826  0.8146
  200DG      O9 4586   1.929   3.622   3.690  0.1452 -0.2127 -0.6283
  200DG     O10 4587   2.251   3.272   4.007  0.3867 -0.1168  0.4958
  200DG     C11 4588   2.047   3.658   3.749 -0.3182 -0.8151  0.0065
  200DG     C12 4589   2.198   3.225   3.882 -0.0598 -0.3136  0.1642
  200DG     H13 4590   2.036   3.672   3.857 -0.4637 -0.8473 -0.0033
  200DG     H14 4591   2.082   3.751   3.705 -0.3855 -1.9844 -2.7185
  200DG     H15 4592   2.098   3.181   3.892 -0.6931  1.1341  0.3577
  200DG     H16 4593   2.267   3.144   3.858  0.3257 -0.0728  0.4651
  200DG     C17 4594   2.153   3.555   3.727 -0.1495 -0.0594 -0.5927
  200DG     C18 4595   2.230   3.338   3.784 -0.1700  0.0920 -0.0729
  200DG     O19 4596   2.126   3.433   3.794  0.1436  0.3052 -0.1526
  200DG     H20 4597   2.252   3.581   3.764 -1.1673  0.2744  2.0701
  200DG     H21 4598   2.157   3.533   3.620 -2.7333 -1.0653 -0.5643
  200DG     H22 4599   2.332   3.372   3.804 -0.1228  0.7454 -1.3692
  200DG     H23 4600   2.241   3.297   3.684  2.7989  1.5980 -0.4579
  201DG      C1 4601   4.889   3.125   1.252  0.0976 -0.2163 -0.1685
  201DG      C2 4602   5.337   3.548   1.586 -0.0011  0.8454 -0.1537
  201DG      H3 4603   4.866   3.106   1.357 -2.6205  1.3892 -0.3837
  201DG      H4 4604   4.923   3.040   1.193 -1.8468 -1.4161  0.3221
  201DG      H5 4605   4.790   3.151   1.215 -0.0705 -1.5370 -0.7067
  201DG      H6 4606   5.420   3.609   1.550 -1.7379  2.2676 -1.9669
  201DG      H7 4607   5.287   3.600   1.667  0.9636  0.3754  0.7680
  201DG      H8 4608   5.372   3.470   1.653  0.2584  0.6113 -0.5550
  201DG      O9 4609   4.990   3.223   1.243  0.9004  0.3574  0.0062
  201DG     O10 4610   5.254   3.504   1.481  0.0665  0.5497  0.3968
  201DG     C11 4611   5.010   3.284   1.123  0.4905  0.0531 -0.5900
  201DG     C12 4612   5.231   3.607   1.384 -0.2213  0.0076  0.0171
  201DG     H13 4613   4.928   3.355   1.113  2.0891  2.5327  2.3545
  201DG     H14 4614   5.020   3.213   1.041  0.4029 -1.1173  0.3705
  201DG     H15 4615   5.305   3.686   1.396  1.4761 -1.7340  1.6447
  201DG     H16 4616   5.138   3.663   1.396 -0.1058 -0.2496  2.5673
  201DG     C17 4617   5.137   3.363   1.127  0.5673 -0.7267 -0.4115
  201DG     C18 4618   5.225   3.550   1.234 -0.2402 -0.7972 -0.6398
  201DG     O19 4619   5.126   3.450   1.239  0.4063 -0.2151  0.3856
  201DG     H20 4620   5.144   3.418   1.034  1.2066 -2.9289 -1.7463
  201DG     H21 4621   5.220   3.292   1.126  0.6400 -0.6385 -1.1072
  201DG     H22 4622   5.200   3.637   1.173 -1.9000  0.5943  1.8425
  201DG     H23 4623   5.321   3.509   1.203  0.1600  0.5708 -1.2932
  202DG      C1 4624   1.496   2.018   3.629 -0.1139 -0.5083  0.3354
  202DG      C2 4625   1.008   1.813   3.710 -0.3096  0.2302 -0.1069
  202DG      H3 4626   1.459   2.120   3.630  1.8321  0.3711 -3.2201
  202DG      H4 4627   1.417   1.948   3.658 -0.7719 -0.4193 -1.1361
  202DG      H5 4628   1.520   1.996   3.525 -0.4213  0.3780  0.0734
  202DG      H6 4629   1.002   1.852   3.608  0.9440  1.1304  0.1370
  202DG      H7 4630   0.962   1.715   3.706  0.9713 -0.3405 -1.9376
  202DG      H8 4631   0.946   1.879   3.772 -1.2514  0.6603 -1.4591
  202DG      O9 4632   1.618   2.009   3.710 -0.0604 -0.1128 -0.2032
  202DG     O10 4633   1.144   1.815   3.757  0.0071 -0.5862 -0.0503
  202DG     C11 4634   1.586   2.041   3.846 -0.5903 -0.1538 -0.0707
  202DG     C12 4635   1.162   1.795   3.898  0.0487 -0.0037  0.5772
  202DG     H13 4636   1.536   2.136   3.866 -0.3361  0.0674 -0.4745
  202DG     H14 4637   1.686   2.051   3.887 -1.2379  2.4451  1.1111
  202DG     H15 4638   1.120   1.701   3.934  1.6161 -0.8701  0.2024
  202DG     H16 4639   1.125   1.884   3.950  0.8810  1.2585 -0.9106
  202DG     C17 4640   1.523   1.924   3.913 -0.0260  0.7106 -0.3608
  202DG     C18 4641   1.317   1.801   3.933  0.2472 -0.1587  0.0381
  202DG     O19 4642   1.379   1.917   3.883 -0.4033 -0.2724  0.3339
  202DG     H20 4643   1.536   1.929   4.021  0.1897  2.4426 -0.4386
  202DG     H21 4644   1.564   1.830   3.876  1.6920  2.2001 -2.4986
  202DG     H22 4645   1.333   1.785   4.040 -0.2132  1.0906  0.3110
  202DG     H23 4646   1.363   1.716   3.883  1.7318  0.7818 -0.2689
  203DG      C1 4647   0.539   1.736   2.955 -0.6086 -0.1264  0.3334
  203DG      C2 4648  -0.192   1.519   2.878  0.0185 -0.4533  0.1160
  203DG      H3 4649   0.544   1.800   2.867  1.4700 -0.0819  0.4533
  203DG      H4 4650   0.642   1.708   2.977 -0.3470  1.3333  1.0488
  203DG      H5 4651   0.500   1.788   3.042  0.5019  0.6273  0.3890
  203DG      H6 4652  -0.200   1.600   2.806 -0.2281 -0.0102  0.6332
  203DG      H7 4653  -0.201   1.420   2.833  0.3836 -1.0906  1.4051
  203DG      H8 4654  -0.276   1.523   2.947 -0.4120 -2.0689 -0.2668
  203DG      O9 4655   0.465   1.616   2.921  0.3321 -0.1611 -0.1430
  203DG     O10 4656  -0.068   1.524   2.944 -0.5071 -0.2915 -0.6216
  203DG     C11 4657   0.349   1.635   2.843  0.5740  0.1289  0.1481
  203DG     C12 4658  -0.060   1.648   3.020  0.6635  1.0261  0.4354
  203DG     H13 4659   0.314   1.542   2.797 -1.7300  1.5540 -1.1514
  203DG     H14 4660   0.366   1.710   2.766  2.0381  0.4275  0.7184
  203DG     H15 4661  -0.143   1.666   3.089  1.2357 -0.1586  1.4517
  203DG     H16 4662  -0.059   1.733   2.952  1.0778 -0.0451 -0.9431
  203DG     C17 4663   0.224   1.689   2.917 -0.0436  0.4714  0.1086
  203DG     C18 4664   0.075   1.641   3.093 -0.0108  0.2535  0.0534
  203DG     O19 4665   0.184   1.594   3.016  0.4549 -0.4362 -0.1789
  203DG     H20 4666   0.139   1.716   2.856 -0.3903 -1.0775 -0.1426
  203DG     H21 4667   0.259   1.778   2.970  1.2312  1.0836 -1.6502
  203DG     H22 4668   0.098   1.737   3.139  0.1760  0.2814 -0.0971
  203DG     H23 4669   0.073   1.560   3.165  2.7255  0.4822  0.4980
  204DG      C1 4670   4.245   2.502   2.008 -0.5248 -0.2319 -0.6228
  204DG      C2 4671   4.048   1.857   2.256 -0.0463 -0.2536  0.7239
  204DG      H3 4672   4.327   2.571   2.028  0.6451 -1.3645 -1.3509
  204DG      H4 4673   4.190   2.474   2.097 -0.6985 -1.5752 -1.1224
  204DG      H5 4674   4.166   2.555   1.955 -1.3871  1.5259  2.1893
  204DG      H6 4675   3.949   1.901   2.270  0.7001  0.8669  2.8685
  204DG      H7 4676   4.048   1.752   2.227  0.4607  0.0133 -0.2979
  204DG      H8 4677   4.103   1.878   2.347  0.9215  0.3914  0.0123
  204DG      O9 4678   4.286   2.390   1.930  0.1092  0.1112 -0.2697
  204DG     O10 4679   4.088   1.935   2.148 -0.4122  0.1665  0.0139
  204DG     C11 4680   4.179   2.319   1.877  0.5599  1.0217  0.7355
  204DG     C12 4681   4.230   1.923   2.119  0.0116  0.9498 -0.2996
  204DG     H13 4682   4.159   2.366   1.780  2.7462 -1.2933 -0.9830
  204DG     H14 4683   4.081   2.325   1.925  0.3522  1.0995  0.3090
  204DG     H15 4684   4.252   1.817   2.118  1.2941  1.2050 -1.3138
  204DG     H16 4685   4.297   1.969   2.192  1.3137 -1.8116  0.3820
  204DG     C17 4686   4.212   2.166   1.859  0.0565 -0.7696 -0.9492
  204DG     C18 4687   4.263   1.981   1.982  0.5238 -0.2403 -0.1441
  204DG     O19 4688   4.194   2.109   1.985  0.0041 -0.1783  0.6946
  204DG     H20 4689   4.315   2.160   1.823  0.3735  0.1209 -0.2408
  204DG     H21 4690   4.150   2.123   1.781 -0.9086 -0.1885 -0.5083
  204DG     H22 4691   4.370   1.996   1.964  0.6454  1.2506  1.5102
  204DG     H23 4692   4.216   1.918   1.907 -0.1773  0.3772 -0.2327
  205DG      C1 4693   2.662   1.477   2.467 -0.3846 -0.0099  0.0711
  205DG      C2 4694   2.639   1.164   3.274 -0.0030 -0.2749  0.3334
  205DG      H3 4695   2.560   1.477   2.430 -0.5307 -1.3959  0.4461
  205DG      H4 4696   2.721   1.461   2.377 -0.8880 -0.8816 -0.1163
  205DG      H5 4697   2.672   1.576   2.512 -3.4526  0.4118  0.0106
  205DG      H6 4698   2.636   1.091   3.355 -1.6711  0.5263  1.0310
  205DG      H7 4699   2.679   1.255   3.319 -1.1423  0.0731  0.6744
  205DG      H8 4700   2.538   1.193   3.248  0.0834 -0.3577 -0.1039
  205DG      O9 4701   2.680   1.370   2.561  0.7087  0.0573  0.1364
  205DG     O10 4702   2.715   1.119   3.160  0.9359  0.5638  0.4421
  205DG     C11 4703   2.812   1.370   2.614 -0.2754 -0.0354 -0.5388
  205DG     C12 4704   2.710   1.224   3.070  0.6171 -0.3751 -0.0066
  205DG     H13 4705   2.846   1.465   2.657  2.0258 -1.5631  1.2967
  205DG     H14 4706   2.874   1.353   2.526 -2.1680 -0.6004 -1.8323
  205DG     H15 4707   2.752   1.315   3.112  3.3681 -0.9008 -1.3421
  205DG     H16 4708   2.606   1.226   3.040  0.3647 -2.2309  0.6297
  205DG     C17 4709   2.845   1.270   2.729 -0.1145  0.1706 -0.0411
  205DG     C18 4710   2.790   1.183   2.942 -0.4169  0.4666  0.0225
  205DG     O19 4711   2.769   1.277   2.837  0.4769 -0.1451  0.2138
  205DG     H20 4712   2.945   1.291   2.766 -0.6562 -0.2326  1.7221
  205DG     H21 4713   2.846   1.164   2.701  0.9724  0.7563 -2.4480
  205DG     H22 4714   2.897   1.170   2.961 -0.0062  0.2650 -2.2036
  205DG     H23 4715   2.750   1.083   2.921  1.4661 -0.3545  0.1510
  206DG      C1 4716   1.962   4.141   0.057  0.0682 -0.1566 -0.5888
  206DG      C2 4717   1.947   4.124   0.785 -0.1124  0.4825 -0.3778
  206DG      H3 4718   1.901   4.103  -0.024  2.4899  0.8166 -3.0196
  206DG      H4 4719   2.057   4.088   0.051  0.7795  1.0757 -0.4512
  206DG      H5 4720   1.981   4.248   0.056 -3.8804  0.7124 -0.0459
  206DG      H6 4721   2.056   4.116   0.787 -0.1489 -1.2030 -2.0199
  206DG      H7 4722   1.927   4.224   0.825 -0.5191 -0.3481  1.5926
  206DG      H8 4723   1.907   4.057   0.859 -0.5226  1.0158 -0.1111
  206DG      O9 4724   1.892   4.112   0.180 -0.1791  0.0253 -0.3844
  206DG     O10 4725   1.884   4.109   0.658 -0.0153  0.1274  0.4150
  206DG     C11 4726   1.750   4.123   0.180  0.1626  0.5651  0.8430
  206DG     C12 4727   1.744   4.134   0.672  0.3244 -0.4397  0.1040
  206DG     H13 4728   1.721   4.061   0.095  0.8718  1.3314  0.0224
  206DG     H14 4729   1.729   4.227   0.154  2.7421  0.8652 -0.3360
  206DG     H15 4730   1.724   4.239   0.692  0.2362 -0.7001  1.4448
  206DG     H16 4731   1.699   4.077   0.753  1.2547  0.4535  1.2783
  206DG     C17 4732   1.678   4.084   0.307 -0.2683 -0.2939 -0.5830
  206DG     C18 4733   1.671   4.075   0.547  0.9174 -0.8237  0.0370
  206DG     O19 4734   1.736   4.129   0.431 -0.1635  0.2277  0.1114
  206DG     H20 4735   1.671   3.976   0.306  0.4569 -0.3664  0.2431
  206DG     H21 4736   1.571   4.099   0.291 -0.5128 -1.1632  0.1387
  206DG     H22 4737   1.667   3.966   0.552 -0.4212 -0.8100 -0.3507
  206DG     H23 4738   1.564   4.098   0.550  0.9750 -0.3075 -1.4349
  207DG      C1 4739   1.502   2.400   4.266 -0.4001 -0.2391 -0.0272
  207DG      C2 4740   1.563   2.057   4.836 -0.0643 -0.3908 -0.0036
  207DG      H3 4741   1.452   2.398   4.362  1.8637  0.3945  1.2560
  207DG      H4 4742   1.445   2.385   4.174  1.3702  1.5767 -1.5536
  207DG      H5 4743   1.545   2.500   4.274 -0.3923 -0.1632 -0.8681
  207DG      H6 4744   1.635   2.024   4.911  0.0688 -2.2344 -0.8906
  207DG      H7 4745   1.593   2.161   4.825 -2.7149  0.2824 -1.6732
  207DG      H8 4746   1.460   2.051   4.874  0.4868 -0.9958  1.4820
  207DG      O9 4747   1.602   2.301   4.296 -0.2644 -0.6391 -0.0310
  207DG     O10 4748   1.576   1.994   4.709  0.6987  0.4125 -0.8761
  207DG     C11 4749   1.568   2.172   4.251  0.0394 -0.1659  0.4048
  207DG     C12 4750   1.709   1.985   4.668 -0.0280  0.6847  0.2006
  207DG     H13 4751   1.561   2.171   4.142  2.5938  1.0165  0.1457
  207DG     H14 4752   1.470   2.139   4.286 -0.1438  1.1420  1.2124
  207DG     H15 4753   1.758   1.900   4.716 -2.0642 -0.9619 -0.4575
  207DG     H16 4754   1.762   2.072   4.706 -1.2040  1.4054  0.2719
  207DG     C17 4755   1.673   2.074   4.301  0.3723  0.0507  0.0609
  207DG     C18 4756   1.731   1.972   4.515  0.2191 -0.3856  0.2740
  207DG     O19 4757   1.659   2.069   4.444 -0.4487 -0.0992 -0.5534
  207DG     H20 4758   1.774   2.082   4.262 -0.3849 -0.4873 -2.1177
  207DG     H21 4759   1.638   1.976   4.269  2.2446 -0.2817 -1.1090
  207DG     H22 4760   1.837   1.985   4.494  0.1651  1.7587  1.0951
  207DG     H23 4761   1.693   1.874   4.486  1.6995 -1.5237  1.9897
  208DG      C1 4762   3.523   1.230   3.265  0.2392  0.5968  0.0818
  208DG      C2 4763   4.036   1.312   2.931 -0.8181 -0.5117 -0.0417
  208DG      H3 4764   3.613   1.197   3.318 -0.1633 -0.5388  0.0930
  208DG      H4 4765   3.444   1.159   3.292  0.9922  0.5413  2.3568
  208DG      H5 4766   3.495   1.328   3.304 -0.8672  0.3585 -0.0770
  208DG      H6 4767   4.084   1.233   2.988  1.5007  1.3534  0.7255
  208DG      H7 4768   4.107   1.356   2.861  0.0518 -2.6791 -0.5890
  208DG      H8 4769   4.036   1.387   3.011  1.3231 -2.2300  1.7111
  208DG      O9 4770   3.553   1.228   3.123 -0.7666  0.6351  0.0029
  208DG     O10 4771   3.911   1.284   2.888  0.6697  0.0964 -0.1062
  208DG     C11 4772   3.443   1.272   3.046  0.1787  0.8852  0.7172
  208DG     C12 4773   3.856   1.386   2.820  0.0407  0.0781  0.5626
  208DG     H13 4774   3.386   1.356   3.087 -0.2985  1.7298 -1.5044
  208DG     H14 4775   3.379   1.184   3.040  1.2835  0.0705  0.4628
  208DG     H15 4776   3.909   1.415   2.730  0.0628  1.6039  1.0384
  208DG     H16 4777   3.855   1.481   2.874  1.7004  1.0544 -1.0298
  208DG     C17 4778   3.505   1.299   2.909 -0.4942  0.2109  0.0688
  208DG     C18 4779   3.706   1.347   2.803  0.6189 -1.2920 -0.0071
  208DG     O19 4780   3.632   1.355   2.925 -0.1451  0.0978 -0.6383
  208DG     H20 4781   3.446   1.364   2.844 -1.1067  1.0472  1.4148
  208DG     H21 4782   3.516   1.197   2.870 -0.0334 -0.5868  2.1709
  208DG     H22 4783   3.656   1.418   2.737  0.3147 -1.1231  0.4044
  208DG     H23 4784   3.693   1.253   2.750 -1.9284 -1.1911  0.3244
  209DG      C1 4785   2.873   2.109   3.031  0.0249  0.3913 -0.1418
  209DG      C2 4786   3.134   2.662   2.812  0.1323  0.5401 -0.7787
  209DG      H3 4787   2.840   2.055   2.942  1.0029  0.4739 -0.5626
  209DG      H4 4788   2.828   2.067   3.121  2.3196 -0.0590  0.8677
  209DG      H5 4789   2.981   2.096   3.037 -0.0975 -0.5785  0.1048
  209DG      H6 4790   3.176   2.705   2.721 -0.6203  0.1475 -1.3223
  209DG      H7 4791   3.095   2.751   2.862  1.1567 -0.0904  1.2702
  209DG      H8 4792   3.215   2.612   2.864 -0.9316 -1.0552 -0.5844
  209DG      O9 4793   2.857   2.247   3.011  0.5912 -0.5715 -0.5526
  209DG     O10 4794   3.042   2.556   2.790  0.4246 -0.3175  0.2787
  209DG     C11 4795   2.719   2.281   2.986 -0.4466  0.3068 -0.6617
  209DG     C12 4796   2.921   2.599   2.726 -0.0903 -0.2090  0.6802
  209DG     H13 4797   2.662   2.241   3.070  1.2747 -1.9186 -0.4599
  209DG     H14 4798   2.685   2.223   2.900  1.7355 -0.8260 -0.8388
  209DG     H15 4799   2.915   2.528   2.643 -0.2851  1.4904 -0.8078
  209DG     H16 4800   2.925   2.698   2.681 -3.8606  0.1020  0.7004
  209DG     C17 4801   2.708   2.434   2.970  0.2842  0.4394 -0.3653
  209DG     C18 4802   2.803   2.592   2.822 -0.1446  0.2697 -0.0790
  209DG     O19 4803   2.813   2.468   2.884  0.1679 -0.0888 -0.4371
  209DG     H20 4804   2.731   2.485   3.064 -2.2344  0.3632  0.3539
  209DG     H21 4805   2.610   2.456   2.928 -0.8979 -0.6649  1.6618
  209DG     H22 4806   2.808   2.664   2.903 -1.4439  1.0360 -0.6529
  209DG     H23 4807   2.708   2.614   2.774  0.4641  1.6493 -0.6800
  210DG      C1 4808   4.433   2.558   3.651  0.1432  0.4612 -0.2698
  210DG      C2 4809   4.487   1.984   3.819 -0.5548  0.1998 -0.2573
  210DG      H3 4810   4.333   2.536   3.616 -1.0710  2.3764  1.7714
  210DG      H4 4811   4.454   2.646   3.591 -1.0109  1.0161  0.1135
  210DG      H5 4812   4.421   2.570   3.759  0.0513  1.2651 -0.3628
  210DG      H6 4813   4.531   1.885   3.821  0.4344  0.5997 -1.1899
  210DG      H7 4814   4.463   2.015   3.921  0.0175 -0.7814  0.1886
  210DG      H8 4815   4.394   1.973   3.763 -0.3638 -0.4161 -0.4566
  210DG      O9 4816   4.530   2.456   3.635 -0.5938  0.0157 -0.0271
  210DG     O10 4817   4.584   2.069   3.759  0.0602 -0.3468 -0.3210
  210DG     C11 4818   4.658   2.506   3.666  0.5194 -0.1492 -0.3911
  210DG     C12 4819   4.709   2.064   3.831  0.3534 -0.0226  0.4999
  210DG     H13 4820   4.658   2.555   3.764  0.3611 -0.1816 -0.3747
  210DG     H14 4821   4.686   2.586   3.598  1.8859 -0.7536 -0.5697
  210DG     H15 4822   4.754   1.966   3.815 -0.1810 -0.2795  0.5196
  210DG     H16 4823   4.702   2.073   3.940  0.4929 -0.6929  0.5665
  210DG     C17 4824   4.763   2.395   3.667 -0.0977  0.5986  0.9637
  210DG     C18 4825   4.794   2.176   3.767  0.0254 -0.2838  0.0763
  210DG     O19 4826   4.710   2.289   3.746  0.6887 -0.2837 -0.1921
  210DG     H20 4827   4.857   2.434   3.707 -0.2405  1.6858  0.2886
  210DG     H21 4828   4.787   2.363   3.565  1.1320  0.4221  1.2881
  210DG     H22 4829   4.877   2.191   3.836  0.5663 -3.6570  0.3300
  210DG     H23 4830   4.838   2.139   3.674  0.7763  1.4022 -0.2664
  211DG      C1 4831   4.367   2.417   5.297 -0.6434  0.5338 -0.4374
  211DG      C2 4832   3.715   2.543   5.228  1.0890  0.4345 -0.0469
  211DG      H3 4833   4.382   2.524   5.283  2.8832  0.1892 -0.2867
  211DG      H4 4834   4.460   2.369   5.267  0.4804  2.1603  0.2910
  211DG      H5 4835   4.359   2.406   5.405  0.9471 -0.3754 -0.3840
  211DG      H6 4836   3.632   2.521   5.160  0.5044 -0.9174  1.0332
  211DG      H7 4837   3.685   2.544   5.333  1.2392 -1.1700  0.0386
  211DG      H8 4838   3.757   2.641   5.211 -0.1552  0.9907 -0.0453
  211DG      O9 4839   4.260   2.366   5.213 -0.4069  0.9913 -0.2410
  211DG     O10 4840   3.809   2.438   5.205  0.8405  0.0397  0.7896
  211DG     C11 4841   4.230   2.233   5.257 -0.1236  0.4724  0.4218
  211DG     C12 4842   3.758   2.309   5.236  0.1245 -1.1535  0.3355
  211DG     H13 4843   4.218   2.215   5.364  1.5688  1.8289  0.8887
  211DG     H14 4844   4.312   2.168   5.228  0.2714  0.9907  0.3686
  211DG     H15 4845   3.663   2.289   5.188  0.5237  0.6929 -1.3661
  211DG     H16 4846   3.743   2.313   5.344  3.3852  0.0001  0.8751
  211DG     C17 4847   4.095   2.186   5.184 -0.0070 -0.5562  0.0882
  211DG     C18 4848   3.863   2.207   5.215 -0.0033  0.3786 -0.4325
  211DG     O19 4849   3.991   2.261   5.243 -0.0116 -0.0432 -0.2676
  211DG     H20 4850   4.078   2.080   5.199  0.6959 -0.6658  0.1363
  211DG     H21 4851   4.092   2.208   5.077  0.8143 -1.1610 -0.0673
  211DG     H22 4852   3.853   2.122   5.283  0.7584  1.6199  1.3152
  211DG     H23 4853   3.858   2.169   5.113  2.0601  0.3955 -0.5803
  212DG      C1 4854   3.407   0.469   1.672 -0.2786  0.7124  0.5837
  212DG      C2 4855   3.491   0.366   1.076  0.1603  0.1119 -1.1639
  212DG      H3 4856   3.464   0.560   1.659 -0.5460  1.0300  1.5536
  212DG      H4 4857   3.406   0.439   1.777 -0.0370  1.5138  0.8199
  212DG      H5 4858   3.305   0.482   1.637 -0.2554  0.0789  0.2609
  212DG      H6 4859   3.469   0.297   0.995 -0.4116 -0.4393 -0.5593
  212DG      H7 4860   3.404   0.430   1.089  0.7261  0.6143  0.4839
  212DG      H8 4861   3.562   0.441   1.042 -1.4174  1.4347 -1.6764
  212DG      O9 4862   3.474   0.373   1.591  0.2067  0.1312  0.6645
  212DG     O10 4863   3.512   0.292   1.198  0.4242 -0.4658  0.3675
  212DG     C11 4864   3.613   0.370   1.622 -0.2635  0.4795 -0.0022
  212DG     C12 4865   3.643   0.233   1.192 -0.0246  0.0757 -0.6234
  212DG     H13 4866   3.648   0.351   1.723 -1.9287  1.9652  0.9247
  212DG     H14 4867   3.663   0.459   1.582 -0.1112  0.3862 -0.0184
  212DG     H15 4868   3.716   0.309   1.166  1.2288 -0.5990  0.7757
  212DG     H16 4869   3.636   0.148   1.124  1.9350  0.8288 -1.8450
  212DG     C17 4870   3.665   0.241   1.560  0.2624 -0.7535 -0.2843
  212DG     C18 4871   3.675   0.174   1.332  0.0913  0.5076  0.2599
  212DG     O19 4872   3.639   0.279   1.424 -0.1904 -0.1628 -0.0551
  212DG     H20 4873   3.623   0.146   1.595 -1.5655  1.1425  3.2176
  212DG     H21 4874   3.773   0.245   1.573  0.6381  1.2632 -3.2025
  212DG     H22 4875   3.630   0.076   1.349  0.5360 -0.0116 -1.3764
  212DG     H23 4876   3.784   0.171   1.333  0.1252 -1.9111 -1.6971
  213DG      C1 4877   5.071   1.844   2.864  0.3874 -0.4376 -0.1713
  213DG      C2 4878   4.999   1.401   2.620  0.2334  0.0637 -1.0874
  213DG      H3 4879   5.152   1.889   2.921 -0.6748 -0.6700  1.5876
  213DG      H4 4880   5.092   1.737   2.863  0.9124 -0.3729  1.5434
  213DG      H5 4881   4.978   1.859   2.919  1.4090 -0.0806  1.5046
  213DG      H6 4882   4.934   1.390   2.534 -1.0821 -0.1553 -0.0974
  213DG      H7 4883   5.050   1.305   2.615  1.6018  0.7543 -0.9413
  213DG      H8 4884   4.931   1.407   2.705  1.6836 -1.8449  0.2997
  213DG      O9 4885   5.048   1.905   2.738  0.2037 -0.1675 -0.3108
  213DG     O10 4886   5.070   1.526   2.613  0.1525 -0.3303  0.0537
  213DG     C11 4887   5.156   1.944   2.652  0.7467 -0.5720 -0.4991
  213DG     C12 4888   5.125   1.555   2.485  0.3541 -0.3760 -0.8842
  213DG     H13 4889   5.244   1.891   2.685  2.0915  0.5459 -2.1127
  213DG     H14 4890   5.188   2.045   2.677  0.2685 -0.5687  0.1174
  213DG     H15 4891   5.051   1.547   2.405 -0.0090 -1.2284 -0.4765
  213DG     H16 4892   5.210   1.494   2.455 -0.3031 -0.9396 -1.6555
  213DG     C17 4893   5.110   1.928   2.511  0.3936  0.3291  0.0690
  213DG     C18 4894   5.184   1.699   2.488 -0.0113 -0.5517  0.1165
  213DG     O19 4895   5.075   1.794   2.495 -0.4486  0.2583 -0.2950
  213DG     H20 4896   5.197   1.954   2.450 -0.9089  1.0760 -1.5511
  213DG     H21 4897   5.022   1.991   2.496 -0.4293 -0.8170  0.0166
  213DG     H22 4898   5.251   1.703   2.574 -0.2081  3.2061  0.2589
  213DG     H23 4899   5.246   1.718   2.401  0.0737  0.9401  0.4705
  214DG      C1 4900   1.395   1.232   4.046 -0.0208  0.3955 -1.1800
  214DG      C2 4901   1.344   0.398   4.335 -0.4307  0.0075 -0.1599
  214DG      H3 4902   1.298   1.187   4.026 -1.4372  1.4146  2.5604
  214DG      H4 4903   1.482   1.200   3.988  0.3222  1.4232 -1.2538
  214DG      H5 4904   1.385   1.340   4.044  0.7984  0.5181  0.2184
  214DG      H6 4905   1.429   0.408   4.402  0.4246  0.6927 -1.3233
  214DG      H7 4906   1.288   0.326   4.396 -1.1499  0.9333  0.3044
  214DG      H8 4907   1.382   0.357   4.242 -2.6075  0.1753 -1.1993
  214DG      O9 4908   1.444   1.197   4.184 -0.4784 -0.3554 -0.3055
  214DG     O10 4909   1.264   0.512   4.315 -0.4536 -0.5504 -0.6642
  214DG     C11 4910   1.470   1.063   4.207 -0.8425 -0.5374 -0.0815
  214DG     C12 4911   1.340   0.623   4.264  0.3538  0.8455 -0.1012
  214DG     H13 4912   1.518   1.055   4.304 -1.0682 -0.4182  0.0412
  214DG     H14 4913   1.534   1.025   4.127 -0.8011 -1.0711  0.2030
  214DG     H15 4914   1.387   0.609   4.166  2.8377  3.1218  0.6488
  214DG     H16 4915   1.423   0.637   4.333  0.2346  0.1544  0.1883
  214DG     C17 4916   1.339   0.988   4.225  0.2680  0.1288 -0.2784
  214DG     C18 4917   1.270   0.755   4.253 -0.4922 -0.1650 -0.0510
  214DG     O19 4918   1.378   0.849   4.237 -0.4402  0.0540 -0.4714
  214DG     H20 4919   1.266   1.007   4.146  0.6811  2.4355 -0.1971
  214DG     H21 4920   1.291   1.010   4.320  1.9450  0.3389  0.5492
  214DG     H22 4921   1.205   0.756   4.166  0.7536 -0.4456 -0.9972
  214DG     H23 4922   1.208   0.768   4.343 -0.1680 -1.6927  0.4207
  215DG      C1 4923   1.877   0.692   3.020 -0.7344  0.1904 -0.5496
  215DG      C2 4924   1.929   0.328   3.584 -0.5063 -0.7813  0.1455
  215DG      H3 4925   1.974   0.741   3.030 -2.1377  2.9468  0.8028
  215DG      H4 4926   1.830   0.755   2.945  2.9462  2.3852 -1.2596
  215DG      H5 4927   1.881   0.601   2.961 -3.7335  1.2031 -2.5752
  215DG      H6 4928   1.889   0.298   3.681  0.0965 -0.0627  0.6232
  215DG      H7 4929   1.906   0.247   3.514 -2.7849  1.0370 -1.3714
  215DG      H8 4930   2.037   0.338   3.584 -0.6253  0.6803 -0.8717
  215DG      O9 4931   1.825   0.675   3.149  0.4634 -0.5304 -0.2239
  215DG     O10 4932   1.879   0.451   3.536 -0.5268 -0.1352  0.1039
  215DG     C11 4933   1.851   0.794   3.223 -0.2266  0.3268 -0.8342
  215DG     C12 4934   1.933   0.562   3.623 -0.3599  0.3503  0.6267
  215DG     H13 4935   1.814   0.884   3.174  0.9685  1.2106 -0.1775
  215DG     H14 4936   1.958   0.818   3.218 -0.1000 -0.0471 -0.0706
  215DG     H15 4937   2.041   0.557   3.606 -0.8831 -1.8644 -3.0442
  215DG     H16 4938   1.908   0.537   3.726  0.1161 -3.6095 -0.0646
  215DG     C17 4939   1.793   0.782   3.359  0.0704  0.3122 -0.0931
  215DG     C18 4940   1.884   0.693   3.575 -0.9957 -0.3220  0.1842
  215DG     O19 4941   1.884   0.694   3.430  0.0670 -0.4663 -0.3394
  215DG     H20 4942   1.687   0.755   3.362 -0.1577  1.1995  1.4887
  215DG     H21 4943   1.788   0.883   3.401  1.2173  0.0231  0.7883
  215DG     H22 4944   1.779   0.697   3.601 -0.6689 -1.2150  1.7654
  215DG     H23 4945   1.931   0.779   3.622 -0.9055  0.4057 -1.1713
  216DG      C1 4946   1.547   2.659   3.962 -0.1646 -0.1373  0.7492
  216DG      C2 4947   2.186   2.807   3.878 -0.3250 -0.3930  0.0751
  216DG      H3 4948   1.445   2.684   3.933  1.6418  2.5853 -4.5932
  216DG      H4 4949   1.586   2.727   4.038 -0.3953 -0.8507  1.5185
  216DG      H5 4950   1.561   2.568   4.021 -1.4794 -0.6470  0.3184
  216DG      H6 4951   2.282   2.794   3.828  0.5843  0.1404  1.6091
  216DG      H7 4952   2.191   2.914   3.897 -0.4563 -0.4905  0.6987
  216DG      H8 4953   2.200   2.754   3.972 -0.2863  0.7703  0.7417
  216DG      O9 4954   1.622   2.660   3.846 -0.1594 -0.0711 -0.2917
  216DG     O10 4955   2.068   2.776   3.802  0.1812 -0.2763  0.1203
  216DG     C11 4956   1.593   2.770   3.770 -0.2398  0.0220  0.6783
  216DG     C12 4957   2.057   2.862   3.687  0.0934 -0.3777  0.7012
  216DG     H13 4958   1.579   2.863   3.826  0.4657  0.5011  0.0665
  216DG     H14 4959   1.494   2.741   3.735 -0.0828  0.0948  0.1640
  216DG     H15 4960   2.143   2.869   3.620  1.4971 -0.9300  2.3778
  216DG     H16 4961   2.049   2.967   3.717 -1.4159 -0.4183  0.5119
  216DG     C17 4962   1.696   2.799   3.662  0.2029 -0.4243  0.8901
  216DG     C18 4963   1.926   2.836   3.611  0.2958 -0.2771 -0.2884
  216DG     O19 4964   1.833   2.780   3.704  0.2539 -0.2966 -0.0873
  216DG     H20 4965   1.684   2.899   3.620  1.5529 -0.9655 -0.9031
  216DG     H21 4966   1.677   2.730   3.580  0.5991 -0.3923  0.7687
  216DG     H22 4967   1.897   2.934   3.573  0.9810  0.1485  0.2558
  216DG     H23 4968   1.952   2.768   3.530  0.7672 -0.8554  0.3393
  217DG      C1 4969   0.193   1.633   0.074  0.1245 -0.2473 -0.5695
  217DG      C2 4970   0.785   1.388   0.416 -0.0885  0.7489 -0.1895
  217DG      H3 4971   0.119   1.584   0.137 -1.4257 -0.2506 -2.3191
  217DG      H4 4972   0.145   1.718   0.027 -0.8539 -1.1043 -1.1578
  217DG      H5 4973   0.275   1.680   0.129  0.2280 -1.2478  0.1564
  217DG      H6 4974   0.752   1.284   0.402  0.4766  0.4222  0.8351
  217DG      H7 4975   0.886   1.405   0.454 -0.4924  3.2626 -0.0788
  217DG      H8 4976   0.728   1.433   0.497  1.4419 -0.5510  1.7071
  217DG      O9 4977   0.228   1.537  -0.027  0.1780  0.1785 -0.1900
  217DG     O10 4978   0.753   1.459   0.303 -0.5238  0.6154  0.0519
  217DG     C11 4979   0.310   1.427   0.021 -0.1768 -0.5937  0.4328
  217DG     C12 4980   0.614   1.472   0.284  0.3467 -0.6342 -0.1434
  217DG     H13 4981   0.296   1.342  -0.045 -1.0371  0.6322 -1.0267
  217DG     H14 4982   0.297   1.405   0.127  2.2845  0.0535  0.9300
  217DG     H15 4983   0.554   1.530   0.353  1.3674 -0.6894  0.8158
  217DG     H16 4984   0.563   1.376   0.276 -1.5897  0.4750 -2.3562
  217DG     C17 4985   0.462   1.455   0.016  0.8230 -0.3443 -0.1158
  217DG     C18 4986   0.619   1.555   0.151  0.0142 -0.0969  0.0951
  217DG     O19 4987   0.491   1.567   0.099 -0.5119 -0.1301  0.0225
  217DG     H20 4988   0.498   1.465  -0.087  0.7779 -0.8147 -0.1799
  217DG     H21 4989   0.506   1.363   0.054  1.1400  0.0759  0.5303
  217DG     H22 4990   0.653   1.655   0.178  2.8006 -1.2182  1.1683
  217DG     H23 4991   0.692   1.523   0.076 -2.1415 -1.5365 -1.5250
  218DG      C1 4992   2.427   4.691   2.253 -0.0522  0.1732  0.3743
  218DG      C2 4993   2.661   4.138   2.286 -0.4462 -0.4982 -0.1229
  218DG      H3 4994   2.376   4.786   2.270 -0.9623  0.3694 -2.8473
  218DG      H4 4995   2.351   4.621   2.288 -0.9145 -0.4998 -2.5538
  218DG      H5 4996   2.441   4.666   2.148  1.3815 -1.8600  0.9821
  218DG      H6 4997   2.741   4.064   2.288 -1.3651 -1.5042  0.4459
  218DG      H7 4998   2.581   4.095   2.346 -0.0670 -0.1865  0.6204
  218DG      H8 4999   2.612   4.150   2.189 -1.2490  1.9474  0.5053
  218DG      O9 5000   2.555   4.680   2.314  0.9262 -0.2583 -0.4790
  218DG     O10 5001   2.705   4.267   2.337  0.2717 -0.0488  0.1845
  218DG     C11 5002   2.542   4.676   2.455  0.2784 -0.1806 -0.0743
  218DG     C12 5003   2.763   4.267   2.466 -0.5825  0.5490 -0.3021
  218DG     H13 5004   2.452   4.629   2.495 -0.5958  0.6226 -1.0450
  218DG     H14 5005   2.530   4.781   2.480 -2.1566 -0.4081 -0.0323
  218DG     H15 5006   2.849   4.201   2.480 -2.0105 -0.9965  1.8748
  218DG     H16 5007   2.686   4.226   2.531  1.1056 -2.0727  0.2027
  218DG     C17 5008   2.666   4.610   2.509 -0.6549 -0.0932 -0.5937
  218DG     C18 5009   2.785   4.413   2.518  0.1297  0.1757  0.5192
  218DG     O19 5010   2.667   4.476   2.462  0.0143  0.0931  0.0302
  218DG     H20 5011   2.659   4.611   2.618 -1.6785 -0.7678 -0.6417
  218DG     H21 5012   2.756   4.665   2.480 -0.1679 -0.8900 -0.6355
  218DG     H22 5013   2.793   4.419   2.627  3.7889 -2.7157  0.6236
  218DG     H23 5014   2.874   4.461   2.477  0.7424 -1.7515 -0.5158
  219DG      C1 5015   1.300   3.626   3.550 -0.0989 -0.0291 -0.6994
  219DG      C2 5016   1.228   4.046   4.197 -0.5301  0.8357 -0.0398
  219DG      H3 5017   1.232   3.617   3.464 -0.7194  0.4848 -0.2700
  219DG      H4 5018   1.259   3.555   3.621  0.1823  1.6121  1.1751
  219DG      H5 5019   1.401   3.597   3.522  0.8142  0.9972  1.3268
  219DG      H6 5020   1.164   4.133   4.186  2.2282  3.0336  0.2424
  219DG      H7 5021   1.195   3.957   4.251 -0.7308  0.0174 -1.4548
  219DG      H8 5022   1.323   4.090   4.228  0.9074 -1.6337 -0.5948
  219DG      O9 5023   1.316   3.762   3.584 -0.1553  1.0043  0.4302
  219DG     O10 5024   1.244   4.010   4.057 -0.0827  0.3852 -0.5490
  219DG     C11 5025   1.204   3.816   3.646 -0.0338  0.1422 -0.2397
  219DG     C12 5026   1.306   4.106   3.977 -0.2007  0.0089  0.1593
  219DG     H13 5027   1.175   3.755   3.731  0.0103 -1.5213 -1.3739
  219DG     H14 5028   1.117   3.800   3.583 -0.9847 -1.5947  1.4207
  219DG     H15 5029   1.373   4.172   4.033 -1.2592  2.1334 -0.9589
  219DG     H16 5030   1.230   4.173   3.938  0.4465  0.2237 -0.7794
  219DG     C17 5031   1.234   3.951   3.711 -0.3075 -0.1103 -0.0660
  219DG     C18 5032   1.392   4.051   3.865 -0.5060  0.7104  0.6042
  219DG     O19 5033   1.339   3.926   3.807 -0.9736 -0.5798 -0.1208
  219DG     H20 5034   1.148   3.999   3.758  0.7546 -0.2955  2.1891
  219DG     H21 5035   1.270   4.018   3.633  0.9153 -1.1061 -0.3927
  219DG     H22 5036   1.405   4.121   3.781 -2.8491 -2.0798 -2.3408
  219DG     H23 5037   1.492   4.026   3.899 -1.4432 -2.0603  1.5923
  220DG      C1 5038   4.756   0.276   5.570 -0.0410 -0.0997  0.5672
  220DG      C2 5039   4.311   0.592   4.955 -0.3250  0.2072 -0.1991
  220DG      H3 5040   4.863   0.257   5.575 -0.0478 -0.1352  0.5734
  220DG      H4 5041   4.693   0.220   5.639 -0.6199  2.1040  1.9482
  220DG      H5 5042   4.745   0.380   5.603  0.0115  0.0442  0.1392
  220DG      H6 5043   4.254   0.575   4.864 -1.3049 -0.2906  0.4951
  220DG      H7 5044   4.241   0.601   5.037  0.1021 -1.0606  0.3425
  220DG      H8 5045   4.357   0.690   4.961 -1.1729  0.5555  0.8361
  220DG      O9 5046   4.733   0.245   5.436 -0.5156  0.0885  0.0987
  220DG     O10 5047   4.402   0.496   4.991 -0.2277  0.9828  0.3549
  220DG     C11 5048   4.597   0.256   5.390 -0.4328 -0.4394  0.0289
  220DG     C12 5049   4.343   0.367   4.989 -0.8058 -0.6914  0.3026
  220DG     H13 5050   4.562   0.358   5.404 -0.3661 -0.4429  0.2295
  220DG     H14 5051   4.525   0.198   5.447 -1.6996  0.3200 -0.7689
  220DG     H15 5052   4.321   0.338   4.886 -2.5432  0.9503  0.1606
  220DG     H16 5053   4.252   0.366   5.048 -0.9066  0.7483  0.2085
  220DG     C17 5054   4.597   0.225   5.240  0.5111  0.0148 -0.2312
  220DG     C18 5055   4.448   0.267   5.054 -0.4615  0.1780 -0.2482
  220DG     O19 5056   4.491   0.300   5.188 -0.1593 -0.4773  0.6047
  220DG     H20 5057   4.607   0.117   5.222 -1.4884 -0.6733  2.2687
  220DG     H21 5058   4.686   0.272   5.198  1.1670 -1.3954 -0.4918
  220DG     H22 5059   4.388   0.176   5.059  1.8229 -1.3849  0.7504
  220DG     H23 5060   4.536   0.254   4.991  0.0600  0.5277  0.3879
  221DG      C1 5061   3.516   3.626   2.958  0.2039 -0.2316  0.5034
  221DG      C2 5062   4.195   3.254   3.251 -0.4623 -0.2127 -0.1039
  221DG      H3 5063   3.447   3.642   2.875  1.0629  2.0426  0.1822
  221DG      H4 5064   3.591   3.705   2.959  1.6484 -1.5617  1.2364
  221DG      H5 5065   3.455   3.643   3.046 -1.5712 -3.6561  0.1317
  221DG      H6 5066   4.242   3.155   3.248  0.1931  0.0856  0.2059
  221DG      H7 5067   4.257   3.332   3.209  1.7862 -1.2102  1.2019
  221DG      H8 5068   4.176   3.272   3.356 -0.5247  1.7389 -0.4125
  221DG      O9 5069   3.564   3.489   2.954  0.2733 -0.3349 -0.0936
  221DG     O10 5070   4.063   3.255   3.196 -0.1041 -0.1518  0.3988
  221DG     C11 5071   3.701   3.481   2.987 -0.1689  0.0091 -0.6669
  221DG     C12 5072   4.059   3.200   3.065  0.7956 -0.5173 -0.4571
  221DG     H13 5073   3.718   3.501   3.093 -0.4994 -0.8917 -0.4336
  221DG     H14 5074   3.765   3.548   2.930 -0.1499  0.4110 -0.1863
  221DG     H15 5075   4.102   3.100   3.064  1.6857 -0.1604 -2.4573
  221DG     H16 5076   4.114   3.259   2.992 -1.2964  0.2844 -1.4375
  221DG     C17 5077   3.731   3.335   2.968  0.0470  0.2080  0.2506
  221DG     C18 5078   3.910   3.195   3.017  0.1725 -0.2700 -0.6873
  221DG     O19 5079   3.865   3.328   2.990 -0.2918  0.3558 -0.4524
  221DG     H20 5080   3.712   3.304   2.865 -0.8509 -1.0331  0.7644
  221DG     H21 5081   3.673   3.268   3.033 -0.7213 -0.0828 -0.6976
  221DG     H22 5082   3.881   3.130   2.935  0.7440 -3.0152  1.1653
  221DG     H23 5083   3.855   3.159   3.104 -2.3669  0.1115 -2.0419
  222DG      C1 5084   4.376   2.423   2.362  0.1675  0.8077  0.1239
  222DG      C2 5085   4.206   3.003   1.820 -0.0704  0.4194  0.2989
  222DG      H3 5086   4.351   2.342   2.294  0.6950  1.1571 -0.4900
  222DG      H4 5087   4.304   2.416   2.444  0.9303  0.7309  0.7945
  222DG      H5 5088   4.477   2.399   2.395  0.2549 -1.0445 -1.3011
  222DG      H6 5089   4.207   3.095   1.761  0.4091  1.7273  2.2327
  222DG      H7 5090   4.304   2.958   1.801 -1.2284 -2.3236  0.4052
  222DG      H8 5091   4.116   2.950   1.791  0.0106  1.5218 -2.2913
  222DG      O9 5092   4.370   2.538   2.290 -0.0776 -0.5350 -0.2677
  222DG     O10 5093   4.195   3.044   1.954  0.2241 -0.0453 -0.3789
  222DG     C11 5094   4.447   2.648   2.335 -0.2994 -0.3247 -0.4999
  222DG     C12 5095   4.191   2.948   2.061 -0.5840  0.1102 -0.0887
  222DG     H13 5096   4.545   2.618   2.371  0.9878  0.0648 -3.3977
  222DG     H14 5097   4.395   2.684   2.424  1.0906  0.1951  0.1330
  222DG     H15 5098   4.154   2.860   2.009 -0.9080  1.0561 -1.4893
  222DG     H16 5099   4.123   2.976   2.142 -1.1118  1.9304 -1.1135
  222DG     C17 5100   4.463   2.759   2.225  0.0283  0.0763  0.3959
  222DG     C18 5101   4.329   2.921   2.113  0.2117 -0.0920 -0.1768
  222DG     O19 5102   4.333   2.806   2.194 -0.0693 -0.5862  0.1742
  222DG     H20 5103   4.525   2.727   2.141  0.2197 -0.2699  0.6647
  222DG     H21 5104   4.510   2.845   2.273  0.4338 -0.9482  1.9231
  222DG     H22 5105   4.404   2.918   2.034 -0.1393  3.0734 -0.7842
  222DG     H23 5106   4.358   3.005   2.176  0.5045 -0.5222  0.2684
  223DG      C1 5107   4.195   3.430   0.254 -0.0811  0.4651  0.3450
  223DG      C2 5108   4.936   3.173   0.356  0.3785 -0.7910 -0.4742
  223DG      H3 5109   4.170   3.387   0.157 -2.2948 -2.6213  2.1095
  223DG      H4 5110   4.111   3.484   0.298  0.0007  1.6335 -0.8772
  223DG      H5 5111   4.217   3.346   0.320 -0.7937  0.2616  0.3325
  223DG      H6 5112   4.994   3.150   0.267  1.6674  0.7824 -0.0813
  223DG      H7 5113   5.007   3.193   0.436 -2.1682 -1.0345  1.9862
  223DG      H8 5114   4.887   3.079   0.381 -1.3614  0.2715  0.2978
  223DG      O9 5115   4.308   3.522   0.247 -0.0472  0.1678  1.0170
  223DG     O10 5116   4.833   3.272   0.330  0.4223  0.8890 -0.3645
  223DG     C11 5117   4.422   3.480   0.179 -0.3175 -0.1678  0.3634
  223DG     C12 5118   4.873   3.388   0.270  0.5474 -0.0031  0.9453
  223DG     H13 5119   4.394   3.498   0.075  0.3707  2.4205  0.5619
  223DG     H14 5120   4.446   3.374   0.187 -0.8526 -0.1726  2.1659
  223DG     H15 5121   4.861   3.364   0.165 -1.7536  0.1147  1.1329
  223DG     H16 5122   4.973   3.423   0.296  0.0781  1.8146  0.4781
  223DG     C17 5123   4.540   3.552   0.223  0.2030 -0.3054 -0.0312
  223DG     C18 5124   4.769   3.505   0.270  0.2216  0.1903 -0.0144
  223DG     O19 5125   4.649   3.462   0.212  0.0579  0.7863 -0.5127
  223DG     H20 5126   4.528   3.588   0.325  0.0687 -4.2041  1.5377
  223DG     H21 5127   4.558   3.636   0.156 -0.8447 -0.3723 -0.4054
  223DG     H22 5128   4.745   3.525   0.375  0.3162 -2.4767  0.5995
  223DG     H23 5129   4.806   3.596   0.224  0.4851 -0.2484 -0.6927
  224DG      C1 5130   4.221   3.215   1.449  0.4354  0.4809 -0.1058
  224DG      C2 5131   3.637   3.451   0.994 -0.5352  0.2246 -0.1887
  224DG      H3 5132   4.297   3.292   1.460 -0.2137  1.3381 -1.3626
  224DG      H4 5133   4.214   3.183   1.345  0.4516 -0.6952  0.2406
  224DG      H5 5134   4.244   3.135   1.519 -4.1574 -0.2829  0.8742
  224DG      H6 5135   3.659   3.364   0.933  1.0067  0.8993 -0.6441
  224DG      H7 5136   3.544   3.499   0.962 -1.0313 -0.1851  0.5905
  224DG      H8 5137   3.715   3.519   0.960  0.0665  0.2394  1.1461
  224DG      O9 5138   4.096   3.271   1.482 -0.2119  0.1476  0.0752
  224DG     O10 5139   3.637   3.420   1.135  0.1011 -0.3047 -0.3222
  224DG     C11 5140   3.995   3.166   1.502  0.6923 -0.1198 -0.4499
  224DG     C12 5141   3.763   3.409   1.190  0.0861  0.3866  0.4332
  224DG     H13 5142   4.006   3.096   1.585 -0.2182 -1.0877 -1.1116
  224DG     H14 5143   4.001   3.101   1.414  1.2210 -0.5393 -0.1123
  224DG     H15 5144   3.800   3.511   1.199 -1.1716  0.9620 -0.6937
  224DG     H16 5145   3.828   3.340   1.136  1.3185 -0.0759  2.3820
  224DG     C17 5146   3.871   3.249   1.500  0.0184  0.2588 -0.3883
  224DG     C18 5147   3.741   3.340   1.325 -0.4380 -0.4967 -0.0695
  224DG     O19 5148   3.870   3.327   1.385 -0.2608 -0.2935 -0.5234
  224DG     H20 5149   3.853   3.307   1.590  1.7074  0.1673  0.0441
  224DG     H21 5150   3.791   3.176   1.511 -0.2710  0.4817 -0.9724
  224DG     H22 5151   3.691   3.413   1.388 -1.3910 -1.5230  0.4115
  224DG     H23 5152   3.694   3.241   1.324  2.0322 -1.7456 -0.3608
  225DG      C1 5153   0.669   3.400   1.298  0.6540 -0.7861 -0.1352
  225DG      C2 5154   0.783   3.730   2.010  0.3389 -0.3182  0.4532
  225DG      H3 5155   0.616   3.318   1.249 -1.9189 -0.7189  2.3290
  225DG      H4 5156   0.768   3.362   1.320  1.3568 -0.5359 -2.5474
  225DG      H5 5157   0.674   3.486   1.230 -1.4805 -1.7045 -1.5591
  225DG      H6 5158   0.769   3.826   1.959  0.8050 -1.5794 -2.2493
  225DG      H7 5159   0.739   3.744   2.108  1.4864  0.4739  0.8834
  225DG      H8 5160   0.889   3.712   2.030  0.1300 -0.4038  1.4982
  225DG      O9 5161   0.598   3.444   1.409  0.4601 -0.4437  0.2847
  225DG     O10 5162   0.730   3.623   1.934  0.9415 -0.1142 -0.1360
  225DG     C11 5163   0.570   3.334   1.493  0.7398  0.7184 -0.0375
  225DG     C12 5164   0.628   3.668   1.849 -0.4123 -0.0641 -0.4087
  225DG     H13 5165   0.658   3.278   1.524 -0.3860 -1.8609 -1.2098
  225DG     H14 5166   0.501   3.262   1.449 -0.7550  1.7084  0.5836
  225DG     H15 5167   0.683   3.724   1.773  3.1661  0.2772  2.1715
  225DG     H16 5168   0.566   3.737   1.906  0.5499 -0.3132  0.9783
  225DG     C17 5169   0.504   3.381   1.628 -0.3236 -0.2726 -0.0874
  225DG     C18 5170   0.533   3.557   1.788 -0.4137 -0.7042  0.0961
  225DG     O19 5171   0.596   3.473   1.690  0.2262 -0.5533  0.1886
  225DG     H20 5172   0.498   3.295   1.694 -0.1800 -0.7914 -0.7440
  225DG     H21 5173   0.406   3.427   1.619  0.2154  0.8015 -0.8253
  225DG     H22 5174   0.480   3.514   1.873  0.3636  0.6092  1.3060
  225DG     H23 5175   0.460   3.612   1.729  0.7805  0.2751 -0.5182
  226DG      C1 5176   1.277   3.738   4.526  0.4668 -0.0401  0.2439
  226DG      C2 5177   1.422   3.534   3.928 -0.3445  0.3531 -0.6852
  226DG      H3 5178   1.196   3.676   4.488 -1.3240  1.5707  1.2088
  226DG      H4 5179   1.230   3.821   4.580 -0.0440  0.8553 -1.4810
  226DG      H5 5180   1.342   3.679   4.591  2.5295  0.4603 -1.2609
  226DG      H6 5181   1.335   3.593   3.902 -0.1911  0.5534 -0.7506
  226DG      H7 5182   1.486   3.523   3.840 -1.2113 -0.4150 -1.2364
  226DG      H8 5183   1.407   3.434   3.969  0.3162  0.6580  0.3459
  226DG      O9 5184   1.354   3.781   4.417  0.6787  0.6799  0.2047
  226DG     O10 5185   1.502   3.602   4.026  1.2417  0.3292 -0.0839
  226DG     C11 5186   1.479   3.840   4.454 -0.1172  0.9456 -0.4593
  226DG     C12 5187   1.531   3.737   3.997 -0.2763 -0.1214 -0.4240
  226DG     H13 5188   1.534   3.760   4.504 -1.5998 -1.2850 -2.2049
  226DG     H14 5189   1.479   3.924   4.522  0.7667  1.0872 -0.6142
  226DG     H15 5190   1.445   3.803   3.997  0.2249  0.6016 -2.5555
  226DG     H16 5191   1.589   3.759   3.907 -0.6368  0.7566 -0.4455
  226DG     C17 5192   1.554   3.869   4.331  0.3645  0.4861 -0.3412
  226DG     C18 5193   1.610   3.796   4.112 -0.5010 -0.2840 -0.2247
  226DG     O19 5194   1.518   3.788   4.224 -0.1849  0.5310  0.1429
  226DG     H20 5195   1.659   3.858   4.360  0.3622  0.9864 -0.1285
  226DG     H21 5196   1.543   3.974   4.303  0.4916  0.5992  0.0352
  226DG     H22 5197   1.705   3.746   4.133  0.7514  1.4756 -1.4651
  226DG     H23 5198   1.635   3.898   4.086  1.7658 -0.4954  0.9132
  227DG      C1 5199   2.793   2.295   4.272  0.1613 -0.0438 -0.0128
  227DG      C2 5200   2.483   2.830   4.670  0.0106 -0.1836 -0.8684
  227DG      H3 5201   2.746   2.325   4.178  1.6950  0.2637 -0.7246
  227DG      H4 5202   2.756   2.199   4.308  1.7530  0.1921  2.4718
  227DG      H5 5203   2.899   2.275   4.256  0.4837 -0.2610  2.1545
  227DG      H6 5204   2.459   2.739   4.725 -1.2024  0.6022 -0.0370
  227DG      H7 5205   2.490   2.917   4.736 -0.6445 -0.6800 -0.1281
  227DG      H8 5206   2.412   2.850   4.590 -2.3271  1.4327  1.4350
  227DG      O9 5207   2.766   2.393   4.370 -0.3925  0.3655 -0.2441
  227DG     O10 5208   2.611   2.798   4.621  0.1796  0.0372 -0.2537
  227DG     C11 5209   2.821   2.521   4.339 -0.0233 -0.7477  1.3925
  227DG     C12 5210   2.672   2.901   4.545 -0.0967 -0.0310 -0.0300
  227DG     H13 5211   2.803   2.548   4.235 -0.0650 -0.4030  1.4901
  227DG     H14 5212   2.930   2.517   4.345  0.1048  1.1288  1.0157
  227DG     H15 5213   2.680   2.992   4.604  2.2433  0.6463 -1.2780
  227DG     H16 5214   2.604   2.921   4.462 -0.5910 -0.3926  0.2815
  227DG     C17 5215   2.756   2.622   4.434  0.5087 -0.0865 -0.7712
  227DG     C18 5216   2.807   2.854   4.496  0.0258  0.3599 -0.3764
  227DG     O19 5217   2.789   2.755   4.397  0.1681  0.2544 -0.4969
  227DG     H20 5218   2.787   2.600   4.537 -2.7167 -0.7107  0.1864
  227DG     H21 5219   2.650   2.599   4.424  0.7498 -1.4391 -0.4561
  227DG     H22 5220   2.864   2.940   4.460  1.1171 -0.2155 -0.0755
  227DG     H23 5221   2.856   2.807   4.581 -0.7653 -2.2479 -1.2444
  228DG      C1 5222   1.429   2.368   0.257 -0.5083  0.4920 -0.3982
  228DG      C2 5223   1.130   2.651   0.781 -0.0455 -0.1723  0.0197
  228DG      H3 5224   1.503   2.385   0.179 -1.1526 -0.4470 -1.2438
  228DG      H4 5225   1.326   2.383   0.225 -0.4769  0.2603 -0.6111
  228DG      H5 5226   1.450   2.264   0.285  3.3188  0.8871 -1.2756
  228DG      H6 5227   1.115   2.723   0.862 -0.4519  1.5640 -1.5178
  228DG      H7 5228   1.070   2.693   0.700  1.2452  1.3506 -0.1946
  228DG      H8 5229   1.093   2.552   0.804  0.3799 -0.3025  0.1483
  228DG      O9 5230   1.447   2.448   0.370  0.5167 -0.1315  0.1471
  228DG     O10 5231   1.264   2.646   0.731  0.0105 -0.0933  0.3355
  228DG     C11 5232   1.584   2.448   0.410 -0.4145 -0.0107 -0.1672
  228DG     C12 5233   1.365   2.599   0.821  0.4715  0.2182  0.4957
  228DG     H13 5234   1.646   2.472   0.324 -1.9609  1.4350 -0.9396
  228DG     H14 5235   1.610   2.347   0.439 -1.0368 -0.5586 -1.4277
  228DG     H15 5236   1.343   2.502   0.866  0.2229  0.4259  0.8332
  228DG     H16 5237   1.373   2.669   0.904  0.6397  1.3267 -0.4352
  228DG     C17 5238   1.597   2.547   0.528  0.2580  0.3385 -0.5239
  228DG     C18 5239   1.501   2.599   0.746  0.0733 -0.1817  0.1793
  228DG     O19 5240   1.490   2.523   0.623  0.2039  0.0688 -0.7599
  228DG     H20 5241   1.595   2.647   0.485 -0.4827 -0.0205 -1.3516
  228DG     H21 5242   1.696   2.537   0.571  0.3234  2.3695 -0.0904
  228DG     H22 5243   1.527   2.702   0.724 -0.3566 -0.1352 -0.1188
  228DG     H23 5244   1.575   2.564   0.818  1.0628  0.5504 -0.4625
  229DG      C1 5245   5.312   0.301   2.970  0.5334 -0.7874 -0.4178
  229DG      C2 5246   4.729   0.165   2.637  0.0359  0.8177  0.5723
  229DG      H3 5247   5.410   0.262   2.999  0.4126  0.7237  2.3614
  229DG      H4 5248   5.265   0.314   3.067  0.5540 -1.6079 -0.2883
  229DG      H5 5249   5.313   0.395   2.915 -1.0886  0.1212  1.0158
  229DG      H6 5250   4.747   0.224   2.548  0.8030 -1.5444 -0.9293
  229DG      H7 5251   4.648   0.093   2.629  0.3441  0.6011 -0.7991
  229DG      H8 5252   4.698   0.226   2.723 -1.8905  0.0058  0.5028
  229DG      O9 5253   5.241   0.201   2.900 -0.2507 -0.3739 -0.0668
  229DG     O10 5254   4.846   0.101   2.684  0.1815  0.7379  0.5046
  229DG     C11 5255   5.316   0.152   2.788 -0.1194  0.3474  0.1868
  229DG     C12 5256   4.907   0.015   2.582  0.2466  0.3450 -0.3394
  229DG     H13 5257   5.422   0.142   2.815 -0.2587  0.7043  0.8974
  229DG     H14 5258   5.310   0.222   2.705 -0.4316 -0.1343 -0.1928
  229DG     H15 5259   4.942   0.075   2.497  1.2429  0.5691  0.2189
  229DG     H16 5260   4.851  -0.072   2.549 -0.1006  0.3686  0.1788
  229DG     C17 5261   5.244   0.027   2.736 -0.2533 -0.4849  0.0230
  229DG     C18 5262   5.037  -0.041   2.646 -0.3097 -0.0516 -0.1248
  229DG     O19 5263   5.120   0.067   2.688 -0.6203 -0.1312 -0.1103
  229DG     H20 5264   5.227  -0.031   2.827  0.9227 -0.1409  0.4744
  229DG     H21 5265   5.303  -0.041   2.673  2.0376 -1.0985  2.6553
  229DG     H22 5266   5.031  -0.112   2.729  1.5311  1.2092  1.1752
  229DG     H23 5267   5.089  -0.092   2.565  1.8381  0.4862  0.8270
  230DG      C1 5268   4.415   4.910   1.653 -0.1541  0.2273  0.6372
  230DG      C2 5269   4.421   4.572   1.109  0.4013  0.0442 -0.2871
  230DG      H3 5270   4.388   5.001   1.707  0.1951  1.7610 -1.6076
  230DG      H4 5271   4.491   4.852   1.704  0.4907 -0.8292 -1.3864
  230DG      H5 5272   4.324   4.850   1.646  0.3460 -1.0738  3.7530
  230DG      H6 5273   4.317   4.582   1.078  0.0922  3.5897  1.4424
  230DG      H7 5274   4.476   4.518   1.032  2.1465 -0.0935  0.9803
  230DG      H8 5275   4.423   4.504   1.195  0.6572 -1.3049 -1.3229
  230DG      O9 5276   4.476   4.937   1.532  0.4510 -0.3879 -0.7463
  230DG     O10 5277   4.493   4.691   1.146  0.5677 -0.0226 -0.2963
  230DG     C11 5278   4.613   4.979   1.535  0.4053  0.0735  0.8316
  230DG     C12 5279   4.635   4.676   1.156 -0.7241  0.4076 -0.2186
  230DG     H13 5280   4.676   4.909   1.590  1.3524 -0.3545 -0.7467
  230DG     H14 5281   4.626   5.085   1.556  0.3632  0.4545 -0.8702
  230DG     H15 5282   4.682   4.651   1.061  0.1220  0.3793  0.2001
  230DG     H16 5283   4.659   4.595   1.225  1.8042  0.7006 -0.6399
  230DG     C17 5284   4.656   4.970   1.389 -0.7428  0.1976 -0.0992
  230DG     C18 5285   4.708   4.796   1.224 -0.0558  0.1932 -0.1679
  230DG     O19 5286   4.650   4.830   1.351  0.3603 -0.2177  0.4022
  230DG     H20 5287   4.760   5.002   1.382 -0.5982 -0.5306 -1.8232
  230DG     H21 5288   4.604   5.032   1.316  0.9311 -0.1634 -1.6813
  230DG     H22 5289   4.814   4.772   1.236 -0.2569 -0.5691  0.1220
  230DG     H23 5290   4.695   4.887   1.166 -1.6923 -0.0878 -0.2814
  231DG      C1 5291   4.385   0.098   4.095  0.2482 -0.7642  0.2656
  231DG      C2 5292   4.382   0.802   4.056  0.6871  0.4302 -0.6085
  231DG      H3 5293   4.434   0.090   3.998  0.7817  2.1070  0.2106
  231DG      H4 5294   4.349  -0.003   4.115  1.2320 -0.7416  2.3706
  231DG      H5 5295   4.469   0.125   4.158 -0.4496  1.0869  0.4520
  231DG      H6 5296   4.457   0.783   3.980  0.4460 -0.2179 -0.6904
  231DG      H7 5297   4.294   0.860   4.028 -0.1735  0.2644  1.5321
  231DG      H8 5298   4.437   0.845   4.139  2.2341  0.3089 -1.5276
  231DG      O9 5299   4.291   0.205   4.097 -0.0990 -0.2473  0.0168
  231DG     O10 5300   4.336   0.676   4.098 -0.3844  0.4820  0.0350
  231DG     C11 5301   4.225   0.222   4.226  0.3451  0.8990  0.5188
  231DG     C12 5302   4.232   0.673   4.194 -0.2345 -0.0359  0.1359
  231DG     H13 5303   4.211   0.133   4.286 -1.8413  0.6887 -0.2123
  231DG     H14 5304   4.119   0.248   4.218  0.2368  0.1710 -0.6772
  231DG     H15 5305   4.141   0.701   4.141 -0.2824 -2.1087 -0.9971
  231DG     H16 5306   4.259   0.730   4.283  0.6734  0.0083 -0.1539
  231DG     C17 5307   4.303   0.327   4.320 -0.5370 -0.6274  0.0845
  231DG     C18 5308   4.209   0.529   4.247 -0.6274 -0.8946  0.5263
  231DG     O19 5309   4.328   0.450   4.255  0.0828  0.0687  0.0144
  231DG     H20 5310   4.400   0.282   4.343  0.9332  1.4942 -1.5653
  231DG     H21 5311   4.260   0.351   4.417 -2.1128 -2.6375 -0.0414
  231DG     H22 5312   4.147   0.532   4.337 -0.6980 -2.0835  0.5314
  231DG     H23 5313   4.144   0.481   4.173 -2.4100  2.7636 -0.5155
  232DG      C1 5314   2.272   3.890   0.977 -0.4442 -0.7312  0.0753
  232DG      C2 5315   1.889   3.611   0.385 -0.4600 -0.0513  0.1963
  232DG      H3 5316   2.301   3.993   0.953 -2.2227 -0.1667  0.2073
  232DG      H4 5317   2.361   3.828   0.965 -1.1381 -1.3662 -2.2453
  232DG      H5 5318   2.237   3.887   1.080  2.2236  0.2940  1.1275
  232DG      H6 5319   1.970   3.684   0.376 -0.9492  0.3663 -0.9762
  232DG      H7 5320   1.905   3.523   0.323  0.0732  1.4008 -1.8224
  232DG      H8 5321   1.811   3.664   0.331 -1.1476  0.6377  1.7822
  232DG      O9 5322   2.170   3.855   0.889  0.3010 -0.0553  0.0381
  232DG     O10 5323   1.870   3.574   0.516 -0.4092 -0.0970 -0.2385
  232DG     C11 5324   2.109   3.728   0.913 -0.0957  0.6210  0.5595
  232DG     C12 5325   1.804   3.673   0.593  0.0715  0.3649  0.7563
  232DG     H13 5326   2.090   3.717   1.020 -0.6680  0.3224  0.4309
  232DG     H14 5327   2.174   3.647   0.879 -0.0045  1.1815 -0.6677
  232DG     H15 5328   1.766   3.632   0.687 -0.1147 -0.5726  0.2848
  232DG     H16 5329   1.723   3.717   0.535  0.8726  1.1921  0.2319
  232DG     C17 5330   1.984   3.709   0.828  0.1954  0.0231 -0.7768
  232DG     C18 5331   1.906   3.789   0.621  0.2279 -0.6425 -0.2118
  232DG     O19 5332   2.020   3.744   0.692  0.0530  0.7713 -0.0580
  232DG     H20 5333   1.899   3.760   0.872 -1.1078 -3.0855  0.6566
  232DG     H21 5334   1.965   3.601   0.831 -1.3739  0.2778 -0.6011
  232DG     H22 5335   1.934   3.841   0.530  0.2653 -1.8259 -0.8892
  232DG     H23 5336   1.851   3.868   0.673  0.6747 -0.6983  0.3636
  233DG      C1 5337   1.061   2.630   2.501 -0.0576  0.2888 -0.7623
  233DG      C2 5338   0.685   2.239   2.154  0.7111 -0.0534  0.2958
  233DG      H3 5339   1.067   2.736   2.474 -2.6038  1.0616  1.2053
  233DG      H4 5340   1.153   2.611   2.556 -0.7716  2.0807  1.2255
  233DG      H5 5341   0.985   2.619   2.579 -0.1346  0.7525 -0.7698
  233DG      H6 5342   0.751   2.158   2.185 -0.0003 -0.6915  0.1584
  233DG      H7 5343   0.609   2.251   2.231 -0.3673  0.0484 -0.7676
  233DG      H8 5344   0.631   2.215   2.063  1.5585 -1.0535  0.0426
  233DG      O9 5345   1.039   2.544   2.395  0.3838  0.4053  0.3900
  233DG     O10 5346   0.747   2.359   2.118  0.0259 -0.3822 -0.4224
  233DG     C11 5347   1.068   2.407   2.427 -0.0695  0.2743 -0.6365
  233DG     C12 5348   0.851   2.341   2.025 -0.2918 -0.1185  0.2347
  233DG     H13 5349   1.048   2.371   2.528  2.3729 -0.6551 -0.4151
  233DG     H14 5350   1.175   2.400   2.412  0.2062 -1.4263  1.6031
  233DG     H15 5351   0.868   2.437   1.976 -1.0951 -0.4751 -0.7774
  233DG     H16 5352   0.829   2.265   1.950  0.8766 -1.2698  1.0199
  233DG     C17 5353   0.988   2.317   2.330  0.3022 -0.4528 -0.3351
  233DG     C18 5354   0.971   2.267   2.093  0.4794  0.0557  0.4320
  233DG     O19 5355   1.020   2.352   2.194 -0.8351  0.4282 -0.0170
  233DG     H20 5356   0.882   2.334   2.351  0.0772  2.1916 -2.8957
  233DG     H21 5357   1.022   2.216   2.353 -0.7340 -1.2360 -2.0242
  233DG     H22 5358   0.949   2.169   2.134 -0.5658  0.1062  0.0276
  233DG     H23 5359   1.043   2.254   2.012  1.2509  3.5946  0.3681
  234DG      C1 5360   1.625   1.683   3.322  0.0092  0.3314 -0.0508
  234DG      C2 5361   1.700   2.146   2.840 -0.0598 -0.1231  0.6439
  234DG      H3 5362   1.694   1.600   3.308  0.0902  0.3921 -0.0082
  234DG      H4 5363   1.538   1.653   3.263 -2.6018  0.1961  3.5324
  234DG      H5 5364   1.606   1.680   3.429 -2.1704 -0.8611 -0.4097
  234DG      H6 5365   1.592   2.156   2.837  0.0403  0.8913 -0.2117
  234DG      H7 5366   1.738   2.246   2.818 -2.3780  0.5334 -0.5902
  234DG      H8 5367   1.726   2.066   2.771 -2.9426 -1.0827  0.5520
  234DG      O9 5368   1.687   1.809   3.285  0.0752 -0.3424 -0.2857
  234DG     O10 5369   1.743   2.114   2.970  0.3569 -0.1249 -0.2882
  234DG     C11 5370   1.800   1.850   3.361 -0.7004 -0.0797 -0.2963
  234DG     C12 5371   1.879   2.151   2.995  0.1564  0.0230 -0.2928
  234DG     H13 5372   1.883   1.780   3.350 -0.5430 -0.2642  1.7447
  234DG     H14 5373   1.762   1.842   3.463  1.4147 -0.9276  0.4844
  234DG     H15 5374   1.894   2.258   2.977  1.2995 -0.3452 -1.8024
  234DG     H16 5375   1.943   2.095   2.926 -0.0538 -0.3755 -0.1660
  234DG     C17 5376   1.841   1.995   3.326  0.2864  0.1722 -0.4806
  234DG     C18 5377   1.904   2.127   3.145  0.6941 -0.4232  0.3575
  234DG     O19 5378   1.843   2.005   3.183 -0.1192 -0.8325  0.0402
  234DG     H20 5379   1.939   2.013   3.372  1.4524 -2.5538 -1.6977
  234DG     H21 5380   1.764   2.062   3.363  1.1638 -0.2272  2.3768
  234DG     H22 5381   2.012   2.138   3.156  0.3919  2.4437  1.2610
  234DG     H23 5382   1.858   2.209   3.200 -1.9708 -1.4956 -0.1119
  235DG      C1 5383   3.884  -0.010   1.813  0.3374  0.0198 -0.3181
  235DG      C2 5384   3.756   0.796   1.876  0.1193 -0.2462  0.7771
  235DG      H3 5385   3.938  -0.090   1.865  0.0475 -0.6334 -0.9988
  235DG      H4 5386   3.938   0.015   1.722 -0.8277 -0.8279 -1.2708
  235DG      H5 5387   3.791  -0.054   1.779  0.6053  0.0899 -1.1613
  235DG      H6 5388   3.777   0.899   1.846  0.0117 -0.6808 -0.8505
  235DG      H7 5389   3.657   0.782   1.832  0.3179  0.8316 -0.0491
  235DG      H8 5390   3.758   0.786   1.985 -1.8987 -2.7114  0.6773
  235DG      O9 5391   3.861   0.092   1.904  0.2244  0.4941 -0.5137
  235DG     O10 5392   3.861   0.714   1.818 -0.0235  0.3595  0.6570
  235DG     C11 5393   3.981   0.154   1.948  0.0224  0.2597  0.2888
  235DG     C12 5394   3.849   0.580   1.875 -0.1609 -0.1363  0.1054
  235DG     H13 5395   4.056   0.077   1.967  0.0060  0.5703  1.7487
  235DG     H14 5396   3.960   0.200   2.045 -1.5484  2.6715 -1.0894
  235DG     H15 5397   3.747   0.542   1.869  0.4392 -2.2827  1.8784
  235DG     H16 5398   3.872   0.587   1.982  0.3926  1.5998 -0.0902
  235DG     C17 5399   4.031   0.265   1.855  0.7269 -0.1776  0.3788
  235DG     C18 5400   3.943   0.480   1.794  0.3513  0.8566  0.3564
  235DG     O19 5401   3.924   0.358   1.858 -0.3011  0.5465  0.6685
  235DG     H20 5402   4.043   0.226   1.754 -3.2310 -1.6696  0.3020
  235DG     H21 5403   4.122   0.315   1.889  1.7798 -0.8282 -1.3586
  235DG     H22 5404   3.915   0.483   1.689  0.5033  1.0975  0.3209
  235DG     H23 5405   4.047   0.513   1.799  0.8061  0.1329 -2.3926
  236DG      C1 5406   0.820   3.154   4.142 -1.0221 -0.0581  0.3043
  236DG      C2 5407   0.340   3.062   4.589  0.6438 -0.2904 -0.3934
  236DG      H3 5408   0.875   3.081   4.202 -0.3836  1.0031  1.0379
  236DG      H4 5409   0.899   3.214   4.097  0.4396 -2.4617 -0.5124
  236DG      H5 5410   0.783   3.097   4.057  0.9946 -0.5162 -0.3002
  236DG      H6 5411   0.419   3.008   4.642  1.2404  0.6749 -0.2710
  236DG      H7 5412   0.293   3.124   4.665  1.6006  0.0385 -0.0601
  236DG      H8 5413   0.261   3.001   4.544  1.0175 -1.7231  0.8288
  236DG      O9 5414   0.723   3.216   4.217 -0.1424 -0.8556  0.1536
  236DG     O10 5415   0.390   3.143   4.483  0.3176  0.1152  0.3280
  236DG     C11 5416   0.655   3.308   4.132  0.1788 -0.5099  0.4564
  236DG     C12 5417   0.293   3.235   4.445  0.0887 -0.1199 -0.1309
  236DG     H13 5418   0.610   3.261   4.045  0.0836  0.3794  0.0068
  236DG     H14 5419   0.720   3.392   4.103  1.0458 -0.8862  1.2450
  236DG     H15 5420   0.242   3.284   4.528  0.4928 -3.2513  2.1669
  236DG     H16 5421   0.207   3.185   4.401 -0.7125 -0.1616  1.3887
  236DG     C17 5422   0.544   3.369   4.212 -0.7405  0.2631 -0.1848
  236DG     C18 5423   0.352   3.334   4.347 -0.1385 -0.5473  0.7864
  236DG     O19 5424   0.463   3.274   4.280  0.2392 -0.5958  0.2724
  236DG     H20 5425   0.485   3.432   4.146  1.6498  2.2567 -0.5595
  236DG     H21 5426   0.589   3.438   4.284  0.9837 -2.6489  1.7217
  236DG     H22 5427   0.271   3.380   4.291  1.6249  1.0896 -0.5184
  236DG     H23 5428   0.390   3.421   4.400 -0.4860 -0.7731  1.4333
  237DG      C1 5429   1.370   2.845   0.408  0.6541 -0.3067 -0.1500
  237DG      C2 5430   1.099   2.249   0.706 -0.5704  0.3830 -1.0084
  237DG      H3 5431   1.358   2.880   0.511  2.8228 -2.2654  0.8760
  237DG      H4 5432   1.350   2.926   0.338 -0.1686  0.3173  0.7702
  237DG      H5 5433   1.471   2.807   0.397 -0.7424 -4.5915 -0.1590
  237DG      H6 5434   1.106   2.281   0.810 -1.4799  0.7660 -1.0566
  237DG      H7 5435   1.031   2.170   0.736  0.2512  0.5082  1.4561
  237DG      H8 5436   1.195   2.211   0.673  0.9948  2.2743  1.0613
  237DG      O9 5437   1.280   2.743   0.382 -0.7193 -0.0085  0.1010
  237DG     O10 5438   1.051   2.344   0.618 -0.1763 -0.7087 -0.3025
  237DG     C11 5439   1.146   2.777   0.390  1.1223  0.5127  0.0110
  237DG     C12 5440   1.055   2.312   0.483 -0.2810  0.0588  1.2943
  237DG     H13 5441   1.111   2.868   0.341 -0.3327  0.2055  0.4313
  237DG     H14 5442   1.129   2.804   0.494 -0.8616  0.5037 -0.2684
  237DG     H15 5443   0.989   2.226   0.476 -0.7235  0.4132  1.0309
  237DG     H16 5444   1.153   2.269   0.464 -1.3369 -1.9975  0.1982
  237DG     C17 5445   1.067   2.650   0.347 -0.1896  0.0522 -0.1306
  237DG     C18 5446   1.008   2.432   0.396 -0.7545  0.2657  0.0518
  237DG     O19 5447   1.092   2.545   0.434  0.0823 -0.2474  0.4116
  237DG     H20 5448   1.085   2.632   0.241  1.4141  0.4941  0.0503
  237DG     H21 5449   0.958   2.658   0.347 -0.4044 -1.7122  2.1278
  237DG     H22 5450   1.017   2.408   0.290 -2.0160 -0.9378  0.1876
  237DG     H23 5451   0.904   2.466   0.397 -0.1076  2.5030  1.7606
  238DG      C1 5452   4.118   2.333   4.392 -0.2460  0.2750 -0.4144
  238DG      C2 5453   3.992   2.642   3.664 -0.4718  0.1284  0.2035
  238DG      H3 5454   4.067   2.324   4.488  0.7243 -0.1990  0.0661
  238DG      H4 5455   4.218   2.373   4.412  0.1512 -0.9399  0.0741
  238DG      H5 5456   4.140   2.243   4.334  3.2689  0.8712 -0.2180
  238DG      H6 5457   3.967   2.546   3.618 -0.3581 -0.3833  1.2036
  238DG      H7 5458   3.937   2.725   3.620  0.0320  0.4551  0.1851
  238DG      H8 5459   4.093   2.666   3.633 -1.7711  3.0699 -2.2557
  238DG      O9 5460   4.053   2.425   4.307  0.2099 -0.3613 -0.9082
  238DG     O10 5461   3.972   2.629   3.803  0.5418  1.1526 -0.0147
  238DG     C11 5462   3.920   2.389   4.268  0.6728 -0.2326 -0.0844
  238DG     C12 5463   3.840   2.568   3.830  0.2936 -0.2413  0.8876
  238DG     H13 5464   3.874   2.376   4.366 -2.1721 -1.4421 -1.4433
  238DG     H14 5465   3.922   2.297   4.209  0.2359  1.8563 -3.6554
  238DG     H15 5466   3.846   2.466   3.794 -0.5955 -0.5189  1.4788
  238DG     H16 5467   3.757   2.610   3.773  1.8686  3.7957  1.2249
  238DG     C17 5468   3.849   2.503   4.196 -0.3761 -1.0564  0.7279
  238DG     C18 5469   3.801   2.579   3.979 -0.6584  0.3285 -0.7326
  238DG     O19 5470   3.894   2.506   4.058  1.0347  0.2625 -0.4440
  238DG     H20 5471   3.865   2.598   4.247 -0.7427 -1.1623  1.0453
  238DG     H21 5472   3.741   2.487   4.201 -0.6640  0.3945 -0.2915
  238DG     H22 5473   3.794   2.681   4.016 -2.0243  0.5416 -1.5172
  238DG     H23 5474   3.706   2.526   3.983 -0.6731  0.4391  1.3901
  239DG      C1 5475   2.812   4.915   3.882  0.6004 -0.5162  0.1507
  239DG      C2 5476   3.069   5.461   3.689 -0.6614 -0.1410 -0.3530
  239DG      H3 5477   2.847   4.951   3.978  0.5264  0.8688 -0.3201
  239DG      H4 5478   2.903   4.880   3.832  2.8201  2.7267  1.5761
  239DG      H5 5479   2.749   4.828   3.901 -0.5580 -0.7690 -3.8013
  239DG      H6 5480   3.150   5.424   3.627  1.4984 -0.0501  2.2141
  239DG      H7 5481   3.046   5.564   3.661 -1.9901 -0.1045  0.7863
  239DG      H8 5482   3.092   5.467   3.795 -2.6430 -3.3517  0.3783
  239DG      O9 5483   2.746   5.018   3.814 -0.3116  0.1580 -0.3780
  239DG     O10 5484   2.953   5.382   3.678 -0.9544  0.2603  0.2508
  239DG     C11 5485   2.679   4.984   3.694 -0.4996  0.4723  0.1679
  239DG     C12 5486   2.900   5.372   3.549  0.3001 -0.3135  0.0743
  239DG     H13 5487   2.578   4.950   3.717  0.6115 -2.1440  1.5770
  239DG     H14 5488   2.732   4.903   3.644 -2.0879  0.6316 -1.9326
  239DG     H15 5489   2.976   5.315   3.496  1.8241  1.0927  0.6501
  239DG     H16 5490   2.900   5.477   3.519 -0.0756  0.9049  3.8091
  239DG     C17 5491   2.662   5.117   3.610 -0.0911 -0.2708 -0.3168
  239DG     C18 5492   2.758   5.317   3.557 -0.8382  0.5579  0.2755
  239DG     O19 5493   2.780   5.188   3.608  0.5112  0.6516 -0.1803
  239DG     H20 5494   2.592   5.173   3.672  1.1763 -1.4090  2.2860
  239DG     H21 5495   2.621   5.099   3.511 -0.5610 -0.5036 -0.0848
  239DG     H22 5496   2.689   5.380   3.613 -0.3332  1.3565  0.0264
  239DG     H23 5497   2.716   5.323   3.456  1.2408  1.6795 -0.5854
  240DG      C1 5498   5.352   3.156   1.779 -0.2767 -1.0109 -0.1052
  240DG      C2 5499   5.200   2.866   2.445 -0.2975 -0.3308  0.0999
  240DG      H3 5500   5.418   3.091   1.722  0.0725 -2.5700  1.9736
  240DG      H4 5501   5.411   3.233   1.830 -0.1511  0.0994 -1.8442
  240DG      H5 5502   5.275   3.190   1.711 -0.5340 -3.2541 -1.0080
  240DG      H6 5503   5.102   2.882   2.491 -0.6952 -0.5811 -0.6613
  240DG      H7 5504   5.263   2.826   2.524 -0.3383  0.5860  0.6173
  240DG      H8 5505   5.233   2.966   2.417 -0.6197  0.4500  2.2972
  240DG      O9 5506   5.294   3.089   1.882 -0.4019  0.1631 -0.4791
  240DG     O10 5507   5.187   2.776   2.334 -0.2525  0.1756  0.3158
  240DG     C11 5508   5.247   3.172   1.988 -0.5491 -0.1447  0.2601
  240DG     C12 5509   5.306   2.788   2.244  0.9211 -0.6729  0.1119
  240DG     H13 5510   5.202   3.263   1.950 -1.8400 -0.2253  1.5147
  240DG     H14 5511   5.337   3.207   2.039 -0.5266 -0.8636  0.7240
  240DG     H15 5512   5.317   2.689   2.200  0.2389 -0.3919 -0.7207
  240DG     H16 5513   5.396   2.816   2.299  0.6418 -1.4696  1.0029
  240DG     C17 5514   5.154   3.094   2.083 -0.6143 -0.8783 -0.2053
  240DG     C18 5515   5.254   2.880   2.129 -0.1319 -0.0388  0.4612
  240DG     O19 5516   5.217   3.009   2.178 -0.2930 -0.8168 -0.4483
  240DG     H20 5517   5.078   3.040   2.028 -0.8116  0.0193 -0.8230
  240DG     H21 5518   5.093   3.163   2.142 -0.3483 -0.8465  0.0367
  240DG     H22 5519   5.338   2.887   2.060 -0.9510  3.1787 -0.3872
  240DG     H23 5520   5.171   2.834   2.077 -1.2261 -1.8325  3.5116
  241DG      C1 5521   1.857   4.710   3.947  0.2441 -0.1216 -0.7578
  241DG      C2 5522   2.676   5.024   4.327  0.0974  0.5340 -0.9568
  241DG      H3 5523   1.893   4.632   4.014 -0.5647  0.1413  0.0040
  241DG      H4 5524   1.868   4.683   3.842 -0.9818  1.9577 -1.4866
  241DG      H5 5525   1.753   4.731   3.973  0.7162  0.4959  0.6789
  241DG      H6 5526   2.728   4.995   4.235 -0.5327 -0.4264 -1.0204
  241DG      H7 5527   2.733   5.107   4.371  1.4544 -0.4901 -0.7162
  241DG      H8 5528   2.693   4.935   4.386 -1.0449 -0.2358 -1.7568
  241DG      O9 5529   1.932   4.827   3.973  0.3689 -0.2640 -0.5409
  241DG     O10 5530   2.543   5.043   4.299 -0.1661 -0.4783 -0.0943
  241DG     C11 5531   2.071   4.804   4.002  0.3401  0.4792  1.0082
  241DG     C12 5532   2.485   4.949   4.213 -0.2305  0.0173  0.1217
  241DG     H13 5533   2.117   4.834   3.908 -1.1612  0.9376  0.3987
  241DG     H14 5534   2.099   4.699   4.015 -0.8350 -0.6333 -3.6275
  241DG     H15 5535   2.492   4.846   4.247  3.0480 -0.0685 -0.4699
  241DG     H16 5536   2.526   4.965   4.113 -1.0529  3.3752  0.2057
  241DG     C17 5537   2.133   4.886   4.113  0.5409 -0.1455 -0.5683
  241DG     C18 5538   2.339   4.980   4.199  0.4547  0.2467 -0.2957
  241DG     O19 5539   2.276   4.879   4.112  0.5019  0.5022 -0.0732
  241DG     H20 5540   2.095   4.859   4.212 -0.4027  0.4602 -0.7529
  241DG     H21 5541   2.100   4.989   4.097 -0.4556 -0.6283 -1.8324
  241DG     H22 5542   2.295   4.978   4.299  1.2370 -1.8353  0.0742
  241DG     H23 5543   2.322   5.079   4.157 -0.7522  1.3974  2.6601
  242DG      C1 5544   3.595   5.635   4.851  0.5211  0.3892 -0.6668
  242DG      C2 5545   3.473   5.175   5.400 -0.3946 -0.0430 -0.1793
  242DG      H3 5546   3.507   5.687   4.887  0.3318 -0.2485 -0.1964
  242DG      H4 5547   3.583   5.613   4.745  0.5622  0.1108 -0.6141
  242DG      H5 5548   3.678   5.706   4.860  0.6014  0.0700  1.5677
  242DG      H6 5549   3.429   5.077   5.415  0.0159 -0.1731  0.2206
  242DG      H7 5550   3.562   5.184   5.463  1.0003 -1.3489 -1.8727
  242DG      H8 5551   3.398   5.249   5.427 -2.3482 -2.2572  0.7664
  242DG      O9 5552   3.606   5.504   4.910 -0.2803  0.1207 -0.1891
  242DG     O10 5553   3.507   5.183   5.260  0.4915  0.2901  0.2205
  242DG     C11 5554   3.725   5.428   4.884 -0.5106 -0.4173  0.0705
  242DG     C12 5555   3.619   5.107   5.224 -0.5899  0.1629  1.0058
  242DG     H13 5556   3.803   5.472   4.946 -0.6801  1.6059 -1.0809
  242DG     H14 5557   3.759   5.450   4.783 -0.4516 -0.6498  0.0387
  242DG     H15 5558   3.611   5.002   5.255  1.7619 -0.0320  1.1059
  242DG     H16 5559   3.702   5.158   5.272  0.7685 -0.3652 -0.7285
  242DG     C17 5560   3.699   5.280   4.903 -0.1471 -0.1760  0.7941
  242DG     C18 5561   3.637   5.117   5.069 -1.0277 -0.8660  0.0257
  242DG     O19 5562   3.646   5.258   5.033 -0.0548 -0.1488  0.2918
  242DG     H20 5563   3.793   5.226   4.893 -0.5141 -0.6677 -0.1454
  242DG     H21 5564   3.638   5.240   4.821  1.3930  0.5495 -0.7640
  242DG     H22 5565   3.732   5.067   5.048  0.2694  0.5812  1.9829
  242DG     H23 5566   3.565   5.068   5.005 -2.2115  1.9755 -0.9657
  243DG      C1 5567   3.946   0.387   4.006  0.6277  0.3786  0.0303
  243DG      C2 5568   4.118   1.122   4.132  0.3229  0.7059  0.8224
  243DG      H3 5569   3.965   0.320   4.089 -0.2368  1.2183  0.9342
  243DG      H4 5570   4.021   0.379   3.927  1.2432 -0.8613  0.7220
  243DG      H5 5571   3.861   0.351   3.948  0.5658  0.7713 -0.1296
  243DG      H6 5572   4.073   1.221   4.142  1.1451  1.7122 -3.4613
  243DG      H7 5573   4.193   1.098   4.207 -1.0151  1.3009  2.4047
  243DG      H8 5574   4.168   1.139   4.037  1.1568 -0.3769  1.0499
  243DG      O9 5575   3.921   0.522   4.048 -0.3307 -0.4909 -0.1338
  243DG     O10 5576   4.021   1.021   4.117  0.1240 -0.4596  0.0231
  243DG     C11 5577   3.821   0.536   4.149 -0.1360 -0.2230 -0.5566
  243DG     C12 5578   3.955   0.996   4.236  0.5057  0.3020 -0.1542
  243DG     H13 5579   3.848   0.502   4.249 -0.0917 -4.8527 -1.9280
  243DG     H14 5580   3.735   0.472   4.130  0.2219 -0.9236  0.1380
  243DG     H15 5581   3.916   1.091   4.273 -1.6555  0.2852 -2.2019
  243DG     H16 5582   4.027   0.947   4.302 -0.3252 -1.3585 -0.4198
  243DG     C17 5583   3.767   0.679   4.161 -0.2311 -0.0101  0.7723
  243DG     C18 5584   3.838   0.904   4.208  0.7682 -0.3843 -0.8018
  243DG     O19 5585   3.875   0.776   4.175 -0.4184  0.0150 -0.1984
  243DG     H20 5586   3.697   0.679   4.245 -0.0914 -0.3878  0.8906
  243DG     H21 5587   3.713   0.704   4.069  1.1036  0.1526  0.0066
  243DG     H22 5588   3.764   0.898   4.288 -0.6856 -2.2408 -2.1885
  243DG     H23 5589   3.797   0.965   4.128  1.1106 -0.8054 -1.2980
  244DG      C1 5590   5.083   1.706   2.072 -0.1670 -0.6313 -0.1253
  244DG      C2 5591   5.348   2.240   1.713  0.3284  0.2546 -1.2512
  244DG      H3 5592   5.162   1.631   2.081 -0.5488 -1.0589 -0.3203
  244DG      H4 5593   4.988   1.655   2.085  0.4840 -2.7751 -2.8302
  244DG      H5 5594   5.091   1.773   2.158  0.5191 -0.6895 -0.1343
  244DG      H6 5595   5.447   2.197   1.697 -0.0731 -0.9311 -0.6681
  244DG      H7 5596   5.324   2.313   1.635 -0.3459  0.5264 -0.8044
  244DG      H8 5597   5.342   2.294   1.808 -0.2571  2.3676 -2.4119
  244DG      O9 5598   5.092   1.780   1.950  0.6716  0.4621 -0.0362
  244DG     O10 5599   5.245   2.145   1.715 -0.0056  0.0528 -0.4570
  244DG     C11 5600   5.043   1.719   1.836 -0.0779  0.3723 -0.6772
  244DG     C12 5601   5.251   2.059   1.599 -0.1459 -0.0854 -0.5607
  244DG     H13 5602   4.957   1.654   1.854 -1.6322  2.2124 -1.1151
  244DG     H14 5603   5.119   1.647   1.807 -0.7492  0.7478 -3.6837
  244DG     H15 5604   5.337   1.993   1.605 -1.3619 -1.6819 -0.1118
  244DG     H16 5605   5.266   2.127   1.515  3.1124  1.5041  1.1104
  244DG     C17 5606   5.001   1.819   1.728 -0.2297  0.2245  0.3686
  244DG     C18 5607   5.121   1.980   1.601 -0.1319 -0.0892 -0.4050
  244DG     O19 5608   5.111   1.908   1.721  0.0950  0.0615 -0.3004
  244DG     H20 5609   4.920   1.879   1.768 -1.7965 -1.0085 -0.8176
  244DG     H21 5610   4.971   1.770   1.635  1.9291  0.3682 -0.4721
  244DG     H22 5611   5.036   2.047   1.591 -0.0403 -0.1856 -2.1076
  244DG     H23 5612   5.111   1.911   1.517 -1.4434  0.1793 -0.4834
  245DG      C1 5613   4.904   4.174   2.617  0.4370  0.0441 -0.3446
  245DG      C2 5614   5.174   4.496   3.167 -0.2135 -0.2707  0.8974
  245DG      H3 5615   4.886   4.089   2.682  0.3879 -0.7946 -1.4281
  245DG      H4 5616   4.994   4.161   2.556  2.0418  1.2055  1.6569
  245DG      H5 5617   4.813   4.172   2.558 -1.6485  1.2607  2.5988
  245DG      H6 5618   5.271   4.457   3.138 -1.0779 -1.0946 -1.0821
  245DG      H7 5619   5.179   4.587   3.226  1.8735 -0.5207  1.1642
  245DG      H8 5620   5.124   4.416   3.221 -1.1462 -0.9722 -0.9195
  245DG      O9 5621   4.915   4.297   2.697 -0.0818 -0.4581  0.0538
  245DG     O10 5622   5.095   4.529   3.048 -0.5894 -0.5468 -0.1114
  245DG     C11 5623   4.922   4.415   2.618  0.2199  0.1659  0.0412
  245DG     C12 5624   4.978   4.600   3.060 -0.2105 -0.5512 -0.0228
  245DG     H13 5625   4.860   4.410   2.528  1.5302  1.4892 -0.9968
  245DG     H14 5626   5.019   4.425   2.569  0.7037  2.7023  1.4067
  245DG     H15 5627   4.996   4.696   3.109 -0.6414  0.2491 -1.3430
  245DG     H16 5628   4.912   4.535   3.116  1.1822 -3.2185 -1.2940
  245DG     C17 5629   4.891   4.549   2.697  0.3021 -0.3088  0.1995
  245DG     C18 5630   4.907   4.628   2.924 -0.0194 -0.2225 -0.4144
  245DG     O19 5631   4.920   4.523   2.835  0.0119  0.3224 -0.0208
  245DG     H20 5632   4.783   4.561   2.692  0.5875  2.0000 -2.5036
  245DG     H21 5633   4.959   4.625   2.660  2.7886 -2.2559  0.5146
  245DG     H22 5634   4.803   4.659   2.932 -0.4662 -0.9258 -2.6687
  245DG     H23 5635   4.954   4.715   2.879 -0.1227  0.4423  0.7325
  246DG      C1 5636   1.170   5.415   2.131 -0.6475 -0.0070 -1.0959
  246DG      C2 5637   1.091   4.711   1.992 -0.1013  0.1240  0.9155
  246DG      H3 5638   1.278   5.427   2.143 -0.5985 -0.0698 -1.4384
  246DG      H4 5639   1.117   5.509   2.146 -1.0151 -0.2731 -0.7144
  246DG      H5 5640   1.160   5.378   2.029  1.6744  0.2319 -1.4723
  246DG      H6 5641   1.181   4.679   1.938 -0.1866  2.6378 -0.8862
  246DG      H7 5642   1.076   4.652   2.082 -2.7757  1.2809  1.2931
  246DG      H8 5643   1.005   4.692   1.927  1.7081 -1.3498 -1.2383
  246DG      O9 5644   1.120   5.313   2.223  0.0357  0.1099  0.1006
  246DG     O10 5645   1.102   4.847   2.035  0.2619 -0.0691 -0.1671
  246DG     C11 5646   0.982   5.288   2.207  0.4766  0.1587 -0.7785
  246DG     C12 5647   1.147   4.942   1.946  0.4372  0.3188  0.8048
  246DG     H13 5648   0.929   5.381   2.228  0.4030  0.1096 -0.7478
  246DG     H14 5649   0.952   5.214   2.281 -0.8997  0.3693 -1.1168
  246DG     H15 5650   1.165   4.902   1.846  2.9972 -2.0917  2.0619
  246DG     H16 5651   1.250   4.973   1.966  0.7974 -0.2081 -0.1523
  246DG     C17 5652   0.945   5.226   2.076 -0.4752 -1.0628  0.6899
  246DG     C18 5653   1.055   5.056   1.943  0.5631 -0.4143 -0.0441
  246DG     O19 5654   1.037   5.119   2.072 -0.7266 -0.1448 -0.1997
  246DG     H20 5655   0.958   5.294   1.991  0.8928 -0.7740  1.1156
  246DG     H21 5656   0.844   5.185   2.085 -0.0642 -2.1568  0.4025
  246DG     H22 5657   1.079   5.129   1.866  1.1500  1.4667  1.8349
  246DG     H23 5658   0.954   5.018   1.922  0.6278  0.6986 -2.8100
  247DG      C1 5659   1.443   1.747   4.416  0.0072 -0.0260  0.9518
  247DG      C2 5660   1.847   1.739   3.770 -0.8794  0.9795  0.1729
  247DG      H3 5661   1.551   1.737   4.425  0.3977  2.2041 -0.6682
  247DG      H4 5662   1.388   1.694   4.495 -0.4278  0.8219  1.2303
  247DG      H5 5663   1.421   1.853   4.424  0.9913  0.6086 -2.9868
  247DG      H6 5664   1.956   1.743   3.764 -0.5326 -2.5821  1.6677
  247DG      H7 5665   1.826   1.667   3.692  0.1350 -1.5544  2.0906
  247DG      H8 5666   1.798   1.833   3.745 -1.2409  0.7621  0.0642
  247DG      O9 5667   1.395   1.706   4.287  0.0215 -0.0414 -0.6515
  247DG     O10 5668   1.793   1.684   3.894 -0.5670  0.9837 -0.0663
  247DG     C11 5669   1.434   1.577   4.245 -0.4218  0.5031  0.4018
  247DG     C12 5670   1.822   1.759   4.010 -0.1675 -0.5035 -0.4644
  247DG     H13 5671   1.382   1.559   4.151 -0.9565  1.2756  0.5425
  247DG     H14 5672   1.404   1.507   4.323  1.0870 -0.6616 -0.0127
  247DG     H15 5673   1.770   1.854   4.018 -0.3150 -0.7160  1.8559
  247DG     H16 5674   1.930   1.772   4.022  0.3425 -2.7073 -2.0494
  247DG     C17 5675   1.592   1.563   4.221  0.7419  0.5047 -0.5192
  247DG     C18 5676   1.779   1.665   4.131  0.3473  0.1787  0.0064
  247DG     O19 5677   1.638   1.669   4.138 -0.0128  0.3939  0.1232
  247DG     H20 5678   1.620   1.461   4.196 -1.2762  0.6175 -3.8236
  247DG     H21 5679   1.635   1.572   4.321  2.1892  1.7752 -1.2286
  247DG     H22 5680   1.832   1.572   4.113 -0.3873 -0.5140  1.2749
  247DG     H23 5681   1.810   1.700   4.229  0.5780 -0.3391  0.1221
  248DG      C1 5682   0.623   3.861   3.119 -0.4955 -0.2819 -0.2832
  248DG      C2 5683   0.631   3.177   3.074  0.8648 -0.7699  1.1063
  248DG      H3 5684   0.598   3.867   3.225 -0.0713 -2.7209  0.0164
  248DG      H4 5685   0.524   3.864   3.074 -0.5809 -0.0076 -0.0800
  248DG      H5 5686   0.669   3.957   3.094  0.9426 -0.1892  2.3968
  248DG      H6 5687   0.557   3.190   3.153 -2.1077  0.8256 -1.7371
  248DG      H7 5688   0.591   3.103   3.004  2.1692 -0.8231  0.3832
  248DG      H8 5689   0.721   3.136   3.120  1.6403 -0.4935 -0.1306
  248DG      O9 5690   0.700   3.751   3.076 -0.1189  0.4581  0.0215
  248DG     O10 5691   0.665   3.300   3.014 -0.0449 -0.0813  0.0391
  248DG     C11 5692   0.746   3.769   2.943  0.5410  0.6399 -0.3808
  248DG     C12 5693   0.795   3.290   2.957 -0.3699  0.1121  1.1937
  248DG     H13 5694   0.805   3.861   2.944  1.3165  0.1604 -0.8449
  248DG     H14 5695   0.669   3.776   2.866  1.1014 -0.0514 -1.0216
  248DG     H15 5696   0.794   3.226   2.868  1.7920  2.9153 -1.0429
  248DG     H16 5697   0.870   3.245   3.023  1.3093 -1.4642 -1.5754
  248DG     C17 5698   0.837   3.648   2.902 -0.2480 -0.2289 -0.6187
  248DG     C18 5699   0.846   3.415   2.889 -0.5460 -0.6275  0.2248
  248DG     O19 5700   0.803   3.525   2.967  0.1279  0.2311 -0.0042
  248DG     H20 5701   0.939   3.668   2.933 -0.6913  0.0701  0.6984
  248DG     H21 5702   0.844   3.648   2.793  1.2548 -0.0942 -0.5428
  248DG     H22 5703   0.952   3.397   2.874 -0.4721 -1.4234  1.5292
  248DG     H23 5704   0.810   3.419   2.786 -1.4791 -0.9803  0.5254
  249DG      C1 5705   4.365   2.906   4.037  0.2070  0.2217  1.0901
  249DG      C2 5706   4.265   2.959   4.726  0.7828  0.3540  0.5047
  249DG      H3 5707   4.272   2.857   4.065 -0.0034 -0.4954 -0.7787
  249DG      H4 5708   4.444   2.838   4.004  1.0438  1.9212 -0.5957
  249DG      H5 5709   4.344   2.977   3.957  1.6398  1.1593  1.4997
  249DG      H6 5710   4.248   2.852   4.737 -1.6865  0.7915  1.7266
  249DG      H7 5711   4.302   3.011   4.814  1.6717 -1.4652  1.2443
  249DG      H8 5712   4.165   3.000   4.707  1.3340  1.1459 -0.7957
  249DG      O9 5713   4.417   2.964   4.150  0.1594  0.4960 -0.3546
  249DG     O10 5714   4.345   3.007   4.618 -0.8223 -0.3786  0.7871
  249DG     C11 5715   4.556   2.945   4.171 -0.1876 -0.1018  0.2079
  249DG     C12 5716   4.483   2.965   4.637  0.7634  0.2314  0.0189
  249DG     H13 5717   4.608   2.975   4.080  1.6107  0.2448  1.2932
  249DG     H14 5718   4.576   2.839   4.189 -0.8140 -0.0715  1.1441
  249DG     H15 5719   4.500   2.858   4.621 -1.2956 -0.3777  1.4587
  249DG     H16 5720   4.515   2.984   4.740 -1.8620 -2.0260  1.3831
  249DG     C17 5721   4.597   3.027   4.293 -0.6262  0.2722 -0.2666
  249DG     C18 5722   4.575   3.026   4.530  0.1789  0.0852  0.3978
  249DG     O19 5723   4.522   2.976   4.403 -0.4046  0.5934 -0.3474
  249DG     H20 5724   4.587   3.135   4.280 -0.5793  0.6609  2.3158
  249DG     H21 5725   4.698   2.991   4.308 -0.8214 -0.5741 -0.9500
  249DG     H22 5726   4.586   3.135   4.535  1.5496  0.0044 -0.4594
  249DG     H23 5727   4.680   3.002   4.542  0.5127 -0.5209 -2.7597
  250DG      C1 5728   4.713   2.060   4.995  0.5251 -0.0822 -0.3075
  250DG      C2 5729   4.659   2.627   4.472  0.1253  0.3741  0.4071
  250DG      H3 5730   4.609   2.092   5.000  0.0762 -1.0121 -2.5085
  250DG      H4 5731   4.766   2.108   5.077  0.8378 -0.8003 -0.0829
  250DG      H5 5732   4.718   1.954   5.016 -0.5054  0.1264  1.1523
  250DG      H6 5733   4.566   2.645   4.418  0.5006  3.4720  0.6392
  250DG      H7 5734   4.654   2.696   4.557  0.4836 -1.4514  1.9969
  250DG      H8 5735   4.749   2.643   4.413  1.2225 -0.4522  1.7789
  250DG      O9 5736   4.760   2.116   4.879 -0.1515  0.0352  0.5802
  250DG     O10 5737   4.669   2.495   4.507 -0.1877  0.0366  0.0012
  250DG     C11 5738   4.744   2.260   4.869  0.0720  0.6231 -0.9356
  250DG     C12 5739   4.567   2.449   4.595 -0.0448  0.1979  0.5610
  250DG     H13 5740   4.795   2.311   4.950 -2.8175 -1.0830  2.2009
  250DG     H14 5741   4.639   2.284   4.887 -0.1271 -1.0696  0.3973
  250DG     H15 5742   4.469   2.476   4.556  0.3244  0.1501 -0.4265
  250DG     H16 5743   4.568   2.498   4.692  1.2449  1.0895  0.1289
  250DG     C17 5744   4.782   2.306   4.731 -0.1242  0.5131  0.0701
  250DG     C18 5745   4.572   2.295   4.607 -0.8686 -0.2730 -0.3791
  250DG     O19 5746   4.699   2.237   4.626 -0.8117  0.1119 -0.0313
  250DG     H20 5747   4.879   2.266   4.701 -0.2080  0.4181 -0.0764
  250DG     H21 5748   4.787   2.415   4.722  0.7446  0.5052  0.3503
  250DG     H22 5749   4.504   2.272   4.689 -1.7613  1.3709 -0.6086
  250DG     H23 5750   4.518   2.260   4.518 -1.7141  0.3174 -0.1133
  251DG      C1 5751   2.136   3.769   2.822 -0.4988 -0.3735 -0.2656
  251DG      C2 5752   1.880   3.380   3.273  1.1261 -0.0313  0.4795
  251DG      H3 5753   2.045   3.797   2.770 -0.2763  2.0235  0.5088
  251DG      H4 5754   2.177   3.676   2.783  2.7820 -0.4861  2.9700
  251DG      H5 5755   2.214   3.845   2.813  0.9348 -1.6723  0.6440
  251DG      H6 5756   1.813   3.325   3.206  2.1400 -2.3946  1.2695
  251DG      H7 5757   1.979   3.338   3.256 -0.1407 -2.9836 -0.4358
  251DG      H8 5758   1.845   3.348   3.371 -0.3834 -0.9746 -0.3171
  251DG      O9 5759   2.123   3.732   2.959 -0.5118 -0.1877 -0.2722
  251DG     O10 5760   1.867   3.521   3.257 -0.3032 -0.2764  0.6652
  251DG     C11 5761   2.107   3.852   3.035  0.4207  0.0954 -0.7145
  251DG     C12 5762   1.943   3.581   3.358  0.3651 -0.5309 -0.3103
  251DG     H13 5763   2.022   3.909   2.998 -0.7966 -1.1466  0.0982
  251DG     H14 5764   2.197   3.912   3.021  1.5932 -0.9064  1.7725
  251DG     H15 5765   2.051   3.567   3.367  0.8050  2.5487  0.5091
  251DG     H16 5766   1.904   3.568   3.459  1.8524  2.4014  0.7831
  251DG     C17 5767   2.099   3.811   3.188  0.1429 -0.2045 -0.3043
  251DG     C18 5768   1.934   3.731   3.338 -0.2727  0.0468 -0.1094
  251DG     O19 5769   1.968   3.767   3.200 -0.6094  0.0334  0.2727
  251DG     H20 5770   2.122   3.889   3.261  2.1721 -0.4023 -0.6876
  251DG     H21 5771   2.172   3.731   3.199 -0.8501 -1.2492 -1.0071
  251DG     H22 5772   1.833   3.772   3.350  0.4950  2.1294 -0.2653
  251DG     H23 5773   1.991   3.778   3.418  1.2420 -0.3136 -0.9403
  252DG      C1 5774   3.016   3.831   2.166  0.4478  0.0002 -0.3946
  252DG      C2 5775   3.269   3.983   2.854  0.3391 -0.3699 -0.4246
  252DG      H3 5776   2.957   3.767   2.232  0.3548  0.8920  0.4106
  252DG      H4 5777   2.995   3.800   2.064  0.3199  0.2184 -0.4339
  252DG      H5 5778   2.990   3.933   2.194 -1.9783 -0.8490  0.6919
  252DG      H6 5779   3.316   4.076   2.820 -1.3299  1.0385  0.9433
  252DG      H7 5780   3.166   3.999   2.886  0.3092  1.8742 -1.4172
  252DG      H8 5781   3.321   3.942   2.940  1.7065 -0.2283 -1.1441
  252DG      O9 5782   3.154   3.803   2.208  0.5072 -0.0530  0.2118
  252DG     O10 5783   3.267   3.882   2.756 -0.4612 -0.0566  0.0496
  252DG     C11 5784   3.195   3.879   2.322 -0.7542 -0.1651 -0.0058
  252DG     C12 5785   3.392   3.853   2.687  0.4762 -0.4712 -0.2031
  252DG     H13 5786   3.114   3.888   2.395 -0.1135  0.5638  0.6318
  252DG     H14 5787   3.218   3.976   2.278  0.0897 -1.2073 -1.9473
  252DG     H15 5788   3.475   3.856   2.758 -0.6944 -0.7908  1.2194
  252DG     H16 5789   3.419   3.929   2.614  0.0474  1.6909  1.7720
  252DG     C17 5790   3.328   3.819   2.378  0.3592 -0.0806 -0.0788
  252DG     C18 5791   3.375   3.720   2.612 -1.1186  0.1412  0.1587
  252DG     O19 5792   3.288   3.739   2.492 -0.2441  0.5168 -0.1361
  252DG     H20 5793   3.397   3.899   2.406  1.3900 -0.9378 -0.1285
  252DG     H21 5794   3.389   3.769   2.304 -0.3498 -0.9513 -0.0952
  252DG     H22 5795   3.471   3.690   2.571 -1.4267 -0.1914 -0.3357
  252DG     H23 5796   3.332   3.639   2.671 -1.5160  1.4914  1.8307
  253DG      C1 5797   3.185   3.654   3.204 -0.0174  0.3026  0.1890
  253DG      C2 5798   3.648   4.107   2.952 -0.1873 -0.1145 -0.1526
  253DG      H3 5799   3.259   3.645   3.284 -0.0852  0.0700  0.2276
  253DG      H4 5800   3.197   3.568   3.138 -0.8565  1.4056 -1.4362
  253DG      H5 5801   3.094   3.626   3.257  0.0087 -0.4012 -0.1261
  253DG      H6 5802   3.703   4.023   2.911 -0.6650  0.1640 -1.4271
  253DG      H7 5803   3.569   4.135   2.881  0.3726 -0.7988 -1.0750
  253DG      H8 5804   3.712   4.195   2.964 -0.1514 -0.0812 -0.5708
  253DG      O9 5805   3.193   3.784   3.140  0.1944  0.4511  0.2222
  253DG     O10 5806   3.581   4.057   3.068  0.4247 -0.3552 -0.1974
  253DG     C11 5807   3.144   3.889   3.223  0.5916 -0.2940 -0.0042
  253DG     C12 5808   3.510   4.162   3.130  0.0223 -0.1246 -0.0840
  253DG     H13 5809   3.069   3.857   3.295 -0.8312  1.0090 -0.8357
  253DG     H14 5810   3.083   3.941   3.149 -0.6343  1.0011  1.8248
  253DG     H15 5811   3.442   4.202   3.055  1.7739  0.6866 -1.3162
  253DG     H16 5812   3.576   4.241   3.166 -0.9116  0.7021 -0.1627
  253DG     C17 5813   3.256   3.956   3.293 -0.2484 -0.0848  0.0201
  253DG     C18 5814   3.428   4.107   3.245  1.1749 -0.3337  0.1622
  253DG     O19 5815   3.322   4.026   3.192 -0.3820 -0.3414 -0.6257
  253DG     H20 5816   3.308   3.878   3.349  0.2928  0.1485 -0.1555
  253DG     H21 5817   3.228   4.032   3.367  0.6613  0.9191 -0.6368
  253DG     H22 5818   3.494   4.057   3.316  0.0501 -1.3726  0.5202
  253DG     H23 5819   3.393   4.190   3.305  0.3559  1.1162 -2.2008
  254DG      C1 5820   0.696   0.937   4.735  0.4829 -0.2174 -0.2776
  254DG      C2 5821   0.576   0.424   4.802  0.2263 -0.2192 -0.0697
  254DG      H3 5822   0.782   0.880   4.770  1.8083  1.2353 -1.0372
  254DG      H4 5823   0.604   0.934   4.794 -1.4160  1.6054 -2.8889
  254DG      H5 5824   0.729   1.040   4.748 -0.5048 -0.0460  1.0333
  254DG      H6 5825   0.617   0.463   4.895 -0.0984  1.5304 -0.6322
  254DG      H7 5826   0.509   0.340   4.819  0.9758 -0.9343 -0.5846
  254DG      H8 5827   0.658   0.382   4.744  0.4925 -2.4436  1.7871
  254DG      O9 5828   0.672   0.903   4.594  0.1001  0.2160 -0.7965
  254DG     O10 5829   0.525   0.534   4.733 -0.4682 -0.5855  0.3540
  254DG     C11 5830   0.556   0.949   4.527  0.2027  0.6168 -0.5320
  254DG     C12 5831   0.435   0.507   4.624 -0.1650  0.0503 -0.2305
  254DG     H13 5832   0.581   0.950   4.421  1.5756 -0.9351 -0.2764
  254DG     H14 5833   0.535   1.052   4.553  0.6875  1.0076 -1.6138
  254DG     H15 5834   0.360   0.438   4.661 -0.8276  0.4142 -0.8701
  254DG     H16 5835   0.472   0.458   4.534  1.1578  0.0673  0.2785
  254DG     C17 5836   0.430   0.867   4.551 -0.3297  0.0777  0.7217
  254DG     C18 5837   0.366   0.644   4.580  0.1787 -0.1666  0.1950
  254DG     O19 5838   0.476   0.733   4.558  0.6131 -0.3215 -0.6937
  254DG     H20 5839   0.354   0.876   4.474 -2.1678  0.3407  2.4677
  254DG     H21 5840   0.379   0.904   4.640 -1.3128  0.1060  0.1564
  254DG     H22 5841   0.301   0.638   4.493 -0.9429 -0.9128  1.0641
  254DG     H23 5842   0.307   0.687   4.660  0.9153  0.6768  0.3048
  255DG      C1 5843   3.320   2.576   0.889  0.2129  0.0142 -0.2518
  255DG      C2 5844   3.346   3.134   0.900  0.0685 -0.5639 -0.0659
  255DG      H3 5845   3.356   2.546   0.790 -1.8823 -0.2540 -0.9892
  255DG      H4 5846   3.308   2.682   0.912  0.5517 -0.4808  2.4699
  255DG      H5 5847   3.220   2.531   0.883 -0.3523  1.3961 -2.7822
  255DG      H6 5848   3.257   3.123   0.837  1.0034 -3.8761 -1.0134
  255DG      H7 5849   3.352   3.223   0.961  0.3096 -2.5727  3.0457
  255DG      H8 5850   3.429   3.139   0.829  0.0485  0.6725 -0.0193
  255DG      O9 5851   3.388   2.519   0.995 -0.1497  0.5608  0.5535
  255DG     O10 5852   3.364   3.021   0.982 -0.0270  0.2629 -0.0003
  255DG     C11 5853   3.524   2.554   1.007 -0.4010  0.1025 -0.4047
  255DG     C12 5854   3.491   3.029   1.039  0.2311 -0.1596  0.2366
  255DG     H13 5855   3.568   2.557   0.908 -2.1702  0.3776 -1.2222
  255DG     H14 5856   3.577   2.471   1.053 -0.8916  0.1390  0.2518
  255DG     H15 5857   3.494   3.109   1.113 -1.7635 -1.0718  1.4031
  255DG     H16 5858   3.570   3.033   0.964 -1.3170 -0.0012 -1.4546
  255DG     C17 5859   3.547   2.675   1.100  0.4125 -0.3365 -0.5102
  255DG     C18 5860   3.528   2.902   1.124  0.1036  0.0382 -0.3346
  255DG     O19 5861   3.505   2.794   1.042  0.1272  0.9826  0.6535
  255DG     H20 5862   3.650   2.690   1.132 -0.6178  1.0646  2.5983
  255DG     H21 5863   3.493   2.663   1.195 -0.8741 -0.6823 -1.2611
  255DG     H22 5864   3.625   2.908   1.173  0.0258  1.7168 -0.3219
  255DG     H23 5865   3.461   2.905   1.210  0.1355  0.9151 -0.3372
  256DG      C1 5866   4.662   4.157   1.171  1.1636 -0.0175 -0.6670
  256DG      C2 5867   4.262   3.609   1.487 -0.2852  0.2457  0.4745
  256DG      H3 5868   4.672   4.265   1.162  3.0274  0.1301  1.9155
  256DG      H4 5869   4.606   4.115   1.087  0.8078  2.5544 -1.7919
  256DG      H5 5870   4.760   4.113   1.153  1.6879  0.1911  1.4173
  256DG      H6 5871   4.157   3.591   1.466 -0.0135  0.8692 -1.7299
  256DG      H7 5872   4.314   3.582   1.394  0.4742 -0.2764  1.0389
  256DG      H8 5873   4.295   3.542   1.566  1.4115  0.1353 -0.2621
  256DG      O9 5874   4.621   4.126   1.305  0.1424  0.1482  0.1509
  256DG     O10 5875   4.277   3.744   1.522  0.5993  0.2224 -0.0780
  256DG     C11 5876   4.489   4.168   1.324  0.1393  0.1650  0.2195
  256DG     C12 5877   4.408   3.771   1.561 -0.1934  0.0274 -0.2482
  256DG     H13 5878   4.431   4.121   1.244  0.0211  0.4619  0.1269
  256DG     H14 5879   4.469   4.274   1.305  0.6454  0.1037 -0.7098
  256DG     H15 5880   4.488   3.736   1.496 -0.4193 -2.3740  0.6625
  256DG     H16 5881   4.430   3.718   1.654  1.3858  1.4201  0.2168
  256DG     C17 5882   4.420   4.115   1.450 -0.6450 -0.3369  0.0497
  256DG     C18 5883   4.421   3.924   1.573 -0.0862 -0.1082 -0.4173
  256DG     O19 5884   4.418   3.976   1.439  0.1235  0.2408 -0.1905
  256DG     H20 5885   4.319   4.151   1.466  0.0005  1.0823  1.1246
  256DG     H21 5886   4.487   4.148   1.529  1.8270 -2.2953 -1.0788
  256DG     H22 5887   4.335   3.956   1.632  0.2856 -1.1001  0.7133
  256DG     H23 5888   4.515   3.939   1.626 -0.5911  1.4982  0.0851
  257DG      C1 5889   3.938   0.675   4.485 -0.3797  0.5983 -0.0272
  257DG      C2 5890   3.347   0.407   4.096 -0.3288 -0.6133 -0.0177
  257DG      H3 5891   3.974   0.716   4.390 -0.1047 -0.5347 -0.4256
  257DG      H4 5892   3.983   0.576   4.490 -1.2112  0.2744  1.3185
  257DG      H5 5893   3.958   0.728   4.578 -1.4814 -2.7582  2.3020
  257DG      H6 5894   3.332   0.300   4.086 -0.2963 -0.7226  0.9875
  257DG      H7 5895   3.249   0.449   4.071 -0.0774  0.0052  0.0139
  257DG      H8 5896   3.423   0.448   4.029  1.1946  2.5921  3.3352
  257DG      O9 5897   3.800   0.667   4.463 -0.4491 -0.1978 -0.1549
  257DG     O10 5898   3.370   0.444   4.231  0.1602 -0.0132  0.4752
  257DG     C11 5899   3.737   0.588   4.564  0.3970 -0.2199  0.5239
  257DG     C12 5900   3.363   0.578   4.255  0.2253  0.3865 -0.7169
  257DG     H13 5901   3.770   0.629   4.659 -1.4519  1.2199  0.6026
  257DG     H14 5902   3.751   0.480   4.555 -1.3386 -0.3284 -1.6358
  257DG     H15 5903   3.261   0.610   4.236  0.0209  0.4142  0.3579
  257DG     H16 5904   3.430   0.641   4.197  1.7178 -0.5191 -0.0418
  257DG     C17 5905   3.584   0.615   4.559 -0.5117  0.3670 -0.3112
  257DG     C18 5906   3.396   0.587   4.407  0.4449 -0.5985  0.1887
  257DG     O19 5907   3.541   0.603   4.429  0.2599  0.0707 -0.4659
  257DG     H20 5908   3.555   0.710   4.603 -0.4857  0.7692 -1.1323
  257DG     H21 5909   3.531   0.542   4.620 -0.5787  0.6690 -0.0114
  257DG     H22 5910   3.347   0.665   4.465  1.6207 -1.0073  1.8109
  257DG     H23 5911   3.370   0.496   4.461 -2.0619  0.8017  1.5035
  258DG      C1 5912   3.793   3.030   3.937  0.5656  0.0574  0.5297
  258DG      C2 5913   4.527   3.230   3.902 -0.3150  0.0954 -0.0818
  258DG      H3 5914   3.784   2.922   3.952 -0.7655  0.2245  1.0761
  258DG      H4 5915   3.692   3.062   3.912  0.3574 -0.7279  0.3252
  258DG      H5 5916   3.820   3.078   4.031  1.4539  1.0031 -0.1872
  258DG      H6 5917   4.598   3.272   3.830  0.1796 -2.7275 -1.3545
  258DG      H7 5918   4.536   3.281   3.998 -1.6580 -1.9061  1.1621
  258DG      H8 5919   4.553   3.125   3.913 -0.7200 -0.1701 -1.4645
  258DG      O9 5920   3.867   3.069   3.820 -0.0517  0.1827 -0.5254
  258DG     O10 5921   4.391   3.230   3.868 -0.4747 -0.0325  0.1484
  258DG     C11 5922   3.992   2.998   3.810 -0.0247 -0.1702 -0.0904
  258DG     C12 5923   4.365   3.217   3.727 -0.9668 -0.0079  0.1897
  258DG     H13 5924   3.967   2.896   3.780  0.0319  0.2793 -1.7892
  258DG     H14 5925   4.044   2.997   3.905  2.1113 -0.6066 -1.2092
  258DG     H15 5926   4.385   3.113   3.702 -1.1630  0.2633 -1.1934
  258DG     H16 5927   4.435   3.279   3.671 -2.4143  2.0819  0.5591
  258DG     C17 5928   4.086   3.070   3.710  0.4908 -0.4110 -0.1628
  258DG     C18 5929   4.221   3.263   3.699  0.5797  0.1491 -0.5227
  258DG     O19 5930   4.131   3.182   3.778 -0.0335  0.3161 -0.4609
  258DG     H20 5931   4.039   3.091   3.614 -1.0713 -0.3875  0.5874
  258DG     H21 5932   4.171   3.004   3.691 -0.3534 -1.5706 -0.0369
  258DG     H22 5933   4.203   3.369   3.717 -0.9700 -0.5005  2.3093
  258DG     H23 5934   4.197   3.241   3.595 -0.7948 -0.5663 -0.0787
  259DG      C1 5935   2.913   0.876   1.198 -0.2658 -0.0822  0.2581
  259DG      C2 5936   3.247   0.150   1.124 -0.1262 -0.0705 -0.8762
  259DG      H3 5937   3.020   0.887   1.182  0.3268 -0.5969  3.1874
  259DG      H4 5938   2.889   0.929   1.291 -2.0894 -0.7298  0.1997
  259DG      H5 5939   2.862   0.930   1.118  0.2675  1.1801  0.7517
  259DG      H6 5940   3.204   0.050   1.130  0.8447 -0.4690 -0.2154
  259DG      H7 5941   3.301   0.152   1.029  1.6401 -2.0432  0.0002
  259DG      H8 5942   3.310   0.169   1.211 -0.7117 -2.1674  0.0847
  259DG      O9 5943   2.865   0.743   1.186 -0.3380  0.0447  0.1228
  259DG     O10 5944   3.137   0.237   1.130 -0.2077 -1.0096  0.1655
  259DG     C11 5945   2.922   0.673   1.073 -0.2698 -0.7428  0.0161
  259DG     C12 5946   3.038   0.217   1.026 -0.3375  0.3095 -0.1503
  259DG     H13 5947   3.029   0.664   1.093 -0.0355 -0.3900 -1.0457
  259DG     H14 5948   2.909   0.718   0.975  1.9797  0.0234  0.0235
  259DG     H15 5949   3.000   0.115   1.028 -0.2922  0.2978  0.4437
  259DG     H16 5950   3.086   0.233   0.930 -1.3538 -2.8042 -1.2850
  259DG     C17 5951   2.860   0.538   1.078  0.3367 -0.0025  0.7406
  259DG     C18 5952   2.920   0.312   1.033  0.1963  0.0356 -0.5580
  259DG     O19 5953   2.966   0.445   1.044 -0.4048  0.5614  0.6722
  259DG     H20 5954   2.774   0.521   1.012  1.9487 -0.3569 -1.3653
  259DG     H21 5955   2.832   0.508   1.179 -0.1549 -0.3363  0.5097
  259DG     H22 5956   2.871   0.306   0.936  0.4671 -0.6131 -0.6618
  259DG     H23 5957   2.858   0.289   1.120  0.9200 -1.2158 -0.3479
  260DG      C1 5958   2.044   5.088   5.049 -0.6922  0.1950 -0.5109
  260DG      C2 5959   1.596   5.802   4.948  0.2118 -0.3960 -0.1168
  260DG      H3 5960   2.079   5.129   4.953 -1.9045  0.2339 -0.9458
  260DG      H4 5961   2.053   4.979   5.040 -1.0399  0.0799  0.4713
  260DG      H5 5962   2.088   5.125   5.141  0.2605 -0.9378 -0.4747
  260DG      H6 5963   1.575   5.798   4.841 -2.7095  0.2502  0.3466
  260DG      H7 5964   1.506   5.848   4.989  1.7428 -0.6974  3.9649
  260DG      H8 5965   1.679   5.869   4.974 -0.6735  0.7904 -0.2443
  260DG      O9 5966   1.908   5.120   5.056  0.0788  1.1273  0.5652
  260DG     O10 5967   1.617   5.676   5.005 -0.1198  0.3120 -0.2037
  260DG     C11 5968   1.880   5.254   5.035  0.3444 -1.0131  0.4075
  260DG     C12 5969   1.537   5.570   4.951 -0.1003 -0.5399 -0.6278
  260DG     H13 5970   1.923   5.292   4.942 -0.9660 -0.9748 -0.2046
  260DG     H14 5971   1.923   5.313   5.115 -1.7246 -0.2300  1.0127
  260DG     H15 5972   1.571   5.565   4.847  2.1042  1.0167 -0.0532
  260DG     H16 5973   1.429   5.584   4.959  0.1154  0.2521  1.4497
  260DG     C17 5974   1.729   5.277   5.068 -0.2279 -0.3127  0.3311
  260DG     C18 5975   1.565   5.434   5.024  0.3593 -0.3632  0.5013
  260DG     O19 5976   1.705   5.407   5.014  0.9228  0.3974  0.3211
  260DG     H20 5977   1.714   5.276   5.176 -3.3982 -0.6627  0.0021
  260DG     H21 5978   1.672   5.203   5.011  0.0805 -0.3372  0.0509
  260DG     H22 5979   1.532   5.440   5.127 -0.6598  1.8467  0.1036
  260DG     H23 5980   1.512   5.361   4.962 -0.0251  0.2880  0.0477
  261DG      C1 5981   4.408   0.029   1.232  0.2306  0.1573  0.3172
  261DG      C2 5982   4.098   0.485   0.653 -0.0704 -0.6193 -0.5092
  261DG      H3 5983   4.314  -0.024   1.248  1.3157 -2.2530 -0.7063
  261DG      H4 5984   4.419   0.105   1.309 -1.5023 -0.1971  0.9499
  261DG      H5 5985   4.477  -0.054   1.251 -0.6622 -0.2830  1.8192
  261DG      H6 5986   4.004   0.459   0.603 -1.2037  1.1871  0.5382
  261DG      H7 5987   4.086   0.526   0.754  2.0832 -0.3794 -0.3037
  261DG      H8 5988   4.138   0.567   0.594  1.1449  0.0189  1.1335
  261DG      O9 5989   4.408   0.104   1.107 -0.3224 -0.5397 -0.1294
  261DG     O10 5990   4.182   0.374   0.677 -0.2016 -0.0835  0.2058
  261DG     C11 5991   4.374   0.030   0.992  1.3238  0.2137  0.4015
  261DG     C12 5992   4.311   0.421   0.715 -0.3043 -0.9502  0.7709
  261DG     H13 5993   4.265   0.019   0.995  1.3762 -0.6708 -0.4154
  261DG     H14 5994   4.418  -0.069   1.006 -0.2807 -0.2010  3.6195
  261DG     H15 5995   4.306   0.482   0.805  0.8316 -0.2029  0.3600
  261DG     H16 5996   4.349   0.481   0.632 -2.1730  1.2871  1.4314
  261DG     C17 5997   4.429   0.106   0.863 -0.5370  0.8948  0.7218
  261DG     C18 5998   4.399   0.293   0.738  0.1700 -0.1047 -0.0881
  261DG     O19 5999   4.361   0.230   0.855  0.0193 -0.0910 -0.1436
  261DG     H20 6000   4.402   0.042   0.779  1.6660 -1.4424  1.6820
  261DG     H21 6001   4.538   0.109   0.864 -0.4284 -1.5820  0.5963
  261DG     H22 6002   4.389   0.230   0.650  1.1958  0.1729 -0.4221
  261DG     H23 6003   4.505   0.321   0.734  0.3798 -0.8889 -0.0828
  262DG      C1 6004   1.548   2.741   3.322 -0.5599 -0.1911 -0.0292
  262DG      C2 6005   1.747   3.218   3.624  0.0207 -0.4301 -0.5144
  262DG      H3 6006   1.645   2.701   3.351  0.0874  0.8203 -0.7424
  262DG      H4 6007   1.553   2.769   3.217 -1.7342 -3.1436 -0.9945
  262DG      H5 6008   1.477   2.658   3.326 -0.5066 -0.2808 -0.7608
  262DG      H6 6009   1.853   3.195   3.633 -0.0615 -0.9844 -0.9365
  262DG      H7 6010   1.715   3.192   3.523  1.0617  0.0374 -0.9787
  262DG      H8 6011   1.729   3.325   3.637  0.1753 -0.5891  1.3852
  262DG      O9 6012   1.527   2.847   3.407 -0.0559 -0.3973  0.5727
  262DG     O10 6013   1.679   3.128   3.706  0.3561  0.3796 -0.2274
  262DG     C11 6014   1.393   2.895   3.402 -0.5117 -0.3908 -0.5888
  262DG     C12 6015   1.558   3.186   3.749 -0.1024 -0.2045 -0.0220
  262DG     H13 6016   1.327   2.828   3.457  0.7509 -2.4810 -1.5351
  262DG     H14 6017   1.353   2.888   3.301 -0.2496 -0.3076 -0.6990
  262DG     H15 6018   1.550   3.287   3.787 -0.3999  0.0754 -0.7985
  262DG     H16 6019   1.523   3.116   3.825  1.7550 -0.1607  0.9243
  262DG     C17 6020   1.388   3.043   3.450  0.3385 -0.0727  0.0669
  262DG     C18 6021   1.456   3.183   3.632  0.6482  0.2903  0.8087
  262DG     O19 6022   1.449   3.046   3.575  0.2193  0.6813  0.1205
  262DG     H20 6023   1.287   3.084   3.452 -0.3717 -1.7531  2.5995
  262DG     H21 6024   1.458   3.090   3.380 -2.6870  0.4740 -2.8511
  262DG     H22 6025   1.356   3.218   3.654  1.5882  2.9824  1.1680
  262DG     H23 6026   1.494   3.242   3.549  1.7231 -0.6006  0.6342
  263DG      C1 6027   2.430   4.563   0.073 -1.2951 -0.8129  0.6528
  263DG      C2 6028   2.436   4.297   0.853 -0.3257  0.2945 -0.5265
  263DG      H3 6029   2.518   4.604   0.024 -1.0897 -2.1413 -0.1062
  263DG      H4 6030   2.345   4.632   0.081 -0.6941 -0.0524  0.5686
  263DG      H5 6031   2.394   4.492  -0.001  1.4058 -0.9786 -0.6063
  263DG      H6 6032   2.490   4.330   0.941  1.3206 -0.6838 -1.1334
  263DG      H7 6033   2.349   4.363   0.849 -0.6167  0.2477  2.5413
  263DG      H8 6034   2.393   4.199   0.868  1.0091  0.0868  2.5873
  263DG      O9 6035   2.462   4.527   0.205  0.0940  0.1953  0.7207
  263DG     O10 6036   2.506   4.307   0.729 -0.0390  0.4211 -0.6227
  263DG     C11 6037   2.556   4.416   0.207  0.5623 -0.3891  0.5129
  263DG     C12 6038   2.553   4.444   0.700 -0.1425 -0.0336 -0.3305
  263DG     H13 6039   2.626   4.437   0.126  0.4830  2.0631  1.0030
  263DG     H14 6040   2.524   4.314   0.186  0.8559  0.3567 -4.8635
  263DG     H15 6041   2.614   4.474   0.785 -0.6089 -0.8264  0.2958
  263DG     H16 6042   2.469   4.511   0.686  1.9247  2.4971 -1.5298
  263DG     C17 6043   2.632   4.409   0.338  0.4010 -0.6797 -0.0661
  263DG     C18 6044   2.635   4.438   0.573 -0.4521  0.0089  0.1475
  263DG     O19 6045   2.553   4.417   0.460  0.3735 -0.6601 -0.0737
  263DG     H20 6046   2.691   4.499   0.329 -0.7670 -0.0450 -1.9428
  263DG     H21 6047   2.700   4.324   0.329 -0.6102 -1.3540 -1.9243
  263DG     H22 6048   2.684   4.534   0.560  0.7762 -0.2807  2.0959
  263DG     H23 6049   2.709   4.358   0.581 -0.7406 -0.1794  6.3573
  264DG      C1 6050   0.191   2.872   0.120 -0.2196  0.0770 -0.8923
  264DG      C2 6051   0.026   2.743   0.675  0.5187 -0.1937  0.6402
  264DG      H3 6052   0.265   2.911   0.191  0.9639 -1.2898 -1.3301
  264DG      H4 6053   0.125   2.954   0.093  0.3171  1.1438  0.8838
  264DG      H5 6054   0.256   2.847   0.036  1.6133  0.9844  0.1773
  264DG      H6 6055   0.044   2.683   0.765 -1.7077 -1.4467  0.3203
  264DG      H7 6056   0.108   2.814   0.669  1.7434 -1.4453  1.7117
  264DG      H8 6057  -0.072   2.790   0.684 -0.1284 -1.0958 -1.1475
  264DG      O9 6058   0.129   2.751   0.154  0.4983 -0.1707  0.0584
  264DG     O10 6059   0.031   2.653   0.562  0.5631  0.5254  0.3287
  264DG     C11 6060   0.004   2.736   0.098  0.1922  0.3810 -0.5549
  264DG     C12 6061  -0.093   2.575   0.539 -0.4313 -0.1833 -0.3741
  264DG     H13 6062   0.012   2.725  -0.010  0.2644  0.2964 -0.5411
  264DG     H14 6063  -0.048   2.828   0.124  1.0124  0.6704  0.0998
  264DG     H15 6064  -0.184   2.633   0.548 -0.6576 -0.2261 -2.0588
  264DG     H16 6065  -0.095   2.496   0.615  1.9118  0.8220  0.8390
  264DG     C17 6066  -0.062   2.618   0.171  0.6571  0.0810  0.0241
  264DG     C18 6067  -0.099   2.531   0.390  0.0258 -1.1834 -0.0977
  264DG     O19 6068  -0.055   2.641   0.309  0.4903 -0.0641  0.4724
  264DG     H20 6069  -0.025   2.520   0.139  0.7833 -0.6297  2.2066
  264DG     H21 6070  -0.170   2.608   0.161  0.9104 -2.3738 -1.1627
  264DG     H22 6071  -0.041   2.439   0.379 -0.1337 -1.2436 -0.4119
  264DG     H23 6072  -0.202   2.515   0.360  0.0847 -1.8118  0.0062
  265DG      C1 6073   0.272   1.810   1.526  0.9301 -0.6766 -0.6103
  265DG      C2 6074   0.031   2.046   0.897  0.6234  0.4714  0.3458
  265DG      H3 6075   0.204   1.728   1.504  1.6347 -1.4600  0.0736
  265DG      H4 6076   0.291   1.833   1.630  2.2042 -1.2103 -0.7120
  265DG      H5 6077   0.360   1.795   1.464 -0.5150  0.8139 -3.2062
  265DG      H6 6078   0.115   2.034   0.828 -0.5251  0.6270 -1.1380
  265DG      H7 6079  -0.017   1.948   0.900 -2.5259  1.8959  0.5247
  265DG      H8 6080  -0.043   2.119   0.863 -0.3298 -1.2458 -1.4897
  265DG      O9 6081   0.199   1.925   1.480 -0.1772  0.3674 -1.2611
  265DG     O10 6082   0.074   2.064   1.030  0.0356  0.6018  0.6117
  265DG     C11 6083   0.271   2.046   1.494 -0.0661 -0.4857 -0.2873
  265DG     C12 6084   0.143   2.186   1.047 -0.3580 -0.6127 -0.4274
  265DG     H13 6085   0.374   2.031   1.464 -0.2270 -2.0174 -0.1626
  265DG     H14 6086   0.280   2.068   1.600 -1.4530  0.8956 -0.4144
  265DG     H15 6087   0.103   2.267   0.986  3.2145  1.8874  0.2106
  265DG     H16 6088   0.247   2.173   1.015 -0.0520  1.8235 -0.6462
  265DG     C17 6089   0.186   2.153   1.417 -0.2686  0.0707  0.1245
  265DG     C18 6090   0.144   2.221   1.195 -0.5594  1.2164  0.3040
  265DG     O19 6091   0.201   2.122   1.279 -0.3057 -0.3491  0.0346
  265DG     H20 6092   0.223   2.254   1.437 -1.5639  0.7319 -0.6666
  265DG     H21 6093   0.081   2.158   1.446 -0.2733 -0.0156  0.1211
  265DG     H22 6094   0.200   2.314   1.200  0.6336  0.5604 -0.3759
  265DG     H23 6095   0.040   2.245   1.218 -1.6988 -1.1291 -1.9342
  266DG      C1 6096   5.183   3.280   4.943  0.0348 -0.1574 -0.0496
  266DG      C2 6097   4.525   3.672   5.300  0.0596 -0.0666  0.3008
  266DG      H3 6098   5.191   3.180   4.901  0.8995 -0.8249  1.6227
  266DG      H4 6099   5.263   3.289   5.016  0.1868  1.7307 -0.3989
  266DG      H5 6100   5.176   3.363   4.873 -3.5050 -0.6716 -0.5417
  266DG      H6 6101   4.529   3.701   5.195 -1.0207 -0.1084  0.2364
  266DG      H7 6102   4.421   3.686   5.328 -0.2419 -1.0105 -0.2828
  266DG      H8 6103   4.593   3.734   5.359  1.4977 -1.2986  0.0105
  266DG      O9 6104   5.061   3.297   5.014 -0.5128 -0.6255  0.9908
  266DG     O10 6105   4.567   3.532   5.318 -0.3585  0.4312 -0.2011
  266DG     C11 6106   5.059   3.213   5.124  0.1052  0.2641  0.1600
  266DG     C12 6107   4.699   3.513   5.264 -0.1799 -0.1629  0.1385
  266DG     H13 6108   5.140   3.233   5.194  1.6179  2.3910 -2.0281
  266DG     H14 6109   5.065   3.110   5.088  1.8246  0.4769 -0.2504
  266DG     H15 6110   4.770   3.565   5.328  1.1074 -1.2382 -0.3699
  266DG     H16 6111   4.695   3.560   5.165  0.5935  1.7126  0.9616
  266DG     C17 6112   4.924   3.222   5.197  0.1912  0.0544 -0.3924
  266DG     C18 6113   4.755   3.365   5.268  0.8128  0.0127 -0.0303
  266DG     O19 6114   4.890   3.354   5.218  0.4982 -0.1518  0.1348
  266DG     H20 6115   4.913   3.159   5.285  1.2193  1.8487  1.0783
  266DG     H21 6116   4.840   3.182   5.140 -0.3130 -0.7755  0.8852
  266DG     H22 6117   4.752   3.344   5.375 -1.4146 -0.6105 -0.1586
  266DG     H23 6118   4.688   3.293   5.221  1.8196 -0.5749 -0.5914
  267DG      C1 6119   3.452   0.968   5.004 -0.3540 -0.5034  0.5656
  267DG      C2 6120   3.683   1.325   4.456 -0.2925 -0.1204  0.2971
  267DG      H3 6121   3.463   1.063   5.056  0.6471  0.3698 -1.1272
  267DG      H4 6122   3.447   0.884   5.073 -1.3430 -0.9278  0.0007
  267DG      H5 6123   3.351   0.971   4.963 -0.5053 -0.5684  0.9382
  267DG      H6 6124   3.574   1.331   4.456 -0.3512 -1.0082  1.0147
  267DG      H7 6125   3.713   1.413   4.513  1.9848 -0.8192  0.2917
  267DG      H8 6126   3.715   1.327   4.352  0.3302  0.1292  0.4879
  267DG      O9 6127   3.548   0.961   4.898  0.1064  0.1620 -0.3327
  267DG     O10 6128   3.703   1.202   4.524 -0.1208  0.0723 -0.8262
  267DG     C11 6129   3.676   0.928   4.943  0.7556 -1.1230  0.6748
  267DG     C12 6130   3.842   1.177   4.556  0.2493 -0.4314 -0.0217
  267DG     H13 6131   3.680   0.829   4.990  0.6241 -1.3907  0.1358
  267DG     H14 6132   3.706   1.014   5.003 -0.9277 -0.0482  0.0196
  267DG     H15 6133   3.901   1.241   4.622  0.4573 -0.3831 -0.2536
  267DG     H16 6134   3.906   1.194   4.470 -0.3981  1.5267 -0.1545
  267DG     C17 6135   3.776   0.917   4.823 -0.2593 -0.1422  0.0316
  267DG     C18 6136   3.844   1.039   4.618  0.1252  0.7989 -0.1644
  267DG     O19 6137   3.759   1.028   4.736  0.0970 -0.3467 -0.1230
  267DG     H20 6138   3.772   0.824   4.767 -1.9669  0.5655 -1.1162
  267DG     H21 6139   3.880   0.923   4.853  0.0604  0.0467 -1.0478
  267DG     H22 6140   3.811   0.965   4.545 -2.1195  1.5848 -0.0333
  267DG     H23 6141   3.944   1.019   4.657  0.3335  0.9492 -0.6147
  268DG      C1 6142   5.216   5.088   1.831  0.0131 -0.8232 -0.8742
  268DG      C2 6143   4.823   5.655   1.880 -0.3178  0.0459  0.2028
  268DG      H3 6144   5.186   5.044   1.927  0.4421  2.8444  1.1038
  268DG      H4 6145   5.286   5.165   1.863 -0.0834 -2.0705  2.8939
  268DG      H5 6146   5.277   5.021   1.770  1.7185 -1.0825  0.9805
  268DG      H6 6147   4.744   5.635   1.952  0.1802 -1.0180  0.4721
  268DG      H7 6148   4.900   5.580   1.896 -0.7498 -0.2259  1.0494
  268DG      H8 6149   4.856   5.758   1.892  0.1617 -0.0038 -0.6008
  268DG      O9 6150   5.116   5.132   1.748 -0.4366 -0.6143  0.4485
  268DG     O10 6151   4.764   5.648   1.751 -0.0870  0.0185  0.2156
  268DG     C11 6152   5.053   5.249   1.796 -0.2265  0.0308 -0.2619
  268DG     C12 6153   4.678   5.531   1.728 -0.4497 -0.8174  0.0358
  268DG     H13 6154   5.120   5.335   1.791  0.2781 -0.3695 -0.4588
  268DG     H14 6155   5.024   5.236   1.900 -1.6681  0.6555 -0.5634
  268DG     H15 6156   4.612   5.564   1.647  1.9860  0.2524 -1.6521
  268DG     H16 6157   4.618   5.498   1.813 -2.0937 -1.1215 -1.1870
  268DG     C17 6158   4.938   5.272   1.694 -0.1303 -0.8279  0.0412
  268DG     C18 6159   4.740   5.403   1.679  0.1255  0.0805  0.5600
  268DG     O19 6160   4.841   5.362   1.760  0.3697  0.2469 -0.3610
  268DG     H20 6161   4.888   5.176   1.678 -1.5707 -0.0201 -0.3872
  268DG     H21 6162   4.974   5.304   1.597  1.2280 -0.7397  0.5393
  268DG     H22 6163   4.666   5.325   1.666 -1.1048  1.3482 -0.2840
  268DG     H23 6164   4.786   5.431   1.584 -0.8140  1.6122  0.5096
  269DG      C1 6165   2.552   3.182   5.120  0.4422  0.2081 -0.0017
  269DG      C2 6166   1.922   2.809   4.655 -0.4748 -0.1847 -0.2503
  269DG      H3 6167   2.499   3.277   5.115  0.0527 -0.0493 -1.3358
  269DG      H4 6168   2.612   3.183   5.029 -2.4155  2.5115 -2.0440
  269DG      H5 6169   2.618   3.196   5.205  0.1301 -0.7694  0.4174
  269DG      H6 6170   1.914   2.709   4.611 -5.4142  0.1047 -0.5245
  269DG      H7 6171   1.818   2.818   4.685 -0.4196  0.8536 -0.3240
  269DG      H8 6172   1.952   2.874   4.573  0.9500  0.7992  0.9996
  269DG      O9 6173   2.468   3.067   5.138 -0.1444 -0.6021 -0.0240
  269DG     O10 6174   2.007   2.814   4.776 -0.1063 -0.2900 -0.0171
  269DG     C11 6175   2.408   3.032   5.017 -0.1068  0.0476  0.0687
  269DG     C12 6176   2.123   2.739   4.765 -0.5665  0.0545  0.0457
  269DG     H13 6177   2.476   3.022   4.933 -0.9244 -0.6906 -0.5295
  269DG     H14 6178   2.341   3.111   4.981  1.3214  1.2577 -0.0114
  269DG     H15 6179   2.188   2.775   4.686  0.2167  1.2458  1.2024
  269DG     H16 6180   2.093   2.639   4.733 -0.4069 -0.1947  0.6677
  269DG     C17 6181   2.335   2.898   5.037 -0.2084 -0.6225 -0.7271
  269DG     C18 6182   2.202   2.740   4.900  0.3304  0.6313  0.0927
  269DG     O19 6183   2.263   2.869   4.924 -0.0112  0.0369  0.2435
  269DG     H20 6184   2.266   2.899   5.121  0.7316 -1.8265  0.0995
  269DG     H21 6185   2.414   2.824   5.051  0.7579  0.4058 -0.5918
  269DG     H22 6186   2.130   2.715   4.978  0.8360 -2.8506 -0.4030
  269DG     H23 6187   2.285   2.668   4.902 -0.6625 -0.5309  0.5450
  270DG      C1 6188   1.105   2.559   1.818  0.2747  0.0098  0.0070
  270DG      C2 6189   0.661   2.661   2.327 -0.8525 -0.2102 -0.5827
  270DG      H3 6190   1.117   2.614   1.725  2.0784 -0.4335 -0.0729
  270DG      H4 6191   1.042   2.470   1.815 -0.0246  0.0214  3.0594
  270DG      H5 6192   1.207   2.531   1.847  0.8218 -1.0687 -2.6530
  270DG      H6 6193   0.645   2.692   2.430 -0.8044  0.0580 -0.6554
  270DG      H7 6194   0.564   2.625   2.293 -1.8849  1.0135  0.9394
  270DG      H8 6195   0.718   2.569   2.339 -2.7099 -1.2168  1.1648
  270DG      O9 6196   1.038   2.645   1.915  0.0583  0.3459  0.0987
  270DG     O10 6197   0.707   2.749   2.239 -1.3184 -0.5419  0.3236
  270DG     C11 6198   1.104   2.770   1.923  0.2593 -0.2497  0.1971
  270DG     C12 6199   0.800   2.836   2.292  0.2443 -0.2483 -0.0827
  270DG     H13 6200   1.107   2.812   1.823  0.7854  1.0589  0.7442
  270DG     H14 6201   1.208   2.751   1.951 -0.0978 -0.7371  1.2489
  270DG     H15 6202   0.866   2.782   2.360  0.6489 -1.8092 -1.6297
  270DG     H16 6203   0.761   2.905   2.367  0.7100  0.1629 -0.2122
  270DG     C17 6204   1.042   2.872   2.020  0.6839 -0.4642 -0.0470
  270DG     C18 6205   0.869   2.908   2.179 -0.0751 -0.9647 -0.7052
  270DG     O19 6206   0.946   2.811   2.104 -0.0382 -0.4167  0.6876
  270DG     H20 6207   0.996   2.952   1.962  1.2104  0.3561  0.6450
  270DG     H21 6208   1.115   2.928   2.078 -0.5938  0.8242  0.3822
  270DG     H22 6209   0.800   2.963   2.115 -1.7150  0.3057  1.9659
  270DG     H23 6210   0.937   2.982   2.221 -0.8158  0.3171 -1.6954
  271DG      C1 6211   0.136   0.153   3.213 -0.0484 -0.3651 -0.5921
  271DG      C2 6212   0.080   0.763   3.494 -0.5266  0.1635 -0.1714
  271DG      H3 6213   0.168   0.083   3.290 -1.0591 -1.7300 -1.3579
  271DG      H4 6214   0.147   0.108   3.114  0.3316  1.2662 -1.3269
  271DG      H5 6215   0.028   0.163   3.221 -0.0941  0.4690 -1.9407
  271DG      H6 6216   0.104   0.716   3.588 -0.4246 -0.9655 -0.7477
  271DG      H7 6217   0.107   0.869   3.490 -1.0938  0.4334  2.1108
  271DG      H8 6218  -0.026   0.755   3.466 -0.7705  1.5969  0.2519
  271DG      O9 6219   0.203   0.277   3.220  0.8072  0.4397  0.4318
  271DG     O10 6220   0.148   0.679   3.408 -0.5462 -0.1365 -0.9257
  271DG     C11 6221   0.342   0.276   3.206 -0.7701  0.1070 -0.6279
  271DG     C12 6222   0.282   0.668   3.442 -0.3997  0.2260  0.0764
  271DG     H13 6223   0.381   0.234   3.113  1.9478  2.6419 -0.7948
  271DG     H14 6224   0.382   0.231   3.297  1.1722  1.0704 -0.9435
  271DG     H15 6225   0.291   0.600   3.527  1.6445  1.9604  1.3580
  271DG     H16 6226   0.324   0.763   3.476  2.9046 -0.7821 -0.8243
  271DG     C17 6227   0.389   0.422   3.191  0.4993 -0.0345  0.5710
  271DG     C18 6228   0.364   0.609   3.318 -0.1441 -0.0450 -0.1804
  271DG     O19 6229   0.320   0.482   3.295  0.3151  0.5420 -0.2874
  271DG     H20 6230   0.347   0.457   3.097 -0.1670 -1.1087  0.4476
  271DG     H21 6231   0.497   0.418   3.199  0.7014 -1.9568 -1.7276
  271DG     H22 6232   0.352   0.681   3.238 -1.6604  1.1925  1.0819
  271DG     H23 6233   0.470   0.600   3.339 -0.0015 -0.7742 -1.1707
  272DG      C1 6234   0.788   0.501   3.125 -0.7123 -0.5909 -0.1771
  272DG      C2 6235   1.124   0.912   3.808 -0.6612 -0.2251 -0.2433
  272DG      H3 6236   0.681   0.508   3.147 -0.9864 -0.7147 -1.4335
  272DG      H4 6237   0.809   0.403   3.081  0.3481 -1.1040  1.3836
  272DG      H5 6238   0.823   0.578   3.057 -0.4166 -1.4928 -1.0620
  272DG      H6 6239   1.105   0.812   3.847  0.3860 -0.2217  0.3116
  272DG      H7 6240   1.173   0.974   3.883  2.4409  1.9639 -3.7592
  272DG      H8 6241   1.028   0.962   3.802  0.1574  1.6173  0.9936
  272DG      O9 6242   0.848   0.538   3.248 -0.5398  0.3024  0.6325
  272DG     O10 6243   1.199   0.902   3.684 -0.3488  0.4675 -0.0872
  272DG     C11 6244   0.990   0.516   3.250  0.1112  0.5298  0.1094
  272DG     C12 6245   1.119   0.873   3.568 -0.7448 -0.0446 -0.6423
  272DG     H13 6246   1.038   0.578   3.174  0.0134  0.3901 -0.0675
  272DG     H14 6247   1.020   0.414   3.227 -0.4944  0.4248 -0.2416
  272DG     H15 6248   1.160   0.918   3.477  0.5146 -1.2487 -0.7076
  272DG     H16 6249   1.019   0.915   3.576 -1.5112 -1.9821  0.6559
  272DG     C17 6250   1.045   0.551   3.391  0.6255 -0.7105  0.0497
  272DG     C18 6251   1.106   0.720   3.540  0.2450  0.2157 -0.5463
  272DG     O19 6252   1.042   0.687   3.408 -0.4177  0.2120  0.2021
  272DG     H20 6253   1.152   0.527   3.392  1.3386  2.0922 -1.1003
  272DG     H21 6254   0.997   0.507   3.478  1.4935  1.9052  1.9741
  272DG     H22 6255   1.200   0.667   3.555 -0.2241 -0.8593 -1.2158
  272DG     H23 6256   1.053   0.669   3.620  1.1472 -1.4789 -0.9724
  273DG      C1 6257   1.910   3.993   4.062 -0.4136  0.1507 -0.0217
  273DG      C2 6258   1.524   4.562   4.068 -0.4308 -0.2683 -0.5299
  273DG      H3 6259   1.984   4.052   4.117 -0.0527  0.8335 -1.2099
  273DG      H4 6260   1.971   3.926   4.001 -0.4143  1.8881 -2.0489
  273DG      H5 6261   1.855   3.942   4.141  0.1245  0.7120  0.7293
  273DG      H6 6262   1.437   4.507   4.103 -0.9827 -0.3403 -1.9340
  273DG      H7 6263   1.591   4.569   4.154  0.0246 -0.5540 -0.8542
  273DG      H8 6264   1.505   4.666   4.043  0.6461 -0.1927 -1.1052
  273DG      O9 6265   1.847   4.091   3.979  0.0568  0.3839  0.3827
  273DG     O10 6266   1.595   4.485   3.972 -0.4231 -0.1871  0.3357
  273DG     C11 6267   1.787   4.035   3.855 -0.3675  0.1127 -0.2350
  273DG     C12 6268   1.533   4.456   3.841 -0.2974  0.3091  0.0076
  273DG     H13 6269   1.706   3.965   3.878 -0.1935  0.5466  1.9888
  273DG     H14 6270   1.874   3.990   3.807 -0.4698 -1.4513  0.9677
  273DG     H15 6271   1.515   4.546   3.782  1.8600 -0.0677 -1.2969
  273DG     H16 6272   1.435   4.411   3.860 -0.9402  1.3167 -0.8334
  273DG     C17 6273   1.736   4.157   3.766 -0.3317  0.6017 -0.0281
  273DG     C18 6274   1.623   4.364   3.758 -0.1167 -0.3944 -0.1603
  273DG     O19 6275   1.650   4.243   3.825 -0.4832 -0.3518 -0.2348
  273DG     H20 6276   1.702   4.122   3.668  0.7666 -1.3034  0.2157
  273DG     H21 6277   1.825   4.210   3.733 -1.0854  2.1885  0.4050
  273DG     H22 6278   1.588   4.350   3.656  0.4528  0.3541 -0.4777
  273DG     H23 6279   1.723   4.407   3.751 -0.1421 -0.2467  0.3534
  274DG      C1 6280   4.342   1.568   4.797  0.3211 -0.7508 -0.2955
  274DG      C2 6281   3.970   2.048   4.510  0.1979  0.1760  0.1209
  274DG      H3 6282   4.248   1.521   4.824 -0.2206  0.0844 -0.7040
  274DG      H4 6283   4.414   1.514   4.858  0.3579  0.1910  0.5157
  274DG      H5 6284   4.355   1.551   4.690 -1.9144  3.3058 -1.3979
  274DG      H6 6285   3.907   2.137   4.502  1.6658  1.1398 -1.7225
  274DG      H7 6286   4.064   2.061   4.456 -0.1006 -0.6773 -0.6095
  274DG      H8 6287   3.916   1.970   4.457 -1.2611  1.0651  0.2364
  274DG      O9 6288   4.332   1.707   4.815  0.0960 -0.0815 -0.7286
  274DG     O10 6289   4.001   2.011   4.642 -0.0871 -0.5677  0.0900
  274DG     C11 6290   4.321   1.746   4.950 -0.0382 -0.1717  0.6513
  274DG     C12 6291   4.100   2.101   4.693  0.1706  0.4410  0.4710
  274DG     H13 6292   4.412   1.725   5.007  1.6497  3.6619 -0.3514
  274DG     H14 6293   4.246   1.694   5.010 -0.4486  0.4063  0.6478
  274DG     H15 6294   4.069   2.206   4.693  0.3548  0.5433 -1.5939
  274DG     H16 6295   4.189   2.106   4.629  0.7694 -1.6486  1.0654
  274DG     C17 6296   4.278   1.899   4.957  0.6235  0.1561 -0.2790
  274DG     C18 6297   4.157   2.060   4.834 -0.0946 -0.2709  0.3975
  274DG     O19 6298   4.219   1.931   4.830 -0.3553 -0.4160  0.3350
  274DG     H20 6299   4.357   1.969   4.982 -0.5035  1.4073 -0.1261
  274DG     H21 6300   4.214   1.915   5.044  0.5863  0.2186 -0.3176
  274DG     H22 6301   4.218   2.141   4.872  1.3266 -0.5777 -1.1300
  274DG     H23 6302   4.078   2.059   4.909  0.6911 -0.0390  1.2425
  275DG      C1 6303   4.708   2.183   1.388  0.5034 -0.2750  0.5963
  275DG      C2 6304   4.995   2.685   1.282 -0.0848 -0.0689  0.5946
  275DG      H3 6305   4.741   2.093   1.336  0.2216  0.2165 -0.4745
  275DG      H4 6306   4.602   2.155   1.395  0.4918 -1.4369 -2.4298
  275DG      H5 6307   4.744   2.196   1.490  1.0394 -0.5462  0.4467
  275DG      H6 6308   5.025   2.785   1.253 -2.5636  1.3892  2.5964
  275DG      H7 6309   4.998   2.681   1.391 -3.1048  0.9480  0.8047
  275DG      H8 6310   5.057   2.609   1.235 -0.4864 -1.4058  2.1206
  275DG      O9 6311   4.719   2.294   1.301  0.1215  0.2271 -0.4997
  275DG     O10 6312   4.857   2.680   1.240 -0.1642  0.0371 -0.2964
  275DG     C11 6313   4.690   2.269   1.163  0.7887  0.3896 -0.2306
  275DG     C12 6314   4.831   2.678   1.105  1.0957  0.1510  0.3949
  275DG     H13 6315   4.590   2.227   1.159  0.6719  0.7158 -0.8166
  275DG     H14 6316   4.745   2.187   1.117 -1.8197 -1.8822  0.4350
  275DG     H15 6317   4.903   2.604   1.071  0.9295 -0.4309  1.2709
  275DG     H16 6318   4.837   2.778   1.062 -0.1928  0.4638  0.9105
  275DG     C17 6319   4.703   2.394   1.077 -0.2885 -1.0364 -1.1303
  275DG     C18 6320   4.683   2.635   1.077  0.9961  0.3195 -0.5357
  275DG     O19 6321   4.662   2.513   1.146 -0.0253 -0.7289 -0.2662
  275DG     H20 6322   4.650   2.387   0.983  0.0503  0.3039 -1.4333
  275DG     H21 6323   4.808   2.413   1.056  0.3046  1.7910  3.1221
  275DG     H22 6324   4.612   2.710   1.110 -0.6365 -1.5895  0.4623
  275DG     H23 6325   4.672   2.635   0.968 -0.2793 -0.5966 -0.4220
  276DG      C1 6326   2.613   1.864   2.115  0.2638 -0.3710 -0.1747
  276DG      C2 6327   2.009   1.483   2.260 -0.2244  0.4076 -0.3162
  276DG      H3 6328   2.701   1.844   2.176 -0.4689 -0.6461  0.8203
  276DG      H4 6329   2.522   1.826   2.162  0.5237  0.2160  0.8284
  276DG      H5 6330   2.612   1.971   2.094  1.5874 -0.6529 -1.8738
  276DG      H6 6331   1.904   1.482   2.233 -1.7377 -3.9817  4.1797
  276DG      H7 6332   2.053   1.394   2.304  1.4359  1.9920  1.4433
  276DG      H8 6333   2.028   1.553   2.341  0.0326  1.2878 -1.1185
  276DG      O9 6334   2.622   1.813   1.984 -0.4629 -0.1643 -0.3936
  276DG     O10 6335   2.080   1.518   2.145 -0.6483 -0.4608 -0.1814
  276DG     C11 6336   2.626   1.673   1.982 -0.7615 -0.5167  0.4910
  276DG     C12 6337   2.219   1.532   2.171 -0.8713 -0.1611 -0.3927
  276DG     H13 6338   2.672   1.641   2.075 -1.8581  2.2595  2.0865
  276DG     H14 6339   2.708   1.633   1.922  2.1389  2.7814  1.9532
  276DG     H15 6340   2.248   1.450   2.237 -2.6449  0.2390  0.9869
  276DG     H16 6341   2.238   1.620   2.231  0.3237 -0.9246  0.3933
  276DG     C17 6342   2.496   1.597   1.955 -0.6160 -0.5740  0.2166
  276DG     C18 6343   2.288   1.559   2.038 -0.2024 -0.2473  0.0977
  276DG     O19 6344   2.420   1.593   2.069  0.2897  0.9468 -0.0124
  276DG     H20 6345   2.521   1.494   1.928  0.6834 -0.0659 -0.6066
  276DG     H21 6346   2.454   1.641   1.865 -0.8442 -0.0740  0.5624
  276DG     H22 6347   2.287   1.471   1.975 -1.4067 -0.5246  0.4665
  276DG     H23 6348   2.237   1.646   1.996 -0.2378 -0.7339 -0.8959
  277DG      C1 6349   0.227   3.816   1.626  0.3263  0.0161 -0.2518
  277DG      C2 6350   0.662   3.541   0.939  0.2174  0.5381 -0.0258
  277DG      H3 6351   0.312   3.770   1.676  0.1060 -1.1164 -0.8894
  277DG      H4 6352   0.138   3.754   1.619 -0.2507  0.9434 -1.7921
  277DG      H5 6353   0.194   3.895   1.694  0.4829  0.5070 -0.7325
  277DG      H6 6354   0.589   3.470   0.900 -0.4612  0.8003  0.7307
  277DG      H7 6355   0.715   3.576   0.850 -3.2647  2.1405 -1.6740
  277DG      H8 6356   0.721   3.480   1.007  2.9734  1.2639 -1.6282
  277DG      O9 6357   0.255   3.868   1.500 -0.1271 -0.1134 -0.4281
  277DG     O10 6358   0.599   3.636   1.022 -0.2158  0.4011 -0.1535
  277DG     C11 6359   0.256   3.766   1.395 -0.5315 -0.2384 -0.5901
  277DG     C12 6360   0.489   3.704   0.968 -0.6758  0.3020 -0.3483
  277DG     H13 6361   0.157   3.729   1.368 -0.9950 -0.9230  1.8179
  277DG     H14 6362   0.311   3.679   1.431 -1.0335  0.0069  0.8468
  277DG     H15 6363   0.417   3.624   0.950  0.5592 -0.8937 -0.1079
  277DG     H16 6364   0.517   3.748   0.872  0.2366 -0.8422 -0.6224
  277DG     C17 6365   0.341   3.834   1.285  0.4085  0.0513  0.0826
  277DG     C18 6366   0.439   3.799   1.067 -0.3407 -0.9825  0.0179
  277DG     O19 6367   0.376   3.744   1.181 -0.0359 -0.5738  0.0470
  277DG     H20 6368   0.428   3.881   1.331  0.6655  0.2947 -0.6243
  277DG     H21 6369   0.288   3.921   1.246  2.0279  1.1569  0.2304
  277DG     H22 6370   0.512   3.872   1.101  0.6581 -2.3395  0.8546
  277DG     H23 6371   0.356   3.854   1.021 -0.2562 -1.1837 -0.3775
  278DG      C1 6372   5.110   3.522   4.577  0.4611  0.4003  0.2988
  278DG      C2 6373   5.603   3.636   4.389 -0.9420 -0.0767 -0.2087
  278DG      H3 6374   5.121   3.578   4.669 -1.6559 -0.7420  1.3279
  278DG      H4 6375   5.207   3.537   4.530  0.3868  0.2942  0.1070
  278DG      H5 6376   5.090   3.415   4.585 -0.2754  0.3919 -1.1548
  278DG      H6 6377   5.635   3.734   4.423 -1.1589 -0.0535 -0.0678
  278DG      H7 6378   5.632   3.564   4.466 -1.5861  0.3704  0.4627
  278DG      H8 6379   5.665   3.600   4.308  1.3130  0.2433  1.2832
  278DG      O9 6380   4.988   3.579   4.519 -0.5108  0.3065 -0.4823
  278DG     O10 6381   5.467   3.622   4.362  0.0266  0.4530 -0.3379
  278DG     C11 6382   4.995   3.716   4.494  0.3463  0.3989 -0.0526
  278DG     C12 6383   5.422   3.697   4.250 -0.2364  0.3368  0.1129
  278DG     H13 6384   5.039   3.772   4.576 -0.0927 -0.9757  1.1579
  278DG     H14 6385   4.890   3.747   4.491 -0.1005 -0.9829  0.6216
  278DG     H15 6386   5.467   3.666   4.156  3.3042  1.3629  1.3091
  278DG     H16 6387   5.462   3.797   4.268  3.5256 -0.7456 -1.2447
  278DG     C17 6388   5.070   3.751   4.360 -0.3325 -0.0842 -0.6911
  278DG     C18 6389   5.270   3.698   4.241  0.1642  0.1901 -0.9199
  278DG     O19 6390   5.209   3.732   4.369 -0.3287  0.5828  0.5638
  278DG     H20 6391   5.056   3.857   4.340 -0.7192  0.1000  0.4883
  278DG     H21 6392   5.023   3.697   4.278  0.2163  1.5473 -2.1186
  278DG     H22 6393   5.249   3.779   4.172  0.2909  2.7254  1.8069
  278DG     H23 6394   5.234   3.603   4.203  1.7517 -0.7163 -0.2607
  279DG      C1 6395   1.081   2.109   5.556  0.7660  0.0179 -0.0809
  279DG      C2 6396   0.753   1.568   5.266  0.5061  0.3505 -0.2492
  279DG      H3 6397   1.105   2.142   5.657 -2.8654 -1.0693  1.3055
  279DG      H4 6398   0.990   2.159   5.523  0.4881 -0.9735 -0.8748
  279DG      H5 6399   1.154   2.148   5.485 -1.0628  1.5999 -1.1899
  279DG      H6 6400   0.767   1.537   5.162 -1.1799  2.4378 -1.1698
  279DG      H7 6401   0.716   1.478   5.316  0.1524  0.7134  0.1502
  279DG      H8 6402   0.679   1.646   5.249  0.9637  0.6897 -0.7095
  279DG      O9 6403   1.059   1.968   5.546  0.8211  0.7225  0.1583
  279DG     O10 6404   0.861   1.615   5.342 -0.0677  0.1775 -0.1702
  279DG     C11 6405   1.177   1.903   5.571 -0.2141 -0.2706 -0.2832
  279DG     C12 6406   0.961   1.516   5.352  0.6942  0.5327 -1.0483
  279DG     H13 6407   1.241   1.944   5.649 -1.1395  0.1909  0.2533
  279DG     H14 6408   1.250   1.925   5.494  0.3110  0.2454  0.3515
  279DG     H15 6409   1.031   1.522   5.269  1.4426  1.9573 -0.3378
  279DG     H16 6410   0.927   1.415   5.377  0.3827  1.5963  3.7826
  279DG     C17 6411   1.156   1.751   5.583  0.1899  0.1527 -0.7078
  279DG     C18 6412   1.046   1.557   5.477  0.2876  0.1676 -0.4018
  279DG     O19 6413   1.068   1.702   5.478 -0.1352  0.1233  0.0750
  279DG     H20 6414   1.111   1.719   5.677  3.5472  0.0639  1.0187
  279DG     H21 6415   1.249   1.696   5.568  0.6015  0.7856 -0.5411
  279DG     H22 6416   1.005   1.522   5.571 -0.6375  0.2874 -0.7542
  279DG     H23 6417   1.146   1.512   5.473 -0.3033 -1.0968 -1.5850
  280DG      C1 6418   4.745   2.203   3.315 -0.3098  0.4170 -0.9398
  280DG      C2 6419   4.369   2.892   3.430  0.2147 -0.4041 -0.2262
  280DG      H3 6420   4.834   2.265   3.301  0.6227 -0.8328 -0.7336
  280DG      H4 6421   4.770   2.113   3.259  0.9344  0.2664 -0.2066
  280DG      H5 6422   4.729   2.167   3.417 -2.6164  1.2188 -0.9599
  280DG      H6 6423   4.470   2.915   3.462 -0.1183 -0.3698  0.8465
  280DG      H7 6424   4.329   2.976   3.373  1.5235 -0.4076 -1.1798
  280DG      H8 6425   4.303   2.890   3.517  0.8855 -0.2842  0.2925
  280DG      O9 6426   4.626   2.246   3.263 -0.7455  0.5904  0.1112
  280DG     O10 6427   4.334   2.775   3.356 -0.0983  0.2893  0.2475
  280DG     C11 6428   4.593   2.362   3.318  0.5552 -0.5181 -0.1050
  280DG     C12 6429   4.391   2.776   3.224 -0.3769  0.1011  0.6004
  280DG     H13 6430   4.678   2.427   3.337  1.0278 -1.4389  1.0395
  280DG     H14 6431   4.533   2.353   3.409 -1.4597  0.6110 -1.2462
  280DG     H15 6432   4.489   2.821   3.214 -0.5243  0.2210 -0.4077
  280DG     H16 6433   4.321   2.847   3.179 -0.8425 -0.7663 -0.0750
  280DG     C17 6434   4.498   2.427   3.223 -0.1042  0.4131 -0.0869
  280DG     C18 6435   4.397   2.636   3.174  0.0396  0.3627 -0.2461
  280DG     O19 6436   4.483   2.561   3.256 -0.0138 -0.3892 -0.2248
  280DG     H20 6437   4.402   2.377   3.232  0.1297 -0.1599 -0.6704
  280DG     H21 6438   4.522   2.402   3.119  0.5785 -0.4935  0.2719
  280DG     H22 6439   4.302   2.591   3.148  1.4491 -2.3316 -1.1652
  280DG     H23 6440   4.449   2.633   3.078  2.8610  0.9387  1.1517
  281DG      C1 6441   4.485   0.528   0.172 -1.0874 -0.4108 -0.1563
  281DG      C2 6442   3.860   0.242   0.211  0.6135  0.0515  0.1526
  281DG      H3 6443   4.516   0.490   0.270  0.5688  1.1298 -0.0333
  281DG      H4 6444   4.549   0.609   0.138 -0.7474 -0.4092  0.4738
  281DG      H5 6445   4.495   0.446   0.100  0.7637  1.3698 -2.0613
  281DG      H6 6446   3.885   0.173   0.130 -0.4419  0.2629 -0.3617
  281DG      H7 6447   3.905   0.198   0.300  0.6789  0.8617  0.5317
  281DG      H8 6448   3.753   0.252   0.226  0.7623  2.3083  0.1003
  281DG      O9 6449   4.347   0.564   0.171 -0.3285 -0.1246 -0.2363
  281DG     O10 6450   3.924   0.369   0.186  0.2826  0.1782 -0.4536
  281DG     C11 6451   4.319   0.662   0.273 -0.1244 -0.1448  0.5452
  281DG     C12 6452   3.879   0.476   0.272  0.2961 -0.0406 -0.6653
  281DG     H13 6453   4.380   0.749   0.249 -1.9156  2.0464  3.2469
  281DG     H14 6454   4.352   0.620   0.368  0.1494 -1.1572  0.0121
  281DG     H15 6455   3.883   0.451   0.378  3.3824  1.8041 -0.2441
  281DG     H16 6456   3.775   0.494   0.246  0.5401 -0.7306 -2.2453
  281DG     C17 6457   4.171   0.697   0.254  0.0193  0.0708 -0.8649
  281DG     C18 6458   3.954   0.615   0.259 -0.2905 -0.0337 -0.0035
  281DG     O19 6459   4.093   0.582   0.271 -0.1413 -0.4341  0.1472
  281DG     H20 6460   4.155   0.727   0.150 -0.8983 -1.5210 -1.2319
  281DG     H21 6461   4.147   0.772   0.329  2.1678  0.3766 -0.4410
  281DG     H22 6462   3.927   0.654   0.160  0.2522  1.3162  0.3607
  281DG     H23 6463   3.917   0.685   0.334 -1.1170 -0.4915  0.0302
  282DG      C1 6464   4.305   5.013   1.253 -0.2914  0.3424 -0.1083
  282DG      C2 6465   4.534   4.508   1.503  0.8678  0.8667 -0.1655
  282DG      H3 6466   4.407   5.041   1.229 -0.2473  1.2699  1.0497
  282DG      H4 6467   4.297   5.019   1.361 -0.3971 -2.4433  0.0861
  282DG      H5 6468   4.260   5.098   1.200 -1.6891  1.4077  2.6052
  282DG      H6 6469   4.541   4.414   1.449 -1.8151  1.3340 -1.4848
  282DG      H7 6470   4.615   4.574   1.471  0.9401 -0.0848 -2.0761
  282DG      H8 6471   4.548   4.495   1.610 -0.4239 -0.5576 -0.1386
  282DG      O9 6472   4.255   4.883   1.222  0.4371  0.0258 -0.2657
  282DG     O10 6473   4.414   4.566   1.466 -0.0698  0.8440 -0.5128
  282DG     C11 6474   4.118   4.869   1.264 -0.4785 -0.0741 -0.1595
  282DG     C12 6475   4.290   4.502   1.503 -0.0361 -0.3686 -0.2354
  282DG     H13 6476   4.054   4.919   1.191 -0.9356 -0.3678  0.0356
  282DG     H14 6477   4.114   4.917   1.362 -0.4394  0.9476 -0.6446
  282DG     H15 6478   4.254   4.559   1.588  0.9523  2.1165 -1.3762
  282DG     H16 6479   4.304   4.396   1.522 -1.4910 -0.9743 -2.2355
  282DG     C17 6480   4.100   4.717   1.271 -0.9938 -0.8753 -0.7133
  282DG     C18 6481   4.192   4.531   1.388  0.0674 -0.3375 -0.0524
  282DG     O19 6482   4.212   4.659   1.340  0.0946 -0.5971 -0.0892
  282DG     H20 6483   4.100   4.668   1.173  0.4000 -1.1667 -0.5819
  282DG     H21 6484   4.009   4.676   1.316  0.6795 -1.8928  1.9933
  282DG     H22 6485   4.209   4.463   1.304 -1.5529  0.6182 -1.2022
  282DG     H23 6486   4.094   4.512   1.430  0.0015 -0.6238 -0.3287
  283DG      C1 6487   3.698   0.000   2.659 -0.1342  0.1069  0.5335
  283DG      C2 6488   4.329   0.091   2.709 -0.5544  0.3197  0.0338
  283DG      H3 6489   3.598   0.028   2.625 -0.7706 -0.6252  1.7197
  283DG      H4 6490   3.716   0.057   2.750 -0.1648 -0.3456  0.8242
  283DG      H5 6491   3.686  -0.107   2.678 -0.3116 -0.1478 -0.8849
  283DG      H6 6492   4.379   0.182   2.741  0.4998  0.2291 -1.2518
  283DG      H7 6493   4.293   0.027   2.790 -2.7452 -0.1369 -1.2225
  283DG      H8 6494   4.403   0.027   2.660 -1.3723 -2.0615  1.7107
  283DG      O9 6495   3.797   0.021   2.563 -0.2852  0.0774  0.6368
  283DG     O10 6496   4.226   0.092   2.607  0.6317 -0.1917  0.3196
  283DG     C11 6497   3.776   0.134   2.475  0.0589  0.0657 -0.0517
  283DG     C12 6498   4.252   0.177   2.498 -0.3525 -0.1421  0.7860
  283DG     H13 6499   3.768   0.222   2.539  2.8841 -1.5814  2.8960
  283DG     H14 6500   3.689   0.119   2.410  0.8478 -0.9454 -0.9056
  283DG     H15 6501   4.348   0.161   2.448 -1.7594  0.0289 -2.2024
  283DG     H16 6502   4.248   0.279   2.537 -2.8096 -0.5246  1.7196
  283DG     C17 6503   3.904   0.143   2.391 -0.7890  0.5928  0.0429
  283DG     C18 6504   4.145   0.150   2.394  0.4286  0.2175  0.2342
  283DG     O19 6505   4.026   0.184   2.462 -0.0200 -0.1322  0.0453
  283DG     H20 6506   3.879   0.207   2.306 -0.9185 -0.8930 -1.0844
  283DG     H21 6507   3.925   0.047   2.346 -0.2859  0.5451  0.3700
  283DG     H22 6508   4.163   0.205   2.301  2.2227 -0.4835  0.1247
  283DG     H23 6509   4.149   0.045   2.364 -0.4289  0.4958 -0.9442
  284DG      C1 6510   4.546   1.565   3.820 -0.4629  0.7693 -0.5201
  284DG      C2 6511   4.070   1.318   3.789  0.2985  0.4861 -0.1434
  284DG      H3 6512   4.612   1.629   3.880  1.6265 -1.1402 -0.6172
  284DG      H4 6513   4.564   1.586   3.714 -1.1817 -0.0334 -0.8097
  284DG      H5 6514   4.566   1.458   3.828 -1.5006  0.6659  1.1613
  284DG      H6 6515   4.086   1.226   3.732  2.6716  1.1405 -0.6630
  284DG      H7 6516   4.172   1.357   3.797  0.1351  1.5622 -2.4601
  284DG      H8 6517   4.016   1.283   3.877  1.8503 -1.1474  0.2401
  284DG      O9 6518   4.414   1.588   3.841 -0.5174  0.1854 -0.7076
  284DG     O10 6519   3.996   1.399   3.706 -0.1512  0.2730  0.6054
  284DG     C11 6520   4.374   1.594   3.973  0.0919 -0.3332  0.3287
  284DG     C12 6521   3.966   1.526   3.762 -0.5892  0.1545  0.3914
  284DG     H13 6522   4.443   1.657   4.028 -0.3892  1.7263 -1.3119
  284DG     H14 6523   4.369   1.492   4.011 -2.6563  0.1990  1.6239
  284DG     H15 6524   3.891   1.527   3.841 -2.2004 -0.7072 -1.0505
  284DG     H16 6525   3.914   1.570   3.677  2.4760 -1.5282 -2.5818
  284DG     C17 6526   4.234   1.659   3.978  0.7370  0.1721  0.2246
  284DG     C18 6527   4.084   1.614   3.788  0.1090 -0.3233  0.4669
  284DG     O19 6528   4.152   1.574   3.908 -0.3336 -0.0754  0.2943
  284DG     H20 6529   4.237   1.757   3.930  2.9691  0.6694  1.2702
  284DG     H21 6530   4.198   1.667   4.080  0.4616 -0.5260  0.1863
  284DG     H22 6531   4.164   1.603   3.716  0.8748  1.1239  1.0399
  284DG     H23 6532   4.061   1.720   3.798  2.2515  0.2378  0.0240
  285DG      C1 6533   3.696   1.707   0.106  0.1381 -0.0568 -0.3701
  285DG      C2 6534   4.285   1.745   0.406 -0.2735  0.5663 -0.0778
  285DG      H3 6535   3.719   1.612   0.153  4.3150 -0.3409 -2.5124
  285DG      H4 6536   3.689   1.680   0.000  0.3679  1.6527 -0.8546
  285DG      H5 6537   3.605   1.759   0.138  0.3604  1.2001 -1.6799
  285DG      H6 6538   4.219   1.688   0.472 -1.4261  4.2409  2.2155
  285DG      H7 6539   4.368   1.692   0.361 -0.0464  2.2549 -1.7509
  285DG      H8 6540   4.314   1.835   0.460 -0.0802 -0.0578  0.8800
  285DG      O9 6541   3.808   1.791   0.132 -0.0969 -0.1342 -0.6225
  285DG     O10 6542   4.197   1.789   0.311 -0.3688 -0.7527  0.4803
  285DG     C11 6543   3.809   1.904   0.059  0.6504 -0.0966  0.4538
  285DG     C12 6544   4.248   1.899   0.234 -0.1849  0.6913 -0.4239
  285DG     H13 6545   3.777   1.993   0.112  3.4005  1.5697 -0.5184
  285DG     H14 6546   3.736   1.891  -0.022 -1.4414  0.7370  2.1135
  285DG     H15 6547   4.355   1.879   0.219 -0.3085 -1.1492  0.8326
  285DG     H16 6548   4.247   1.988   0.298 -1.8415  0.4617 -0.0907
  285DG     C17 6549   3.950   1.912   0.012  0.0607 -0.0117  0.0341
  285DG     C18 6550   4.170   1.909   0.099 -0.6737  0.4572 -0.4676
  285DG     O19 6551   4.030   1.935   0.122  0.1892  0.3080  0.1204
  285DG     H20 6552   3.971   2.000  -0.051  2.0146 -0.0946  0.5063
  285DG     H21 6553   3.976   1.827  -0.051  1.6823  0.8159 -0.4831
  285DG     H22 6554   4.213   1.985   0.034  0.5309  0.9746  0.8719
  285DG     H23 6555   4.182   1.812   0.049  3.8405 -0.0731  1.2051
  286DG      C1 6556   2.487   0.479   1.008 -0.5597 -0.2470 -0.3557
  286DG      C2 6557   2.706   0.267   1.410 -0.0639  0.1441 -0.7476
  286DG      H3 6558   2.528   0.566   1.059 -0.5947 -0.2737 -0.2807
  286DG      H4 6559   2.379   0.493   1.003 -0.4819 -0.1589 -2.0135
  286DG      H5 6560   2.531   0.480   0.909 -0.4499 -0.0652 -0.3062
  286DG      H6 6561   2.714   0.331   1.498 -1.1262  0.4604 -0.8631
  286DG      H7 6562   2.747   0.319   1.323 -1.5974  0.6400 -1.2002
  286DG      H8 6563   2.600   0.257   1.385 -0.0755  2.2211 -1.7369
  286DG      O9 6564   2.519   0.363   1.087 -0.4410 -0.0511 -0.4529
  286DG     O10 6565   2.760   0.135   1.448 -0.4541 -0.4725 -0.0849
  286DG     C11 6566   2.510   0.245   1.011  0.0446  0.3670 -0.2382
  286DG     C12 6567   2.815   0.065   1.342 -0.3475 -0.5679  0.6134
  286DG     H13 6568   2.574   0.243   0.923  2.6337 -0.8204  1.5390
  286DG     H14 6569   2.409   0.220   0.978  0.7535 -1.9661 -0.8425
  286DG     H15 6570   2.876  -0.022   1.366 -1.0708 -1.1325  0.4108
  286DG     H16 6571   2.887   0.138   1.303 -1.2290 -1.3162 -2.7601
  286DG     C17 6572   2.533   0.132   1.111 -0.7078 -0.4153 -0.7563
  286DG     C18 6573   2.702   0.032   1.235 -0.4396 -0.0639  0.3553
  286DG     O19 6574   2.669   0.142   1.154 -0.3756 -0.6669  0.6673
  286DG     H20 6575   2.512   0.033   1.070 -0.9015 -1.2715  1.2960
  286DG     H21 6576   2.463   0.148   1.193 -0.3913 -1.9707 -0.1399
  286DG     H22 6577   2.739  -0.039   1.161  1.0236  1.8101 -0.7977
  286DG     H23 6578   2.615  -0.010   1.286 -1.0197  2.0126  1.2151
  287DG      C1 6579   1.673   0.693   4.176 -0.5401 -1.0939 -0.2757
  287DG      C2 6580   1.873   1.158   3.784  0.0844  0.6204  0.5955
  287DG      H3 6581   1.747   0.615   4.188  1.5099  0.6241 -1.0928
  287DG      H4 6582   1.584   0.668   4.119 -0.8178 -1.8265  0.4592
  287DG      H5 6583   1.639   0.719   4.277 -0.7797 -2.2295 -0.0541
  287DG      H6 6584   1.975   1.126   3.807 -0.2169 -0.9554 -0.0905
  287DG      H7 6585   1.873   1.259   3.745 -0.4313  0.7376  0.8976
  287DG      H8 6586   1.837   1.164   3.887 -0.3359  0.2141  0.4777
  287DG      O9 6587   1.729   0.807   4.116  0.0991 -0.5691  0.1845
  287DG     O10 6588   1.798   1.077   3.693  0.5055  0.0781  0.2881
  287DG     C11 6589   1.783   0.787   3.988 -0.0567  0.1912  0.1895
  287DG     C12 6590   1.659   1.080   3.707 -0.0431  0.6517  0.0279
  287DG     H13 6591   1.811   0.686   3.960 -0.5562 -0.1443  0.8604
  287DG     H14 6592   1.873   0.847   3.976 -0.9652  1.7626  0.8743
  287DG     H15 6593   1.600   1.128   3.629  0.1562 -1.0309 -1.2259
  287DG     H16 6594   1.627   1.130   3.799  0.9792  1.1445  0.1223
  287DG     C17 6595   1.667   0.837   3.899  0.5582 -0.6118  0.5841
  287DG     C18 6596   1.605   0.936   3.690  0.5013  0.4922 -0.1622
  287DG     O19 6597   1.695   0.849   3.753 -0.0881  0.0204 -0.4311
  287DG     H20 6598   1.647   0.940   3.931 -0.0345 -0.2197 -0.9601
  287DG     H21 6599   1.569   0.790   3.910  0.0384  0.4841  0.7409
  287DG     H22 6600   1.501   0.935   3.722 -0.4697 -3.7393 -2.5683
  287DG     H23 6601   1.597   0.908   3.585  0.6733 -1.6899  0.3495
  288DG      C1 6602   1.349   3.995   1.282  0.0852 -0.7439 -0.5078
  288DG      C2 6603   0.762   3.825   1.477  0.2213 -0.1497  0.1048
  288DG      H3 6604   1.445   3.984   1.232  0.9375  3.1118 -0.0101
  288DG      H4 6605   1.366   3.981   1.389  2.6502  1.9507 -0.4408
  288DG      H5 6606   1.316   4.094   1.250  2.3414 -0.2600 -1.4996
  288DG      H6 6607   0.782   3.850   1.581  1.5636 -1.5642  0.2346
  288DG      H7 6608   0.656   3.803   1.482  0.3910 -0.9421  0.3762
  288DG      H8 6609   0.798   3.723   1.458  1.6073 -0.1000  2.1764
  288DG      O9 6610   1.251   3.903   1.246 -0.8071  0.1196  0.3088
  288DG     O10 6611   0.810   3.909   1.370  0.2669 -0.0218 -0.2420
  288DG     C11 6612   1.221   3.875   1.110 -0.1434 -0.2925  0.1933
  288DG     C12 6613   0.773   3.857   1.239 -0.2918  0.2362  0.5944
  288DG     H13 6614   1.302   3.826   1.055  2.3141  3.3248  0.2316
  288DG     H14 6615   1.221   3.969   1.055  0.2846  0.8954  2.1208
  288DG     H15 6616   0.755   3.923   1.154 -2.3590 -1.1813 -0.1459
  288DG     H16 6617   0.680   3.800   1.243 -0.1559 -0.1474 -1.0872
  288DG     C17 6618   1.092   3.794   1.080  0.1972 -0.1072 -0.2530
  288DG     C18 6619   0.875   3.751   1.198  0.0512  1.0109  0.2248
  288DG     O19 6620   1.000   3.828   1.187  0.0759  0.2628 -0.5372
  288DG     H20 6621   1.118   3.689   1.091  2.0935  0.4911  1.4797
  288DG     H21 6622   1.042   3.805   0.984 -0.0586 -0.7136 -0.1896
  288DG     H22 6623   0.886   3.666   1.266  2.7085 -0.1146 -1.4347
  288DG     H23 6624   0.855   3.704   1.101  0.7921 -0.3106  0.6891
  289DG      C1 6625   0.260   4.984   5.099  0.1020 -0.2364 -0.0961
  289DG      C2 6626   0.848   5.183   5.151 -0.7927 -0.6358 -0.6080
  289DG      H3 6627   0.198   5.059   5.146  0.8647  0.5399 -0.2988
  289DG      H4 6628   0.198   4.927   5.030  0.6323 -1.7614  0.6196
  289DG      H5 6629   0.340   5.033   5.044  0.9537  0.3248  1.5680
  289DG      H6 6630   0.953   5.173   5.177 -0.7436 -0.6723 -0.8238
  289DG      H7 6631   0.823   5.134   5.057 -0.6613 -0.5186 -0.7029
  289DG      H8 6632   0.825   5.289   5.137 -3.1357 -0.7555  1.4532
  289DG      O9 6633   0.312   4.892   5.200  0.0039  0.8467 -0.0289
  289DG     O10 6634   0.765   5.130   5.255  0.4474  0.0881  0.0540
  289DG     C11 6635   0.319   4.954   5.336 -0.1793  0.2368  1.2059
  289DG     C12 6636   0.785   4.984   5.263  0.0357 -0.2840  0.1253
  289DG     H13 6637   0.237   4.913   5.395 -2.4272 -0.4816 -2.1561
  289DG     H14 6638   0.292   5.059   5.335 -1.6302 -0.0615 -2.0066
  289DG     H15 6639   0.880   4.968   5.313  0.2951  2.8535  0.8550
  289DG     H16 6640   0.780   4.935   5.166  1.4697  0.3211 -0.2772
  289DG     C17 6641   0.456   4.922   5.398  0.3663 -0.6088 -0.0242
  289DG     C18 6642   0.686   4.923   5.357  0.1810  0.2503  0.7944
  289DG     O19 6643   0.554   4.959   5.307 -0.5233  0.4278 -0.1694
  289DG     H20 6644   0.465   4.816   5.423 -0.4662 -0.6500  0.1396
  289DG     H21 6645   0.460   4.973   5.494 -1.8698 -1.6328  0.6891
  289DG     H22 6646   0.693   4.814   5.349  0.6839  0.3168  0.2990
  289DG     H23 6647   0.705   4.948   5.461 -0.6531 -0.6899  1.1937
  290DG      C1 6648   0.173   5.076   3.749 -0.0538 -0.2487  0.7404
  290DG      C2 6649   0.505   4.287   3.687  0.0576 -0.1842  0.3399
  290DG      H3 6650   0.089   5.082   3.680 -0.5657 -0.3964  1.3542
  290DG      H4 6651   0.261   5.112   3.694 -0.6442 -0.3625 -0.2956
  290DG      H5 6652   0.158   5.160   3.817  1.0488  1.4539 -1.0029
  290DG      H6 6653   0.596   4.294   3.628 -0.9443  1.5935 -1.1171
  290DG      H7 6654   0.519   4.226   3.776  1.0840 -2.1967 -1.1322
  290DG      H8 6655   0.441   4.224   3.624  1.1228 -0.3215 -0.6381
  290DG      O9 6656   0.194   4.958   3.814  0.0454  0.2118 -0.1246
  290DG     O10 6657   0.434   4.407   3.686  0.4299 -0.4204  0.9094
  290DG     C11 6658   0.231   4.856   3.726  0.1163  0.7366  0.3022
  290DG     C12 6659   0.295   4.390   3.693 -0.3660  0.6262 -0.6865
  290DG     H13 6660   0.335   4.864   3.695  1.6339 -3.9059  3.2412
  290DG     H14 6661   0.162   4.866   3.642  0.2253  1.9919  0.3352
  290DG     H15 6662   0.273   4.292   3.733 -0.7292  2.0350  2.8806
  290DG     H16 6663   0.269   4.393   3.587  0.1271 -0.3324 -0.8468
  290DG     C17 6664   0.219   4.736   3.817 -0.1149 -0.4384 -0.4986
  290DG     C18 6665   0.235   4.496   3.792 -0.1087  0.7265  0.1227
  290DG     O19 6666   0.270   4.627   3.741 -0.2739  0.4511 -0.4871
  290DG     H20 6667   0.115   4.714   3.839 -0.4651  0.6119 -1.0746
  290DG     H21 6668   0.289   4.753   3.899  0.0186  1.5444 -0.9713
  290DG     H22 6669   0.126   4.488   3.783  0.1186 -2.0183 -1.0034
  290DG     H23 6670   0.264   4.481   3.896 -0.6142  0.4092  0.2222
  291DG      C1 6671   0.053   2.747   3.767 -0.0644 -0.3173  0.3612
  291DG      C2 6672   0.275   2.537   3.340  0.4347 -0.0431 -0.2468
  291DG      H3 6673   0.126   2.815   3.810 -0.2139  0.5026 -0.6532
  291DG      H4 6674  -0.023   2.807   3.716  1.7378 -0.3386 -2.5555
  291DG      H5 6675   0.106   2.694   3.689  1.8727  2.1763 -0.1204
  291DG      H6 6676   0.227   2.630   3.307  0.1193 -0.0151  0.2794
  291DG      H7 6677   0.383   2.549   3.338  0.3363  1.0176 -0.2172
  291DG      H8 6678   0.243   2.451   3.282  0.9732 -1.3023  1.2811
  291DG      O9 6679   0.004   2.657   3.867  0.1916  0.4596 -0.1926
  291DG     O10 6680   0.223   2.498   3.463 -0.0002  0.1047  0.2155
  291DG     C11 6681   0.103   2.593   3.950  0.5076  0.1350  0.1852
  291DG     C12 6682   0.314   2.418   3.537 -0.9641 -0.1166  0.4148
  291DG     H13 6683   0.053   2.560   4.041  0.8961 -0.1188  0.3126
  291DG     H14 6684   0.196   2.648   3.969  1.4522 -0.5780 -2.0321
  291DG     H15 6685   0.413   2.458   3.554 -0.6318 -0.7810  0.0885
  291DG     H16 6686   0.333   2.327   3.480  2.0497 -1.0200  2.5969
  291DG     C17 6687   0.155   2.470   3.873  0.2979 -0.2717 -0.5117
  291DG     C18 6688   0.258   2.387   3.674  0.1273 -0.7221 -0.7971
  291DG     O19 6689   0.224   2.508   3.753 -0.1196 -0.6168  0.7104
  291DG     H20 6690   0.072   2.405   3.846 -0.4647  0.8749 -1.0131
  291DG     H21 6691   0.228   2.417   3.933 -0.8118 -1.5477 -0.2610
  291DG     H22 6692   0.167   2.329   3.657  0.6836 -1.6851 -0.5791
  291DG     H23 6693   0.331   2.328   3.728 -0.5223  1.1420  2.3575
  292DG      C1 6694   3.123   1.374   3.760  0.0383  0.2040  0.2343
  292DG      C2 6695   3.686   1.203   4.070 -0.3600 -0.0562  0.3434
  292DG      H3 6696   3.180   1.453   3.809  0.9241  0.2041 -0.7722
  292DG      H4 6697   3.057   1.322   3.830 -0.5135  0.5455 -0.0279
  292DG      H5 6698   3.076   1.434   3.683  1.6744  0.9795 -0.1867
  292DG      H6 6699   3.795   1.198   4.065 -0.1576  2.9517  0.0264
  292DG      H7 6700   3.649   1.303   4.047 -1.3882 -0.7681 -1.2628
  292DG      H8 6701   3.662   1.185   4.174 -0.5374  1.8184  0.6606
  292DG      O9 6702   3.233   1.297   3.711  0.4177 -0.4559  0.1845
  292DG     O10 6703   3.623   1.103   3.998 -0.8728 -0.4752  0.1395
  292DG     C11 6704   3.215   1.165   3.680  0.3756 -0.0979 -0.5777
  292DG     C12 6705   3.645   1.116   3.860  0.0897  0.3368  0.7898
  292DG     H13 6706   3.153   1.160   3.590  0.8530 -2.0227 -0.8432
  292DG     H14 6707   3.156   1.105   3.750 -0.1863  0.1134 -0.8609
  292DG     H15 6708   3.742   1.076   3.834 -0.6484 -0.2537 -1.2247
  292DG     H16 6709   3.642   1.220   3.827  0.4000  0.2026  0.3364
  292DG     C17 6710   3.348   1.089   3.658  0.0050 -0.3893  0.9538
  292DG     C18 6711   3.548   1.037   3.774 -0.2308 -0.1791  0.3668
  292DG     O19 6712   3.421   1.102   3.782 -0.7905  0.4842  0.0019
  292DG     H20 6713   3.415   1.138   3.586 -2.5101 -0.2139 -1.4232
  292DG     H21 6714   3.330   0.984   3.638 -1.2609  0.3858 -2.7713
  292DG     H22 6715   3.589   1.036   3.673  0.4777  1.4252  0.6224
  292DG     H23 6716   3.539   0.934   3.810  0.4016 -0.5298 -0.4626
  293DG      C1 6717   0.585   1.066   3.444 -0.1455  0.2185 -0.2089
  293DG      C2 6718   0.025   1.273   3.995  0.1772 -0.6420  0.3897
  293DG      H3 6719   0.572   1.162   3.393 -1.6990  0.2947  0.2930
  293DG      H4 6720   0.527   1.000   3.379  1.6669 -1.2251 -0.4584
  293DG      H5 6721   0.688   1.032   3.428 -0.4503 -0.0904 -1.7521
  293DG      H6 6722  -0.001   1.351   3.923 -2.1204 -1.4849  0.2433
  293DG      H7 6723  -0.015   1.176   3.966  1.0463 -1.1681  0.9230
  293DG      H8 6724  -0.014   1.300   4.093  1.2495  3.3002 -0.0683
  293DG      O9 6725   0.551   1.069   3.580  0.3071 -0.6294 -0.5831
  293DG     O10 6726   0.165   1.269   4.004  0.3707  0.8908 -0.0853
  293DG     C11 6727   0.641   1.128   3.669 -0.2934  0.6975 -0.3423
  293DG     C12 6728   0.233   1.231   3.887  0.0043 -0.7627 -0.1784
  293DG     H13 6729   0.650   1.234   3.644  2.0886  0.3094 -1.4533
  293DG     H14 6730   0.747   1.107   3.654 -0.2520  0.0488  0.7496
  293DG     H15 6731   0.241   1.323   3.829 -3.9909 -0.5494 -0.6497
  293DG     H16 6732   0.185   1.168   3.813 -1.7335  0.9062 -0.5462
  293DG     C17 6733   0.571   1.104   3.806  0.1628 -0.2134  0.1466
  293DG     C18 6734   0.364   1.166   3.930 -0.2012  0.2339  0.3349
  293DG     O19 6735   0.445   1.173   3.808 -0.0385 -0.4455 -0.5408
  293DG     H20 6736   0.635   1.137   3.888 -2.6666  0.5589  2.1931
  293DG     H21 6737   0.555   0.998   3.824 -1.7282 -0.2061 -1.2083
  293DG     H22 6738   0.424   1.206   4.012  2.4750  0.2780 -1.4847
  293DG     H23 6739   0.346   1.062   3.956  0.1470 -0.0629 -0.5688
  294DG      C1 6740   2.684   1.101   1.581 -0.0754 -0.0795  0.2746
  294DG      C2 6741   2.123   1.012   1.310 -0.4422 -0.4458 -0.1803
  294DG      H3 6742   2.680   1.200   1.536  1.4872 -1.1926 -2.5621
  294DG      H4 6743   2.790   1.099   1.608  0.3973  1.6054 -1.2846
  294DG      H5 6744   2.622   1.093   1.670 -1.3338  1.7045 -0.3886
  294DG      H6 6745   2.072   0.978   1.220 -1.0706  1.8812 -0.7823
  294DG      H7 6746   2.065   1.007   1.402 -1.6098  1.3329 -0.7476
  294DG      H8 6747   2.148   1.118   1.300 -0.6195 -0.0130  2.9561
  294DG      O9 6748   2.644   1.001   1.496  0.2612  0.4449  0.5664
  294DG     O10 6749   2.245   0.946   1.334  0.6930  0.4015  0.9962
  294DG     C11 6750   2.650   0.866   1.547  0.9060 -0.5460  0.5852
  294DG     C12 6751   2.239   0.804   1.352  0.0517 -0.4272  0.0011
  294DG     H13 6752   2.614   0.860   1.649  1.2175 -2.0619  0.6233
  294DG     H14 6753   2.757   0.853   1.564  1.3972 -0.1381 -1.7887
  294DG     H15 6754   2.173   0.757   1.279 -0.5740  2.1512 -1.2067
  294DG     H16 6755   2.189   0.777   1.445 -2.7185 -0.7977 -1.4665
  294DG     C17 6756   2.583   0.762   1.463 -0.1449  0.0637 -0.4845
  294DG     C18 6757   2.374   0.733   1.350  0.3292  0.2200 -0.6463
  294DG     O19 6758   2.459   0.823   1.418  0.2804 -0.6912 -0.5757
  294DG     H20 6759   2.565   0.679   1.532 -0.2340  0.2526 -0.2807
  294DG     H21 6760   2.637   0.726   1.376 -0.9090  1.1335 -1.4273
  294DG     H22 6761   2.370   0.638   1.404  1.4876  0.9705  0.8719
  294DG     H23 6762   2.410   0.720   1.248  1.1085  0.1690 -0.3710
  295DG      C1 6763   3.882   2.778   4.946 -0.5830  0.5110  0.1314
  295DG      C2 6764   4.086   2.440   5.526  0.4420  0.6227 -0.0365
  295DG      H3 6765   3.789   2.725   4.964  1.2445 -3.0474  0.0328
  295DG      H4 6766   3.940   2.751   4.858 -0.1972 -1.7520  1.0301
  295DG      H5 6767   3.857   2.883   4.930 -1.7425  0.1481 -0.5600
  295DG      H6 6768   4.174   2.491   5.564  0.7266 -1.5401  2.5444
  295DG      H7 6769   4.009   2.436   5.604  1.5136 -2.4386  1.0196
  295DG      H8 6770   4.109   2.336   5.502 -0.5939  1.0152 -3.2068
  295DG      O9 6771   3.965   2.758   5.062 -0.3588 -0.1820 -0.2559
  295DG     O10 6772   4.038   2.514   5.414  0.4168 -0.4704  0.2999
  295DG     C11 6773   4.085   2.840   5.064 -0.6637  0.2847 -0.4450
  295DG     C12 6774   3.984   2.644   5.446 -0.3858 -0.5144  0.4536
  295DG     H13 6775   4.063   2.937   5.020 -2.0179  0.2679  0.1216
  295DG     H14 6776   4.158   2.794   4.997 -2.0068  0.5991 -2.1945
  295DG     H15 6777   3.953   2.653   5.550  0.7963  0.4125  0.7519
  295DG     H16 6778   3.892   2.654   5.389 -2.2381  0.4430  3.3591
  295DG     C17 6779   4.142   2.851   5.208 -0.4841  0.1391  0.4665
  295DG     C18 6780   4.079   2.751   5.416 -0.2709 -0.1639  0.1432
  295DG     O19 6781   4.099   2.736   5.276 -0.6091  0.4415 -0.4157
  295DG     H20 6782   4.096   2.942   5.246 -1.1592 -0.4224  1.0081
  295DG     H21 6783   4.251   2.858   5.215 -0.6191  3.0445  0.7560
  295DG     H22 6784   4.041   2.851   5.437 -0.0958 -0.0094 -0.2726
  295DG     H23 6785   4.172   2.752   5.473 -1.2764 -1.4107  1.9108
  296DG      C1 6786   5.499   0.525   1.378  0.1893 -0.0636  0.2626
  296DG      C2 6787   5.084   0.769   0.577  0.0738 -0.4488  0.2071
  296DG      H3 6788   5.462   0.422   1.381 -1.7445  0.4342 -2.2230
  296DG      H4 6789   5.435   0.585   1.443  1.6803  1.1165  0.6859
  296DG      H5 6790   5.603   0.531   1.410  0.3310  2.9328 -0.5264
  296DG      H6 6791   5.190   0.747   0.565 -0.1326 -3.2847  2.4184
  296DG      H7 6792   5.021   0.684   0.552  0.1199 -0.4547  0.1110
  296DG      H8 6793   5.044   0.853   0.521 -0.7145 -0.3478  0.8891
  296DG      O9 6794   5.483   0.578   1.246 -0.0523 -0.4606 -0.3240
  296DG     O10 6795   5.062   0.808   0.712  0.4188 -0.0472  0.5144
  296DG     C11 6796   5.359   0.578   1.188 -0.2867  0.0721  0.2482
  296DG     C12 6797   5.103   0.703   0.803  0.0442  0.0989 -0.0218
  296DG     H13 6798   5.287   0.615   1.260  0.1364 -0.1385  0.7898
  296DG     H14 6799   5.330   0.480   1.150 -0.3992  0.4240 -0.5766
  296DG     H15 6800   5.099   0.603   0.760 -0.6376  0.7298 -1.4854
  296DG     H16 6801   5.025   0.704   0.879 -0.0705  2.1095 -0.1047
  296DG     C17 6802   5.366   0.666   1.071  0.3516 -0.6285 -0.0474
  296DG     C18 6803   5.233   0.733   0.881  0.2095  0.3565  0.0817
  296DG     O19 6804   5.244   0.658   1.002  0.2548 -0.6207 -0.2838
  296DG     H20 6805   5.441   0.622   1.005 -1.3707 -1.2110 -1.6974
  296DG     H21 6806   5.389   0.769   1.096  0.4029 -1.1313  2.1648
  296DG     H22 6807   5.324   0.718   0.822 -0.1581 -0.4659 -0.2869
  296DG     H23 6808   5.239   0.839   0.905  1.6871  0.1982  0.5178
  297DG      C1 6809   1.588   0.633   2.695 -0.2423  0.0568  0.3264
  297DG      C2 6810   1.631   0.217   2.103  0.6732 -0.3123 -0.2803
  297DG      H3 6811   1.547   0.605   2.792 -1.8569  0.1261 -0.3019
  297DG      H4 6812   1.509   0.684   2.640 -0.7012 -0.9562  0.0191
  297DG      H5 6813   1.669   0.704   2.709  0.7416 -0.1150 -3.3244
  297DG      H6 6814   1.604   0.112   2.096  1.1235 -0.3249 -2.4704
  297DG      H7 6815   1.550   0.285   2.075  2.1658  0.9994 -1.6805
  297DG      H8 6816   1.719   0.241   2.043 -0.1201  1.8740 -0.6641
  297DG      O9 6817   1.633   0.519   2.616  0.5774 -0.2313  0.1695
  297DG     O10 6818   1.655   0.244   2.239 -0.1251  0.3061 -0.3381
  297DG     C11 6819   1.681   0.414   2.700  0.1237  0.2952  0.1608
  297DG     C12 6820   1.728   0.144   2.309 -0.5701  0.1686  0.3990
  297DG     H13 6821   1.606   0.355   2.752  0.9967 -1.9958 -1.0587
  297DG     H14 6822   1.739   0.457   2.783 -1.0893  0.6463  0.8450
  297DG     H15 6823   1.802   0.097   2.244  0.1033  1.7943 -0.0622
  297DG     H16 6824   1.667   0.063   2.348 -1.6786  0.3901 -0.8017
  297DG     C17 6825   1.781   0.330   2.622 -0.2389 -0.0287 -0.3268
  297DG     C18 6826   1.814   0.197   2.423  0.0307  0.2035 -0.3948
  297DG     O19 6827   1.723   0.269   2.510  0.4495 -0.1944 -0.1085
  297DG     H20 6828   1.825   0.257   2.690  0.8346  0.1683 -0.7868
  297DG     H21 6829   1.857   0.398   2.584 -0.5064 -0.0370 -0.8949
  297DG     H22 6830   1.868   0.114   2.469 -0.6011  0.6835  1.3271
  297DG     H23 6831   1.889   0.271   2.395  0.4587  0.1806  0.6262
  298DG      C1 6832   0.323   2.390   5.704  0.3274 -0.3844  0.2163
  298DG      C2 6833   0.420   2.048   5.070  1.1535  0.0263  0.5585
  298DG      H3 6834   0.222   2.359   5.731 -0.4116  0.3037 -1.6016
  298DG      H4 6835   0.341   2.488   5.747 -0.5689  0.4843 -1.3011
  298DG      H5 6836   0.394   2.324   5.752  0.3014 -0.2660  0.4179
  298DG      H6 6837   0.468   1.960   5.113 -0.9879 -2.1532 -1.1910
  298DG      H7 6838   0.313   2.037   5.086  1.2588 -1.6996  0.2316
  298DG      H8 6839   0.440   2.054   4.963 -0.6925  0.1555  0.1786
  298DG      O9 6840   0.346   2.376   5.563 -0.3997  0.3833  0.0569
  298DG     O10 6841   0.465   2.169   5.115  0.0420 -0.4772  0.1348
  298DG     C11 6842   0.329   2.498   5.497 -0.8719  0.1267 -0.2478
  298DG     C12 6843   0.395   2.282   5.061  0.4085 -0.2465 -0.2569
  298DG     H13 6844   0.381   2.574   5.555 -0.7261  1.3477 -1.9075
  298DG     H14 6845   0.224   2.528   5.504 -0.3873  2.0080 -0.4915
  298DG     H15 6846   0.289   2.267   5.083  0.7318  0.1826  1.8990
  298DG     H16 6847   0.411   2.312   4.958 -2.4813  0.0491 -0.7104
  298DG     C17 6848   0.399   2.508   5.360 -0.1211 -0.2004  0.1573
  298DG     C18 6849   0.434   2.404   5.153  0.6439  0.0409 -0.1800
  298DG     O19 6850   0.394   2.394   5.293  0.0031  0.8885  0.3725
  298DG     H20 6851   0.500   2.544   5.382  0.9968 -3.0041 -0.0513
  298DG     H21 6852   0.339   2.592   5.325 -1.9570  0.0141  3.4057
  298DG     H22 6853   0.543   2.392   5.156  0.6957  0.3760 -0.6370
  298DG     H23 6854   0.401   2.497   5.107  0.1143 -0.4128 -0.7368
  299DG      C1 6855   1.115   2.509   4.038  0.0869 -0.1260 -0.0151
  299DG      C2 6856   1.053   2.300   3.279  0.2990  0.1098 -0.2096
  299DG      H3 6857   1.162   2.606   4.027 -0.4781  0.1406 -0.1378
  299DG      H4 6858   1.155   2.468   4.131  1.9743  0.2490 -0.6178
  299DG      H5 6859   1.010   2.536   4.051  0.1147 -0.3888  0.8696
  299DG      H6 6860   1.117   2.340   3.200  1.6573  0.8366  1.2071
  299DG      H7 6861   0.996   2.212   3.251  2.5330 -1.8690  1.1803
  299DG      H8 6862   0.966   2.366   3.282 -0.2565 -0.5498 -1.1590
  299DG      O9 6863   1.121   2.420   3.930 -0.4150 -0.1357  0.2186
  299DG     O10 6864   1.120   2.284   3.410  0.0903 -0.3434 -0.3731
  299DG     C11 6865   1.250   2.366   3.899 -0.4870  0.2060  0.6187
  299DG     C12 6866   1.042   2.218   3.501  0.0880  0.1304 -0.2266
  299DG     H13 6867   1.295   2.326   3.990  0.9726  1.2754  0.3962
  299DG     H14 6868   1.318   2.443   3.864 -1.9822  1.2047 -0.2010
  299DG     H15 6869   0.989   2.132   3.460 -0.6219 -0.6438  2.1494
  299DG     H16 6870   0.961   2.279   3.539  0.2714 -0.4817  1.2165
  299DG     C17 6871   1.247   2.253   3.801 -0.2849 -0.1153 -0.8029
  299DG     C18 6872   1.125   2.174   3.625 -0.6470  0.0002 -0.6917
  299DG     O19 6873   1.178   2.284   3.685 -0.6549  0.4823  0.1040
  299DG     H20 6874   1.197   2.173   3.856  1.1826 -1.7244 -1.7295
  299DG     H21 6875   1.345   2.208   3.789 -0.8251 -1.5230 -0.1998
  299DG     H22 6876   1.056   2.114   3.684 -1.0212  0.4133 -0.7024
  299DG     H23 6877   1.202   2.098   3.610 -1.7140 -0.7116 -2.9530
  300DG      C1 6878   0.541  -0.216   4.994 -0.1221 -0.3717  0.1471
  300DG      C2 6879   1.117   0.184   5.025  0.1826 -0.3539  0.3516
  300DG      H3 6880   0.456  -0.256   4.938  0.7258 -0.7929 -0.8896
  300DG      H4 6881   0.537  -0.243   5.099  0.3963  0.7067  0.4610
  300DG      H5 6882   0.624  -0.269   4.947 -0.0590  0.3572 -0.5821
  300DG      H6 6883   1.131   0.117   5.111  1.6617  1.9828  2.0698
  300DG      H7 6884   1.214   0.190   4.975 -0.0774  0.9553 -0.0221
  300DG      H8 6885   1.099   0.278   5.077 -1.3725 -0.4909  0.1107
  300DG      O9 6886   0.546  -0.075   4.982 -0.5285  0.3074 -0.0854
  300DG     O10 6887   1.008   0.154   4.931 -0.0593 -0.0784  0.5131
  300DG     C11 6888   0.557  -0.021   4.852 -0.1679  0.0396 -0.1225
  300DG     C12 6889   1.028   0.030   4.867  0.1476  0.5314  0.5985
  300DG     H13 6890   0.538   0.085   4.870 -0.7120 -0.2467  1.0729
  300DG     H14 6891   0.470  -0.046   4.790 -1.2518 -0.6739  1.6168
  300DG     H15 6892   1.029  -0.056   4.934 -1.7504  1.5785  2.0774
  300DG     H16 6893   1.123   0.028   4.813  0.2452 -0.4787  0.7863
  300DG     C17 6894   0.690  -0.054   4.783  0.5867 -0.0769  0.0047
  300DG     C18 6895   0.915   0.005   4.763 -0.3965 -0.3372 -0.0363
  300DG     O19 6896   0.797   0.020   4.838  0.0879  0.1165 -0.4891
  300DG     H20 6897   0.685  -0.040   4.675  0.6064  0.0553  0.0201
  300DG     H21 6898   0.700  -0.162   4.793 -1.7360 -0.2089  1.8681
  300DG     H22 6899   0.926   0.086   4.691  1.3029  1.9585  2.5954
  300DG     H23 6900   0.926  -0.090   4.711  0.5211  0.2653 -0.9745
  301DG      C1 6901   1.529   0.315   0.954  0.0827  0.4910  0.3500
  301DG      C2 6902   0.932   0.602   1.311  0.1257  0.0573  0.0454
  301DG      H3 6903   1.558   0.298   1.057 -0.0566  0.0394  0.3175
  301DG      H4 6904   1.553   0.419   0.933 -0.5866  1.3293  3.3124
  301DG      H5 6905   1.567   0.250   0.875 -2.5939 -0.5270 -0.2003
  301DG      H6 6906   0.823   0.601   1.310  0.1320 -0.7375 -0.4322
  301DG      H7 6907   0.972   0.563   1.404 -0.9103 -0.6138  0.2290
  301DG      H8 6908   0.963   0.702   1.280 -1.1821  0.3801 -0.2984
  301DG      O9 6909   1.388   0.291   0.938  0.4707 -0.6293  0.3065
  301DG     O10 6910   0.973   0.504   1.214  0.1722 -0.3191 -0.0831
  301DG     C11 6911   1.330   0.377   0.836 -0.0206 -0.2929  0.1530
  301DG     C12 6912   0.902   0.521   1.088 -0.3206 -0.3758 -0.3352
  301DG     H13 6913   1.339   0.326   0.740  1.7890  1.4811 -0.6797
  301DG     H14 6914   1.368   0.479   0.829  2.3384 -1.1038  0.4331
  301DG     H15 6915   0.938   0.612   1.041 -1.3360 -0.5655 -1.5446
  301DG     H16 6916   0.793   0.509   1.095 -0.1435 -2.8408 -0.8555
  301DG     C17 6917   1.171   0.383   0.863  0.1470  0.1655  0.2359
  301DG     C18 6918   0.976   0.429   0.991 -0.0724 -1.2008  0.8159
  301DG     O19 6919   1.119   0.437   0.985  0.1562 -0.3307 -0.3022
  301DG     H20 6920   1.137   0.281   0.845  2.7101 -0.6001 -0.7992
  301DG     H21 6921   1.131   0.442   0.781  3.1811  0.9520 -0.8345
  301DG     H22 6922   0.947   0.324   0.997  0.4141 -1.7033 -2.9168
  301DG     H23 6923   0.940   0.459   0.893  1.2642 -1.4107  0.2415
  302DG      C1 6924   0.825   1.890   1.400  0.3721  0.1626 -0.8137
  302DG      C2 6925   0.693   2.570   1.552  0.7464  1.6862 -0.2228
  302DG      H3 6926   0.930   1.873   1.424 -0.0190  0.2768  1.1711
  302DG      H4 6927   0.771   1.802   1.365 -0.2555 -1.0024  2.6420
  302DG      H5 6928   0.785   1.921   1.497 -0.8149 -1.4635 -0.7334
  302DG      H6 6929   0.607   2.531   1.606  0.3448  2.9021  0.0501
  302DG      H7 6930   0.776   2.581   1.623  1.6764 -1.6479 -0.6321
  302DG      H8 6931   0.673   2.667   1.507  1.9864  2.0616 -0.0047
  302DG      O9 6932   0.819   1.993   1.298  0.1678 -0.0419  0.2692
  302DG     O10 6933   0.727   2.489   1.439  0.1008  0.3426  0.2100
  302DG     C11 6934   0.686   2.009   1.243  0.0703 -0.6869  1.4572
  302DG     C12 6935   0.611   2.473   1.362  0.6446  0.1379  0.7124
  302DG     H13 6936   0.610   1.985   1.317 -1.0477 -1.4451  0.0994
  302DG     H14 6937   0.659   1.928   1.175 -0.5346 -0.0613  0.9397
  302DG     H15 6938   0.565   2.569   1.337  0.9869  0.1115 -0.0353
  302DG     H16 6939   0.542   2.418   1.426  1.6746 -1.2888  0.6250
  302DG     C17 6940   0.668   2.143   1.183 -0.2792  0.8539  0.4491
  302DG     C18 6941   0.634   2.379   1.241  0.3599 -0.3490  0.1005
  302DG     O19 6942   0.666   2.243   1.279 -0.2441 -0.1879 -0.1244
  302DG     H20 6943   0.579   2.146   1.121  1.1791  1.1518 -1.7193
  302DG     H21 6944   0.747   2.171   1.114 -1.6428  2.8238 -0.4209
  302DG     H22 6945   0.543   2.386   1.182 -0.7585  0.6872  1.8618
  302DG     H23 6946   0.713   2.415   1.175 -0.3004 -0.7301 -0.9239
  303DG      C1 6947  -0.143   1.188   2.495  0.1952 -0.1852 -0.7551
  303DG      C2 6948   0.290   1.527   2.256 -0.3314  0.0738  0.6143
  303DG      H3 6949  -0.252   1.189   2.508  0.1850  1.8588 -0.7581
  303DG      H4 6950  -0.108   1.105   2.556 -0.8809  0.4285  0.7768
  303DG      H5 6951  -0.110   1.170   2.393  1.0288  1.4530 -0.8034
  303DG      H6 6952   0.202   1.463   2.245  0.2952 -0.5586 -0.9945
  303DG      H7 6953   0.279   1.606   2.182  2.0125  1.3893  1.5678
  303DG      H8 6954   0.372   1.469   2.214 -1.9794 -1.4189 -0.6982
  303DG      O9 6955  -0.091   1.311   2.547  0.5189  0.0656 -0.2575
  303DG     O10 6956   0.316   1.581   2.388 -0.4805  0.6572  0.0949
  303DG     C11 6957   0.049   1.309   2.572  0.8626 -0.4871  0.3563
  303DG     C12 6958   0.239   1.687   2.445 -0.7832  0.1626  0.9752
  303DG     H13 6959   0.087   1.261   2.482 -1.1288 -0.2218 -0.6871
  303DG     H14 6960   0.077   1.257   2.664 -0.8451  0.4915  1.4873
  303DG     H15 6961   0.269   1.782   2.402  0.1512 -1.2411 -1.7026
  303DG     H16 6962   0.282   1.714   2.542  0.2042  3.5630 -0.2622
  303DG     C17 6963   0.090   1.458   2.582 -0.0543  0.4571 -0.2438
  303DG     C18 6964   0.092   1.659   2.444  0.5098  0.8116 -0.1457
  303DG     O19 6965   0.058   1.518   2.456 -0.1782 -1.2396 -0.0381
  303DG     H20 6966   0.196   1.460   2.610  0.4091 -0.6720 -1.7608
  303DG     H21 6967   0.033   1.506   2.661 -1.8507  1.4640 -2.0754
  303DG     H22 6968   0.036   1.733   2.501 -0.3751  1.1607 -1.4379
  303DG     H23 6969   0.059   1.687   2.345 -0.2362  2.7024  0.5940
  304DG      C1 6970   4.138   0.491   2.186 -0.0259 -0.1663 -0.1876
  304DG      C2 6971   3.366   0.876   2.262  0.1405 -0.0806 -0.7940
  304DG      H3 6972   4.175   0.593   2.179  0.8856 -0.3537  1.4805
  304DG      H4 6973   4.145   0.464   2.080  1.0479 -0.6939  0.0021
  304DG      H5 6974   4.210   0.430   2.242  0.2905  1.0417  0.7560
  304DG      H6 6975   3.396   0.939   2.178  0.0432 -0.9133 -1.4714
  304DG      H7 6976   3.309   0.790   2.229  0.1228 -0.0542 -0.8320
  304DG      H8 6977   3.308   0.933   2.334  2.9980  2.1357 -0.0628
  304DG      O9 6978   4.004   0.494   2.227 -1.0152 -0.2666 -0.1391
  304DG     O10 6979   3.481   0.837   2.340 -0.2517  0.4718  0.2100
  304DG     C11 6980   3.998   0.530   2.360  0.0886  0.1934 -0.0240
  304DG     C12 6981   3.597   0.789   2.265 -0.0922 -0.5686 -0.1393
  304DG     H13 6982   4.059   0.615   2.388 -0.0782  0.7451 -1.3052
  304DG     H14 6983   4.035   0.454   2.429  0.9353  0.8854  0.3017
  304DG     H15 6984   3.658   0.879   2.257  1.8916 -1.8272  0.1278
  304DG     H16 6985   3.573   0.757   2.164  2.4152 -0.8718 -0.7126
  304DG     C17 6986   3.851   0.556   2.395 -0.3225 -0.6795  0.5552
  304DG     C18 6987   3.658   0.682   2.348  0.1708 -0.0029 -0.5808
  304DG     O19 6988   3.795   0.651   2.305  0.2577  0.0077 -0.2698
  304DG     H20 6989   3.847   0.605   2.492 -3.9861  1.7963 -0.6460
  304DG     H21 6990   3.787   0.468   2.386 -0.7702 -0.1416 -2.0431
  304DG     H22 6991   3.654   0.713   2.452  0.1152  0.5906 -0.7512
  304DG     H23 6992   3.601   0.590   2.348  1.0559 -0.5743  0.5019
  305DG      C1 6993   3.583   2.629   1.505 -0.6981  0.9258  0.4226
  305DG      C2 6994   3.807   2.304   2.014  0.2610  0.1803 -0.9689
  305DG      H3 6995   3.529   2.623   1.410  0.5225 -3.0406 -0.2163
  305DG      H4 6996   3.686   2.602   1.480  0.8271  1.7988  4.8605
  305DG      H5 6997   3.591   2.734   1.535  0.6672  0.3392  2.2825
  305DG      H6 6998   3.878   2.240   1.963  0.7611 -0.1492  0.1212
  305DG      H7 6999   3.851   2.404   2.009 -0.0845  0.4613  1.0302
  305DG      H8 7000   3.805   2.282   2.120  1.0228  1.4565 -0.6665
  305DG      O9 7001   3.531   2.543   1.607 -0.0308  0.0545  0.4861
  305DG     O10 7002   3.685   2.285   1.947 -0.2200 -0.1571  0.1415
  305DG     C11 7003   3.417   2.603   1.669 -0.2141  0.0432 -0.2156
  305DG     C12 7004   3.579   2.338   2.032  0.0060 -0.6336 -0.1086
  305DG     H13 7005   3.336   2.626   1.599 -0.1958  0.9826  0.0561
  305DG     H14 7006   3.439   2.700   1.713  0.2471 -0.1461 -0.0253
  305DG     H15 7007   3.617   2.425   2.085  0.6367 -1.8721  1.5276
  305DG     H16 7008   3.572   2.267   2.114 -0.7160  0.7844  1.1094
  305DG     C17 7009   3.373   2.505   1.782 -0.1250 -0.2831  0.0521
  305DG     C18 7010   3.446   2.369   1.953 -0.3555 -0.1712 -0.6217
  305DG     O19 7011   3.482   2.470   1.863  0.0110  0.2607 -0.3007
  305DG     H20 7012   3.326   2.415   1.743 -3.8806 -0.1267  3.5258
  305DG     H21 7013   3.290   2.556   1.833 -0.0136 -1.1347  1.1208
  305DG     H22 7014   3.406   2.282   1.901  0.0903 -0.6067 -0.2503
  305DG     H23 7015   3.373   2.405   2.025 -1.1388  1.1061 -2.0042
  306DG      C1 7016   4.421   0.741   1.933  0.0088 -0.0296  0.4738
  306DG      C2 7017   4.514   1.214   1.578 -0.1643  0.4855 -0.5728
  306DG      H3 7018   4.439   0.710   2.036 -0.6903 -0.7441  0.3904
  306DG      H4 7019   4.496   0.720   1.857 -2.0561  2.1103 -2.3791
  306DG      H5 7020   4.341   0.676   1.898  0.3518  0.1630 -0.7237
  306DG      H6 7021   4.603   1.259   1.624 -1.3970  0.2168  2.3329
  306DG      H7 7022   4.536   1.137   1.505  1.1232 -1.1532  1.4135
  306DG      H8 7023   4.454   1.287   1.523 -2.9412 -0.6823  0.7393
  306DG      O9 7024   4.374   0.872   1.914  0.0935  0.0013  0.4154
  306DG     O10 7025   4.436   1.160   1.691  0.7372  0.0348 -0.4197
  306DG     C11 7026   4.239   0.883   1.950 -0.1344  0.5613  0.1368
  306DG     C12 7027   4.408   1.261   1.785 -0.4492 -0.2527 -1.1214
  306DG     H13 7028   4.219   0.830   2.043  0.2134  0.3642  0.1033
  306DG     H14 7029   4.175   0.831   1.879 -1.9216  1.7095  0.8496
  306DG     H15 7030   4.347   1.341   1.743 -1.1448  0.5973  1.2965
  306DG     H16 7031   4.502   1.305   1.821 -0.3150 -0.2595 -1.4654
  306DG     C17 7032   4.183   1.025   1.962  0.3128 -0.5868 -0.0345
  306DG     C18 7033   4.348   1.181   1.907 -0.1205  0.1577  0.3648
  306DG     O19 7034   4.230   1.117   1.865  0.2417  0.2192 -0.7168
  306DG     H20 7035   4.197   1.066   2.062 -0.4180  0.5664 -0.3911
  306DG     H21 7036   4.074   1.029   1.954  0.3348 -0.1703 -0.1553
  306DG     H22 7037   4.434   1.125   1.944  1.4020  2.8753  1.2700
  306DG     H23 7038   4.326   1.264   1.974 -2.1557  0.3000 -0.3924
  307DG      C1 7039   1.308  -0.128   1.761  0.1110  0.3073  0.3939
  307DG      C2 7040   1.151   0.175   1.179  0.3146 -0.0930  0.3548
  307DG      H3 7041   1.225  -0.145   1.829  0.0970 -0.5393  0.1739
  307DG      H4 7042   1.380  -0.205   1.788  0.3751  0.7795  1.0870
  307DG      H5 7043   1.293  -0.139   1.653 -1.6749  0.2594  0.6279
  307DG      H6 7044   1.256   0.200   1.164  0.4433 -1.2420 -0.8291
  307DG      H7 7045   1.105   0.154   1.083 -0.5126 -2.3535  1.1794
  307DG      H8 7046   1.104   0.268   1.213  1.8214  0.9647 -0.3269
  307DG      O9 7047   1.365  -0.000   1.798 -0.2230 -0.3176  0.0510
  307DG     O10 7048   1.131   0.066   1.268  0.7400  0.5378 -0.0486
  307DG     C11 7049   1.494   0.032   1.747  1.2813  1.0195  0.5590
  307DG     C12 7050   1.185   0.083   1.400  0.8806 -0.4477  0.2976
  307DG     H13 7051   1.568  -0.034   1.793  0.7167 -0.8685 -1.0804
  307DG     H14 7052   1.517   0.136   1.772  0.0445  1.3727  0.2990
  307DG     H15 7053   1.138   0.003   1.456 -0.8359  1.9361  2.4739
  307DG     H16 7054   1.137   0.179   1.420  0.0099 -0.2377 -2.3663
  307DG     C17 7055   1.496   0.014   1.596  0.3798  0.5424 -0.1722
  307DG     C18 7056   1.336   0.070   1.415  0.4646  0.4590 -0.0531
  307DG     O19 7057   1.378   0.085   1.550 -0.1647  0.0145 -0.1591
  307DG     H20 7058   1.474  -0.089   1.566 -1.1306  0.6765  0.3913
  307DG     H21 7059   1.583   0.053   1.544  0.9632  0.0912  0.4473
  307DG     H22 7060   1.355  -0.033   1.383  0.9195  0.1034  1.2843
  307DG     H23 7061   1.402   0.130   1.353  1.3386  0.3893  0.7873
  308DG      C1 7062   3.371   1.470   3.494  0.2782 -0.5764 -0.3845
  308DG      C2 7063   3.245   0.863   3.388 -0.1035  0.0504 -0.7953
  308DG      H3 7064   3.384   1.367   3.526  0.9134  0.0533  1.5483
  308DG      H4 7065   3.325   1.516   3.582  0.4598 -0.4213 -0.3688
  308DG      H5 7066   3.469   1.517   3.486 -0.7612  2.0253  0.7503
  308DG      H6 7067   3.351   0.862   3.362  0.2235 -2.0203  0.4295
  308DG      H7 7068   3.254   0.847   3.495 -2.9751  0.2720 -0.4425
  308DG      H8 7069   3.192   0.774   3.354  0.3926 -0.0519 -1.3167
  308DG      O9 7070   3.298   1.481   3.370 -0.1083 -0.7168 -0.7355
  308DG     O10 7071   3.174   0.982   3.362  0.6277  0.2663  0.1458
  308DG     C11 7072   3.158   1.452   3.390  0.6116 -0.1762 -0.2072
  308DG     C12 7073   3.173   1.009   3.217 -0.0304 -0.3299 -0.4547
  308DG     H13 7074   3.096   1.540   3.403 -0.1634 -0.8336  0.6634
  308DG     H14 7075   3.144   1.388   3.477  2.4349 -0.8018 -0.3236
  308DG     H15 7076   3.122   0.928   3.166  0.4909 -0.6791 -0.4364
  308DG     H16 7077   3.276   1.009   3.181 -0.1113  1.6581 -0.7668
  308DG     C17 7078   3.101   1.375   3.266  0.1270  0.4022 -0.0099
  308DG     C18 7079   3.106   1.147   3.185  0.1724  0.9618  0.1296
  308DG     O19 7080   3.159   1.242   3.274 -0.6649  0.0674 -0.2924
  308DG     H20 7081   3.120   1.421   3.169 -0.0886 -1.6693 -1.0941
  308DG     H21 7082   2.992   1.377   3.269  0.1389  1.0569  0.1974
  308DG     H22 7083   3.127   1.170   3.081 -0.7525  4.8282  0.6710
  308DG     H23 7084   3.000   1.135   3.210  0.6738  0.9410  2.5498
  309DG      C1 7085   4.095   0.586   1.047  0.0981  0.1021  0.0203
  309DG      C2 7086   3.552   0.965   1.044  0.5495 -0.3160 -0.2337
  309DG      H3 7087   3.990   0.562   1.035 -0.1996 -0.3566  2.8854
  309DG      H4 7088   4.119   0.552   1.148 -1.6244 -3.0548 -0.4929
  309DG      H5 7089   4.153   0.527   0.976  3.0179  1.8609  0.7439
  309DG      H6 7090   3.561   1.049   0.976 -0.1414  1.8645  2.2311
  309DG      H7 7091   3.519   0.877   0.988  1.7612 -1.1263  0.2736
  309DG      H8 7092   3.480   0.982   1.123  1.7340 -2.0780  1.3333
  309DG      O9 7093   4.126   0.721   1.020 -0.1684  0.4803  0.3609
  309DG     O10 7094   3.684   0.948   1.103 -0.3200 -0.1639 -0.1096
  309DG     C11 7095   4.104   0.822   1.113  0.7241  0.2865 -0.7394
  309DG     C12 7096   3.722   1.028   1.214 -0.0940  0.3301  0.3305
  309DG     H13 7097   4.164   0.907   1.082 -1.3937  2.0155 -0.3133
  309DG     H14 7098   4.133   0.786   1.212  0.2668 -2.3722 -1.4791
  309DG     H15 7099   3.640   1.033   1.286  0.7142  2.8178  1.1600
  309DG     H16 7100   3.732   1.128   1.174 -1.0387 -0.7749 -2.9423
  309DG     C17 7101   3.959   0.858   1.116 -0.1375 -0.3026  0.0202
  309DG     C18 7102   3.847   0.978   1.292 -0.1299  0.1976 -0.3938
  309DG     O19 7103   3.953   0.972   1.198 -0.0471  0.1171 -0.8276
  309DG     H20 7104   3.903   0.769   1.142  3.8550 -2.0701  3.9243
  309DG     H21 7105   3.930   0.884   1.014 -0.1781 -2.4132 -0.5537
  309DG     H22 7106   3.861   1.049   1.374 -1.9536  0.6135 -0.4039
  309DG     H23 7107   3.834   0.881   1.339 -0.9692  0.6186  0.2765
  310DG      C1 7108   1.818   1.473   2.581  0.1674  0.0015  0.5597
  310DG      C2 7109   2.554   1.882   2.505 -0.3531  0.0302 -0.3676
  310DG      H3 7110   1.815   1.387   2.514  2.4619  1.2000 -1.2219
  310DG      H4 7111   1.756   1.545   2.529  1.1209 -0.0231 -0.6679
  310DG      H5 7112   1.768   1.458   2.677  4.6117  0.8516  3.3533
  310DG      H6 7113   2.483   1.947   2.454 -0.2288  0.0201 -0.5541
  310DG      H7 7114   2.619   1.950   2.560 -1.1059  2.1496 -1.9794
  310DG      H8 7115   2.618   1.832   2.432 -0.5227 -0.4925 -0.1666
  310DG      O9 7116   1.947   1.523   2.617  0.1261 -0.4872  0.3405
  310DG     O10 7117   2.501   1.778   2.591  0.0124 -0.8374 -0.3538
  310DG     C11 7118   2.031   1.425   2.672 -0.4868  0.0036 -0.5189
  310DG     C12 7119   2.383   1.722   2.549  0.0172  0.4264 -0.5546
  310DG     H13 7120   2.067   1.346   2.606  1.5042  0.1440  0.3367
  310DG     H14 7121   1.972   1.373   2.748 -0.0233 -0.0040 -0.1603
  310DG     H15 7122   2.380   1.693   2.445 -0.9171  0.2426 -0.4861
  310DG     H16 7123   2.313   1.806   2.552  0.3951  0.7345 -0.1582
  310DG     C17 7124   2.163   1.479   2.722 -0.3220  0.5079  0.0481
  310DG     C18 7125   2.348   1.607   2.650  0.1558  0.1403  0.0530
  310DG     O19 7126   2.217   1.559   2.618  0.5683 -0.2348 -0.0539
  310DG     H20 7127   2.217   1.395   2.764  1.3595  0.5817 -1.8152
  310DG     H21 7128   2.150   1.549   2.805  0.9482  0.6295  0.1634
  310DG     H22 7129   2.427   1.535   2.635  1.1485  0.6232  2.5223
  310DG     H23 7130   2.356   1.639   2.754  1.9148  0.0358 -0.0188
  311DG      C1 7131   4.270   3.330   4.640  0.3454  0.4880 -0.1020
  311DG      C2 7132   4.750   3.536   4.078 -0.1101  0.6089  0.2610
  311DG      H3 7133   4.357   3.383   4.680 -1.0440  2.3749  0.5754
  311DG      H4 7134   4.265   3.234   4.692  0.1686 -0.7278 -2.2850
  311DG      H5 7135   4.182   3.394   4.648 -1.1843 -1.5855  0.6872
  311DG      H6 7136   4.850   3.571   4.102  0.7679 -2.5285  1.6891
  311DG      H7 7137   4.752   3.471   3.990  0.8565  0.6441  0.2512
  311DG      H8 7138   4.693   3.624   4.048 -1.1060 -0.5977 -1.5762
  311DG      O9 7139   4.296   3.302   4.504  0.6124 -0.0791  0.6102
  311DG     O10 7140   4.689   3.468   4.184  0.6052 -0.3857 -0.3115
  311DG     C11 7141   4.319   3.418   4.438  0.2638 -1.6302 -0.2755
  311DG     C12 7142   4.742   3.511   4.310  0.3597 -0.1971 -0.3301
  311DG     H13 7143   4.252   3.500   4.464  0.6670 -2.0363  2.2556
  311DG     H14 7144   4.304   3.402   4.331 -0.5626 -0.1635 -0.4091
  311DG     H15 7145   4.702   3.610   4.329  1.1646 -0.2179  1.7829
  311DG     H16 7146   4.851   3.503   4.307  0.2775 -1.6481 -0.2423
  311DG     C17 7147   4.468   3.474   4.449 -0.1699 -0.4984  0.0659
  311DG     C18 7148   4.692   3.402   4.415  0.3367  0.5776 -0.0769
  311DG     O19 7149   4.552   3.369   4.407 -0.2097  0.1716 -0.2364
  311DG     H20 7150   4.498   3.514   4.545  0.9251 -0.6853 -0.1861
  311DG     H21 7151   4.473   3.564   4.388  0.5471 -0.7171 -0.1976
  311DG     H22 7152   4.743   3.306   4.402 -0.7749  0.3105 -3.3208
  311DG     H23 7153   4.706   3.438   4.517  0.6697 -1.6296  0.7100
  312DG      C1 7154   0.381   1.112   2.582  0.3728 -0.0696 -0.1964
  312DG      C2 7155   1.074   1.117   2.691 -0.0577 -0.1283  0.8436
  312DG      H3 7156   0.335   1.181   2.652  1.2089  0.9978 -0.6616
  312DG      H4 7157   0.321   1.114   2.491 -0.5342  0.0991  0.3969
  312DG      H5 7158   0.482   1.152   2.571  1.0491 -1.5109  0.5401
  312DG      H6 7159   1.175   1.132   2.653 -1.3456 -0.4301 -3.0744
  312DG      H7 7160   1.040   1.219   2.712  0.4927  0.2765 -0.1424
  312DG      H8 7161   1.057   1.052   2.777  0.5662 -0.1442  0.9607
  312DG      O9 7162   0.396   0.985   2.641 -0.7801  0.5807 -0.0591
  312DG     O10 7163   0.989   1.084   2.580  0.0694 -0.2563  0.0769
  312DG     C11 7164   0.446   0.888   2.548 -0.0620 -0.3277  0.6264
  312DG     C12 7165   0.868   1.038   2.620  0.8461  0.1007 -0.9267
  312DG     H13 7166   0.368   0.859   2.478  0.5009  0.7754 -0.4762
  312DG     H14 7167   0.468   0.793   2.597 -1.1945  0.0577  1.9581
  312DG     H15 7168   0.810   1.121   2.660 -0.5177 -1.3076  0.1689
  312DG     H16 7169   0.864   0.960   2.696 -1.2597  0.0928 -0.9715
  312DG     C17 7170   0.569   0.916   2.461 -0.3028 -0.1847 -0.2169
  312DG     C18 7171   0.791   0.997   2.495 -0.3954 -1.1091 -0.5426
  312DG     O19 7172   0.662   0.966   2.550  0.2977 -0.8174  0.3108
  312DG     H20 7173   0.557   0.989   2.381 -0.7410  2.6484  2.2532
  312DG     H21 7174   0.609   0.826   2.414 -1.0835 -0.2148 -0.8487
  312DG     H22 7175   0.799   1.082   2.428  1.5028  0.1649  1.1502
  312DG     H23 7176   0.852   0.931   2.434  1.6257  1.9618 -2.1214
  313DG      C1 7177   1.008   1.413   3.657  0.1434 -0.0185  0.3833
  313DG      C2 7178   1.187   1.402   4.535 -0.1071  0.3106 -0.1182
  313DG      H3 7179   0.919   1.474   3.643  0.0400 -0.9393 -5.3304
  313DG      H4 7180   1.010   1.351   3.567 -3.2343 -1.1521  0.9454
  313DG      H5 7181   1.094   1.479   3.647  0.4228 -0.4718 -0.2548
  313DG      H6 7182   1.142   1.501   4.547 -2.3136 -0.5711 -0.7072
  313DG      H7 7183   1.172   1.350   4.629 -0.5717  1.0615  0.2366
  313DG      H8 7184   1.295   1.419   4.538 -0.2498  1.2012  0.3912
  313DG      O9 7185   1.039   1.358   3.781  0.3282  0.6184 -0.9297
  313DG     O10 7186   1.137   1.318   4.433  0.0445  0.4149 -0.4390
  313DG     C11 7187   0.921   1.323   3.853 -1.3571  0.2352 -0.3557
  313DG     C12 7188   1.128   1.367   4.301 -0.2181 -0.0009  0.1114
  313DG     H13 7189   0.879   1.247   3.788  2.5666 -1.2291 -1.4747
  313DG     H14 7190   0.866   1.415   3.868 -0.1454  0.7395  1.4176
  313DG     H15 7191   1.230   1.354   4.265  0.4178 -0.1206  1.8514
  313DG     H16 7192   1.130   1.476   4.293  1.0279 -0.0929 -1.3577
  313DG     C17 7193   0.963   1.266   3.992 -0.2110 -0.4889  0.4605
  313DG     C18 7194   1.016   1.299   4.216 -0.4349  0.0181  0.3828
  313DG     O19 7195   1.016   1.359   4.086  0.0190 -0.0173 -0.2113
  313DG     H20 7196   1.030   1.181   3.978 -1.2147 -1.2291  0.0542
  313DG     H21 7197   0.873   1.218   4.032 -0.9552 -0.1207 -0.7225
  313DG     H22 7198   1.025   1.190   4.217 -2.6915 -0.3641 -3.4087
  313DG     H23 7199   0.922   1.320   4.266  0.2076  2.3686  0.7429
  314DG      C1 7200   4.576   3.029   5.070  0.2217 -0.5508 -0.0472
  314DG      C2 7201   5.015   2.918   4.433 -0.4334  0.7186  0.5647
  314DG      H3 7202   4.532   3.119   5.112  0.1794 -0.6010  0.0145
  314DG      H4 7203   4.603   2.963   5.152  1.5848  1.1636  0.9597
  314DG      H5 7204   4.499   2.986   5.006 -0.4050 -0.9681  0.9690
  314DG      H6 7205   5.105   2.955   4.384 -1.4463  0.2939 -1.7347
  314DG      H7 7206   5.048   2.837   4.499 -1.8182 -0.3178  0.0454
  314DG      H8 7207   4.950   2.871   4.359  0.3420  0.1551  0.2295
  314DG      O9 7208   4.682   3.067   4.988 -0.9100  0.7165 -0.1921
  314DG     O10 7209   4.946   3.022   4.496  0.2005  0.4294  0.4377
  314DG     C11 7210   4.751   2.954   4.942 -0.5762 -0.5206  0.3509
  314DG     C12 7211   5.020   3.094   4.594 -0.7335  0.1932  0.1550
  314DG     H13 7212   4.684   2.898   4.876 -1.6524  1.5245 -0.3720
  314DG     H14 7213   4.800   2.881   5.007  2.3184 -0.0688 -1.1512
  314DG     H15 7214   5.073   3.170   4.537 -0.4247 -0.6246 -0.6851
  314DG     H16 7215   5.089   3.027   4.646  2.1476  2.9131  0.1110
  314DG     C17 7216   4.873   3.014   4.868  0.7382 -0.3235  0.1401
  314DG     C18 7217   4.924   3.168   4.691 -0.2072 -0.0651 -0.1440
  314DG     O19 7218   4.825   3.082   4.745 -0.4655  0.8818  0.1729
  314DG     H20 7219   4.949   2.942   4.837  3.5936  1.9882  1.2935
  314DG     H21 7220   4.927   3.083   4.932 -1.1788  1.6680 -0.2549
  314DG     H22 7221   4.982   3.218   4.769  0.6221 -1.9637  0.4974
  314DG     H23 7222   4.878   3.248   4.632  0.8863 -0.1781 -1.2054
  315DG      C1 7223   0.302   4.119   0.941 -0.7130 -0.1712 -0.0448
  315DG      C2 7224   0.591   4.098   1.744 -0.1449  0.2999 -0.3130
  315DG      H3 7225   0.359   4.122   0.848 -1.6144  2.4480 -0.5968
  315DG      H4 7226   0.237   4.206   0.947 -1.0863 -0.1777 -2.7280
  315DG      H5 7227   0.238   4.030   0.942 -0.3358 -0.4835 -1.5622
  315DG      H6 7228   0.564   3.993   1.735  3.9614 -1.0997  1.2335
  315DG      H7 7229   0.677   4.090   1.810  0.8095  0.9424 -1.4296
  315DG      H8 7230   0.506   4.145   1.794 -0.8768  0.5835 -1.7708
  315DG      O9 7231   0.412   4.125   1.035 -0.3533  0.4846 -0.6053
  315DG     O10 7232   0.638   4.160   1.620  0.1653  0.0818 -0.3802
  315DG     C11 7233   0.482   4.250   1.047  0.2235 -0.3439 -0.5299
  315DG     C12 7234   0.545   4.157   1.513 -0.2661 -0.4038  0.0952
  315DG     H13 7235   0.422   4.341   1.046  1.3805  0.4415 -0.9754
  315DG     H14 7236   0.534   4.260   0.951 -0.7787 -0.0388 -1.0524
  315DG     H15 7237   0.451   4.203   1.546  0.8866 -0.1218  3.3824
  315DG     H16 7238   0.506   4.056   1.494  1.7772 -0.8847 -1.8823
  315DG     C17 7239   0.579   4.251   1.163 -0.6653 -0.5118  0.1297
  315DG     C18 7240   0.601   4.218   1.394 -0.2144  0.6870  0.6759
  315DG     O19 7241   0.520   4.209   1.282  0.5054  0.4697  0.2109
  315DG     H20 7242   0.629   4.348   1.163 -0.8392 -0.4204  0.2910
  315DG     H21 7243   0.647   4.171   1.133 -0.4283 -0.1876 -0.2098
  315DG     H22 7244   0.609   4.323   1.424  0.3532  0.7202  0.4252
  315DG     H23 7245   0.704   4.189   1.371 -0.9990 -2.2723  0.5013
  316DG      C1 7246   3.521   3.896   2.083 -0.4749 -0.1025 -0.2523
  316DG      C2 7247   3.843   3.615   1.548 -0.0045 -0.2088  0.2954
  316DG      H3 7248   3.498   3.792   2.104 -1.3475  0.4550  1.8164
  316DG      H4 7249   3.430   3.957   2.078 -0.2383  0.1594 -1.7419
  316DG      H5 7250   3.583   3.930   2.166 -0.5458  2.0340 -1.0101
  316DG      H6 7251   3.782   3.531   1.581 -1.7040 -0.0654 -2.2233
  316DG      H7 7252   3.839   3.594   1.441 -2.2132 -0.7185  0.4180
  316DG      H8 7253   3.943   3.610   1.590  0.8729  0.5156 -1.5902
  316DG      O9 7254   3.595   3.894   1.958 -0.0198 -0.0254 -1.1061
  316DG     O10 7255   3.767   3.733   1.569  0.4006 -0.0889 -0.6734
  316DG     C11 7256   3.648   4.024   1.918  0.8472 -0.3086  0.4928
  316DG     C12 7257   3.841   3.858   1.531 -0.6448 -0.0022 -0.3136
  316DG     H13 7258   3.711   4.059   1.999 -1.2718  0.3351  1.9525
  316DG     H14 7259   3.565   4.092   1.898 -0.6974 -2.3878 -0.5579
  316DG     H15 7260   3.774   3.941   1.507  0.3522  0.9934  0.2740
  316DG     H16 7261   3.915   3.847   1.452 -1.9661 -0.6228 -1.4985
  316DG     C17 7262   3.714   4.000   1.779 -0.0956 -0.5193 -0.2875
  316DG     C18 7263   3.900   3.913   1.665  0.4986  0.1309 -0.1507
  316DG     O19 7264   3.816   3.898   1.784  0.0048  0.4937  0.2169
  316DG     H20 7265   3.753   4.098   1.751 -1.8468  1.2069  2.7970
  316DG     H21 7266   3.642   3.962   1.706  0.6067  0.7870 -1.7266
  316DG     H22 7267   3.993   3.858   1.680 -0.5196 -1.7924 -0.5018
  316DG     H23 7268   3.936   4.014   1.647  3.0975 -0.3936  1.6213
  317DG      C1 7269   5.148   2.012   4.804 -0.1803  0.0568 -0.2585
  317DG      C2 7270   5.564   2.151   4.190 -0.5128 -0.5466 -0.1397
  317DG      H3 7271   5.197   2.109   4.790  1.7535 -1.1527 -2.4949
  317DG      H4 7272   5.211   1.953   4.870  1.3127  0.9900 -0.8085
  317DG      H5 7273   5.052   2.019   4.856 -1.7441  1.5390 -3.0590
  317DG      H6 7274   5.560   2.148   4.081 -1.2835  0.0457 -0.1311
  317DG      H7 7275   5.604   2.245   4.228 -1.6707  0.1398 -0.5748
  317DG      H8 7276   5.628   2.069   4.225 -1.8409 -1.1322  1.0016
  317DG      O9 7277   5.115   1.971   4.674  0.8070 -0.3193  0.4641
  317DG     O10 7278   5.430   2.133   4.237  0.2690  0.2950 -0.1297
  317DG     C11 7279   5.041   2.053   4.587  0.4335  0.3871 -0.6667
  317DG     C12 7280   5.394   1.998   4.246  1.0301  0.2862  0.2831
  317DG     H13 7281   5.063   2.158   4.604  0.9408  0.1899 -0.0947
  317DG     H14 7282   4.933   2.039   4.591  0.2120  1.8351 -1.1708
  317DG     H15 7283   5.461   1.937   4.308 -1.0692 -0.4345  1.9591
  317DG     H16 7284   5.409   1.961   4.145 -3.4033  2.6892 -1.5002
  317DG     C17 7285   5.082   2.027   4.441 -0.2250 -0.1756  0.6223
  317DG     C18 7286   5.246   1.977   4.279 -0.6175 -0.8625  0.4475
  317DG     O19 7287   5.221   2.041   4.406  0.1001 -0.8640 -0.4550
  317DG     H20 7288   5.022   2.091   4.376  1.1076  2.4477  1.8309
  317DG     H21 7289   5.051   1.926   4.413 -0.6300  0.6417 -2.2276
  317DG     H22 7290   5.182   2.024   4.204 -1.2964 -1.3574  0.7116
  317DG     H23 7291   5.232   1.869   4.280  0.7692 -1.0691 -0.6838
  318DG      C1 7292   3.853   4.185   4.260 -0.4143  0.3286 -0.0532
  318DG      C2 7293   4.123   3.658   4.739  0.4695 -0.3261 -0.2029
  318DG      H3 7294   3.794   4.276   4.271  3.8942  3.1425  3.3258
  318DG      H4 7295   3.789   4.108   4.218 -1.4702  1.5878 -0.8534
  318DG      H5 7296   3.924   4.215   4.183  0.5617 -0.7228  0.4200
  318DG      H6 7297   4.194   3.627   4.662 -0.0829 -1.1932 -0.3734
  318DG      H7 7298   4.179   3.672   4.831 -3.6639  0.4949  2.4374
  318DG      H8 7299   4.050   3.578   4.745 -4.0877  3.4512  1.5999
  318DG      O9 7300   3.924   4.146   4.382  0.8045  0.2369  0.2751
  318DG     O10 7301   4.046   3.775   4.693 -0.0230 -0.4073 -0.0815
  318DG     C11 7302   3.831   4.176   4.478  0.0918  0.3451  0.0950
  318DG     C12 7303   3.959   3.816   4.793 -0.5176 -0.2106  0.6954
  318DG     H13 7304   3.738   4.123   4.460  1.9608 -2.7153 -1.3859
  318DG     H14 7305   3.819   4.284   4.489 -1.1522  0.1051  1.4387
  318DG     H15 7306   4.002   3.805   4.893  2.1528 -2.4856 -0.5780
  318DG     H16 7307   3.865   3.762   4.782 -0.8656  0.3852  0.7033
  318DG     C17 7308   3.886   4.139   4.616  0.1187 -0.8675 -0.1907
  318DG     C18 7309   3.936   3.973   4.774  0.3295  0.3026  0.1441
  318DG     O19 7310   3.903   4.004   4.635 -0.0213 -0.4842 -0.7804
  318DG     H20 7311   3.815   4.185   4.685  0.1544  0.5587 -1.0696
  318DG     H21 7312   3.983   4.187   4.628 -1.3615  1.8275  2.4745
  318DG     H22 7313   3.856   4.010   4.838 -1.0890 -0.3235 -1.1901
  318DG     H23 7314   4.030   4.020   4.804  1.1612 -0.5373 -1.0569
  319DG      C1 7315   0.750   4.516   3.432  0.3707 -0.0002 -0.2876
  319DG      C2 7316   0.349   4.401   3.005 -0.3129  0.1554 -0.4625
  319DG      H3 7317   0.853   4.486   3.412  0.3738  0.4420 -0.9854
  319DG      H4 7318   0.716   4.497   3.533 -3.0877  1.4296 -1.0224
  319DG      H5 7319   0.761   4.624   3.422 -0.5193  0.1746  0.4907
  319DG      H6 7320   0.437   4.356   3.051 -0.6247 -0.0442 -0.0460
  319DG      H7 7321   0.260   4.351   3.044 -1.7109  3.0724  0.3648
  319DG      H8 7322   0.362   4.382   2.899 -3.0915 -0.0854 -0.8568
  319DG      O9 7323   0.665   4.443   3.342 -0.2709  0.3173  0.0843
  319DG     O10 7324   0.334   4.535   3.056 -0.2849 -0.4727 -0.1003
  319DG     C11 7325   0.526   4.477   3.347  0.3393  0.2869  0.3500
  319DG     C12 7326   0.440   4.619   3.022 -0.0112  0.8240 -0.0949
  319DG     H13 7327   0.487   4.447   3.444  1.1052  2.1726  1.2923
  319DG     H14 7328   0.481   4.415   3.270  0.0812 -0.2978  0.9706
  319DG     H15 7329   0.416   4.666   2.926 -0.3037  0.6620 -0.1006
  319DG     H16 7330   0.529   4.555   3.023 -1.0257 -0.6353  0.9623
  319DG     C17 7331   0.477   4.621   3.321 -0.4208 -0.0560 -0.0560
  319DG     C18 7332   0.483   4.735   3.114  0.0186 -0.3426 -0.1680
  319DG     O19 7333   0.553   4.706   3.236 -0.2855  0.0317  0.5175
  319DG     H20 7334   0.468   4.664   3.420  3.5636  1.0018 -0.0147
  319DG     H21 7335   0.371   4.621   3.295 -0.2088  0.6744 -0.9690
  319DG     H22 7336   0.538   4.796   3.043 -0.4963  0.1674 -0.1412
  319DG     H23 7337   0.406   4.809   3.137  1.1397  0.9432 -0.4402
  320DG      C1 7338  -0.253   4.668   1.827  0.0055 -0.2754 -0.7056
  320DG      C2 7339   0.349   4.561   1.503  0.4840  0.8754 -0.1905
  320DG      H3 7340  -0.214   4.761   1.868 -0.6479  0.9670 -2.7568
  320DG      H4 7341  -0.336   4.628   1.885 -1.1488 -0.2615 -2.2893
  320DG      H5 7342  -0.293   4.689   1.727  1.4321 -1.9745 -1.7017
  320DG      H6 7343   0.425   4.629   1.542  1.2740  0.1404 -0.4415
  320DG      H7 7344   0.405   4.472   1.474 -3.1175 -1.0139 -1.9807
  320DG      H8 7345   0.294   4.603   1.418 -0.6218  0.1804  0.1645
  320DG      O9 7346  -0.148   4.574   1.813 -0.2307  0.0959 -0.3391
  320DG     O10 7347   0.259   4.520   1.603 -0.1947 -0.0160 -0.4054
  320DG     C11 7348  -0.094   4.550   1.939  0.3463 -0.5596  0.3113
  320DG     C12 7349   0.324   4.482   1.726  0.1679 -0.2995 -0.1887
  320DG     H13 7350  -0.170   4.514   2.009  2.3825 -0.0966  2.9467
  320DG     H14 7351  -0.065   4.646   1.983  0.5539 -0.8149  0.7473
  320DG     H15 7352   0.358   4.579   1.764  0.4587  0.4487 -2.1937
  320DG     H16 7353   0.413   4.423   1.705  1.1176  1.2831 -0.8604
  320DG     C17 7354   0.021   4.456   1.925  0.0643 -0.5550 -0.0411
  320DG     C18 7355   0.224   4.427   1.821 -0.6488 -1.0676  0.4310
  320DG     O19 7356   0.114   4.516   1.844  0.2270 -0.0725 -0.1793
  320DG     H20 7357  -0.018   4.365   1.881 -0.7447 -1.0062  1.5345
  320DG     H21 7358   0.068   4.426   2.019  0.6729  0.5502  0.0281
  320DG     H22 7359   0.182   4.338   1.776  1.5157 -2.4091  0.9085
  320DG     H23 7360   0.269   4.389   1.912  1.4561 -0.4802 -0.2987
  321DG      C1 7361   5.367   1.597   1.095  0.2319 -0.4125  0.8995
  321DG      C2 7362   5.021   1.879   1.121 -0.1278  0.2151 -0.1339
  321DG      H3 7363   5.284   1.528   1.084 -1.1008  0.5438  3.8783
  321DG      H4 7364   5.445   1.522   1.106  0.4695 -0.2524  0.3398
  321DG      H5 7365   5.368   1.648   0.999 -1.4444 -1.1663  0.4491
  321DG      H6 7366   5.039   1.919   1.021 -2.7271 -0.5970 -1.0001
  321DG      H7 7367   5.097   1.804   1.144  0.4217  1.1954  1.3735
  321DG      H8 7368   4.922   1.834   1.113 -1.5947  3.2886 -0.4333
  321DG      O9 7369   5.346   1.692   1.201  0.1364  0.5566  0.3755
  321DG     O10 7370   5.026   1.983   1.215  0.0318  0.1955  0.3656
  321DG     C11 7371   5.451   1.791   1.211 -0.1179 -0.5103 -0.0553
  321DG     C12 7372   5.127   2.081   1.188  0.1401 -0.6772  0.0739
  321DG     H13 7373   5.470   1.834   1.113  1.6380  2.2639  1.3775
  321DG     H14 7374   5.537   1.738   1.251 -0.2432  0.5345  1.6759
  321DG     H15 7375   5.127   2.151   1.272  0.6468 -1.7294  0.9811
  321DG     H16 7376   5.101   2.136   1.098  1.5319 -1.6971 -1.0076
  321DG     C17 7377   5.419   1.901   1.315  0.2706  0.8685  1.0713
  321DG     C18 7378   5.269   2.024   1.191 -0.0473  0.3936 -0.5796
  321DG     O19 7379   5.280   1.934   1.300 -0.4553 -0.7378 -0.2088
  321DG     H20 7380   5.484   1.986   1.292  1.6146 -0.7912 -1.8277
  321DG     H21 7381   5.430   1.866   1.417 -0.9898  0.3418  1.0428
  321DG     H22 7382   5.284   1.972   1.096  0.0654 -0.0846 -0.3058
  321DG     H23 7383   5.349   2.098   1.191  0.2800  0.0415 -0.0281
  322DG      C1 7384   1.805   3.318   4.068  0.3854  0.3362  0.5895
  322DG      C2 7385   1.862   3.817   4.615 -0.2802  0.1636  0.5160
  322DG      H3 7386   1.779   3.388   3.988 -0.0021 -1.5816 -1.0259
  322DG      H4 7387   1.708   3.304   4.115 -0.1182  2.7735  0.4298
  322DG      H5 7388   1.834   3.218   4.036 -3.1118  0.3319 -3.5894
  322DG      H6 7389   1.773   3.770   4.658 -0.7833  0.2132 -0.4368
  322DG      H7 7390   1.941   3.827   4.689  0.4202 -0.4469 -0.1510
  322DG      H8 7391   1.833   3.920   4.593 -2.3164  0.3586  3.5100
  322DG      O9 7392   1.893   3.375   4.166 -0.0180  0.6650 -0.3317
  322DG     O10 7393   1.922   3.737   4.517  0.2092  0.4676 -0.3210
  322DG     C11 7394   1.992   3.458   4.102  0.0854 -0.3233 -0.4224
  322DG     C12 7395   2.026   3.795   4.435  0.7161 -0.0807  0.3663
  322DG     H13 7396   1.955   3.535   4.035  1.4527 -1.4444 -2.6011
  322DG     H14 7397   2.051   3.391   4.039 -0.4353 -1.1863 -0.0094
  322DG     H15 7398   2.085   3.855   4.505  0.9474 -0.6726  0.6807
  322DG     H16 7399   1.987   3.864   4.360 -0.2661 -1.9580 -0.9313
  322DG     C17 7400   2.080   3.519   4.212  0.5363  0.7440  0.4966
  322DG     C18 7401   2.107   3.698   4.355  0.0291  0.7377  0.8845
  322DG     O19 7402   2.019   3.627   4.269  0.2654  0.1630  0.2866
  322DG     H20 7403   2.175   3.549   4.167  0.3375 -0.2558 -0.6633
  322DG     H21 7404   2.104   3.444   4.287  0.7916  0.1289 -0.1888
  322DG     H22 7405   2.167   3.743   4.276 -1.5863  0.1779 -0.7363
  322DG     H23 7406   2.163   3.634   4.423 -1.1367 -1.0040  0.2790
  323DG      C1 7407   3.014   5.150   1.660  0.5177  0.3604  1.0862
  323DG      C2 7408   3.366   5.287   2.240  0.5151 -0.3187 -0.7038
  323DG      H3 7409   3.036   5.105   1.563 -1.0699  0.8059  0.4774
  323DG      H4 7410   3.000   5.256   1.637  1.5686  0.4282  0.7130
  323DG      H5 7411   2.920   5.108   1.697 -0.9309  1.0328 -1.6000
  323DG      H6 7412   3.311   5.381   2.250  0.8947 -0.1271 -0.3519
  323DG      H7 7413   3.361   5.246   2.341 -0.5634 -0.2266 -0.7099
  323DG      H8 7414   3.469   5.308   2.209 -0.3751 -0.1840 -3.8112
  323DG      O9 7415   3.108   5.126   1.758  0.6531  0.8135 -0.5467
  323DG     O10 7416   3.305   5.187   2.160 -0.3600 -0.8932  0.5007
  323DG     C11 7417   3.127   4.989   1.779 -0.0348 -0.2022  0.0177
  323DG     C12 7418   3.381   5.070   2.156  0.3206  0.1635 -0.2020
  323DG     H13 7419   3.103   4.923   1.696  3.2456  0.7497 -1.8897
  323DG     H14 7420   3.071   4.954   1.866  2.1983  0.1028  1.6926
  323DG     H15 7421   3.384   5.026   2.255  0.1033  0.3542 -0.1081
  323DG     H16 7422   3.486   5.083   2.132  0.5507  2.0800  1.5411
  323DG     C17 7423   3.277   4.965   1.813  0.5099  0.3519  0.2140
  323DG     C18 7424   3.316   4.970   2.053 -0.1225  0.1737  0.0993
  323DG     O19 7425   3.323   5.036   1.928  0.6277 -0.3455  0.1200
  323DG     H20 7426   3.336   5.008   1.732  0.0450  1.4433  0.4329
  323DG     H21 7427   3.296   4.858   1.818  1.2077  0.4737  0.3590
  323DG     H22 7428   3.365   4.872   2.054 -1.2826 -0.4173  1.0132
  323DG     H23 7429   3.213   4.956   2.085  0.4511 -0.4324  1.8140
  324DG      C1 7430   4.778   0.959   1.415  0.1693  0.1499  1.2764
  324DG      C2 7431   5.592   1.111   0.947 -0.3496 -0.3601 -0.4388
  324DG      H3 7432   4.829   0.879   1.469 -0.7132 -1.4414 -0.1081
  324DG      H4 7433   4.676   0.927   1.392  0.6740 -0.2802 -0.5201
  324DG      H5 7434   4.774   1.050   1.475 -1.8505  0.6698  0.4536
  324DG      H6 7435   5.610   1.004   0.956 -2.6868 -0.7717  0.1968
  324DG      H7 7436   5.630   1.141   0.850 -1.5789 -1.2399 -1.2226
  324DG      H8 7437   5.635   1.161   1.034 -1.3680  0.0890 -0.1655
  324DG      O9 7438   4.850   0.986   1.294 -0.2901  0.0217 -0.1834
  324DG     O10 7439   5.458   1.137   0.955  0.4044  0.7172 -0.5462
  324DG     C11 7440   4.990   1.027   1.317 -0.3002  0.0364  0.5437
  324DG     C12 7441   5.402   1.086   1.073 -0.7095  0.8107 -0.0268
  324DG     H13 7442   5.052   0.941   1.340 -0.3558 -0.0148  0.5037
  324DG     H14 7443   4.996   1.095   1.401 -1.7470 -1.3694  1.8629
  324DG     H15 7444   5.458   1.126   1.157 -1.6496  0.0988  0.9671
  324DG     H16 7445   5.425   0.980   1.083 -2.2746  0.5658  1.4604
  324DG     C17 7446   5.052   1.093   1.195 -0.0431 -0.5921  0.1467
  324DG     C18 7447   5.252   1.123   1.080 -0.0733  0.4842  0.2217
  324DG     O19 7448   5.188   1.086   1.203  0.0699 -0.3471  0.0208
  324DG     H20 7449   5.010   1.193   1.178 -0.3144 -0.6197  0.6523
  324DG     H21 7450   5.019   1.027   1.114 -0.7003 -0.5577  0.3828
  324DG     H22 7451   5.240   1.228   1.052  1.0985  1.5406  3.3314
  324DG     H23 7452   5.205   1.073   0.995  1.6756 -0.6830 -0.1179
  325DG      C1 7453   3.397   2.607   5.072 -0.0229 -0.1412 -0.6015
  325DG      C2 7454   3.778   2.302   4.745  0.0101 -0.4732 -0.0582
  325DG      H3 7455   3.403   2.661   5.166  0.1594 -0.3497 -0.4918
  325DG      H4 7456   3.407   2.502   5.097  1.9791 -0.2907 -1.8418
  325DG      H5 7457   3.293   2.603   5.037  0.2597  0.2740 -1.5120
  325DG      H6 7458   3.698   2.230   4.733 -0.8296  0.2605  0.9886
  325DG      H7 7459   3.866   2.248   4.781  0.5040 -0.0960 -0.6597
  325DG      H8 7460   3.743   2.381   4.812 -1.1135 -1.7884  0.9486
  325DG      O9 7461   3.485   2.650   4.969  0.1654  0.3224  0.3279
  325DG     O10 7462   3.798   2.364   4.615 -0.3372 -0.8430 -0.1288
  325DG     C11 7463   3.429   2.639   4.842  0.2667  0.0504  0.4284
  325DG     C12 7464   3.844   2.499   4.618 -0.2138  0.2794 -0.1785
  325DG     H13 7465   3.331   2.681   4.819 -0.8996 -0.3169  4.0568
  325DG     H14 7466   3.407   2.533   4.827 -1.6560  0.5707 -0.7254
  325DG     H15 7467   3.916   2.513   4.538  1.7262  0.7525  1.5659
  325DG     H16 7468   3.897   2.522   4.711 -0.3400 -0.5007  0.0911
  325DG     C17 7469   3.536   2.682   4.743  0.1005 -0.0487  0.0073
  325DG     C18 7470   3.721   2.595   4.608  0.4957 -0.6754  0.1063
  325DG     O19 7471   3.637   2.587   4.728 -0.3474 -0.1014  0.2999
  325DG     H20 7472   3.582   2.778   4.767  0.8100 -0.6094  0.9594
  325DG     H21 7473   3.479   2.698   4.652 -0.4733 -0.4634  0.2895
  325DG     H22 7474   3.758   2.696   4.592 -0.4057 -0.3560 -0.0367
  325DG     H23 7475   3.668   2.597   4.513  2.1818  2.4120 -0.9112
  326DG      C1 7476   4.988   2.262   4.159  0.1260 -0.6998  0.2091
  326DG      C2 7477   5.499   2.225   4.569 -0.1924 -0.3030 -0.4322
  326DG      H3 7478   4.925   2.178   4.189 -1.2035 -0.0009 -0.5509
  326DG      H4 7479   5.072   2.211   4.110  0.7541 -0.1943  0.7435
  326DG      H5 7480   4.926   2.323   4.094  0.8286  0.1941  0.3682
  326DG      H6 7481   5.557   2.204   4.480  0.2496  0.0459 -0.2324
  326DG      H7 7482   5.562   2.272   4.644 -2.4059 -1.0274  2.0514
  326DG      H8 7483   5.469   2.140   4.631  2.2533  1.0636  2.9088
  326DG      O9 7484   5.042   2.317   4.277  0.0097 -0.4744  0.0258
  326DG     O10 7485   5.397   2.322   4.530 -0.0208  0.3129  0.5459
  326DG     C11 7486   4.946   2.382   4.361 -0.2048 -0.1887  0.1592
  326DG     C12 7487   5.332   2.369   4.644 -0.0693  0.3563  0.2187
  326DG     H13 7488   4.879   2.311   4.411 -0.7095  0.0294 -0.1967
  326DG     H14 7489   4.877   2.440   4.300 -1.4293  0.0864  1.7420
  326DG     H15 7490   5.397   2.413   4.720  1.1905  1.2314 -1.2850
  326DG     H16 7491   5.300   2.276   4.689  1.8668 -0.1977  0.5526
  326DG     C17 7492   5.016   2.461   4.469  0.6423  0.5223  0.1588
  326DG     C18 7493   5.214   2.456   4.609 -0.2243  0.1995 -0.3392
  326DG     O19 7494   5.133   2.382   4.513  0.2116 -0.0869 -0.0903
  326DG     H20 7495   4.955   2.480   4.557  0.8368 -1.9342  0.8968
  326DG     H21 7496   5.036   2.562   4.433 -0.8554  0.8301  0.1314
  326DG     H22 7497   5.149   2.478   4.694 -1.4383 -2.1974 -0.5707
  326DG     H23 7498   5.250   2.545   4.557  0.7686 -0.1000 -0.1852
  327DG      C1 7499   3.627   1.403   1.144 -0.1671 -0.4074 -0.5901
  327DG      C2 7500   3.348   2.106   0.809 -0.0794  0.6593  0.1392
  327DG      H3 7501   3.526   1.398   1.105  0.9309 -1.0101 -3.6677
  327DG      H4 7502   3.651   1.356   1.240 -0.6632  1.6725  0.6239
  327DG      H5 7503   3.692   1.369   1.063 -1.2180 -1.2655 -1.0919
  327DG      H6 7504   3.383   2.081   0.709 -0.7784 -2.0247  0.4914
  327DG      H7 7505   3.245   2.071   0.813  0.7002 -2.2235 -1.9102
  327DG      H8 7506   3.363   2.214   0.820  1.0824  0.4402  0.9331
  327DG      O9 7507   3.660   1.545   1.155  0.7368  0.0297 -0.0788
  327DG     O10 7508   3.427   2.043   0.907  0.4315  0.2116  0.0532
  327DG     C11 7509   3.638   1.621   1.029 -0.2612  0.4164  0.1662
  327DG     C12 7510   3.567   2.058   0.888  0.7505 -0.6100  0.0946
  327DG     H13 7511   3.535   1.599   1.003 -0.1106  0.3844 -0.4211
  327DG     H14 7512   3.707   1.596   0.948  1.0321 -0.0204  1.3543
  327DG     H15 7513   3.570   2.165   0.910  1.8602 -0.3493 -1.1831
  327DG     H16 7514   3.607   2.045   0.788  2.3403  0.7331  0.5015
  327DG     C17 7515   3.663   1.762   1.072  0.0994 -0.7618  0.3874
  327DG     C18 7516   3.653   1.983   0.983  0.4170 -0.3228 -0.3437
  327DG     O19 7517   3.611   1.848   0.969  0.0417  0.3103 -0.8460
  327DG     H20 7518   3.768   1.773   1.099  0.2111 -1.2498  0.1461
  327DG     H21 7519   3.609   1.786   1.164 -0.6500 -0.7629 -0.0419
  327DG     H22 7520   3.757   1.998   0.953 -0.0487 -1.3800 -2.6959
  327DG     H23 7521   3.644   2.015   1.087  1.8307  1.3260 -0.6831
  328DG      C1 7522   2.604   2.151   1.319  0.2835 -0.4237  0.0263
  328DG      C2 7523   2.063   1.770   1.043  0.0007 -0.0831  0.2131
  328DG      H3 7524   2.587   2.246   1.369  2.8701 -1.1166  2.4429
  328DG      H4 7525   2.612   2.168   1.212 -0.8986 -1.0410 -0.1840
  328DG      H5 7526   2.700   2.116   1.355  1.6587 -0.1268 -3.0300
  328DG      H6 7527   2.141   1.698   1.069 -0.7837 -0.6927  0.9230
  328DG      H7 7528   1.963   1.728   1.037 -0.0091  0.0901 -1.0821
  328DG      H8 7529   2.095   1.814   0.948  2.4611  1.4517  1.6410
  328DG      O9 7530   2.510   2.049   1.353  0.4224 -0.8039  0.1120
  328DG     O10 7531   2.072   1.883   1.131  0.1439  0.7314 -0.3605
  328DG     C11 7532   2.508   1.930   1.276  0.6090  0.3376  0.2664
  328DG     C12 7533   2.050   1.853   1.270  0.3348  0.2491 -0.2061
  328DG     H13 7534   2.598   1.871   1.292  1.5508  1.2104 -1.6064
  328DG     H14 7535   2.488   1.946   1.170 -1.9881 -0.8277  0.4961
  328DG     H15 7536   1.970   1.780   1.279 -2.2691  3.1490  2.8251
  328DG     H16 7537   2.018   1.953   1.300 -0.3886  0.6259 -2.0768
  328DG     C17 7538   2.402   1.833   1.322 -0.4385  0.3733 -0.2859
  328DG     C18 7539   2.176   1.803   1.333  0.7584  0.2710 -0.6875
  328DG     O19 7540   2.279   1.891   1.292  0.4157 -0.2285 -0.2629
  328DG     H20 7541   2.419   1.818   1.428  2.2511  0.9610 -0.5751
  328DG     H21 7542   2.421   1.743   1.264  0.4222  0.4171 -0.0765
  328DG     H22 7543   2.164   1.797   1.441  1.9853 -1.8886 -0.6072
  328DG     H23 7544   2.184   1.699   1.302 -2.8663 -0.7764  1.3499
  329DG      C1 7545   4.066   0.044   3.924 -0.0273  0.2436  0.0619
  329DG      C2 7546   3.513   0.608   3.768 -0.2814 -0.6920  0.1644
  329DG      H3 7547   4.071  -0.064   3.933  0.8073  0.1819 -1.0121
  329DG      H4 7548   4.084   0.085   4.023 -0.2236 -0.6864  0.4957
  329DG      H5 7549   4.150   0.064   3.858  0.0097 -0.7901 -0.2173
  329DG      H6 7550   3.485   0.706   3.730  2.4060  0.4489  0.9081
  329DG      H7 7551   3.422   0.549   3.774  0.5728 -2.3090 -1.6421
  329DG      H8 7552   3.552   0.624   3.869  1.6505 -0.0520 -0.6316
  329DG      O9 7553   3.944   0.077   3.870  0.0433 -0.4095  0.5326
  329DG     O10 7554   3.610   0.541   3.688 -0.6173 -0.9592  0.2658
  329DG     C11 7555   3.919   0.030   3.737 -0.0482  0.1994 -0.3514
  329DG     C12 7556   3.645   0.421   3.745 -0.8314  0.2729 -0.1333
  329DG     H13 7557   3.899  -0.076   3.730 -0.4537  0.3147 -1.0172
  329DG     H14 7558   4.006   0.042   3.673  0.9838 -0.2915  0.9153
  329DG     H15 7559   3.559   0.356   3.761 -0.3767 -0.2024  0.4344
  329DG     H16 7560   3.691   0.439   3.842  0.6273 -1.3997 -0.4449
  329DG     C17 7561   3.804   0.120   3.692 -0.5218  0.4055  0.7516
  329DG     C18 7562   3.748   0.358   3.652 -0.0437  0.0937 -0.4396
  329DG     O19 7563   3.835   0.259   3.702  0.3120  0.5795 -0.1128
  329DG     H20 7564   3.713   0.098   3.748 -0.4452  0.0262  0.7246
  329DG     H21 7565   3.771   0.097   3.591 -1.0546  0.6152  0.8751
  329DG     H22 7566   3.699   0.333   3.557 -1.3322  2.5227 -0.4884
  329DG     H23 7567   3.815   0.440   3.628  1.6199 -1.2578 -0.5879
  330DG      C1 7568   2.823   5.098   0.226  0.1643 -0.7659  0.0027
  330DG      C2 7569   2.864   5.652  -0.007 -0.1200  0.3770  1.3126
  330DG      H3 7570   2.804   5.189   0.169  1.1294  0.4401  1.5107
  330DG      H4 7571   2.807   5.017   0.154  0.6584 -1.7437  0.9670
  330DG      H5 7572   2.931   5.104   0.243  0.2903 -0.5441 -0.8376
  330DG      H6 7573   2.859   5.590  -0.096 -0.6141 -0.2818  1.7955
  330DG      H7 7574   2.826   5.754  -0.019 -1.8036 -0.4736 -1.5095
  330DG      H8 7575   2.971   5.668   0.005  0.2777 -1.0671  0.0234
  330DG      O9 7576   2.740   5.087   0.342  0.0993  0.0751  0.3996
  330DG     O10 7577   2.813   5.576   0.099  0.9350 -1.1440 -0.2028
  330DG     C11 7578   2.724   5.192   0.438 -0.3766  0.5756 -0.3994
  330DG     C12 7579   2.682   5.522   0.076 -0.0929 -0.0260 -0.0885
  330DG     H13 7580   2.814   5.231   0.486 -0.8800  3.0970 -1.3290
  330DG     H14 7581   2.669   5.137   0.515 -0.4104 -0.1489 -0.9333
  330DG     H15 7582   2.701   5.438   0.009 -0.4102  1.3099 -1.9333
  330DG     H16 7583   2.613   5.597   0.036  1.7702  1.9578  0.2098
  330DG     C17 7584   2.645   5.308   0.381  0.4547  0.0185  0.6147
  330DG     C18 7585   2.633   5.475   0.212  0.0875 -0.5449 -0.5403
  330DG     O19 7586   2.704   5.368   0.271  0.1707  0.7013  0.5824
  330DG     H20 7587   2.641   5.389   0.454 -0.6731  0.0638  0.5149
  330DG     H21 7588   2.541   5.286   0.357 -0.0361  3.1717 -0.6933
  330DG     H22 7589   2.614   5.555   0.284 -1.1205 -0.3270 -1.0781
  330DG     H23 7590   2.532   5.443   0.190  0.3010 -0.2370 -2.0176
  331DG      C1 7591   3.680   0.016   0.742 -0.6318 -0.0071 -0.0708
  331DG      C2 7592   4.073   0.264   1.312 -0.1600  0.0789 -0.9891
  331DG      H3 7593   3.612   0.046   0.661  1.1149 -1.6435 -2.2529
  331DG      H4 7594   3.642   0.041   0.841  0.1526 -0.7486  0.4305
  331DG      H5 7595   3.688  -0.092   0.745 -0.0119  0.0002 -1.1990
  331DG      H6 7596   4.180   0.282   1.302 -0.3211 -0.1531 -3.9012
  331DG      H7 7597   4.031   0.315   1.398  1.8654  0.7984 -0.3642
  331DG      H8 7598   4.051   0.159   1.334 -0.8762  0.2192 -1.0392
  331DG      O9 7599   3.811   0.076   0.711  0.0501  0.0732 -0.0787
  331DG     O10 7600   4.009   0.298   1.192  0.4500  0.0729 -0.7178
  331DG     C11 7601   3.811   0.222   0.708  0.2534 -0.4164 -0.8080
  331DG     C12 7602   4.070   0.238   1.076  0.5090 -0.2487  0.7569
  331DG     H13 7603   3.744   0.267   0.635 -2.4450  0.1284  1.8081
  331DG     H14 7604   3.915   0.240   0.683  0.0464  0.4199 -1.1140
  331DG     H15 7605   4.086   0.132   1.090 -1.6209 -0.3608  3.0805
  331DG     H16 7606   4.172   0.275   1.070  0.4188 -0.1466 -0.2293
  331DG     C17 7607   3.777   0.274   0.848  0.3802 -0.1169 -0.4716
  331DG     C18 7608   3.993   0.270   0.941  0.3521 -0.2053 -0.1725
  331DG     O19 7609   3.856   0.234   0.956  0.1454 -0.3429  0.2656
  331DG     H20 7610   3.672   0.250   0.867  0.6290 -0.9354 -0.0938
  331DG     H21 7611   3.781   0.383   0.838  1.2761  0.0322  1.1563
  331DG     H22 7612   4.006   0.376   0.917 -0.6111 -0.4042 -1.7013
  331DG     H23 7613   4.038   0.210   0.861  1.5391  0.1365  0.2210
  332DG      C1 7614   2.787   3.439   5.353 -0.4585 -0.3806 -0.2841
  332DG      C2 7615   2.240   3.906   4.893  0.3675  0.4957 -0.5461
  332DG      H3 7616   2.826   3.449   5.455  2.6137 -0.5587 -1.3271
  332DG      H4 7617   2.867   3.385   5.302 -1.8470 -2.5925 -0.2729
  332DG      H5 7618   2.697   3.380   5.365 -0.2006 -0.5984  0.6494
  332DG      H6 7619   2.262   3.976   4.812  2.4645  1.0969  0.4596
  332DG      H7 7620   2.177   3.825   4.855  1.1979 -0.5340  0.1856
  332DG      H8 7621   2.187   3.962   4.969 -0.6886 -2.1560  0.7895
  332DG      O9 7622   2.754   3.560   5.292 -0.5580 -0.2495  0.0641
  332DG     O10 7623   2.349   3.840   4.935 -0.2084 -0.0913 -0.2689
  332DG     C11 7624   2.719   3.535   5.152  0.3515 -0.0859  0.5179
  332DG     C12 7625   2.443   3.921   4.999 -0.8800  0.5777 -0.5284
  332DG     H13 7626   2.629   3.474   5.151  0.2077  0.1232  0.3686
  332DG     H14 7627   2.796   3.471   5.110  0.3920 -1.1829  2.1948
  332DG     H15 7628   2.403   3.938   5.099  0.6346 -1.2030  0.4394
  332DG     H16 7629   2.435   4.021   4.956 -0.2182  0.5884 -0.6320
  332DG     C17 7630   2.720   3.671   5.077  0.1775  0.3148 -0.7680
  332DG     C18 7631   2.588   3.857   4.987 -0.0792 -0.0957 -0.0715
  332DG     O19 7632   2.593   3.734   5.067  0.0750 -0.3920  0.2803
  332DG     H20 7633   2.761   3.656   4.977  0.7115  0.9038 -0.6406
  332DG     H21 7634   2.788   3.747   5.115  1.1850  0.6652 -3.1036
  332DG     H22 7635   2.608   3.846   4.881 -1.0838  2.8421 -0.6577
  332DG     H23 7636   2.657   3.929   5.030  0.1191 -0.6596  0.5765
  333DG      C1 7637   1.344   2.837   1.621 -0.2234 -0.6197  0.3722
  333DG      C2 7638   1.350   2.985   0.878  0.2665 -0.0505 -0.4550
  333DG      H3 7639   1.242   2.861   1.652 -0.3663  0.5083 -0.8947
  333DG      H4 7640   1.418   2.848   1.700  0.3641 -1.0004 -0.1185
  333DG      H5 7641   1.328   2.736   1.586  0.2046 -0.2457 -0.9416
  333DG      H6 7642   1.246   3.012   0.895  0.8611  3.1334 -1.1625
  333DG      H7 7643   1.390   3.063   0.813  2.0124 -0.5815 -0.0708
  333DG      H8 7644   1.346   2.891   0.822  1.6534 -0.4370  0.0440
  333DG      O9 7645   1.386   2.920   1.512  0.1816 -0.6412 -0.8583
  333DG     O10 7646   1.422   2.988   0.998 -0.3551 -0.5772 -0.1503
  333DG     C11 7647   1.526   2.925   1.484  0.7778  0.7209  0.7331
  333DG     C12 7648   1.436   3.121   1.055 -0.3418 -0.2315 -0.1786
  333DG     H13 7649   1.551   2.840   1.420 -0.2063  0.5053  0.6129
  333DG     H14 7650   1.592   2.918   1.571  0.7339 -0.0314  0.7128
  333DG     H15 7651   1.345   3.157   1.103 -0.5903 -0.8769 -0.1541
  333DG     H16 7652   1.450   3.193   0.975  0.6244 -2.3286 -2.0037
  333DG     C17 7653   1.572   3.038   1.397  0.0281  0.3945 -0.2941
  333DG     C18 7654   1.534   3.123   1.183 -0.7725  0.0160  0.1934
  333DG     O19 7655   1.509   3.020   1.273 -0.2578  0.3333  0.2042
  333DG     H20 7656   1.679   3.032   1.380 -0.1171 -0.8356 -0.9012
  333DG     H21 7657   1.551   3.138   1.435  2.0627  1.1780 -1.1399
  333DG     H22 7658   1.640   3.115   1.157 -0.0427  2.4953  1.9605
  333DG     H23 7659   1.530   3.217   1.238  3.1137 -1.3962  3.4285
  334DG      C1 7660   1.391   4.145   2.267  0.1749 -0.1564  0.0645
  334DG      C2 7661   1.956   4.527   2.403 -0.6789 -0.1676 -0.2450
  334DG      H3 7662   1.285   4.152   2.291  0.1006 -2.0298  0.4039
  334DG      H4 7663   1.417   4.040   2.258  2.4948  0.3371  0.2163
  334DG      H5 7664   1.402   4.173   2.162 -2.2392 -2.6590 -0.9766
  334DG      H6 7665   1.901   4.604   2.459 -1.4982  0.0702 -1.3470
  334DG      H7 7666   2.059   4.518   2.435 -0.0558  0.7124 -1.8898
  334DG      H8 7667   1.965   4.578   2.307  2.4536  1.0520  0.5697
  334DG      O9 7668   1.478   4.217   2.355 -0.4219 -0.0933 -0.2273
  334DG     O10 7669   1.899   4.396   2.397  0.2607  0.0333  0.2987
  334DG     C11 7670   1.463   4.165   2.487  0.1843 -0.0272  0.2128
  334DG     C12 7671   1.897   4.327   2.521  0.2050  0.8459  0.6970
  334DG     H13 7672   1.495   4.061   2.483  1.2929  0.3286 -0.7447
  334DG     H14 7673   1.359   4.177   2.514 -0.2900  0.7036 -1.7480
  334DG     H15 7674   1.978   4.350   2.590  0.0853  0.2403  1.0518
  334DG     H16 7675   1.908   4.221   2.495  0.5048  1.3719 -1.5374
  334DG     C17 7676   1.538   4.254   2.576 -0.4459 -0.8777 -0.1871
  334DG     C18 7677   1.762   4.336   2.593 -0.1523  0.4619  0.0196
  334DG     O19 7678   1.681   4.234   2.539  0.0981 -0.6443 -0.1244
  334DG     H20 7679   1.515   4.238   2.681 -1.9516  0.2543 -0.3041
  334DG     H21 7680   1.510   4.356   2.548 -0.6039 -0.4790  1.3285
  334DG     H22 7681   1.766   4.320   2.701  0.1607  1.0520  0.0987
  334DG     H23 7682   1.714   4.431   2.567 -0.3389  1.0019  2.1359
  335DG      C1 7683   5.334   2.430   1.330 -0.5795  0.8858  0.7206
  335DG      C2 7684   4.911   2.488   0.676 -0.2540  0.3930 -0.4512
  335DG      H3 7685   5.427   2.441   1.386 -1.4946  2.4153  2.0136
  335DG      H4 7686   5.277   2.348   1.373  0.6835 -0.3756  0.0757
  335DG      H5 7687   5.279   2.523   1.339 -3.4306 -0.6498  0.1650
  335DG      H6 7688   4.987   2.554   0.633 -0.0695 -0.8352 -2.1038
  335DG      H7 7689   4.846   2.463   0.592  1.3787 -0.0587 -1.6386
  335DG      H8 7690   4.848   2.543   0.746 -0.2880 -0.7690  0.4696
  335DG      O9 7691   5.345   2.396   1.195 -0.2802  0.1606  0.1671
  335DG     O10 7692   4.966   2.361   0.728  0.4286 -0.1449 -0.0458
  335DG     C11 7693   5.401   2.499   1.118  0.1714 -0.1622  0.4777
  335DG     C12 7694   5.024   2.370   0.854 -0.2607 -0.4142  0.1983
  335DG     H13 7695   5.509   2.506   1.127  0.4141  0.6806 -2.3623
  335DG     H14 7696   5.359   2.597   1.139  1.3108  0.6417 -0.9211
  335DG     H15 7697   5.035   2.269   0.894 -0.4260 -2.1717 -3.8030
  335DG     H16 7698   4.982   2.439   0.928  1.9216  1.1164  0.0989
  335DG     C17 7699   5.351   2.464   0.976 -0.1872 -0.3646 -0.0221
  335DG     C18 7700   5.170   2.408   0.838  0.4520 -0.1752 -0.2369
  335DG     O19 7701   5.211   2.446   0.967  0.0783  0.5678 -0.1315
  335DG     H20 7702   5.412   2.382   0.937  3.0653  1.1079  1.5589
  335DG     H21 7703   5.397   2.538   0.912  0.0930  0.5600  1.2102
  335DG     H22 7704   5.230   2.326   0.798 -0.1505 -0.0394 -1.4750
  335DG     H23 7705   5.176   2.491   0.767 -3.0013  0.8821  0.5319
  336DG      C1 7706   5.464   5.324   1.379 -0.8894  0.7334  0.8864
  336DG      C2 7707   4.683   5.179   0.993  0.5681  0.3959 -0.2340
  336DG      H3 7708   5.495   5.394   1.302  1.0414 -1.9367 -0.9596
  336DG      H4 7709   5.563   5.295   1.415  1.6266  4.1046 -2.5914
  336DG      H5 7710   5.417   5.365   1.468 -0.9841 -1.0494  1.7103
  336DG      H6 7711   4.664   5.073   0.975 -2.5550  1.0632 -1.5166
  336DG      H7 7712   4.593   5.217   1.041  0.0177 -0.1055 -0.8612
  336DG      H8 7713   4.678   5.221   0.893 -0.8618 -1.1025 -0.8410
  336DG      O9 7714   5.380   5.219   1.329  0.0516  0.2928  0.4944
  336DG     O10 7715   4.802   5.189   1.072  0.0098 -0.1030  0.1060
  336DG     C11 7716   5.262   5.263   1.268 -0.4593 -0.3544  0.1726
  336DG     C12 7717   4.916   5.132   1.013 -0.1181 -0.6394 -0.2573
  336DG     H13 7718   5.298   5.311   1.177  1.4154 -1.1626  0.4423
  336DG     H14 7719   5.206   5.328   1.335 -0.3760 -0.1027 -0.0020
  336DG     H15 7720   4.965   5.205   0.948 -0.9527 -1.1731 -1.5209
  336DG     H16 7721   4.893   5.056   0.939 -0.2869  0.5518 -1.4635
  336DG     C17 7722   5.182   5.133   1.244 -0.4961 -0.3632  0.6189
  336DG     C18 7723   5.020   5.068   1.105  0.3194 -0.7786 -0.2493
  336DG     O19 7724   5.063   5.177   1.181  0.1563  0.6375 -0.4168
  336DG     H20 7725   5.160   5.081   1.337 -1.5310  2.2227  1.9357
  336DG     H21 7726   5.249   5.078   1.179  0.3907 -0.1400  1.3290
  336DG     H22 7727   4.974   4.997   1.174 -2.6912  1.6363  0.4184
  336DG     H23 7728   5.103   5.021   1.052  1.3164 -1.7228  2.0116
  337DG      C1 7729   2.706   4.497   2.043  0.2163 -0.0942  0.0957
  337DG      C2 7730   2.326   4.307   2.486 -0.3463  0.4312 -0.5282
  337DG      H3 7731   2.737   4.576   1.974  0.8960 -0.8727 -0.5140
  337DG      H4 7732   2.763   4.412   2.005  0.8510  0.8409 -1.1302
  337DG      H5 7733   2.746   4.525   2.141  2.0239 -0.2200 -0.5736
  337DG      H6 7734   2.240   4.276   2.546  0.5360 -1.3297 -0.1366
  337DG      H7 7735   2.386   4.218   2.473  1.6909  1.9164 -1.9401
  337DG      H8 7736   2.390   4.373   2.545 -0.6936 -0.1547  0.5402
  337DG      O9 7737   2.560   4.475   2.049  0.4904 -0.2333  0.1518
  337DG     O10 7738   2.281   4.368   2.370 -0.2478  0.0704  0.0454
  337DG     C11 7739   2.486   4.444   1.928  0.7602 -0.4064 -0.2611
  337DG     C12 7740   2.222   4.280   2.284  0.1342  0.2124  0.5388
  337DG     H13 7741   2.508   4.340   1.905 -0.1047 -1.1333  1.9157
  337DG     H14 7742   2.506   4.516   1.849  1.4549 -1.8544 -1.4555
  337DG     H15 7743   2.129   4.240   2.324 -1.7826  3.4313 -0.3754
  337DG     H16 7744   2.292   4.197   2.272  2.1774  1.6071  2.2637
  337DG     C17 7745   2.337   4.441   1.962 -1.3155  1.1240 -0.2067
  337DG     C18 7746   2.202   4.351   2.148 -0.0972 -0.8695  0.1951
  337DG     O19 7747   2.329   4.380   2.093 -0.4530  0.2067 -0.2517
  337DG     H20 7748   2.270   4.399   1.887 -0.6004 -0.7118  0.1166
  337DG     H21 7749   2.304   4.542   1.987 -1.3219  0.7212  1.5511
  337DG     H22 7750   2.152   4.284   2.078  1.4817  0.2504 -2.1314
  337DG     H23 7751   2.138   4.439   2.154 -1.2093 -1.6996  1.1419
  338DG      C1 7752   4.692   4.563   5.233  0.4221  0.4545  0.2858
  338DG      C2 7753   4.810   3.967   5.584  0.0628  0.1561  0.1037
  338DG      H3 7754   4.647   4.534   5.138 -0.2568  3.7295 -0.5283
  338DG      H4 7755   4.756   4.650   5.217 -1.1312  1.5887 -0.0374
  338DG      H5 7756   4.603   4.580   5.294 -1.0468  1.6605 -2.0319
  338DG      H6 7757   4.717   3.997   5.632 -1.7401 -1.5394 -2.0748
  338DG      H7 7758   4.817   3.858   5.588 -0.4803 -0.0022 -1.8095
  338DG      H8 7759   4.898   4.009   5.631 -0.4105  0.6982  0.5090
  338DG      O9 7760   4.767   4.450   5.280 -0.0138 -0.0224 -0.2688
  338DG     O10 7761   4.785   4.022   5.459  0.2402 -0.0001 -0.1274
  338DG     C11 7762   4.881   4.427   5.197 -0.3263 -0.2464 -0.6261
  338DG     C12 7763   4.872   3.992   5.360  0.3571 -0.4791  0.6716
  338DG     H13 7764   4.936   4.520   5.185 -0.8810 -0.1275 -2.5768
  338DG     H14 7765   4.856   4.384   5.100 -2.0920 -0.5652 -0.0618
  338DG     H15 7766   4.822   3.981   5.264  2.2990  0.8706 -0.5712
  338DG     H16 7767   4.924   3.897   5.374  1.8715  0.4295  1.5275
  338DG     C17 7768   4.976   4.330   5.268 -0.0897 -0.3862 -0.2161
  338DG     C18 7769   4.973   4.104   5.339  1.0176  0.3686  0.0756
  338DG     O19 7770   4.896   4.218   5.297  0.0364  0.2891  0.0358
  338DG     H20 7771   5.025   4.376   5.354 -1.5886 -0.2218  0.5885
  338DG     H21 7772   5.054   4.304   5.197 -0.7209 -0.1746 -1.0057
  338DG     H22 7773   5.022   4.131   5.433 -0.8152 -0.3694  1.2981
  338DG     H23 7774   5.036   4.081   5.253 -0.1695  0.4194 -0.8400
  339DG      C1 7775   3.123   3.402   2.264  0.7462 -0.3031  0.0709
  339DG      C2 7776   2.963   2.988   1.620 -0.4752  0.7315  0.4955
  339DG      H3 7777   3.092   3.489   2.206 -0.2475 -1.6753 -1.5723
  339DG      H4 7778   3.198   3.439   2.334 -0.9422  0.1474  1.7123
  339DG      H5 7779   3.040   3.361   2.320  0.7532  0.5010  0.6885
  339DG      H6 7780   2.967   2.888   1.577  1.8789  0.3957  1.4017
  339DG      H7 7781   2.862   3.015   1.653 -0.9632  0.7403 -0.9222
  339DG      H8 7782   2.993   3.042   1.530  0.1608 -1.9842 -1.0403
  339DG      O9 7783   3.169   3.311   2.166 -0.1799 -0.0813 -0.0312
  339DG     O10 7784   3.054   2.994   1.732 -1.0047  0.3475  0.1250
  339DG     C11 7785   3.194   3.179   2.216  0.3380 -0.1524  0.2576
  339DG     C12 7786   3.082   3.121   1.769 -0.2424 -0.4734 -0.1066
  339DG     H13 7787   3.104   3.138   2.260 -1.3310  1.0439 -1.8551
  339DG     H14 7788   3.260   3.190   2.302  0.7646 -0.6249 -0.0019
  339DG     H15 7789   2.994   3.174   1.807 -0.0105 -0.6099  0.6266
  339DG     H16 7790   3.113   3.177   1.681  0.9687  1.9101  1.7034
  339DG     C17 7791   3.241   3.090   2.106 -0.7874 -0.0610 -0.5909
  339DG     C18 7792   3.194   3.129   1.874  0.1983 -0.0760 -0.6093
  339DG     O19 7793   3.145   3.078   1.999  0.3679 -0.0291  0.3849
  339DG     H20 7794   3.259   2.990   2.143 -0.4472  0.3931  0.5125
  339DG     H21 7795   3.331   3.125   2.055 -0.3189  0.1689  0.3651
  339DG     H22 7796   3.277   3.066   1.841 -1.8423 -1.7802 -2.7998
  339DG     H23 7797   3.222   3.232   1.897 -0.5235 -0.2026  0.9142
  340DG      C1 7798   2.312   1.415   1.125  0.2181 -0.1904  0.3124
  340DG      C2 7799   2.390   0.858   1.016  0.2008  0.2336 -0.5647
  340DG      H3 7800   2.304   1.369   1.026  0.8805 -0.3625  0.3333
  340DG      H4 7801   2.336   1.521   1.113  1.0503 -0.4172 -0.0807
  340DG      H5 7802   2.210   1.413   1.162 -0.1357  0.7139 -0.5627
  340DG      H6 7803   2.300   0.819   1.064  1.8152 -2.7155  0.3302
  340DG      H7 7804   2.360   0.896   0.919  2.3115 -0.4099 -1.5179
  340DG      H8 7805   2.464   0.780   0.998 -0.3184 -1.1072  2.4196
  340DG      O9 7806   2.409   1.356   1.210 -0.6326 -0.1657 -0.0489
  340DG     O10 7807   2.456   0.971   1.086  0.2033  0.3581  0.4296
  340DG     C11 7808   2.542   1.388   1.173 -0.0667 -0.2593  0.2232
  340DG     C12 7809   2.594   0.978   1.058 -0.4903  0.4343 -0.3939
  340DG     H13 7810   2.565   1.493   1.194 -0.9615 -0.0076 -0.0219
  340DG     H14 7811   2.541   1.386   1.064  0.3828 -1.0582  0.2249
  340DG     H15 7812   2.616   0.971   0.951 -0.2277 -0.2180 -0.3038
  340DG     H16 7813   2.644   0.897   1.112 -1.1791  0.7696  0.7836
  340DG     C17 7814   2.646   1.307   1.236 -0.5352 -0.3083 -0.3246
  340DG     C18 7815   2.640   1.120   1.080 -0.4554  0.1493  0.1267
  340DG     O19 7816   2.625   1.168   1.217 -0.1553 -0.4801  0.3110
  340DG     H20 7817   2.669   1.322   1.342  0.9390  1.5527 -0.8397
  340DG     H21 7818   2.743   1.338   1.196 -1.4778 -0.0725 -2.5805
  340DG     H22 7819   2.743   1.139   1.050 -0.0724 -1.9897 -0.0874
  340DG     H23 7820   2.590   1.190   1.014  0.7062  1.0903  0.2099
  341DG      C1 7821   2.935   2.167   3.415  0.6677 -0.0830 -0.5939
  341DG      C2 7822   3.500   2.194   4.075  0.1969 -0.1872  0.2765
  341DG      H3 7823   2.996   2.196   3.330  0.9528 -0.2920 -0.4633
  341DG      H4 7824   2.899   2.251   3.475  0.5590 -2.4743  3.0342
  341DG      H5 7825   2.853   2.113   3.369  0.1634 -0.1128  0.3064
  341DG      H6 7826   3.599   2.149   4.086  0.4258  0.7946  2.6512
  341DG      H7 7827   3.503   2.279   4.007 -0.4330 -0.9990 -0.8178
  341DG      H8 7828   3.463   2.228   4.171  0.9150 -1.5158  1.0535
  341DG      O9 7829   3.010   2.076   3.493  0.1318  0.1080  0.6526
  341DG     O10 7830   3.409   2.114   3.999  0.3878  1.0726 -0.2953
  341DG     C11 7831   3.123   2.121   3.557 -0.2405 -0.9406 -0.1670
  341DG     C12 7832   3.464   2.048   3.886  0.4800  0.6613  0.7783
  341DG     H13 7833   3.110   2.223   3.591 -0.6686 -0.6530 -1.1447
  341DG     H14 7834   3.211   2.132   3.493  2.5691 -0.4378  3.4864
  341DG     H15 7835   3.547   1.988   3.922  1.4333  0.7013 -1.2291
  341DG     H16 7836   3.516   2.119   3.821 -1.2087  1.2711  0.0304
  341DG     C17 7837   3.158   2.038   3.684  0.3730  0.1796 -0.3163
  341DG     C18 7838   3.342   1.979   3.816  0.0613 -0.4081 -0.2107
  341DG     O19 7839   3.279   2.084   3.740 -0.5391  0.1863  0.4818
  341DG     H20 7840   3.162   1.931   3.667  1.6544  0.1871 -0.1258
  341DG     H21 7841   3.075   2.050   3.753  0.3957 -2.0957  0.1833
  341DG     H22 7842   3.377   1.904   3.745 -0.4524 -0.7310 -0.1283
  341DG     H23 7843   3.276   1.941   3.894 -2.0156  2.5857 -0.3314
  342DG      C1 7844   4.968   2.401  -0.099 -0.1381  0.1153 -0.2128
  342DG      C2 7845   4.944   2.726   0.272  0.8907  0.0559 -0.3075
  342DG      H3 7846   4.912   2.459  -0.173 -1.8178 -0.6358  0.4251
  342DG      H4 7847   5.076   2.394  -0.115 -0.1010 -1.2153  0.4546
  342DG      H5 7848   4.958   2.451  -0.003 -0.9867  2.3207 -1.3706
  342DG      H6 7849   5.050   2.742   0.255  0.4908  1.2851 -1.8299
  342DG      H7 7850   4.893   2.818   0.246 -1.1011 -0.7892  0.3206
  342DG      H8 7851   4.922   2.716   0.379 -2.1908 -1.6592 -0.9650
  342DG      O9 7852   4.920   2.269  -0.092  0.1106  0.4834  0.1202
  342DG     O10 7853   4.893   2.605   0.220  0.0578 -0.5699 -0.4494
  342DG     C11 7854   4.777   2.253  -0.081  0.0576 -0.3964 -0.4916
  342DG     C12 7855   4.753   2.612   0.235 -0.2611  0.5211 -0.2733
  342DG     H13 7856   4.766   2.145  -0.085  0.2029 -0.4671  0.7181
  342DG     H14 7857   4.721   2.293  -0.166  1.0224  1.2471 -0.3882
  342DG     H15 7858   4.720   2.703   0.184 -1.0978  0.2661 -0.1999
  342DG     H16 7859   4.727   2.628   0.340 -1.6281 -0.7475 -0.3798
  342DG     C17 7860   4.716   2.302   0.054  0.0438  0.3797  0.0411
  342DG     C18 7861   4.684   2.489   0.191 -0.6829 -0.6794  0.3031
  342DG     O19 7862   4.728   2.439   0.065  0.2952  0.2609 -0.2301
  342DG     H20 7863   4.776   2.261   0.135 -1.2102  1.2031  1.4255
  342DG     H21 7864   4.612   2.271   0.060 -0.0368  0.4214 -0.8887
  342DG     H22 7865   4.698   2.411   0.267 -1.4090 -0.6062  0.5162
  342DG     H23 7866   4.580   2.512   0.170 -1.1635 -0.7824  2.3680
  343DG      C1 7867   1.136   1.219   0.487  0.3571  1.3343  0.6658
  343DG      C2 7868   1.398   0.513   0.446  0.1292 -0.4384 -0.3838
  343DG      H3 7869   1.060   1.258   0.420 -1.5981 -1.9492  0.7546
  343DG      H4 7870   1.228   1.196   0.434 -0.3040 -0.5432  0.2581
  343DG      H5 7871   1.151   1.290   0.569  0.0983 -0.2759  2.1633
  343DG      H6 7872   1.444   0.433   0.504 -0.4887 -0.6008 -0.1022
  343DG      H7 7873   1.345   0.461   0.366  0.1112  1.0205 -1.3412
  343DG      H8 7874   1.485   0.562   0.404  0.3302  0.7412  1.3166
  343DG      O9 7875   1.084   1.097   0.542  0.1462  0.0121 -0.7103
  343DG     O10 7876   1.318   0.592   0.537 -0.6107  0.5618  0.3763
  343DG     C11 7877   1.173   1.051   0.636 -0.0405  0.3251  0.0286
  343DG     C12 7878   1.178   0.580   0.528 -0.1074 -0.6010  0.1419
  343DG     H13 7879   1.172   1.110   0.728  1.5537 -0.9536  0.9081
  343DG     H14 7880   1.276   1.051   0.601  0.0845  2.6157  0.2075
  343DG     H15 7881   1.143   0.481   0.556  0.9511 -1.0409 -0.0404
  343DG     H16 7882   1.143   0.607   0.428 -0.9101  0.0368  0.5773
  343DG     C17 7883   1.127   0.904   0.682  0.1856 -0.6454 -0.5082
  343DG     C18 7884   1.104   0.678   0.620  0.0199  0.1144  0.2072
  343DG     O19 7885   1.150   0.812   0.580  0.0369  0.0478  0.5575
  343DG     H20 7886   1.022   0.906   0.709 -0.1559 -1.4780 -1.7075
  343DG     H21 7887   1.189   0.897   0.772  1.7075 -0.6365 -1.5065
  343DG     H22 7888   0.997   0.669   0.605  0.0344 -0.4515  0.4193
  343DG     H23 7889   1.140   0.660   0.721  0.6949  1.2963  0.1897
  344DG      C1 7890   0.458   2.096   4.286 -0.0254 -0.5372  0.3578
  344DG      C2 7891   0.558   1.518   4.007  0.2116  0.0189  0.0274
  344DG      H3 7892   0.419   2.197   4.281  2.7760  0.5956 -2.6451
  344DG      H4 7893   0.563   2.106   4.256 -0.0329 -1.2950  0.0389
  344DG      H5 7894   0.449   2.054   4.386  1.6733  2.0827  1.7180
  344DG      H6 7895   0.570   1.444   3.928 -1.5989 -1.9960  1.5028
  344DG      H7 7896   0.583   1.469   4.101  1.3859  0.0255 -0.2748
  344DG      H8 7897   0.451   1.540   3.999  0.2193  0.2417  0.5147
  344DG      O9 7898   0.386   2.018   4.189 -0.5574  0.4972  0.1280
  344DG     O10 7899   0.642   1.637   3.987  0.1273 -0.0514  0.5802
  344DG     C11 7900   0.401   2.072   4.061 -0.3850 -0.2903  0.3980
  344DG     C12 7901   0.621   1.696   3.859  0.2716  0.0211 -0.0791
  344DG     H13 7902   0.500   2.114   4.041 -0.2885  0.2071  1.7784
  344DG     H14 7903   0.332   2.157   4.058  0.2867  0.3047  1.4209
  344DG     H15 7904   0.619   1.630   3.772 -0.4611 -0.7744  0.5211
  344DG     H16 7905   0.702   1.765   3.838  1.7782 -1.6764 -0.0748
  344DG     C17 7906   0.378   1.967   3.951 -0.3823  0.6485 -0.1906
  344DG     C18 7907   0.492   1.775   3.856  0.7670 -0.3941  0.1231
  344DG     O19 7908   0.486   1.871   3.959  0.2680 -0.0213 -0.1533
  344DG     H20 7909   0.388   2.017   3.855 -0.6712 -1.0162 -1.1361
  344DG     H21 7910   0.278   1.923   3.953 -0.8716  1.7186 -0.3677
  344DG     H22 7911   0.463   1.826   3.764 -1.8108 -1.7684  0.0782
  344DG     H23 7912   0.415   1.700   3.876  0.6554 -0.3840 -0.2656
  345DG      C1 7913   2.710   4.720   4.742  0.1698  0.2678  0.4423
  345DG      C2 7914   2.764   4.032   4.463 -0.4522  0.3976  0.2476
  345DG      H3 7915   2.667   4.820   4.742 -0.5616  0.0203  3.1301
  345DG      H4 7916   2.804   4.722   4.687 -0.9042 -1.1249 -1.6100
  345DG      H5 7917   2.732   4.692   4.845 -0.6209  1.6254  1.0159
  345DG      H6 7918   2.780   4.136   4.433  1.3073 -0.0767 -0.6077
  345DG      H7 7919   2.844   3.992   4.524  2.7604 -0.7589 -4.1936
  345DG      H8 7920   2.777   3.976   4.370  1.0184 -0.8926  1.2043
  345DG      O9 7921   2.623   4.623   4.683  0.1866  0.0742  0.3655
  345DG     O10 7922   2.639   3.998   4.515  0.3868  0.2726 -0.1997
  345DG     C11 7923   2.677   4.495   4.673  0.4935  0.1579  0.1409
  345DG     C12 7924   2.619   4.058   4.642 -0.0004 -0.3736 -0.1892
  345DG     H13 7925   2.646   4.433   4.758 -1.9794 -0.3443 -1.0537
  345DG     H14 7926   2.785   4.489   4.662  0.6207  1.8922  0.1519
  345DG     H15 7927   2.714   4.044   4.694  0.5789 -1.6156 -1.5201
  345DG     H16 7928   2.536   4.006   4.690  0.6111  1.0819  2.6732
  345DG     C17 7929   2.612   4.426   4.552 -0.1092 -0.7292  0.2843
  345DG     C18 7930   2.578   4.209   4.639  0.6816  0.5753 -0.4079
  345DG     O19 7931   2.655   4.296   4.550 -0.3732 -0.4790  0.2710
  345DG     H20 7932   2.651   4.473   4.462 -0.2326  1.1927  1.1635
  345DG     H21 7933   2.504   4.441   4.555 -0.0046 -0.0877  1.3326
  345DG     H22 7934   2.475   4.219   4.604  0.8096 -1.7179 -1.6866
  345DG     H23 7935   2.590   4.241   4.742  0.8873  2.7891 -1.0784
  346DG      C1 7936   2.207   1.698   0.397 -0.3635 -0.1059  0.3324
  346DG      C2 7937   2.731   2.152   0.234  0.6020 -0.4449 -0.1227
  346DG      H3 7938   2.175   1.606   0.349  0.7256  0.6537 -1.9669
  346DG      H4 7939   2.122   1.743   0.448 -1.2123 -0.5787 -0.6263
  346DG      H5 7940   2.275   1.664   0.475 -0.9254  1.5467  1.6074
  346DG      H6 7941   2.758   2.213   0.148 -0.3106 -1.0283 -0.8496
  346DG      H7 7942   2.736   2.201   0.331 -0.9082  0.2101 -0.3396
  346DG      H8 7943   2.792   2.062   0.227 -1.6458 -2.0162 -0.5425
  346DG      O9 7944   2.267   1.780   0.305  0.0889 -0.6093 -0.3066
  346DG     O10 7945   2.605   2.093   0.232 -0.6043 -0.7694  0.0847
  346DG     C11 7946   2.178   1.850   0.217  0.2272 -0.5276  0.4941
  346DG     C12 7947   2.512   2.201   0.232 -0.8905  0.1378  0.0648
  346DG     H13 7948   2.099   1.898   0.275  1.1506  1.8018 -0.0763
  346DG     H14 7949   2.138   1.777   0.147 -1.1967  2.1168 -1.6160
  346DG     H15 7950   2.547   2.286   0.173 -1.2026  0.2494  0.0373
  346DG     H16 7951   2.502   2.236   0.335  0.3561  0.0721  0.2329
  346DG     C17 7952   2.250   1.967   0.148  0.7987  0.0998  0.4090
  346DG     C18 7953   2.382   2.159   0.162 -0.6111 -0.1511 -0.1600
  346DG     O19 7954   2.334   2.046   0.238 -0.2309 -0.4368 -0.1145
  346DG     H20 7955   2.166   2.018   0.101 -0.0705 -0.5279  1.2469
  346DG     H21 7956   2.308   1.917   0.071  0.0017 -0.9276  0.4581
  346DG     H22 7957   2.316   2.245   0.154 -1.5012 -0.8981 -1.0395
  346DG     H23 7958   2.392   2.153   0.054 -3.0048 -0.8703 -0.4051
  347DG      C1 7959   3.976   1.233   4.983  0.4909  0.3757  0.5765
  347DG      C2 7960   4.126   1.072   5.580 -0.1821 -0.0986 -0.5607
  347DG      H3 7961   3.952   1.314   4.914  0.7832  0.5613  0.6926
  347DG      H4 7962   3.882   1.192   5.020 -0.1681  0.7449 -0.6289
  347DG      H5 7963   4.034   1.160   4.927  1.5209 -0.1955  2.2980
  347DG      H6 7964   4.162   1.090   5.681 -0.8151  0.3321 -0.4119
  347DG      H7 7965   4.021   1.070   5.610 -0.1178  2.0883 -0.1044
  347DG      H8 7966   4.163   0.977   5.540  0.4805 -0.5586  1.0912
  347DG      O9 7967   4.036   1.291   5.097  0.0851  1.0963  0.1916
  347DG     O10 7968   4.159   1.195   5.504 -0.6165  0.2750 -0.4103
  347DG     C11 7969   4.153   1.358   5.048 -0.1164 -0.2622  0.3638
  347DG     C12 7970   4.295   1.208   5.477 -0.0770 -0.1740 -0.2780
  347DG     H13 7971   4.129   1.442   4.983  1.2516  1.1042  1.5364
  347DG     H14 7972   4.220   1.300   4.985 -0.0759  0.4348 -0.2509
  347DG     H15 7973   4.335   1.122   5.424  0.6224  0.5100 -0.8983
  347DG     H16 7974   4.353   1.222   5.569  2.0951  1.1498 -1.7449
  347DG     C17 7975   4.227   1.408   5.174  0.2054 -0.1189  0.0380
  347DG     C18 7976   4.304   1.328   5.373  0.1217  0.7684 -0.2739
  347DG     O19 7977   4.240   1.303   5.261 -0.3206  0.8806  0.3848
  347DG     H20 7978   4.171   1.482   5.230  1.8194  1.0157  0.2208
  347DG     H21 7979   4.326   1.451   5.158  0.7194 -0.0067  2.9573
  347DG     H22 7980   4.253   1.414   5.415  0.7996  1.2670 -0.4572
  347DG     H23 7981   4.403   1.369   5.357 -0.6469  2.3655 -1.0906
  348DG      C1 7982   1.809   1.146   1.806  0.2720  0.7353  0.6171
  348DG      C2 7983   1.243   0.965   2.430  0.7776  0.4943 -0.7666
  348DG      H3 7984   1.911   1.161   1.770 -0.1841  2.0897 -0.1893
  348DG      H4 7985   1.744   1.214   1.751  0.9779  1.9695  1.2802
  348DG      H5 7986   1.782   1.051   1.761  0.6290  0.8371  0.1820
  348DG      H6 7987   1.176   0.938   2.349 -1.6833  0.0242  1.3011
  348DG      H7 7988   1.229   0.901   2.517 -0.1124 -1.2118 -2.0977
  348DG      H8 7989   1.206   1.065   2.454 -1.1725 -0.4535  0.3922
  348DG      O9 7990   1.794   1.157   1.944  0.0811  0.3183 -0.6972
  348DG     O10 7991   1.381   0.960   2.389  0.4061 -0.5225  0.0576
  348DG     C11 7992   1.670   1.110   2.001 -0.0852 -0.2279  0.1183
  348DG     C12 7993   1.454   1.073   2.434  0.6523  0.2832 -0.1251
  348DG     H13 7994   1.654   1.009   1.963  0.5807 -0.4648  0.4643
  348DG     H14 7995   1.579   1.169   1.989  0.8045  1.7142  2.2118
  348DG     H15 7996   1.484   1.076   2.539  0.1775 -2.3033  0.1617
  348DG     H16 7997   1.399   1.167   2.428  0.5005  0.1753 -0.4523
  348DG     C17 7998   1.697   1.104   2.155  0.0121 -0.1114 -0.1951
  348DG     C18 7999   1.592   1.087   2.364 -1.0135  0.2012  0.1108
  348DG     O19 8000   1.580   1.078   2.221  0.0200  0.5568 -0.4153
  348DG     H20 8001   1.722   1.207   2.182  0.9539  0.0355 -1.5444
  348DG     H21 8002   1.779   1.040   2.187  1.7561  2.1707  0.2073
  348DG     H22 8003   1.631   1.182   2.403  0.5591  0.0122 -0.9480
  348DG     H23 8004   1.657   1.010   2.405  0.3114  1.4163  0.4217
  349DG      C1 8005   4.689   4.407   4.397 -0.0625 -0.1649 -0.2330
  349DG      C2 8006   4.540   4.752   3.891 -0.7978 -0.6418  0.2829
  349DG      H3 8007   4.597   4.357   4.429 -1.8935  2.1829 -1.5044
  349DG      H4 8008   4.754   4.401   4.484 -0.3941 -1.7941 -0.0683
  349DG      H5 8009   4.728   4.352   4.311 -1.6287 -1.5896 -0.0912
  349DG      H6 8010   4.432   4.764   3.878 -0.9257 -1.0626  0.9253
  349DG      H7 8011   4.595   4.705   3.809  2.6600 -0.6461  2.3963
  349DG      H8 8012   4.541   4.672   3.965 -3.0509  0.4634  1.6346
  349DG      O9 8013   4.654   4.543   4.382  0.2156 -0.3669 -0.0504
  349DG     O10 8014   4.606   4.869   3.939 -0.3795  0.0767 -0.1797
  349DG     C11 8015   4.536   4.568   4.311  0.3137  0.0562  0.1765
  349DG     C12 8016   4.537   4.929   4.043 -0.5196 -0.0084  0.5044
  349DG     H13 8017   4.454   4.544   4.379  2.1701  0.9462  2.9195
  349DG     H14 8018   4.534   4.498   4.228  1.7137  0.6304 -0.3783
  349DG     H15 8019   4.436   4.894   4.066 -1.6221  2.2922 -0.4516
  349DG     H16 8020   4.507   5.031   4.017 -0.3743 -0.1988 -0.4543
  349DG     C17 8021   4.518   4.717   4.269 -0.4082 -0.1493 -0.0480
  349DG     C18 8022   4.620   4.909   4.174  0.3443  0.7043 -0.1369
  349DG     O19 8023   4.640   4.780   4.225 -0.0266 -0.1466  0.1459
  349DG     H20 8024   4.482   4.775   4.354 -0.2723 -0.7040  0.3986
  349DG     H21 8025   4.437   4.710   4.197 -0.4085 -0.7500  0.0077
  349DG     H22 8026   4.723   4.940   4.159  0.6165  0.5112  1.2628
  349DG     H23 8027   4.574   4.967   4.254  1.3788 -0.6540  1.4807
  350DG      C1 8028   1.810   2.263   2.273 -0.4423 -0.9829 -0.3291
  350DG      C2 8029   1.379   1.791   1.966  0.2209 -0.0644  0.1892
  350DG      H3 8030   1.902   2.321   2.265 -0.8463 -0.1235  0.9362
  350DG      H4 8031   1.829   2.199   2.359  2.0789 -0.2571 -0.2636
  350DG      H5 8032   1.724   2.326   2.298 -1.2902 -2.1850 -0.1509
  350DG      H6 8033   1.311   1.775   1.882  1.9268 -1.6083 -0.9749
  350DG      H7 8034   1.441   1.702   1.982 -0.1793 -0.1718  1.2220
  350DG      H8 8035   1.310   1.800   2.050 -1.5354 -3.5964 -0.6604
  350DG      O9 8036   1.803   2.186   2.153 -0.1242 -1.0607  0.2122
  350DG     O10 8037   1.468   1.901   1.953  0.4211  0.0716  0.4156
  350DG     C11 8038   1.777   2.268   2.037 -0.2968 -0.1005  0.1712
  350DG     C12 8039   1.579   1.868   1.870 -0.2248 -0.8710  0.6817
  350DG     H13 8040   1.841   2.353   2.016 -1.1398  0.6835  0.7170
  350DG     H14 8041   1.675   2.304   2.050 -0.2751  0.1313 -0.2754
  350DG     H15 8042   1.556   1.816   1.777  2.0500  1.5977 -1.4405
  350DG     H16 8043   1.648   1.799   1.919  1.3956 -2.4759 -3.4044
  350DG     C17 8044   1.784   2.180   1.909 -0.1515 -0.0507 -0.0335
  350DG     C18 8045   1.648   2.005   1.831 -0.9822 -0.4756  0.5542
  350DG     O19 8046   1.699   2.071   1.941  0.2551  0.1140 -0.2689
  350DG     H20 8047   1.888   2.165   1.883  0.5881  3.3684  0.4807
  350DG     H21 8048   1.747   2.241   1.827  1.6298 -0.5621 -1.2623
  350DG     H22 8049   1.729   1.974   1.765 -0.4998  2.3052 -0.2754
  350DG     H23 8050   1.582   2.069   1.773 -1.2855 -0.4110  0.9618
  351DG      C1 8051   0.095   2.512   2.413  0.1363  0.3033  0.6326
  351DG      C2 8052   0.013   3.339   2.266 -0.6929 -0.3774 -0.3480
  351DG      H3 8053  -0.009   2.487   2.392 -0.0941  0.1877  1.8788
  351DG      H4 8054   0.136   2.445   2.489  1.3933  1.5976  1.1469
  351DG      H5 8055   0.136   2.496   2.313  1.1596  0.2228  1.0542
  351DG      H6 8056   0.032   3.288   2.172  1.0096 -0.3972 -0.0160
  351DG      H7 8057  -0.095   3.352   2.265 -0.5686  0.8625  0.4805
  351DG      H8 8058   0.037   3.444   2.283 -2.5644  0.1644 -0.8028
  351DG      O9 8059   0.101   2.648   2.450 -0.0497  0.0484  0.0412
  351DG     O10 8060   0.059   3.257   2.377  0.6711 -0.2189 -0.0103
  351DG     C11 8061   0.233   2.687   2.489 -0.6383  0.1811 -0.2362
  351DG     C12 8062   0.063   3.118   2.349  0.0974 -0.6738 -0.1289
  351DG     H13 8063   0.308   2.679   2.410 -1.0265 -0.0980 -0.5810
  351DG     H14 8064   0.268   2.623   2.569 -0.4163  0.0160 -0.4628
  351DG     H15 8065   0.119   3.093   2.259  0.3252 -0.7948  0.0436
  351DG     H16 8066  -0.039   3.087   2.332 -0.2703  0.3313  0.1368
  351DG     C17 8067   0.221   2.833   2.530  0.1912 -0.6293  0.1022
  351DG     C18 8068   0.122   3.045   2.467 -0.3287 -0.1140 -0.3121
  351DG     O19 8069   0.169   2.916   2.425 -0.4053 -0.0818 -0.0535
  351DG     H20 8070   0.313   2.872   2.573  0.7170 -0.9473 -0.7326
  351DG     H21 8071   0.137   2.838   2.600 -1.2694  2.1120 -1.6486
  351DG     H22 8072   0.204   3.108   2.504 -3.2154  3.6212  0.4086
  351DG     H23 8073   0.047   3.026   2.544  2.2024 -0.5645  2.2403
  352DG      C1 8074   5.153   0.534   3.841  0.5202 -0.1419  0.6499
  352DG      C2 8075   5.046  -0.115   4.182 -0.4416 -0.4281 -0.3245
  352DG      H3 8076   5.065   0.595   3.861 -0.7292 -1.8700  0.6338
  352DG      H4 8077   5.090   0.459   3.793  0.0148  1.7390 -1.8566
  352DG      H5 8078   5.226   0.571   3.769  0.9366  0.0187  1.1510
  352DG      H6 8079   5.001  -0.099   4.280 -1.9217 -1.7689 -0.7431
  352DG      H7 8080   4.981  -0.189   4.137 -0.4426 -1.0745  0.7085
  352DG      H8 8081   5.141  -0.154   4.218  0.1734  1.7863  0.6241
  352DG      O9 8082   5.200   0.515   3.973  0.1564 -0.3660  0.6147
  352DG     O10 8083   5.069   0.004   4.111  0.4855 -0.1495  0.1531
  352DG     C11 8084   5.304   0.409   3.988 -0.2873 -0.6342 -0.4055
  352DG     C12 8085   5.133   0.110   4.184  0.6202  0.0453 -0.1340
  352DG     H13 8086   5.333   0.405   4.093 -1.1673 -0.1281 -0.1344
  352DG     H14 8087   5.386   0.438   3.922 -0.6352 -3.2505 -2.1078
  352DG     H15 8088   5.241   0.095   4.181  0.8337  1.3404  0.2097
  352DG     H16 8089   5.104   0.112   4.289 -1.2964  1.5364 -0.6399
  352DG     C17 8090   5.258   0.273   3.951 -0.3715  0.0710  0.2976
  352DG     C18 8091   5.097   0.241   4.129  0.4637 -0.1457 -0.3983
  352DG     O19 8092   5.124   0.255   3.989 -0.5289 -0.3914 -0.1666
  352DG     H20 8093   5.313   0.187   3.990 -2.5775 -1.6986 -0.2335
  352DG     H21 8094   5.244   0.274   3.843 -0.3839  3.0956  0.2302
  352DG     H22 8095   4.989   0.243   4.143  0.1281 -1.3564 -2.5431
  352DG     H23 8096   5.137   0.319   4.195 -0.6081 -0.8849  1.1966
  353DG      C1 8097   2.218   2.213   1.228  0.2396 -0.0742  0.4622
  353DG      C2 8098   2.112   2.835   0.774 -0.2367  0.0827 -0.6140
  353DG      H3 8099   2.173   2.114   1.237 -0.3976  0.1214 -0.3796
  353DG      H4 8100   2.210   2.256   1.327  2.3456  0.5697  0.3935
  353DG      H5 8101   2.324   2.201   1.206  0.2576  0.6972  0.0935
  353DG      H6 8102   2.196   2.888   0.819 -0.6114 -1.2408  1.8068
  353DG      H7 8103   2.077   2.885   0.684 -0.4583  1.2604  0.1122
  353DG      H8 8104   2.037   2.823   0.852  0.0017  0.8590 -0.2565
  353DG      O9 8105   2.166   2.281   1.122  0.2101  0.3716  0.0050
  353DG     O10 8106   2.151   2.702   0.747 -0.2211  0.2487  0.4482
  353DG     C11 8107   2.194   2.220   0.997  0.0318 -0.2084  0.1236
  353DG     C12 8108   2.246   2.645   0.840  0.5675  0.3223  0.2513
  353DG     H13 8109   2.153   2.119   0.986 -1.0137  0.2483 -0.2677
  353DG     H14 8110   2.299   2.227   0.967 -1.1073  2.7384 -4.0285
  353DG     H15 8111   2.224   2.672   0.943  1.6032 -0.3753  0.6717
  353DG     H16 8112   2.346   2.678   0.810 -0.2099 -0.2768 -3.4339
  353DG     C17 8113   2.117   2.301   0.889 -0.4679  0.5827  0.0756
  353DG     C18 8114   2.250   2.491   0.840  0.4675  0.0133 -1.0603
  353DG     O19 8115   2.127   2.440   0.897  0.7476 -0.3028 -0.0867
  353DG     H20 8116   2.009   2.284   0.897 -0.2517 -1.0919 -0.1098
  353DG     H21 8117   2.149   2.262   0.792 -1.3091 -2.5308  0.9160
  353DG     H22 8118   2.277   2.444   0.745  0.1436 -4.2093  0.7137
  353DG     H23 8119   2.328   2.470   0.913  0.7558  0.9809 -1.0828
  354DG      C1 8120   0.017   4.409   4.109  0.0851 -0.1879 -0.0412
  354DG      C2 8121   0.957   4.391   4.114  0.5624 -0.1960 -0.2869
  354DG      H3 8122  -0.075   4.380   4.059 -0.5476 -0.2791  1.1321
  354DG      H4 8123   0.019   4.518   4.103 -1.0431 -0.2006 -0.9308
  354DG      H5 8124  -0.010   4.381   4.211  0.1155  2.1867  0.6691
  354DG      H6 8125   0.982   4.405   4.219 -1.1929  0.8931  0.0352
  354DG      H7 8126   1.040   4.339   4.066  1.3148 -0.3812  1.1685
  354DG      H8 8127   0.948   4.492   4.075  1.7437  0.7250  1.6641
  354DG      O9 8128   0.132   4.340   4.069 -0.2375 -0.1067 -0.0594
  354DG     O10 8129   0.835   4.320   4.087  0.1942 -0.3196 -0.1160
  354DG     C11 8130   0.251   4.380   4.144 -0.1790  0.3321 -0.1970
  354DG     C12 8131   0.721   4.370   4.145  0.1926 -1.2089 -0.5563
  354DG     H13 8132   0.244   4.382   4.253 -0.0801  1.7142 -0.1922
  354DG     H14 8133   0.285   4.480   4.118 -0.3538 -0.3018 -3.2599
  354DG     H15 8134   0.709   4.475   4.119  1.9882 -0.8604 -0.0847
  354DG     H16 8135   0.724   4.366   4.254  2.4484 -0.0305 -0.5226
  354DG     C17 8136   0.363   4.284   4.095 -0.8249 -0.2803  0.2561
  354DG     C18 8137   0.606   4.290   4.094  0.9030  0.5280 -0.0663
  354DG     O19 8138   0.483   4.346   4.148 -0.0331 -0.0416  0.2878
  354DG     H20 8139   0.369   4.284   3.987  1.0059 -1.9924  0.2955
  354DG     H21 8140   0.349   4.184   4.136 -0.2182 -0.1721  0.7376
  354DG     H22 8141   0.607   4.271   3.987 -1.8111 -1.8147  0.2210
  354DG     H23 8142   0.617   4.194   4.146  1.5994  1.4544  1.5723
  355DG      C1 8143   3.898   1.495   4.133 -0.3769 -0.0720 -0.7281
  355DG      C2 8144   4.203   2.012   4.159  0.1367 -0.4958  0.3398
  355DG      H3 8145   3.979   1.544   4.187  0.2248 -1.8461  0.0469
  355DG      H4 8146   3.936   1.470   4.034 -2.5318  1.1999 -1.9576
  355DG      H5 8147   3.879   1.405   4.191 -0.4295  0.3350 -0.1064
  355DG      H6 8148   4.256   2.062   4.239  1.0371 -0.0223 -0.5222
  355DG      H7 8149   4.256   1.917   4.154 -1.0652 -1.1398 -1.3076
  355DG      H8 8150   4.213   2.076   4.071 -3.0608 -0.3504 -0.0537
  355DG      O9 8151   3.784   1.583   4.130 -0.3450  0.0922  0.0499
  355DG     O10 8152   4.068   2.001   4.193  0.7715 -0.5416  0.1502
  355DG     C11 8153   3.743   1.623   4.257  0.2323  0.3050  0.1895
  355DG     C12 8154   4.000   1.937   4.085  0.5373 -0.4207 -0.4400
  355DG     H13 8155   3.818   1.595   4.331  0.1514 -0.4502 -0.0006
  355DG     H14 8156   3.659   1.561   4.286  0.6246 -1.1266 -1.5104
  355DG     H15 8157   4.041   1.839   4.060 -0.9118 -0.7579 -1.6822
  355DG     H16 8158   4.000   1.988   3.988  3.3198  1.8856  0.6160
  355DG     C17 8159   3.709   1.777   4.264  0.0670 -0.2482  0.1098
  355DG     C18 8160   3.851   1.921   4.123 -0.1071 -0.1664 -0.5652
  355DG     O19 8161   3.841   1.836   4.236 -0.0984  0.0812 -0.1728
  355DG     H20 8162   3.671   1.795   4.365  0.5520 -2.0228  0.6347
  355DG     H21 8163   3.632   1.801   4.191  1.6508 -2.0684 -2.3211
  355DG     H22 8164   3.804   2.018   4.143 -2.1269 -1.3206  0.6734
  355DG     H23 8165   3.788   1.879   4.045 -0.2284  0.4217 -0.7908
  356DG      C1 8166   3.926   3.849   0.893  0.6194 -0.3583 -0.4675
  356DG      C2 8167   4.447   3.850   0.928  0.4066 -0.3386  0.1075
  356DG      H3 8168   3.875   3.754   0.874  1.2259 -0.8016  0.0952
  356DG      H4 8169   3.971   3.888   0.801  2.1297 -0.9720 -0.0116
  356DG      H5 8170   3.859   3.912   0.952 -0.1715 -3.1723  1.8527
  356DG      H6 8171   4.386   3.930   0.969  0.3307  0.1384 -0.9191
  356DG      H7 8172   4.551   3.878   0.911  0.7388 -0.2645  2.0524
  356DG      H8 8173   4.408   3.819   0.831  1.0895 -0.2244 -0.2130
  356DG      O9 8174   4.033   3.819   0.978  0.2701 -0.2333 -0.0210
  356DG     O10 8175   4.438   3.720   0.987  0.1700 -0.1821 -0.6643
  356DG     C11 8176   3.982   3.757   1.098 -0.1551  0.1382 -0.4064
  356DG     C12 8177   4.452   3.722   1.127  0.0690  0.8803 -0.2857
  356DG     H13 8178   3.957   3.653   1.079 -0.5281  0.3582 -1.1356
  356DG     H14 8179   3.892   3.807   1.133  1.1764  1.6613  1.0156
  356DG     H15 8180   4.543   3.772   1.159 -0.3263  0.7896  1.0203
  356DG     H16 8181   4.463   3.616   1.150 -1.6255  0.0536 -2.8578
  356DG     C17 8182   4.091   3.767   1.204  0.2839 -0.2681  0.1212
  356DG     C18 8183   4.330   3.789   1.201  0.1448 -0.4095 -0.2889
  356DG     O19 8184   4.210   3.742   1.132 -0.9169 -0.0744 -0.4041
  356DG     H20 8185   4.075   3.708   1.294  3.2687  0.4639  1.2616
  356DG     H21 8186   4.091   3.871   1.236 -0.1293  0.1503 -1.1772
  356DG     H22 8187   4.328   3.777   1.309 -3.6059 -1.5138 -0.3362
  356DG     H23 8188   4.337   3.898   1.194  0.1540 -0.3565  0.5202
  357DG      C1 8189   1.399   5.295   0.131 -0.3791  0.6034  0.0623
  357DG      C2 8190   1.994   4.816   0.263 -0.1463 -0.2595 -0.3206
  357DG      H3 8191   1.303   5.318   0.177 -0.0970  2.9693 -0.3843
  357DG      H4 8192   1.404   5.324   0.026  1.4024 -1.8503 -0.6109
  357DG      H5 8193   1.477   5.349   0.185  1.1758 -0.2356 -1.2429
  357DG      H6 8194   2.010   4.860   0.165 -0.8185  2.2483  0.6245
  357DG      H7 8195   2.057   4.869   0.334 -0.9855 -2.3491  2.1576
  357DG      H8 8196   2.032   4.714   0.258  2.4585  0.6041  0.1663
  357DG      O9 8197   1.433   5.156   0.141 -0.5829  0.2647  0.2302
  357DG     O10 8198   1.857   4.810   0.294  0.1127 -0.3698  0.2143
  357DG     C11 8199   1.449   5.112   0.274  0.0422  0.2901  0.9366
  357DG     C12 8200   1.766   4.761   0.198 -0.2214  0.1917  0.0092
  357DG     H13 8201   1.358   5.139   0.327 -1.5175 -0.3106 -1.2874
  357DG     H14 8202   1.517   5.182   0.322 -1.7246  1.9054  1.1837
  357DG     H15 8203   1.773   4.655   0.177  0.8566 -0.2116  2.1895
  357DG     H16 8204   1.783   4.802   0.098 -1.4094  1.6694  0.3708
  357DG     C17 8205   1.464   4.962   0.294  0.3800  0.5051 -0.2938
  357DG     C18 8206   1.624   4.793   0.251 -0.7596 -0.2745  0.4068
  357DG     O19 8207   1.582   4.928   0.220  0.2029 -0.5344 -0.1289
  357DG     H20 8208   1.376   4.913   0.253 -0.0024  1.0161 -0.0881
  357DG     H21 8209   1.475   4.942   0.401 -0.3212 -0.1595 -0.3331
  357DG     H22 8210   1.546   4.731   0.207 -0.9749 -0.5430  1.1479
  357DG     H23 8211   1.622   4.783   0.360  0.1265 -0.1200  0.4419
  358DG      C1 8212   3.490   2.162   1.629 -0.4489  0.3167  0.0594
  358DG      C2 8213   3.009   2.126   1.138 -0.7820  0.4191  0.4654
  358DG      H3 8214   3.505   2.211   1.725 -0.3415 -2.9329  1.8554
  358DG      H4 8215   3.559   2.210   1.560 -1.9986 -0.0691 -1.8586
  358DG      H5 8216   3.521   2.057   1.639 -0.1484  0.3816 -0.1568
  358DG      H6 8217   3.013   2.234   1.127 -1.3635  0.3362 -0.7811
  358DG      H7 8218   3.112   2.102   1.112 -1.6019 -1.5928 -1.2797
  358DG      H8 8219   2.933   2.080   1.074 -0.2453  0.3321 -0.1118
  358DG      O9 8220   3.359   2.162   1.579  0.4187 -0.1575 -0.2256
  358DG     O10 8221   2.993   2.110   1.279  0.2461  0.3013 -0.2601
  358DG     C11 8222   3.274   2.104   1.678 -0.0252  0.0242  0.3338
  358DG     C12 8223   2.992   1.973   1.315  0.1901  0.6680 -1.2863
  358DG     H13 8224   3.280   2.171   1.764  1.6253  1.3685 -0.7568
  358DG     H14 8225   3.316   2.008   1.705 -0.9614 -0.6694 -0.5860
  358DG     H15 8226   3.079   1.914   1.285  0.5972  1.2686 -1.3077
  358DG     H16 8227   2.900   1.924   1.284 -0.0094 -0.2995  0.6180
  358DG     C17 8228   3.135   2.087   1.627 -0.3921 -0.6541  0.1151
  358DG     C18 8229   3.004   1.961   1.469  1.1483 -0.6797 -0.0381
  358DG     O19 8230   3.129   2.017   1.506 -0.8031 -0.1767 -0.7240
  358DG     H20 8231   3.097   2.187   1.607  0.3810 -0.7507 -2.0248
  358DG     H21 8232   3.072   2.042   1.705  0.6061  2.1372  2.7250
  358DG     H22 8233   2.924   2.016   1.520 -0.3372 -0.6706 -2.2317
  358DG     H23 8234   3.021   1.858   1.501 -0.2348 -0.7573  0.5418
  359DG      C1 8235   1.923   2.521   1.360  0.0526 -0.1179 -0.0501
  359DG      C2 8236   1.775   2.845   0.625  0.1631 -0.4838 -0.2441
  359DG      H3 8237   1.974   2.614   1.383 -0.4871  0.6686 -1.8278
  359DG      H4 8238   1.994   2.440   1.339  0.4416 -0.4107  2.1139
  359DG      H5 8239   1.875   2.485   1.451 -1.4011  0.7540 -0.4517
  359DG      H6 8240   1.675   2.888   0.620 -0.2907 -1.1757  2.0476
  359DG      H7 8241   1.840   2.932   0.617 -0.3659 -0.1383 -0.9807
  359DG      H8 8242   1.790   2.778   0.540  0.1870 -0.5261 -0.2069
  359DG      O9 8243   1.852   2.553   1.240 -0.0247 -0.0216  0.4887
  359DG     O10 8244   1.793   2.778   0.748 -0.2022 -0.2567 -0.0300
  359DG     C11 8245   1.936   2.556   1.117  0.1745 -0.6226 -0.5839
  359DG     C12 8246   1.737   2.855   0.856 -0.4632 -0.8618 -0.5402
  359DG     H13 8247   1.994   2.464   1.116  1.3476 -0.0757  2.9670
  359DG     H14 8248   2.011   2.633   1.137 -1.9270  0.6840  3.4736
  359DG     H15 8249   1.628   2.854   0.850 -0.6445  0.5037  1.5991
  359DG     H16 8250   1.759   2.961   0.838 -3.0326 -0.1170  0.3120
  359DG     C17 8251   1.847   2.582   0.991  0.0627  0.2417 -0.3836
  359DG     C18 8252   1.776   2.809   0.998  0.2355  0.2135 -0.1578
  359DG     O19 8253   1.741   2.672   1.012 -0.1942  0.2199  0.0927
  359DG     H20 8254   1.798   2.488   0.965 -0.8743 -0.3780  3.1385
  359DG     H21 8255   1.904   2.620   0.906  0.1926  2.6278  0.7163
  359DG     H22 8256   1.883   2.819   1.018  0.4660 -0.1712 -1.1642
  359DG     H23 8257   1.717   2.865   1.072 -1.2715  0.6951 -1.6581
  360DG      C1 8258   3.339   0.030   0.421  0.1654 -0.4496  0.7284
  360DG      C2 8259   3.560   0.111  -0.275  0.2463  1.2219 -0.2986
  360DG      H3 8260   3.244   0.076   0.447  0.9780  3.1922 -1.8704
  360DG      H4 8261   3.420   0.072   0.482 -0.0028  1.9927 -0.5734
  360DG      H5 8262   3.339  -0.078   0.410 -0.5023 -0.6055  2.1857
  360DG      H6 8263   3.613   0.024  -0.237  0.5452  0.5942 -2.0799
  360DG      H7 8264   3.472   0.083  -0.331 -0.8391  2.3465  0.7697
  360DG      H8 8265   3.625   0.155  -0.351  1.5732 -1.0515 -0.5476
  360DG      O9 8266   3.349   0.061   0.284  0.4922 -0.0164 -0.0856
  360DG     O10 8267   3.513   0.177  -0.164 -0.1308 -0.8515  0.4785
  360DG     C11 8268   3.333   0.198   0.259 -0.1642 -0.2269  0.7834
  360DG     C12 8269   3.621   0.235  -0.096  0.2604 -0.0830  0.2433
  360DG     H13 8270   3.391   0.264   0.322 -0.4088  1.3912 -0.6237
  360DG     H14 8271   3.230   0.232   0.270 -0.6071 -0.8743 -0.9757
  360DG     H15 8272   3.682   0.296  -0.162 -1.5266  0.2170 -1.2077
  360DG     H16 8273   3.678   0.154  -0.049 -0.8526  0.2702  2.3375
  360DG     C17 8274   3.391   0.225   0.116  0.7410  0.2507  0.2229
  360DG     C18 8275   3.572   0.330   0.009  0.0668 -0.8266  0.2599
  360DG     O19 8276   3.530   0.256   0.126 -0.4140 -0.5952  0.3157
  360DG     H20 8277   3.322   0.294   0.067 -0.8332 -2.2434 -1.2835
  360DG     H21 8278   3.387   0.138   0.051  1.4715 -1.4366  2.3276
  360DG     H22 8279   3.646   0.398   0.050 -0.9963  1.1661 -1.0005
  360DG     H23 8280   3.499   0.397  -0.036  0.0607 -1.8497 -1.3493
  361DG      C1 8281   5.161   1.313   0.744  0.0015 -0.3829 -0.9386
  361DG      C2 8282   4.673   1.601   0.438  0.0903  0.2151  0.5604
  361DG      H3 8283   5.224   1.225   0.756  0.2844  0.0394  1.1374
  361DG      H4 8284   5.143   1.339   0.849  0.2086  1.3469 -1.2965
  361DG      H5 8285   5.211   1.400   0.700 -1.8834  2.2207  1.6181
  361DG      H6 8286   4.680   1.659   0.346 -2.0845  1.4476  1.0785
  361DG      H7 8287   4.569   1.570   0.451  0.4206 -0.1881  2.5717
  361DG      H8 8288   4.698   1.665   0.522  2.7058 -0.3567  0.2791
  361DG      O9 8289   5.044   1.281   0.680  0.1730  0.8234 -0.0856
  361DG     O10 8290   4.759   1.489   0.448 -0.7213 -0.0935  0.3707
  361DG     C11 8291   5.055   1.200   0.567  0.0931 -0.0233  0.0462
  361DG     C12 8292   4.754   1.410   0.333 -0.1307  0.3294 -0.2777
  361DG     H13 8293   5.133   1.125   0.579  0.1232  0.4063  3.4912
  361DG     H14 8294   5.085   1.258   0.479 -0.9956 -1.0562 -1.0491
  361DG     H15 8295   4.754   1.460   0.236  0.4516  1.9893  0.5454
  361DG     H16 8296   4.657   1.359   0.335 -1.3986  2.6328  1.5273
  361DG     C17 8297   4.923   1.141   0.511 -0.1155 -0.3789 -0.6633
  361DG     C18 8298   4.852   1.295   0.341 -0.6467 -0.3472 -0.1257
  361DG     O19 8299   4.831   1.241   0.476 -0.6244  0.1244  0.0683
  361DG     H20 8300   4.873   1.086   0.590  2.5065 -1.8696  0.0792
  361DG     H21 8301   4.942   1.074   0.427  0.7695 -1.0627  0.0563
  361DG     H22 8302   4.849   1.223   0.260  1.4743  0.7679 -1.2766
  361DG     H23 8303   4.951   1.341   0.344 -1.3596  1.4196  3.9022
  362DG      C1 8304   2.943   1.368   5.585 -0.2975 -0.2678  0.4891
  362DG      C2 8305   3.181   1.279   5.187 -0.0270  0.0789 -0.8302
  362DG      H3 8306   2.979   1.456   5.637 -1.8440  1.0223 -0.5342
  362DG      H4 8307   3.016   1.288   5.577  0.8008  0.6824  0.8603
  362DG      H5 8308   2.860   1.326   5.643 -0.1471 -1.5882 -0.1971
  362DG      H6 8309   3.172   1.174   5.214 -1.1227  0.5358  0.6877
  362DG      H7 8310   3.286   1.312   5.186  0.0398 -0.0550  0.6588
  362DG      H8 8311   3.128   1.344   5.257  1.1273  1.4574 -1.1775
  362DG      O9 8312   2.891   1.399   5.460  0.3783 -0.1074 -0.0145
  362DG     O10 8313   3.132   1.302   5.055 -0.8298 -0.5474  0.1601
  362DG     C11 8314   2.790   1.307   5.419  0.2869 -0.0979  0.0222
  362DG     C12 8315   3.014   1.225   5.015  0.1089 -0.3982 -0.1405
  362DG     H13 8316   2.694   1.320   5.469  0.4762 -1.5062  0.8021
  362DG     H14 8317   2.825   1.206   5.435 -1.9423 -1.0235 -0.5245
  362DG     H15 8318   3.017   1.123   5.054  0.6433 -0.1866  0.4045
  362DG     H16 8319   3.013   1.222   4.906 -4.3901  0.1392 -0.2984
  362DG     C17 8320   2.765   1.313   5.270 -0.2384 -0.2538 -0.4166
  362DG     C18 8321   2.888   1.297   5.065 -0.4540  0.0078  0.0362
  362DG     O19 8322   2.887   1.284   5.207 -0.1542 -0.3477 -0.0036
  362DG     H20 8323   2.728   1.412   5.242  0.4886  0.1155 -0.1019
  362DG     H21 8324   2.695   1.233   5.247  0.1685 -0.4946 -0.8434
  362DG     H22 8325   2.881   1.402   5.035 -1.7461 -0.4751 -1.5111
  362DG     H23 8326   2.805   1.248   5.014 -1.7164  1.5949  0.4707
  363DG      C1 8327   3.947   4.727   3.939  0.2712 -0.2063  0.1879
  363DG      C2 8328   4.371   5.150   4.389  0.2057 -0.1235  0.2844
  363DG      H3 8329   3.981   4.647   3.873  1.1195 -0.7188  1.2167
  363DG      H4 8330   3.839   4.724   3.926  0.2178 -0.2883  0.6250
  363DG      H5 8331   3.977   4.715   4.043  0.5152 -0.6192  0.0742
  363DG      H6 8332   4.411   5.060   4.435 -2.8641 -1.3150  0.8862
  363DG      H7 8333   4.449   5.225   4.401 -0.5141  0.3048  2.8687
  363DG      H8 8334   4.279   5.172   4.443  0.6762 -1.3190  1.6218
  363DG      O9 8335   3.994   4.849   3.892 -0.1159  0.0247 -0.0719
  363DG     O10 8336   4.347   5.114   4.254  0.3546  0.0084  0.2902
  363DG     C11 8337   4.140   4.839   3.890  0.3294  0.1738  0.3517
  363DG     C12 8338   4.246   5.198   4.191 -0.0341  0.5274  0.3686
  363DG     H13 8339   4.177   4.777   3.808 -1.5323 -0.4085 -0.0957
  363DG     H14 8340   4.172   4.783   3.978  1.1050  1.6073  1.0069
  363DG     H15 8341   4.273   5.303   4.189  2.5327 -0.0725  0.2368
  363DG     H16 8342   4.145   5.184   4.230  0.4744 -0.5377  1.3757
  363DG     C17 8343   4.204   4.976   3.884 -0.0330 -0.3638  0.3501
  363DG     C18 8344   4.233   5.171   4.039 -0.1486  0.3998  0.0579
  363DG     O19 8345   4.204   5.033   4.020  0.3588  0.6065  0.0751
  363DG     H20 8346   4.147   5.046   3.823  0.2963  0.4529  0.9646
  363DG     H21 8347   4.303   4.972   3.839 -0.4798  1.0510 -0.8381
  363DG     H22 8348   4.158   5.225   3.982 -1.8052 -0.9887  0.8160
  363DG     H23 8349   4.330   5.190   3.994  0.7730 -1.3596  1.1648
  364DG      C1 8350   3.519   0.946   4.431 -0.1720 -0.1960  0.4191
  364DG      C2 8351   3.580   1.361   4.983  0.6464  0.4410 -0.1828
  364DG      H3 8352   3.476   0.873   4.363 -0.8457 -0.6607  1.3406
  364DG      H4 8353   3.612   0.911   4.475  0.5173  2.2965  1.1420
  364DG      H5 8354   3.550   1.041   4.387 -1.1835  1.3787  2.8962
  364DG      H6 8355   3.663   1.305   5.027  0.1298  1.1083  1.7713
  364DG      H7 8356   3.621   1.437   4.916  1.2814 -0.2911 -0.6354
  364DG      H8 8357   3.534   1.401   5.073  1.3710  2.9613 -0.8411
  364DG      O9 8358   3.433   0.981   4.541 -1.1392  0.0989  0.8092
  364DG     O10 8359   3.486   1.278   4.909  0.1029  0.2590  0.1163
  364DG     C11 8360   3.320   1.047   4.489 -0.1980 -0.3327  0.1216
  364DG     C12 8361   3.367   1.352   4.870  0.3009 -0.1640  0.8136
  364DG     H13 8362   3.259   0.965   4.453 -0.5975  0.4768 -1.0855
  364DG     H14 8363   3.339   1.107   4.401 -0.1729  1.9640  1.5951
  364DG     H15 8364   3.403   1.428   4.800  2.9295 -0.5056  1.6576
  364DG     H16 8365   3.323   1.403   4.955 -1.3688 -1.2556  0.6389
  364DG     C17 8366   3.244   1.122   4.606 -0.0443 -0.2921  0.6411
  364DG     C18 8367   3.265   1.262   4.801  0.1307 -0.2373  0.4748
  364DG     O19 8368   3.326   1.190   4.695  0.0698 -0.2180 -0.1744
  364DG     H20 8369   3.184   1.046   4.655 -0.9178 -0.5353 -0.7766
  364DG     H21 8370   3.167   1.187   4.565 -0.7064  1.2757  3.9910
  364DG     H22 8371   3.231   1.185   4.869 -0.5942 -1.0229 -0.7365
  364DG     H23 8372   3.178   1.317   4.764  0.8547 -0.2745 -1.3698
  365DG      C1 8373   2.027   3.685   5.490  0.6763 -0.4222 -0.1922
  365DG      C2 8374   1.591   4.197   5.278  0.1555  0.3341  0.4751
  365DG      H3 8375   2.102   3.763   5.477  1.6793 -0.9066  2.1280
  365DG      H4 8376   2.038   3.621   5.403 -0.7219  1.4586 -1.8604
  365DG      H5 8377   2.052   3.633   5.582 -1.5642  1.8476  1.8782
  365DG      H6 8378   1.504   4.208   5.213 -0.4891  1.2192  1.4470
  365DG      H7 8379   1.624   4.294   5.316  0.1720  0.5460 -0.0641
  365DG      H8 8380   1.673   4.173   5.210 -0.3366  0.1156 -0.0511
  365DG      O9 8381   1.900   3.748   5.496 -0.5096  0.2175  0.0274
  365DG     O10 8382   1.584   4.089   5.369 -0.0670  0.6144 -0.1258
  365DG     C11 8383   1.796   3.652   5.515  0.2990 -0.6204  0.0150
  365DG     C12 8384   1.506   3.979   5.335 -0.4907 -0.1777  0.1998
  365DG     H13 8385   1.834   3.587   5.595 -1.1301  0.0906  1.3230
  365DG     H14 8386   1.776   3.579   5.436 -1.2490 -1.5447  1.1993
  365DG     H15 8387   1.551   3.934   5.247 -1.2725  1.5945 -1.1567
  365DG     H16 8388   1.404   4.013   5.314 -0.4536 -1.0124 -1.4654
  365DG     C17 8389   1.665   3.727   5.547 -0.2787 -0.3780 -0.3190
  365DG     C18 8390   1.510   3.866   5.445 -0.0705  0.0355 -0.1916
  365DG     O19 8391   1.639   3.810   5.433  0.7355  0.0108  0.1779
  365DG     H20 8392   1.675   3.789   5.636  1.3927 -0.3404 -0.4972
  365DG     H21 8393   1.580   3.664   5.572 -1.9160  1.7990 -0.0672
  365DG     H22 8394   1.483   3.902   5.544  0.2682 -0.3803  0.0535
  365DG     H23 8395   1.423   3.804   5.425 -0.4271  1.1738 -2.4335
  366DG      C1 8396   0.287  -0.115   5.234  0.2431  0.6708 -0.4990
  366DG      C2 8397   0.616   0.420   5.574  0.1422 -0.1568 -0.3135
  366DG      H3 8398   0.200  -0.168   5.195 -0.6022  0.3895  1.6557
  366DG      H4 8399   0.337  -0.191   5.292  0.5299 -0.0118 -1.6082
  366DG      H5 8400   0.351  -0.111   5.146  1.5891 -0.1397  0.4133
  366DG      H6 8401   0.599   0.519   5.618 -1.5088 -0.8832  0.7942
  366DG      H7 8402   0.673   0.354   5.639 -2.2511 -1.9594  0.1106
  366DG      H8 8403   0.681   0.435   5.488  1.2363  1.6301  0.7739
  366DG      O9 8404   0.266   0.010   5.295 -0.2409 -0.1221 -0.0095
  366DG     O10 8405   0.496   0.370   5.529  0.3169  0.0338  0.2725
  366DG     C11 8406   0.228   0.114   5.202  0.2238  0.5473  0.0947
  366DG     C12 8407   0.405   0.469   5.468  0.2934  0.2293  0.1397
  366DG     H13 8408   0.137   0.080   5.152 -0.7332  1.9721  0.8098
  366DG     H14 8409   0.309   0.121   5.129 -0.1512  0.3886 -0.3454
  366DG     H15 8410   0.454   0.505   5.377  1.6712 -0.7467  0.4706
  366DG     H16 8411   0.397   0.555   5.535  1.4764 -0.4553  1.1919
  366DG     C17 8412   0.185   0.242   5.270  0.4194 -0.1519  0.4899
  366DG     C18 8413   0.274   0.400   5.429 -0.3202 -0.2608  0.5838
  366DG     O19 8414   0.298   0.285   5.349  0.0689  0.1650  0.2881
  366DG     H20 8415   0.099   0.238   5.337  0.9972  1.4082  1.3765
  366DG     H21 8416   0.152   0.310   5.192 -0.2709 -0.4837  0.4836
  366DG     H22 8417   0.215   0.379   5.518 -0.0595  1.6293  1.2543
  366DG     H23 8418   0.214   0.471   5.372 -0.7689 -0.5381  0.7039
  367DG      C1 8419   1.983   5.154   3.425  0.2638  0.0821 -0.0129
  367DG      C2 8420   1.995   4.846   3.012  0.3559  0.0147  0.3613
  367DG      H3 8421   1.905   5.083   3.401 -1.0203  1.5172 -0.2628
  367DG      H4 8422   1.975   5.198   3.524 -0.9290  0.3681 -0.2186
  367DG      H5 8423   2.082   5.110   3.413 -0.2151 -0.5926 -1.8130
  367DG      H6 8424   2.100   4.867   3.027 -0.0539  1.5350  1.2344
  367DG      H7 8425   1.964   4.781   3.094 -1.1378 -1.1419 -1.0404
  367DG      H8 8426   1.984   4.784   2.922 -0.3701 -0.5339  0.8118
  367DG      O9 8427   1.960   5.265   3.338  0.5635  0.3655 -0.0013
  367DG     O10 8428   1.918   4.961   3.012  0.2051  0.7287 -0.0879
  367DG     C11 8429   2.070   5.324   3.273  0.2157  0.3648 -0.3503
  367DG     C12 8430   1.968   5.048   2.909  0.4134 -0.4289  0.4245
  367DG     H13 8431   2.144   5.353   3.348 -0.2335 -1.8335  1.0349
  367DG     H14 8432   2.031   5.417   3.232 -2.5456 -0.5135  0.0917
  367DG     H15 8433   1.885   5.113   2.882  0.7059  0.4215  1.4904
  367DG     H16 8434   2.000   4.993   2.820  1.2447  0.9920 -0.1824
  367DG     C17 8435   2.124   5.251   3.153 -0.5207  0.4622 -0.1900
  367DG     C18 8436   2.084   5.127   2.964 -0.1876 -0.6010 -0.3000
  367DG     O19 8437   2.029   5.215   3.059  0.0295  1.0146 -0.5000
  367DG     H20 8438   2.172   5.158   3.184 -1.3032 -0.4253 -1.5277
  367DG     H21 8439   2.190   5.320   3.101 -1.6696  1.3335 -0.5573
  367DG     H22 8440   2.161   5.063   3.009 -0.0288  0.4261  0.9475
  367DG     H23 8441   2.143   5.183   2.891  0.4847 -0.3002  0.4604
  368DG      C1 8442   3.450   0.461   5.068 -0.2259 -0.0220  0.2654
  368DG      C2 8443   2.750   0.281   4.942  0.0230 -0.3777  0.2549
  368DG      H3 8444   3.491   0.544   5.124  0.4422 -0.0222 -0.2139
  368DG      H4 8445   3.512   0.436   4.982 -1.3817 -1.1581 -0.2661
  368DG      H5 8446   3.450   0.383   5.144 -1.1165 -0.6088 -0.3131
  368DG      H6 8447   2.717   0.229   4.852 -1.8059 -1.0545  1.2517
  368DG      H7 8448   2.760   0.195   5.008 -1.6667 -0.0646  0.9760
  368DG      H8 8449   2.667   0.348   4.965  0.3690  0.5172 -1.0444
  368DG      O9 8450   3.317   0.482   5.030  0.2458 -0.5919 -0.0961
  368DG     O10 8451   2.867   0.365   4.918 -0.3706  0.0720  0.2298
  368DG     C11 8452   3.299   0.602   4.951  0.5644  0.2402  0.0946
  368DG     C12 8453   2.843   0.474   4.831  0.5536 -0.3198  0.8635
  368DG     H13 8454   3.332   0.578   4.850  2.2138 -0.2406  0.7091
  368DG     H14 8455   3.364   0.685   4.979 -1.3617  1.6423  0.5653
  368DG     H15 8456   2.737   0.497   4.819  0.9038  0.1790 -1.9481
  368DG     H16 8457   2.880   0.464   4.729  0.1338 -1.6798  0.8311
  368DG     C17 8458   3.152   0.645   4.952 -0.7287 -0.0206  0.2546
  368DG     C18 8459   2.929   0.588   4.888 -0.4641  0.3421 -0.5099
  368DG     O19 8460   3.064   0.545   4.895 -0.1070  0.0366 -0.0546
  368DG     H20 8461   3.131   0.737   4.897  0.5294  0.7088  0.9540
  368DG     H21 8462   3.125   0.658   5.056  1.3444 -0.1968  0.8576
  368DG     H22 8463   2.918   0.680   4.830 -0.3172 -0.5689 -2.0439
  368DG     H23 8464   2.896   0.598   4.991  1.1362 -0.9704  0.1719
  369DG      C1 8465   4.672   1.648   2.590  0.2117  0.2373 -0.1020
  369DG      C2 8466   4.375   1.007   2.369  0.1736  0.0578  0.3582
  369DG      H3 8467   4.653   1.737   2.531 -0.7968 -1.2219 -2.0808
  369DG      H4 8468   4.779   1.653   2.615  1.0074 -2.2453 -2.5015
  369DG      H5 8469   4.603   1.650   2.674 -3.0651  3.0889 -2.5751
  369DG      H6 8470   4.320   1.010   2.276 -0.0404 -0.9650  0.4413
  369DG      H7 8471   4.433   0.915   2.358 -0.6636 -0.4941  0.5163
  369DG      H8 8472   4.312   0.995   2.457 -0.8347 -0.1036 -0.3671
  369DG      O9 8473   4.660   1.529   2.507 -0.2930 -0.0759  0.2649
  369DG     O10 8474   4.465   1.113   2.383  0.1126  0.0972 -0.0935
  369DG     C11 8475   4.743   1.545   2.393  0.5906  0.5095  0.4800
  369DG     C12 8476   4.529   1.131   2.255  0.0465  0.5552  0.7467
  369DG     H13 8477   4.841   1.588   2.416  0.8569  1.3596 -1.9820
  369DG     H14 8478   4.689   1.623   2.339  1.3908  1.2915  0.7780
  369DG     H15 8479   4.462   1.189   2.192 -1.7626 -1.6863  0.4617
  369DG     H16 8480   4.547   1.036   2.205  0.2499 -0.0747  1.9612
  369DG     C17 8481   4.767   1.421   2.311  0.7890 -0.2540  0.1174
  369DG     C18 8482   4.668   1.211   2.263 -0.7987  0.5587  0.3368
  369DG     O19 8483   4.652   1.341   2.315 -0.3034  0.6585 -0.0254
  369DG     H20 8484   4.860   1.368   2.329  0.8711 -0.5139 -0.9678
  369DG     H21 8485   4.791   1.450   2.208 -0.0422 -1.6408 -0.4991
  369DG     H22 8486   4.727   1.150   2.332 -2.2157 -0.8971  0.3099
  369DG     H23 8487   4.720   1.217   2.167  0.8252 -0.0391  1.1268
  370DG      C1 8488   5.245   4.653   2.741  0.2537 -0.3096 -0.5579
  370DG      C2 8489   4.979   4.149   3.024 -0.4000 -0.1435  0.1261
  370DG      H3 8490   5.218   4.689   2.841  2.9646 -1.2199  0.6043
  370DG      H4 8491   5.173   4.658   2.660  0.7404 -1.3679 -1.0737
  370DG      H5 8492   5.335   4.704   2.707 -1.0997  1.4319 -1.6341
  370DG      H6 8493   4.965   4.238   3.087  0.3854 -0.5936  0.9575
  370DG      H7 8494   4.892   4.150   2.959 -0.3313 -0.6812  0.0255
  370DG      H8 8495   4.962   4.071   3.098 -2.5199  1.1979  1.1491
  370DG      O9 8496   5.272   4.521   2.751 -0.4986 -0.0695 -0.1801
  370DG     O10 8497   5.109   4.153   2.953 -0.0763  0.0811 -0.0512
  370DG     C11 8498   5.386   4.499   2.832 -0.0009 -0.3639  0.1026
  370DG     C12 8499   5.222   4.132   3.045 -1.0686 -0.1027  0.0683
  370DG     H13 8500   5.384   4.541   2.933 -0.6125 -0.6485  0.2134
  370DG     H14 8501   5.471   4.543   2.780 -1.0267  2.8279  0.8953
  370DG     H15 8502   5.233   4.024   3.059  1.8418  0.0894 -0.1811
  370DG     H16 8503   5.212   4.195   3.133 -2.8238  0.6758 -0.6325
  370DG     C17 8504   5.416   4.350   2.845 -0.4417  0.1730  0.2398
  370DG     C18 8505   5.352   4.173   2.981  0.4242  0.4303  0.2658
  370DG     O19 8506   5.320   4.303   2.933 -0.0404 -0.6170 -0.0604
  370DG     H20 8507   5.517   4.338   2.885 -1.4424 -0.5466  2.6954
  370DG     H21 8508   5.405   4.288   2.755 -0.4421 -0.1546  0.4628
  370DG     H22 8509   5.432   4.163   3.055  1.3759  1.5435 -0.5744
  370DG     H23 8510   5.371   4.104   2.899 -0.9703  0.8967 -0.4651
  371DG      C1 8511   1.809   0.156   4.668  0.4726  0.4439 -0.3159
  371DG      C2 8512   2.223   0.686   4.183 -0.0052  0.0196 -0.2632
  371DG      H3 8513   1.896   0.113   4.620 -1.0942 -0.9236 -2.0490
  371DG      H4 8514   1.724   0.094   4.641  0.6606 -0.6670  1.4980
  371DG      H5 8515   1.815   0.152   4.777 -3.3718  0.4054  0.0159
  371DG      H6 8516   2.139   0.665   4.117 -0.3333 -2.1781  0.7635
  371DG      H7 8517   2.250   0.790   4.162  0.8780 -0.4996 -1.8762
  371DG      H8 8518   2.299   0.624   4.136  2.0287  1.8285  0.4775
  371DG      O9 8519   1.794   0.294   4.622 -0.4681  0.3518 -0.5294
  371DG     O10 8520   2.209   0.642   4.318 -0.5106  0.3449  0.0892
  371DG     C11 8521   1.732   0.298   4.498 -0.7021  1.3197 -0.0318
  371DG     C12 8522   2.135   0.520   4.326  0.4905  0.0522  0.6318
  371DG     H13 8523   1.625   0.300   4.519 -0.8485 -1.0861 -0.3635
  371DG     H14 8524   1.742   0.207   4.439 -0.4030  1.7752 -0.7056
  371DG     H15 8525   2.182   0.449   4.394 -0.8265 -0.8765  0.5879
  371DG     H16 8526   2.130   0.472   4.229 -1.1152  3.7471 -1.3064
  371DG     C17 8527   1.800   0.416   4.420  0.0630 -0.5001 -0.1170
  371DG     C18 8528   1.991   0.547   4.377 -0.1225  0.6373  0.1590
  371DG     O19 8529   1.942   0.420   4.423  0.2576  0.0546  0.2607
  371DG     H20 8530   1.767   0.501   4.480 -2.5706 -1.5857  0.1110
  371DG     H21 8531   1.766   0.432   4.317 -1.7682  1.4247  0.7078
  371DG     H22 8532   1.987   0.628   4.451  1.0476  0.6204  0.2549
  371DG     H23 8533   1.936   0.567   4.285 -3.2147  0.6952  1.8799
  372DG      C1 8534   4.020   2.954   3.318  0.1291 -0.0283 -0.5869
  372DG      C2 8535   3.435   2.878   2.874 -0.3977  0.6153  0.0867
  372DG      H3 8536   4.126   2.944   3.295  0.0504  0.4312 -1.1582
  372DG      H4 8537   3.990   2.888   3.400  1.0874  2.4779  1.9473
  372DG      H5 8538   3.998   3.058   3.339 -0.2269  0.1568 -1.8291
  372DG      H6 8539   3.407   2.933   2.784 -0.3390 -1.8764 -1.5558
  372DG      H7 8540   3.369   2.791   2.879  2.8561 -2.0357  0.6556
  372DG      H8 8541   3.435   2.927   2.971 -3.8847 -0.8494  0.9717
  372DG      O9 8542   3.957   2.919   3.198  0.2537 -0.1788 -0.6187
  372DG     O10 8543   3.556   2.817   2.871 -0.4465  0.0627  0.4680
  372DG     C11 8544   3.959   2.780   3.175  0.0126  0.0889 -0.6943
  372DG     C12 8545   3.657   2.909   2.834 -0.5187 -0.0834  0.2552
  372DG     H13 8546   3.879   2.728   3.227  0.4860 -1.8081 -1.7773
  372DG     H14 8547   4.045   2.730   3.219 -0.9410 -2.3463 -1.4619
  372DG     H15 8548   3.655   3.002   2.891  1.0515 -0.8757  1.6917
  372DG     H16 8549   3.650   2.926   2.726  1.7764  0.2541  0.1030
  372DG     C17 8550   3.947   2.766   3.030  0.1574  0.3858 -0.1256
  372DG     C18 8551   3.801   2.845   2.855  0.4558  0.5971 -0.6948
  372DG     O19 8552   3.821   2.824   2.997  0.3246 -0.0634 -0.2726
  372DG     H20 8553   3.945   2.660   3.004  0.6140  0.1934  0.6160
  372DG     H21 8554   4.038   2.804   2.982  0.4997 -0.0659  0.1636
  372DG     H22 8555   3.818   2.751   2.801  2.9519 -0.0616  1.0498
  372DG     H23 8556   3.882   2.911   2.827  0.1521  1.0082 -0.6082
  373DG      C1 8557   2.654   2.657  -0.053  0.6329  0.7697 -0.0574
  373DG      C2 8558   2.465   2.954   0.463 -0.1127 -0.7828  0.8348
  373DG      H3 8559   2.677   2.662  -0.160  3.9757 -0.3114  0.4847
  373DG      H4 8560   2.630   2.555  -0.025  2.0624  0.1623 -0.8812
  373DG      H5 8561   2.747   2.691  -0.006 -1.2860  2.1031  3.0490
  373DG      H6 8562   2.430   3.029   0.535 -0.5952  0.7551 -0.9164
  373DG      H7 8563   2.412   2.862   0.486 -1.3764 -0.6402 -1.2834
  373DG      H8 8564   2.572   2.933   0.461 -0.2173 -1.4516  1.5925
  373DG      O9 8565   2.553   2.751  -0.024  0.6086  0.2530  0.1081
  373DG     O10 8566   2.441   2.973   0.328  0.4630 -0.3510 -0.0012
  373DG     C11 8567   2.574   2.868  -0.106  0.2007  0.0418 -0.5192
  373DG     C12 8568   2.484   3.100   0.274 -0.6164  0.1177 -0.2630
  373DG     H13 8569   2.562   2.840  -0.211 -1.2741 -0.8444 -0.1338
  373DG     H14 8570   2.671   2.915  -0.088 -1.6882  3.4261  1.9828
  373DG     H15 8571   2.591   3.103   0.289 -0.6266 -0.9718  0.0795
  373DG     H16 8572   2.444   3.183   0.332 -0.1003  1.9960 -2.4385
  373DG     C17 8573   2.481   2.976  -0.062  0.4054 -0.3085 -0.0121
  373DG     C18 8574   2.453   3.115   0.128  0.0491  0.0257  0.2970
  373DG     O19 8575   2.515   3.004   0.070 -0.3024 -0.7076 -0.2076
  373DG     H20 8576   2.379   2.945  -0.084  0.4653  1.0283 -2.6220
  373DG     H21 8577   2.498   3.064  -0.124  0.3009 -1.2365 -1.4218
  373DG     H22 8578   2.345   3.109   0.117  0.0984 -1.0777  0.2562
  373DG     H23 8579   2.491   3.210   0.091  0.4956 -0.3176 -0.1460
  374DG      C1 8580   4.355   0.778   5.420 -0.7301 -1.0547  0.4929
  374DG      C2 8581   5.087   0.880   5.244  0.1130  0.8621  0.0055
  374DG      H3 8582   4.337   0.780   5.527  1.7166  0.2630  0.9470
  374DG      H4 8583   4.273   0.717   5.382  0.3824  0.3917 -5.2717
  374DG      H5 8584   4.344   0.879   5.381  2.4471 -1.6948 -2.5966
  374DG      H6 8585   5.123   0.949   5.167  1.1345  0.2670 -0.0735
  374DG      H7 8586   5.037   0.948   5.312  0.7014  0.6844  0.6233
  374DG      H8 8587   5.165   0.823   5.294 -0.0504 -2.4102 -3.0779
  374DG      O9 8588   4.478   0.731   5.381  0.2832 -0.1232  0.1119
  374DG     O10 8589   4.990   0.787   5.196  0.3180  0.2062  0.0926
  374DG     C11 8590   4.484   0.687   5.246 -0.1420 -0.7900  0.4860
  374DG     C12 8591   4.951   0.705   5.311 -0.3024  0.1107 -0.2306
  374DG     H13 8592   4.475   0.768   5.174  1.3375 -1.6822 -0.7587
  374DG     H14 8593   4.397   0.625   5.222  0.2064 -0.2762 -2.5371
  374DG     H15 8594   4.899   0.769   5.381 -0.9534 -0.2562 -0.3691
  374DG     H16 8595   5.038   0.661   5.361  0.6521 -0.3142 -2.1485
  374DG     C17 8596   4.612   0.606   5.224  0.1488  0.5158 -0.2345
  374DG     C18 8597   4.850   0.600   5.273  0.1479 -0.3758 -0.0646
  374DG     O19 8598   4.726   0.670   5.277 -0.0577 -0.1645  0.3645
  374DG     H20 8599   4.635   0.580   5.121 -1.9424 -1.5421 -0.2760
  374DG     H21 8600   4.592   0.512   5.275 -1.8480 -0.2577 -2.2411
  374DG     H22 8601   4.874   0.566   5.172  0.9789  0.0612 -0.0266
  374DG     H23 8602   4.848   0.512   5.337  0.9386 -1.8179 -1.9316
  375DG      C1 8603   1.202   3.111   0.548  0.1436 -0.0832  0.2413
  375DG      C2 8604   1.857   3.194   0.953  0.3818  0.1610  0.3967
  375DG      H3 8605   1.122   3.185   0.558  0.7639  1.0514 -2.5196
  375DG      H4 8606   1.188   3.022   0.609  2.2354 -0.3007  0.4680
  375DG      H5 8607   1.201   3.078   0.444 -1.0864 -2.0593  0.8220
  375DG      H6 8608   1.962   3.218   0.939  1.2911 -2.9926  1.0622
  375DG      H7 8609   1.811   3.249   1.035 -3.0578 -2.3162  0.3575
  375DG      H8 8610   1.856   3.091   0.991 -3.0074  0.7323  2.3349
  375DG      O9 8611   1.330   3.162   0.576  0.5735  0.3274  0.8000
  375DG     O10 8612   1.787   3.200   0.834  0.2070 -0.7004  0.0120
  375DG     C11 8613   1.390   3.272   0.507 -0.2873 -0.0738 -0.0626
  375DG     C12 8614   1.760   3.334   0.801  0.3951  0.6649  0.2241
  375DG     H13 8615   1.352   3.353   0.570 -1.3061 -1.4272  1.1192
  375DG     H14 8616   1.354   3.264   0.404 -1.9620 -0.0290  0.4885
  375DG     H15 8617   1.859   3.379   0.800  0.5259  0.3978  0.7544
  375DG     H16 8618   1.702   3.388   0.877 -0.4283  0.6772 -0.3915
  375DG     C17 8619   1.540   3.270   0.504 -0.1727 -0.3068 -0.2827
  375DG     C18 8620   1.715   3.334   0.654  0.1243 -0.4696  0.8416
  375DG     O19 8621   1.581   3.289   0.641  0.6181  0.2123  0.0073
  375DG     H20 8622   1.567   3.360   0.448 -1.9386  0.7652  0.5053
  375DG     H21 8623   1.592   3.184   0.461  0.2673  0.4776 -1.3773
  375DG     H22 8624   1.707   3.440   0.628  0.3383  0.0830  2.8979
  375DG     H23 8625   1.786   3.274   0.596  0.2641  0.8715 -0.4539
  376DG      C1 8626   3.084   4.195   3.627 -0.1302 -0.2866  0.0115
  376DG      C2 8627   3.024   4.923   3.469  0.4424  0.1814  0.5568
  376DG      H3 8628   3.066   4.105   3.567 -0.8178 -0.1771  0.0484
  376DG      H4 8629   2.980   4.223   3.644  0.1906  0.9378  0.0683
  376DG      H5 8630   3.132   4.166   3.720 -0.9755  0.8245  0.8190
  376DG      H6 8631   2.950   4.939   3.546  0.2602 -1.6693  0.8288
  376DG      H7 8632   3.096   5.004   3.466 -0.2155  0.7845  0.9500
  376DG      H8 8633   2.957   4.934   3.384  2.0628  0.7530 -0.7058
  376DG      O9 8634   3.160   4.284   3.550  0.0053 -0.6055  0.2208
  376DG     O10 8635   3.088   4.801   3.491 -0.0782  0.7743 -0.0406
  376DG     C11 8636   3.261   4.349   3.630  0.4064  0.1909  0.3665
  376DG     C12 8637   3.197   4.774   3.396  0.0824  0.1701 -0.5870
  376DG     H13 8638   3.333   4.270   3.652 -0.6730 -0.8474  0.2768
  376DG     H14 8639   3.225   4.388   3.725 -2.1089 -1.6159  0.2579
  376DG     H15 8640   3.251   4.869   3.397 -0.7221  0.6417 -0.7208
  376DG     H16 8641   3.161   4.767   3.293 -1.2730 -2.6059  0.0028
  376DG     C17 8642   3.331   4.451   3.542 -0.3136 -0.6800  0.1266
  376DG     C18 8643   3.299   4.666   3.444  0.1498  0.6307  0.3002
  376DG     O19 8644   3.236   4.547   3.491  0.3285 -0.3941 -0.2936
  376DG     H20 8645   3.362   4.413   3.445 -0.5403  1.3904 -0.8191
  376DG     H21 8646   3.420   4.499   3.583 -1.4049  3.8245 -2.0900
  376DG     H22 8647   3.378   4.648   3.371  0.5425 -1.3709  1.1606
  376DG     H23 8648   3.363   4.715   3.516  1.3267 -0.3317 -0.0641
  377DG      C1 8649   3.179   2.434   1.402 -0.3391  0.4069 -0.5472
  377DG      C2 8650   2.586   3.079   1.324 -0.2785 -0.1609 -0.4677
  377DG      H3 8651   3.202   2.365   1.483 -2.1833 -0.5145 -0.7668
  377DG      H4 8652   3.264   2.502   1.395  0.1233  0.1080  1.4500
  377DG      H5 8653   3.170   2.373   1.312  1.1473 -1.1715  0.3079
  377DG      H6 8654   2.677   3.117   1.277 -0.8808  1.4886 -0.3770
  377DG      H7 8655   2.498   3.128   1.281 -0.1186  0.0764 -0.5289
  377DG      H8 8656   2.588   3.120   1.425  1.0182 -1.4504  0.0533
  377DG      O9 8657   3.067   2.528   1.410 -0.2592  0.3276 -0.4854
  377DG     O10 8658   2.605   2.939   1.316  0.5799  0.4586  0.2228
  377DG     C11 8659   2.959   2.483   1.498 -0.2504  0.7058  0.6290
  377DG     C12 8660   2.693   2.891   1.413  0.2951  0.1025 -0.0903
  377DG     H13 8661   2.986   2.478   1.604  0.7912  0.8138  0.3806
  377DG     H14 8662   2.959   2.378   1.471  3.3966  0.5659  0.5996
  377DG     H15 8663   2.671   2.918   1.516 -0.4437  0.0393 -0.2292
  377DG     H16 8664   2.791   2.937   1.397  0.3190 -0.0745 -0.4568
  377DG     C17 8665   2.826   2.552   1.460 -0.0621  0.4860 -0.1549
  377DG     C18 8666   2.700   2.734   1.402 -0.1791 -0.7392 -0.7598
  377DG     O19 8667   2.824   2.694   1.459  0.1588  0.4310 -0.5983
  377DG     H20 8668   2.753   2.506   1.526  3.4337 -1.0479  3.0319
  377DG     H21 8669   2.792   2.524   1.361  0.2362  0.7152 -0.3222
  377DG     H22 8670   2.619   2.697   1.465 -0.2800 -0.4602 -0.7202
  377DG     H23 8671   2.689   2.696   1.301  2.5080 -2.7853 -0.3791
  378DG      C1 8672   4.524   1.218   4.957  0.1372 -0.1198 -0.3809
  378DG      C2 8673   4.484   1.052   5.781  0.1039  0.1696  0.5091
  378DG      H3 8674   4.513   1.311   5.012  2.1676 -0.8508  1.4040
  378DG      H4 8675   4.425   1.174   4.948 -0.3346  1.1016 -1.3722
  378DG      H5 8676   4.556   1.239   4.855 -0.7226  1.8807 -0.2765
  378DG      H6 8677   4.379   1.024   5.791  0.0692 -0.8799 -1.9284
  378DG      H7 8678   4.541   1.010   5.863  2.6639  1.0968 -0.6771
  378DG      H8 8679   4.487   1.161   5.777  2.1676  0.1263 -1.4419
  378DG      O9 8680   4.622   1.143   5.032  0.3766 -0.1549  1.5455
  378DG     O10 8681   4.531   1.000   5.659 -0.4979 -0.0359  0.5326
  378DG     C11 8682   4.560   1.126   5.158 -0.1728  0.8483 -0.9129
  378DG     C12 8683   4.660   1.053   5.622  0.1847  0.0352  0.2676
  378DG     H13 8684   4.465   1.072   5.155 -0.0105  0.6074 -2.1132
  378DG     H14 8685   4.544   1.219   5.213  0.4645  1.2496 -1.4039
  378DG     H15 8686   4.738   1.048   5.697  1.9734 -0.8614 -1.5749
  378DG     H16 8687   4.650   1.161   5.606  1.8758 -0.0167 -1.5086
  378DG     C17 8688   4.657   1.053   5.252  0.1909 -0.2233  0.2472
  378DG     C18 8689   4.707   0.997   5.486  0.1048 -0.5268 -0.0879
  378DG     O19 8690   4.627   1.069   5.385  0.1002 -0.0782  0.1336
  378DG     H20 8691   4.763   1.077   5.240  0.6277 -2.9553 -2.9289
  378DG     H21 8692   4.650   0.948   5.224  0.9476  0.6283 -3.7129
  378DG     H22 8693   4.812   1.026   5.474  0.1929 -1.5259 -2.3698
  378DG     H23 8694   4.704   0.888   5.479  0.3043 -0.7302  2.3022
  379DG      C1 8695   4.506   3.765   3.290  0.4819 -1.2363  0.0566
  379DG      C2 8696   3.895   4.055   3.200  1.0375 -0.9735 -0.4330
  379DG      H3 8697   4.501   3.819   3.385 -4.5143 -2.6993  0.9310
  379DG      H4 8698   4.560   3.839   3.230 -0.4332  0.3207  1.0659
  379DG      H5 8699   4.555   3.674   3.321  0.2400 -1.3487  0.1128
  379DG      H6 8700   3.894   4.070   3.308  0.0948  1.9657 -0.7681
  379DG      H7 8701   3.876   4.153   3.157 -0.3397 -1.9507 -2.2491
  379DG      H8 8702   3.817   3.993   3.155 -1.4785  1.2876  0.5144
  379DG      O9 8703   4.380   3.728   3.230  0.2768  0.3085 -0.1906
  379DG     O10 8704   4.026   4.025   3.159 -0.1872 -0.0740  0.3117
  379DG     C11 8705   4.385   3.689   3.093  0.1688 -0.0978  1.1199
  379DG     C12 8706   4.031   4.007   3.017 -0.7434  0.1987 -0.1573
  379DG     H13 8707   4.312   3.608   3.082 -2.8914  2.6569 -0.5653
  379DG     H14 8708   4.477   3.643   3.059  1.4936  0.9919  3.0442
  379DG     H15 8709   4.002   4.092   2.955  0.0839  0.5974 -0.0128
  379DG     H16 8710   3.967   3.924   2.986 -2.4998  0.6114  2.1377
  379DG     C17 8711   4.329   3.801   3.001 -0.3477 -0.3663  0.1789
  379DG     C18 8712   4.177   3.975   2.984 -0.5381  0.1174  0.0478
  379DG     O19 8713   4.210   3.853   3.057  0.0689  0.2353 -0.0409
  379DG     H20 8714   4.307   3.757   2.904  2.9234  2.1151 -1.9295
  379DG     H21 8715   4.413   3.867   2.977 -1.4110  1.0235  0.1683
  379DG     H22 8716   4.172   3.965   2.876 -0.4705 -0.5625  0.1037
  379DG     H23 8717   4.249   4.049   3.020 -0.6955 -1.2273  3.4899
  380DG      C1 8718   0.934   1.013   2.117  0.7495  0.7061  0.3822
  380DG      C2 8719   1.122   1.523   1.591 -0.2139 -0.4583 -0.2743
  380DG      H3 8720   0.846   1.070   2.147  0.6070  0.5940  0.1787
  380DG      H4 8721   0.966   0.940   2.191  2.1100  0.1757 -0.6867
  380DG      H5 8722   0.896   0.969   2.024  2.3318  1.1015 -0.4827
  380DG      H6 8723   1.186   1.611   1.590 -1.0612  0.2133  1.0616
  380DG      H7 8724   1.118   1.484   1.490 -0.7268 -1.2631  0.0508
  380DG      H8 8725   1.024   1.562   1.619  0.9174  0.5132  2.7245
  380DG      O9 8726   1.043   1.104   2.091  0.3120  0.2472  0.2355
  380DG     O10 8727   1.178   1.430   1.683 -0.1236 -0.1929 -0.8060
  380DG     C11 8728   1.166   1.048   2.047 -0.2033 -0.4950  0.1885
  380DG     C12 8729   1.197   1.479   1.822 -0.5777  0.1541 -0.3296
  380DG     H13 8730   1.137   0.990   1.959 -1.7960  0.6524 -0.0774
  380DG     H14 8731   1.202   0.970   2.115  2.0142  0.2185 -0.0667
  380DG     H15 8732   1.106   1.502   1.877  0.4633  0.5983  1.2653
  380DG     H16 8733   1.259   1.568   1.816  0.3309 -0.3522  1.0398
  380DG     C17 8734   1.266   1.164   2.015 -0.4627  0.6747 -0.8467
  380DG     C18 8735   1.280   1.367   1.893  0.7163  0.5914  0.3963
  380DG     O19 8736   1.197   1.254   1.919 -0.1521 -0.1645 -0.4491
  380DG     H20 8737   1.356   1.131   1.963 -1.0216 -0.6226 -1.0341
  380DG     H21 8738   1.313   1.210   2.101  0.3853 -1.4558 -0.0937
  380DG     H22 8739   1.372   1.336   1.844  0.5459  0.1333  0.3676
  380DG     H23 8740   1.304   1.410   1.991  1.1731  2.1615 -0.3740
  381DG      C1 8741   2.434   5.077   4.992 -0.1863  0.3748 -0.4964
  381DG      C2 8742   2.046   5.354   4.522 -0.4827  0.6286 -0.3547
  381DG      H3 8743   2.464   5.161   4.929 -2.7218  0.8705 -1.1436
  381DG      H4 8744   2.519   5.012   5.014  0.7310  1.8095  0.3927
  381DG      H5 8745   2.398   5.121   5.085  0.4039  1.1123 -0.6095
  381DG      H6 8746   2.038   5.438   4.591  1.1158  1.0761 -0.6792
  381DG      H7 8747   2.138   5.373   4.466  0.9248  0.5684  1.8239
  381DG      H8 8748   1.963   5.349   4.451 -0.8552 -2.8833  0.1509
  381DG      O9 8749   2.324   5.009   4.928  0.1605  0.3954 -0.3387
  381DG     O10 8750   2.056   5.232   4.585  0.6542 -0.1025  0.6071
  381DG     C11 8751   2.362   4.915   4.836 -0.0953 -0.0794 -0.6087
  381DG     C12 8752   2.057   5.112   4.502  0.2530  0.1500  0.2012
  381DG     H13 8753   2.398   4.822   4.880 -1.1453 -0.5178 -0.6494
  381DG     H14 8754   2.441   4.950   4.769  0.8108  1.2089  1.0764
  381DG     H15 8755   2.125   5.119   4.418 -0.5510  1.2846 -0.3710
  381DG     H16 8756   1.956   5.104   4.462 -0.3035  2.8226  0.8835
  381DG     C17 8757   2.237   4.891   4.756 -0.3407  0.4833 -0.3388
  381DG     C18 8758   2.078   4.990   4.597  0.7813 -0.0940 -0.1787
  381DG     O19 8759   2.206   4.996   4.660 -0.0058 -0.2021  0.2194
  381DG     H20 8760   2.163   4.873   4.834  2.2196  2.0849  2.7044
  381DG     H21 8761   2.258   4.800   4.700 -1.5343 -2.0002  2.8825
  381DG     H22 8762   2.002   4.978   4.675  0.0683 -1.5708 -1.0634
  381DG     H23 8763   2.064   4.894   4.548 -0.7003 -0.2949  0.5619
  382DG      C1 8764   2.035   2.831   2.943 -0.0625  0.5818 -0.4707
  382DG      C2 8765   1.500   2.424   2.676 -0.4026 -0.4783 -0.2334
  382DG      H3 8766   1.996   2.879   2.853 -0.1601  0.4733 -0.4876
  382DG      H4 8767   2.120   2.776   2.903  0.3397  0.6858  0.2250
  382DG      H5 8768   2.068   2.897   3.023 -0.0197  0.3965 -0.3321
  382DG      H6 8769   1.461   2.327   2.708  0.7794 -2.1473 -3.3869
  382DG      H7 8770   1.415   2.489   2.654  0.3147  0.0242 -1.6679
  382DG      H8 8771   1.533   2.409   2.573 -1.7533  3.1988 -1.3656
  382DG      O9 8772   1.930   2.736   2.973 -0.0231  0.4474 -0.0386
  382DG     O10 8773   1.598   2.484   2.760 -0.0402  0.9214  0.0010
  382DG     C11 8774   1.959   2.636   3.073  0.0770  0.4371  0.6501
  382DG     C12 8775   1.543   2.520   2.889  0.5320 -0.5677 -0.0634
  382DG     H13 8776   1.994   2.684   3.164 -1.0589  0.8911  0.8642
  382DG     H14 8777   2.037   2.568   3.038 -0.2618  0.0108  0.7110
  382DG     H15 8778   1.512   2.439   2.955 -0.8692  0.8693  1.1268
  382DG     H16 8779   1.461   2.592   2.882 -0.6357 -1.7806  0.7653
  382DG     C17 8780   1.820   2.567   3.113 -0.3012  0.2063  0.4907
  382DG     C18 8781   1.636   2.600   2.973 -0.0464  0.3662 -0.4682
  382DG     O19 8782   1.751   2.525   2.994  0.3198 -0.1894 -0.5095
  382DG     H20 8783   1.769   2.639   3.177  0.4263  2.1203 -0.9834
  382DG     H21 8784   1.828   2.478   3.176  3.2913  1.2934  1.8217
  382DG     H22 8785   1.664   2.688   2.915 -0.4673  0.2321 -0.8846
  382DG     H23 8786   1.580   2.633   3.060  1.6316  1.5052  0.2203
  383DG      C1 8787   4.666   0.451   4.760 -0.3633  0.0145  0.2958
  383DG      C2 8788   4.993   0.930   4.461  0.3452  0.0738 -0.5377
  383DG      H3 8789   4.587   0.462   4.686 -1.3088 -1.0369  1.1118
  383DG      H4 8790   4.662   0.526   4.838  4.2236  0.0373  0.7873
  383DG      H5 8791   4.647   0.352   4.803  0.9275 -0.4468 -0.1639
  383DG      H6 8792   4.945   0.987   4.540  0.1752  0.8880 -1.2243
  383DG      H7 8793   5.092   0.961   4.427  0.6132  1.6518  1.4931
  383DG      H8 8794   4.919   0.935   4.381  0.7232 -0.8741 -0.9673
  383DG      O9 8795   4.788   0.463   4.687 -0.8337  0.4925 -0.3074
  383DG     O10 8796   5.008   0.793   4.498  0.3009 -0.2794 -0.5289
  383DG     C11 8797   4.806   0.360   4.591  0.6311  0.0183  0.1896
  383DG     C12 8798   5.075   0.712   4.400  0.4174 -0.4814  0.8852
  383DG     H13 8799   4.717   0.357   4.528  1.5313  0.3540 -1.1520
  383DG     H14 8800   4.809   0.265   4.644  0.6148 -1.3183 -2.0702
  383DG     H15 8801   5.178   0.746   4.411 -0.3302  2.0488  0.6616
  383DG     H16 8802   5.041   0.718   4.297  2.6240  2.0142  0.1728
  383DG     C17 8803   4.936   0.391   4.516 -0.0099  0.3650 -0.4117
  383DG     C18 8804   5.069   0.568   4.437  0.1574  0.2459  0.4554
  383DG     O19 8805   4.940   0.535   4.479 -0.2705  0.0618  0.3673
  383DG     H20 8806   4.934   0.343   4.418  1.3067  1.2024 -0.8681
  383DG     H21 8807   5.016   0.355   4.581 -2.4552 -0.5058  2.3544
  383DG     H22 8808   5.090   0.507   4.349 -2.2637 -1.0893  0.7173
  383DG     H23 8809   5.137   0.541   4.518  0.8119  1.5195  0.3591
  384DG      C1 8810   0.898   0.189   0.345 -0.2181 -0.2446 -0.2696
  384DG      C2 8811   1.380   0.297  -0.223  0.4100  0.2812 -0.9964
  384DG      H3 8812   0.927   0.294   0.340 -2.2348  0.3306 -0.7269
  384DG      H4 8813   0.893   0.144   0.444  3.8209  0.7217  0.5731
  384DG      H5 8814   0.798   0.194   0.303 -0.6529 -2.5888  0.3486
  384DG      H6 8815   1.357   0.404  -0.213  2.8257  0.7266  0.7127
  384DG      H7 8816   1.469   0.293  -0.160  0.7585  0.8419 -1.4343
  384DG      H8 8817   1.391   0.262  -0.325 -0.6443 -1.7452 -0.4535
  384DG      O9 8818   0.974   0.108   0.258  0.2550 -0.3674 -0.2744
  384DG     O10 8819   1.266   0.229  -0.154 -0.6342  0.0208  0.5010
  384DG     C11 8820   1.115   0.118   0.281  0.5837  0.4535  0.0376
  384DG     C12 8821   1.286   0.087  -0.129  0.3768  0.5291  0.4156
  384DG     H13 8822   1.139   0.064   0.372 -1.6254 -0.4341  0.1478
  384DG     H14 8823   1.147   0.222   0.278 -2.2659  1.4649  1.5216
  384DG     H15 8824   1.365   0.063  -0.058  1.3799  1.9525 -0.1650
  384DG     H16 8825   1.329   0.036  -0.215 -1.0179  0.5047 -0.3004
  384DG     C17 8826   1.165   0.037   0.157 -0.3860 -0.6884  0.1412
  384DG     C18 8827   1.152   0.031  -0.076 -0.6451 -0.4515 -0.3165
  384DG     O19 8828   1.107   0.092   0.042  0.2742 -0.4318 -0.6007
  384DG     H20 8829   1.134  -0.068   0.163  0.1273 -0.8357  0.2873
  384DG     H21 8830   1.273   0.046   0.154 -0.2441 -2.1954 -0.3951
  384DG     H22 8831   1.082   0.059  -0.154  0.5158 -1.3349 -1.7424
  384DG     H23 8832   1.153  -0.077  -0.061 -0.6395 -0.3249  0.7059
  385DG      C1 8833   4.224   3.298   4.978 -1.0395  0.0112 -0.4945
  385DG      C2 8834   4.321   2.780   5.688  0.5067  0.8791 -0.5867
  385DG      H3 8835   4.174   3.388   4.940  0.3938 -0.0856 -2.8091
  385DG      H4 8836   4.163   3.208   4.967 -0.6562 -0.5010  1.2304
  385DG      H5 8837   4.313   3.288   4.917 -0.3671  1.0180  0.2748
  385DG      H6 8838   4.388   2.791   5.773  1.0983 -0.1919 -0.8969
  385DG      H7 8839   4.230   2.734   5.725  0.6534 -0.0784 -1.3533
  385DG      H8 8840   4.373   2.709   5.623 -0.1508 -0.9906  0.8507
  385DG      O9 8841   4.254   3.328   5.113 -0.0908 -0.2951  0.4631
  385DG     O10 8842   4.296   2.906   5.626 -0.1651  0.9165  0.6054
  385DG     C11 8843   4.245   3.208   5.185  0.2835 -0.4375 -0.6810
  385DG     C12 8844   4.404   2.987   5.584  0.3446 -0.2867  0.5711
  385DG     H13 8845   4.315   3.132   5.149  1.4553 -0.1648  0.9183
  385DG     H14 8846   4.143   3.173   5.174 -0.1247  0.9318 -1.6633
  385DG     H15 8847   4.460   2.939   5.504 -0.1255 -0.5872  0.4161
  385DG     H16 8848   4.475   2.998   5.666 -0.2869 -2.6170  1.5174
  385DG     C17 8849   4.278   3.236   5.337  0.0186  0.0164  0.2370
  385DG     C18 8850   4.363   3.126   5.535 -0.4893 -0.2078  0.2616
  385DG     O19 8851   4.287   3.116   5.415 -0.1485  0.0616  0.7868
  385DG     H20 8852   4.208   3.310   5.374 -0.4147  0.4067 -1.2741
  385DG     H21 8853   4.371   3.293   5.343 -0.1284  0.5807 -1.9501
  385DG     H22 8854   4.308   3.190   5.603  1.2337  0.2658  1.2862
  385DG     H23 8855   4.461   3.170   5.511 -1.0156  0.6293 -0.4231
  386DG      C1 8856   2.440   2.405   2.055 -0.2793  0.4211  0.1218
  386DG      C2 8857   2.039   1.945   2.646 -0.0746 -0.3236  0.2342
  386DG      H3 8858   2.477   2.502   2.090 -0.2590  0.6438 -0.5089
  386DG      H4 8859   2.339   2.423   2.019 -0.3966  0.0302  0.2425
  386DG      H5 8860   2.501   2.374   1.970 -0.2433 -0.2886  0.4000
  386DG      H6 8861   2.133   1.893   2.626  0.3036 -0.2539  1.7073
  386DG      H7 8862   2.052   2.002   2.738 -0.7995 -1.0398  0.7933
  386DG      H8 8863   1.966   1.865   2.656  0.4048 -0.8206 -0.1297
  386DG      O9 8864   2.420   2.303   2.156 -0.2545  0.2538 -0.1103
  386DG     O10 8865   1.995   2.031   2.544 -0.0462 -0.3195  0.0570
  386DG     C11 8866   2.362   2.185   2.105 -0.0468  0.1382 -0.5181
  386DG     C12 8867   2.101   2.115   2.500  0.3960 -0.2401 -0.1304
  386DG     H13 8868   2.423   2.140   2.026  1.9067  1.5150  0.1151
  386DG     H14 8869   2.271   2.211   2.050 -1.3873 -1.4667  0.8341
  386DG     H15 8870   2.161   2.146   2.586  0.3200 -0.2411 -0.0781
  386DG     H16 8871   2.051   2.206   2.467 -0.1449  0.4580  2.4107
  386DG     C17 8872   2.329   2.081   2.207 -0.0912 -0.0241 -0.3927
  386DG     C18 8873   2.172   2.050   2.380 -0.1230  0.5280 -0.0867
  386DG     O19 8874   2.240   2.144   2.296 -0.3914 -0.2114  0.7461
  386DG     H20 8875   2.418   2.045   2.257 -0.2699 -0.9064 -0.6979
  386DG     H21 8876   2.278   1.994   2.166 -0.4335  0.4380 -0.9724
  386DG     H22 8877   2.226   1.964   2.419 -2.2349 -0.9194 -0.1861
  386DG     H23 8878   2.092   2.010   2.319 -0.7477  1.6895 -0.0570
  387DG      C1 8879   3.864   1.743   2.545 -0.4577  0.0984  0.6057
  387DG      C2 8880   3.933   1.012   2.292 -1.0119 -0.0109 -0.9350
  387DG      H3 8881   3.832   1.819   2.474 -0.2641 -0.2316  0.1615
  387DG      H4 8882   3.973   1.741   2.547 -0.2935  3.3025  0.9527
  387DG      H5 8883   3.830   1.762   2.647 -0.4984 -3.2896  1.3432
  387DG      H6 8884   3.897   1.079   2.214  0.0756  1.2193 -0.4043
  387DG      H7 8885   4.033   0.973   2.270 -1.2589 -2.2648  1.4877
  387DG      H8 8886   3.866   0.925   2.289 -1.5182 -0.0376  3.9032
  387DG      O9 8887   3.816   1.616   2.510 -0.1985  0.4260  0.2498
  387DG     O10 8888   3.926   1.077   2.418  0.0923 -0.1767 -0.5134
  387DG     C11 8889   3.844   1.568   2.378 -0.1375 -0.0256 -0.2401
  387DG     C12 8890   3.799   1.100   2.483 -0.5457  0.1906  0.8466
  387DG     H13 8891   3.951   1.556   2.362  0.3499  1.7108  1.3372
  387DG     H14 8892   3.816   1.647   2.308 -3.3927 -1.1041 -0.2947
  387DG     H15 8893   3.812   1.100   2.591 -0.0431  0.4628  0.7894
  387DG     H16 8894   3.748   1.007   2.461  1.6995 -1.6137  2.7199
  387DG     C17 8895   3.754   1.454   2.355  0.0382  0.1186  0.0945
  387DG     C18 8896   3.730   1.219   2.412  0.1704  0.8439  0.3596
  387DG     O19 8897   3.783   1.349   2.449  0.3144 -0.4060  0.2624
  387DG     H20 8898   3.776   1.414   2.256  0.3542  1.5473 -0.4327
  387DG     H21 8899   3.646   1.464   2.366 -0.3181 -2.0387 -0.8224
  387DG     H22 8900   3.733   1.204   2.305  1.0666 -1.4149  0.6572
  387DG     H23 8901   3.625   1.211   2.443  0.3121  0.8330  0.8543
  388DG      C1 8902   1.853   1.309  -0.010  0.0671 -0.3186  0.6313
  388DG      C2 8903   1.801   1.984   0.004 -0.2181 -0.0562  0.3991
  388DG      H3 8904   1.946   1.345  -0.055 -0.7841 -0.9609 -1.8232
  388DG      H4 8905   1.780   1.322  -0.091 -0.1945  1.2537  1.0983
  388DG      H5 8906   1.869   1.205   0.017  0.1159 -0.5225 -0.1567
  388DG      H6 8907   1.740   2.071   0.031 -1.5870 -0.8163 -0.1229
  388DG      H7 8908   1.893   2.012  -0.047  0.6302 -4.0989 -0.6436
  388DG      H8 8909   1.740   1.928  -0.067 -0.0397 -0.7569  0.7969
  388DG      O9 8910   1.823   1.390   0.103  0.0739  0.1947  0.1080
  388DG     O10 8911   1.834   1.897   0.116 -0.3063  0.4962  0.0756
  388DG     C11 8912   1.933   1.425   0.178 -0.7103 -0.0838  0.2194
  388DG     C12 8913   1.726   1.861   0.202 -0.8147  0.4384 -0.3345
  388DG     H13 8914   2.022   1.455   0.122  0.7629 -5.1485 -0.6187
  388DG     H14 8915   1.966   1.335   0.229  2.3772  1.0766  0.4859
  388DG     H15 8916   1.632   1.839   0.152 -0.0999 -1.4451 -0.9405
  388DG     H16 8917   1.703   1.938   0.276 -1.0124 -0.4665  0.5768
  388DG     C17 8918   1.879   1.528   0.281  0.1801  0.4581  0.1425
  388DG     C18 8919   1.785   1.743   0.285  0.4609 -0.4258  0.5401
  388DG     O19 8920   1.845   1.643   0.208  0.7048 -0.2640 -0.0177
  388DG     H20 8921   1.949   1.561   0.358 -2.2331  2.8897  1.4948
  388DG     H21 8922   1.791   1.488   0.331 -0.3181 -0.3701 -1.3349
  388DG     H22 8923   1.859   1.769   0.360 -0.8950  3.4370  0.7658
  388DG     H23 8924   1.703   1.698   0.341 -0.9533  2.6151  1.1130
  389DG      C1 8925   4.522   3.600   3.743  0.3090  0.1413  0.1119
  389DG      C2 8926   4.018   4.041   3.847 -0.4125 -0.0497  0.4252
  389DG      H3 8927   4.581   3.670   3.685  0.7594 -0.1477  0.2151
  389DG      H4 8928   4.454   3.545   3.677  0.4316  0.3460 -0.1871
  389DG      H5 8929   4.597   3.527   3.775 -0.2002 -1.4517 -2.0918
  389DG      H6 8930   4.087   4.123   3.867  0.9677 -1.2233  0.6123
  389DG      H7 8931   3.994   4.018   3.743  0.5519 -1.5885  0.5085
  389DG      H8 8932   3.924   4.045   3.902 -1.4694  1.2723 -1.3673
  389DG      O9 8933   4.455   3.666   3.855  0.6579  0.0716  0.0171
  389DG     O10 8934   4.070   3.928   3.908 -0.1731  0.3161 -0.0009
  389DG     C11 8935   4.380   3.572   3.936  0.3096 -0.6029 -0.3307
  389DG     C12 8936   4.113   3.964   4.037 -0.8481  0.6685 -0.2149
  389DG     H13 8937   4.449   3.497   3.974  0.7996  0.6558  1.4116
  389DG     H14 8938   4.302   3.521   3.879  0.5136 -0.6429 -0.5750
  389DG     H15 8939   4.031   4.006   4.096 -0.9100  1.5425 -0.9152
  389DG     H16 8940   4.197   4.033   4.045  0.4784 -0.9837  0.6917
  389DG     C17 8941   4.306   3.648   4.049 -0.9030 -0.8746 -0.2590
  389DG     C18 8942   4.158   3.829   4.106 -0.2097 -0.4585 -0.1741
  389DG     O19 8943   4.241   3.771   4.010 -0.3631  0.5068 -0.2024
  389DG     H20 8944   4.378   3.667   4.128 -2.1773  4.2033 -0.0169
  389DG     H21 8945   4.236   3.586   4.106  0.1555 -1.0414  0.9197
  389DG     H22 8946   4.213   3.844   4.199 -0.7918 -0.5776  0.1924
  389DG     H23 8947   4.077   3.758   4.118 -0.1805 -0.4394  0.1396
  390DG      C1 8948   4.446   0.416   2.945  0.4412  0.1683  0.0374
  390DG      C2 8949   3.956   0.210   3.360  0.5003 -0.0287  0.3638
  390DG      H3 8950   4.366   0.489   2.933  1.7805  1.5140 -1.1423
  390DG      H4 8951   4.464   0.370   2.848 -2.1561  2.0802 -1.4463
  390DG      H5 8952   4.533   0.478   2.968  0.9352 -0.9895  1.4591
  390DG      H6 8953   3.900   0.119   3.338 -0.8426  1.1062 -1.1837
  390DG      H7 8954   3.931   0.231   3.464 -0.4487  1.4435 -0.1349
  390DG      H8 8955   3.898   0.289   3.312  1.3658  1.1985  1.2716
  390DG      O9 8956   4.429   0.328   3.058  0.4634 -0.2624  0.0852
  390DG     O10 8957   4.099   0.215   3.330  0.1463  0.1789 -0.0250
  390DG     C11 8958   4.511   0.215   3.073 -0.2576  0.1374 -0.2034
  390DG     C12 8959   4.155   0.089   3.381 -0.7730 -1.3735  0.2823
  390DG     H13 8960   4.610   0.258   3.085  0.6688 -1.6105 -1.2914
  390DG     H14 8961   4.512   0.159   2.979 -0.4399  0.2310 -0.2617
  390DG     H15 8962   4.107   0.007   3.328  0.0793 -1.2740 -0.6667
  390DG     H16 8963   4.147   0.082   3.490  0.5589  0.5021  0.5449
  390DG     C17 8964   4.473   0.131   3.190  0.5721  0.1447 -1.2341
  390DG     C18 8965   4.306   0.089   3.353 -0.4627 -0.2605 -0.0311
  390DG     O19 8966   4.332   0.148   3.228 -0.4536 -0.4003 -0.2017
  390DG     H20 8967   4.525   0.178   3.273 -0.5480  0.7259 -0.8481
  390DG     H21 8968   4.502   0.028   3.166  1.5125  0.7758 -2.9883
  390DG     H22 8969   4.362   0.130   3.438 -2.1476 -0.1763  1.0955
  390DG     H23 8970   4.339  -0.014   3.339  0.3783  0.4068 -4.2244
  391DG      C1 8971   4.957   4.755   1.462  0.4655 -0.2816 -0.4383
  391DG      C2 8972   4.493   5.057   2.058  0.5616  1.0016 -0.1152
  391DG      H3 8973   4.979   4.829   1.385  2.0713  0.1110  0.3602
  391DG      H4 8974   4.867   4.700   1.435 -0.0889  0.3393  0.1012
  391DG      H5 8975   5.042   4.687   1.454  1.8244  1.3017  0.0288
  391DG      H6 8976   4.540   5.146   2.099  2.8227  0.1679 -0.7998
  391DG      H7 8977   4.385   5.049   2.072  0.8299 -3.0016  0.9164
  391DG      H8 8978   4.538   4.975   2.114 -0.3319  0.1159 -0.6604
  391DG      O9 8979   4.937   4.805   1.594  0.5669 -0.6939  0.3924
  391DG     O10 8980   4.532   5.061   1.920 -0.1515 -0.2622 -0.6761
  391DG     C11 8981   4.865   4.723   1.687 -0.3196 -0.4482 -0.8007
  391DG     C12 8982   4.670   5.093   1.890  1.5166  0.5525  0.6086
  391DG     H13 8983   4.929   4.635   1.689 -1.7732 -1.5233  0.0752
  391DG     H14 8984   4.768   4.694   1.646 -0.4375  3.0453 -3.5570
  391DG     H15 8985   4.699   5.185   1.941  1.2453  0.8330  0.2656
  391DG     H16 8986   4.687   5.125   1.787  0.5357 -0.6103  0.0639
  391DG     C17 8987   4.854   4.785   1.829  0.6833  0.2247  0.4354
  391DG     C18 8988   4.768   4.983   1.926 -0.6220  0.1395 -0.5666
  391DG     O19 8989   4.754   4.884   1.832 -0.1472 -0.3516  0.5683
  391DG     H20 8990   4.953   4.827   1.850  0.9968  0.6456 -1.6770
  391DG     H21 8991   4.844   4.710   1.908 -0.5525  0.1732  0.2476
  391DG     H22 8992   4.871   5.017   1.918 -0.5593 -0.0693 -0.6479
  391DG     H23 8993   4.748   4.948   2.027 -0.2974 -1.3935 -1.0115
  392DG      C1 8994   3.988   3.957  -0.281  0.2392 -0.4959  0.1469
  392DG      C2 8995   3.870   3.878   0.352  0.4451 -0.3377  0.6464
  392DG      H3 8996   3.969   4.042  -0.347  0.5624 -1.9431 -1.9196
  392DG      H4 8997   3.924   3.873  -0.309 -1.1195 -0.3727  2.6277
  392DG      H5 8998   4.093   3.931  -0.296 -0.2983 -2.5417 -0.3958
  392DG      H6 8999   3.876   3.862   0.460  2.9055  0.5276  0.7037
  392DG      H7 9000   3.825   3.791   0.305 -0.2104  1.2318 -1.8606
  392DG      H8 9001   3.975   3.891   0.326  0.3794  0.1787  0.6307
  392DG      O9 9002   3.976   3.989  -0.140 -0.0233  0.3152 -0.5239
  392DG     O10 9003   3.801   4.001   0.300  0.1843  0.2673  0.3100
  392DG     C11 9004   4.040   4.116  -0.115 -0.0392  0.3732  0.2142
  392DG     C12 9005   3.849   4.131   0.338 -1.1153  0.0934  0.0284
  392DG     H13 9006   3.982   4.201  -0.151 -2.2968  0.5861  3.8099
  392DG     H14 9007   4.144   4.113  -0.148 -0.9514 -0.5487 -2.8686
  392DG     H15 9008   3.886   4.128   0.441 -2.9370  0.0143  0.7081
  392DG     H16 9009   3.778   4.213   0.334  0.5776  1.5660 -1.3508
  392DG     C17 9010   4.066   4.141   0.034 -0.4399 -0.1237 -0.0698
  392DG     C18 9011   3.970   4.161   0.246  0.6998 -0.5308  0.1920
  392DG     O19 9012   3.952   4.121   0.110  0.5058  0.4264  0.0723
  392DG     H20 9013   4.110   4.239   0.047 -0.8111 -0.2370  2.4598
  392DG     H21 9014   4.141   4.070   0.069  0.7875  0.1975 -1.8700
  392DG     H22 9015   3.992   4.267   0.252  2.5023 -0.8911  0.8795
  392DG     H23 9016   4.064   4.119   0.282  1.1892 -0.5781 -1.1050
  393DG      C1 9017   0.886   4.665   2.414  0.3049  0.0038  0.1681
  393DG      C2 9018   0.271   4.587   2.674 -0.0816  0.2702  0.4109
  393DG      H3 9019   0.864   4.769   2.439 -0.0682 -0.3384  1.3432
  393DG      H4 9020   0.891   4.674   2.306  1.4512  1.9888  0.3465
  393DG      H5 9021   0.989   4.641   2.442  0.9103  1.4805 -0.7252
  393DG      H6 9022   0.259   4.695   2.678  1.6037  0.6144 -1.7396
  393DG      H7 9023   0.171   4.546   2.664  0.2676 -0.8030  1.1617
  393DG      H8 9024   0.294   4.551   2.774  0.1211  0.5350  0.4627
  393DG      O9 9025   0.772   4.584   2.454  0.3863  0.4572  0.3195
  393DG     O10 9026   0.358   4.536   2.571 -0.1077  0.0954  0.1890
  393DG     C11 9027   0.798   4.445   2.446 -0.3046  0.0514  0.3703
  393DG     C12 9028   0.390   4.396   2.592 -0.3291  0.4878  0.7034
  393DG     H13 9029   0.879   4.422   2.516 -2.2442 -1.2017  2.3288
  393DG     H14 9030   0.816   4.409   2.345 -1.5423 -1.4086  0.6347
  393DG     H15 9031   0.300   4.336   2.604  0.3478 -0.4684  1.0836
  393DG     H16 9032   0.451   4.390   2.683 -0.4261  0.5858  0.7753
  393DG     C17 9033   0.675   4.364   2.486 -0.1149  0.4980 -0.2871
  393DG     C18 9034   0.446   4.345   2.459 -0.0117 -0.6464  0.1000
  393DG     O19 9035   0.566   4.409   2.411 -0.2727  0.0379 -0.3654
  393DG     H20 9036   0.666   4.382   2.593  0.9957  0.5848 -0.1904
  393DG     H21 9037   0.696   4.259   2.467 -1.0704  0.1951  0.3017
  393DG     H22 9038   0.460   4.236   2.459  0.9441 -0.5645 -1.6890
  393DG     H23 9039   0.363   4.360   2.390 -0.2687  1.0501  0.7447
  394DG      C1 9040   4.709   0.801   2.215 -0.2994 -1.1695  0.4961
  394DG      C2 9041   5.097   1.239   1.672 -0.3191 -0.1943 -0.1799
  394DG      H3 9042   4.613   0.760   2.182 -1.0355  0.2660  0.7793
  394DG      H4 9043   4.692   0.845   2.314  0.9851  2.0423 -0.5822
  394DG      H5 9044   4.769   0.710   2.220  0.6898 -0.5532 -0.1490
  394DG      H6 9045   5.061   1.239   1.569 -2.0552  0.6033  0.3870
  394DG      H7 9046   5.115   1.344   1.697  0.0400  0.3553 -2.5069
  394DG      H8 9047   5.199   1.201   1.671 -0.1649  0.1697 -2.2608
  394DG      O9 9048   4.747   0.903   2.130 -0.5269 -0.6284 -0.4630
  394DG     O10 9049   5.016   1.184   1.763 -0.0708  0.2477  0.4996
  394DG     C11 9050   4.814   0.861   2.014  0.9817 -0.1236 -0.2284
  394DG     C12 9051   4.879   1.231   1.765 -0.4233  0.6723  0.0093
  394DG     H13 9052   4.752   0.808   1.942  2.3171  1.1691 -2.4303
  394DG     H14 9053   4.894   0.789   2.035  0.2838 -1.5015 -2.0473
  394DG     H15 9054   4.821   1.184   1.685 -1.4815  1.4515  0.3081
  394DG     H16 9055   4.881   1.336   1.735 -0.6201  0.4163 -0.9580
  394DG     C17 9056   4.870   0.981   1.940 -0.0029  0.4572  1.0129
  394DG     C18 9057   4.820   1.212   1.906  0.3831  0.7811  0.2280
  394DG     O19 9058   4.777   1.086   1.940  0.0652  0.1063  0.1322
  394DG     H20 9059   4.890   0.962   1.835 -1.3200  1.2763  0.5883
  394DG     H21 9060   4.959   1.016   1.992 -0.8983 -0.6154  3.4114
  394DG     H22 9061   4.890   1.244   1.984 -0.1753 -2.1132  2.1006
  394DG     H23 9062   4.735   1.276   1.929 -0.8583 -0.6835 -0.1625
  395DG      C1 9063   0.765  -0.166   4.155 -0.1541 -0.3926  0.2738
  395DG      C2 9064   1.167   0.506   3.985  0.2238 -0.1391 -0.3983
  395DG      H3 9065   0.851  -0.233   4.152  1.3788  1.5015 -1.2514
  395DG      H4 9066   0.675  -0.207   4.110 -2.1141  1.1932  2.5071
  395DG      H5 9067   0.736  -0.143   4.258 -1.6699  1.6939 -0.5385
  395DG      H6 9068   1.160   0.557   4.080 -0.2200  0.0874 -0.5522
  395DG      H7 9069   1.264   0.455   3.986 -0.2800 -1.1164  0.5786
  395DG      H8 9070   1.153   0.578   3.904 -1.6853  0.3596  0.3298
  395DG      O9 9071   0.792  -0.035   4.089 -0.0888 -0.0848 -0.0220
  395DG     O10 9072   1.051   0.414   3.985  0.3952  0.3029  0.0519
  395DG     C11 9073   0.681   0.055   4.087  0.2086  0.0060  0.2131
  395DG     C12 9074   1.008   0.347   3.858  0.2763  0.2802  0.5461
  395DG     H13 9075   0.687   0.105   4.184 -1.0961  0.1045  0.2581
  395DG     H14 9076   0.579   0.016   4.087 -0.1406  0.8160 -2.0103
  395DG     H15 9077   1.073   0.259   3.855 -0.3815 -0.2853  1.8707
  395DG     H16 9078   1.017   0.416   3.774  2.1241 -0.9007 -0.2940
  395DG     C17 9079   0.706   0.166   3.976 -0.5777  0.0385  0.1100
  395DG     C18 9080   0.863   0.299   3.866 -0.5586  0.6496 -0.5895
  395DG     O19 9081   0.841   0.208   3.974  0.0799  0.1343 -0.5860
  395DG     H20 9082   0.627   0.240   3.987  1.1239  1.6261  2.5250
  395DG     H21 9083   0.681   0.120   3.880  0.2878  0.6140 -0.4044
  395DG     H22 9084   0.801   0.388   3.878 -0.2537  0.8534 -0.4970
  395DG     H23 9085   0.830   0.255   3.772 -2.3096  1.8333 -0.5693
  396DG      C1 9086   1.885   5.209   0.993 -0.6205  0.0043 -0.2406
  396DG      C2 9087   1.800   4.593   0.749 -0.8034  0.3352  0.5228
  396DG      H3 9088   1.963   5.234   0.922 -1.4411  2.1709 -0.4764
  396DG      H4 9089   1.912   5.275   1.076  3.5840  1.9791 -2.8594
  396DG      H5 9090   1.797   5.257   0.948  0.2724  2.5233  0.4958
  396DG      H6 9091   1.879   4.640   0.691  0.0807 -1.7566 -0.0585
  396DG      H7 9092   1.829   4.490   0.770 -3.0848 -0.2158  1.3522
  396DG      H8 9093   1.704   4.594   0.696 -0.0576 -0.1581 -0.8742
  396DG      O9 9094   1.870   5.072   1.012  0.4599  0.4632 -0.8004
  396DG     O10 9095   1.803   4.666   0.871 -0.0237  0.3105 -0.3104
  396DG     C11 9096   1.814   5.039   1.137  1.0751  0.0340 -0.3198
  396DG     C12 9097   1.741   4.602   0.978 -0.6835 -1.2864 -0.5881
  396DG     H13 9098   1.706   5.056   1.141  1.0951  0.0018  0.9211
  396DG     H14 9099   1.846   5.114   1.210 -0.2537 -0.0473  0.3834
  396DG     H15 9100   1.775   4.501   1.002  0.0638 -0.3159  3.1762
  396DG     H16 9101   1.634   4.599   0.958 -1.3265  0.1986  2.1023
  396DG     C17 9102   1.839   4.888   1.172 -0.2734 -0.1424 -0.2097
  396DG     C18 9103   1.775   4.675   1.110 -0.4085 -0.3665 -0.1111
  396DG     O19 9104   1.765   4.808   1.078 -0.5323  0.1821 -0.2095
  396DG     H20 9105   1.803   4.862   1.272  0.4925  0.8036  0.3369
  396DG     H21 9106   1.947   4.874   1.178  0.4788  4.4608  1.9509
  396DG     H22 9107   1.718   4.645   1.198 -1.0177 -0.6918 -0.6039
  396DG     H23 9108   1.876   4.639   1.131  0.1476  0.3886 -1.3885
  397DG      C1 9109   0.912   5.562   0.798  0.2111  0.1623  0.6630
  397DG      C2 9110   0.748   4.960   0.682 -0.0072 -0.3843  0.4787
  397DG      H3 9111   0.889   5.563   0.692  0.4360  0.3431  0.6138
  397DG      H4 9112   1.020   5.559   0.817 -0.1650 -0.1231  3.0883
  397DG      H5 9113   0.869   5.652   0.843  0.3957  0.0529  1.0606
  397DG      H6 9114   0.854   4.978   0.666 -0.3234  0.6747 -0.4914
  397DG      H7 9115   0.732   4.855   0.708 -0.1992 -0.3492  0.4986
  397DG      H8 9116   0.704   4.982   0.585  1.4075 -0.0479 -0.1124
  397DG      O9 9117   0.853   5.453   0.870 -0.2662  0.8644  0.0164
  397DG     O10 9118   0.696   5.045   0.780 -0.1106  0.3051  0.3109
  397DG     C11 9119   0.899   5.440   1.007 -0.3193 -0.5974  0.3629
  397DG     C12 9120   0.735   5.003   0.907  0.1734 -0.3401 -0.9524
  397DG     H13 9121   0.879   5.528   1.069  1.1357  1.2460 -1.6473
  397DG     H14 9122   1.007   5.425   1.011  0.1396  1.9257 -0.9448
  397DG     H15 9123   0.839   4.972   0.917 -0.4241 -1.9540  0.8731
  397DG     H16 9124   0.677   4.914   0.932  0.0954 -0.5793 -1.9504
  397DG     C17 9125   0.826   5.317   1.077  0.4253  0.1350 -0.2420
  397DG     C18 9126   0.723   5.115   1.012 -0.0813  1.3285  0.2732
  397DG     O19 9127   0.810   5.218   0.982 -0.5200  0.0745  0.9510
  397DG     H20 9128   0.729   5.347   1.116 -0.1532  0.7674 -2.0545
  397DG     H21 9129   0.883   5.274   1.159 -1.0067 -0.6186  0.3855
  397DG     H22 9130   0.622   5.155   1.022 -1.2958 -1.6412  0.8169
  397DG     H23 9131   0.746   5.075   1.111 -0.2678 -0.0372 -0.2280
  398DG      C1 9132   4.668   0.362   4.190  0.2120 -0.7913  0.0657
  398DG      C2 9133   4.219   0.337   3.691  0.0141  0.1577 -0.1019
  398DG      H3 9134   4.600   0.422   4.251 -3.7594 -3.6946 -1.0845
  398DG      H4 9135   4.770   0.347   4.227  0.8382 -1.2378 -1.7457
  398DG      H5 9136   4.617   0.266   4.196  0.8906 -1.1999 -0.5211
  398DG      H6 9137   4.194   0.237   3.725  0.9724  0.6585  2.2429
  398DG      H7 9138   4.134   0.402   3.714 -0.1520 -0.6187  1.6403
  398DG      H8 9139   4.215   0.332   3.582 -1.3068 -0.6103 -0.0423
  398DG      O9 9140   4.669   0.388   4.049 -0.2510 -0.5741 -0.0256
  398DG     O10 9141   4.339   0.390   3.745 -0.2380 -0.1432 -0.6380
  398DG     C11 9142   4.722   0.521   4.024  0.3181  0.9182 -0.2665
  398DG     C12 9143   4.365   0.528   3.714  0.6262 -0.1665 -0.0330
  398DG     H13 9144   4.830   0.524   4.041  0.4588  1.3074 -1.1888
  398DG     H14 9145   4.669   0.598   4.079 -1.4435  1.4452 -2.5736
  398DG     H15 9146   4.291   0.591   3.763  1.8953  0.1558  1.5438
  398DG     H16 9147   4.343   0.542   3.608  0.0294  1.0197  0.2318
  398DG     C17 9148   4.699   0.558   3.878  0.7256 -0.1602 -0.0732
  398DG     C18 9149   4.508   0.574   3.735 -0.3971  0.0688 -0.2074
  398DG     O19 9150   4.553   0.556   3.866 -0.4520  0.1659 -0.3214
  398DG     H20 9151   4.738   0.485   3.807  2.3208  0.0214  0.5786
  398DG     H21 9152   4.739   0.654   3.847  3.8267 -1.0379  0.8614
  398DG     H22 9153   4.571   0.528   3.658 -2.9115 -0.0185 -2.3407
  398DG     H23 9154   4.511   0.682   3.715 -2.4607  0.2062 -0.0085
  399DG      C1 9155   2.708   2.743   0.723 -0.0792  0.4245 -0.0847
  399DG      C2 9156   2.929   3.227   1.101 -0.3877 -0.1298  0.2907
  399DG      H3 9157   2.790   2.744   0.651  0.0028  2.5544 -0.0406
  399DG      H4 9158   2.624   2.804   0.691 -2.8633 -2.4620  1.2713
  399DG      H5 9159   2.663   2.644   0.728 -0.7372  0.7135 -0.2633
  399DG      H6 9160   2.928   3.280   1.196  0.7319 -0.8280  0.7202
  399DG      H7 9161   3.022   3.269   1.062 -0.0927  0.5484  1.6895
  399DG      H8 9162   2.858   3.271   1.030  1.4992  0.9122 -1.0506
  399DG      O9 9163   2.754   2.770   0.857 -0.2824 -0.2797  0.7114
  399DG     O10 9164   2.917   3.095   1.097 -0.1991  0.0000 -0.0983
  399DG     C11 9165   2.852   2.675   0.907 -0.9117 -0.3809  0.3724
  399DG     C12 9166   3.034   3.031   1.158  0.6770 -0.1985  0.2484
  399DG     H13 9167   2.934   2.683   0.835 -2.5435  0.5656 -1.4752
  399DG     H14 9168   2.804   2.579   0.894 -2.4831  0.5733 -1.4931
  399DG     H15 9169   3.050   3.074   1.257  0.3187  1.3232 -0.3242
  399DG     H16 9170   3.129   3.046   1.106  1.9498 -1.9780  1.9549
  399DG     C17 9171   2.882   2.709   1.055 -0.1299  0.4602 -0.4905
  399DG     C18 9172   3.010   2.879   1.175  0.1405 -0.0079 -0.4942
  399DG     O19 9173   2.932   2.839   1.059  0.1298  0.7040  0.4043
  399DG     H20 9174   2.955   2.644   1.104  0.1467 -1.5065 -3.2602
  399DG     H21 9175   2.790   2.709   1.112  1.5894  0.6682  2.4873
  399DG     H22 9176   3.105   2.827   1.185  0.3126  0.1510 -1.2414
  399DG     H23 9177   2.951   2.859   1.265 -0.3875  1.7927 -0.3967
  400DG      C1 9178   3.500   2.116   2.498  0.4439 -0.1789  0.1295
  400DG      C2 9179   3.858   1.869   1.952 -0.2917 -0.8748 -0.5272
  400DG      H3 9180   3.511   2.061   2.591 -1.9037 -1.0724 -0.0560
  400DG      H4 9181   3.519   2.221   2.522 -2.1084  0.7319 -1.3955
  400DG      H5 9182   3.575   2.096   2.422 -3.7066  0.5626 -4.7044
  400DG      H6 9183   3.919   1.958   1.970 -1.4722 -0.0094 -0.6807
  400DG      H7 9184   3.894   1.796   2.025 -1.4015 -0.1549  0.7739
  400DG      H8 9185   3.892   1.825   1.858 -1.6217 -2.4193 -0.3167
  400DG      O9 9186   3.361   2.091   2.466 -0.2302 -0.3012 -0.3539
  400DG     O10 9187   3.713   1.884   1.968  0.0988  0.4459  0.0233
  400DG     C11 9188   3.324   2.161   2.345  0.5281 -0.7760 -0.1916
  400DG     C12 9189   3.674   1.956   2.089  0.2659 -0.3985  0.4544
  400DG     H13 9190   3.370   2.259   2.337 -1.2975  0.1669  0.2759
  400DG     H14 9191   3.217   2.179   2.356  0.3697 -0.1783 -2.3393
  400DG     H15 9192   3.708   2.058   2.071 -3.4933  0.5966 -2.3032
  400DG     H16 9193   3.720   1.919   2.180 -0.2128 -0.9045  0.4913
  400DG     C17 9194   3.349   2.071   2.225 -0.0648  0.1614 -0.7005
  400DG     C18 9195   3.529   1.962   2.112 -0.5860 -0.3226 -0.2849
  400DG     O19 9196   3.493   2.055   2.218 -0.2394 -0.1610  0.5343
  400DG     H20 9197   3.317   2.134   2.142 -1.1546  0.7774  0.1526
  400DG     H21 9198   3.287   1.983   2.240  2.0758 -0.9038  3.1962
  400DG     H22 9199   3.479   1.986   2.018  0.2743 -1.9588 -1.1832
  400DG     H23 9200   3.507   1.862   2.150  1.6144 -0.6774  0.1819
  401DG      C1 9201   1.847   5.172   4.165  0.5509  0.0993  0.5856
  401DG      C2 9202   1.564   5.392   3.617  0.3873  1.1015  0.7184
  401DG      H3 9203   1.922   5.142   4.238  1.3716  0.8323  0.0583
  401DG      H4 9204   1.822   5.080   4.111 -2.0784  0.5614  0.9106
  401DG      H5 9205   1.767   5.189   4.237  0.3748 -0.3114  0.4876
  401DG      H6 9206   1.544   5.460   3.535 -0.3247  2.4043  1.9255
  401DG      H7 9207   1.592   5.297   3.571 -0.4277  0.8694  0.6786
  401DG      H8 9208   1.467   5.397   3.666  0.1730 -0.5782  0.5438
  401DG      O9 9209   1.866   5.280   4.078 -0.4692 -0.1145  0.2474
  401DG     O10 9210   1.672   5.434   3.702  0.2849  0.2956 -0.1887
  401DG     C11 9211   1.988   5.266   4.005 -0.2830 -1.0740  0.2625
  401DG     C12 9212   1.793   5.457   3.639 -0.3036  0.1271 -0.4490
  401DG     H13 9213   1.981   5.176   3.944  0.1738 -0.4433 -0.7491
  401DG     H14 9214   2.065   5.254   4.081 -0.5605 -2.1478  0.3919
  401DG     H15 9215   1.785   5.537   3.566  1.8059  0.7513 -0.0696
  401DG     H16 9216   1.817   5.377   3.570  1.1395  0.5737 -0.4993
  401DG     C17 9217   2.018   5.389   3.919  0.1427  0.0091 -0.5528
  401DG     C18 9218   1.913   5.478   3.727  0.4733 -0.5466 -0.2743
  401DG     O19 9219   1.911   5.374   3.825 -0.7545  0.0431  0.0809
  401DG     H20 9220   2.121   5.386   3.883  0.4928 -0.5335  0.4471
  401DG     H21 9221   2.017   5.484   3.972 -0.2891 -0.1912 -0.1925
  401DG     H22 9222   2.013   5.485   3.684  1.1226 -0.9862  1.1160
  401DG     H23 9223   1.893   5.576   3.772  2.1964 -0.0612 -0.4753
  402DG      C1 9224   4.316   4.457   5.350 -0.8085 -0.4633 -0.5989
  402DG      C2 9225   4.125   3.745   5.560  0.1734  0.8192 -1.0728
  402DG      H3 9226   4.238   4.522   5.390  1.7471  1.4972  1.6075
  402DG      H4 9227   4.305   4.433   5.244 -1.9327 -1.7223 -0.2270
  402DG      H5 9228   4.403   4.522   5.347  0.7842 -2.4216  0.7336
  402DG      H6 9229   4.078   3.715   5.466  0.7739  1.9429 -1.7659
  402DG      H7 9230   4.135   3.659   5.625 -0.3305  2.6367  1.5716
  402DG      H8 9231   4.052   3.810   5.608  2.1852  1.9518  0.6075
  402DG      O9 9232   4.346   4.342   5.432 -0.0654 -0.8791  0.4282
  402DG     O10 9233   4.236   3.822   5.525 -0.0445  0.0301  0.1450
  402DG     C11 9234   4.456   4.271   5.384 -1.1431 -0.3975 -0.1449
  402DG     C12 9235   4.321   3.864   5.634 -0.1919  0.7721 -0.6008
  402DG     H13 9236   4.544   4.334   5.374 -0.2792 -1.8308 -2.5672
  402DG     H14 9237   4.453   4.235   5.281 -2.7850  1.5959 -0.8496
  402DG     H15 9238   4.374   3.779   5.677  0.1386  1.3348  0.1254
  402DG     H16 9239   4.266   3.902   5.720  1.8172  1.4980  0.4400
  402DG     C17 9240   4.500   4.152   5.477  0.8818  0.5862  0.4186
  402DG     C18 9241   4.426   3.964   5.585 -0.3172  0.1010 -0.0912
  402DG     O19 9242   4.386   4.072   5.509  0.3027  0.3315 -0.5283
  402DG     H20 9243   4.531   4.204   5.567 -1.7249  1.5285  0.8876
  402DG     H21 9244   4.576   4.099   5.420  0.9880  1.5307 -0.3590
  402DG     H22 9245   4.477   3.999   5.675 -0.7818  0.4678  0.0345
  402DG     H23 9246   4.501   3.911   5.526  0.5511  0.9208  0.2549
  403DG      C1 9247   2.511   4.400   2.831 -1.0544 -0.0715 -0.0815
  403DG      C2 9248   2.146   4.852   2.512 -0.0106  0.0658  0.7506
  403DG      H3 9249   2.554   4.327   2.763  1.3162  0.7815  0.4066
  403DG      H4 9250   2.405   4.378   2.844 -0.3587 -3.2998  0.8773
  403DG      H5 9251   2.555   4.372   2.927  0.8232  2.3113 -0.1549
  403DG      H6 9252   2.198   4.764   2.475  1.0242  0.4875  1.1615
  403DG      H7 9253   2.043   4.825   2.534 -0.1641  0.4788  0.5543
  403DG      H8 9254   2.134   4.927   2.433  0.9445  0.9272  1.3947
  403DG      O9 9255   2.521   4.543   2.806  0.0375 -0.1488  0.9033
  403DG     O10 9256   2.202   4.899   2.636 -0.1590 -0.4421  1.1755
  403DG     C11 9257   2.470   4.616   2.913 -0.2771  0.3014  0.0758
  403DG     C12 9258   2.319   4.969   2.615  0.2594  0.4810 -0.1286
  403DG     H13 9259   2.524   4.586   3.003  1.2067 -2.1744 -1.5500
  403DG     H14 9260   2.365   4.592   2.932  0.1274  0.7925  3.6470
  403DG     H15 9261   2.294   5.075   2.606 -1.3462 -0.0313 -2.5520
  403DG     H16 9262   2.373   4.943   2.524  0.4956  0.9774 -0.1332
  403DG     C17 9263   2.481   4.769   2.886  0.9478  0.0376 -0.2718
  403DG     C18 9264   2.420   4.937   2.730  0.0955 -0.2352 -0.4333
  403DG     O19 9265   2.427   4.795   2.754 -0.6430  0.4227 -0.6025
  403DG     H20 9266   2.575   4.822   2.902 -0.0816  1.3284  1.9827
  403DG     H21 9267   2.422   4.813   2.966  1.9538 -0.9230  1.0415
  403DG     H22 9268   2.514   4.991   2.726 -0.3093  0.5354  0.1915
  403DG     H23 9269   2.375   4.984   2.818  0.1591 -1.3126  0.1965
  404DG      C1 9270   1.803   2.098   1.501  0.3703 -0.2637 -0.3441
  404DG      C2 9271   1.679   2.674   1.839  0.5083  0.4032  0.0807
  404DG      H3 9272   1.700   2.098   1.537  1.2247 -1.2194  2.3937
  404DG      H4 9273   1.852   2.001   1.511 -0.0561 -0.3570  1.0382
  404DG      H5 9274   1.800   2.141   1.401 -0.2301 -0.7874 -0.5548
  404DG      H6 9275   1.711   2.725   1.929  1.0416 -0.7032  0.5342
  404DG      H7 9276   1.683   2.751   1.762  2.5993  0.4525  0.1699
  404DG      H8 9277   1.582   2.632   1.864  1.2119 -0.4068  1.5681
  404DG      O9 9278   1.872   2.191   1.586 -0.2596 -0.2959  0.7177
  404DG     O10 9279   1.767   2.568   1.819  0.6952  0.2136 -0.5170
  404DG     C11 9280   2.000   2.223   1.550 -0.2389 -0.2355  0.2155
  404DG     C12 9281   1.897   2.618   1.792 -0.6023 -0.1897 -0.5432
  404DG     H13 9282   2.009   2.261   1.448 -0.3116  0.1194  0.3386
  404DG     H14 9283   2.043   2.123   1.555 -1.1140 -0.6748 -0.7378
  404DG     H15 9284   1.925   2.683   1.875 -0.3847  1.4816 -1.8760
  404DG     H16 9285   1.891   2.680   1.703 -1.7388  0.8241  0.2021
  404DG     C17 9286   2.063   2.321   1.647  0.0117  0.1105  0.3517
  404DG     C18 9287   1.994   2.508   1.780  0.0872 -0.3909 -0.0574
  404DG     O19 9288   1.972   2.428   1.666  0.4465 -0.0084 -0.3393
  404DG     H20 9289   2.164   2.343   1.613 -0.5674  1.3323 -0.6430
  404DG     H21 9290   2.066   2.261   1.738  1.2465 -0.0382  0.2282
  404DG     H22 9291   2.093   2.553   1.784  0.2866 -0.8951  0.8374
  404DG     H23 9292   1.981   2.450   1.871  0.1933 -0.0223  0.1938
  405DG      C1 9293   0.639   0.772   1.481  0.3807  0.4848 -0.1091
  405DG      C2 9294   0.779   1.399   1.522 -0.8077 -0.4401  0.0818
  405DG      H3 9295   0.712   0.701   1.518 -0.4347 -1.1067 -1.4180
  405DG      H4 9296   0.663   0.796   1.378 -0.0084 -0.7205 -0.4939
  405DG      H5 9297   0.538   0.732   1.492 -0.1456  1.9821  0.8053
  405DG      H6 9298   0.757   1.503   1.499  1.1089 -0.0643 -0.2072
  405DG      H7 9299   0.866   1.378   1.461  0.0031  1.4226  0.5379
  405DG      H8 9300   0.692   1.338   1.496 -0.6896 -0.1231 -1.0950
  405DG      O9 9301   0.668   0.885   1.559  0.0393 -0.4771 -0.4388
  405DG     O10 9302   0.808   1.402   1.668  0.0730  0.0505  0.3233
  405DG     C11 9303   0.574   0.991   1.553 -0.4535  0.4873 -0.4510
  405DG     C12 9304   0.892   1.298   1.721 -0.9116  0.2990 -0.5990
  405DG     H13 9305   0.470   0.960   1.560 -0.2606 -0.6916 -2.0301
  405DG     H14 9306   0.589   1.039   1.456 -1.0739 -1.6903 -1.6877
  405DG     H15 9307   0.941   1.336   1.811  1.5682 -3.7205  0.0291
  405DG     H16 9308   0.972   1.274   1.650  0.8006 -0.9610  1.6020
  405DG     C17 9309   0.613   1.077   1.679  0.1231  0.3731 -0.3950
  405DG     C18 9310   0.812   1.174   1.768  0.0521  0.2237  0.8126
  405DG     O19 9311   0.748   1.125   1.649  0.4135 -0.3968  0.6358
  405DG     H20 9312   0.616   1.018   1.771  3.9304 -0.5078 -0.8878
  405DG     H21 9313   0.543   1.160   1.692 -0.3409  0.6913 -3.8995
  405DG     H22 9314   0.884   1.106   1.813  2.1535  3.1182  2.1875
  405DG     H23 9315   0.746   1.190   1.853  1.6517 -0.4381  2.2339
  406DG      C1 9316   4.035   0.870   1.573 -0.1183  0.2804  0.6758
  406DG      C2 9317   4.441   0.443   1.139  0.3432 -0.1773  0.0298
  406DG      H3 9318   4.002   0.913   1.667  2.3964  2.0161  0.8570
  406DG      H4 9319   4.086   0.780   1.608 -2.8952 -1.3983  0.7101
  406DG      H5 9320   3.948   0.829   1.523 -0.2964  0.0736  1.1536
  406DG      H6 9321   4.337   0.412   1.145 -0.1658  0.6420 -3.0506
  406DG      H7 9322   4.457   0.497   1.046 -1.0840  1.4910  0.6969
  406DG      H8 9323   4.502   0.353   1.142 -0.3423 -0.6451  0.4349
  406DG      O9 9324   4.102   0.969   1.495 -0.3993  0.1326 -0.1332
  406DG     O10 9325   4.477   0.531   1.248  0.3974 -0.2834 -0.5297
  406DG     C11 9326   4.237   1.008   1.526  0.8032  0.8940  0.6664
  406DG     C12 9327   4.381   0.633   1.273 -0.5307 -0.4249  0.9549
  406DG     H13 9328   4.230   1.071   1.615 -1.0132  2.1004 -0.2727
  406DG     H14 9329   4.281   1.071   1.449  0.1949  0.6084  0.0686
  406DG     H15 9330   4.279   0.597   1.291 -1.0383  1.1611  1.4395
  406DG     H16 9331   4.369   0.701   1.188  0.1373 -2.3310 -0.7482
  406DG     C17 9332   4.330   0.890   1.539 -0.6633 -0.3980 -0.1778
  406DG     C18 9333   4.410   0.709   1.406 -0.5780 -0.3808  0.3443
  406DG     O19 9334   4.307   0.801   1.428  0.1460 -0.3109 -0.5729
  406DG     H20 9335   4.319   0.848   1.639  3.7055  0.3802  0.8423
  406DG     H21 9336   4.433   0.924   1.542  0.1890 -2.7557 -0.6314
  406DG     H22 9337   4.429   0.637   1.487  0.4919 -0.0593  0.4050
  406DG     H23 9338   4.506   0.758   1.391 -0.3697 -1.4310 -2.3346
  407DG      C1 9339   5.233   3.304   2.510  0.7716 -0.1250  0.5182
  407DG      C2 9340   5.373   3.745   2.919  0.1672  0.0752  0.3678
  407DG      H3 9341   5.310   3.234   2.478  0.5946 -0.6368  1.1817
  407DG      H4 9342   5.230   3.401   2.461 -0.3681  1.3534  3.2773
  407DG      H5 9343   5.140   3.251   2.490  1.1791 -1.0137  0.9102
  407DG      H6 9344   5.410   3.797   3.007  3.3707 -1.9404  0.3995
  407DG      H7 9345   5.393   3.809   2.833  0.2078 -1.3218 -0.7144
  407DG      H8 9346   5.265   3.734   2.924  0.3608 -1.8483  1.0491
  407DG      O9 9347   5.228   3.325   2.648  0.0068 -0.0630 -0.1177
  407DG     O10 9348   5.451   3.632   2.894 -0.1530  0.2749  0.0394
  407DG     C11 9349   5.268   3.211   2.733 -0.0706  0.1066  0.0660
  407DG     C12 9350   5.431   3.531   2.988  0.4403  0.2773 -0.2373
  407DG     H13 9351   5.353   3.171   2.677  0.5173  1.6682 -0.1979
  407DG     H14 9352   5.194   3.131   2.745 -0.3832  0.2083 -1.0987
  407DG     H15 9353   5.326   3.505   2.999  0.7130 -1.4618 -1.2743
  407DG     H16 9354   5.458   3.570   3.086  0.6766  0.3387 -0.3251
  407DG     C17 9355   5.336   3.256   2.864  0.2081  0.0485 -0.1184
  407DG     C18 9356   5.514   3.399   2.950 -0.3947 -0.2308 -0.7999
  407DG     O19 9357   5.449   3.348   2.832 -0.1037  0.3332 -0.1031
  407DG     H20 9358   5.374   3.166   2.912  0.4159 -0.6290 -1.4922
  407DG     H21 9359   5.263   3.308   2.926  0.1163  0.2291 -0.3754
  407DG     H22 9360   5.618   3.411   2.922 -1.0956 -0.9336 -4.1960
  407DG     H23 9361   5.499   3.328   3.032 -2.1983  0.8534 -0.1258
  408DG      C1 9362   5.234   4.489   4.822  0.3100  0.4198  0.1451
  408DG      C2 9363   5.028   3.598   5.046  0.0536 -0.0594  0.0292
  408DG      H3 9364   5.241   4.568   4.747 -1.4935  0.2405 -0.2594
  408DG      H4 9365   5.336   4.451   4.827 -0.8594 -3.2127 -0.6487
  408DG      H5 9366   5.203   4.538   4.914  0.5147 -1.0494  1.0136
  408DG      H6 9367   5.009   3.626   5.150 -0.8790 -0.3033 -0.0683
  408DG      H7 9368   4.960   3.516   5.021 -1.7497  1.0285  1.1454
  408DG      H8 9369   5.131   3.564   5.046  0.4827  1.1556  0.9988
  408DG      O9 9370   5.151   4.381   4.785 -0.0962 -0.5172  0.0827
  408DG     O10 9371   5.011   3.712   4.962 -0.1927  0.1838  0.1752
  408DG     C11 9372   5.115   4.307   4.899 -0.2434 -0.1462  0.7414
  408DG     C12 9373   5.037   3.838   5.026 -0.2178  0.0525  0.9346
  408DG     H13 9374   5.041   4.366   4.953 -1.1204 -0.7313  0.2131
  408DG     H14 9375   5.199   4.291   4.966 -0.0122  2.3583  1.1474
  408DG     H15 9376   5.145   3.830   5.024 -0.2632 -1.9657  3.1564
  408DG     H16 9377   5.001   3.857   5.127  0.2894 -0.9061  1.2950
  408DG     C17 9378   5.046   4.177   4.862 -0.1024 -0.2263  1.2322
  408DG     C18 9379   5.002   3.951   4.922 -0.4587 -0.8570  0.3190
  408DG     O19 9380   5.053   4.077   4.965 -0.1310 -0.0404 -0.0759
  408DG     H20 9381   5.105   4.147   4.776  0.1679 -0.4517  1.4932
  408DG     H21 9382   4.944   4.192   4.828  0.6780  1.7587 -0.4281
  408DG     H22 9383   5.037   3.913   4.826 -1.0811 -0.1968 -0.1819
  408DG     H23 9384   4.893   3.958   4.918 -0.4995 -1.6489  0.0269
  409DG      C1 9385  -0.051   2.171   4.992 -1.1466 -0.1363  0.3555
  409DG      C2 9386   0.505   1.676   4.964 -0.3446  0.7968  0.3278
  409DG      H3 9387  -0.142   2.133   4.945 -0.6467 -2.8924  1.4460
  409DG      H4 9388   0.008   2.227   4.919 -1.5321  0.2660  0.3446
  409DG      H5 9389  -0.074   2.253   5.060 -0.7455  1.3445 -1.2286
  409DG      H6 9390   0.553   1.769   4.934 -0.9986  0.9749 -0.1954
  409DG      H7 9391   0.565   1.614   5.032 -0.8289  1.4940  1.4146
  409DG      H8 9392   0.497   1.620   4.871 -1.5478  3.6242 -1.3841
  409DG      O9 9393   0.018   2.058   5.050 -0.6134 -0.1562 -0.4224
  409DG     O10 9394   0.378   1.710   5.015 -0.2866  0.2931 -0.1495
  409DG     C11 9395  -0.047   1.964   5.138  0.1106 -0.3776  0.0118
  409DG     C12 9396   0.292   1.616   5.062 -0.0653  0.2546 -0.7141
  409DG     H13 9397  -0.131   1.916   5.088  0.8066 -0.0978 -1.4866
  409DG     H14 9398  -0.089   2.029   5.215  0.4093  0.0889 -0.2165
  409DG     H15 9399   0.349   1.536   5.110  1.1740  0.6461 -1.4716
  409DG     H16 9400   0.247   1.573   4.973 -0.4132 -1.2038  0.1208
  409DG     C17 9401   0.048   1.862   5.198  0.1791  0.2961  0.0997
  409DG     C18 9402   0.186   1.681   5.154  0.3177 -0.2328  0.0243
  409DG     O19 9403   0.110   1.785   5.093 -0.3172 -0.6795  0.2957
  409DG     H20 9404   0.003   1.793   5.270  0.7948  0.8799  1.0637
  409DG     H21 9405   0.123   1.908   5.262  0.4331 -0.2690  0.2204
  409DG     H22 9406   0.112   1.610   5.191 -0.8414  1.2932  0.7375
  409DG     H23 9407   0.242   1.720   5.239  0.4424 -1.3052  0.4481
  410DG      C1 9408   5.402   1.650   3.768 -0.1794 -0.2903  1.1729
  410DG      C2 9409   5.181   0.907   3.470 -0.1290 -0.2125 -0.4899
  410DG      H3 9410   5.398   1.759   3.762  2.3710 -0.1870  0.3355
  410DG      H4 9411   5.484   1.623   3.834  0.7258 -0.0881  0.1397
  410DG      H5 9412   5.303   1.639   3.815 -0.3463  1.1206  1.1869
  410DG      H6 9413   5.093   0.848   3.494 -1.4408  1.6747 -0.4217
  410DG      H7 9414   5.193   0.918   3.362  0.5840  1.9396 -0.2539
  410DG      H8 9415   5.265   0.849   3.508  0.2389  0.1403 -0.7503
  410DG      O9 9416   5.403   1.578   3.642  0.0958  0.0169  0.0214
  410DG     O10 9417   5.184   1.037   3.528  0.5219 -0.6192 -0.7562
  410DG     C11 9418   5.406   1.435   3.648  0.2524  0.1265 -0.0970
  410DG     C12 9419   5.189   1.032   3.666  0.3986 -0.2738 -0.1863
  410DG     H13 9420   5.497   1.404   3.700 -0.7258 -1.5391  0.7262
  410DG     H14 9421   5.413   1.398   3.546 -0.6666 -2.2068  0.6159
  410DG     H15 9422   5.285   0.994   3.701  0.1242 -0.8133 -0.0067
  410DG     H16 9423   5.121   0.956   3.705 -0.1570 -0.2594 -1.0971
  410DG     C17 9424   5.273   1.384   3.710 -0.4265 -0.4178 -0.3151
  410DG     C18 9425   5.172   1.173   3.732 -0.5411  0.1293  0.2372
  410DG     O19 9426   5.284   1.248   3.685  0.5249 -0.2765 -0.4936
  410DG     H20 9427   5.183   1.426   3.667 -2.2317 -1.5398  2.1443
  410DG     H21 9428   5.279   1.402   3.818  2.1087 -0.1974 -0.4200
  410DG     H22 9429   5.077   1.223   3.713 -0.6548  0.5052  1.6613
  410DG     H23 9430   5.193   1.153   3.837  3.1734 -0.3755 -0.4751
  411DG      C1 9431   1.476   0.621   3.638  0.1765  0.5658 -0.2992
  411DG      C2 9432   1.324   0.321   2.988  0.5033  0.1571  0.2977
  411DG      H3 9433   1.397   0.654   3.705  0.5715  1.3132 -0.1829
  411DG      H4 9434   1.476   0.698   3.561 -1.2822 -1.4218 -2.4041
  411DG      H5 9435   1.564   0.615   3.703 -0.0174  0.6540 -0.0266
  411DG      H6 9436   1.407   0.387   2.962  0.1958  1.7072  2.9023
  411DG      H7 9437   1.341   0.231   2.929  1.9462  2.3491 -2.9043
  411DG      H8 9438   1.227   0.357   2.955 -0.1862 -1.0285  0.9230
  411DG      O9 9439   1.446   0.492   3.573 -0.4991  0.1313  0.6926
  411DG     O10 9440   1.320   0.291   3.125  0.1016 -0.0240 -0.6310
  411DG     C11 9441   1.563   0.422   3.549  1.1458  0.2835 -0.0009
  411DG     C12 9442   1.398   0.178   3.162  0.0248 -0.0209  0.6321
  411DG     H13 9443   1.624   0.412   3.639  1.6403 -0.8418 -0.4389
  411DG     H14 9444   1.622   0.476   3.475 -0.7480  2.0847 -0.2873
  411DG     H15 9445   1.501   0.177   3.126  0.2879  0.7234  1.3335
  411DG     H16 9446   1.356   0.085   3.124  0.6792 -0.0043 -0.1659
  411DG     C17 9447   1.512   0.288   3.496 -0.4369 -0.6328 -0.1045
  411DG     C18 9448   1.409   0.168   3.311 -0.4676  0.2534 -0.2227
  411DG     O19 9449   1.458   0.291   3.364 -0.7606 -0.2712 -0.1850
  411DG     H20 9450   1.429   0.259   3.560  0.4211 -0.3663  1.1675
  411DG     H21 9451   1.589   0.212   3.499 -0.0123 -0.2783 -1.3556
  411DG     H22 9452   1.314   0.152   3.363 -0.6618  2.0354  0.0374
  411DG     H23 9453   1.475   0.086   3.340 -2.1043 -1.1576 -0.3090
  412DG      C1 9454   0.140   1.461   0.788  0.0591 -0.1967 -0.3428
  412DG      C2 9455   0.222   0.905   1.296 -1.2292  0.0487 -0.4451
  412DG      H3 9456   0.091   1.406   0.708 -1.5878  0.3458  0.2432
  412DG      H4 9457   0.166   1.560   0.752  1.8406 -0.1176  1.0011
  412DG      H5 9458   0.065   1.477   0.866 -0.5759  0.7167 -1.1154
  412DG      H6 9459   0.118   0.917   1.328 -1.0298 -3.2216  1.9733
  412DG      H7 9460   0.213   0.818   1.232  0.0914 -0.4289 -0.0147
  412DG      H8 9461   0.282   0.885   1.385 -0.7398  3.1189  0.0209
  412DG      O9 9462   0.254   1.381   0.833 -0.1132 -0.1130  0.3755
  412DG     O10 9463   0.277   1.030   1.235 -0.1592  0.0472  0.1676
  412DG     C11 9464   0.323   1.438   0.945 -0.0650 -0.5165 -0.2089
  412DG     C12 9465   0.393   1.010   1.154  0.2972 -0.0682 -0.5375
  412DG     H13 9466   0.252   1.446   1.028 -1.1583  1.5825 -1.2608
  412DG     H14 9467   0.356   1.539   0.920 -0.3137 -0.2619  0.4441
  412DG     H15 9468   0.363   0.964   1.060 -1.4163  1.3886 -0.7489
  412DG     H16 9469   0.463   0.956   1.218  0.6123  1.7411  0.7050
  412DG     C17 9470   0.433   1.346   0.993 -0.0600  0.3109  0.4035
  412DG     C18 9471   0.459   1.148   1.116  0.4868  0.1358 -0.2333
  412DG     O19 9472   0.367   1.241   1.059 -0.6428 -0.1071 -0.3700
  412DG     H20 9473   0.506   1.393   1.058  0.1586  0.4421  0.0654
  412DG     H21 9474   0.495   1.302   0.915  0.3919  0.5322  0.6323
  412DG     H22 9475   0.491   1.199   1.207 -2.1086  1.1951  0.1708
  412DG     H23 9476   0.551   1.136   1.058  1.2704  0.8699  0.8245
  413DG      C1 9477   0.506   0.485   2.399 -0.3665  0.5701  0.9344
  413DG      C2 9478   0.814   0.720   1.797  0.5717  0.1789 -0.5036
  413DG      H3 9479   0.552   0.451   2.306  0.5498  0.2475  1.4955
  413DG      H4 9480   0.451   0.403   2.447  0.8538 -0.8505  0.0135
  413DG      H5 9481   0.588   0.514   2.464 -1.0794  0.7160  1.7826
  413DG      H6 9482   0.830   0.824   1.824 -0.7598  0.8921 -2.2409
  413DG      H7 9483   0.883   0.662   1.857  0.3142  0.0128 -0.3686
  413DG      H8 9484   0.846   0.730   1.693 -0.2964  1.3125 -0.6812
  413DG      O9 9485   0.436   0.603   2.369  0.1706  0.5298  0.4598
  413DG     O10 9486   0.676   0.681   1.797 -0.0482  0.3519 -0.3779
  413DG     C11 9487   0.329   0.599   2.281  0.5511 -0.5172 -0.2939
  413DG     C12 9488   0.622   0.710   1.921 -0.3201  0.3740 -0.2046
  413DG     H13 9489   0.266   0.686   2.301  1.7496  1.1278 -3.1525
  413DG     H14 9490   0.281   0.511   2.324 -0.2542 -1.3526 -2.7413
  413DG     H15 9491   0.595   0.815   1.932 -3.2227 -0.3395  0.2223
  413DG     H16 9492   0.691   0.685   2.002 -0.7788 -0.1430  0.0392
  413DG     C17 9493   0.344   0.570   2.132  0.7710  0.1263  0.2218
  413DG     C18 9494   0.495   0.629   1.948 -0.5060 -0.1442 -0.1457
  413DG     O19 9495   0.445   0.653   2.081  0.6508  0.5826 -0.5557
  413DG     H20 9496   0.259   0.596   2.068  0.0026 -1.9851  0.2987
  413DG     H21 9497   0.373   0.467   2.113 -0.3792  0.0048 -0.9897
  413DG     H22 9498   0.423   0.649   1.869  0.1202 -1.7296 -1.1705
  413DG     H23 9499   0.518   0.523   1.955  1.5680  0.2745  0.0082
  414DG      C1 9500   3.969   2.377   1.122 -0.0093  0.3171  0.8686
  414DG      C2 9501   3.380   1.863   1.344 -0.1425  0.7342  0.3690
  414DG      H3 9502   4.030   2.292   1.151  0.9828  0.4764 -0.6233
  414DG      H4 9503   4.028   2.469   1.134 -0.7917  1.3109 -2.0095
  414DG      H5 9504   3.953   2.367   1.014 -0.6959 -1.5229  1.1149
  414DG      H6 9505   3.286   1.864   1.399 -1.4811 -0.0768 -1.7655
  414DG      H7 9506   3.350   1.829   1.245 -0.8456 -0.0120  0.8291
  414DG      H8 9507   3.448   1.793   1.392 -0.3946  1.6171  2.1026
  414DG      O9 9508   3.849   2.387   1.200  0.5617 -0.9028  0.0007
  414DG     O10 9509   3.441   1.993   1.344  1.1821 -0.0694  0.3919
  414DG     C11 9510   3.787   2.261   1.192  0.2442  0.0255  1.0577
  414DG     C12 9511   3.355   2.084   1.278  0.4070 -0.3497  0.8935
  414DG     H13 9512   3.851   2.179   1.225  1.6420  1.0044  0.8786
  414DG     H14 9513   3.775   2.231   1.088 -1.1345 -0.7555  1.4111
  414DG     H15 9514   3.266   2.102   1.339  0.1139  2.2280 -0.1664
  414DG     H16 9515   3.307   2.051   1.186  0.8991  1.6404 -0.1387
  414DG     C17 9516   3.652   2.288   1.259 -0.5711 -0.1933  0.4838
  414DG     C18 9517   3.428   2.212   1.250  0.3931 -0.8757 -0.1705
  414DG     O19 9518   3.564   2.187   1.220  0.7200  0.0209  0.3474
  414DG     H20 9519   3.613   2.389   1.245  0.3078 -0.0768 -1.3247
  414DG     H21 9520   3.661   2.283   1.368 -0.4261  1.4620  0.5640
  414DG     H22 9521   3.380   2.276   1.177  1.9340  1.1892  0.5321
  414DG     H23 9522   3.422   2.272   1.341 -1.9491 -1.2864  0.0213
  415DG      C1 9523   4.810   5.255   2.245 -0.2663  0.2391 -0.9549
  415DG      C2 9524   4.099   5.189   2.055 -0.3391  0.1152 -0.3108
  415DG      H3 9525   4.889   5.253   2.170 -0.2185 -0.4742 -0.8918
  415DG      H4 9526   4.765   5.156   2.253  0.1035  0.2394  1.7624
  415DG      H5 9527   4.855   5.282   2.340  0.4220 -0.1190 -1.1700
  415DG      H6 9528   4.020   5.231   1.993 -0.1268  0.7661 -0.1467
  415DG      H7 9529   4.155   5.114   1.999  1.2330  0.5898  0.5698
  415DG      H8 9530   4.064   5.135   2.142  0.1453  0.2407 -0.0347
  415DG      O9 9531   4.739   5.371   2.200  0.5641 -0.8485  0.5240
  415DG     O10 9532   4.193   5.288   2.096  0.4146 -0.3736 -0.3893
  415DG     C11 9533   4.641   5.429   2.283  0.2871  0.4355 -0.1618
  415DG     C12 9534   4.258   5.342   1.986  0.2911 -0.1390 -0.2828
  415DG     H13 9535   4.690   5.501   2.348  0.8173 -0.2735  0.2451
  415DG     H14 9536   4.611   5.345   2.346 -2.4592  0.8968 -0.7509
  415DG     H15 9537   4.190   5.392   1.918 -0.8997  0.7750  1.5029
  415DG     H16 9538   4.322   5.267   1.939 -0.0345 -0.9334  0.5172
  415DG     C17 9539   4.534   5.486   2.198  0.4006  0.2093  0.2561
  415DG     C18 9540   4.361   5.449   2.031  0.0733 -0.0419 -0.6922
  415DG     O19 9541   4.452   5.391   2.123 -0.5515  0.3541 -0.2904
  415DG     H20 9542   4.573   5.569   2.140  3.4028 -1.5712 -0.4943
  415DG     H21 9543   4.460   5.533   2.263  0.6454  0.3321  0.4446
  415DG     H22 9544   4.414   5.488   1.944 -0.8013  0.2583 -1.0993
  415DG     H23 9545   4.298   5.528   2.071  0.7257 -0.1550  0.5953
  416DG      C1 9546   0.497   3.012   5.391  0.2084  0.6089  0.0770
  416DG      C2 9547   0.269   2.596   4.793 -0.3713 -0.0472  0.5739
  416DG      H3 9548   0.417   3.085   5.376 -1.7112 -1.2912  0.4689
  416DG      H4 9549   0.569   3.063   5.454 -0.7432 -1.1548  2.7902
  416DG      H5 9550   0.449   2.940   5.458  3.1554  0.8365  2.6275
  416DG      H6 9551   0.202   2.681   4.803  1.5222  1.8410 -1.5574
  416DG      H7 9552   0.307   2.578   4.692  1.7720 -1.2465  1.5148
  416DG      H8 9553   0.213   2.506   4.819 -1.2068 -0.7791 -3.1105
  416DG      O9 9554   0.538   2.956   5.266  0.2740 -0.0523 -0.1297
  416DG     O10 9555   0.394   2.610   4.872  0.1533  0.0347 -0.3527
  416DG     C11 9556   0.606   2.831   5.281  0.2088 -0.2098  0.0180
  416DG     C12 9557   0.474   2.725   4.842 -1.0017 -0.7206 -0.3699
  416DG     H13 9558   0.532   2.764   5.323  0.7755  0.9795  3.2315
  416DG     H14 9559   0.685   2.844   5.355  0.2403 -0.6681  0.0668
  416DG     H15 9560   0.426   2.822   4.857 -0.6355 -0.3536 -1.4709
  416DG     H16 9561   0.503   2.733   4.737  0.3174  2.8734  0.1404
  416DG     C17 9562   0.667   2.780   5.146  0.8179  0.0893  0.2241
  416DG     C18 9563   0.595   2.718   4.935 -0.9937 -0.1407 -0.4500
  416DG     O19 9564   0.556   2.765   5.066  0.3490  0.1338 -0.3399
  416DG     H20 9565   0.713   2.682   5.162  0.7403  0.0181  0.0155
  416DG     H21 9566   0.736   2.856   5.109  1.9759 -1.1647 -0.2956
  416DG     H22 9567   0.643   2.620   4.931 -0.1641  0.2773 -1.9570
  416DG     H23 9568   0.668   2.788   4.893 -2.4100  0.6104 -1.7806
  417DG      C1 9569   0.068   4.744   2.418 -0.1199  0.2299  0.2412
  417DG      C2 9570   0.719   4.880   2.169  0.2168 -0.4110 -0.1555
  417DG      H3 9571   0.078   4.674   2.501  2.5386 -0.5732 -0.6574
  417DG      H4 9572  -0.028   4.733   2.367 -0.0607 -1.9073  0.4933
  417DG      H5 9573   0.064   4.845   2.458 -1.3949 -0.1716  1.2163
  417DG      H6 9574   0.818   4.853   2.131  1.0269  0.8534  0.9506
  417DG      H7 9575   0.666   4.943   2.097 -1.8662 -2.3720 -0.4319
  417DG      H8 9576   0.736   4.945   2.255 -2.0818 -1.9579  1.6001
  417DG      O9 9577   0.174   4.727   2.316  0.1622 -0.1485 -0.0621
  417DG     O10 9578   0.645   4.764   2.196  0.2238 -0.3646  0.1582
  417DG     C11 9579   0.185   4.595   2.267 -0.3568  0.7104 -0.5635
  417DG     C12 9580   0.596   4.698   2.081  0.4561  0.1786 -0.3783
  417DG     H13 9581   0.092   4.579   2.212  0.3878 -0.7258 -1.4816
  417DG     H14 9582   0.186   4.517   2.343 -0.4287  2.5210  1.3952
  417DG     H15 9583   0.666   4.679   1.999  1.6032  0.1829  0.5742
  417DG     H16 9584   0.508   4.753   2.047  0.4822  0.5906  0.2094
  417DG     C17 9585   0.298   4.575   2.169 -0.0471 -0.5978  0.0210
  417DG     C18 9586   0.530   4.565   2.142  0.6552 -0.1359 -0.0127
  417DG     O19 9587   0.420   4.595   2.233 -0.3028  0.2716  0.1612
  417DG     H20 9588   0.283   4.646   2.087 -2.1358 -0.8109  0.1664
  417DG     H21 9589   0.294   4.473   2.131 -0.1747 -0.5617 -0.0619
  417DG     H22 9590   0.502   4.481   2.080 -0.5089 -1.3180  2.0144
  417DG     H23 9591   0.604   4.512   2.202  2.8862 -0.1152 -2.5773
  418DG      C1 9592   2.677   4.959   3.218 -0.0073 -0.4716  0.2588
  418DG      C2 9593   2.810   4.138   2.967  0.3165 -0.0051 -0.8077
  418DG      H3 9594   2.735   5.051   3.215  0.7348 -0.9239  0.4267
  418DG      H4 9595   2.586   4.947   3.276 -0.6897 -0.0843 -0.7176
  418DG      H5 9596   2.644   4.944   3.115  2.0521 -2.2079 -0.2423
  418DG      H6 9597   2.709   4.122   2.932  0.5877 -3.8758 -0.2471
  418DG      H7 9598   2.883   4.128   2.887  1.8782  1.6501  0.3123
  418DG      H8 9599   2.831   4.059   3.039 -0.2534 -0.2197 -0.8758
  418DG      O9 9600   2.758   4.850   3.256  0.4991 -0.2853 -0.1873
  418DG     O10 9601   2.823   4.263   3.026 -0.4833 -0.3506 -0.0441
  418DG     C11 9602   2.788   4.745   3.166  0.5541  0.4173  0.2468
  418DG     C12 9603   2.933   4.285   3.112  0.3420  0.1328 -0.0975
  418DG     H13 9604   2.868   4.779   3.099  0.9247 -2.2960 -0.8083
  418DG     H14 9605   2.701   4.728   3.104  0.4419  0.5804  0.3584
  418DG     H15 9606   3.011   4.306   3.038 -0.5456 -1.4885 -1.5861
  418DG     H16 9607   2.970   4.196   3.164  1.2775 -0.0956 -1.1105
  418DG     C17 9608   2.824   4.614   3.248 -0.3360 -0.5423  0.1877
  418DG     C18 9609   2.900   4.397   3.204 -0.2454 -0.4720 -0.3034
  418DG     O19 9610   2.845   4.517   3.150 -0.6288 -0.4601 -0.1202
  418DG     H20 9611   2.737   4.577   3.303 -0.5008 -0.4089  0.0170
  418DG     H21 9612   2.908   4.632   3.314  0.6117 -1.6672 -0.6698
  418DG     H22 9613   2.843   4.356   3.288 -0.5833 -1.2026 -0.8786
  418DG     H23 9614   2.992   4.433   3.250 -0.0564  0.1696 -1.1530
  419DG      C1 9615   3.213   4.164   2.549  0.3997 -0.9517 -0.4371
  419DG      C2 9616   3.336   4.428   1.765  0.3302  0.4342  0.2832
  419DG      H3 9617   3.251   4.067   2.519  0.8850 -0.6410 -0.8259
  419DG      H4 9618   3.150   4.153   2.638  1.0748  0.8251  0.3172
  419DG      H5 9619   3.298   4.217   2.592 -0.3402  0.2289 -0.3590
  419DG      H6 9620   3.405   4.351   1.730 -1.7060 -0.1392 -2.7841
  419DG      H7 9621   3.284   4.458   1.675  0.0256  1.2557  0.7209
  419DG      H8 9622   3.392   4.514   1.801 -2.4461  3.3102 -1.7161
  419DG      O9 9623   3.136   4.250   2.470 -0.7109 -0.0054  0.3076
  419DG     O10 9624   3.240   4.396   1.870 -0.7089  0.5609 -0.5388
  419DG     C11 9625   3.202   4.307   2.365  0.0695  0.2872  0.4272
  419DG     C12 9626   3.157   4.497   1.928 -0.0176 -0.5317  0.1073
  419DG     H13 9627   3.266   4.233   2.318  1.8058  0.9010  1.7201
  419DG     H14 9628   3.263   4.388   2.406  1.4546 -0.8916  0.7583
  419DG     H15 9629   3.097   4.550   1.853 -0.4814  0.2182  0.9832
  419DG     H16 9630   3.226   4.573   1.965 -1.0004  0.0260  0.8762
  419DG     C17 9631   3.105   4.351   2.251  0.0485  0.1358  0.1615
  419DG     C18 9632   3.082   4.449   2.040  0.3990  0.3978 -1.1077
  419DG     O19 9633   3.174   4.398   2.135 -0.6742 -0.2399 -1.2888
  419DG     H20 9634   3.040   4.427   2.296 -0.4274 -0.2079  0.0624
  419DG     H21 9635   3.040   4.271   2.218 -0.0400  0.8547 -1.4958
  419DG     H22 9636   3.021   4.521   2.096 -1.4798 -2.0571  0.2054
  419DG     H23 9637   3.016   4.368   2.009 -1.0726  1.1955 -0.1600
  420DG      C1 9638   3.454   2.313   0.522  0.1444 -0.4445  0.6025
  420DG      C2 9639   4.103   1.994   0.625  0.1689 -0.4380  0.2263
  420DG      H3 9640   3.413   2.413   0.510  3.2372  0.7972 -0.7988
  420DG      H4 9641   3.425   2.282   0.622 -2.4807 -0.5303 -0.1089
  420DG      H5 9642   3.419   2.241   0.448  1.3805 -0.5664  0.1104
  420DG      H6 9643   4.074   1.891   0.647  2.6041 -0.6714  2.8787
  420DG      H7 9644   4.212   1.991   0.613 -0.0582 -0.7740 -2.2614
  420DG      H8 9645   4.078   2.055   0.712 -4.2407 -0.0756 -1.0665
  420DG      O9 9646   3.590   2.318   0.490 -0.3670 -0.3217 -0.1957
  420DG     O10 9647   4.038   2.045   0.506 -0.3904 -0.2834 -0.1159
  420DG     C11 9648   3.685   2.334   0.598  0.6065  0.4789  0.7240
  420DG     C12 9649   4.084   2.186   0.488 -0.5938  0.1931  0.0007
  420DG     H13 9650   3.676   2.249   0.665 -1.7176  1.2286  1.4254
  420DG     H14 9651   3.670   2.424   0.657  1.3908  1.0914  0.0148
  420DG     H15 9652   4.184   2.192   0.444 -0.5407 -0.3527  0.0459
  420DG     H16 9653   4.097   2.236   0.584  2.4282  0.7834 -0.6034
  420DG     C17 9654   3.827   2.358   0.543  0.5458  0.4070  0.0994
  420DG     C18 9655   3.996   2.270   0.400  0.0054  0.3169 -0.4907
  420DG     O19 9656   3.867   2.258   0.459  0.4246 -0.4743  0.3271
  420DG     H20 9657   3.897   2.382   0.623  1.3709  1.0618 -0.7818
  420DG     H21 9658   3.836   2.452   0.488  0.9719  0.9385  1.0542
  420DG     H22 9659   4.022   2.375   0.394 -0.8127  0.5148 -0.7507
  420DG     H23 9660   3.976   2.234   0.299  2.0134  0.8802 -1.1458
  421DG      C1 9661   3.974   5.352   0.949  0.1286  0.2416 -0.6965
  421DG      C2 9662   4.543   5.338   0.522 -0.0834 -0.5912 -0.6798
  421DG      H3 9663   3.977   5.421   0.865 -0.0631 -1.9114 -2.5705
  421DG      H4 9664   3.989   5.392   1.049  0.2879 -2.5108  0.4899
  421DG      H5 9665   3.873   5.311   0.956  0.4330 -0.2486  2.6994
  421DG      H6 9666   4.531   5.348   0.414 -2.5122  1.4576 -0.3077
  421DG      H7 9667   4.578   5.439   0.547 -0.6174  0.2724 -3.1968
  421DG      H8 9668   4.629   5.273   0.540  1.2909  1.3066 -0.0814
  421DG      O9 9669   4.080   5.257   0.935  0.3193  0.6144  0.8791
  421DG     O10 9670   4.437   5.283   0.588  0.3804  0.4718  0.1918
  421DG     C11 9671   4.064   5.172   0.820 -0.0937 -0.1915 -0.1834
  421DG     C12 9672   4.477   5.232   0.722  0.7827 -0.0883 -0.8526
  421DG     H13 9673   4.058   5.226   0.725  1.7459  0.8108  0.2290
  421DG     H14 9674   3.972   5.119   0.843  1.2133 -2.2241  0.6246
  421DG     H15 9675   4.534   5.308   0.775 -2.1953 -0.5373  3.4605
  421DG     H16 9676   4.540   5.143   0.716  0.4311 -0.5192  1.3439
  421DG     C17 9677   4.169   5.070   0.816  0.3609  0.3352 -0.7984
  421DG     C18 9678   4.351   5.215   0.812  0.0802 -0.8446  0.7146
  421DG     O19 9679   4.272   5.125   0.742 -0.4013 -0.5077 -0.4831
  421DG     H20 9680   4.137   4.986   0.754  0.6419 -0.1109 -0.3399
  421DG     H21 9681   4.193   5.035   0.916 -3.4146  0.0603  0.1745
  421DG     H22 9682   4.389   5.176   0.907 -0.2945 -0.8691  0.8591
  421DG     H23 9683   4.306   5.313   0.828  0.6802 -0.3457 -0.5477
  422DG      C1 9684   1.453   3.888   0.833  0.2097 -0.3171 -0.0398
  422DG      C2 9685   0.695   3.987   0.854 -1.4076 -0.1871  0.1085
  422DG      H3 9686   1.494   3.850   0.926 -1.2038  0.6246  1.0164
  422DG      H4 9687   1.528   3.916   0.759 -0.6016 -0.7077 -1.0501
  422DG      H5 9688   1.393   3.810   0.784  1.0672 -0.0957 -1.4816
  422DG      H6 9689   0.668   3.893   0.805 -0.0039 -0.8155  0.5163
  422DG      H7 9690   0.715   3.962   0.958  1.0285  1.9909  0.2537
  422DG      H8 9691   0.614   4.060   0.861 -0.6170  0.7455 -0.1878
  422DG      O9 9692   1.362   3.999   0.849 -0.3051  0.2866 -0.4502
  422DG     O10 9693   0.812   4.045   0.796 -0.5886  0.0658  0.1538
  422DG     C11 9694   1.302   4.034   0.724  0.1049 -0.0395 -0.0701
  422DG     C12 9695   0.873   4.132   0.890  0.7141 -0.7511  0.6889
  422DG     H13 9696   1.248   3.955   0.672 -0.1841 -0.8598  1.4078
  422DG     H14 9697   1.384   4.062   0.658  0.9885 -1.7171  0.2505
  422DG     H15 9698   0.906   4.083   0.982 -0.1313  0.6023  1.7377
  422DG     H16 9699   0.796   4.205   0.915 -1.9967 -3.5329  1.0495
  422DG     C17 9700   1.209   4.146   0.744  0.0310  0.7552 -1.2067
  422DG     C18 9701   0.995   4.203   0.835  0.2376  0.2528 -0.2844
  422DG     O19 9702   1.093   4.103   0.821 -0.8105  0.9593  0.0831
  422DG     H20 9703   1.179   4.202   0.655  1.6024  1.4372 -1.3271
  422DG     H21 9704   1.261   4.227   0.795 -1.4601  0.2463  1.2786
  422DG     H22 9705   0.971   4.268   0.750 -3.3542  0.5478  0.7701
  422DG     H23 9706   1.042   4.261   0.914  2.3692 -0.9335 -0.6015
  423DG      C1 9707   2.483   4.707   3.911  0.1295  0.3325  0.3954
  423DG      C2 9708   2.990   4.256   4.007 -0.0518 -0.0031  0.7570
  423DG      H3 9709   2.500   4.734   3.807  0.1734 -3.0310 -0.5826
  423DG      H4 9710   2.525   4.780   3.980 -0.8345  1.8323 -0.5248
  423DG      H5 9711   2.374   4.713   3.918 -0.2303 -0.5793 -2.7184
  423DG      H6 9712   3.075   4.222   4.065  0.4710 -2.0839 -1.1057
  423DG      H7 9713   2.934   4.165   3.985 -0.6698  0.8144 -1.3790
  423DG      H8 9714   3.035   4.300   3.918 -0.4518  0.5090  0.7979
  423DG      O9 9715   2.523   4.576   3.948 -0.2379  0.3864  0.3888
  423DG     O10 9716   2.914   4.347   4.079  0.6087 -0.0266 -0.7403
  423DG     C11 9717   2.478   4.535   4.081 -0.3999 -1.5968 -0.1488
  423DG     C12 9718   2.855   4.296   4.203  0.2045  1.1371  0.1894
  423DG     H13 9719   2.372   4.557   4.093 -0.8418 -3.2939 -0.6483
  423DG     H14 9720   2.530   4.593   4.157  0.2334 -3.3738  0.8467
  423DG     H15 9721   2.859   4.367   4.285 -3.2676  1.1393  0.5378
  423DG     H16 9722   2.899   4.202   4.234  0.8538  1.8936  1.6475
  423DG     C17 9723   2.517   4.393   4.107 -0.7606  0.1336  0.3435
  423DG     C18 9724   2.712   4.264   4.158  0.0516  0.3207 -0.5541
  423DG     O19 9725   2.664   4.384   4.102 -0.2188  0.1553 -0.4980
  423DG     H20 9726   2.465   4.330   4.035  0.1239  0.5606 -0.7002
  423DG     H21 9727   2.471   4.362   4.201 -0.5283 -0.7830  0.1635
  423DG     H22 9728   2.699   4.195   4.075 -1.7490  1.5600 -1.3727
  423DG     H23 9729   2.652   4.232   4.242  0.8035  1.0500  0.2865
  424DG      C1 9730   2.546   2.683   1.830 -0.5625  0.2183  0.3467
  424DG      C2 9731   2.566   2.495   1.149 -0.5460  0.1297  0.0038
  424DG      H3 9732   2.498   2.763   1.886 -1.3897  0.7445 -1.0504
  424DG      H4 9733   2.650   2.699   1.801  0.2053 -1.3760  2.0368
  424DG      H5 9734   2.535   2.598   1.897 -1.1442  1.4933  1.9105
  424DG      H6 9735   2.532   2.395   1.125  0.4336 -0.6266  1.6615
  424DG      H7 9736   2.572   2.560   1.061  2.6517 -0.3729 -0.2404
  424DG      H8 9737   2.671   2.476   1.166 -0.5828  0.0597  0.1471
  424DG      O9 9738   2.486   2.665   1.703 -0.7565  0.0873  0.1454
  424DG     O10 9739   2.499   2.550   1.264  0.2524 -0.0630 -0.0412
  424DG     C11 9740   2.349   2.643   1.709  0.5834  0.0648 -0.0365
  424DG     C12 9741   2.359   2.570   1.231 -0.8416 -0.4363 -0.0009
  424DG     H13 9742   2.300   2.702   1.787  0.0625  0.6594 -0.7955
  424DG     H14 9743   2.324   2.540   1.731  1.6795 -0.2082  0.0070
  424DG     H15 9744   2.300   2.479   1.228  1.4922 -2.0176 -2.5078
  424DG     H16 9745   2.356   2.614   1.132 -1.3502  0.9803  0.6219
  424DG     C17 9746   2.291   2.688   1.575 -0.4658 -0.0523 -0.2204
  424DG     C18 9747   2.305   2.666   1.339 -0.1683 -0.4553  0.5288
  424DG     O19 9748   2.315   2.604   1.467 -0.0090 -0.1237 -0.6137
  424DG     H20 9749   2.303   2.794   1.554 -2.9384 -0.1342 -2.5593
  424DG     H21 9750   2.183   2.689   1.587 -0.5866  1.8626 -1.1800
  424DG     H22 9751   2.348   2.764   1.357 -1.8926 -0.0121  2.6606
  424DG     H23 9752   2.202   2.683   1.308  1.0056  0.6285 -3.3215
  425DG      C1 9753   1.373   4.401   5.558 -0.1324  0.1900  0.1588
  425DG      C2 9754   0.702   4.590   5.547  1.0969 -0.5436  0.1668
  425DG      H3 9755   1.438   4.366   5.479  0.6796 -0.9158  1.2765
  425DG      H4 9756   1.371   4.319   5.629  3.3838  0.2721  0.5237
  425DG      H5 9757   1.429   4.476   5.615  1.4809 -0.5436 -0.4109
  425DG      H6 9758   0.679   4.691   5.580  1.1661 -0.0967 -1.1023
  425DG      H7 9759   0.620   4.563   5.480  0.5062  0.0254  0.6490
  425DG      H8 9760   0.701   4.529   5.638  0.6351  2.6159  2.4398
  425DG      O9 9761   1.253   4.442   5.508 -0.2178 -0.1362 -0.4624
  425DG     O10 9762   0.811   4.596   5.461  0.0978  0.1090 -0.3110
  425DG     C11 9763   1.206   4.356   5.404  0.2626 -0.6070 -0.1822
  425DG     C12 9764   0.931   4.634   5.525  0.0474 -0.5118  0.5852
  425DG     H13 9765   1.206   4.252   5.435  0.0277  0.0684  2.2650
  425DG     H14 9766   1.259   4.361   5.309  1.1493  1.9337  0.3772
  425DG     H15 9767   0.960   4.578   5.613  1.1969  0.7895  1.0676
  425DG     H16 9768   0.914   4.735   5.562  3.0745 -0.2079  1.3724
  425DG     C17 9769   1.057   4.395   5.394 -0.1450  0.1635 -0.7553
  425DG     C18 9770   1.034   4.639   5.410 -0.0091 -0.2544  0.1248
  425DG     O19 9771   1.034   4.523   5.333 -0.2627  0.5820 -0.4281
  425DG     H20 9772   1.000   4.378   5.485  0.8041 -0.4611 -0.2524
  425DG     H21 9773   1.009   4.317   5.335  1.0311 -1.9235  0.8957
  425DG     H22 9774   1.025   4.723   5.341 -1.0604 -0.5699 -0.1320
  425DG     H23 9775   1.137   4.635   5.445  0.1293 -1.9827 -0.3784
  426DG      C1 9776   3.436   1.715   5.018  0.2845 -0.0846  0.4330
  426DG      C2 9777   3.470   1.306   5.785  0.2094  0.6383  0.1345
  426DG      H3 9778   3.499   1.630   4.991 -1.6720 -1.4719  0.0306
  426DG      H4 9779   3.512   1.793   5.026  1.4342 -1.0501 -0.5576
  426DG      H5 9780   3.370   1.734   4.934 -1.7929 -1.4577  1.6559
  426DG      H6 9781   3.577   1.289   5.775  1.0296  0.7586  5.5109
  426DG      H7 9782   3.451   1.347   5.884 -1.3152  0.3638 -0.0081
  426DG      H8 9783   3.422   1.208   5.783 -0.5609  0.9759 -3.0853
  426DG      O9 9784   3.359   1.699   5.132  0.5131 -0.5227 -0.4412
  426DG     O10 9785   3.414   1.377   5.677 -0.2042 -0.5390 -0.1365
  426DG     C11 9786   3.429   1.659   5.245 -0.3179  0.4025 -0.5350
  426DG     C12 9787   3.406   1.518   5.704 -0.1870  0.5711 -0.6600
  426DG     H13 9788   3.506   1.731   5.273 -0.4878  1.2247 -2.1098
  426DG     H14 9789   3.485   1.567   5.224 -0.1549  0.6599 -1.2429
  426DG     H15 9790   3.505   1.561   5.719 -0.4760  0.4735  1.7749
  426DG     H16 9791   3.343   1.528   5.792  2.1848  2.2561  0.9798
  426DG     C17 9792   3.327   1.630   5.357 -0.2008  0.1272 -0.3770
  426DG     C18 9793   3.327   1.582   5.592  0.1108 -0.1835  0.0507
  426DG     O19 9794   3.407   1.603   5.477  0.1716 -0.3715  0.4208
  426DG     H20 9795   3.253   1.556   5.327  0.7446 -0.9185 -0.1910
  426DG     H21 9796   3.275   1.725   5.370  2.0442  1.2517  1.3228
  426DG     H22 9797   3.241   1.518   5.568  0.3378 -0.3887 -0.2178
  426DG     H23 9798   3.291   1.679   5.624 -0.7632  0.0452 -1.5280
  427DG      C1 9799   3.668   4.832  -0.034  0.0024 -0.3761 -0.2876
  427DG      C2 9800   3.079   5.350   0.237  0.1638  0.4058  0.0094
  427DG      H3 9801   3.732   4.892  -0.100  1.7944 -0.3070  1.4421
  427DG      H4 9802   3.583   4.808  -0.097  1.2036 -0.4948 -1.9415
  427DG      H5 9803   3.730   4.749  -0.001 -0.7386 -1.3107 -1.1930
  427DG      H6 9804   3.126   5.440   0.277 -0.8488  1.0703 -0.2654
  427DG      H7 9805   3.071   5.364   0.130 -2.0725 -1.8390 -0.2240
  427DG      H8 9806   2.976   5.350   0.274 -0.1133 -0.3555 -0.7410
  427DG      O9 9807   3.631   4.904   0.075  0.3481  0.5469 -0.1272
  427DG     O10 9808   3.149   5.230   0.280  0.4236 -0.4923  0.1215
  427DG     C11 9809   3.563   4.818   0.174  0.0118 -0.1880  0.2923
  427DG     C12 9810   3.268   5.206   0.205  0.3405 -0.5951 -0.3562
  427DG     H13 9811   3.636   4.756   0.225 -0.5135 -2.1798 -1.2299
  427DG     H14 9812   3.500   4.747   0.120  2.2931 -1.2086 -1.1778
  427DG     H15 9813   3.338   5.289   0.201 -1.4305  1.1107  1.5325
  427DG     H16 9814   3.250   5.180   0.101 -1.8158 -1.2187  0.1152
  427DG     C17 9815   3.478   4.899   0.272  0.2425 -0.1085 -0.1235
  427DG     C18 9816   3.342   5.098   0.282  0.2138  0.3623 -0.0745
  427DG     O19 9817   3.414   5.006   0.201 -0.0226 -0.0084 -0.2288
  427DG     H20 9818   3.534   4.938   0.358  0.4861 -2.1790  0.7312
  427DG     H21 9819   3.409   4.825   0.315  0.5433  0.7655  2.0186
  427DG     H22 9820   3.415   5.136   0.353  2.0560 -2.0319 -0.5540
  427DG     H23 9821   3.269   5.046   0.343 -0.7389  1.2557 -0.4330
  428DG      C1 9822   5.396   3.290   3.742  0.3550 -0.6043  0.3094
  428DG      C2 9823   4.833   3.207   4.038  0.1111 -0.3568 -0.3876
  428DG      H3 9824   5.315   3.304   3.670  0.0855 -1.7147  0.3727
  428DG      H4 9825   5.429   3.186   3.743 -0.5595 -0.9221  2.1782
  428DG      H5 9826   5.475   3.359   3.714  0.2564 -1.1547 -1.4714
  428DG      H6 9827   4.784   3.244   3.948  0.1419 -0.8392 -0.6110
  428DG      H7 9828   4.842   3.099   4.024  0.8762 -0.0390 -3.1110
  428DG      H8 9829   4.766   3.227   4.121  1.1010 -0.7641  0.5430
  428DG      O9 9830   5.334   3.326   3.858 -0.0511  0.5568  0.6328
  428DG     O10 9831   4.955   3.281   4.058 -0.0234 -0.0050 -0.5573
  428DG     C11 9832   5.425   3.304   3.971  0.4286 -0.4963 -0.2499
  428DG     C12 9833   5.002   3.251   4.187 -0.2281  0.4129  0.8524
  428DG     H13 9834   5.511   3.367   3.948 -0.1330  0.5191  0.3641
  428DG     H14 9835   5.459   3.203   3.991  1.5482  0.1463  1.2470
  428DG     H15 9836   5.034   3.148   4.207  1.3509  0.6340 -0.3173
  428DG     H16 9837   4.927   3.284   4.259 -0.6126  3.7740 -0.9293
  428DG     C17 9838   5.344   3.356   4.090 -0.0321 -0.2230 -0.5896
  428DG     C18 9839   5.127   3.340   4.198 -0.2912  0.1028  0.4433
  428DG     O19 9840   5.210   3.302   4.087 -0.2971  0.9819  0.2096
  428DG     H20 9841   5.332   3.463   4.075  0.0430  0.0271  0.9200
  428DG     H21 9842   5.390   3.343   4.188  1.7124  2.1304 -1.0138
  428DG     H22 9843   5.083   3.439   4.184 -2.1770 -1.0583 -2.7736
  428DG     H23 9844   5.193   3.329   4.285  0.0027 -0.1400  0.1927
  429DG      C1 9845   2.351   1.735   5.015 -0.4462 -0.1570 -1.1007
  429DG      C2 9846   1.694   1.811   5.141  1.0448 -0.1480 -0.1215
  429DG      H3 9847   2.458   1.738   5.039 -1.1321  0.0487  2.5318
  429DG      H4 9848   2.330   1.818   4.948 -2.1046  1.5730  1.3942
  429DG      H5 9849   2.314   1.638   4.980 -0.0633 -0.0460 -1.8355
  429DG      H6 9850   1.617   1.842   5.213  1.8404  0.9250  0.3002
  429DG      H7 9851   1.715   1.882   5.061  0.0035 -0.6548 -0.8653
  429DG      H8 9852   1.675   1.716   5.091 -0.9002 -1.2080  2.3686
  429DG      O9 9853   2.284   1.758   5.141 -0.2588 -0.5008 -0.0719
  429DG     O10 9854   1.826   1.790   5.199 -0.0226  0.0397  0.3514
  429DG     C11 9855   2.314   1.668   5.245 -0.6062  0.1718  0.1466
  429DG     C12 9856   1.829   1.672   5.280  0.0559  0.8293 -0.5324
  429DG     H13 9857   2.401   1.701   5.301 -1.8319  1.9445  1.1311
  429DG     H14 9858   2.327   1.563   5.217  0.2480  0.0466  0.9864
  429DG     H15 9859   1.829   1.586   5.213  3.0599 -0.8011  1.3654
  429DG     H16 9860   1.742   1.663   5.345  0.6981 -1.7550  0.0653
  429DG     C17 9861   2.202   1.670   5.348  0.9561 -0.2092 -0.0108
  429DG     C18 9862   1.960   1.662   5.363  0.6501 -0.9556  0.8100
  429DG     O19 9863   2.076   1.653   5.280  0.3333 -0.2913 -0.0823
  429DG     H20 9864   2.200   1.764   5.404 -0.2849 -0.3022  0.1360
  429DG     H21 9865   2.223   1.589   5.418 -0.1861  0.2158  0.8550
  429DG     H22 9866   1.976   1.740   5.438  1.4144  0.4405 -0.7185
  429DG     H23 9867   1.959   1.574   5.427  2.2926 -1.3724  0.3212
  430DG      C1 9868   4.050   3.278   2.280 -0.4729  0.4685 -0.1435
  430DG      C2 9869   4.193   3.831   1.920 -0.4211 -0.7052 -0.0364
  430DG      H3 9870   4.038   3.221   2.188 -0.6030  2.2372 -1.2715
  430DG      H4 9871   3.952   3.322   2.294 -1.3390 -1.3626 -0.1995
  430DG      H5 9872   4.081   3.216   2.364  0.3044  0.5562 -0.3543
  430DG      H6 9873   4.101   3.866   1.966 -0.2354  0.8535 -0.8006
  430DG      H7 9874   4.263   3.913   1.907 -0.2079 -1.2084 -2.4649
  430DG      H8 9875   4.167   3.793   1.821  0.0461 -1.9413  0.2906
  430DG      O9 9876   4.152   3.375   2.253  0.0219 -0.2707 -0.6069
  430DG     O10 9877   4.258   3.729   1.995  0.2133  0.4844  0.8053
  430DG     C11 9878   4.284   3.317   2.236  1.4786 -0.0134  0.1459
  430DG     C12 9879   4.376   3.670   1.938  0.2781  0.1199 -0.0448
  430DG     H13 9880   4.291   3.246   2.154 -0.4420 -0.7476  0.5572
  430DG     H14 9881   4.321   3.264   2.323 -0.7613 -0.9521  0.5985
  430DG     H15 9882   4.442   3.743   1.892 -3.9998  4.5434  0.0768
  430DG     H16 9883   4.349   3.602   1.857 -0.3160 -0.7289  0.8555
  430DG     C17 9884   4.383   3.434   2.210 -0.0551  0.0428  0.5710
  430DG     C18 9885   4.442   3.596   2.048 -0.0823  0.3715  0.1954
  430DG     O19 9886   4.345   3.504   2.091  0.3252 -0.6538 -0.1115
  430DG     H20 9887   4.485   3.396   2.213 -0.5940 -1.3929  1.4739
  430DG     H21 9888   4.375   3.494   2.300  2.0526 -0.6581  1.2607
  430DG     H22 9889   4.518   3.534   2.001 -1.4707 -0.2488 -1.3311
  430DG     H23 9890   4.479   3.669   2.120  0.2053 -0.4729  0.9262
  431DG      C1 9891   0.950   0.965   0.240 -0.6970 -0.1971  0.1747
  431DG      C2 9892   0.956   0.476  -0.276  0.6106 -0.2267  0.3748
  431DG      H3 9893   0.887   0.950   0.328  0.2184  1.2053  1.1254
  431DG      H4 9894   0.933   1.061   0.192  0.1175  0.5896  1.3944
  431DG      H5 9895   1.052   0.960   0.278 -0.4794 -0.8979 -0.4819
  431DG      H6 9896   0.894   0.540  -0.339  1.0167 -0.9467 -0.7911
  431DG      H7 9897   1.055   0.520  -0.260  0.2548 -0.0268  2.3612
  431DG      H8 9898   0.953   0.373  -0.312  0.2133 -0.1897  0.3062
  431DG      O9 9899   0.923   0.857   0.158  0.6910 -0.0240  0.0697
  431DG     O10 9900   0.907   0.464  -0.147  0.0393  0.0685 -0.5615
  431DG     C11 9901   0.951   0.739   0.227  0.4688  0.2814 -0.6647
  431DG     C12 9902   0.980   0.380  -0.052 -0.2951  0.0463  0.1248
  431DG     H13 9903   0.893   0.717   0.317 -0.3101 -0.4824 -1.3314
  431DG     H14 9904   1.050   0.746   0.271  0.3187 -0.7915 -0.1231
  431DG     H15 9905   1.028   0.290  -0.090  1.0139  0.8757 -0.2650
  431DG     H16 9906   0.916   0.349   0.031  0.3574 -2.7299 -0.3277
  431DG     C17 9907   0.944   0.610   0.145 -0.2955 -0.4317 -0.9019
  431DG     C18 9908   1.084   0.471   0.009  0.4401  0.6768 -0.2989
  431DG     O19 9909   1.047   0.599   0.047  0.3188  0.2492 -0.7022
  431DG     H20 9910   0.850   0.603   0.090 -1.4759  0.6377  0.8648
  431DG     H21 9911   0.950   0.537   0.226 -1.7732  0.4636  0.0799
  431DG     H22 9912   1.131   0.420   0.093 -1.0209 -0.8473 -0.3514
  431DG     H23 9913   1.159   0.485  -0.069  0.7846 -0.5632 -0.2071
  432DG      C1 9914   5.105   3.187   3.150  0.4006  0.2668  0.3638
  432DG      C2 9915   5.587   2.715   2.951 -0.1987 -0.5416 -0.1096
  432DG      H3 9916   5.022   3.255   3.131 -0.6584 -1.2868 -0.8821
  432DG      H4 9917   5.188   3.253   3.175  0.7124 -0.9000  2.6667
  432DG      H5 9918   5.064   3.140   3.239 -2.6602 -2.7459 -2.2966
  432DG      H6 9919   5.626   2.681   3.047  2.8773 -0.0820 -1.0895
  432DG      H7 9920   5.639   2.659   2.875  1.5166 -0.4795  0.9565
  432DG      H8 9921   5.612   2.821   2.938  0.6351 -0.6111  0.8077
  432DG      O9 9922   5.130   3.094   3.041  0.0768 -0.2744 -0.7632
  432DG     O10 9923   5.444   2.694   2.950  0.0899  0.4708  0.2609
  432DG     C11 9924   5.029   2.987   3.042  0.4038 -0.2042 -0.4514
  432DG     C12 9925   5.392   2.739   2.826  0.6075 -0.6324 -0.0628
  432DG     H13 9926   4.928   3.022   3.020 -0.0192 -1.1767 -0.0852
  432DG     H14 9927   5.038   2.926   3.132  1.2494  0.1202 -0.3097
  432DG     H15 9928   5.406   2.669   2.743 -0.5907  2.6516 -3.2731
  432DG     H16 9929   5.428   2.835   2.790 -1.2057 -0.3086 -1.1385
  432DG     C17 9930   5.065   2.891   2.928  0.0898 -0.6376  0.4919
  432DG     C18 9931   5.235   2.760   2.839 -1.1940 -0.8397  0.5171
  432DG     O19 9932   5.202   2.859   2.932  0.3178  0.4221  0.4145
  432DG     H20 9933   5.052   2.936   2.830  2.5864 -1.1190 -0.1297
  432DG     H21 9934   5.004   2.801   2.936  0.8982 -1.4537 -1.8763
  432DG     H22 9935   5.205   2.781   2.736  3.0113 -1.4491 -1.0426
  432DG     H23 9936   5.191   2.665   2.870 -0.6186 -1.2117  0.2281
  433DG      C1 9937   5.203   4.004   3.430 -0.2481 -0.4665  0.2932
  433DG      C2 9938   5.440   4.692   3.326 -0.3731  0.1815 -0.7068
  433DG      H3 9939   5.231   3.964   3.527  2.3982  2.9983  1.1541
  433DG      H4 9940   5.184   3.926   3.356  0.4874  0.5436 -0.9936
  433DG      H5 9941   5.113   4.064   3.444 -2.6843 -3.9095  0.9154
  433DG      H6 9942   5.476   4.711   3.427 -1.2214  1.0999 -0.5646
  433DG      H7 9943   5.493   4.755   3.255 -1.6741 -0.0593 -1.9332
  433DG      H8 9944   5.340   4.734   3.328 -0.3425  0.2433  0.1499
  433DG      O9 9945   5.318   4.078   3.396 -0.3431 -0.2525 -0.5261
  433DG     O10 9946   5.448   4.564   3.276 -0.4009  0.5201  0.1361
  433DG     C11 9947   5.333   4.199   3.461 -0.5801 -0.6470  0.0547
  433DG     C12 9948   5.583   4.513   3.277  0.0836  0.0351 -0.0099
  433DG     H13 9949   5.326   4.184   3.569 -1.9046 -0.1073  0.0683
  433DG     H14 9950   5.251   4.269   3.442 -0.7659 -0.1785  2.3451
  433DG     H15 9951   5.641   4.524   3.368 -0.5092 -1.1657  0.5342
  433DG     H16 9952   5.644   4.581   3.217  1.1990 -0.3285  0.6851
  433DG     C17 9953   5.447   4.287   3.422  0.3831 -0.2382 -0.8427
  433DG     C18 9954   5.574   4.364   3.233  0.5778 -0.5276 -0.7943
  433DG     O19 9955   5.452   4.307   3.281 -0.2167 -0.2520 -0.1313
  433DG     H20 9956   5.544   4.249   3.453  0.4666 -0.0437 -0.8681
  433DG     H21 9957   5.424   4.375   3.482  0.2347  0.3855 -1.7861
  433DG     H22 9958   5.556   4.362   3.125 -3.0294  0.8894 -0.3578
  433DG     H23 9959   5.652   4.291   3.256  0.0279 -0.5671  1.0755
  434DG      C1 9960   0.077   0.466   2.701 -0.3837 -0.7908 -0.4560
  434DG      C2 9961   0.018  -0.198   2.524  0.3434  0.0653 -0.1438
  434DG      H3 9962   0.154   0.542   2.709  3.7415 -4.4493 -1.1524
  434DG      H4 9963  -0.021   0.501   2.734 -0.0146 -0.8223  0.7524
  434DG      H5 9964   0.076   0.430   2.598  0.9623 -2.9003  0.1922
  434DG      H6 9965  -0.034  -0.225   2.616 -0.9324  0.6382 -0.6633
  434DG      H7 9966  -0.059  -0.189   2.448  0.5432 -1.8393 -0.6188
  434DG      H8 9967   0.072  -0.286   2.489  0.0437 -0.6502  1.1173
  434DG      O9 9968   0.117   0.364   2.792 -0.1085  0.5723  0.2084
  434DG     O10 9969   0.104  -0.088   2.555 -0.3323 -0.0686  0.2610
  434DG     C11 9970   0.251   0.329   2.775  0.9123  0.9013  0.4962
  434DG     C12 9971   0.120   0.006   2.449 -0.0885 -0.0055  0.7604
  434DG     H13 9972   0.270   0.256   2.853  0.6336 -0.0014 -0.2530
  434DG     H14 9973   0.308   0.420   2.794 -0.4933  1.4579  2.3168
  434DG     H15 9974   0.025   0.056   2.431 -0.6587 -1.7410 -1.6632
  434DG     H16 9975   0.151  -0.040   2.355  0.5158 -1.4202  1.6252
  434DG     C17 9976   0.298   0.264   2.639 -0.1640 -0.2060 -0.4088
  434DG     C18 9977   0.234   0.098   2.488  0.1694  0.6098 -0.1574
  434DG     O19 9978   0.196   0.168   2.607 -0.2392 -0.3322  0.3179
  434DG     H20 9979   0.397   0.219   2.648 -0.2188 -0.1298  0.5871
  434DG     H21 9980   0.305   0.345   2.567  1.1094 -1.4743 -1.7910
  434DG     H22 9981   0.330   0.050   2.502  0.1624  0.2652 -1.1866
  434DG     H23 9982   0.238   0.180   2.416 -2.0334  0.5950 -0.3651
  435DG      C1 9983   3.011   3.881   3.869  0.3287  0.0013  0.1830
  435DG      C2 9984   3.171   4.425   4.396 -0.2465 -0.2047 -0.7962
  435DG      H3 9985   2.903   3.898   3.869  0.3114  0.2787  2.8025
  435DG      H4 9986   3.039   3.777   3.853  0.3121 -0.1253  0.9447
  435DG      H5 9987   3.049   3.938   3.785  0.9276 -1.6582 -0.7303
  435DG      H6 9988   3.065   4.445   4.406 -0.1505 -0.0184 -0.0651
  435DG      H7 9989   3.237   4.457   4.477  1.6385 -1.7679 -1.6397
  435DG      H8 9990   3.215   4.497   4.326 -2.0717  1.0472 -0.7408
  435DG      O9 9991   3.067   3.930   3.996  1.2765  0.0254 -0.2694
  435DG     O10 9992   3.206   4.292   4.359 -0.4591 -0.0730  0.0288
  435DG     C11 9993   3.019   3.858   4.111  0.5862 -0.2542  0.3143
  435DG     C12 9994   3.148   4.188   4.442 -0.3771 -0.1158 -0.8040
  435DG     H13 9995   2.993   3.753   4.102  1.3127 -0.3970 -0.1639
  435DG     H14 9996   2.924   3.900   4.145  1.1690  1.1301  0.2900
  435DG     H15 9997   3.039   4.196   4.453 -0.3501  1.1564 -1.3497
  435DG     H16 9998   3.174   4.198   4.548 -0.8066 -1.1391 -0.5872
  435DG     C17 9999   3.113   3.884   4.226  0.2562  0.0919 -0.8273
  435DG     C1810000   3.175   4.048   4.387 -0.3615  0.2291  0.5730
  435DG     O1910001   3.105   4.027   4.269  0.4420 -0.0792 -0.3557
  435DG     H2010002   3.218   3.862   4.204  0.4493  0.8288 -0.6713
  435DG     H2110003   3.086   3.822   4.312 -1.1006  0.9677 -0.5896
  435DG     H2210004   3.283   4.036   4.371 -0.8784 -1.1189 -2.8948
  435DG     H2310005   3.143   3.980   4.466  0.8720 -1.6931 -0.5071
  436DG      C110006   2.022   4.364   1.767  0.0042  0.0727 -0.7552
  436DG      C210007   1.362   4.263   1.835 -0.1200  0.6018 -0.2189
  436DG      H310008   1.994   4.414   1.860  2.7476  1.3101 -0.4719
  436DG      H410009   2.082   4.430   1.705 -0.8899 -1.0329 -2.8873
  436DG      H510010   2.089   4.280   1.788 -0.7573 -0.1407  1.0339
  436DG      H610011   1.264   4.287   1.796 -0.1796  0.6521 -0.0391
  436DG      H710012   1.373   4.165   1.881  0.1946  0.0600 -1.4093
  436DG      H810013   1.379   4.341   1.909 -0.6466  0.7372 -0.2379
  436DG      O910014   1.905   4.320   1.687 -0.0315  1.2066 -0.5947
  436DG     O1010015   1.459   4.290   1.740  0.3483 -0.0028  0.0485
  436DG     C1110016   1.928   4.261   1.560 -0.1810  0.6452 -0.5293
  436DG     C1210017   1.449   4.205   1.628 -0.1836 -0.1676 -0.6820
  436DG     H1310018   1.975   4.163   1.576 -1.6605 -0.0787 -0.4883
  436DG     H1410019   2.003   4.320   1.507 -0.7799  0.7484 -1.2785
  436DG     H1510020   1.362   4.226   1.566  1.6480  2.3986 -2.6169
  436DG     H1610021   1.447   4.101   1.659  0.1105  0.3956  1.4177
  436DG     C1710022   1.797   4.230   1.493  0.2601 -0.3336 -0.2848
  436DG     C1810023   1.567   4.243   1.526 -0.0056  0.5088 -0.2231
  436DG     O1910024   1.692   4.231   1.588  0.2229 -0.1075  0.0612
  436DG     H2010025   1.800   4.135   1.440 -1.8141 -1.4809  1.4827
  436DG     H2110026   1.766   4.299   1.415 -1.2626  0.5920  1.0637
  436DG     H2210027   1.551   4.171   1.446  2.2042  0.3522 -0.6054
  436DG     H2310028   1.554   4.346   1.495 -2.8653  0.1761 -0.3705
  437DG      C110029   1.532   3.120   5.196 -0.2070  0.1571  0.3598
  437DG      C210030   1.282   2.500   5.308 -0.2547  0.2229 -0.7357
  437DG      H310031   1.560   3.080   5.098  0.1140  1.6219 -0.1801
  437DG      H410032   1.581   3.217   5.208  1.0653 -0.2326 -1.2177
  437DG      H510033   1.427   3.148   5.186  0.3170  2.0213 -0.4312
  437DG      H610034   1.178   2.530   5.292 -0.0283  1.0968 -0.6073
  437DG      H710035   1.327   2.497   5.209 -0.7887 -0.0677 -0.9757
  437DG      H810036   1.282   2.400   5.350 -0.4960  0.3535 -0.4154
  437DG      O910037   1.551   3.027   5.302 -0.0123  0.5502 -0.2980
  437DG     O1010038   1.353   2.584   5.396  0.1387  0.5802 -0.1325
  437DG     C1110039   1.471   3.064   5.413 -0.9815  0.4625  0.1957
  437DG     C1210040   1.262   2.627   5.497 -0.6243 -0.5933 -0.8023
  437DG     H1310041   1.369   3.102   5.406 -1.6506 -1.2545  0.0557
  437DG     H1410042   1.528   3.141   5.465 -0.1763 -1.8381  3.0539
  437DG     H1510043   1.262   2.539   5.562  0.3473 -0.1299 -0.1499
  437DG     H1610044   1.162   2.651   5.462 -2.0252 -2.3275  1.6787
  437DG     C1710045   1.462   2.946   5.510 -0.3264  0.4199 -0.3117
  437DG     C1810046   1.339   2.743   5.565  0.7219 -0.0512  0.4648
  437DG     O1910047   1.382   2.834   5.464 -0.1703  0.2389  0.0772
  437DG     H2010048   1.415   2.986   5.599  0.6425 -0.5097  0.6403
  437DG     H2110049   1.560   2.905   5.534 -0.7327 -0.0788  0.5385
  437DG     H2210050   1.264   2.800   5.621 -0.5010 -0.2589 -0.9027
  437DG     H2310051   1.421   2.718   5.632  0.5522  2.0629  1.5609
  438DG      C110052   3.996   4.582   5.200  0.2255 -0.0862 -0.3411
  438DG      C210053   3.669   4.965   4.634 -0.1217  0.5207 -0.5571
  438DG      H310054   4.078   4.644   5.235  0.1881  1.0898 -2.1876
  438DG      H410055   4.029   4.540   5.104  0.7002  0.2375 -0.3235
  438DG      H510056   3.982   4.493   5.262  1.5264  1.0038  1.6438
  438DG      H610057   3.564   4.983   4.608 -1.3025 -1.5986  2.2336
  438DG      H710058   3.710   5.058   4.673  1.4656  1.0176 -3.2226
  438DG      H810059   3.717   4.933   4.542  0.0770 -0.3234 -0.1676
  438DG      O910060   3.879   4.661   5.190  0.2602  0.4548  0.0923
  438DG     O1010061   3.664   4.863   4.735  0.4010  0.2483  0.0888
  438DG     C1110062   3.763   4.588   5.155 -0.3207  0.2835 -0.4252
  438DG     C1210063   3.787   4.856   4.807 -0.1522 -0.3435 -0.1340
  438DG     H1310064   3.735   4.537   5.247  1.5676  0.7795  0.4777
  438DG     H1410065   3.786   4.500   5.095  0.1723 -0.6383  1.0844
  438DG     H1510066   3.807   4.947   4.863  0.0329 -0.2173 -0.4008
  438DG     H1610067   3.872   4.833   4.744  0.0796  3.6098 -1.5531
  438DG     C1710068   3.652   4.681   5.103 -0.0439  0.7585 -0.3314
  438DG     C1810069   3.771   4.738   4.904  0.3144 -0.5429 -0.3727
  438DG     O1910070   3.680   4.781   5.006  0.5923  0.1996  0.0885
  438DG     H2010071   3.606   4.729   5.189 -1.8437 -0.0716 -0.7735
  438DG     H2110072   3.572   4.622   5.058 -0.2858  1.1719 -0.4564
  438DG     H2210073   3.723   4.650   4.862 -1.6903 -0.6903  2.0124
  438DG     H2310074   3.868   4.715   4.948 -0.8625  1.3335  3.6462
  439DG      C110075   3.289   2.951   0.440  0.3232  0.5532  0.4888
  439DG      C210076   3.120   2.176   0.440 -0.9345 -0.2198  0.3041
  439DG      H310077   3.217   2.998   0.373  2.7924  3.5288 -0.2908
  439DG      H410078   3.387   2.947   0.393  0.6659 -1.9472  1.2568
  439DG      H510079   3.308   3.012   0.528  1.6898 -1.2614  1.5226
  439DG      H610080   3.039   2.173   0.367 -1.5458 -1.2586  1.0017
  439DG      H710081   3.214   2.135   0.401 -2.6311 -2.2619 -1.9361
  439DG      H810082   3.107   2.099   0.515 -0.0167 -0.3191  0.3746
  439DG      O910083   3.248   2.812   0.477  0.2738 -0.0736  0.4125
  439DG     O1010084   3.144   2.307   0.493  0.1010  0.1212 -0.0230
  439DG     C1110085   3.205   2.746   0.364  0.3422  0.3316 -0.5057
  439DG     C1210086   3.028   2.362   0.551 -0.2889  0.3823  0.6829
  439DG     H1310087   3.287   2.741   0.292  0.1511  2.3168 -0.9260
  439DG     H1410088   3.127   2.789   0.301 -1.3210 -0.8584  0.6892
  439DG     H1510089   3.008   2.306   0.642  1.7323  0.4526  1.2160
  439DG     H1610090   2.942   2.356   0.484  1.2442  2.6760 -1.7062
  439DG     C1710091   3.177   2.603   0.414  0.0120 -0.1161  0.2653
  439DG     C1810092   3.057   2.505   0.601 -0.3685 -0.3099  0.0488
  439DG     O1910093   3.071   2.604   0.504 -0.3540  0.4467  0.5749
  439DG     H2010094   3.272   2.572   0.457  1.1230 -1.4494 -2.8743
  439DG     H2110095   3.157   2.534   0.332  0.4220  1.5249 -1.2868
  439DG     H2210096   2.974   2.534   0.665  0.6587  0.8339  0.9179
  439DG     H2310097   3.154   2.499   0.651 -0.0056 -2.3460 -0.7802
  440DG      C110098   2.100   0.978   0.454  0.2544  0.1930 -0.0904
  440DG      C210099   1.737   0.508   0.650 -0.2560 -0.0863  0.1041
  440DG      H310100   2.182   1.044   0.483  0.6681  0.0961 -1.0099
  440DG      H410101   2.027   1.017   0.384  0.6154 -0.5845 -0.9169
  440DG      H510102   2.141   0.893   0.399  0.7650 -1.2634  2.3865
  440DG      H610103   1.643   0.455   0.636 -1.3934  1.4761  1.3695
  440DG      H710104   1.818   0.439   0.627  0.4220 -0.0273  2.0979
  440DG      H810105   1.746   0.534   0.755  1.6680 -0.7851  0.1568
  440DG      O910106   2.049   0.929   0.572 -0.6497  0.6156  0.4777
  440DG     O1010107   1.739   0.611   0.565 -0.4602  0.1596 -0.1879
  440DG     C1110108   1.984   1.035   0.644  0.6375  0.1713 -0.4559
  440DG     C1210109   1.635   0.708   0.595  0.2266  0.3219  0.2225
  440DG     H1310110   1.940   1.101   0.569  0.8960  0.0913 -0.6766
  440DG     H1410111   2.053   1.100   0.698  0.3418  1.9162 -2.0568
  440DG     H1510112   1.534   0.676   0.621 -0.7874  2.1668 -1.1654
  440DG     H1610113   1.611   0.757   0.501  0.2569 -0.3705 -0.1505
  440DG     C1710114   1.857   0.983   0.728 -0.0348  0.8303  0.6168
  440DG     C1810115   1.686   0.801   0.696  0.3650 -0.1443  0.3118
  440DG     O1910116   1.804   0.874   0.642  0.2534  0.5068 -0.3804
  440DG     H2010117   1.780   1.060   0.738 -1.7804 -1.0113  2.2712
  440DG     H2110118   1.884   0.953   0.829 -1.6419 -2.8206  0.1167
  440DG     H2210119   1.595   0.855   0.721 -1.2774 -3.0648  1.0614
  440DG     H2310120   1.717   0.749   0.787 -1.2055 -2.3567 -0.3309
  441DG      C110121   4.704   4.148   3.256  0.3077 -0.5919 -0.1880
  441DG      C210122   4.014   4.267   2.744  0.1853 -0.2223  0.3840
  441DG      H310123   4.769   4.217   3.310 -3.0372  2.1932  0.6335
  441DG      H410124   4.755   4.055   3.230  2.6102  0.2553  1.0069
  441DG      H510125   4.628   4.128   3.332 -0.0467 -0.9147 -0.6181
  441DG      H610126   4.019   4.160   2.724 -2.5333 -0.3496 -0.0188
  441DG      H710127   3.937   4.282   2.820  0.6716  2.5035  0.4484
  441DG      H810128   3.965   4.318   2.660  1.7255 -0.4807 -0.7071
  441DG      O910129   4.650   4.218   3.139 -0.8153 -0.0393  0.9291
  441DG     O1010130   4.129   4.319   2.801 -0.1592 -1.1078 -0.6463
  441DG     C1110131   4.541   4.170   3.070 -0.8942 -0.5584  0.0453
  441DG     C1210132   4.241   4.304   2.712  0.3590  0.1873 -0.2087
  441DG     H1310133   4.457   4.146   3.135 -1.7325  1.2770 -0.2882
  441DG     H1410134   4.561   4.077   3.016 -1.7068 -0.7436  0.0531
  441DG     H1510135   4.228   4.377   2.632  1.0106  1.9760  1.2568
  441DG     H1610136   4.258   4.208   2.663  1.5550  0.1541  0.2461
  441DG     C1710137   4.509   4.285   2.977  0.1471  0.0502  0.0889
  441DG     C1810138   4.378   4.333   2.781  0.2852  0.4730 -0.2300
  441DG     O1910139   4.396   4.252   2.896 -0.0115 -0.1350 -0.2052
  441DG     H2010140   4.587   4.326   2.913  0.0952 -0.4180 -0.2819
  441DG     H2110141   4.477   4.366   3.041  1.2998 -0.0346  0.7964
  441DG     H2210142   4.470   4.327   2.723 -0.0528 -1.9629 -0.6093
  441DG     H2310143   4.366   4.439   2.802  1.9775  1.3109 -2.9960
  442DG      C110144   4.398   1.752   3.425 -0.0086  0.7246  0.4640
  442DG      C210145   4.943   1.507   3.022 -0.4441 -0.7817 -0.0166
  442DG      H310146   4.431   1.733   3.527 -0.0185  0.0508  0.3437
  442DG      H410147   4.310   1.689   3.409 -0.2318  0.6960  1.6845
  442DG      H510148   4.369   1.857   3.422 -0.0867  0.6985  0.2811
  442DG      H610149   4.987   1.503   2.923  1.4365  0.8158  0.6816
  442DG      H710150   5.018   1.499   3.101 -2.3274  0.1166  1.9973
  442DG      H810151   4.880   1.418   3.020  1.9999 -2.5923 -1.6625
  442DG      O910152   4.492   1.715   3.325  0.6097  0.1624  0.2088
  442DG     O1010153   4.877   1.634   3.032 -0.3669 -0.0534  0.1985
  442DG     C1110154   4.590   1.820   3.307  0.2812 -1.2013  0.0081
  442DG     C1210155   4.778   1.655   2.932 -0.2145  0.2672 -0.3103
  442DG     H1310156   4.640   1.838   3.401 -0.6403  1.7146  0.0473
  442DG     H1410157   4.552   1.919   3.280  2.4266  0.4567  2.6080
  442DG     H1510158   4.705   1.574   2.925 -0.5690  0.6960 -2.2989
  442DG     H1610159   4.826   1.658   2.834  2.7292 -1.2362  0.9651
  442DG     C1710160   4.681   1.774   3.187 -0.2009 -0.2724 -0.0158
  442DG     C1810161   4.695   1.783   2.954  0.5161  0.2812 -0.6725
  442DG     O1910162   4.610   1.776   3.067  0.4460 -0.2698 -0.1053
  442DG     H2010163   4.710   1.670   3.200  3.8600  0.4850 -1.5380
  442DG     H2110164   4.769   1.838   3.191 -1.9278  2.2806 -0.8187
  442DG     H2210165   4.753   1.875   2.957  0.4552  0.3251 -0.8731
  442DG     H2310166   4.632   1.800   2.867 -0.3251  0.9670  0.0539
  443DG      C110167   3.070   0.422   0.637  0.6636  0.4043 -0.1679
  443DG      C210168   3.757   0.687   0.765 -0.1504  0.2221 -0.1223
  443DG      H310169   3.066   0.466   0.736  1.5468  1.9611 -0.7942
  443DG      H410170   2.999   0.339   0.636  1.7641 -0.5791  0.6041
  443DG      H510171   3.033   0.495   0.565  2.1789  1.2872 -0.0854
  443DG      H610172   3.800   0.750   0.686  0.6749  0.1154  0.2302
  443DG      H710173   3.695   0.748   0.830 -1.3458 -0.3880 -0.6666
  443DG      H810174   3.846   0.651   0.817  0.1025  0.6472 -0.2568
  443DG      O910175   3.199   0.384   0.610  0.2110 -0.5411  0.0332
  443DG     O1010176   3.693   0.577   0.714  0.7249  0.0994 -0.2809
  443DG     C1110177   3.256   0.316   0.718 -0.0669 -0.7424  0.7364
  443DG     C1210178   3.585   0.611   0.633 -0.0973  0.4699  0.9746
  443DG     H1310179   3.213   0.221   0.749 -0.3499 -0.1375  2.3201
  443DG     H1410180   3.260   0.372   0.812  2.0854  2.0045 -0.8211
  443DG     H1510181   3.622   0.657   0.542  0.1350 -2.3670 -0.4751
  443DG     H1610182   3.520   0.685   0.681  2.3236  1.1109  3.5110
  443DG     C1710183   3.407   0.296   0.693 -0.3238  0.1163 -0.1544
  443DG     C1810184   3.523   0.470   0.600 -0.0742 -0.8256 -0.3107
  443DG     O1910185   3.474   0.420   0.719  0.0655  0.2397  0.3635
  443DG     H2010186   3.406   0.260   0.590  1.3559 -1.2720  0.2597
  443DG     H2110187   3.455   0.219   0.753  0.7890  1.4883  0.7991
  443DG     H2210188   3.453   0.479   0.517 -0.1495 -1.2549 -0.2990
  443DG     H2310189   3.596   0.400   0.559  1.1944  0.8427 -1.0343
  444DG      C110190   5.082   2.313   2.022 -0.0013  0.5443  0.1566
  444DG      C210191   5.433   1.753   1.826  0.2335  0.6777  0.0118
  444DG      H310192   5.065   2.325   1.915  0.8240 -1.5276 -0.2615
  444DG      H410193   5.124   2.407   2.056  1.4849  0.4311 -1.2300
  444DG      H510194   4.993   2.300   2.083 -0.7846  0.8206 -0.9019
  444DG      H610195   5.453   1.808   1.735 -0.2591 -0.4045 -0.7725
  444DG      H710196   5.509   1.675   1.840  0.0000  0.4966  0.2729
  444DG      H810197   5.336   1.705   1.833 -0.3763  1.8555 -0.2895
  444DG      O910198   5.178   2.212   2.044 -0.7923  0.0539  0.1474
  444DG     O1010199   5.439   1.843   1.934  0.3301 -0.1213 -0.6415
  444DG     C1110200   5.205   2.191   2.182 -0.4271  0.4585 -0.4739
  444DG     C1210201   5.455   1.797   2.065 -0.0565 -0.2750  0.5668
  444DG     H1310202   5.119   2.145   2.230  1.2350 -1.8299  0.4767
  444DG     H1410203   5.204   2.289   2.231 -0.6225 -0.4799  1.4824
  444DG     H1510204   5.542   1.732   2.077 -1.2079 -1.6259  2.2278
  444DG     H1610205   5.363   1.740   2.076 -0.0790 -0.6542 -1.2817
  444DG     C1710206   5.341   2.117   2.219 -0.1531  0.3480  0.3413
  444DG     C1810207   5.453   1.915   2.162  0.7685 -0.8889 -0.1209
  444DG     O1910208   5.338   1.995   2.141 -0.0905 -0.1004 -0.3018
  444DG     H2010209   5.345   2.097   2.326 -0.4980  2.0957  0.7260
  444DG     H2110210   5.424   2.184   2.196 -1.6396  1.7261 -1.3865
  444DG     H2210211   5.444   1.878   2.264 -0.7555  0.2894  0.2134
  444DG     H2310212   5.546   1.970   2.153  0.0338  0.3558 -0.2306
  445DG      C110213   3.481   3.650   4.753 -0.3751 -0.0490  0.6375
  445DG      C210214   2.890   4.094   5.001 -0.6549  0.2820  0.4263
  445DG      H310215   3.438   3.563   4.702  0.2930  0.3451 -0.6223
  445DG      H410216   3.448   3.635   4.856 -1.0805  1.7307  0.6934
  445DG      H510217   3.587   3.662   4.733 -0.6162  1.6679  0.2693
  445DG      H610218   2.853   4.007   5.055 -1.0154  0.6035  0.7010
  445DG      H710219   2.859   4.180   5.060 -0.8815  0.4962 -0.0019
  445DG      H810220   2.830   4.114   4.912 -0.9063 -1.5033  0.1592
  445DG      O910221   3.415   3.765   4.698  0.4090 -0.1754  0.5654
  445DG     O1010222   3.030   4.083   4.973 -0.3597 -0.2335  0.7388
  445DG     C1110223   3.462   3.884   4.742  0.2954 -1.1401 -0.5249
  445DG     C1210224   3.062   4.025   4.849  0.6852 -0.0159 -0.2205
  445DG     H1310225   3.569   3.893   4.725  0.1591 -2.7084 -2.6751
  445DG     H1410226   3.440   3.892   4.849  1.0005 -0.3588 -0.4271
  445DG     H1510227   2.992   4.056   4.771 -1.9406 -0.9754  1.5996
  445DG     H1610228   3.049   3.918   4.867 -1.3556  0.1426 -0.4919
  445DG     C1710229   3.387   3.999   4.677  0.0145  0.5398 -0.2716
  445DG     C1810230   3.207   4.049   4.819  0.2500 -0.1761 -0.2509
  445DG     O1910231   3.246   3.978   4.699  0.1931  0.5823 -0.0995
  445DG     H2010232   3.417   3.992   4.573  1.0426  1.3102 -0.0592
  445DG     H2110233   3.426   4.093   4.719 -2.2790  0.3326  2.6686
  445DG     H2210234   3.216   4.156   4.802 -1.8640 -0.2146 -2.0895
  445DG     H2310235   3.272   4.026   4.903 -0.5483  1.4362  0.8652
  446DG      C110236   1.786   5.084   3.733 -0.6903  0.0097  0.8455
  446DG      C210237   1.637   5.506   4.232 -0.5817  0.2875 -0.0929
  446DG      H310238   1.750   5.042   3.639  0.2258 -0.0075  0.4962
  446DG      H410239   1.837   5.007   3.792 -0.9239 -1.3422 -0.6462
  446DG      H510240   1.859   5.162   3.715 -1.5106  0.7887  0.7962
  446DG      H610241   1.718   5.558   4.181 -1.2531 -0.4125 -1.9406
  446DG      H710242   1.555   5.571   4.261 -2.1696 -1.9001  0.5947
  446DG      H810243   1.677   5.466   4.325  0.2231 -1.7881 -1.2735
  446DG      O910244   1.691   5.142   3.814 -0.0069  0.2696 -0.1549
  446DG     O1010245   1.593   5.407   4.149  0.2358  0.2921  0.3045
  446DG     C1110246   1.580   5.055   3.835  0.4762 -0.1404 -0.7460
  446DG     C1210247   1.472   5.349   4.200 -0.3178 -0.9335 -0.1449
  446DG     H1310248   1.619   4.970   3.891 -1.7428 -0.4887  0.3854
  446DG     H1410249   1.540   5.015   3.742 -3.2465  0.5412  0.4136
  446DG     H1510250   1.391   5.421   4.207  0.0776 -0.5766  0.8838
  446DG     H1610251   1.503   5.318   4.300  2.4756  0.8656 -0.3491
  446DG     C1710252   1.470   5.108   3.923 -0.3266 -0.6336  0.5271
  446DG     C1810253   1.417   5.241   4.104 -0.0158 -0.9314 -0.4327
  446DG     O1910254   1.530   5.189   4.029 -0.0010  0.1578  0.3578
  446DG     H2010255   1.399   5.029   3.947 -0.2527 -1.5375 -1.8744
  446DG     H2110256   1.412   5.179   3.864 -0.2344 -1.7234 -0.9289
  446DG     H2210257   1.366   5.160   4.156 -1.0482 -1.9253 -2.8695
  446DG     H2310258   1.347   5.292   4.038  0.1680 -1.0373 -0.7106
  447DG      C110259   3.870   2.827   1.350 -0.1400 -0.6330 -0.4514
  447DG      C210260   3.872   2.710   2.065  0.3137  0.0264 -0.3295
  447DG      H310261   3.807   2.916   1.358 -0.8411 -1.1250 -0.3334
  447DG      H410262   3.822   2.735   1.315 -0.0832 -1.0652  0.5638
  447DG      H510263   3.930   2.865   1.268 -1.4259  0.3381 -0.9618
  447DG      H610264   3.803   2.630   2.090  0.1132  0.1865 -0.3695
  447DG      H710265   3.943   2.709   2.148 -1.6148  1.1719  1.4470
  447DG      H810266   3.816   2.803   2.056 -0.7709 -0.2875  2.1856
  447DG      O910267   3.958   2.810   1.465  0.2496  0.6976  0.1581
  447DG     O1010268   3.949   2.676   1.950 -0.2988  0.0973 -0.3585
  447DG     C1110269   4.052   2.712   1.457 -0.2630  0.0209  0.4294
  447DG     C1210270   3.869   2.653   1.838 -0.0776 -0.0587 -1.0466
  447DG     H1310271   4.120   2.733   1.375 -1.2697 -1.9090 -0.9918
  447DG     H1410272   4.017   2.610   1.441  4.0362 -1.7332  0.9442
  447DG     H1510273   3.811   2.739   1.804 -1.8685 -1.3821 -1.4860
  447DG     H1610274   3.789   2.582   1.858 -0.2046  0.3870  0.0842
  447DG     C1710275   4.123   2.711   1.592  0.6360 -1.4291  0.4915
  447DG     C1810276   3.942   2.614   1.714 -0.0474 -0.5308 -0.0200
  447DG     O1910277   4.023   2.729   1.697  0.0489  0.4569  0.2072
  447DG     H2010278   4.192   2.795   1.593  0.0302 -0.8748 -1.0119
  447DG     H2110279   4.175   2.616   1.606  2.4472 -0.5337  0.1163
  447DG     H2210280   4.007   2.528   1.729  1.1446  0.6746  2.2109
  447DG     H2310281   3.875   2.603   1.629  1.9721 -1.4006 -1.5546
  448DG      C110282   2.336   4.586   1.648 -0.0404  0.2859  0.4465
  448DG      C210283   2.141   3.808   1.445  0.3594 -0.3277  0.1222
  448DG      H310284   2.244   4.609   1.701  0.3512  1.7760  0.5275
  448DG      H410285   2.329   4.638   1.553  0.4578  1.6179  1.0957
  448DG      H510286   2.418   4.642   1.695  0.1051  1.9046 -1.5896
  448DG      H610287   2.058   3.868   1.408 -1.0553 -2.0095  0.4375
  448DG      H710288   2.168   3.750   1.356 -1.5553  1.3919 -1.6637
  448DG      H810289   2.102   3.738   1.519  0.6830 -1.8366 -1.0658
  448DG      O910290   2.359   4.445   1.637  0.3090  0.5137  0.6668
  448DG     O1010291   2.251   3.873   1.503  0.6514 -0.0333  0.6789
  448DG     C1110292   2.474   4.422   1.566 -0.1793  0.7181  0.5844
  448DG     C1210293   2.280   4.008   1.456  0.6621  0.4615 -0.3271
  448DG     H1310294   2.563   4.472   1.605  0.0639  1.5968 -0.9958
  448DG     H1410295   2.469   4.473   1.469  2.2518 -0.6539 -0.3649
  448DG     H1510296   2.188   4.066   1.461 -1.0520 -1.9823 -1.2957
  448DG     H1610297   2.305   4.019   1.351  1.1970 -2.2807 -0.5745
  448DG     C1710298   2.507   4.275   1.563 -0.2803  0.9099  0.6188
  448DG     C1810299   2.390   4.077   1.536  0.5236 -0.1202 -0.1623
  448DG     O1910300   2.382   4.214   1.511  0.4108 -0.0519 -0.4106
  448DG     H2010301   2.526   4.255   1.668 -0.5497  0.0295  0.5130
  448DG     H2110302   2.602   4.251   1.514  0.2220 -0.9933  2.3610
  448DG     H2210303   2.363   4.064   1.641  1.9177  3.6764  0.8408
  448DG     H2310304   2.488   4.031   1.521  0.9311  0.3027  1.0714
  449DG      C110305   5.002   1.831   5.107 -0.4619 -0.7746 -0.0185
  449DG      C210306   5.419   2.231   5.681 -0.4884 -0.0010 -0.2340
  449DG      H310307   4.959   1.916   5.054  1.4457 -0.1337 -0.6581
  449DG      H410308   4.928   1.769   5.157  0.8425 -1.0160  1.6942
  449DG      H510309   5.049   1.762   5.036  1.6258  0.1651  0.3559
  449DG      H610310   5.343   2.307   5.662  0.9773  1.1362 -1.8446
  449DG      H710311   5.419   2.216   5.789 -0.7702 -0.3135 -0.2782
  449DG      H810312   5.517   2.274   5.657  0.3124 -2.6788 -2.2337
  449DG      O910313   5.105   1.876   5.198  0.0483  0.1305 -0.6912
  449DG     O1010314   5.391   2.117   5.602 -0.1259  0.0875  0.2444
  449DG     C1110315   5.046   1.937   5.316  0.4270 -0.2825 -0.2186
  449DG     C1210316   5.290   2.036   5.651  0.9898 -0.4764 -0.6289
  449DG     H1310317   5.008   1.866   5.389 -0.3177 -0.2463 -0.5622
  449DG     H1410318   4.958   1.997   5.294  1.9537  2.8034  1.3334
  449DG     H1510319   5.205   2.105   5.648  2.1865  1.1436  0.5345
  449DG     H1610320   5.311   2.005   5.753  2.6371 -3.3866 -1.7421
  449DG     C1710321   5.156   2.028   5.378 -0.1396 -0.4982  0.2927
  449DG     C1810322   5.264   1.915   5.564  0.2013  0.3477 -0.6946
  449DG     O1910323   5.268   1.961   5.430 -0.3777 -0.0683  0.6992
  449DG     H2010324   5.110   2.083   5.460 -0.5599  0.2117 -0.4006
  449DG     H2110325   5.194   2.100   5.305  2.8866 -1.8609  0.3725
  449DG     H2210326   5.353   1.855   5.581 -0.2850 -0.1310  0.3390
  449DG     H2310327   5.165   1.875   5.587 -0.1888  0.9325 -1.3304
  450DG      C110328   0.076   4.707   0.280  0.4580  0.1933  0.3681
  450DG      C210329   0.526   4.994   0.335 -0.2313 -0.6830  0.2333
  450DG      H310330   0.018   4.717   0.372 -2.5716 -2.0638 -1.1283
  450DG      H410331   0.003   4.683   0.204 -0.3680  0.7698  0.9529
  450DG      H510332   0.125   4.802   0.258  2.0850 -1.0746 -1.8526
  450DG      H610333   0.565   5.063   0.261 -0.8577 -1.0165 -0.4126
  450DG      H710334   0.418   4.980   0.328 -0.3401 -0.4165  1.1664
  450DG      H810335   0.526   5.041   0.434 -2.2662  3.3460 -1.4394
  450DG      O910336   0.182   4.612   0.291  0.1162 -1.1145  0.0479
  450DG     O1010337   0.601   4.878   0.316 -0.2646 -0.3601  0.4714
  450DG     C1110338   0.252   4.574   0.177 -0.0302  0.6364  0.9026
  450DG     C1210339   0.580   4.769   0.407 -0.1257 -0.2333 -0.4669
  450DG     H1310340   0.264   4.650   0.099 -1.2558 -0.9049 -0.8808
  450DG     H1410341   0.199   4.494   0.127  1.6223  0.1067 -0.1067
  450DG     H1510342   0.556   4.821   0.500  0.6399 -1.7006  0.5923
  450DG     H1610343   0.672   4.713   0.419 -0.0645  0.0259  0.3011
  450DG     C1710344   0.388   4.515   0.211 -0.8352 -0.2987  0.1722
  450DG     C1810345   0.464   4.680   0.371 -0.8149  0.2041 -0.2328
  450DG     O1910346   0.477   4.624   0.245 -0.5048 -0.7134  0.5292
  450DG     H2010347   0.426   4.465   0.122  0.8863 -1.3548  1.4291
  450DG     H2110348   0.391   4.447   0.297  2.0127  0.2798  0.6527
  450DG     H2210349   0.464   4.603   0.448  3.7076  1.7196  1.6338
  450DG     H2310350   0.376   4.745   0.373 -3.0757 -2.6563  0.5671
  451DG      C110351   1.763   2.708   0.134 -0.0731 -0.1066 -0.0196
  451DG      C210352   2.160   3.167  -0.211 -0.2849  0.2968 -0.1500
  451DG      H310353   1.753   2.668   0.033  4.9346 -0.7152 -0.5488
  451DG      H410354   1.673   2.692   0.193 -0.4461  1.1140 -0.2342
  451DG      H510355   1.854   2.660   0.172 -0.9432 -1.3136  0.6027
  451DG      H610356   2.179   3.265  -0.255 -4.0799  1.8594  1.3240
  451DG      H710357   2.249   3.143  -0.153  0.1290  1.6572 -0.1831
  451DG      H810358   2.135   3.107  -0.298 -2.5191  2.2426 -0.9638
  451DG      O910359   1.785   2.844   0.118  0.4033  0.4690  0.5654
  451DG     O1010360   2.043   3.177  -0.127 -0.3549  0.1972 -0.4770
  451DG     C1110361   1.789   2.924   0.237  0.0703 -1.1783 -0.6960
  451DG     C1210362   2.050   3.259  -0.013 -0.1351  0.3781  0.2221
  451DG     H1310363   1.874   2.901   0.302  0.5136 -2.3951 -1.6789
  451DG     H1410364   1.702   2.910   0.301 -0.4513  3.7198  0.0460
  451DG     H1510365   2.056   3.364  -0.043  2.7222  0.5709  1.1615
  451DG     H1610366   2.135   3.228   0.048  0.7861  0.6945 -0.8714
  451DG     C1710367   1.795   3.073   0.195 -0.1336 -0.7076 -0.0209
  451DG     C1810368   1.923   3.235   0.071  0.5087 -0.1196  0.5625
  451DG     O1910369   1.908   3.100   0.106  0.2211 -0.1840 -0.5293
  451DG     H2010370   1.792   3.130   0.288 -0.1344 -1.2877  0.3415
  451DG     H2110371   1.710   3.118   0.143  0.3804 -0.1178 -0.3643
  451DG     H2210372   1.923   3.304   0.156  1.2448 -1.1683  1.4329
  451DG     H2310373   1.842   3.267   0.004  2.2803  0.3257 -1.4953
  452DG      C110374   3.230   3.866  -0.374 -0.4116  0.1772  0.2453
  452DG      C210375   3.088   3.991   0.412 -0.8732  0.0089  0.1084
  452DG      H310376   3.235   3.968  -0.335  1.0068  0.8458 -1.5812
  452DG      H410377   3.146   3.858  -0.443  0.1673 -1.4323 -0.3096
  452DG      H510378   3.321   3.821  -0.411 -0.1677 -0.3625  1.4543
  452DG      H610379   3.012   4.067   0.428 -0.6595  0.3706 -0.5260
  452DG      H710380   3.083   3.924   0.497  1.0210 -0.2591  0.0617
  452DG      H810381   3.186   4.039   0.405  0.7340 -3.1988 -3.0371
  452DG      O910382   3.204   3.779  -0.265  0.0056  0.2500 -0.1215
  452DG     O1010383   3.067   3.910   0.299  0.2797 -0.1884 -0.1580
  452DG     C1110384   3.083   3.810  -0.206 -0.0189 -0.1040 -0.8628
  452DG     C1210385   3.156   3.809   0.279  0.0081  0.3869 -0.2905
  452DG     H1310386   3.004   3.790  -0.279 -0.6136  0.8209 -0.4905
  452DG     H1410387   3.098   3.916  -0.189  0.9032 -0.6061  2.0737
  452DG     H1510388   3.161   3.747   0.369  1.0849 -0.5541 -0.9769
  452DG     H1610389   3.249   3.861   0.257 -0.3701  1.0945 -0.2340
  452DG     C1710390   3.062   3.737  -0.071  0.3189  0.5982  0.2161
  452DG     C1810391   3.108   3.730   0.162 -0.0436  0.9732 -0.0156
  452DG     O1910392   3.123   3.803   0.040 -0.4488  0.3461  0.2809
  452DG     H2010393   3.101   3.635  -0.078 -1.0208 -0.1266  2.3286
  452DG     H2110394   2.955   3.723  -0.054  0.3270 -0.9478 -0.7527
  452DG     H2210395   3.151   3.630   0.154 -1.3738  0.0925  2.4603
  452DG     H2310396   3.002   3.709   0.178 -0.2167  1.4411 -0.5349
  453DG      C110397   3.115   5.378   0.732 -0.3943 -0.6117  0.4227
  453DG      C210398   2.769   5.190   0.973 -0.3106  0.2046  0.1375
  453DG      H310399   3.201   5.313   0.749  2.4879  2.2349 -1.8782
  453DG      H410400   3.023   5.343   0.776 -0.6578 -0.6706 -0.1615
  453DG      H510401   3.147   5.477   0.767 -0.7428  0.0830 -1.0954
  453DG      H610402   2.687   5.190   1.045 -0.0708  0.6930  0.4124
  453DG      H710403   2.761   5.126   0.885 -2.3788 -2.0905  1.8625
  453DG      H810404   2.860   5.160   1.025 -1.2232 -1.6832  0.7131
  453DG      O910405   3.089   5.403   0.594  0.0603  0.3544 -0.1526
  453DG     O1010406   2.798   5.320   0.931  0.1695  0.3900 -0.1695
  453DG     C1110407   3.000   5.512   0.558 -0.2648 -0.3876  0.0598
  453DG     C1210408   2.696   5.393   0.864 -0.4200  0.0368  0.2070
  453DG     H1310409   2.972   5.507   0.453 -2.2429  0.8758  0.4625
  453DG     H1410410   3.040   5.613   0.570  0.0177 -0.5850  0.8495
  453DG     H1510411   2.597   5.391   0.909 -1.0862  2.1149 -1.0027
  453DG     H1610412   2.678   5.342   0.770 -1.4858  1.6298 -0.5043
  453DG     C1710413   2.866   5.511   0.631 -1.1569  0.2861 -0.0481
  453DG     C1810414   2.742   5.531   0.832 -0.3304  0.0466  0.1516
  453DG     O1910415   2.870   5.547   0.768  0.2143  0.2651  0.6914
  453DG     H2010416   2.825   5.412   0.610 -1.5602  0.9242 -2.7366
  453DG     H2110417   2.794   5.571   0.574  0.1176  0.5574 -1.4314
  453DG     H2210418   2.673   5.582   0.765  0.8684  1.5022 -0.0318
  453DG     H2310419   2.748   5.586   0.926 -0.8045  0.1281  0.1364
  454DG      C110420   2.242   1.020   4.761  0.5738 -0.5253  0.1002
  454DG      C210421   2.605   0.810   4.144 -0.2811  0.1886  0.3497
  454DG      H310422   2.244   1.097   4.684  1.6169 -2.9629 -2.4893
  454DG      H410423   2.294   1.064   4.845 -1.3782  2.5425 -0.1264
  454DG      H510424   2.142   0.991   4.793  0.8523 -1.0257  0.5153
  454DG      H610425   2.521   0.807   4.076  0.8551  2.6661 -1.2880
  454DG      H710426   2.668   0.878   4.087 -1.1891 -0.9978 -2.1915
  454DG      H810427   2.645   0.708   4.141 -2.2021 -0.6257  0.9955
  454DG      O910428   2.302   0.904   4.722 -0.7136 -0.1317 -0.2120
  454DG     O1010429   2.569   0.845   4.273  0.3701 -0.0350 -0.1710
  454DG     C1110430   2.251   0.826   4.612 -0.4825 -0.3069 -0.2822
  454DG     C1210431   2.511   0.977   4.289  0.4337 -0.1606 -0.2768
  454DG     H1310432   2.146   0.796   4.608 -0.8157  0.9561 -1.5660
  454DG     H1410433   2.305   0.731   4.610  0.4935  0.1481  1.8838
  454DG     H1510434   2.415   0.997   4.239 -0.0132 -0.8490  0.2967
  454DG     H1610435   2.584   1.048   4.250 -1.2582  1.5629 -0.4748
  454DG     C1710436   2.299   0.909   4.492 -0.2125 -0.6504  0.0199
  454DG     C1810437   2.499   1.031   4.430 -0.3500 -0.1066  0.3236
  454DG     O1910438   2.440   0.936   4.512 -0.0160 -0.0237  0.1305
  454DG     H2010439   2.242   1.000   4.477 -1.0528 -1.1529  0.1139
  454DG     H2110440   2.292   0.853   4.399  3.4042 -0.9242 -0.2451
  454DG     H2210441   2.601   1.050   4.464  0.6365 -1.1762 -1.8310
  454DG     H2310442   2.440   1.123   4.423  0.1983  0.2679  0.6050
  455DG      C110443   4.022   4.201   1.332  0.5774  0.3203  0.3280
  455DG      C210444   4.717   4.356   0.877 -0.4372  0.0254 -0.5617
  455DG      H310445   4.075   4.284   1.378  0.2737  1.5640 -1.4504
  455DG      H410446   4.066   4.109   1.369  3.0735  0.7298 -1.3838
  455DG      H510447   3.916   4.197   1.356 -0.5241 -1.8923 -3.8776
  455DG      H610448   4.745   4.400   0.781  1.5051 -0.9822 -0.5003
  455DG      H710449   4.747   4.423   0.957  0.3554 -1.7705  0.7129
  455DG      H810450   4.751   4.254   0.893 -0.3825 -0.3001 -2.4758
  455DG      O910451   4.047   4.197   1.186  0.7602  0.4267 -0.1065
  455DG     O1010452   4.577   4.345   0.875  0.0126  0.1109 -0.0007
  455DG     C1110453   4.187   4.199   1.165  0.3435 -0.5761  0.0632
  455DG     C1210454   4.517   4.257   0.774  0.5281 -0.6736 -0.2037
  455DG     H1310455   4.233   4.107   1.201 -0.4046 -1.1353 -0.3733
  455DG     H1410456   4.238   4.277   1.222  0.8803 -1.8060  1.3386
  455DG     H1510457   4.570   4.161   0.779  1.2336 -0.2336  1.1554
  455DG     H1610458   4.507   4.290   0.671 -0.0456 -2.3885 -0.7402
  455DG     C1710459   4.212   4.213   1.013  0.3771  0.8530 -0.6097
  455DG     C1810460   4.369   4.225   0.823  0.3319  0.0163  0.2399
  455DG     O1910461   4.349   4.200   0.964  0.1174 -0.0885 -0.0944
  455DG     H2010462   4.163   4.305   0.983  1.5080  1.2971 -1.1681
  455DG     H2110463   4.156   4.128   0.972 -0.2010  0.1852  1.4443
  455DG     H2210464   4.314   4.314   0.791  0.8240  0.2372 -0.0195
  455DG     H2310465   4.328   4.137   0.774 -1.3328  0.2154  1.2072
  456DG      C110466   3.068   1.686   4.876  0.2710  0.2414  0.1067
  456DG      C210467   2.494   1.646   4.274 -0.1105 -0.3343  0.2835
  456DG      H310468   3.156   1.653   4.931 -0.7294 -1.3862  0.7923
  456DG      H410469   2.994   1.716   4.949  0.4881 -0.0138  0.4351
  456DG      H510470   3.090   1.776   4.819 -2.7609  0.3741 -1.0340
  456DG      H610471   2.521   1.747   4.241  0.7505 -1.0575 -1.3545
  456DG      H710472   2.423   1.599   4.206 -0.1039 -1.3507  0.9654
  456DG      H810473   2.440   1.661   4.367 -1.8658  1.6293 -0.9610
  456DG      O910474   3.040   1.568   4.791 -0.3846 -0.3411 -0.4244
  456DG     O1010475   2.601   1.562   4.290  0.0631  0.5221  0.0520
  456DG     C1110476   2.936   1.591   4.695 -0.3004 -0.3590 -0.2549
  456DG     C1210477   2.720   1.626   4.339  0.8881  0.1603  0.0326
  456DG     H1310478   2.975   1.670   4.630 -1.1305  0.1270 -0.1649
  456DG     H1410479   2.853   1.622   4.759 -1.2194 -4.5237  0.8890
  456DG     H1510480   2.701   1.702   4.415 -1.8429 -1.7226  1.4121
  456DG     H1610481   2.764   1.679   4.255 -1.4480  0.0011 -1.3897
  456DG     C1710482   2.906   1.465   4.614  0.4158 -0.0354  0.0963
  456DG     C1810483   2.815   1.523   4.400  0.2284  0.0861 -0.1554
  456DG     O1910484   2.791   1.502   4.537  0.4755 -0.0681 -0.1692
  456DG     H2010485   2.893   1.381   4.682  2.3843 -0.0649  0.4797
  456DG     H2110486   2.991   1.436   4.552  1.9714 -1.3995  2.7198
  456DG     H2210487   2.814   1.429   4.345 -0.3151  0.1011 -0.1754
  456DG     H2310488   2.912   1.570   4.384  0.3553 -0.1487 -0.0839
  457DG      C110489   5.728   3.968   3.940  0.1067  0.3913 -0.4086
  457DG      C210490   5.141   4.480   3.644  0.1319  0.2542 -0.0445
  457DG      H310491   5.717   3.867   3.899 -1.6996  0.2875  0.2282
  457DG      H410492   5.761   3.957   4.043  1.8608 -2.4311 -1.1465
  457DG      H510493   5.810   4.022   3.894 -0.7897  1.4870 -0.7559
  457DG      H610494   5.102   4.379   3.657  2.9531 -1.0936 -1.0524
  457DG      H710495   5.066   4.546   3.686  0.9944  0.2368  1.5772
  457DG      H810496   5.148   4.505   3.538 -0.2809 -1.7335 -0.5921
  457DG      O910497   5.609   4.033   3.938 -0.0269  0.1451 -0.0136
  457DG     O1010498   5.266   4.493   3.703  0.3826  0.1273 -0.0084
  457DG     C1110499   5.554   4.060   3.808 -0.6629 -0.9442  0.4069
  457DG     C1210500   5.265   4.461   3.839  0.1444 -0.1654 -0.4679
  457DG     H1310501   5.543   3.974   3.743 -1.1157 -1.7188  1.4807
  457DG     H1410502   5.628   4.123   3.759  1.2462 -1.0868  2.8778
  457DG     H1510503   5.176   4.500   3.887  2.4733  1.2357  3.0872
  457DG     H1610504   5.351   4.521   3.869  0.4395 -0.6923 -0.2531
  457DG     C1710505   5.413   4.111   3.840 -0.7015 -0.6320 -0.2832
  457DG     C1810506   5.276   4.306   3.861  0.5889 -0.4694 -0.0509
  457DG     O1910507   5.394   4.252   3.799 -0.3085  0.8388 -0.1443
  457DG     H2010508   5.390   4.099   3.946  2.8279 -0.0654  0.6880
  457DG     H2110509   5.338   4.059   3.780  0.5361  0.2527 -2.7293
  457DG     H2210510   5.287   4.286   3.967  1.6211 -2.6004 -0.5104
  457DG     H2310511   5.190   4.247   3.830 -0.8763  0.8728  1.2499
  458DG      C110512   5.552   0.598   3.028 -0.4674 -0.1893  0.1039
  458DG      C210513   5.477   0.145   3.582  0.3039 -0.8059  0.2021
  458DG      H310514   5.604   0.523   2.968 -1.2266 -2.3607  2.0433
  458DG      H410515   5.628   0.660   3.076  0.7224 -0.6246 -1.1445
  458DG      H510516   5.498   0.663   2.959  0.9830 -1.7271 -2.6905
  458DG      H610517   5.553   0.203   3.634  0.3597 -0.6054 -0.1007
  458DG      H710518   5.415   0.112   3.665 -0.2609  1.0181  0.5519
  458DG      H810519   5.520   0.060   3.529  0.1335  0.4040 -1.9893
  458DG      O910520   5.477   0.535   3.128 -0.2416 -0.6454  0.2331
  458DG     O1010521   5.401   0.222   3.488  0.2008 -0.0958  0.1499
  458DG     C1110522   5.391   0.628   3.191 -0.8738  1.0871  0.2858
  458DG     C1210523   5.321   0.320   3.552  0.4732 -0.7368  0.8887
  458DG     H1310524   5.353   0.698   3.117  1.8189 -0.4257 -2.7828
  458DG     H1410525   5.439   0.695   3.263 -2.2997  0.0349  2.3074
  458DG     H1510526   5.374   0.398   3.607 -0.2633 -0.1431  0.7827
  458DG     H1610527   5.233   0.279   3.602 -0.5198 -0.1427 -0.2861
  458DG     C1710528   5.285   0.550   3.263  0.2032  0.4038 -0.3666
  458DG     C1810529   5.254   0.403   3.440  0.1044 -0.7939 -0.6673
  458DG     O1910530   5.344   0.488   3.377  0.1156  0.4019  0.1828
  458DG     H2010531   5.232   0.484   3.194  1.6445 -0.5835 -0.5889
  458DG     H2110532   5.220   0.624   3.308 -0.0896  0.7239 -1.2821
  458DG     H2210533   5.205   0.341   3.364 -0.0018  0.4514 -1.6483
  458DG     H2310534   5.181   0.475   3.477  2.6136  3.0849 -2.6066
  459DG      C110535   3.801   4.530   1.084 -0.3324 -0.1049  0.8007
  459DG      C210536   3.778   5.130   0.615  0.5084  0.4381  0.8892
  459DG      H310537   3.752   4.555   1.178  1.4951 -1.2535  2.1357
  459DG      H410538   3.865   4.448   1.116  0.9754  0.2366 -0.8295
  459DG      H510539   3.728   4.484   1.018 -0.3908  2.6555 -1.2298
  459DG      H610540   3.697   5.107   0.546  2.6417 -1.1440 -1.2585
  459DG      H710541   3.734   5.151   0.713 -1.2758 -0.9234  0.4276
  459DG      H810542   3.832   5.217   0.578 -0.2118  1.1474  1.4639
  459DG      O910543   3.872   4.641   1.019  0.1944 -0.5601 -0.4684
  459DG     O1010544   3.853   5.004   0.633  0.5691 -0.0262 -0.0981
  459DG     C1110545   3.969   4.599   0.925 -0.8423  0.1095  1.1782
  459DG     C1210546   3.766   4.898   0.679  0.1739 -0.0861  0.2209
  459DG     H1310547   3.928   4.536   0.845  0.2742  1.1692 -0.2752
  459DG     H1410548   4.053   4.547   0.972  0.1433 -0.1171 -0.7111
  459DG     H1510549   3.705   4.881   0.590  0.7032  1.7231 -0.5477
  459DG     H1610550   3.704   4.945   0.755 -2.3396  0.1930 -1.8402
  459DG     C1710551   4.035   4.724   0.856 -0.4181  0.7429 -0.1281
  459DG     C1810552   3.847   4.774   0.722 -0.3503 -0.4575 -0.3729
  459DG     O1910553   3.936   4.819   0.823 -0.0865 -0.2516  0.1148
  459DG     H2010554   4.107   4.702   0.777 -0.4797 -2.1398  0.5022
  459DG     H2110555   4.092   4.775   0.933 -0.2410 -0.3495  0.4964
  459DG     H2210556   3.785   4.697   0.767 -1.5310  0.9481  0.4669
  459DG     H2310557   3.907   4.743   0.636  0.7590  0.9499 -0.1506
  460DG      C110558   5.309   5.498   2.217  0.0845  0.1760  0.0633
  460DG      C210559   5.819   5.006   2.092 -0.3354 -0.4297 -0.2648
  460DG      H310560   5.219   5.537   2.169  0.5722 -0.5138 -1.4747
  460DG      H410561   5.390   5.568   2.198 -0.5526  0.3304 -2.5119
  460DG      H510562   5.301   5.505   2.325 -0.6499  0.7167 -0.0178
  460DG      H610563   5.885   5.074   2.147  0.5274 -2.2060  1.0085
  460DG      H710564   5.860   4.905   2.096 -0.1793 -0.3417  2.6571
  460DG      H810565   5.819   5.045   1.990  0.0404  2.8962  0.8873
  460DG      O910566   5.355   5.368   2.203 -0.1564 -0.2558 -0.1144
  460DG     O1010567   5.692   5.020   2.147  0.1201 -0.2359  0.2223
  460DG     C1110568   5.250   5.278   2.185 -0.1183  0.6467 -0.3775
  460DG     C1210569   5.586   4.957   2.072 -0.3311  0.0873  0.5914
  460DG     H1310570   5.221   5.288   2.080  0.9918 -0.3847 -0.8044
  460DG     H1410571   5.164   5.303   2.246 -0.3015  2.1258 -1.1911
  460DG     H1510572   5.606   4.850   2.063 -0.9713 -0.0668  0.9476
  460DG     H1610573   5.568   5.003   1.975 -1.1531  0.5290  0.9457
  460DG     C1710574   5.288   5.130   2.202  0.0541 -0.3886 -0.4733
  460DG     C1810575   5.454   4.975   2.140 -0.6660  0.5388  0.2276
  460DG     O1910576   5.404   5.109   2.127  0.1071 -0.2395  0.4871
  460DG     H2010577   5.209   5.073   2.155 -0.5579 -0.4490  0.6105
  460DG     H2110578   5.297   5.097   2.306 -0.4726  0.5889 -0.1003
  460DG     H2210579   5.371   4.915   2.101 -1.8196 -0.0416  3.2529
  460DG     H2310580   5.480   4.943   2.241 -0.8531 -1.2021 -0.2465
  461DG      C110581   0.679   0.682   3.512 -0.8233 -0.5131  0.0972
  461DG      C210582   0.276   0.848   4.151 -0.3070 -0.4977 -0.5916
  461DG      H310583   0.687   0.607   3.434  0.7397 -0.1899 -0.0879
  461DG      H410584   0.778   0.690   3.557 -0.9967  2.1607  0.1766
  461DG      H510585   0.667   0.779   3.464 -0.8590 -0.5814 -0.0305
  461DG      H610586   0.188   0.912   4.139 -1.1323 -0.5735  3.5102
  461DG      H710587   0.248   0.793   4.241  0.3236  0.4136  0.1852
  461DG      H810588   0.359   0.910   4.185  0.2532 -1.5455 -0.0188
  461DG      O910589   0.582   0.645   3.602 -0.2825  0.1291  0.3478
  461DG     O1010590   0.314   0.775   4.041  0.8332  0.2525 -0.0136
  461DG     C1110591   0.555   0.750   3.688 -0.3133  0.7721  0.5843
  461DG     C1210592   0.213   0.709   3.972  0.1576  0.0276  0.0766
  461DG     H1310593   0.506   0.838   3.648 -0.9624 -0.3064 -1.1106
  461DG     H1410594   0.647   0.779   3.738  0.6783 -0.8325 -0.2138
  461DG     H1510595   0.149   0.780   3.920  0.0820  0.9770  1.4044
  461DG     H1610596   0.149   0.653   4.040 -1.5933  1.5993 -0.1872
  461DG     C1710597   0.477   0.694   3.808 -0.3599  0.3933  0.6823
  461DG     C1810598   0.262   0.600   3.871 -0.1072  0.4748  0.4028
  461DG     O1910599   0.353   0.643   3.770  0.8734 -0.6368 -0.0461
  461DG     H2010600   0.476   0.776   3.880 -0.8554 -0.1117  1.2663
  461DG     H2110601   0.539   0.616   3.853 -0.8424  0.5255  1.6195
  461DG     H2210602   0.321   0.529   3.930 -1.2446  0.2437  1.3155
  461DG     H2310603   0.184   0.538   3.825  0.4546 -1.2448  1.6422
  462DG      C110604   1.492   5.399   1.023 -0.3337  0.3703 -0.0824
  462DG      C210605   1.372   4.735   0.908  0.2109 -0.0960  0.2440
  462DG      H310606   1.495   5.480   1.096  0.9872  1.7461 -1.5770
  462DG      H410607   1.464   5.434   0.923 -0.2134  3.4657  0.8756
  462DG      H510608   1.596   5.367   1.010 -1.4713 -2.8995 -2.7299
  462DG      H610609   1.403   4.754   0.805 -0.5307  1.1635  0.2321
  462DG      H710610   1.452   4.698   0.971  2.9706 -1.4906 -3.6972
  462DG      H810611   1.293   4.660   0.900  2.3376 -2.4308  0.0444
  462DG      O910612   1.413   5.290   1.063  0.0565  0.2096 -0.2092
  462DG     O1010613   1.329   4.860   0.974  0.4059 -0.2196 -0.0938
  462DG     C1110614   1.281   5.332   1.098  0.5196 -0.3531  0.6305
  462DG     C1210615   1.187   4.884   0.979  0.2627  0.7373 -0.0091
  462DG     H1310616   1.235   5.386   1.016  1.8916 -1.1565 -0.7229
  462DG     H1410617   1.281   5.390   1.190  1.2818  0.8183 -0.0811
  462DG     H1510618   1.143   4.797   1.028  1.8457 -1.2928 -1.9605
  462DG     H1610619   1.139   4.890   0.882 -2.1296 -3.4248  0.6840
  462DG     C1710620   1.208   5.205   1.144 -0.0506 -0.0199  0.6377
  462DG     C1810621   1.157   4.989   1.085 -0.0490  0.9345  0.1448
  462DG     O1910622   1.201   5.110   1.038  0.3380 -0.1853 -0.7460
  462DG     H2010623   1.106   5.223   1.177 -0.3244 -1.6980  0.7655
  462DG     H2110624   1.261   5.157   1.226 -1.5841 -1.4700  0.8258
  462DG     H2210625   1.048   4.993   1.095 -0.1183 -1.4292  1.0072
  462DG     H2310626   1.191   4.955   1.182 -0.9194  0.5019  0.3125
  463DG      C110627   5.373   0.833   4.006  0.2938 -0.4465  0.6187
  463DG      C210628   5.231   1.309   4.261 -0.5213 -0.0832 -0.0772
  463DG      H310629   5.384   0.803   4.111 -0.3378 -1.6912  0.3574
  463DG      H410630   5.472   0.858   3.970 -0.5703 -0.4630 -1.9516
  463DG      H510631   5.361   0.735   3.960  0.6781  0.2438 -0.9982
  463DG      H610632   5.179   1.322   4.356 -0.1687 -2.7252  0.5467
  463DG      H710633   5.247   1.204   4.237 -2.9128 -0.3320 -0.9073
  463DG      H810634   5.332   1.341   4.283 -0.9290  1.4795 -0.3392
  463DG      O910635   5.271   0.937   3.984  0.5497 -0.6436  0.1360
  463DG     O1010636   5.167   1.377   4.156  0.4045 -0.3585  0.2630
  463DG     C1110637   5.145   0.891   4.038  0.4125 -0.0691 -0.0621
  463DG     C1210638   5.025   1.357   4.141 -0.5402  0.2876 -0.8005
  463DG     H1310639   5.153   0.873   4.145 -2.2001  1.1007  0.4052
  463DG     H1410640   5.123   0.793   3.994  0.2079  0.6280 -1.5981
  463DG     H1510641   4.996   1.455   4.102  0.1437  1.0750  0.5894
  463DG     H1610642   4.968   1.340   4.232 -1.4371 -2.2286 -1.7364
  463DG     C1710643   5.036   1.001   4.004  0.0463 -0.3348  0.3408
  463DG     C1810644   5.001   1.242   4.041 -0.7112 -0.0631  0.1985
  463DG     O1910645   5.085   1.121   4.059 -0.7858  0.6235 -0.2655
  463DG     H2010646   4.942   0.978   4.055 -1.0850  1.1421 -0.9672
  463DG     H2110647   5.011   1.001   3.898 -0.5135 -0.5095  0.4718
  463DG     H2210648   4.897   1.210   4.044 -0.3218 -1.3730  0.2955
  463DG     H2310649   5.018   1.281   3.941 -3.2321  0.3153 -0.1677
  464DG      C110650   1.937   1.390   0.627  0.2079  0.8212 -0.7675
  464DG      C210651   2.329   2.154   0.616 -0.3621  0.0281 -0.4074
  464DG      H310652   1.833   1.360   0.642 -1.2968  3.4787 -4.3519
  464DG      H410653   2.007   1.358   0.704 -1.1184  0.8288  0.4828
  464DG      H510654   1.974   1.341   0.537  1.9641 -0.4673  0.5772
  464DG      H610655   2.373   2.130   0.713  1.3786  0.1954 -1.1305
  464DG      H710656   2.399   2.120   0.540  2.0592  1.9615  0.8071
  464DG      H810657   2.332   2.262   0.602  0.9800 -0.0960 -1.1835
  464DG      O910658   1.937   1.528   0.606 -0.4365 -0.1259  0.1097
  464DG     O1010659   2.204   2.110   0.613  0.4479  0.1468 -0.3963
  464DG     C1110660   1.892   1.605   0.726 -0.0743  0.9331  0.5856
  464DG     C1210661   2.198   1.974   0.662  0.0879  0.2413  0.2806
  464DG     H1310662   1.958   1.590   0.811  0.1783 -2.2979 -0.0589
  464DG     H1410663   1.791   1.583   0.760  0.3290  1.3952  2.1255
  464DG     H1510664   2.232   1.966   0.765 -0.3729  1.4401  0.5418
  464DG     H1610665   2.264   1.904   0.612 -1.0148 -0.3175 -0.4420
  464DG     C1710666   1.902   1.758   0.695  0.1986  0.0635  0.5581
  464DG     C1810667   2.058   1.923   0.651 -0.1812 -0.0381  0.0991
  464DG     O1910668   2.036   1.789   0.692 -0.2587  0.0491  0.2013
  464DG     H2010669   1.861   1.808   0.783  1.9147 -0.6156  1.8028
  464DG     H2110670   1.848   1.782   0.603 -0.8897  1.2837  1.4740
  464DG     H2210671   1.987   1.987   0.702 -0.1549  0.9322 -1.0300
  464DG     H2310672   2.025   1.919   0.547  1.5815 -1.4876 -0.4528
  465DG      C110673   4.049   4.299   4.946  0.4190  1.2230 -0.0469
  465DG      C210674   4.635   4.290   4.913 -0.0896  0.2629 -0.2150
  465DG      H310675   4.122   4.348   5.010  0.0587  0.8220  0.6881
  465DG      H410676   4.012   4.206   4.989 -0.8276  0.7371 -1.9958
  465DG      H510677   3.954   4.353   4.936  0.3556  0.7181 -3.8673
  465DG      H610678   4.573   4.235   4.842  0.4737  1.3815 -1.6232
  465DG      H710679   4.741   4.314   4.897 -0.4850  2.9901  0.7201
  465DG      H810680   4.618   4.236   5.005 -0.6667  0.4121 -0.2336
  465DG      O910681   4.096   4.286   4.813  0.0567  0.4652  0.7397
  465DG     O1010682   4.580   4.416   4.929  0.1873  0.1526 -0.6675
  465DG     C1110683   4.109   4.412   4.740 -0.2652  0.0884 -0.3900
  465DG     C1210684   4.578   4.505   4.821  0.1284  0.0099  0.0077
  465DG     H1310685   4.099   4.506   4.795  3.0869  0.3558 -0.0245
  465DG     H1410686   4.032   4.419   4.663  1.6198  2.2337 -2.1996
  465DG     H1510687   4.675   4.532   4.780  0.8768 -0.7697  1.2152
  465DG     H1610688   4.541   4.598   4.863 -1.3002 -1.6151  2.6213
  465DG     C1710689   4.242   4.415   4.673  0.3522 -0.1959 -0.3136
  465DG     C1810690   4.480   4.457   4.713  0.3792 -0.0624  0.2893
  465DG     O1910691   4.342   4.451   4.769 -0.3147  0.3519  0.0427
  465DG     H2010692   4.234   4.487   4.591 -2.5649  0.0859  0.0929
  465DG     H2110693   4.259   4.313   4.636  0.6364 -1.0117  1.8954
  465DG     H2210694   4.470   4.538   4.641  1.0336 -0.1716  0.0724
  465DG     H2310695   4.498   4.359   4.668  0.3486 -0.1408  0.4471
  466DG      C110696   2.114   3.413   2.479  0.3572  0.6170  0.1708
  466DG      C210697   2.446   2.756   2.846  0.1473 -0.0377  0.1148
  466DG      H310698   2.013   3.428   2.441  0.1352  1.2518  0.9781
  466DG      H410699   2.184   3.444   2.402  1.8377 -1.4326  0.6065
  466DG      H510700   2.130   3.473   2.568  0.0764 -0.4112  0.9356
  466DG      H610701   2.470   2.654   2.877 -1.1538 -0.3998  0.0146
  466DG      H710702   2.535   2.797   2.797  0.0435  0.2486  0.1659
  466DG      H810703   2.437   2.821   2.933 -1.4254  0.6141 -0.4970
  466DG      O910704   2.135   3.279   2.523 -0.4833  0.1338 -0.5025
  466DG     O1010705   2.325   2.756   2.763  0.3995  0.2166 -0.1803
  466DG     C1110706   2.128   3.186   2.415  0.8056  0.6249 -0.8142
  466DG     C1210707   2.299   2.894   2.724 -0.0024  0.3763  0.8466
  466DG     H1310708   2.216   3.190   2.351 -1.0383  0.6367 -3.4851
  466DG     H1410709   2.049   3.203   2.342  0.7651  0.6108 -0.7734
  466DG     H1510710   2.387   2.947   2.687  0.8351 -1.1518  0.5622
  466DG     H1610711   2.266   2.954   2.809  0.9281 -1.5382  2.6836
  466DG     C1710712   2.112   3.037   2.459 -0.7282 -1.1558 -0.0825
  466DG     C1810713   2.204   2.891   2.604  0.0648 -0.6095 -0.7978
  466DG     O1910714   2.208   3.015   2.560  0.3104 -0.3357 -0.2870
  466DG     H2010715   2.126   2.971   2.373  0.7746 -0.3228 -0.5038
  466DG     H2110716   2.009   3.020   2.492 -1.4473 -1.5824 -2.3909
  466DG     H2210717   2.241   2.824   2.527 -1.1928  0.2067 -2.1551
  466DG     H2310718   2.101   2.866   2.632  0.4414  0.0825  1.4646
  467DG      C110719   5.426   5.395   3.952 -0.0607  0.2052  0.0187
  467DG      C210720   5.045   4.931   3.535 -0.3248 -0.1345 -0.2079
  467DG      H310721   5.514   5.395   4.016 -0.1205 -2.5221  0.2382
  467DG      H410722   5.349   5.440   4.014  0.9139  3.0867 -0.7131
  467DG      H510723   5.448   5.449   3.860 -1.0791 -0.1776 -0.4757
  467DG      H610724   5.061   4.840   3.478  2.9416  1.5046 -2.1885
  467DG      H710725   4.947   4.933   3.584  0.0547  0.7279  0.5568
  467DG      H810726   5.049   5.012   3.462  3.3138  0.2576  0.2449
  467DG      O910727   5.401   5.260   3.913 -0.3612  0.6106  0.7612
  467DG     O1010728   5.155   4.964   3.620 -0.0015 -0.1139 -1.0362
  467DG     C1110729   5.361   5.171   4.013 -0.0659 -0.4514 -0.3627
  467DG     C1210730   5.179   4.852   3.710 -0.1839 -0.0759  0.0429
  467DG     H1310731   5.256   5.195   4.029 -0.2168  1.5268 -3.4367
  467DG     H1410732   5.425   5.183   4.100  2.1590 -3.4212 -1.4299
  467DG     H1510733   5.200   4.762   3.653 -0.6747 -0.7336  0.8946
  467DG     H1610734   5.092   4.841   3.774 -0.3131  1.6951  0.2425
  467DG     C1710735   5.374   5.033   3.964  0.4148 -0.2256  0.0869
  467DG     C1810736   5.294   4.881   3.808 -0.0795 -0.3820 -0.2272
  467DG     O1910737   5.279   5.015   3.856 -0.0736 -0.1614  0.0034
  467DG     H2010738   5.355   4.953   4.035 -2.6810 -0.9814 -1.4023
  467DG     H2110739   5.476   5.013   3.929  0.3044  0.3397 -0.5779
  467DG     H2210740   5.283   4.802   3.882 -0.9063  1.7656  2.1079
  467DG     H2310741   5.387   4.869   3.753 -1.2155 -0.1093 -2.3430
  468DG      C110742   4.663   3.384   2.877  0.3272  0.4195  0.1915
  468DG      C210743   4.376   2.971   2.556  0.2269  0.2313  0.7789
  468DG      H310744   4.592   3.444   2.934 -0.3885 -1.5951  1.5490
  468DG      H410745   4.685   3.434   2.783 -0.2987  2.0464  0.8709
  468DG      H510746   4.759   3.371   2.928  0.3097  0.6269  0.2787
  468DG      H610747   4.396   3.002   2.454  1.0084 -0.8618  0.5863
  468DG      H710748   4.464   2.991   2.617 -0.3186 -0.9653  2.0194
  468DG      H810749   4.354   2.864   2.556 -0.2370  0.3161 -0.3984
  468DG      O910750   4.612   3.251   2.865  0.2174 -0.4340 -0.2998
  468DG     O1010751   4.268   3.038   2.618  0.2297 -0.0490 -0.0354
  468DG     C1110752   4.545   3.203   2.982  0.2055  0.5918 -0.0851
  468DG     C1210753   4.214   2.973   2.737  0.2775 -0.7125 -0.5614
  468DG     H1310754   4.465   3.275   3.002 -0.1186 -0.1412  1.3335
  468DG     H1410755   4.624   3.203   3.056  0.6945 -0.9321 -0.5947
  468DG     H1510756   4.173   2.877   2.707 -1.6273 -0.3769  0.7619
  468DG     H1610757   4.132   3.038   2.768  1.0678  0.3423 -0.6377
  468DG     C1710758   4.484   3.065   2.960  0.0419 -0.6555 -0.5546
  468DG     C1810759   4.313   2.949   2.852  0.5249 -0.7647 -0.3396
  468DG     O1910760   4.376   3.073   2.867  0.3912  0.2537  0.1344
  468DG     H2010761   4.456   3.044   3.063  1.3306  1.4455  0.2977
  468DG     H2110762   4.557   2.990   2.932  0.0632 -1.9739  2.6188
  468DG     H2210763   4.259   2.924   2.943  0.9498 -0.7287 -0.0759
  468DG     H2310764   4.387   2.871   2.828  2.3250  1.0402 -0.9700
  469DG      C110765   1.693   3.292   1.642  0.1520 -0.1819  0.0456
  469DG      C210766   2.068   3.003   1.167  0.0823 -0.7255  0.5918
  469DG      H310767   1.588   3.263   1.638  0.4468 -1.1439 -1.6209
  469DG      H410768   1.707   3.374   1.572  2.2417  0.0696  0.6874
  469DG      H510769   1.713   3.342   1.736  0.0218  0.0783 -0.0627
  469DG      H610770   2.059   2.947   1.074 -1.2770  0.3852  0.0168
  469DG      H710771   2.028   3.103   1.145 -1.2484 -1.4652 -0.4933
  469DG      H810772   2.175   3.015   1.184  0.0949 -0.2537  0.2038
  469DG      O910773   1.779   3.183   1.615 -0.2915 -0.2038 -0.4780
  469DG     O1010774   1.997   2.927   1.267 -0.3999  0.3432 -0.2636
  469DG     C1110775   1.797   3.102   1.728 -0.1066 -0.0165 -0.6700
  469DG     C1210776   1.998   2.989   1.394  0.6207  0.3167 -0.0365
  469DG     H1310777   1.708   3.052   1.767 -1.3144  1.5864 -1.2928
  469DG     H1410778   1.839   3.158   1.812  0.1489 -0.1495 -0.7080
  469DG     H1510779   1.935   3.078   1.386  0.7153  0.3062 -0.9846
  469DG     H1610780   2.100   3.012   1.427  0.1432  0.3164  1.4900
  469DG     C1710781   1.899   2.996   1.682  0.0503 -0.1546 -0.1254
  469DG     C1810782   1.931   2.882   1.479 -0.4045 -0.3724  0.8887
  469DG     O1910783   1.838   2.926   1.575 -0.3646  0.0529  0.0693
  469DG     H2010784   1.910   2.917   1.756 -1.2319  1.1839  1.5653
  469DG     H2110785   1.991   3.047   1.654 -0.6736  1.0116 -0.4437
  469DG     H2210786   1.859   2.827   1.417  0.8097  0.1919 -1.1043
  469DG     H2310787   1.999   2.802   1.508 -0.3868  0.3074  2.8514
  470DG      C110788  -0.033   4.457   1.075 -0.1041  0.8496 -0.5885
  470DG      C210789  -0.145   4.043   1.638  0.3464  0.5653  0.6907
  470DG      H310790  -0.038   4.557   1.118 -0.0682  0.2214  0.9598
  470DG      H410791  -0.133   4.435   1.039 -0.0102  0.7352 -0.7825
  470DG      H510792   0.039   4.477   0.996  0.9169 -0.6294 -0.0708
  470DG      H610793  -0.172   4.120   1.711  0.4265 -0.0345  1.3616
  470DG      H710794  -0.228   4.016   1.573  2.1884 -1.2035 -1.1017
  470DG      H810795  -0.123   3.956   1.700  1.9116 -0.5195 -1.2855
  470DG      O910796   0.014   4.372   1.178 -0.6862  0.6229  0.3492
  470DG     O1010797  -0.021   4.064   1.554  0.4102  0.3925 -0.3311
  470DG     C1110798   0.137   4.409   1.225  0.0416  0.1260 -0.0679
  470DG     C1210799   0.062   4.161   1.628 -0.5552 -0.1201  0.3474
  470DG     H1310800   0.138   4.506   1.274  1.5037  0.0518  0.1051
  470DG     H1410801   0.211   4.401   1.146  2.9618 -0.5920  2.5156
  470DG     H1510802   0.114   4.120   1.714 -1.7263 -0.1793  1.0567
  470DG     H1610803   0.007   4.248   1.664  1.0670  0.3749  1.7323
  470DG     C1710804   0.191   4.311   1.324 -0.4446  0.4583 -0.3015
  470DG     C1810805   0.167   4.202   1.527  0.3134  0.4232  0.3525
  470DG     O1910806   0.109   4.294   1.443  0.5979 -0.7471 -0.1189
  470DG     H2010807   0.291   4.338   1.356  0.3610 -1.9106 -0.6069
  470DG     H2110808   0.207   4.215   1.274 -1.1049  0.6419 -0.8794
  470DG     H2210809   0.253   4.251   1.573  0.8805  0.7036 -0.9514
  470DG     H2310810   0.192   4.113   1.468 -2.1320 -0.2878  0.2945
  471DG      C110811   5.201   1.153   2.943  0.4327  0.1256  0.2945
  471DG      C210812   4.551   0.857   2.803 -1.2005 -0.0253  0.2602
  471DG      H310813   5.216   1.194   2.843 -0.0283  0.5827  0.4081
  471DG      H410814   5.235   1.049   2.946  0.5078  0.1584  0.6565
  471DG      H510815   5.262   1.202   3.019  0.7571 -1.8695  1.3897
  471DG      H610816   4.525   0.912   2.713  1.4029 -1.8953 -1.7944
  471DG      H710817   4.611   0.771   2.772 -2.4875 -0.5328 -0.9410
  471DG      H810818   4.459   0.830   2.857 -0.6548  0.4014  1.4410
  471DG      O910819   5.054   1.161   2.975  0.0907 -0.1887 -0.1392
  471DG     O1010820   4.618   0.943   2.892  0.1364  0.3296 -0.5206
  471DG     C1110821   5.037   1.121   3.109 -0.7144  0.3476 -0.0682
  471DG     C1210822   4.655   0.879   3.009 -0.2830  0.6152  0.4371
  471DG     H1310823   5.104   1.184   3.168  2.5891 -2.0311 -0.9538
  471DG     H1410824   5.064   1.016   3.112 -1.3783  0.1878  0.5186
  471DG     H1510825   4.745   0.825   2.982 -1.1694 -0.0270 -1.3544
  471DG     H1610826   4.580   0.812   3.051  0.1441 -0.3638 -0.3434
  471DG     C1710827   4.889   1.127   3.161  0.5042 -0.1068 -0.3247
  471DG     C1810828   4.700   0.982   3.109 -0.2382 -0.5718 -0.0902
  471DG     O1910829   4.812   1.053   3.064 -0.5130  0.5416 -0.1771
  471DG     H2010830   4.857   1.231   3.158 -0.3382 -0.2733  1.5001
  471DG     H2110831   4.888   1.077   3.257 -1.8229 -1.4031 -0.9557
  471DG     H2210832   4.617   1.051   3.130 -1.6700 -2.4435  0.6349
  471DG     H2310833   4.721   0.930   3.202 -0.4040 -0.0751  0.2313
  472DG      C110834   1.714   4.448   1.923 -0.4239 -0.4701 -0.0969
  472DG      C210835   2.054   3.969   1.846  0.0858  0.3295 -0.5301
  472DG      H310836   1.766   4.531   1.970 -0.6854  0.6936 -1.7678
  472DG      H410837   1.611   4.475   1.947  0.1855 -0.2081  2.4579
  472DG      H510838   1.742   4.447   1.817  1.5402  0.8041  0.3654
  472DG      H610839   2.110   4.050   1.893 -0.6710 -1.0484  3.0525
  472DG      H710840   2.121   3.883   1.848 -0.6687 -0.2709 -0.1312
  472DG      H810841   2.040   3.997   1.742  2.1193  0.9434 -0.6626
  472DG      O910842   1.760   4.324   1.975 -0.2562 -0.0820 -0.1657
  472DG     O1010843   1.934   3.951   1.909 -0.0877 -0.0685  0.1137
  472DG     C1110844   1.702   4.299   2.097 -0.2815  0.3741 -0.0656
  472DG     C1210845   1.935   3.932   2.049 -0.2476  0.3155 -0.3080
  472DG     H1310846   1.598   4.274   2.075  0.2855 -1.5077 -0.8126
  472DG     H1410847   1.692   4.387   2.160 -2.5140  1.8443 -2.2611
  472DG     H1510848   2.001   4.002   2.100 -1.7813  0.6166  1.3734
  472DG     H1610849   1.966   3.836   2.089  0.0258  1.3742  2.2285
  472DG     C1710850   1.755   4.167   2.160  0.4324 -0.6888  0.2124
  472DG     C1810851   1.784   3.946   2.101 -0.3588  0.5786 -0.4331
  472DG     O1910852   1.722   4.064   2.064  0.0609  0.5399  0.8815
  472DG     H2010853   1.720   4.134   2.257  1.5591 -2.2510  0.1244
  472DG     H2110854   1.861   4.185   2.178 -0.0970  1.3919  1.5988
  472DG     H2210855   1.727   3.869   2.048 -0.9951  1.9616 -1.8330
  472DG     H2310856   1.762   3.925   2.206  0.9461  0.7610 -0.1033
  473DG      C110857   2.743   2.139   2.285 -0.1739 -0.4252 -0.1265
  473DG      C210858   2.939   2.693   1.919 -0.2108 -0.2800  0.7803
  473DG      H310859   2.703   2.048   2.330  1.2697 -0.7756  0.4863
  473DG      H410860   2.682   2.161   2.197 -0.1362 -0.6018 -0.1973
  473DG      H510861   2.729   2.219   2.357  0.0891 -1.5737  1.2296
  473DG      H610862   2.862   2.762   1.884  1.4928  2.4778  2.1499
  473DG      H710863   2.984   2.760   1.992 -0.5159  0.1960  0.5366
  473DG      H810864   3.017   2.685   1.843 -2.4610 -0.4125 -1.6977
  473DG      O910865   2.883   2.149   2.269 -0.4340 -0.5613  0.4816
  473DG     O1010866   2.897   2.580   1.992 -0.0281 -0.1189 -0.0688
  473DG     C1110867   2.947   2.074   2.166  0.5453  0.1228 -0.5534
  473DG     C1210868   2.971   2.466   1.957  0.4109  0.2072  0.2051
  473DG     H1310869   2.953   1.969   2.192  2.8749 -0.0659 -1.6626
  473DG     H1410870   3.053   2.093   2.179  0.2634  1.8332 -0.4581
  473DG     H1510871   3.078   2.460   1.976  0.3515  0.0242  0.4840
  473DG     H1610872   2.956   2.471   1.849 -0.9691 -0.1925  0.3581
  473DG     C1710873   2.910   2.104   2.027 -0.3539  0.2642  0.6968
  473DG     C1810874   2.905   2.345   2.027  0.3918 -0.4246  0.3615
  473DG     O1910875   2.967   2.227   1.976  0.0401 -0.1598  0.0760
  473DG     H2010876   2.804   2.103   2.001 -0.3265  1.2086  0.5017
  473DG     H2110877   2.963   2.035   1.960  0.7531  0.0501  1.7504
  473DG     H2210878   2.904   2.356   2.135  0.7206 -0.5474  0.3754
  473DG     H2310879   2.800   2.337   1.998  0.3742  3.0645 -1.0419
  474DG      C110880   0.946   3.649   2.505 -0.6155 -0.2888  0.1703
  474DG      C210881   1.059   2.966   2.865 -0.5361 -0.5319 -0.3616
  474DG      H310882   1.040   3.679   2.551  0.9883 -2.1743 -1.6776
  474DG      H410883   0.865   3.697   2.560  0.7114  2.4552 -0.0470
  474DG      H510884   0.938   3.701   2.409 -0.3754  0.3450  0.4896
  474DG      H610885   1.057   2.860   2.840 -0.3525 -1.5678  3.4256
  474DG      H710886   1.165   2.993   2.872 -1.1287  2.2669 -0.7977
  474DG      H810887   1.013   2.980   2.963 -0.6700 -2.3707 -0.1392
  474DG      O910888   0.961   3.511   2.495 -0.1291 -0.2271 -0.5807
  474DG     O1010889   0.996   3.055   2.774  0.4793  0.1370 -0.5759
  474DG     C1110890   0.847   3.439   2.460 -0.1440  0.6667 -0.2550
  474DG     C1210891   1.074   3.080   2.667 -0.5465  0.4005  0.6790
  474DG     H1310892   0.817   3.470   2.360  0.2945 -1.3783 -1.0595
  474DG     H1410893   0.766   3.461   2.530 -1.8347 -0.4474 -1.7656
  474DG     H1510894   1.054   3.007   2.589  2.2511  0.2251  0.0495
  474DG     H1610895   1.180   3.069   2.690  0.4028  2.4363 -2.1510
  474DG     C1710896   0.881   3.289   2.453 -0.0766  0.3432  0.0099
  474DG     C1810897   1.044   3.216   2.614 -0.5578  0.0436  0.2376
  474DG     O1910898   0.904   3.231   2.584 -0.4462 -0.6340  0.9301
  474DG     H2010899   0.960   3.272   2.379  0.8116  2.0464  0.5241
  474DG     H2110900   0.795   3.234   2.416  1.3993 -2.3070  0.2516
  474DG     H2210901   1.077   3.288   2.689  0.6404 -0.7312  0.4775
  474DG     H2310902   1.107   3.239   2.528  0.2726  1.2137  1.1247
  475DG      C110903   1.028   2.339   1.225 -1.0586  0.7011 -0.4662
  475DG      C210904   1.588   2.504   1.543 -0.3764  0.1796  0.0446
  475DG      H310905   1.094   2.367   1.143 -1.1795  0.9994 -0.4664
  475DG      H410906   0.963   2.427   1.236  1.1949  2.2017  2.2644
  475DG      H510907   0.959   2.259   1.198 -0.0592  0.2055 -1.6370
  475DG      H610908   1.594   2.571   1.629  3.3627  0.8405 -0.5325
  475DG      H710909   1.676   2.440   1.537  0.6457  1.5750 -0.4933
  475DG      H810910   1.586   2.562   1.451 -1.8977  0.1309  0.0299
  475DG      O910911   1.097   2.300   1.342  0.4644 -0.5196  0.2177
  475DG     O1010912   1.467   2.424   1.544  0.4041  0.4323  1.2140
  475DG     C1110913   1.020   2.295   1.457  0.2042 -0.6336 -0.3759
  475DG     C1210914   1.433   2.376   1.675  0.1630 -0.6890  0.3027
  475DG     H1310915   0.938   2.226   1.435  1.4368 -1.2373 -3.7417
  475DG     H1410916   0.972   2.384   1.497  1.8590 -0.6416  1.8552
  475DG     H1510917   1.401   2.461   1.735 -1.9921 -2.5560  1.9811
  475DG     H1610918   1.509   2.316   1.724  0.1957 -1.6484 -0.8628
  475DG     C1710919   1.110   2.249   1.568 -0.7459  0.0679  0.4336
  475DG     C1810920   1.314   2.286   1.667  0.4084  0.0617 -0.4089
  475DG     O1910921   1.223   2.341   1.582  0.0394 -0.2288 -0.1921
  475DG     H2010922   1.148   2.148   1.550  0.6177  0.8708 -1.6366
  475DG     H2110923   1.051   2.237   1.658  0.8369  0.5092  1.5592
  475DG     H2210924   1.355   2.188   1.640  0.3433 -0.3445  0.9141
  475DG     H2310925   1.277   2.275   1.769 -1.4971 -2.9400 -1.2761
  476DG      C110926   1.144   4.154   0.187  0.3504  0.2045 -0.8473
  476DG      C210927   0.604   3.757   0.249 -0.2714 -0.5774 -0.2163
  476DG      H310928   1.100   4.195   0.096 -0.1838  0.8989 -0.2852
  476DG      H410929   1.214   4.072   0.170 -2.6320 -2.2108 -2.5786
  476DG      H510930   1.188   4.241   0.235 -0.5095  0.7658 -1.0435
  476DG      H610931   0.500   3.769   0.280  0.0770  0.7908  0.4931
  476DG      H710932   0.602   3.808   0.153 -2.0519  0.8613  0.5190
  476DG      H810933   0.626   3.650   0.250 -0.5362 -0.6317  0.0237
  476DG      O910934   1.048   4.107   0.279  0.0153 -0.9702  0.5108
  476DG     O1010935   0.698   3.822   0.317 -0.3055 -0.5648 -0.0830
  476DG     C1110936   1.102   4.057   0.398  0.4475 -0.2204 -0.1486
  476DG     C1210937   0.703   3.783   0.453 -0.4251 -0.0784  0.4124
  476DG     H1310938   1.150   4.142   0.446 -2.2464  1.7690 -0.7213
  476DG     H1410939   1.178   3.981   0.383 -0.7592 -1.3961 -0.5840
  476DG     H1510940   0.764   3.694   0.468  0.4756  0.7122  1.6842
  476DG     H1610941   0.611   3.766   0.508  0.7248  0.1416  2.5237
  476DG     C1710942   0.971   4.020   0.489  0.1510  0.7078 -0.0320
  476DG     C1810943   0.769   3.903   0.515  0.0442 -0.5859  0.3759
  476DG     O1910944   0.874   3.944   0.425 -0.4598 -0.4281  0.0709
  476DG     H2010945   0.934   4.117   0.523 -2.2060 -0.6545  1.5445
  476DG     H2110946   1.009   3.960   0.572 -2.4646  1.3633  1.7389
  476DG     H2210947   0.693   3.982   0.511  0.7172  0.0298 -2.1361
  476DG     H2310948   0.799   3.869   0.613 -0.0036 -0.5792  0.3929
  477DG      C110949   4.235   1.578   1.640 -0.4472  0.4484 -0.3340
  477DG      C210950   3.657   1.295   1.519  0.5962  0.2583  0.5297
  477DG      H310951   4.185   1.673   1.657 -2.6359 -0.4962 -1.1076
  477DG      H410952   4.251   1.562   1.534  2.7217 -1.2182  0.2785
  477DG      H510953   4.328   1.578   1.698  0.7791 -2.5346 -2.0824
  477DG      H610954   3.570   1.310   1.583 -2.6973 -1.5606 -3.0555
  477DG      H710955   3.652   1.376   1.446 -0.1983 -0.0921  0.1804
  477DG      H810956   3.649   1.212   1.448 -0.2375  2.2579 -1.8680
  477DG      O910957   4.157   1.483   1.700 -0.7300  0.3656 -1.1046
  477DG     O1010958   3.781   1.294   1.588 -0.2586  0.8252  0.1223
  477DG     C1110959   4.110   1.514   1.832  0.4566  0.3926  0.0613
  477DG     C1210960   3.773   1.209   1.699 -0.6641 -0.2586 -0.4301
  477DG     H1310961   4.052   1.605   1.818  1.6539  0.8571 -2.2809
  477DG     H1410962   4.186   1.536   1.907  1.1110 -2.0125  0.1832
  477DG     H1510963   3.759   1.104   1.674 -2.3912 -1.0417  3.1257
  477DG     H1610964   3.680   1.227   1.753  0.2478  3.8142  0.1334
  477DG     C1710965   4.025   1.395   1.885  0.2788 -0.5272  0.4899
  477DG     C1810966   3.884   1.232   1.804  0.3063 -0.5801  0.0706
  477DG     O1910967   3.907   1.374   1.815 -0.1621 -0.4684 -0.4670
  477DG     H2010968   4.002   1.415   1.990  0.0034  0.7905  0.1970
  477DG     H2110969   4.093   1.310   1.886  2.8672  1.4151  0.9147
  477DG     H2210970   3.843   1.181   1.891 -2.8293  0.3522 -0.7353
  477DG     H2310971   3.966   1.178   1.757  2.1726  0.0055  2.4839
  478DG      C110972   1.124   1.835   2.392  0.1113 -0.2891  0.3834
  478DG      C210973   0.659   1.393   2.467  0.0232  0.0803 -0.3836
  478DG      H310974   1.195   1.911   2.425 -1.4485  1.2528  0.3492
  478DG      H410975   1.153   1.805   2.291  1.2383  0.2130  0.5417
  478DG      H510976   1.138   1.747   2.454 -0.5072  0.9859  2.3997
  478DG      H610977   0.674   1.297   2.518 -0.3676  0.4330  0.4227
  478DG      H710978   0.552   1.410   2.464  0.2041  1.1738 -1.9524
  478DG      H810979   0.698   1.375   2.367 -0.2140 -0.1225 -0.4382
  478DG      O910980   0.986   1.880   2.401  0.0512 -0.5978  0.5660
  478DG     O1010981   0.725   1.502   2.529  0.3697 -0.5970 -0.0627
  478DG     C1110982   0.961   1.945   2.529 -0.0761 -0.1128  0.3456
  478DG     C1210983   0.664   1.574   2.642 -0.3851  0.2874  0.7801
  478DG     H1310984   0.882   2.018   2.515 -0.5183 -0.9065 -1.7053
  478DG     H1410985   1.045   2.005   2.564  1.2216 -2.2074  1.0352
  478DG     H1510986   0.624   1.503   2.715 -1.5606 -1.6588 -1.6011
  478DG     H1610987   0.580   1.633   2.606  0.5457  0.6590 -0.8883
  478DG     C1710988   0.931   1.843   2.635  0.8371  1.6157  0.3958
  478DG     C1810989   0.782   1.658   2.695  0.0907 -0.2029  0.1907
  478DG     O1910990   0.825   1.754   2.594  0.7086 -0.3767 -0.3474
  478DG     H2010991   0.904   1.899   2.724 -2.5237  2.0667 -0.7690
  478DG     H2110992   1.020   1.788   2.665 -0.5297 -1.3462 -0.6375
  478DG     H2210993   0.747   1.713   2.783 -0.1634  0.2402 -0.1830
  478DG     H2310994   0.864   1.601   2.738  0.9649  2.2333  2.0286
  479DG      C110995   2.110   1.489   3.870  0.7125 -0.2258 -0.3908
  479DG      C210996   2.933   1.756   3.542 -0.1626 -0.2079 -0.1096
  479DG      H310997   2.076   1.555   3.789  1.8101  0.4224 -0.3482
  479DG      H410998   2.102   1.551   3.959 -0.2957 -0.4350 -0.3310
  479DG      H510999   2.040   1.406   3.874  1.5892 -0.9265  1.3773
  479DG      H611000   2.975   1.784   3.445  0.3205  0.3880  0.2633
  479DG      H711001   2.977   1.828   3.611  0.6019 -1.5550  0.8518
  479DG      H811002   2.981   1.663   3.569 -1.6774 -0.5740  1.4537
  479DG      O911003   2.244   1.453   3.843  0.5248  0.3546 -0.1081
  479DG     O1011004   2.789   1.736   3.554  0.0690  0.3878 -0.0505
  479DG     C1111005   2.335   1.562   3.825  0.6087 -0.5196 -0.0870
  479DG     C1211006   2.743   1.689   3.686 -0.3763 -0.1151  0.6230
  479DG     H1311007   2.307   1.640   3.896  1.0389  0.5924 -1.0861
  479DG     H1411008   2.329   1.603   3.724  0.9220  0.2525  0.1979
  479DG     H1511009   2.764   1.756   3.770  1.5372  1.1832 -0.8183
  479DG     H1611010   2.809   1.605   3.709  1.8523  0.6786 -2.2368
  479DG     C1711011   2.477   1.505   3.844  0.1322  0.1048 -0.2850
  479DG     C1811012   2.598   1.639   3.693 -0.2995  0.0474  0.3504
  479DG     O1911013   2.579   1.601   3.821 -0.1548 -0.2448  0.2227
  479DG     H2011014   2.486   1.426   3.770 -2.4928 -0.8091  0.2750
  479DG     H2111015   2.491   1.458   3.941  0.6930 -0.1065 -0.4645
  479DG     H2211016   2.518   1.704   3.655  0.5829  0.9722  0.0180
  479DG     H2311017   2.594   1.548   3.634 -0.3630 -1.5255  2.6186
  480DG      C111018   2.734   1.011   2.460 -0.6159 -0.1212  0.1924
  480DG      C211019   2.889   1.253   1.852  0.9698  0.0810 -0.4720
  480DG      H311020   2.712   0.925   2.524  0.8274  0.4876  1.5643
  480DG      H411021   2.642   1.066   2.440  0.4038  1.5370 -0.0827
  480DG      H511022   2.800   1.081   2.510 -3.2186  1.1362  2.1426
  480DG      H611023   2.789   1.294   1.844  1.0754  0.4965  0.1814
  480DG      H711024   2.936   1.326   1.919 -1.1546  1.3460 -0.2823
  480DG      H811025   2.953   1.259   1.764  1.2039 -1.1870 -0.4054
  480DG      O911026   2.777   0.965   2.334  0.4220  0.0995  0.1297
  480DG     O1011027   2.888   1.119   1.893  0.3230 -0.4229  0.1236
  480DG     C1111028   2.885   0.875   2.328 -0.8755  0.0678  0.3587
  480DG     C1211029   3.018   1.064   1.902 -0.3365  0.2192 -0.1168
  480DG     H1311030   2.857   0.779   2.372  0.5020  0.6813  2.7615
  480DG     H1411031   2.968   0.913   2.387 -0.5029  2.8471 -1.7836
  480DG     H1511032   3.090   1.130   1.950  0.3865 -0.3432 -0.4054
  480DG     H1611033   3.054   1.064   1.799  0.6471 -0.6278  0.2004
  480DG     C1711034   2.925   0.839   2.187  0.5834  0.1566 -0.1061
  480DG     C1811035   3.009   0.928   1.982 -0.4467  0.0052  0.5657
  480DG     O1911036   2.943   0.957   2.107 -0.3413  0.0681 -0.2197
  480DG     H2011037   2.839   0.797   2.134 -0.6488  0.5429  1.5112
  480DG     H2111038   3.005   0.766   2.182 -0.0109 -0.4688 -0.8543
  480DG     H2211039   2.969   0.845   1.924  0.2079  0.4615 -0.5655
  480DG     H2311040   3.108   0.888   2.003 -0.0586 -1.4720 -3.3951
  481DG      C111041   3.521   5.094   2.691  0.5375 -0.0560 -0.1777
  481DG      C211042   4.136   4.785   2.434 -0.7565 -0.2196 -0.0472
  481DG      H311043   3.544   5.191   2.647  3.6259 -1.4004 -1.8526
  481DG      H411044   3.529   5.109   2.799 -2.5467  1.0146 -0.0225
  481DG      H511045   3.419   5.076   2.659  0.7076 -1.5903  0.0680
  481DG      H611046   4.188   4.695   2.400 -1.1348 -0.5241  0.1665
  481DG      H711047   4.144   4.850   2.347 -0.2844  2.3436  1.8193
  481DG      H811048   4.191   4.835   2.513 -3.1286  0.7605  1.0631
  481DG      O911049   3.605   4.996   2.640 -0.2694  0.0128  0.0832
  481DG     O1011050   4.006   4.765   2.484 -0.7271  0.1255 -0.0518
  481DG     C1111051   3.564   4.863   2.683  0.1862  0.0175 -1.1667
  481DG     C1211052   3.990   4.654   2.565 -0.7034 -0.2375 -0.0914
  481DG     H1311053   3.456   4.852   2.680 -0.0196  1.9632 -2.7444
  481DG     H1411054   3.600   4.845   2.784 -1.4694  0.4452 -0.4723
  481DG     H1511055   4.025   4.685   2.663 -1.1717  1.6713 -0.4877
  481DG     H1611056   4.036   4.564   2.523  0.2687 -0.2589  0.9807
  481DG     C1711057   3.633   4.759   2.589  0.0752  0.3058  0.0699
  481DG     C1811058   3.838   4.641   2.555 -0.5652  0.1207  0.1017
  481DG     O1911059   3.772   4.744   2.627 -0.3092 -0.2443 -0.1551
  481DG     H2011060   3.621   4.794   2.486  0.7839  0.1650 -0.0641
  481DG     H2111061   3.592   4.658   2.595 -1.5927  1.0333  3.2315
  481DG     H2211062   3.812   4.640   2.450  1.8917  0.9368 -0.5886
  481DG     H2311063   3.815   4.538   2.581 -2.3315  0.7701  1.3140
  482DG      C111064   0.852   0.805   5.370  0.6537 -0.3933 -0.0335
  482DG      C211065   0.120   0.612   5.123 -0.0601  0.2661  0.0203
  482DG      H311066   0.911   0.714   5.359 -2.9379 -2.7543 -1.7011
  482DG      H411067   0.798   0.802   5.464 -1.0579  2.0673 -0.8579
  482DG      H511068   0.926   0.884   5.378  0.6412 -0.3037 -0.7657
  482DG      H611069   0.056   0.635   5.038 -0.9889  3.0787  1.3511
  482DG      H711070   0.061   0.574   5.207  1.0636 -1.1558  0.2116
  482DG      H811071   0.153   0.707   5.165  0.0480 -0.3778  1.4732
  482DG      O911072   0.757   0.821   5.269 -0.5996  0.2651 -0.2100
  482DG     O1011073   0.233   0.531   5.087 -0.2237  0.2544 -0.2177
  482DG     C1111074   0.653   0.718   5.268 -0.0306 -0.3450 -0.0731
  482DG     C1211075   0.297   0.580   4.968 -0.2895 -0.4072  0.3129
  482DG     H1311076   0.596   0.716   5.360  0.5483  0.1797  0.3071
  482DG     H1411077   0.691   0.619   5.242  1.6489  0.8688 -2.8009
  482DG     H1511078   0.212   0.592   4.901  0.4613 -0.6760 -0.7047
  482DG     H1611079   0.360   0.499   4.931  1.2509 -0.5932  3.0736
  482DG     C1711080   0.556   0.760   5.155  0.5812 -0.4224  0.4809
  482DG     C1811081   0.387   0.701   5.006 -0.0035  0.2890  0.3237
  482DG     O1911082   0.477   0.653   5.103  0.9094  0.8152 -0.5053
  482DG     H2011083   0.610   0.802   5.071  0.2028 -0.9815 -0.0458
  482DG     H2111084   0.484   0.833   5.191  0.9504 -0.1052  0.5884
  482DG     H2211085   0.449   0.728   4.920  0.4348  0.7151  0.7652
  482DG     H2311086   0.330   0.790   5.031  0.8361  0.5454  1.3977
  483DG      C111087   5.464   3.311   3.367  0.2743  0.3291 -0.2131
  483DG      C211088   4.880   3.823   3.004 -0.4438  0.4815 -0.2553
  483DG      H311089   5.518   3.331   3.459  0.0641  0.6817 -0.1647
  483DG      H411090   5.535   3.289   3.287  1.2634  2.3530  0.0536
  483DG      H511091   5.393   3.231   3.389 -1.4362  1.9244  0.3175
  483DG      H611092   4.854   3.898   2.929 -0.7637  0.3501 -0.2776
  483DG      H711093   4.791   3.760   3.011  2.1205 -3.5462 -0.5230
  483DG      H811094   4.889   3.871   3.101 -1.2747 -0.2381  0.1929
  483DG      O911095   5.402   3.425   3.320 -0.2631 -0.5450 -0.0013
  483DG     O1011096   4.993   3.747   2.965 -0.6536  0.3724  0.1797
  483DG     C1111097   5.304   3.480   3.412  0.3313 -0.3046  0.2829
  483DG     C1211098   5.030   3.645   3.058  0.5955  0.7393  0.4885
  483DG     H1311099   5.346   3.487   3.512  0.6974 -1.4995  0.2208
  483DG     H1411100   5.214   3.421   3.426  0.4865 -0.7662 -0.5770
  483DG     H1511101   5.089   3.576   2.998 -0.4564 -0.6021  0.9490
  483DG     H1611102   4.943   3.594   3.098 -0.3722  1.5943 -0.4607
  483DG     C1711103   5.236   3.612   3.371  0.2668 -0.2213  0.5635
  483DG     C1811104   5.105   3.698   3.184  0.2899 -0.4098  0.5916
  483DG     O1911105   5.159   3.584   3.254  0.8882 -0.0281 -0.1124
  483DG     H2011106   5.315   3.684   3.349  0.5112 -0.1796  1.5248
  483DG     H2111107   5.170   3.652   3.448 -1.8224 -2.5416  0.1062
  483DG     H2211108   5.190   3.758   3.152 -1.2359 -0.0143 -3.2276
  483DG     H2311109   5.039   3.770   3.233  0.5578 -0.1450  0.5676
  484DG      C111110   2.872   1.788   2.756 -0.0455 -0.2351 -0.7698
  484DG      C211111   2.584   2.006   3.505 -0.3435  0.2505  0.5119
  484DG      H311112   2.942   1.710   2.726  0.7111  0.7853 -1.7381
  484DG      H411113   2.910   1.885   2.723  0.7533 -0.0072  0.7164
  484DG      H511114   2.769   1.781   2.720 -0.7320 -0.7380  1.1406
  484DG      H611115   2.679   1.958   3.528  0.4423  1.4094 -0.2599
  484DG      H711116   2.615   2.104   3.469  3.1713 -1.0669 -0.4330
  484DG      H811117   2.521   2.020   3.593 -0.0578  0.9633  0.6043
  484DG      O911118   2.880   1.807   2.897 -0.0266  0.2015  0.2454
  484DG     O1011119   2.493   1.936   3.413 -0.0935 -0.0573  0.3469
  484DG     C1111120   2.806   1.699   2.954 -0.5860 -0.8158  0.0592
  484DG     C1211121   2.538   1.935   3.277 -0.3060 -0.2785 -0.3449
  484DG     H1311122   2.884   1.624   2.941 -0.2876 -0.6284  0.7159
  484DG     H1411123   2.720   1.665   2.896 -0.2440 -1.5714 -0.0161
  484DG     H1511124   2.572   2.033   3.246 -0.5728  0.2100  0.8528
  484DG     H1611125   2.448   1.911   3.219  0.0129 -1.0960 -0.5232
  484DG     C1711126   2.791   1.726   3.107 -0.4707  0.0124  0.2922
  484DG     C1811127   2.648   1.832   3.266  0.1102  0.1134  0.0656
  484DG     O1911128   2.692   1.818   3.130  0.7638  0.3618 -0.0019
  484DG     H2011129   2.886   1.755   3.152  0.9889 -2.0469 -1.2715
  484DG     H2111130   2.761   1.632   3.153 -3.7394  0.7147 -0.1075
  484DG     H2211131   2.738   1.864   3.319  0.1987 -0.1247  0.0616
  484DG     H2311132   2.615   1.739   3.312 -1.6262  1.1138  0.9505
  485DG      C111133   3.622   5.054   3.780  0.0070  0.2376  1.0167
  485DG      C211134   3.643   5.640   4.115 -0.2117 -0.3583 -0.4134
  485DG      H311135   3.528   5.060   3.835 -0.2387 -1.5195  0.8509
  485DG      H411136   3.697   5.005   3.843 -1.6733 -1.8446  1.5302
  485DG      H511137   3.613   4.999   3.686  1.6934  1.3571  0.1386
  485DG      H611138   3.717   5.720   4.125  0.0116 -0.7704  1.6502
  485DG      H711139   3.580   5.651   4.203 -0.4188  0.4135 -0.6442
  485DG      H811140   3.700   5.547   4.120 -2.2713 -1.7401 -1.2562
  485DG      O911141   3.677   5.183   3.746 -0.5227  0.3295  0.6387
  485DG     O1011142   3.561   5.621   4.002 -0.5836 -0.0178  0.0679
  485DG     C1111143   3.603   5.268   3.655 -0.5806 -0.7308 -0.0961
  485DG     C1211144   3.459   5.521   4.021 -0.6160 -0.4061  0.5902
  485DG     H1311145   3.577   5.209   3.566 -1.3198  0.7770 -0.9250
  485DG     H1411146   3.664   5.346   3.609  0.4698 -2.5821 -2.0795
  485DG     H1511147   3.380   5.575   4.074  1.1513  2.1521  0.7664
  485DG     H1611148   3.504   5.435   4.072  2.8254  0.3104 -0.9463
  485DG     C1711149   3.480   5.332   3.717  0.6534  0.4900  0.1774
  485DG     C1811150   3.411   5.476   3.885 -0.1382 -0.0873  0.6269
  485DG     O1911151   3.512   5.389   3.840 -0.0523  0.4822  0.1179
  485DG     H2011152   3.409   5.253   3.743  1.8221 -0.6012  0.1668
  485DG     H2111153   3.437   5.399   3.642  1.7373 -1.4330 -2.3194
  485DG     H2211154   3.313   5.428   3.885  0.6946 -1.9755 -1.2455
  485DG     H2311155   3.401   5.560   3.816 -0.4251 -0.1727  0.5609
  486DG      C111156   0.732   1.149  -0.042 -0.5911  0.5452 -0.0610
  486DG      C211157   0.435   0.488   0.363 -0.4268  0.4694 -0.8479
  486DG      H311158   0.799   1.068  -0.013 -0.3194  1.2301  1.3276
  486DG      H411159   0.756   1.228   0.030  1.4263 -0.8605  0.9096
  486DG      H511160   0.774   1.188  -0.135  0.1290  0.4214  0.2072
  486DG      H611161   0.404   0.482   0.468  0.6503 -0.9649 -0.5765
  486DG      H711162   0.365   0.419   0.316 -2.6226  1.6418  0.5426
  486DG      H811163   0.540   0.459   0.362 -0.5058 -0.3709  2.6576
  486DG      O911164   0.595   1.110  -0.063  0.1237 -0.2263  0.0774
  486DG     O1011165   0.415   0.617   0.315  0.1121 -0.5147  0.1098
  486DG     C1111166   0.552   0.986  -0.014 -0.1110  0.0834  0.5475
  486DG     C1211167   0.490   0.715   0.394  0.4970 -0.5665  0.2530
  486DG     H1311168   0.628   0.912  -0.042  0.8261  1.4402 -0.6196
  486DG     H1411169   0.454   0.969  -0.060 -0.0786  1.4679 -0.0900
  486DG     H1511170   0.597   0.693   0.393  0.6499 -0.0395  2.3138
  486DG     H1611171   0.453   0.710   0.496  1.1918 -3.6229  0.4337
  486DG     C1711172   0.530   0.976   0.138 -0.4314  0.0995 -0.2804
  486DG     C1811173   0.466   0.853   0.329 -0.4015 -0.4096  0.3576
  486DG     O1911174   0.494   0.847   0.190  0.4809  0.0294  0.4147
  486DG     H2011175   0.452   1.046   0.168  1.0578  1.4999  0.5192
  486DG     H2111176   0.626   1.003   0.183 -0.4426 -1.9461  1.0667
  486DG     H2211177   0.362   0.872   0.355 -0.8720 -2.5939  0.2946
  486DG     H2311178   0.527   0.924   0.385 -0.9725  2.0216 -1.8869
  487DG      C111179   5.492   2.907   4.660 -0.5128  0.6720 -0.0986
  487DG      C211180   5.106   2.279   5.083 -0.1768 -0.2099  0.2527
  487DG      H311181   5.562   2.824   4.652  0.7656  1.5300  1.3924
  487DG      H411182   5.527   2.978   4.736 -1.1508  1.9896 -1.0062
  487DG      H511183   5.485   2.960   4.565  0.0215  0.0280 -0.5077
  487DG      H611184   5.142   2.283   5.185 -2.5935  0.7246  1.1508
  487DG      H711185   5.003   2.245   5.075 -0.5435  0.4207  1.8926
  487DG      H811186   5.167   2.202   5.036  0.2275  0.0400  0.3671
  487DG      O911187   5.365   2.854   4.687 -0.3940  0.3425  0.1287
  487DG     O1011188   5.126   2.395   5.005  0.2203 -0.6287  0.4087
  487DG     C1111189   5.363   2.773   4.812  0.5676 -0.0406 -0.3523
  487DG     C1211190   5.064   2.505   5.055  0.0057 -0.5635  0.0604
  487DG     H1311191   5.408   2.828   4.896  2.6323 -0.0860 -1.3622
  487DG     H1411192   5.415   2.677   4.807  0.0436 -0.2923 -0.9562
  487DG     H1511193   5.119   2.545   5.141 -0.4743  1.0363 -0.3270
  487DG     H1611194   4.960   2.493   5.086  0.1463  0.2065  0.8819
  487DG     C1711195   5.220   2.758   4.837 -0.4250  0.4145  0.0401
  487DG     C1811196   5.066   2.623   4.948 -0.8603 -0.2662 -0.1275
  487DG     O1911197   5.199   2.639   4.909 -0.2536  0.0185 -0.4474
  487DG     H2011198   5.168   2.733   4.744 -0.5404  0.5171  0.0770
  487DG     H2111199   5.180   2.851   4.876 -0.2964  0.9629 -1.1088
  487DG     H2211200   4.998   2.598   4.866 -1.4418 -0.9934  0.5616
  487DG     H2311201   5.045   2.718   4.997  1.3728  0.2797 -0.1316
  488DG      C111202   1.203   3.789   2.958  0.1032  0.2201  0.0064
  488DG      C211203   0.642   4.228   2.895 -0.1969 -0.2442  0.7619
  488DG      H311204   1.173   3.846   3.046  0.9525 -0.7596  0.9577
  488DG      H411205   1.311   3.790   2.950  0.1061 -0.9992 -0.3141
  488DG      H511206   1.167   3.686   2.969  2.6463 -0.9914 -1.9235
  488DG      H611207   0.553   4.227   2.833 -1.5169 -1.5272  2.5564
  488DG      H711208   0.654   4.158   2.978  1.9893 -0.9551 -0.0953
  488DG      H811209   0.652   4.325   2.944  0.2337  0.2526 -0.2782
  488DG      O911210   1.140   3.838   2.845 -0.4611  0.2391  0.3414
  488DG     O1011211   0.752   4.214   2.807 -0.0461 -0.3943  0.2589
  488DG     C1111212   1.194   3.970   2.826 -0.4461  0.2818  0.0081
  488DG     C1211213   0.745   4.106   2.719  0.5472 -0.3824 -0.4321
  488DG     H1311214   1.297   3.971   2.789 -1.3813 -0.7563 -2.8768
  488DG     H1411215   1.183   4.021   2.921  0.1149 -1.3656  0.9942
  488DG     H1511216   0.670   4.121   2.641  0.9680 -1.3688 -1.0426
  488DG     H1611217   0.713   4.023   2.783 -3.3792  0.0715 -1.5201
  488DG     C1711218   1.099   4.030   2.720 -0.0253  0.1311 -0.5442
  488DG     C1811219   0.881   4.085   2.664  0.1679  0.4253 -0.0869
  488DG     O1911220   0.968   4.046   2.770  0.0231 -0.2991 -0.6332
  488DG     H2011221   1.109   3.959   2.638 -1.6382 -0.0168 -0.6406
  488DG     H2111222   1.124   4.127   2.677 -4.0687  1.7926  0.4418
  488DG     H2211223   0.889   4.000   2.597 -2.6358 -3.1569  3.6362
  488DG     H2311224   0.925   4.175   2.622  1.1163 -0.3333 -0.7639
  489DG      C111225   5.446   0.957   4.390 -0.4171  0.3589 -0.5620
  489DG      C211226   5.232   0.186   4.661  0.4043 -0.9082 -0.3963
  489DG      H311227   5.495   0.974   4.485  0.8538 -3.6956 -0.2978
  489DG      H411228   5.339   0.963   4.410 -0.4255 -1.0191 -0.1310
  489DG      H511229   5.475   1.037   4.321  0.1389  1.6945  1.1419
  489DG      H611230   5.168   0.221   4.743 -0.0216 -1.8321 -0.3244
  489DG      H711231   5.173   0.114   4.605 -3.2614 -0.5154  2.5554
  489DG      H811232   5.315   0.121   4.689  0.2160 -1.5642 -1.3165
  489DG      O911233   5.492   0.831   4.344  0.0581 -0.2058  0.2008
  489DG     O1011234   5.272   0.289   4.579 -0.5925 -0.3587  0.0702
  489DG     C1111235   5.462   0.720   4.430 -0.3769 -0.4666  0.1641
  489DG     C1211236   5.384   0.252   4.494 -0.0302  0.8188 -0.3164
  489DG     H1311237   5.380   0.742   4.499  0.1705  0.0643  0.6627
  489DG     H1411238   5.543   0.716   4.502 -0.8597  2.3884  1.0204
  489DG     H1511239   5.356   0.158   4.447 -0.0669 -1.1240  3.2003
  489DG     H1611240   5.467   0.227   4.560 -0.1056 -0.8560 -0.8114
  489DG     C1711241   5.449   0.589   4.359  0.1861 -0.2107  1.1080
  489DG     C1811242   5.413   0.356   4.385 -0.2388  0.4028  0.4451
  489DG     O1911243   5.450   0.474   4.452 -0.1455 -0.0695  0.1133
  489DG     H2011244   5.525   0.578   4.282 -2.7043 -0.8760 -1.9137
  489DG     H2111245   5.361   0.591   4.294  1.2015  0.6170 -0.3001
  489DG     H2211246   5.491   0.316   4.320 -0.9490 -0.3586  0.0450
  489DG     H2311247   5.320   0.366   4.330 -1.3824 -0.8247  2.0830
  490DG      C111248   4.590   0.690   4.416 -0.5986 -0.4458 -0.2376
  490DG      C211249   5.035   0.908   4.836 -0.3380  0.7149  0.0247
  490DG      H311250   4.503   0.716   4.357 -0.7288  0.2831  0.2617
  490DG      H411251   4.577   0.586   4.448  2.1952 -0.9890 -0.6185
  490DG      H511252   4.669   0.692   4.341 -1.0918 -0.3658 -0.7562
  490DG      H611253   5.018   1.005   4.790 -4.7379  0.2739  0.3603
  490DG      H711254   5.091   0.923   4.928 -0.7262 -1.6157  0.7074
  490DG      H811255   5.099   0.853   4.768 -2.1267 -1.9286  0.3511
  490DG      O911256   4.626   0.773   4.526 -0.3710 -0.2073  0.5461
  490DG     O1011257   4.917   0.838   4.841 -1.0151  0.0954  0.2614
  490DG     C1111258   4.519   0.791   4.617  0.0045 -0.3298  0.1463
  490DG     C1211259   4.821   0.897   4.924  1.1530  0.4278  0.0583
  490DG     H1311260   4.482   0.694   4.650 -0.0447 -0.4329 -0.2080
  490DG     H1411261   4.441   0.853   4.572  0.4500  0.1521  0.0246
  490DG     H1511262   4.799   0.993   4.879  0.6335 -0.1339 -0.9287
  490DG     H1611263   4.865   0.924   5.020 -1.1880  1.8408  0.8000
  490DG     C1711264   4.570   0.859   4.747 -0.4787 -0.9420  0.2493
  490DG     C1811265   4.695   0.809   4.941  0.0189  0.0357 -0.1985
  490DG     O1911266   4.648   0.763   4.813 -0.2643 -0.3101 -0.3017
  490DG     H2011267   4.496   0.905   4.813 -0.4010 -0.1574 -0.1973
  490DG     H2111268   4.636   0.938   4.711 -3.1218  0.5676 -1.5924
  490DG     H2211269   4.726   0.724   5.001  1.4225  0.5212 -0.1887
  490DG     H2311270   4.614   0.853   4.999  0.8192  1.4730 -0.1269
  491DG      C111271   3.236   0.517   3.171  0.0639  0.3245 -0.0089
  491DG      C211272   2.616   0.428   3.046 -0.1819  0.1745 -0.8218
  491DG      H311273   3.232   0.532   3.063  3.1743  1.3311 -0.0864
  491DG      H411274   3.339   0.511   3.206 -0.0254 -1.8919  0.0402
  491DG      H511275   3.191   0.608   3.209  0.5192  0.8659 -0.7470
  491DG      H611276   2.636   0.527   3.087 -0.8322  1.4502 -3.3848
  491DG      H711277   2.656   0.427   2.945 -0.9350  1.8815 -1.1711
  491DG      H811278   2.510   0.405   3.058 -0.7346  0.8749 -3.6645
  491DG      O911279   3.149   0.414   3.204  0.5130  0.1026 -0.2509
  491DG     O1011280   2.698   0.340   3.123 -0.9347  0.2885  0.0973
  491DG     C1111281   3.178   0.287   3.139 -0.1352 -0.0061 -0.2254
  491DG     C1211282   2.717   0.209   3.063 -0.4818 -0.2657  0.2181
  491DG     H1311283   3.271   0.257   3.187 -0.3549  1.7208  1.4220
  491DG     H1411284   3.198   0.295   3.032  1.6240 -2.2736 -0.1520
  491DG     H1511285   2.734   0.219   2.955 -0.0578 -1.8617  0.1067
  491DG     H1611286   2.630   0.143   3.068 -0.7621  0.1851  1.3595
  491DG     C1711287   3.068   0.185   3.171 -1.1061  0.2332 -0.3915
  491DG     C1811288   2.837   0.129   3.127 -0.3066  0.0500  0.1419
  491DG     O1911289   2.949   0.218   3.113  0.1431 -0.0228 -0.3159
  491DG     H2011290   3.058   0.171   3.278 -0.7196 -0.1885 -0.4090
  491DG     H2111291   3.101   0.085   3.142  1.9674  1.2263 -0.7157
  491DG     H2211292   2.817   0.109   3.232  1.0893  0.2658  0.4697
  491DG     H2311293   2.867   0.032   3.086  1.7799 -0.6542  2.9931
  492DG      C111294   5.238   0.152   1.338 -0.1138  0.0386 -0.8049
  492DG      C211295   4.790   0.573   0.960  0.2213 -0.5137  0.4176
  492DG      H311296   5.293   0.154   1.432 -0.6533 -0.3845 -0.4739
  492DG      H411297   5.303   0.109   1.262  0.2623 -0.0984 -0.4068
  492DG      H511298   5.158   0.081   1.360 -0.0835  0.6846  1.6702
  492DG      H611299   4.686   0.562   0.989 -0.3318  2.1770 -0.2681
  492DG      H711300   4.804   0.662   0.899 -0.7508 -1.7001 -1.6349
  492DG      H811301   4.802   0.492   0.888  0.0795  0.7751 -1.1133
  492DG      O911302   5.185   0.287   1.313  0.4357  0.8786 -0.1411
  492DG     O1011303   4.878   0.559   1.065  0.1994  0.2051 -0.5367
  492DG     C1111304   5.123   0.345   1.425 -0.0945  0.0009 -0.2827
  492DG     C1211305   4.853   0.649   1.177 -0.4330 -0.1366  1.2338
  492DG     H1311306   5.181   0.338   1.517  0.7455 -0.7248 -0.8569
  492DG     H1411307   5.039   0.278   1.445 -0.2567  0.5924  1.1732
  492DG     H1511308   4.758   0.617   1.219 -0.4083 -2.3011 -0.1917
  492DG     H1611309   4.847   0.746   1.128 -2.7816 -1.3664 -1.2143
  492DG     C1711310   5.078   0.493   1.407 -0.5008  0.1564  0.0533
  492DG     C1811311   4.969   0.641   1.270  0.0844 -0.4598  0.7322
  492DG     O1911312   4.999   0.501   1.292  0.1734 -0.3377 -0.2218
  492DG     H2011313   5.163   0.560   1.414 -0.0044 -0.3825 -0.6319
  492DG     H2111314   5.007   0.510   1.488  1.0116  0.9406  1.2623
  492DG     H2211315   5.057   0.684   1.221  0.6570 -1.6029  0.7147
  492DG     H2311316   4.935   0.687   1.362 -1.8236 -3.2881  1.5780
  493DG      C111317   2.566   0.674   2.397  0.2436 -0.2501  0.2997
  493DG      C211318   2.069   1.016   2.054  0.3307 -0.2223  0.0707
  493DG      H311319   2.505   0.593   2.357 -1.9512  0.7508  1.4709
  493DG      H411320   2.616   0.648   2.491  1.6713  1.5576  0.0939
  493DG      H511321   2.638   0.690   2.317 -0.8920  1.1920 -0.4702
  493DG      H611322   2.000   0.932   2.047  1.1867 -0.9154 -0.2331
  493DG      H711323   2.018   1.112   2.045  2.6594  0.9413 -1.8446
  493DG      H811324   2.127   1.012   1.961  0.0195 -0.0854 -0.1327
  493DG      O911325   2.489   0.787   2.421  0.6075  0.4949 -0.3102
  493DG     O1011326   2.152   1.007   2.165 -0.6452  0.5454 -0.0166
  493DG     C1111327   2.407   0.768   2.536  0.1002 -0.0692 -0.1028
  493DG     C1211328   2.077   1.015   2.286 -0.7528 -0.1166  0.6928
  493DG     H1311329   2.471   0.762   2.624  1.1818  1.7211 -0.7104
  493DG     H1411330   2.336   0.686   2.527 -1.2507  1.0880 -0.4980
  493DG     H1511331   2.026   0.919   2.297 -0.4084 -0.2843  0.8300
  493DG     H1611332   2.004   1.096   2.287  0.2201  0.9294 -2.4896
  493DG     C1711333   2.302   0.880   2.552  0.6853  0.1816 -0.8395
  493DG     C1811334   2.155   1.020   2.414 -0.5787 -0.0788 -0.2383
  493DG     O1911335   2.252   0.915   2.422 -0.4081  0.0200  0.2996
  493DG     H2011336   2.353   0.961   2.604 -1.7502 -0.0550  2.1847
  493DG     H2111337   2.228   0.836   2.618  0.6975  0.9169 -0.3197
  493DG     H2211338   2.198   1.120   2.423  0.0948 -0.2676 -1.2429
  493DG     H2311339   2.080   1.010   2.493 -0.0780 -1.0886  0.1251
  494DG      C111340   1.051   4.471   3.723 -0.3761  0.3530  0.3074
  494DG      C211341   1.667   4.786   3.477 -0.2086 -0.0521 -0.5170
  494DG      H311342   1.062   4.394   3.799  2.5557  1.1159  0.7724
  494DG      H411343   0.944   4.487   3.707 -0.5626 -1.0824 -0.0393
  494DG      H511344   1.096   4.562   3.763 -0.1717  0.7438 -0.7763
  494DG      H611345   1.586   4.859   3.490 -0.5221 -0.7160  1.6088
  494DG      H711346   1.735   4.782   3.561  0.2760 -2.4913 -0.9470
  494DG      H811347   1.719   4.801   3.382 -0.2617  1.3933 -0.3447
  494DG      O911348   1.124   4.437   3.606  0.2481 -0.0953  0.3319
  494DG     O1011349   1.594   4.663   3.477  0.2053  0.2446 -0.5469
  494DG     C1111350   1.257   4.394   3.632 -0.6074  0.1185 -0.0646
  494DG     C1211351   1.551   4.622   3.345 -0.0814 -0.0091  0.2581
  494DG     H1311352   1.266   4.295   3.678  0.2967  0.2482  0.0582
  494DG     H1411353   1.313   4.462   3.696  2.3777 -0.9949 -1.2859
  494DG     H1511354   1.633   4.620   3.274 -0.0840  1.4104  0.1843
  494DG     H1611355   1.474   4.690   3.308  0.1905 -0.4862 -1.2178
  494DG     C1711356   1.327   4.391   3.496 -0.1206  0.0825 -0.1583
  494DG     C1811357   1.487   4.480   3.348  0.6001 -0.1975 -0.6778
  494DG     O1911358   1.386   4.502   3.445  0.2400 -0.1574  0.1108
  494DG     H2011359   1.252   4.356   3.424 -2.7185 -0.0216  2.4286
  494DG     H2111360   1.409   4.320   3.509 -1.3173 -1.1513  0.9870
  494DG     H2211361   1.436   4.436   3.263 -2.4560  1.6264  0.0431
  494DG     H2311362   1.553   4.408   3.396 -1.0346 -0.6091  1.0922
  495DG      C111363   2.778   1.746   1.076  0.5733  0.9613  0.3715
  495DG      C211364   2.411   1.329   0.544 -0.4301  0.5448 -0.5439
  495DG      H311365   2.814   1.717   1.174  1.3127  1.0551  0.1373
  495DG      H411366   2.815   1.845   1.050  0.1615  1.5493  1.9442
  495DG      H511367   2.832   1.667   1.023 -1.2697 -1.9289  2.5447
  495DG      H611368   2.315   1.279   0.534  0.0434 -0.6572  0.5819
  495DG      H711369   2.451   1.347   0.444  1.4784 -0.1850  0.0400
  495DG      H811370   2.476   1.263   0.601 -1.3531 -1.3433 -1.5766
  495DG      O911371   2.634   1.735   1.054 -0.7254  0.9962  0.4505
  495DG     O1011372   2.409   1.457   0.612  0.1242  0.1312 -0.2785
  495DG     C1111373   2.591   1.812   0.944  0.1195  0.0832 -0.1762
  495DG     C1211374   2.339   1.466   0.737 -0.5190 -0.2710  0.1517
  495DG     H1311375   2.662   1.805   0.861  0.5250 -0.1924  0.1899
  495DG     H1411376   2.598   1.917   0.975  2.1321  0.1339 -0.6624
  495DG     H1511377   2.385   1.391   0.801 -2.3750 -1.5421  0.0625
  495DG     H1611378   2.239   1.425   0.723 -0.4327 -0.2279 -0.6643
  495DG     C1711379   2.444   1.778   0.917 -0.2338 -0.4046 -0.3035
  495DG     C1811380   2.326   1.611   0.797  0.5602 -0.1575 -0.2958
  495DG     O1911381   2.444   1.649   0.860  0.2819  0.5180  0.5526
  495DG     H2011382   2.417   1.851   0.841 -1.2386 -0.4509 -0.0071
  495DG     H2111383   2.381   1.788   1.006 -0.7228  0.1589 -0.7079
  495DG     H2211384   2.287   1.690   0.733 -2.4920 -0.7817  0.6500
  495DG     H2311385   2.255   1.607   0.879  0.5631  2.5568 -0.0739
  496DG      C111386   1.836   2.420   4.784  0.1586  0.3922  0.0850
  496DG      C211387   2.376   2.503   4.175 -1.0383 -0.1812  0.1358
  496DG      H311388   1.859   2.461   4.882 -1.1206 -2.4860  1.7040
  496DG      H411389   1.763   2.340   4.793  1.6785 -1.3280 -1.9335
  496DG      H511390   1.790   2.505   4.733  1.2295  1.9927  1.6371
  496DG      H611391   2.384   2.396   4.193 -1.5496 -0.4520 -1.1335
  496DG      H711392   2.303   2.519   4.096 -0.4523 -0.0419 -0.3847
  496DG      H811393   2.470   2.548   4.143 -0.7899  0.8050  2.0912
  496DG      O911394   1.951   2.377   4.713 -0.1654  0.5516 -0.7174
  496DG     O1011395   2.323   2.570   4.292  0.5746 -0.2181 -0.8053
  496DG     C1111396   1.924   2.340   4.575 -0.0280  0.0856 -0.0941
  496DG     C1211397   2.354   2.516   4.416 -0.6338 -0.0274 -0.5306
  496DG     H1311398   1.877   2.417   4.515  1.3613  0.9327 -0.1553
  496DG     H1411399   1.860   2.252   4.584  2.2684 -1.4993  2.1447
  496DG     H1511400   2.333   2.582   4.501 -0.7103 -1.4396  0.5814
  496DG     H1611401   2.461   2.492   4.420 -0.4363  0.8438 -0.3666
  496DG     C1711402   2.055   2.298   4.504 -0.8190 -0.0527  0.8998
  496DG     C1811403   2.265   2.394   4.445 -0.2698  0.3721  0.2710
  496DG     O1911404   2.135   2.412   4.506 -0.2941 -0.0113  0.0477
  496DG     H2011405   2.041   2.257   4.404  1.2120 -0.1161  0.6077
  496DG     H2111406   2.093   2.214   4.561 -2.7413 -1.1481  0.6663
  496DG     H2211407   2.266   2.326   4.360  2.3457 -0.9456  1.2730
  496DG     H2311408   2.315   2.339   4.524 -3.3225 -0.7782  1.5911
  497DG      C111409   1.199   1.512   0.753 -0.4038  0.9751  0.0932
  497DG      C211410   0.551   1.615   0.713 -0.4023  0.3376  0.2178
  497DG      H311411   1.157   1.419   0.792  0.0425  0.7407  0.0210
  497DG      H411412   1.206   1.591   0.828  0.7169  0.5726  0.4416
  497DG      H511413   1.304   1.499   0.725  0.1405 -0.9574  2.6547
  497DG      H611414   0.458   1.633   0.659 -0.7692 -0.0609  0.7110
  497DG      H711415   0.545   1.514   0.753  1.5510  0.0954 -0.0188
  497DG      H811416   0.570   1.685   0.794 -1.4163  2.1295 -1.0300
  497DG      O911417   1.106   1.548   0.658 -0.0771 -0.1800  0.3331
  497DG     O1011418   0.655   1.624   0.614  0.4371 -0.6656 -0.0243
  497DG     C1111419   1.153   1.646   0.562 -0.8577  0.7000 -0.2302
  497DG     C1211420   0.690   1.753   0.570 -0.4173 -0.5678 -0.1370
  497DG     H1311421   1.231   1.597   0.504 -1.7061 -2.1266  0.8188
  497DG     H1411422   1.188   1.734   0.617 -3.9692  1.0330  1.4365
  497DG     H1511423   0.718   1.830   0.642  1.3381 -1.0596 -0.2479
  497DG     H1611424   0.603   1.790   0.516 -1.2548 -2.8795 -0.4676
  497DG     C1711425   1.035   1.686   0.475  0.3004 -0.5251  1.3146
  497DG     C1811426   0.805   1.741   0.470 -0.2275  0.2614  0.0677
  497DG     O1911427   0.919   1.708   0.547 -0.6519 -0.3525 -0.0649
  497DG     H2011428   1.011   1.604   0.407  0.8556  0.0576  0.3975
  497DG     H2111429   1.066   1.767   0.408 -1.9595 -0.2027  0.5616
  497DG     H2211430   0.775   1.673   0.391  0.3374  1.2472 -1.0168
  497DG     H2311431   0.821   1.837   0.421 -0.5240  0.1691 -0.2127
  498DG      C111432   3.245   0.755   0.861  0.0041 -0.5997 -0.5475
  498DG      C211433   2.730   1.450   0.775 -0.2024 -0.8958 -0.5261
  498DG      H311434   3.148   0.707   0.873  0.6150 -1.3931  1.7421
  498DG      H411435   3.318   0.686   0.903  0.0086 -1.0085 -1.2086
  498DG      H511436   3.279   0.762   0.757  0.8388 -0.0929 -0.2548
  498DG      H611437   2.646   1.393   0.734  0.2201 -1.5153 -0.5396
  498DG      H711438   2.689   1.519   0.849  0.9902 -0.2453 -0.4581
  498DG      H811439   2.789   1.506   0.703  1.8603 -1.2606  0.8011
  498DG      O911440   3.239   0.886   0.922 -0.8244 -0.1334 -0.0259
  498DG     O1011441   2.799   1.355   0.843  0.2543  0.2025  0.3060
  498DG     C1111442   3.125   0.963   0.897  0.2531  0.6423  0.6359
  498DG     C1211443   2.924   1.400   0.898  0.2497  0.6522  0.4264
  498DG     H1311444   3.036   0.916   0.938  0.7784 -1.2556 -0.3065
  498DG     H1411445   3.111   0.970   0.789 -0.8436  0.4449  0.7562
  498DG     H1511446   2.904   1.482   0.967 -0.4397 -1.0802  2.3527
  498DG     H1611447   2.993   1.435   0.820 -0.0240 -1.9927 -1.1237
  498DG     C1711448   3.136   1.111   0.943  0.3697  0.2372 -0.2121
  498DG     C1811449   2.997   1.302   0.979 -0.2163  0.1761  0.4261
  498DG     O1911450   3.016   1.186   0.904  0.1914  0.1128 -0.1930
  498DG     H2011451   3.222   1.163   0.902 -0.0754  1.9158  0.8854
  498DG     H2111452   3.155   1.113   1.051  1.1160  2.2746 -0.3557
  498DG     H2211453   3.092   1.349   1.001  0.1166 -0.6610  0.8549
  498DG     H2311454   2.952   1.268   1.073  0.2976 -3.6811 -0.5654
  499DG      C111455   3.018   5.070   3.035  0.4081  0.1415 -0.1134
  499DG      C211456   3.187   4.456   2.739 -0.1709  0.1493  0.5573
  499DG      H311457   2.986   4.970   3.064  1.9049  0.1247  1.6812
  499DG      H411458   2.928   5.132   3.048 -1.7249 -2.5045 -1.2260
  499DG      H511459   3.099   5.099   3.102 -0.4514  0.9300  0.6171
  499DG      H611460   3.278   4.466   2.680  0.4359 -2.8311  0.8197
  499DG      H711461   3.201   4.416   2.839 -0.2398  0.3835  0.6611
  499DG      H811462   3.120   4.388   2.686  0.0388  0.2403  0.1771
  499DG      O911463   3.056   5.077   2.897  0.1828  0.0301 -0.5226
  499DG     O1011464   3.115   4.581   2.754 -0.3736  0.2885  0.2418
  499DG     C1111465   2.951   5.056   2.805  0.1475  0.3011  0.1462
  499DG     C1211466   3.010   4.571   2.846  0.5836 -0.1147 -0.2668
  499DG     H1311467   3.001   5.060   2.708  1.9735 -1.6236  0.9342
  499DG     H1411468   2.888   5.145   2.793 -0.8346 -0.2241  1.2290
  499DG     H1511469   3.050   4.561   2.946  0.3068 -1.2371 -0.2456
  499DG     H1611470   2.952   4.479   2.832  1.7457 -1.1587  1.4875
  499DG     C1711471   2.880   4.924   2.824 -0.1759  0.1145  0.4813
  499DG     C1811472   2.912   4.689   2.818 -0.1857 -0.5658 -0.2301
  499DG     O1911473   2.967   4.815   2.851 -0.4215 -0.3056  0.0463
  499DG     H2011474   2.820   4.893   2.738  0.8663 -0.6451  0.0055
  499DG     H2111475   2.814   4.928   2.911 -0.3217  2.9334  0.3275
  499DG     H2211476   2.895   4.688   2.710  1.0837  1.5170 -0.4881
  499DG     H2311477   2.820   4.676   2.875  0.6206 -1.6875  0.8790
  500DG      C111478   0.882   4.852   4.909 -0.7661 -0.3254  0.3546
  500DG      C211479   0.323   4.567   5.266  0.7264 -0.5321  0.3492
  500DG      H311480   0.900   4.940   4.969  0.4666  1.2965 -2.2102
  500DG      H411481   0.896   4.881   4.805  2.3176 -1.3085  0.3816
  500DG      H511482   0.960   4.780   4.935 -0.7005  0.0705  1.2765
  500DG      H611483   0.393   4.545   5.347 -0.6779 -1.2070  1.4338
  500DG      H711484   0.293   4.670   5.286  1.4174 -0.0066 -1.1634
  500DG      H811485   0.238   4.501   5.283  0.6019 -0.9755 -1.7564
  500DG      O911486   0.752   4.793   4.923  0.7031  0.0641 -0.4183
  500DG     O1011487   0.390   4.554   5.139  0.0674  0.5961 -0.0583
  500DG     C1111488   0.638   4.872   4.895 -0.4598  0.6707 -0.0646
  500DG     C1211489   0.304   4.593   5.037 -0.3072 -0.1769  0.3018
  500DG     H1311490   0.627   4.906   4.792 -0.6007  0.3692 -0.1509
  500DG     H1411491   0.636   4.963   4.954  0.4347  1.1467 -0.7377
  500DG     H1511492   0.256   4.688   5.063  0.2355 -0.5577  2.9107
  500DG     H1611493   0.222   4.520   5.032  0.5865 -1.1303 -1.0364
  500DG     C1711494   0.510   4.804   4.935 -0.6379 -0.4693 -0.3138
  500DG     C1811495   0.385   4.590   4.914  0.0428 -0.1684 -0.5594
  500DG     O1911496   0.510   4.662   4.901  0.2946  0.1691 -0.3350
  500DG     H2011497   0.415   4.842   4.895 -1.1290 -2.7740 -1.4885
  500DG     H2111498   0.503   4.793   5.043 -1.5089  1.7808 -0.0731
  500DG     H2211499   0.424   4.488   4.913 -0.5725 -0.4160 -0.0712
  500DG     H2311500   0.324   4.619   4.829 -1.4370 -1.0796  0.1419
  501DG      C111501   1.976   0.914  -0.129  0.3150 -0.4201  0.4904
  501DG      C211502   2.444   0.362  -0.003 -0.3766  0.6090  0.3266
  501DG      H311503   1.923   0.990  -0.071 -1.6127 -1.6833  0.4707
  501DG      H411504   1.894   0.853  -0.168  0.4299  1.1462 -2.4815
  501DG      H511505   2.051   0.950  -0.199  1.1298 -1.2252  0.9394
  501DG      H611506   2.531   0.343  -0.065 -0.2643 -0.7723  0.8524
  501DG      H711507   2.455   0.295   0.083  1.1280  1.1757  0.6057
  501DG      H811508   2.362   0.316  -0.059  0.4293 -1.4711  0.7365
  501DG      O911509   2.042   0.844  -0.029 -0.2010 -0.2645 -0.0696
  501DG     O1011510   2.417   0.491   0.041  0.1599  0.1078  0.0368
  501DG     C1111511   2.138   0.920   0.036 -0.0842 -0.3106 -0.3611
  501DG     C1211512   2.296   0.506   0.116  0.4166  0.2757 -0.1023
  501DG     H1311513   2.105   0.927   0.140  0.3413  1.4819 -0.3076
  501DG     H1411514   2.141   1.022  -0.000 -4.0907 -0.5477 -1.8846
  501DG     H1511515   2.286   0.448   0.207  0.5533  0.1762 -0.1503
  501DG     H1611516   2.211   0.481   0.052  1.2294 -0.1836 -1.0386
  501DG     C1711517   2.273   0.861   0.018 -0.4396 -0.4030 -0.3496
  501DG     C1811518   2.260   0.658   0.140 -0.3015  0.1749 -1.0279
  501DG     O1911519   2.290   0.722   0.020  0.4460  0.0952 -0.0023
  501DG     H2011520   2.353   0.896   0.084  0.8233 -3.7862  0.0962
  501DG     H2111521   2.301   0.899  -0.080 -0.6619  1.4438  0.2538
  501DG     H2211522   2.154   0.667   0.166 -0.6504 -0.0480 -2.2887
  501DG     H2311523   2.309   0.698   0.228 -0.3532  0.3816 -1.0910
  502DG      C111524   2.782   1.883   4.038 -0.8024 -0.6452  0.3862
  502DG      C211525   3.311   2.552   3.921 -0.2207  0.6833 -1.2368
  502DG      H311526   2.807   1.852   4.140 -3.3251 -1.6987  0.7680
  502DG      H411527   2.842   1.822   3.971  0.2299 -0.5524  1.1853
  502DG      H511528   2.680   1.849   4.017 -1.1183 -1.4069  2.8132
  502DG      H611529   3.361   2.513   4.009 -1.0528 -0.2406 -1.1516
  502DG      H711530   3.353   2.500   3.835 -3.0616 -0.0155 -2.3270
  502DG      H811531   3.331   2.659   3.910 -2.3097  1.1056 -1.3894
  502DG      O911532   2.799   2.025   4.016  0.1378  0.0619 -0.3141
  502DG     O1011533   3.166   2.539   3.920 -0.0743 -0.7232 -1.2229
  502DG     C1111534   2.806   2.057   3.876  0.3678  0.7881  0.0266
  502DG     C1211535   3.134   2.403   3.926  0.3378 -0.5242 -0.4668
  502DG     H1311536   2.708   2.047   3.828 -0.5175  1.7421  1.5343
  502DG     H1411537   2.879   1.990   3.832  0.7043  0.7071  0.6892
  502DG     H1511538   3.183   2.354   4.011 -3.2077  0.1997  2.2072
  502DG     H1611539   3.155   2.360   3.828 -2.3878  0.1972 -1.4412
  502DG     C1711540   2.826   2.211   3.870  0.4895 -0.5027 -0.1951
  502DG     C1811541   2.982   2.376   3.943 -0.0392 -0.3145  0.0055
  502DG     O1911542   2.956   2.238   3.918  0.2491  0.3936 -0.5509
  502DG     H2011543   2.752   2.246   3.942  0.2092 -0.6737 -0.3942
  502DG     H2111544   2.817   2.251   3.769  1.8985  1.2299  0.3105
  502DG     H2211545   2.950   2.413   4.040 -0.4668  2.6758 -1.1782
  502DG     H2311546   2.929   2.440   3.873 -0.9380 -0.0938  0.8690
  503DG      C111547   3.824   3.139   2.542  0.5342  0.0132  0.9719
  503DG      C211548   3.579   2.516   2.565  0.1903 -0.2504 -0.3081
  503DG      H311549   3.757   3.170   2.623 -1.1820  0.8817 -0.7095
  503DG      H411550   3.793   3.176   2.444 -0.5254 -0.8363  0.9620
  503DG      H511551   3.918   3.182   2.576  0.4083 -0.0257  1.3788
  503DG      H611552   3.636   2.571   2.640 -0.3098  2.0770 -1.5296
  503DG      H711553   3.471   2.519   2.573  0.2728 -0.5900  1.1367
  503DG      H811554   3.615   2.413   2.568  2.7077  0.5019 -1.6201
  503DG      O911555   3.831   3.000   2.546  0.7500 -0.0704 -0.5816
  503DG     O1011556   3.610   2.572   2.442 -0.1484  0.3603  0.5871
  503DG     C1111557   3.934   2.958   2.461 -0.0558  0.2217  0.1169
  503DG     C1211558   3.731   2.519   2.382  0.8745 -0.6548  0.6398
  503DG     H1311559   4.026   3.005   2.495 -1.2563  1.6028  1.5994
  503DG     H1411560   3.896   2.975   2.360 -0.9220  2.5235  0.7694
  503DG     H1511561   3.725   2.506   2.274 -0.9054 -0.7820  0.7139
  503DG     H1611562   3.754   2.415   2.407 -0.7371 -0.7190  2.0583
  503DG     C1711563   3.959   2.801   2.482 -0.1618  0.0435 -0.8172
  503DG     C1811564   3.850   2.593   2.433  0.6452 -0.0735  0.7557
  503DG     O1911565   3.841   2.728   2.418  0.0994  0.1487 -0.1207
  503DG     H2011566   3.949   2.779   2.588 -2.1752  1.6384 -0.6261
  503DG     H2111567   4.053   2.771   2.435  0.1052  0.1184 -0.3308
  503DG     H2211568   3.872   2.573   2.538  2.5170 -0.1155  0.3757
  503DG     H2311569   3.945   2.571   2.384  0.2432  2.3915 -1.3685
  504DG      C111570   5.018   1.638   0.605  0.3088 -0.7243  0.5405
  504DG      C211571   4.880   1.024   0.898 -0.0842 -0.0918  0.0688
  504DG      H311572   5.088   1.558   0.581 -0.8830 -0.9720 -2.5486
  504DG      H411573   5.082   1.725   0.624  0.6409 -0.3871 -1.7990
  504DG      H511574   4.976   1.665   0.509  0.5130  0.0953  0.6702
  504DG      H611575   4.797   0.989   0.836 -0.2542 -0.2192  0.3636
  504DG      H711576   4.969   0.980   0.854  0.2420 -0.7806  1.3529
  504DG      H811577   4.865   0.989   1.000  2.2834  1.2013  0.9409
  504DG      O911578   4.926   1.614   0.709  0.0258  0.1589  0.0146
  504DG     O1011579   4.894   1.169   0.908 -0.6249  0.1462  0.4573
  504DG     C1111580   4.970   1.653   0.837  0.0777  0.7480 -0.0654
  504DG     C1211581   4.789   1.227   0.973  0.2172 -0.0303 -0.0418
  504DG     H1311582   4.946   1.759   0.844 -1.7305  0.2670  2.6133
  504DG     H1411583   5.075   1.637   0.863  0.2443  1.9119  0.0285
  504DG     H1511584   4.773   1.173   1.066 -0.7427  0.7465  0.2545
  504DG     H1611585   4.698   1.215   0.915  0.5328 -0.8780 -0.3900
  504DG     C1711586   4.889   1.580   0.950  0.6947 -0.7162 -1.0136
  504DG     C1811587   4.812   1.369   1.012  0.4614  0.5668  0.0299
  504DG     O1911588   4.874   1.443   0.913 -0.3972  0.0978 -0.2461
  504DG     H2011589   4.788   1.620   0.954  0.8148 -0.3431 -1.5970
  504DG     H2111590   4.919   1.605   1.052 -4.5781  1.4002  0.3345
  504DG     H2211591   4.719   1.409   1.051 -0.0404  0.0878 -0.6704
  504DG     H2311592   4.876   1.377   1.101  0.8228 -0.5092 -0.1126
  505DG      C111593   5.254   0.552   4.777  0.1001 -0.2523  0.2807
  505DG      C211594   5.049   0.008   4.975  0.2440 -0.0157 -0.1159
  505DG      H311595   5.258   0.549   4.668  0.2368 -2.1317  0.2962
  505DG      H411596   5.271   0.448   4.805  1.2821 -1.2322 -3.4681
  505DG      H511597   5.339   0.608   4.812  0.0310 -0.8397  1.4298
  505DG      H611598   5.149  -0.029   5.000 -0.9549 -2.7631  1.0671
  505DG      H711599   4.990  -0.056   5.041  2.4858 -0.3269  1.6984
  505DG      H811600   5.046  -0.003   4.867  0.7076  1.2088 -0.2611
  505DG      O911601   5.123   0.596   4.820 -0.5533  0.3333 -0.2990
  505DG     O1011602   5.027   0.143   5.005 -0.2300 -0.3619  0.0816
  505DG     C1111603   5.106   0.609   4.965 -0.9443  0.6671 -0.5682
  505DG     C1211604   4.911   0.196   4.954 -0.5632  0.6565 -0.0605
  505DG     H1311605   5.034   0.689   4.980 -1.8333 -0.1257 -0.4995
  505DG     H1411606   5.194   0.640   5.021  0.8199 -2.0338 -1.6520
  505DG     H1511607   4.827   0.131   4.977 -0.2301  0.8701  1.9163
  505DG     H1611608   4.907   0.217   4.847  3.3648  2.4250 -0.0352
  505DG     C1711609   5.070   0.477   5.024  0.5026 -0.0324 -0.8633
  505DG     C1811610   4.881   0.326   5.031 -0.5800 -0.4388  0.3071
  505DG     O1911611   4.946   0.435   4.968 -0.5392  0.1446  0.1709
  505DG     H2011612   5.072   0.491   5.132 -0.5450 -0.5377 -0.7641
  505DG     H2111613   5.151   0.406   5.010  1.0506  0.2131  0.8368
  505DG     H2211614   4.779   0.352   5.002 -0.7099 -0.8794  0.3743
  505DG     H2311615   4.892   0.314   5.139 -0.4371 -0.6372  0.2705
  506DG      C111616   0.694   3.283   0.610  1.1946  0.1019  0.5246
  506DG      C211617   1.043   2.983   0.077 -0.0319 -0.1020 -0.5519
  506DG      H311618   0.618   3.331   0.549  0.5127 -0.1027  1.1987
  506DG      H411619   0.703   3.347   0.698  0.9936  0.9599 -0.0674
  506DG      H511620   0.652   3.188   0.643 -0.4317  0.8943  0.8624
  506DG      H611621   1.082   3.008  -0.021  0.8267  1.6274  0.1885
  506DG      H711622   1.072   2.881   0.101 -0.8303 -0.5857 -1.5882
  506DG      H811623   0.934   2.986   0.078 -0.1139 -1.9411 -0.8387
  506DG      O911624   0.813   3.273   0.533 -0.5817 -0.1142 -0.0559
  506DG     O1011625   1.093   3.078   0.170  0.5568  0.0314 -0.5331
  506DG     C1111626   0.856   3.402   0.493 -0.3963 -0.0945 -0.5217
  506DG     C1211627   1.087   3.212   0.118  0.6719  0.0628 -0.2428
  506DG     H1311628   0.859   3.466   0.581 -0.3306  0.4171 -0.8940
  506DG     H1411629   0.780   3.428   0.420 -2.3950 -0.0708  1.4689
  506DG     H1511630   0.996   3.225   0.059  1.2964  2.5450 -0.7885
  506DG     H1611631   1.177   3.224   0.057  0.3042  1.8663 -0.4836
  506DG     C1711632   0.991   3.410   0.415  0.6309  0.5571  0.0990
  506DG     C1811633   1.099   3.306   0.238 -0.2294 -0.0255  0.1203
  506DG     O1911634   0.985   3.312   0.318 -0.1392  0.7366 -0.4199
  506DG     H2011635   1.080   3.387   0.474  2.9077  3.7550 -1.7959
  506DG     H2111636   1.018   3.506   0.373  4.5245  0.2458  1.4513
  506DG     H2211637   1.192   3.278   0.287 -0.2474 -0.5833 -0.1596
  506DG     H2311638   1.115   3.409   0.205 -0.8064  0.5890  1.6305
  507DG      C111639   0.666   2.939   1.624 -0.4268 -0.0361  0.0944
  507DG      C211640   0.179   2.800   2.099  1.1805  0.1889 -0.4235
  507DG      H311641   0.769   2.928   1.588 -0.3245 -1.7724  0.8162
  507DG      H411642   0.651   3.038   1.668 -3.4992 -0.4644  0.1614
  507DG      H511643   0.606   2.937   1.533  0.2230 -0.8697 -0.3346
  507DG      H611644   0.213   2.884   2.159  1.5861  0.9555 -1.6765
  507DG      H711645   0.115   2.841   2.021 -1.8047 -2.5956  0.3283
  507DG      H811646   0.115   2.731   2.154 -0.1060  1.5509 -0.1488
  507DG      O911647   0.617   2.835   1.712  0.9494 -0.2678  0.5117
  507DG     O1011648   0.286   2.738   2.033 -0.0082  0.3528  0.4371
  507DG     C1111649   0.709   2.818   1.817  0.3039  0.0982 -1.0456
  507DG     C1211650   0.376   2.672   2.116  0.2398 -0.2380  0.1194
  507DG     H1311651   0.708   2.910   1.877 -0.9714 -0.0550 -0.7993
  507DG     H1411652   0.815   2.802   1.798 -0.2373 -1.8408 -2.7393
  507DG     H1511653   0.327   2.600   2.181  0.7396 -0.2048  0.5403
  507DG     H1611654   0.423   2.742   2.186  2.2014 -2.1942  0.8691
  507DG     C1711655   0.676   2.693   1.907 -0.5272 -0.3469 -0.0021
  507DG     C1811656   0.485   2.609   2.031 -0.4490  0.5446 -0.6765
  507DG     O1911657   0.547   2.718   1.964 -0.0591 -0.2866  0.1573
  507DG     H2011658   0.749   2.676   1.986 -1.1386 -0.2161  0.6092
  507DG     H2111659   0.687   2.598   1.854  1.2242 -0.3553  0.3469
  507DG     H2211660   0.556   2.548   2.088 -0.7941  0.6886 -0.0874
  507DG     H2311661   0.434   2.545   1.959  1.9491 -1.9512 -0.3422
  508DG      C111662   3.547   3.135   5.498 -0.3334  1.1734 -0.3559
  508DG      C211663   3.761   3.661   5.144 -0.6192  0.3918 -0.1912
  508DG      H311664   3.553   3.029   5.471 -1.2191  1.2970 -1.0914
  508DG      H411665   3.471   3.148   5.574 -2.2010 -1.9501 -1.5196
  508DG      H511666   3.648   3.162   5.531  0.0897  0.4692 -1.0375
  508DG      H611667   3.805   3.662   5.045  3.5576 -3.0618  1.3161
  508DG      H711668   3.723   3.762   5.161  2.6773  1.8583 -0.7653
  508DG      H811669   3.848   3.639   5.207  0.7508  0.5284 -1.9728
  508DG      O911670   3.517   3.223   5.393  0.1225  0.0281  0.3289
  508DG     O1011671   3.666   3.563   5.178  0.2596  0.0265 -0.5144
  508DG     C1111672   3.377   3.216   5.357  0.7157  0.0058 -0.5269
  508DG     C1211673   3.541   3.585   5.112  0.5365 -0.8442  0.4056
  508DG     H1311674   3.320   3.182   5.444  1.2023  1.1067  0.2601
  508DG     H1411675   3.359   3.143   5.279  2.4639  1.6439 -2.5964
  508DG     H1511676   3.531   3.530   5.019 -0.0062 -2.0068  1.1209
  508DG     H1611677   3.522   3.689   5.088  1.3456 -1.1485 -1.7957
  508DG     C1711678   3.329   3.350   5.298  0.4006  0.0461  0.0340
  508DG     C1811679   3.421   3.545   5.202 -0.3422  0.2821 -0.2580
  508DG     O1911680   3.431   3.399   5.207 -0.1709  0.3766 -0.5601
  508DG     H2011681   3.316   3.422   5.379 -0.0877  1.0211 -0.8860
  508DG     H2111682   3.234   3.337   5.246  0.4618  0.1772 -0.1115
  508DG     H2211683   3.444   3.599   5.294 -0.6052 -1.0550  0.6158
  508DG     H2311684   3.326   3.575   5.157 -1.2845  0.3330  1.6652
  509DG      C111685   1.325   1.298   5.714  0.3449 -0.2269  0.5175
  509DG      C211686   1.602   1.347   4.981 -0.3024 -0.0438  0.3253
  509DG      H311687   1.330   1.345   5.812 -3.0651 -0.5616  0.9779
  509DG      H411688   1.400   1.219   5.720  1.9433  1.3105  4.3523
  509DG      H511689   1.224   1.259   5.698  0.7040 -0.3720 -1.7852
  509DG      H611690   1.514   1.357   4.917 -1.0076  1.1475  1.4303
  509DG      H711691   1.681   1.390   4.920 -1.5463  2.4269  0.3149
  509DG      H811692   1.629   1.242   4.988  1.5750  0.3494 -0.4045
  509DG      O911693   1.349   1.392   5.609  0.1202  0.0157 -0.6459
  509DG     O1011694   1.595   1.392   5.117  0.3513  0.0969 -0.2641
  509DG     C1111695   1.488   1.429   5.610  0.7614 -0.3622 -0.3315
  509DG     C1211696   1.496   1.324   5.185 -0.0788 -0.0727 -0.4202
  509DG     H1311697   1.554   1.343   5.614 -1.6827 -2.3576 -0.5321
  509DG     H1411698   1.501   1.481   5.705  1.2596 -1.5917  0.2823
  509DG     H1511699   1.517   1.218   5.198 -1.3251 -0.4270 -1.0746
  509DG     H1611700   1.413   1.333   5.115 -0.5761 -0.5522  0.0966
  509DG     C1711701   1.545   1.509   5.495 -0.2044 -0.0047 -0.1913
  509DG     C1811702   1.457   1.386   5.316  1.1997  0.3463  0.1647
  509DG     O1911703   1.576   1.433   5.380 -0.1108 -0.3019 -0.1112
  509DG     H2011704   1.637   1.562   5.517 -1.3880  1.8986  0.3212
  509DG     H2111705   1.469   1.581   5.466 -1.2570 -0.5813  1.0543
  509DG     H2211706   1.394   1.471   5.290  2.1127  1.2977  0.9777
  509DG     H2311707   1.394   1.315   5.369  1.2765  0.8808  0.9852
  510DG      C111708   2.139   3.878   0.278  0.2322  0.1885 -0.2171
  510DG      C211709   1.933   4.461   0.386 -0.2945  0.2600 -0.4666
  510DG      H311710   2.175   3.776   0.298  1.4817  1.0403  2.3123
  510DG      H411711   2.223   3.922   0.224  0.9340  0.7818  1.2939
  510DG      H511712   2.047   3.871   0.221 -0.5419  2.3114  0.6715
  510DG      H611713   1.914   4.440   0.281  0.2286 -2.0568 -0.1438
  510DG      H711714   1.846   4.459   0.451  0.5860  1.9957  0.8688
  510DG      H811715   1.957   4.567   0.399 -2.6324  0.7442  0.2725
  510DG      O911716   2.107   3.938   0.402 -0.1652 -0.2275  0.1915
  510DG     O1011717   2.035   4.377   0.438 -0.0158 -0.3940  0.4687
  510DG     C1111718   2.223   3.946   0.487  0.9194  0.6191 -0.2239
  510DG     C1211719   2.143   4.389   0.352 -0.0398  0.5151  0.0105
  510DG     H1311720   2.291   3.861   0.490  0.7319  0.3332 -2.5021
  510DG     H1411721   2.176   3.955   0.585  0.0725 -0.2616 -0.5354
  510DG     H1511722   2.183   4.488   0.332  0.9375 -0.1710 -1.6908
  510DG     H1611723   2.112   4.342   0.258 -0.7945  1.2910 -0.1425
  510DG     C1711724   2.300   4.075   0.459 -0.4415  0.1426 -0.2138
  510DG     C1811725   2.255   4.304   0.396  0.4159  0.1859  0.1805
  510DG     O1911726   2.200   4.180   0.440 -0.5500 -0.6421  0.6540
  510DG     H2011727   2.354   4.067   0.365  1.2528  1.6221  0.5568
  510DG     H2111728   2.375   4.110   0.531  0.6282  2.3102 -2.2173
  510DG     H2211729   2.319   4.288   0.309  3.0658 -1.4342  2.2553
  510DG     H2311730   2.309   4.343   0.482  1.5959 -1.5218  0.2635
  511DG      C111731   2.524   4.124   1.152  0.3030  0.0112 -0.0149
  511DG      C211732   3.196   3.965   1.056 -0.5927 -0.1657  0.1289
  511DG      H311733   2.426   4.172   1.148  0.4334  0.1648 -3.0106
  511DG      H411734   2.588   4.190   1.211  2.0957 -1.1819 -0.5701
  511DG      H511735   2.517   4.033   1.212  0.5096 -1.1840 -1.7331
  511DG      H611736   3.121   3.891   1.085  1.2542 -1.6981  1.2153
  511DG      H711737   3.290   3.911   1.064 -0.8364 -0.7107 -0.5701
  511DG      H811738   3.192   4.033   1.141  1.3966  0.8607 -0.5482
  511DG      O911739   2.581   4.119   1.021 -0.5817  0.1432 -0.0371
  511DG     O1011740   3.175   4.048   0.942  0.0286 -0.0897  0.1538
  511DG     C1111741   2.724   4.084   1.016  0.1675 -0.0982  0.0688
  511DG     C1211742   3.128   3.976   0.823  0.7670 -1.0335 -0.4780
  511DG     H1311743   2.738   3.978   1.038 -0.2234 -0.1535  0.0710
  511DG     H1411744   2.774   4.141   1.094  1.2038 -1.0090  0.0929
  511DG     H1511745   3.184   3.883   0.815 -0.3724 -1.8682  0.9122
  511DG     H1611746   3.149   4.041   0.738 -0.8299  0.0918 -0.0424
  511DG     C1711747   2.786   4.110   0.869  0.2720  0.5151 -0.5865
  511DG     C1811748   2.976   3.968   0.833  0.3449  0.1487 -0.0149
  511DG     O1911749   2.929   4.099   0.853  0.1015 -0.0158 -0.5035
  511DG     H2011750   2.753   4.205   0.829  0.8574  0.1378 -2.0386
  511DG     H2111751   2.739   4.032   0.809 -0.8540  0.1298  0.7453
  511DG     H2211752   2.948   3.932   0.734 -1.8910  1.8466 -0.0683
  511DG     H2311753   2.942   3.892   0.904 -1.1937  2.2157  1.5594
  512DG      C111754   5.646   1.159   5.245  0.3320  0.1032  0.0385
  512DG      C211755   4.892   1.579   5.475  0.1818 -0.5424  0.3967
  512DG      H311756   5.737   1.113   5.283  1.3861 -0.0621 -2.5464
  512DG      H411757   5.676   1.206   5.152  2.1062 -0.0614  0.4968
  512DG      H511758   5.567   1.089   5.217 -0.0280  0.4478  0.1722
  512DG      H611759   4.878   1.654   5.554 -0.9031 -0.8496  0.5096
  512DG      H711760   4.883   1.644   5.388  2.7450  1.0616  1.2208
  512DG      H811761   4.803   1.515   5.476 -0.7520  0.6361 -1.5480
  512DG      O911762   5.594   1.253   5.340 -0.5100 -0.0808  0.4526
  512DG     O1011763   5.018   1.515   5.469 -0.1203  0.5546 -0.2912
  512DG     C1111764   5.466   1.298   5.302 -0.2929 -0.1605  0.2875
  512DG     C1211765   5.126   1.603   5.436  0.2220  0.8072 -0.0012
  512DG     H1311766   5.391   1.219   5.305  0.2881 -0.7385 -0.1289
  512DG     H1411767   5.482   1.337   5.202  0.6245 -1.2967 -0.0425
  512DG     H1511768   5.108   1.683   5.508  0.5152 -1.0071  2.2265
  512DG     H1611769   5.129   1.641   5.334  2.1046 -0.2361 -0.3813
  512DG     C1711770   5.438   1.412   5.389 -0.3740 -0.1087 -0.4207
  512DG     C1811771   5.265   1.536   5.474  0.4075 -0.5441 -0.3846
  512DG     O1911772   5.302   1.435   5.381  0.3015 -0.3825  0.3416
  512DG     H2011773   5.503   1.497   5.368 -3.9131  3.9748  3.1477
  512DG     H2111774   5.461   1.386   5.492  3.5966  0.4423 -1.0157
  512DG     H2211775   5.333   1.621   5.475 -1.4251  1.0104 -1.1704
  512DG     H2311776   5.253   1.488   5.571 -0.3862 -1.7374 -1.0532
  513DG      C111777   1.901   4.507   5.376  0.3236  0.2596  0.1899
  513DG      C211778   2.560   5.077   5.455  0.6733  0.1490 -0.0879
  513DG      H311779   1.819   4.547   5.437  0.2825  0.0329  0.2851
  513DG      H411780   1.937   4.415   5.422  0.3511  0.3756  0.4017
  513DG      H511781   1.869   4.476   5.277  2.3434 -2.6939  0.3349
  513DG      H611782   2.650   5.129   5.423  1.3506 -2.1886 -2.2700
  513DG      H711783   2.473   5.142   5.443  0.1091 -0.0720  2.3373
  513DG      H811784   2.561   5.050   5.560 -0.6338 -2.1535 -0.5936
  513DG      O911785   2.004   4.599   5.361 -0.2101  0.5779  0.2473
  513DG     O1011786   2.549   4.954   5.379  0.2151 -0.3078 -0.2143
  513DG     C1111787   2.113   4.540   5.286 -0.1178  0.2025  0.1482
  513DG     C1211788   2.438   4.878   5.434 -0.4055  0.0271  0.5606
  513DG     H1311789   2.086   4.477   5.201  2.3998  0.0654 -0.6336
  513DG     H1411790   2.162   4.471   5.355  0.0816 -0.1477 -0.3360
  513DG     H1511791   2.364   4.950   5.468  1.6718  2.5864  0.0026
  513DG     H1611792   2.468   4.816   5.519  1.4036 -1.7434 -1.2561
  513DG     C1711793   2.206   4.657   5.252  0.6082 -0.2307 -0.0351
  513DG     C1811794   2.379   4.794   5.313  0.3674  0.0717  0.7217
  513DG     O1911795   2.266   4.722   5.360 -0.4712 -0.0893  0.1259
  513DG     H2011796   2.154   4.741   5.204  2.3690  1.3411  0.6936
  513DG     H2111797   2.285   4.618   5.188  0.9202  2.5460 -1.4785
  513DG     H2211798   2.359   4.862   5.230  0.7398  1.5964  1.8166
  513DG     H2311799   2.454   4.721   5.284 -2.3766 -3.5216  1.9703
  514DG      C111800  -0.049   2.937   0.998  0.6487  0.0985  0.1522
  514DG      C211801   0.120   3.429   1.361  0.1306 -0.3280  0.3834
  514DG      H311802  -0.113   2.951   1.085 -1.0810  0.4971 -1.1058
  514DG      H411803  -0.006   2.837   1.002  0.7156  0.0991 -0.4366
  514DG      H511804  -0.114   2.933   0.910 -0.4973  1.9871  0.8446
  514DG      H611805   0.039   3.388   1.421 -1.4426  1.9387 -0.0590
  514DG      H711806   0.198   3.441   1.437  0.3512  0.8175 -0.0016
  514DG      H811807   0.086   3.527   1.329 -1.6063 -0.7868  0.7425
  514DG      O911808   0.050   3.043   1.003 -0.3300  0.6434 -0.3898
  514DG     O1011809   0.158   3.352   1.254  0.2063 -0.2985  0.4106
  514DG     C1111810   0.135   3.044   0.893  0.3071 -0.0463  0.4529
  514DG     C1211811   0.254   3.410   1.167  0.2465 -0.2965 -0.5311
  514DG     H1311812   0.102   3.098   0.805  0.6359  0.9243  0.9177
  514DG     H1411813   0.165   2.944   0.860 -1.1312 -0.8135  1.3753
  514DG     H1511814   0.335   3.443   1.233  0.1842 -0.0718 -0.5661
  514DG     H1611815   0.218   3.494   1.107 -0.6979 -1.1797 -1.2277
  514DG     C1711816   0.255   3.113   0.952 -0.3774  0.3207 -0.3490
  514DG     C1811817   0.322   3.308   1.077 -0.0416  0.0242  0.2461
  514DG     O1911818   0.213   3.239   1.013  0.0694  0.0796 -0.2563
  514DG     H2011819   0.337   3.128   0.882  1.4301  1.0798  1.8152
  514DG     H2111820   0.298   3.040   1.021  0.2238  0.8452 -0.1707
  514DG     H2211821   0.382   3.356   0.999 -1.1409  2.1973  0.6560
  514DG     H2311822   0.371   3.241   1.147 -0.2672 -0.0107  0.3717
  515DG      C111823   2.874   2.195   2.610  0.6117  0.2547  0.7865
  515DG      C211824   3.159   2.447   3.147 -0.2598  0.3017 -0.1104
  515DG      H311825   2.917   2.240   2.521 -0.7647 -0.4927 -0.3028
  515DG      H411826   2.794   2.260   2.645 -0.0776  1.3578 -2.4361
  515DG      H511827   2.823   2.110   2.565  2.3516 -0.0997 -0.6119
  515DG      H611828   3.059   2.470   3.183 -0.4312  0.0130 -0.4016
  515DG      H711829   3.204   2.429   3.244  1.1769  0.0671 -0.7987
  515DG      H811830   3.197   2.543   3.111  0.8445 -0.5091 -1.1930
  515DG      O911831   2.974   2.163   2.703 -0.0615 -0.2961 -0.3530
  515DG     O1011832   3.156   2.334   3.058 -0.0422 -0.0093 -0.3180
  515DG     C1111833   3.081   2.086   2.651 -0.5456  0.4362 -1.0175
  515DG     C1211834   3.291   2.292   3.027  1.1984  0.2213 -0.1074
  515DG     H1311835   3.130   2.126   2.563  0.0651  0.7526 -0.5415
  515DG     H1411836   3.050   1.990   2.610  0.4367  0.3280 -1.5383
  515DG     H1511837   3.351   2.284   3.117  0.1731  0.9463  0.6723
  515DG     H1611838   3.319   2.376   2.963  2.3353 -0.7187 -0.8638
  515DG     C1711839   3.192   2.061   2.756  0.9395 -0.3045 -0.2746
  515DG     C1811840   3.290   2.161   2.952  0.2340  0.0195  0.9333
  515DG     O1911841   3.199   2.181   2.837 -0.7392  0.1867  0.2674
  515DG     H2011842   3.288   2.040   2.708  0.7931  1.1676 -1.2522
  515DG     H2111843   3.158   1.978   2.819  0.2385 -0.3142 -0.6601
  515DG     H2211844   3.391   2.142   2.917  0.1035 -0.5728  0.8777
  515DG     H2311845   3.258   2.074   3.009  0.7851 -0.9002 -0.1243
  516DG      C111846   2.195   3.426   3.023  0.0492  0.1536  0.3232
  516DG      C211847   1.608   3.697   3.102 -0.5318  0.9872 -0.2249
  516DG      H311848   2.218   3.508   3.092  1.6457  0.2274 -0.2627
  516DG      H411849   2.259   3.444   2.937 -1.8566 -0.4168 -1.2673
  516DG      H511850   2.218   3.334   3.078  1.3940  0.9148  1.0881
  516DG      H611851   1.501   3.705   3.084 -0.5204  0.0529 -0.7552
  516DG      H711852   1.632   3.624   3.180 -0.0507  0.2638 -1.0393
  516DG      H811853   1.655   3.791   3.131 -0.6015  1.0840 -0.4297
  516DG      O911854   2.064   3.426   2.971  0.4899 -0.0938 -0.1403
  516DG     O1011855   1.674   3.645   2.988 -0.1994 -0.1139 -0.7123
  516DG     C1111856   2.032   3.335   2.860  0.0928  0.0303 -0.3092
  516DG     C1211857   1.605   3.523   2.942 -0.0640  0.4027  0.6753
  516DG     H1311858   1.999   3.237   2.896 -1.1596  1.0174  1.3872
  516DG     H1411859   2.108   3.316   2.785 -0.4860 -0.0936 -0.8670
  516DG     H1511860   1.504   3.547   2.910  0.8511  2.6689 -0.7281
  516DG     H1611861   1.586   3.447   3.018  0.2506 -0.9596 -0.5496
  516DG     C1711862   1.912   3.395   2.790 -0.5349  0.3369 -0.1091
  516DG     C1811863   1.685   3.461   2.831 -1.0111  0.3123  0.5068
  516DG     O1911864   1.815   3.425   2.887  0.6342  0.1725 -0.1040
  516DG     H2011865   1.872   3.324   2.718 -0.2072 -0.4191  0.4453
  516DG     H2111866   1.942   3.474   2.721 -1.7968  0.3254 -0.6828
  516DG     H2211867   1.631   3.372   2.797 -0.4865  0.4241 -0.6724
  516DG     H2311868   1.692   3.536   2.752 -3.1498  2.5694  2.2902
  517DG      C111869   5.708   3.468   2.621 -0.0210 -0.1857 -0.2973
  517DG      C211870   5.040   3.576   2.617  0.5765 -0.3656  0.3706
  517DG      H311871   5.713   3.478   2.729 -0.9755 -0.2567 -0.2361
  517DG      H411872   5.807   3.476   2.576  0.3426  0.9334  0.6355
  517DG      H511873   5.674   3.366   2.603 -0.8482 -0.2134  1.2224
  517DG      H611874   5.087   3.566   2.715 -1.9063 -1.0561  1.5698
  517DG      H711875   4.954   3.644   2.620  0.7134 -0.2337  2.0556
  517DG      H811876   5.005   3.475   2.596 -0.9196  0.1971 -0.0145
  517DG      O911877   5.613   3.549   2.562 -0.3026 -0.3953 -0.2449
  517DG     O1011878   5.145   3.615   2.529 -0.6959 -0.1035 -0.2340
  517DG     C1111879   5.644   3.687   2.564 -0.8923  0.1531 -0.8454
  517DG     C1211880   5.188   3.749   2.557  0.2698  0.1961  0.4694
  517DG     H1311881   5.749   3.693   2.534  0.5352 -1.4434  3.1045
  517DG     H1411882   5.647   3.723   2.667  3.5225  0.5258 -0.9012
  517DG     H1511883   5.228   3.743   2.658 -0.0110  0.6780  0.6130
  517DG     H1611884   5.111   3.825   2.540  0.5423  0.5882  0.9782
  517DG     C1711885   5.541   3.755   2.482  0.4840 -0.0391 -1.3070
  517DG     C1811886   5.307   3.772   2.467  0.3463 -0.7370  0.0439
  517DG     O1911887   5.420   3.712   2.537  0.1560  0.0108  0.5873
  517DG     H2011888   5.540   3.724   2.377 -0.7418 -1.3092 -0.9559
  517DG     H2111889   5.551   3.863   2.492  0.3533 -0.0928 -0.6038
  517DG     H2211890   5.290   3.732   2.367  1.2727 -0.0854 -0.3831
  517DG     H2311891   5.321   3.880   2.458  1.5496 -0.8989 -0.2058
  518DG      C111892   2.739   4.985   2.096  0.0769  0.2029  0.2278
  518DG      C211893   2.263   5.401   1.928 -0.1678  0.6477  0.1357
  518DG      H311894   2.774   5.039   2.184  0.4859  0.8084 -0.2980
  518DG      H411895   2.783   5.033   2.008  0.7425 -0.0825  0.3934
  518DG      H511896   2.763   4.879   2.106 -1.1714 -0.1397 -0.2248
  518DG      H611897   2.271   5.416   2.036 -0.1916  0.8508  0.1103
  518DG      H711898   2.342   5.455   1.877  2.1951 -1.6180  1.1524
  518DG      H811899   2.163   5.425   1.891 -0.0560 -0.7410 -1.1567
  518DG      O911900   2.599   5.000   2.077  0.0457  0.5245 -0.7649
  518DG     O1011901   2.267   5.260   1.916  0.0119 -0.4610 -0.1221
  518DG     C1111902   2.546   4.917   1.970 -0.2151 -0.4585 -0.6313
  518DG     C1211903   2.284   5.227   1.781 -0.7251 -0.4790  0.2105
  518DG     H1311904   2.441   4.892   1.984  0.0472 -0.3434  2.0401
  518DG     H1411905   2.583   4.816   1.954  1.0183 -0.2898  0.9356
  518DG     H1511906   2.343   5.304   1.730 -0.2778 -1.2560 -0.4656
  518DG     H1611907   2.186   5.227   1.732 -1.3763 -0.4112  1.4555
  518DG     C1711908   2.551   4.989   1.833  0.3228 -0.0077  0.1602
  518DG     C1811909   2.354   5.099   1.756 -0.8538 -0.8630 -0.1077
  518DG     O1911910   2.470   5.108   1.836 -0.5461  0.2568  0.4656
  518DG     H2011911   2.511   4.917   1.763 -1.3290 -0.6229  1.6596
  518DG     H2111912   2.650   5.021   1.800  0.1233  2.5368  1.7013
  518DG     H2211913   2.308   5.007   1.793  0.5704 -1.6143 -0.1352
  518DG     H2311914   2.382   5.079   1.653 -2.2708 -1.1173 -0.4647
  519DG      C111915   5.780   2.671   4.434 -0.0974 -0.3489  0.1878
  519DG      C211916   5.309   2.229   3.958 -0.1725 -0.2663 -0.2225
  519DG      H311917   5.809   2.710   4.336  0.4193 -0.0597  0.4570
  519DG      H411918   5.829   2.577   4.456  2.3093  0.5302 -1.0849
  519DG      H511919   5.811   2.743   4.509  0.0500 -0.1215 -0.0889
  519DG      H611920   5.316   2.129   4.002 -3.5765  0.0530  1.3623
  519DG      H711921   5.228   2.228   3.886 -0.4824 -0.9886  0.1246
  519DG      H811922   5.407   2.242   3.911  0.2936  1.0466  1.0158
  519DG      O911923   5.638   2.665   4.437  0.2147  0.4584  0.3882
  519DG     O1011924   5.304   2.322   4.062 -0.0895 -0.4464  0.1316
  519DG     C1111925   5.593   2.559   4.355 -0.0982 -0.0614  0.0683
  519DG     C1211926   5.272   2.461   4.030 -0.4967  0.5354  0.2763
  519DG     H1311927   5.587   2.473   4.421  0.1105  0.5363  0.8828
  519DG     H1411928   5.664   2.544   4.274 -1.5162 -1.0198 -1.0503
  519DG     H1511929   5.169   2.465   3.997 -0.1888  2.7850 -0.5967
  519DG     H1611930   5.350   2.485   3.957  0.4556 -0.3307  0.9722
  519DG     C1711931   5.453   2.599   4.307  0.5292 -1.0686  0.6055
  519DG     C1811932   5.281   2.554   4.149 -0.0681  0.0303 -0.7212
  519DG     O1911933   5.392   2.499   4.227 -0.1177 -0.1020 -0.2352
  519DG     H2011934   5.462   2.698   4.262 -0.2789 -0.7474  1.1095
  519DG     H2111935   5.391   2.607   4.397  1.8894 -0.0862  1.4933
  519DG     H2211936   5.307   2.654   4.116 -0.1846 -0.3227 -1.9427
  519DG     H2311937   5.197   2.556   4.218  1.1795 -0.0856  0.8418
  520DG      C111938   1.068   0.867   4.578 -0.8145  0.3590  0.0828
  520DG      C211939   1.798   0.885   4.997 -0.0281 -0.3297 -1.1577
  520DG      H311940   1.144   0.794   4.552  0.0599  1.1688  0.3151
  520DG      H411941   1.030   0.917   4.489  0.0420  0.4223 -0.2527
  520DG      H511942   0.995   0.800   4.623 -1.1968 -0.3228 -1.4882
  520DG      H611943   1.893   0.936   5.010 -0.0332 -0.1757 -1.7167
  520DG      H711944   1.756   0.864   5.095  1.1551  0.9905 -0.3348
  520DG      H811945   1.814   0.795   4.937  0.2203 -1.6121  0.7402
  520DG      O911946   1.132   0.947   4.673 -0.4989 -0.8199 -0.6648
  520DG     O1011947   1.721   0.986   4.930  0.1433 -0.3027 -0.1788
  520DG     C1111948   1.224   1.032   4.605 -0.5647  0.3365  0.8004
  520DG     C1211949   1.593   0.937   4.903 -0.4397 -0.1393  0.2295
  520DG     H1311950   1.156   1.100   4.554 -2.0928 -0.3187  1.8598
  520DG     H1411951   1.290   0.978   4.538 -0.1275  1.4567  0.3174
  520DG     H1511952   1.546   0.907   4.997  1.1806 -0.7476  0.8839
  520DG     H1611953   1.584   0.844   4.847  0.3219 -0.4333  0.5852
  520DG     C1711954   1.313   1.107   4.709 -0.0069  0.1377  0.1980
  520DG     C1811955   1.503   1.053   4.852  0.4227  0.3711  0.6832
  520DG     O1911956   1.406   1.006   4.758 -0.0100  0.3888 -0.2196
  520DG     H2011957   1.257   1.162   4.785  1.2363  1.8217 -0.0493
  520DG     H2111958   1.371   1.186   4.663  0.0365  0.7094  1.1941
  520DG     H2211959   1.465   1.113   4.934 -0.0254  1.0854 -0.0288
  520DG     H2311960   1.564   1.124   4.796 -1.2726  2.3639  1.2320
  521DG      C111961   4.097   3.360   1.854  0.4112  0.1818  0.2215
  521DG      C211962   4.109   3.773   2.388 -0.9215 -0.2071  1.0625
  521DG      H311963   4.080   3.353   1.746 -3.1327  2.6004  0.4452
  521DG      H411964   4.057   3.274   1.908 -0.4851 -0.1021 -0.8504
  521DG      H511965   4.204   3.358   1.873  0.5542  1.6617 -0.3501
  521DG      H611966   4.066   3.727   2.478 -1.4423 -1.0558  0.3964
  521DG      H711967   4.212   3.739   2.376 -0.4161  1.4784  0.4808
  521DG      H811968   4.117   3.881   2.396  0.5491 -0.1580 -0.5262
  521DG      O911969   4.034   3.475   1.908  0.1954  0.1081  0.1761
  521DG     O1011970   4.041   3.734   2.274  0.0775  0.1150 -0.0070
  521DG     C1111971   3.886   3.473   1.913 -0.3595 -0.6783  0.1898
  521DG     C1211972   3.903   3.778   2.273 -0.1365 -0.4243  0.0377
  521DG     H1311973   3.859   3.384   1.969 -0.0052 -0.1353  1.2668
  521DG     H1411974   3.838   3.457   1.816 -1.3516 -0.1767  0.5783
  521DG     H1511975   3.902   3.885   2.294 -0.8716  0.1140 -2.3881
  521DG     H1611976   3.840   3.738   2.352  0.3568 -3.1072 -0.7984
  521DG     C1711977   3.822   3.593   1.976  0.0588  0.6427  0.8706
  521DG     C1811978   3.845   3.749   2.135 -0.5640 -0.1884  0.2214
  521DG     O1911979   3.883   3.618   2.097 -0.0594  0.1678  0.2962
  521DG     H2011980   3.718   3.568   1.995 -0.2391  1.7129  0.7139
  521DG     H2111981   3.817   3.682   1.913  0.4054  1.3248  1.7913
  521DG     H2211982   3.739   3.771   2.136 -0.5291 -0.0062  1.6543
  521DG     H2311983   3.885   3.821   2.063  0.5621 -0.5015  0.5058
  522DG      C111984   2.767   4.989   2.470 -0.4343  0.4171 -0.8166
  522DG      C211985   3.314   5.654   2.361  0.3202 -0.3768 -0.6304
  522DG      H311986   2.728   4.914   2.538  1.3150  1.1729  1.1301
  522DG      H411987   2.873   4.963   2.462  0.3774  3.0440  0.2014
  522DG      H511988   2.712   4.984   2.376 -1.1905  1.2853 -0.4410
  522DG      H611989   3.414   5.622   2.390 -0.1063 -0.5580  0.6858
  522DG      H711990   3.312   5.660   2.252  0.2655  1.0771 -0.5682
  522DG      H811991   3.296   5.752   2.406 -1.1554 -0.7402 -0.3638
  522DG      O911992   2.755   5.122   2.509 -0.0088  0.0407 -0.0303
  522DG     O1011993   3.218   5.557   2.408  0.2608  0.3819  0.4968
  522DG     C1111994   2.816   5.205   2.424 -0.1395 -0.0409 -0.1499
  522DG     C1211995   3.083   5.596   2.376 -0.1839  0.3017  0.3566
  522DG     H1311996   2.752   5.220   2.336  0.2273 -0.6809 -0.5298
  522DG     H1411997   2.915   5.171   2.395  0.5685  1.8979 -0.1938
  522DG     H1511998   3.062   5.578   2.271  1.1032 -1.1681  0.3101
  522DG     H1611999   3.072   5.700   2.406  3.0742  1.1871 -1.0682
  522DG     C1712000   2.835   5.342   2.487 -0.5680  0.2070  0.2707
  522DG     C1812001   2.986   5.520   2.471  0.2139  0.7060  0.1448
  522DG     O1912002   2.925   5.414   2.407  0.0761  0.3257  0.1107
  522DG     H2012003   2.859   5.328   2.592 -1.9809  0.3992  0.6452
  522DG     H2112004   2.741   5.397   2.497 -0.6613 -0.0303  0.6991
  522DG     H2212005   3.035   5.487   2.562 -1.7280  0.6736  1.2434
  522DG     H2312006   2.910   5.596   2.488 -0.0994  0.2870  0.6561
  523DG      C112007   0.771   1.663   3.367 -0.2186 -0.0167  0.1118
  523DG      C212008   0.557   2.017   2.764 -0.0040  0.0123  0.2246
  523DG      H312009   0.735   1.586   3.299  0.2882 -0.9195  0.8444
  523DG      H412010   0.695   1.670   3.445 -1.3956  2.0261 -1.1246
  523DG      H512011   0.860   1.622   3.414  0.1112  0.4439 -0.1063
  523DG      H612012   0.552   1.935   2.692  0.9832  0.7712 -0.7335
  523DG      H712013   0.460   2.015   2.815 -0.4666  0.2378 -0.6266
  523DG      H812014   0.562   2.113   2.714 -0.6505 -1.0151 -1.9297
  523DG      O912015   0.797   1.786   3.310  0.0107 -0.5355  0.4444
  523DG     O1012016   0.670   2.015   2.847  0.1579 -0.5077  0.6598
  523DG     C1112017   0.886   1.771   3.197  0.6847  0.1124 -0.2409
  523DG     C1212018   0.689   2.120   2.932 -0.3286 -0.2490 -0.0458
  523DG     H1312019   0.849   1.702   3.122 -1.4097  2.6092 -1.6631
  523DG     H1412020   0.980   1.732   3.238  0.4831 -0.7736 -0.6160
  523DG     H1512021   0.606   2.131   3.002 -0.0025  2.1254  0.0288
  523DG     H1612022   0.703   2.212   2.876 -0.2496 -0.0912  0.2293
  523DG     C1712023   0.921   1.906   3.134 -0.4798  0.1981  0.4789
  523DG     C1812024   0.826   2.087   3.014  0.0594 -0.0641 -0.3928
  523DG     O1912025   0.803   1.970   3.087 -0.4492 -0.0086  0.3276
  523DG     H2012026   0.992   1.882   3.054  1.4433  0.1564  2.1204
  523DG     H2112027   0.967   1.966   3.211 -0.6365  1.2390 -0.2219
  523DG     H2212028   0.907   2.066   2.944 -0.4758 -0.7195 -0.8356
  523DG     H2312029   0.851   2.174   3.074 -2.4154 -0.0040  0.6697
  524DG      C112030   1.056   2.701   1.302  0.1873  0.6385  0.2559
  524DG      C212031   1.327   2.136   1.232  0.4888  0.3614 -0.1103
  524DG      H312032   1.034   2.793   1.356 -1.7474  0.5234 -0.2581
  524DG      H412033   0.996   2.618   1.340  1.0829 -0.3581 -0.4587
  524DG      H512034   1.032   2.708   1.196 -0.0538  3.1763  0.4059
  524DG      H612035   1.408   2.064   1.233  0.7288  0.5396 -2.2364
  524DG      H712036   1.252   2.116   1.309  0.3051 -3.4155 -1.0965
  524DG      H812037   1.275   2.121   1.137  1.5982 -1.2134 -0.4906
  524DG      O912038   1.189   2.656   1.298 -0.0877  0.2052  0.1351
  524DG     O1012039   1.373   2.266   1.248 -0.1377 -0.4960  0.3085
  524DG     C1112040   1.279   2.734   1.219  0.4753 -0.0170  1.1040
  524DG     C1212041   1.452   2.300   1.137  0.4313 -0.3533  0.6336
  524DG     H1312042   1.293   2.839   1.242 -0.0740  0.7069 -1.5167
  524DG     H1412043   1.236   2.730   1.119 -2.2105 -1.0001  2.1914
  524DG     H1512044   1.412   2.289   1.036  2.4550 -0.2873 -0.2277
  524DG     H1612045   1.543   2.239   1.139  1.3439  0.9699  1.9496
  524DG     C1712046   1.415   2.673   1.195  0.1352  0.0514  0.0017
  524DG     C1812047   1.501   2.447   1.153  0.0502  0.3934 -0.2780
  524DG     O1912048   1.389   2.540   1.152 -0.4394 -0.0044  0.2530
  524DG     H2012049   1.474   2.672   1.287 -1.3936  1.5283  1.0558
  524DG     H2112050   1.475   2.727   1.122 -0.1328  0.1147 -0.1724
  524DG     H2212051   1.550   2.447   1.250  1.0780 -0.3244 -0.7810
  524DG     H2312052   1.580   2.463   1.080  0.9545  3.0571  1.1834
  525DG      C112053   1.041   3.657   1.693  0.4396  0.3325 -0.1868
  525DG      C212054   1.047   4.181   1.213 -0.3375  0.0469  0.4824
  525DG      H312055   1.128   3.609   1.738  0.9011  0.5733 -0.8011
  525DG      H412056   1.004   3.593   1.613  1.1699 -0.7903  0.3422
  525DG      H512057   0.968   3.671   1.773 -1.9954 -2.5818 -1.7160
  525DG      H612058   1.106   4.272   1.200 -1.8295  1.2052  1.4771
  525DG      H712059   1.096   4.097   1.164  1.6192  0.2885  1.9210
  525DG      H812060   0.939   4.184   1.197 -0.4052 -1.0319  0.6674
  525DG      O912061   1.080   3.786   1.641 -0.2016  0.7471  0.5424
  525DG     O1012062   1.060   4.150   1.350  0.2431  0.2988 -0.1885
  525DG     C1112063   1.146   3.870   1.733  0.3322 -0.3487  0.8211
  525DG     C1212064   1.034   4.255   1.440  0.0793  0.4650  0.0915
  525DG     H1312065   1.249   3.898   1.713 -0.3123  2.7063  1.3503
  525DG     H1412066   1.134   3.852   1.840 -0.5752 -0.1083  0.7626
  525DG     H1512067   0.936   4.297   1.418  0.1197  0.9830  0.8527
  525DG     H1612068   1.109   4.334   1.431  0.9043 -0.0847  1.7029
  525DG     C1712069   1.070   4.010   1.718 -0.7630  0.2943  0.0569
  525DG     C1812070   1.028   4.204   1.586 -0.3038 -0.6139  0.7432
  525DG     O1912071   1.083   4.074   1.589 -0.1328 -0.2015 -0.2748
  525DG     H2012072   1.099   4.069   1.805 -2.7685 -3.6863  3.7706
  525DG     H2112073   0.964   3.990   1.738 -0.6881 -2.0220 -1.4874
  525DG     H2212074   1.078   4.271   1.656 -0.8701  0.5789  0.0447
  525DG     H2312075   0.928   4.215   1.627 -0.7356  2.9945 -0.9366
  526DG      C112076   0.061   2.394   1.990  0.4879 -0.0361  0.3040
  526DG      C212077   0.640   2.188   1.643  0.7284  0.4052 -0.0696
  526DG      H312078   0.077   2.370   1.886  2.1592  3.6545 -0.4594
  526DG      H412079   0.108   2.490   2.013  1.1236 -0.6315  1.6293
  526DG      H512080  -0.047   2.404   2.007  0.2730 -1.4012 -0.1657
  526DG      H612081   0.609   2.166   1.541 -0.5397 -0.8890  0.5607
  526DG      H712082   0.663   2.295   1.640 -1.3823  1.0302  2.3135
  526DG      H812083   0.733   2.138   1.670  0.6770  0.9260  1.1525
  526DG      O912084   0.099   2.300   2.087 -0.1472  0.3568  0.4679
  526DG     O1012085   0.533   2.169   1.740  0.4071 -0.2011 -0.2734
  526DG     C1112086   0.234   2.267   2.077  0.4752  0.4885  0.2326
  526DG     C1212087   0.524   2.031   1.783  0.2335  0.3834 -0.2153
  526DG     H1312088   0.261   2.224   2.173 -1.1405 -0.1399  0.4409
  526DG     H1412089   0.299   2.353   2.064  1.4501  0.0402  1.8618
  526DG     H1512090   0.612   2.024   1.848  0.5422 -0.5878 -0.7133
  526DG     H1612091   0.522   1.960   1.700 -1.6994 -0.5457  0.5566
  526DG     C1712092   0.253   2.173   1.962 -0.4069 -0.0050  0.1722
  526DG     C1812093   0.393   2.020   1.864  0.0241  0.6027 -0.3246
  526DG     O1912094   0.383   2.121   1.964 -0.1106  0.0415 -0.4256
  526DG     H2012095   0.240   2.218   1.863 -0.8182 -1.8457 -0.6535
  526DG     H2112096   0.180   2.092   1.956  1.1766 -1.3788 -1.2194
  526DG     H2212097   0.302   2.012   1.804 -0.8544  1.4928  0.8466
  526DG     H2312098   0.398   1.926   1.919 -1.0040 -0.2887 -1.6843
  527DG      C112099   1.595   3.478   4.360 -0.2066  0.5076 -0.0147
  527DG      C212100   1.021   3.729   4.049  0.3565 -0.5548  0.1716
  527DG      H312101   1.629   3.375   4.348 -1.0940 -0.2010  2.8135
  527DG      H412102   1.619   3.525   4.456  0.3108  0.7991 -0.2834
  527DG      H512103   1.651   3.522   4.278 -0.9158 -1.8035 -1.8547
  527DG      H612104   1.033   3.818   4.110  1.4009  0.1232 -0.9691
  527DG      H712105   1.073   3.746   3.955 -1.4549  2.0600 -0.4708
  527DG      H812106   0.913   3.718   4.036  0.2595 -1.9459  1.7972
  527DG      O912107   1.459   3.475   4.318  0.0887  0.2044 -0.3145
  527DG     O1012108   1.059   3.611   4.110 -0.0693 -0.7476 -0.7093
  527DG     C1112109   1.383   3.394   4.404 -0.2058  0.8221  0.2859
  527DG     C1212110   0.978   3.572   4.221 -0.1738 -0.0454 -0.3628
  527DG     H1312111   1.365   3.447   4.498 -2.1160 -0.6876  0.8198
  527DG     H1412112   1.431   3.299   4.427 -1.8131  0.5656  3.0119
  527DG     H1512113   0.875   3.553   4.189 -1.3832  1.5594  2.2642
  527DG     H1612114   0.965   3.655   4.290 -1.0008  0.5456 -1.1919
  527DG     C1712115   1.254   3.355   4.336 -0.2322 -0.1410  0.2429
  527DG     C1812116   1.046   3.456   4.296  0.3147  0.6150 -0.0765
  527DG     O1912117   1.189   3.476   4.299 -0.2021 -0.0472  0.2877
  527DG     H2012118   1.192   3.281   4.387  2.3731 -1.6130  1.4827
  527DG     H2112119   1.283   3.303   4.245 -2.3061 -3.1002  1.0991
  527DG     H2212120   1.006   3.446   4.397  0.5650  0.7241  0.0345
  527DG     H2312121   1.028   3.365   4.239 -0.2166  0.8810 -0.3440
  528DG      C112122   3.768   1.386   5.431 -0.6836 -1.0210 -0.4341
  528DG      C212123   4.198   0.987   5.148 -0.0622 -1.3500  0.4763
  528DG      H312124   3.706   1.411   5.517  0.3508  1.6092 -0.3649
  528DG      H412125   3.701   1.410   5.349  0.2113 -3.6625 -2.0622
  528DG      H512126   3.860   1.445   5.430 -0.3449 -1.4669  0.9342
  528DG      H612127   4.194   1.018   5.044  0.1096 -0.1190  0.8252
  528DG      H712128   4.265   1.056   5.199 -0.0970 -2.4949  2.1373
  528DG      H812129   4.244   0.888   5.154 -0.2389 -1.4018  0.9878
  528DG      O912130   3.809   1.256   5.411 -0.3080  0.3027  0.0920
  528DG     O1012131   4.079   0.983   5.210  0.1706 -0.0164 -0.1870
  528DG     C1112132   3.695   1.170   5.399 -0.2953  0.8549  0.3225
  528DG     C1212133   3.990   0.878   5.173 -0.2330  1.1975  0.5523
  528DG     H1312134   3.638   1.194   5.310 -0.8994 -0.9536  0.1732
  528DG     H1412135   3.632   1.185   5.487 -1.3832  1.8879 -0.6050
  528DG     H1512136   4.035   0.779   5.184  0.6562  1.5195 -0.0339
  528DG     H1612137   3.956   0.898   5.071  2.2129 -0.4881 -0.7194
  528DG     C1712138   3.728   1.023   5.400  0.1573 -0.4358 -0.2472
  528DG     C1812139   3.874   0.877   5.268  0.0109  0.4545 -0.6627
  528DG     O1912140   3.838   1.009   5.310  0.1455 -0.0136  0.4403
  528DG     H2012141   3.641   0.964   5.372 -0.5450  0.4648  0.0018
  528DG     H2112142   3.774   0.994   5.495  1.0529  2.8101  0.4254
  528DG     H2212143   3.793   0.819   5.224  0.1050 -1.7157  1.8080
  528DG     H2312144   3.906   0.820   5.355  0.6137  0.1398 -1.0811
  529DG      C112145   2.635   2.987   3.648  0.2776 -0.4465  0.1630
  529DG      C212146   2.613   3.770   3.817 -0.1251 -0.0263 -0.5137
  529DG      H312147   2.691   2.940   3.729 -0.6848 -0.0734  1.0705
  529DG      H412148   2.662   2.927   3.561 -0.4862 -0.6717  0.0749
  529DG      H512149   2.527   2.971   3.655 -0.0352 -0.1387 -2.7800
  529DG      H612150   2.683   3.852   3.798  0.3883 -0.0647  1.0725
  529DG      H712151   2.527   3.782   3.752 -0.0455 -1.9260 -1.0198
  529DG      H812152   2.576   3.770   3.919  1.3275 -0.0794  0.0415
  529DG      O912153   2.669   3.124   3.657 -0.7088 -0.6394  0.3949
  529DG     O1012154   2.668   3.644   3.787 -0.8494  0.2898 -0.4845
  529DG     C1112155   2.634   3.200   3.543  0.4485 -0.1182  0.2609
  529DG     C1212156   2.582   3.541   3.831 -0.7174 -0.9473 -0.4812
  529DG     H1312157   2.527   3.211   3.523  0.5624 -1.2914 -1.1540
  529DG     H1412158   2.658   3.160   3.445 -0.6039 -1.4112  0.5055
  529DG     H1512159   2.484   3.575   3.797 -0.6523 -0.9740 -0.6966
  529DG     H1612160   2.580   3.535   3.940 -1.1032  0.4067 -0.4018
  529DG     C1712161   2.697   3.340   3.554 -0.1585  0.3720 -0.4888
  529DG     C1812162   2.622   3.410   3.769 -0.0415  0.0179 -0.3534
  529DG     O1912163   2.616   3.434   3.631 -0.3100  0.0851 -0.2951
  529DG     H2012164   2.699   3.379   3.452 -2.7829  1.1542 -0.3307
  529DG     H2112165   2.799   3.329   3.592 -0.6038  0.1464  0.6934
  529DG     H2212166   2.721   3.379   3.802 -0.9496 -1.8873  0.7930
  529DG     H2312167   2.557   3.327   3.798 -0.4233  0.1219 -0.8951
  530DG      C112168   4.514   0.066   4.611  0.4278 -0.2057  0.2547
  530DG      C212169   3.755   0.084   4.493 -0.2590 -0.0701 -0.0834
  530DG      H312170   4.465   0.105   4.701 -0.3350  1.0203 -0.6569
  530DG      H412171   4.591   0.135   4.577 -0.8987  0.8424 -0.7296
  530DG      H512172   4.554  -0.034   4.624  0.6491  0.1847  3.3555
  530DG      H612173   3.715   0.018   4.570 -1.5307 -0.3009 -0.9172
  530DG      H712174   3.688   0.169   4.489 -1.0971 -0.7037  0.2251
  530DG      H812175   3.746   0.040   4.394  1.9794  1.5031 -1.0608
  530DG      O912176   4.415   0.058   4.512  0.4957 -0.5124 -0.0232
  530DG     O1012177   3.894   0.134   4.495  0.0943  0.0170 -0.0340
  530DG     C1112178   4.297  -0.011   4.558 -0.3489 -0.8662 -0.3520
  530DG     C1212179   3.933   0.213   4.608  0.0073 -0.2859 -0.5849
  530DG     H1312180   4.322  -0.099   4.617 -0.9617 -1.8680 -1.5355
  530DG     H1412181   4.234  -0.052   4.478  0.4023 -2.4093 -0.1982
  530DG     H1512182   3.925   0.148   4.695 -0.5521 -0.1651 -0.5408
  530DG     H1612183   3.867   0.297   4.628  1.7220  1.0351 -0.2520
  530DG     C1712184   4.193   0.076   4.631  0.6434  1.2262 -1.2369
  530DG     C1812185   4.068   0.283   4.597  0.1187  0.1949 -0.4690
  530DG     O1912186   4.170   0.189   4.549  0.4820  0.1012 -0.1816
  530DG     H2012187   4.220   0.117   4.728  1.1502  0.4181 -1.0255
  530DG     H2112188   4.102   0.017   4.639  1.4238  0.1293 -0.0677
  530DG     H2212189   4.053   0.362   4.523  0.6638 -0.9088 -1.8034
  530DG     H2312190   4.097   0.348   4.679 -0.3671  0.4400 -0.4859
  531DG      C112191   3.951   0.493  -0.146 -0.0087  0.7498  0.6209
  531DG      C212192   4.195   0.264   0.396  0.6570 -0.0790 -0.0373
  531DG      H312193   3.888   0.463  -0.230  2.5870 -1.8395 -0.5518
  531DG      H412194   4.027   0.554  -0.196  1.8354 -0.8306  1.3758
  531DG      H512195   3.911   0.560  -0.070  3.1207  2.1129  1.2048
  531DG      H612196   4.091   0.293   0.409  0.4657 -0.9415  0.4111
  531DG      H712197   4.223   0.194   0.474 -0.1895  0.9369  1.2063
  531DG      H812198   4.268   0.345   0.390  0.0544  0.4567 -0.2943
  531DG      O912199   4.019   0.388  -0.083  0.5857  0.5643  0.1236
  531DG     O1012200   4.197   0.198   0.270 -0.1582  0.3719 -0.0228
  531DG     C1112201   4.121   0.325  -0.165 -0.0910  0.2456 -0.3795
  531DG     C1212202   4.307   0.117   0.229 -0.0372 -0.9098 -0.8489
  531DG     H1312203   4.199   0.401  -0.164 -0.5573  0.7828 -1.9121
  531DG     H1412204   4.083   0.302  -0.265  0.2075 -1.6510 -0.0951
  531DG     H1512205   4.319   0.028   0.291  2.4313  0.0782  0.2149
  531DG     H1612206   4.399   0.174   0.239 -0.2726 -0.4923 -1.0598
  531DG     C1712207   4.172   0.192  -0.103  0.2545 -0.0395  0.4083
  531DG     C1812208   4.281   0.090   0.082  0.5135 -0.3940  0.6012
  531DG     O1912209   4.255   0.213   0.012 -0.1431 -0.0410 -0.1429
  531DG     H2012210   4.218   0.127  -0.178 -1.6039 -2.0079  0.8646
  531DG     H2112211   4.083   0.138  -0.069 -0.4482  0.7422 -0.1516
  531DG     H2212212   4.363   0.036   0.034  0.4861  0.0525  0.0486
  531DG     H2312213   4.190   0.029   0.077 -0.5196  1.1360  0.0151
  532DG      C112214   1.439   3.851   2.028 -0.0980 -0.0489 -0.0300
  532DG      C212215   1.189   3.277   2.061 -0.7152 -0.0558 -0.1668
  532DG      H312216   1.347   3.859   2.087 -0.8376  0.3805 -1.2208
  532DG      H412217   1.438   3.888   1.926  2.5282 -0.6234 -0.3300
  532DG      H512218   1.514   3.911   2.078  0.4832 -0.2543 -0.6509
  532DG      H612219   1.113   3.256   2.137  0.5132  0.0125  1.1207
  532DG      H712220   1.251   3.352   2.109 -2.2065  1.1719 -0.0589
  532DG      H812221   1.141   3.316   1.971 -0.2216  1.9280  0.3823
  532DG      O912222   1.492   3.725   2.035  0.6398  0.0710 -0.1754
  532DG     O1012223   1.258   3.158   2.033 -0.0847  0.2879 -0.1815
  532DG     C1112224   1.410   3.624   1.975  0.0373 -0.4250  0.4291
  532DG     C1212225   1.332   3.169   1.910 -0.2612  0.1395  0.4228
  532DG     H1312226   1.375   3.648   1.874 -1.6889 -0.8354  0.9032
  532DG     H1412227   1.326   3.599   2.039 -0.9990  0.3452 -0.5875
  532DG     H1512228   1.269   3.193   1.825  0.5114  2.5083  0.4257
  532DG     H1612229   1.369   3.072   1.876  1.1833  1.2562 -1.3934
  532DG     C1712230   1.494   3.497   1.971 -0.4090 -0.1506  0.4228
  532DG     C1812231   1.454   3.261   1.930 -0.0648  0.1981  1.0565
  532DG     O1912232   1.399   3.395   1.928  0.2859  0.3409 -0.0827
  532DG     H2012233   1.536   3.469   2.068 -1.2642  0.8383  1.0979
  532DG     H2112234   1.576   3.507   1.900 -1.4340  0.7616 -0.6576
  532DG     H2212235   1.508   3.238   2.022  0.5870 -0.0283  0.6272
  532DG     H2312236   1.534   3.256   1.856 -0.1484 -1.3817  1.0321
  533DG      C112237   3.400   3.174   4.931  0.9572 -0.1715  0.2262
  533DG      C212238   3.895   3.339   5.352  0.2974 -0.1678  0.0329
  533DG      H312239   3.461   3.161   4.841  1.4681 -1.4352  0.7309
  533DG      H412240   3.369   3.278   4.931 -1.7891 -0.9233 -0.8292
  533DG      H512241   3.315   3.107   4.924  0.1342  0.7004  1.5069
  533DG      H612242   3.926   3.384   5.257 -2.1377  1.8048  0.0461
  533DG      H712243   3.832   3.411   5.406 -0.3347  0.1480 -1.0824
  533DG      H812244   3.978   3.301   5.411  0.8397 -0.7392 -1.0748
  533DG      O912245   3.456   3.118   5.046 -0.2765  0.2931 -0.0955
  533DG     O1012246   3.803   3.226   5.335 -0.6175 -0.2367 -0.4330
  533DG     C1112247   3.507   2.989   5.033 -0.1927 -0.5912  0.8988
  533DG     C1212248   3.871   3.117   5.280 -0.5086  1.0296  0.9641
  533DG     H1312249   3.578   2.975   4.951  0.3775  3.0087  0.6080
  533DG     H1412250   3.426   2.918   5.017 -0.4248  0.1900 -1.8239
  533DG     H1512251   3.953   3.085   5.343  0.5049  1.5256 -0.0550
  533DG     H1612252   3.910   3.152   5.184  1.6126 -0.3614  1.2694
  533DG     C1712253   3.570   2.949   5.161  0.0202 -0.3552 -0.2039
  533DG     C1812254   3.777   2.997   5.258 -0.0503  0.0702  0.1450
  533DG     O1912255   3.666   3.043   5.185 -0.2360  0.4805 -1.0779
  533DG     H2012256   3.609   2.847   5.161 -0.7112 -0.6606 -1.9836
  533DG     H2112257   3.495   2.953   5.241  0.5884 -2.2011  0.4711
  533DG     H2212258   3.815   2.905   5.214  0.0215 -0.1726  0.7010
  533DG     H2312259   3.735   2.963   5.353 -2.3316  3.2885  0.4456
  534DG      C112260   3.972   4.348   1.881 -0.1407 -0.2428 -0.5330
  534DG      C212261   4.428   4.514   2.380 -0.8967  0.0339  0.3428
  534DG      H312262   4.010   4.275   1.809  0.8212  0.1143 -0.4059
  534DG      H412263   4.004   4.441   1.833 -0.5872 -0.1262 -0.6014
  534DG      H512264   3.865   4.351   1.901 -0.0301  2.3343  0.0211
  534DG      H612265   4.414   4.530   2.486  0.2855  0.5323  0.4383
  534DG      H712266   4.530   4.477   2.368 -1.0798 -0.8425  1.3922
  534DG      H812267   4.399   4.607   2.332 -1.6094  0.5106  1.6552
  534DG      O912268   4.030   4.320   2.002 -0.2410 -0.4716 -0.2833
  534DG     O1012269   4.331   4.422   2.321 -0.5537  0.7126 -0.3332
  534DG     C1112270   4.002   4.182   2.044  0.0208 -0.1015  0.8003
  534DG     C1212271   4.347   4.287   2.371 -0.6623 -0.1160  0.4416
  534DG     H1312272   4.066   4.119   1.983  1.2361  0.8052  1.1069
  534DG     H1412273   3.901   4.153   2.015  0.5954 -0.7862 -0.5861
  534DG     H1512274   4.368   4.289   2.478 -1.3900  0.1518  0.5865
  534DG     H1612275   4.433   4.242   2.322  0.2140  0.1992  1.6715
  534DG     C1712276   4.040   4.170   2.188 -1.0460  0.1201  0.4671
  534DG     C1812277   4.229   4.202   2.337  0.3605  0.6586  0.3033
  534DG     O1912278   4.168   4.230   2.209 -0.1614  0.1585 -0.1591
  534DG     H2012279   4.037   4.064   2.216 -0.1201  0.2447  1.0518
  534DG     H2112280   3.970   4.215   2.258 -3.1594 -0.7165 -1.0006
  534DG     H2212281   4.254   4.096   2.346 -0.5361  0.4650  0.6335
  534DG     H2312282   4.159   4.243   2.410  1.5925  1.5694  1.0212
  535DG      C112283   1.550   4.114   4.781 -0.6967 -0.5727 -0.6489
  535DG      C212284   1.585   3.302   4.825  0.0254  0.1564 -0.1776
  535DG      H312285   1.511   4.117   4.883  1.0352  0.2765  0.0296
  535DG      H412286   1.462   4.093   4.720 -2.0417  3.4122 -0.4001
  535DG      H512287   1.586   4.215   4.761 -0.7094 -0.1883  1.0931
  535DG      H612288   1.691   3.278   4.818 -0.1656 -0.8400  0.2148
  535DG      H712289   1.529   3.222   4.874 -1.7096  0.7633 -1.1048
  535DG      H812290   1.519   3.310   4.740 -0.1533  2.8549  0.1336
  535DG      O912291   1.649   4.013   4.759  0.0165 -0.7717  0.4859
  535DG     O1012292   1.564   3.420   4.902  0.3631  0.3267 -0.3157
  535DG     C1112293   1.723   3.990   4.879  0.1448  0.0098  0.5046
  535DG     C1212294   1.583   3.539   4.831  0.0512 -0.6602  0.1166
  535DG     H1312295   1.738   4.082   4.935  2.1367 -0.9545  1.6468
  535DG     H1412296   1.826   3.967   4.852  0.1329 -1.1317  1.3675
  535DG     H1512297   1.507   3.552   4.754 -1.6953 -0.3939  1.8073
  535DG     H1612298   1.685   3.537   4.793 -0.1392 -0.1874 -0.4443
  535DG     C1712299   1.666   3.877   4.960 -0.1955  0.2766  0.2734
  535DG     C1812300   1.589   3.659   4.925  0.6442  0.3082  0.1646
  535DG     O1912301   1.647   3.774   4.863 -0.2418 -0.2345  0.0553
  535DG     H2012302   1.570   3.901   5.006  0.1759 -0.7332  1.6526
  535DG     H2112303   1.736   3.850   5.039  1.5887  2.5259 -0.4306
  535DG     H2212304   1.485   3.680   4.950  0.1997  0.3475 -1.6007
  535DG     H2312305   1.648   3.637   5.014  3.2182  0.2445 -1.4525
  536DG      C112306   1.895   2.970   4.087 -0.2384  0.3040 -0.5127
  536DG      C212307   2.096   2.405   3.944  0.6685 -0.0534 -0.4508
  536DG      H312308   1.795   3.010   4.103 -0.2437  0.3791 -0.7291
  536DG      H412309   1.910   2.990   3.981 -0.2244  1.4283 -0.3115
  536DG      H512310   1.971   3.029   4.138 -1.7578  0.0164  2.2792
  536DG      H612311   2.087   2.308   3.894  0.3845 -0.5894  0.6081
  536DG      H712312   2.152   2.472   3.879  2.5525 -1.1000  0.0101
  536DG      H812313   2.135   2.385   4.044  0.3793  3.2662  0.4388
  536DG      O912314   1.910   2.835   4.123  0.4979  0.5170  0.1397
  536DG     O1012315   1.957   2.451   3.952 -0.1159  0.2193 -0.0455
  536DG     C1112316   1.842   2.800   4.241 -0.4750 -0.2633  0.4454
  536DG     C1212317   1.888   2.372   4.051  0.4844  0.5948 -0.5044
  536DG     H1312318   1.738   2.806   4.209  0.1649  3.4844 -1.5658
  536DG     H1412319   1.854   2.869   4.324  0.0819 -0.3557  0.4450
  536DG     H1512320   1.929   2.276   4.083 -1.3985 -0.2985 -0.6426
  536DG     H1612321   1.783   2.372   4.024  0.6696  0.2981 -1.2399
  536DG     C1712322   1.879   2.655   4.284  0.2986  0.6138  0.1402
  536DG     C1812323   1.889   2.440   4.187  0.3951  0.7130  0.1167
  536DG     O1912324   1.877   2.579   4.164  0.1802 -0.0783 -0.2752
  536DG     H2012325   1.809   2.630   4.363  2.0693  0.3995  1.7184
  536DG     H2112326   1.976   2.662   4.334 -0.3861  0.0844  1.5932
  536DG     H2212327   1.819   2.402   4.261  1.3492 -0.6819  0.3261
  536DG     H2312328   1.983   2.425   4.240 -0.3710  0.6692  1.5127
  537DG      C112329  -0.327   4.206   0.471  0.0843  0.3872  0.8027
  537DG      C212330   0.357   3.910   0.620  0.0611  0.5712 -0.6372
  537DG      H312331  -0.358   4.107   0.503  2.3920 -1.3271 -1.7720
  537DG      H412332  -0.408   4.246   0.411 -0.6605 -1.3471  0.6027
  537DG      H512333  -0.306   4.260   0.563  0.0986 -1.3624  1.8558
  537DG      H612334   0.275   3.845   0.652  2.3945 -1.7105  1.2688
  537DG      H712335   0.416   3.828   0.579 -2.4713 -1.8525  0.1930
  537DG      H812336   0.414   3.956   0.701 -0.8813  0.1595  0.3018
  537DG      O912337  -0.203   4.177   0.410 -0.1534 -0.2780  0.4812
  537DG     O1012338   0.311   4.002   0.532  0.1454 -0.0844  0.4145
  537DG     C1112339  -0.104   4.282   0.394 -0.2366  0.0105 -0.1231
  537DG     C1212340   0.245   3.944   0.422  0.5184  0.5967  1.1926
  537DG     H1312341  -0.078   4.323   0.492 -0.4037  0.3940 -0.2361
  537DG     H1412342  -0.153   4.362   0.339 -3.1494 -0.1464  1.9712
  537DG     H1512343   0.159   3.882   0.446 -1.0480  1.2109 -2.3259
  537DG     H1612344   0.316   3.892   0.357 -0.4430 -0.8089  1.2295
  537DG     C1712345   0.021   4.225   0.333  0.2258 -0.1482  0.6572
  537DG     C1812346   0.179   4.050   0.339  0.5152 -0.6176 -0.4950
  537DG     O1912347   0.070   4.114   0.408  0.4063  0.2665  0.3978
  537DG     H2012348   0.099   4.302   0.328  0.1697 -0.0729  0.9228
  537DG     H2112349  -0.002   4.186   0.234  1.7511 -2.1463  1.0212
  537DG     H2212350   0.257   4.121   0.312  0.2646 -1.5234 -4.0380
  537DG     H2312351   0.153   3.999   0.246  2.4463 -1.6222 -0.5439
  538DG      C112352   3.462   2.771   2.029 -0.4316 -0.0338  0.4436
  538DG      C212353   3.020   2.920   2.420  0.2627  0.4256 -0.2428
  538DG      H312354   3.386   2.708   2.075 -1.1028 -0.2337 -0.8826
  538DG      H412355   3.551   2.716   1.996  0.5516  0.8752  1.4849
  538DG      H512356   3.414   2.818   1.944  1.2828  0.2941 -0.3903
  538DG      H612357   2.982   3.021   2.434 -0.7632  0.2573 -1.5650
  538DG      H712358   2.975   2.880   2.328 -0.8722  1.7950 -0.3181
  538DG      H812359   2.982   2.855   2.498 -0.4910  2.3025  1.0251
  538DG      O912360   3.508   2.867   2.109 -0.0200 -0.3840 -0.2000
  538DG     O1012361   3.161   2.920   2.403  0.0887  0.8162  0.1198
  538DG     C1112362   3.553   2.828   2.234 -0.1185  0.4305  0.7849
  538DG     C1212363   3.238   2.941   2.518  0.1139 -0.7260  0.7586
  538DG     H1312364   3.645   2.771   2.235 -0.9240 -0.9336  0.2829
  538DG     H1412365   3.494   2.751   2.283  0.0339  2.3411  4.2463
  538DG     H1512366   3.207   2.882   2.605 -1.3722 -0.6173  0.3250
  538DG     H1612367   3.242   3.046   2.547  0.3425 -0.7609  0.8562
  538DG     C1712368   3.553   2.940   2.331  0.7198 -0.4156 -0.3676
  538DG     C1812369   3.377   2.905   2.490  1.1487  0.1861 -0.1124
  538DG     O1912370   3.425   2.983   2.379  0.3779 -0.6643 -0.0368
  538DG     H2012371   3.594   3.029   2.283 -5.2468  1.3427 -3.2189
  538DG     H2112372   3.612   2.911   2.418 -1.0095 -0.3915  0.8692
  538DG     H2212373   3.434   2.935   2.578  0.7046  0.6116  0.0374
  538DG     H2312374   3.384   2.798   2.471  0.5093  0.0100  0.5769
  539DG      C112375   0.292   3.137   1.880  0.3029  1.2507  0.1765
  539DG      C212376   0.292   2.488   1.644  0.0228  0.2169  0.0395
  539DG      H312377   0.192   3.109   1.912  0.7337 -1.6324 -0.7730
  539DG      H412378   0.309   3.239   1.844  2.8650  0.0258 -2.5595
  539DG      H512379   0.370   3.122   1.955  0.8023 -0.7493 -0.6822
  539DG      H612380   0.315   2.492   1.751  0.8668  2.8113 -0.1884
  539DG      H712381   0.185   2.476   1.629  0.2866 -1.3715 -0.8496
  539DG      H812382   0.344   2.404   1.598  1.0021  0.6986  0.2305
  539DG      O912383   0.321   3.051   1.764  0.3830 -0.0399 -0.1732
  539DG     O1012384   0.346   2.610   1.604  0.1576  0.1874  0.4695
  539DG     C1112385   0.241   3.084   1.655 -0.3130  0.1202  1.2353
  539DG     C1212386   0.301   2.649   1.480 -0.8980  0.0059  0.1806
  539DG     H1312387   0.234   3.187   1.622 -3.1660 -0.4801 -0.3460
  539DG     H1412388   0.137   3.060   1.674 -0.4778  1.9331  2.9447
  539DG     H1512389   0.192   2.636   1.476 -0.7323 -1.5645 -0.0878
  539DG     H1612390   0.343   2.589   1.399 -0.5540  1.8628 -1.0904
  539DG     C1712391   0.301   3.009   1.538 -0.1894  0.0213 -0.1514
  539DG     C1812392   0.354   2.790   1.460  0.2093  0.2897  0.2281
  539DG     O1912393   0.309   2.867   1.569  0.2315  0.3538  0.5235
  539DG     H2012394   0.403   3.046   1.530 -1.1764  3.2652  0.6521
  539DG     H2112395   0.247   3.028   1.445 -0.8064  1.1476  0.4053
  539DG     H2212396   0.462   2.796   1.446  0.4596  1.6692  2.3007
  539DG     H2312397   0.313   2.827   1.366  0.3831 -0.2581 -0.0639
  540DG      C112398   4.162   3.237   4.097 -0.7355 -0.6391  0.7339
  540DG      C212399   4.302   2.703   4.370  0.4774 -0.0257  0.0911
  540DG      H312400   4.180   3.148   4.036  2.6872 -0.2126  0.8835
  540DG      H412401   4.257   3.291   4.092 -0.4476 -1.1473  0.5341
  540DG      H512402   4.088   3.291   4.039  1.4744  1.1631 -0.6054
  540DG      H612403   4.259   2.610   4.406 -0.4679  1.3946  3.0527
  540DG      H712404   4.362   2.673   4.285 -2.9615 -1.4727 -2.0338
  540DG      H812405   4.359   2.750   4.451  0.4312  0.9149 -0.4011
  540DG      O912406   4.136   3.205   4.230 -0.5423  0.0681  0.8532
  540DG     O1012407   4.199   2.804   4.335 -0.3019  0.2250  0.2163
  540DG     C1112408   4.004   3.205   4.268  1.3643  0.4050 -0.3662
  540DG     C1212409   4.093   2.797   4.425  0.9762 -0.2330  0.1991
  540DG     H1312410   3.931   3.150   4.208  0.2177  0.9917  0.4566
  540DG     H1412411   3.962   3.305   4.264 -1.7493 -0.8254 -1.9595
  540DG     H1512412   4.122   2.791   4.530  1.0660 -3.2551  0.0908
  540DG     H1612413   4.033   2.708   4.406  0.5405  0.1824 -0.4076
  540DG     C1712414   3.992   3.155   4.416  0.2247 -0.1442 -0.1972
  540DG     C1812415   3.991   2.914   4.413  0.6764  0.0151 -0.0067
  540DG     O1912416   4.059   3.032   4.433  0.4297 -0.1333  0.0033
  540DG     H2012417   3.886   3.156   4.443  0.3304  2.5707  0.4609
  540DG     H2112418   4.033   3.237   4.475 -0.0590  1.1922 -1.7492
  540DG     H2212419   3.931   2.912   4.322 -0.3294 -0.1424  0.6389
  540DG     H2312420   3.918   2.904   4.493  1.1787 -1.4235  0.2976
  541DG      C112421   3.852   3.410   3.953  0.1016 -0.1132  0.2075
  541DG      C212422   3.477   3.759   4.375 -0.1867 -0.2265 -0.0722
  541DG      H312423   3.945   3.452   3.990 -0.1616  1.5102 -0.8784
  541DG      H412424   3.865   3.382   3.848 -0.0787  0.7636 -0.0586
  541DG      H512425   3.827   3.323   4.014 -1.7329  0.0210 -0.2899
  541DG      H612426   3.539   3.830   4.429 -1.6164  1.6178 -0.7370
  541DG      H712427   3.375   3.791   4.393  0.1109  0.7259  0.0037
  541DG      H812428   3.499   3.664   4.423  0.7351 -0.5887 -1.1609
  541DG      O912429   3.760   3.521   3.957  0.0946  0.2048 -0.2025
  541DG     O1012430   3.513   3.760   4.238 -0.0173  0.2097  0.2261
  541DG     C1112431   3.808   3.630   3.883 -0.6146 -0.0684  0.0943
  541DG     C1212432   3.529   3.885   4.178 -0.4958  0.1562  0.4404
  541DG     H1312433   3.827   3.608   3.777  1.7491 -1.2656  0.6988
  541DG     H1412434   3.903   3.659   3.927 -1.4688  0.5430  1.6079
  541DG     H1512435   3.611   3.928   4.237 -1.3519 -0.9869  2.5941
  541DG     H1612436   3.442   3.951   4.180 -0.1099  0.7950 -1.6450
  541DG     C1712437   3.711   3.750   3.892 -0.2313 -0.0750  0.9733
  541DG     C1812438   3.559   3.873   4.031  0.0716 -0.8845 -0.7680
  541DG     O1912439   3.658   3.772   4.020 -0.4242  0.4643  0.2557
  541DG     H2012440   3.638   3.720   3.817 -0.0716 -0.6134  1.0264
  541DG     H2112441   3.775   3.834   3.865  2.6021 -1.4555  2.9155
  541DG     H2212442   3.467   3.859   3.975  1.0036 -0.2646 -2.5555
  541DG     H2312443   3.601   3.969   4.000  3.2885 -1.3881  1.4686
  542DG      C112444   3.079   3.481   4.031 -0.5084 -0.0626 -0.0861
  542DG      C212445   2.980   3.744   4.626  0.0537  0.0706  0.1108
  542DG      H312446   2.976   3.509   4.053 -0.6744 -1.7647  1.6453
  542DG      H412447   3.075   3.414   3.944  0.2984  1.1896 -1.1094
  542DG      H512448   3.134   3.567   3.994 -1.9446 -0.1719 -2.7417
  542DG      H612449   2.886   3.788   4.591  1.1548  1.5372 -1.1325
  542DG      H712450   2.957   3.697   4.722  1.6565 -2.2888 -0.5610
  542DG      H812451   3.039   3.834   4.643  1.1706 -0.8862  1.5437
  542DG      O912452   3.148   3.436   4.147 -0.2043  0.8572  0.5099
  542DG     O1012453   3.025   3.642   4.540 -0.2650 -0.1008 -0.1859
  542DG     C1112454   3.077   3.328   4.213  0.0540 -0.1219  0.2600
  542DG     C1212455   3.160   3.610   4.553  0.1269 -0.2172  0.0739
  542DG     H1312456   3.073   3.238   4.152  1.9407 -1.6741  2.2555
  542DG     H1412457   2.975   3.361   4.233  0.6061  1.3046  0.8637
  542DG     H1512458   3.165   3.575   4.656  0.9421 -2.9663 -0.8101
  542DG     H1612459   3.224   3.697   4.540  0.8594 -0.8489 -0.6509
  542DG     C1712460   3.133   3.288   4.349 -0.8790  0.4487 -0.1098
  542DG     C1812461   3.208   3.502   4.456 -0.5624  0.3048 -0.3274
  542DG     O1912462   3.111   3.397   4.445  0.3897 -0.0012  0.0404
  542DG     H2012463   3.237   3.254   4.349 -1.3797 -1.1518 -0.4842
  542DG     H2112464   3.081   3.202   4.392 -2.7235  1.1699 -0.7977
  542DG     H2212465   3.213   3.547   4.357 -2.5149  1.8761  0.2060
  542DG     H2312466   3.307   3.467   4.483 -0.3805  1.1027  0.0776
  543DG      C112467   0.392   3.409   3.786  0.4780 -0.3804  0.0196
  543DG      C212468   0.290   4.037   3.284  0.0692 -0.3838 -0.4852
  543DG      H312469   0.326   3.353   3.851  1.3077  1.0822  2.2448
  543DG      H412470   0.434   3.482   3.855  2.7833 -1.8924  0.3364
  543DG      H512471   0.468   3.339   3.749  1.6231  0.6107  0.4121
  543DG      H612472   0.307   4.131   3.338 -3.0311 -0.9512  1.7251
  543DG      H712473   0.371   4.017   3.214  0.9027  3.3420 -0.7912
  543DG      H812474   0.211   4.055   3.211 -0.8339  0.0395  0.5649
  543DG      O912475   0.324   3.478   3.684 -0.3021  0.2681 -0.4601
  543DG     O1012476   0.265   3.924   3.364  0.1737 -0.4974 -0.8785
  543DG     C1112477   0.211   3.542   3.731 -0.0223 -0.0545  0.3024
  543DG     C1212478   0.136   3.922   3.425  0.1960  0.9560  0.1190
  543DG     H1312479   0.245   3.614   3.804 -0.4829 -0.5879  1.0588
  543DG     H1412480   0.142   3.480   3.788 -2.4618  0.6946 -1.6319
  543DG     H1512481   0.067   3.966   3.353 -1.1685  1.7852  1.8636
  543DG     H1612482   0.127   3.984   3.514  1.1630 -0.7869  1.4878
  543DG     C1712483   0.125   3.607   3.615  0.1408 -0.1709  0.4953
  543DG     C1812484   0.086   3.778   3.466  0.5512 -0.4419  0.4459
  543DG     O1912485   0.179   3.728   3.561  0.3809 -0.5379  0.1115
  543DG     H2012486   0.032   3.633   3.664  0.0134  0.9775 -0.3300
  543DG     H2112487   0.109   3.529   3.540 -1.0187 -0.7647  1.3284
  543DG     H2212488  -0.016   3.782   3.503  0.3837 -0.1230 -0.0514
  543DG     H2312489   0.092   3.726   3.371  0.9557 -0.4514  0.4735
  544DG      C112490   3.779   1.613   3.157 -0.3181  0.2011  0.5391
  544DG      C212491   3.779   0.958   3.231 -0.0779  0.3524 -0.4952
  544DG      H312492   3.677   1.605   3.119 -1.0456  4.3845  1.0559
  544DG      H412493   3.848   1.648   3.081 -0.6943  0.3892  0.2777
  544DG      H512494   3.779   1.705   3.216  1.9958  0.9429 -0.5036
  544DG      H612495   3.811   0.944   3.127  2.4849 -0.0942  0.2800
  544DG      H712496   3.789   0.866   3.288  1.1838  0.3371 -0.7143
  544DG      H812497   3.674   0.983   3.215  0.1291  1.4552 -0.1866
  544DG      O912498   3.818   1.490   3.215 -0.4946  0.1619  0.1276
  544DG     O1012499   3.832   1.064   3.294  0.2317 -0.5655  0.3783
  544DG     C1112500   3.946   1.507   3.276  0.1281 -0.1674 -0.4011
  544DG     C1212501   3.964   1.037   3.349  0.3690  0.0727 -0.2032
  544DG     H1312502   3.963   1.609   3.312 -0.7020 -0.6278  1.4124
  544DG     H1412503   4.028   1.495   3.206  0.6967  1.2492 -0.0196
  544DG     H1512504   4.035   1.015   3.270 -0.0443  0.2954 -0.6443
  544DG     H1612505   3.967   0.963   3.429 -0.2109 -1.5900 -1.6417
  544DG     C1712506   3.976   1.410   3.380 -0.2288  0.1078  0.3009
  544DG     C1812507   4.001   1.168   3.418 -0.2836  0.5797 -0.2672
  544DG     O1912508   3.979   1.280   3.322  0.4135  0.3070 -0.2415
  544DG     H2012509   3.905   1.416   3.463 -1.6079  0.8194 -0.8772
  544DG     H2112510   4.079   1.428   3.411  0.1015  0.2457 -0.8395
  544DG     H2212511   3.936   1.174   3.505 -0.7526 -1.2883 -0.4611
  544DG     H2312512   4.100   1.156   3.462 -0.6275 -2.8488 -0.1743
  545DG      C112513   4.112   1.170   0.511  0.2164  0.0383 -0.0369
  545DG      C212514   4.687   0.805   0.554  0.4735  0.1235 -0.4919
  545DG      H312515   4.037   1.124   0.447 -0.6951  0.3638  0.7752
  545DG      H412516   4.185   1.238   0.468  1.0411  0.2608  1.5953
  545DG      H512517   4.060   1.225   0.589 -0.8807  0.5675 -1.1174
  545DG      H612518   4.755   0.756   0.623 -0.1293  0.3304  0.2608
  545DG      H712519   4.660   0.753   0.462  1.0181  0.6711 -0.9727
  545DG      H812520   4.723   0.903   0.523 -1.7203  1.5077  1.0053
  545DG      O912521   4.189   1.073   0.579  0.1657 -0.0453  0.0685
  545DG     O1012522   4.568   0.839   0.621  0.0473  0.0551 -0.6571
  545DG     C1112523   4.101   0.982   0.642  0.0376 -0.5259  0.7288
  545DG     C1212524   4.514   0.738   0.701  0.4810  0.2295 -0.3195
  545DG     H1312525   4.061   0.918   0.564  1.6586  0.9188 -1.4118
  545DG     H1412526   4.014   1.032   0.683 -0.3519 -0.5734 -0.0253
  545DG     H1512527   4.585   0.700   0.775  0.6133  2.0670  0.5405
  545DG     H1612528   4.476   0.655   0.642 -5.4544  1.0251  1.6406
  545DG     C1712529   4.175   0.897   0.748  0.2025 -0.2004 -0.5778
  545DG     C1812530   4.396   0.794   0.783 -0.9661 -0.3582 -0.8253
  545DG     O1912531   4.285   0.824   0.693 -0.0054 -0.3835 -0.4442
  545DG     H2012532   4.104   0.832   0.799  0.2585  1.8190  2.2977
  545DG     H2112533   4.216   0.982   0.803 -0.2969  0.1787 -0.7870
  545DG     H2212534   4.357   0.724   0.856  0.1994  1.0147  1.2147
  545DG     H2312535   4.433   0.879   0.841  0.1695 -0.7281 -0.9720
  546DG      C112536   3.190   4.420   1.326 -0.3557  0.8248  0.5471
  546DG      C212537   2.976   4.400   0.696  0.2036 -0.0657  0.7532
  546DG      H312538   3.213   4.326   1.378  1.6899  1.1837  0.3778
  546DG      H412539   3.089   4.453   1.350 -0.2444  1.3890  0.2468
  546DG      H512540   3.252   4.482   1.391  1.3193  0.9797 -1.1379
  546DG      H612541   2.940   4.322   0.628 -1.9767 -1.0600  2.8656
  546DG      H712542   2.883   4.400   0.754 -0.4167  0.0977 -0.2195
  546DG      H812543   2.979   4.492   0.638  3.3010  1.0941  2.5488
  546DG      O912544   3.229   4.429   1.191 -0.3977  0.1494 -0.4145
  546DG     O1012545   3.086   4.371   0.779 -0.0177  0.1160 -0.0508
  546DG     C1112546   3.365   4.397   1.168 -0.0621 -0.5127  0.6827
  546DG     C1212547   3.212   4.358   0.714  0.6182  0.0710 -0.2662
  546DG     H1312548   3.384   4.292   1.188 -2.1807 -1.0265  0.2875
  546DG     H1412549   3.432   4.447   1.237 -0.1748 -0.8777  1.0593
  546DG     H1512550   3.212   4.422   0.626  1.9691 -1.0642 -1.1528
  546DG     H1612551   3.231   4.253   0.692 -0.4805 -0.3377  0.6230
  546DG     C1712552   3.386   4.441   1.026  0.4913 -0.2573  0.0356
  546DG     C1812553   3.330   4.404   0.800 -0.3117 -0.0789  0.3563
  546DG     O1912554   3.299   4.371   0.931  0.5487 -0.1572 -0.0578
  546DG     H2012555   3.488   4.406   1.008 -0.0573 -1.1887 -1.4567
  546DG     H2112556   3.386   4.549   1.011 -1.3096 -0.4385 -1.7320
  546DG     H2212557   3.431   4.369   0.779 -0.4410 -1.0853  1.3081
  546DG     H2312558   3.342   4.512   0.795  0.6630 -0.1867  0.2986
  547DG      C112559   2.486   2.266   2.588  0.7873 -0.4142  0.2881
  547DG      C212560   3.209   2.535   2.440  0.6441  0.2188 -0.2556
  547DG      H312561   2.378   2.261   2.589  0.8083 -1.0092  0.1348
  547DG      H412562   2.515   2.295   2.689  0.2628  3.3380 -0.4924
  547DG      H512563   2.519   2.162   2.585  1.0934 -0.3395  0.9735
  547DG      H612564   3.259   2.594   2.516  0.0200 -1.0418  1.1844
  547DG      H712565   3.223   2.431   2.470 -0.0221  0.5416  1.2541
  547DG      H812566   3.263   2.544   2.346  0.8954  2.1241  0.0419
  547DG      O912567   2.548   2.336   2.481  0.2226  0.0878 -0.4970
  547DG     O1012568   3.071   2.586   2.438  0.2748  0.2494  0.1500
  547DG     C1112569   2.528   2.472   2.510 -0.5299 -0.3192  0.1181
  547DG     C1212570   2.993   2.532   2.328  0.0393  0.3714  0.6436
  547DG     H1312571   2.542   2.504   2.613 -1.1274  3.3235 -0.7578
  547DG     H1412572   2.427   2.508   2.488 -0.6088 -0.2616  0.5647
  547DG     H1512573   3.005   2.425   2.320 -3.8019 -0.2500  1.2253
  547DG     H1612574   3.038   2.573   2.238 -2.0105  0.9170 -0.1824
  547DG     C1712575   2.624   2.558   2.426 -0.2846  0.4020 -0.2938
  547DG     C1812576   2.844   2.579   2.331  0.2889  0.2020 -0.2212
  547DG     O1912577   2.760   2.525   2.438 -0.3516  0.1324  0.1089
  547DG     H2012578   2.618   2.664   2.452 -1.4095  0.0381  1.0678
  547DG     H2112579   2.597   2.545   2.321 -1.9151  0.3529  0.1048
  547DG     H2212580   2.836   2.686   2.346  0.1459  0.0479  0.8602
  547DG     H2312581   2.791   2.551   2.240 -0.8187 -0.1363  0.5013
  548DG      C112582   2.113   0.395   3.930 -0.0727 -0.3451 -0.2033
  548DG      C212583   2.484   0.030   3.299  0.3001 -0.5173 -0.3543
  548DG      H312584   2.187   0.438   3.997  0.1188  1.0564 -1.2687
  548DG      H412585   2.074   0.303   3.973  0.9864 -0.4233  0.6175
  548DG      H512586   2.033   0.468   3.925  2.2548  2.4108  0.0729
  548DG      H612587   2.446   0.062   3.201 -0.9589  3.9995  1.3490
  548DG      H712588   2.577   0.078   3.329  0.6481 -1.1989 -0.3186
  548DG      H812589   2.502  -0.077   3.306 -1.3391 -0.7344  1.2363
  548DG      O912590   2.168   0.383   3.804  0.3030 -0.2354  0.5827
  548DG     O1012591   2.380   0.061   3.393  0.0982 -0.7198  0.0039
  548DG     C1112592   2.294   0.313   3.819 -0.3999 -0.0649  0.6964
  548DG     C1212593   2.408   0.034   3.527 -0.2030 -0.4275  1.2027
  548DG     H1312594   2.274   0.218   3.868  0.2836  0.0650  1.2334
  548DG     H1412595   2.360   0.377   3.877  0.3756 -0.5527  0.3700
  548DG     H1512596   2.495   0.092   3.556  0.8106 -1.4654  0.3205
  548DG     H1612597   2.433  -0.072   3.535  1.8451  0.1224  2.9853
  548DG     C1712598   2.347   0.291   3.675  0.5902 -0.4638 -0.3598
  548DG     C1812599   2.277   0.069   3.601  0.0757  0.3127  1.1786
  548DG     O1912600   2.261   0.210   3.597 -0.1016  0.1996 -0.0148
  548DG     H2012601   2.453   0.267   3.684  1.0273  1.4714  0.0485
  548DG     H2112602   2.336   0.386   3.622  0.8218 -0.2831 -0.0880
  548DG     H2212603   2.198   0.025   3.540 -0.7361 -1.1822  3.2059
  548DG     H2312604   2.270   0.029   3.702 -2.5774 -1.6075  0.3507
  549DG      C112605   3.077   0.129   4.749 -0.2912  0.1587 -0.4352
  549DG      C212606   2.958  -0.253   5.356 -0.3785  0.2772 -0.5179
  549DG      H312607   3.033   0.042   4.699  2.2580  0.0514 -2.7212
  549DG      H412608   3.179   0.147   4.715  0.2210 -2.2685 -0.4006
  549DG      H512609   3.012   0.216   4.742 -2.4445 -1.3290 -0.0993
  549DG      H612610   2.958  -0.225   5.462  0.8653 -0.3083 -0.3460
  549DG      H712611   2.859  -0.272   5.317 -0.2729 -2.4276  0.3332
  549DG      H812612   3.014  -0.345   5.338 -0.3908  0.0887  0.3535
  549DG      O912613   3.087   0.100   4.886  0.8582  0.0581 -0.8357
  549DG     O1012614   3.028  -0.144   5.287 -0.0400  0.2671 -0.2026
  549DG     C1112615   3.161   0.193   4.963  0.1712 -0.0809 -0.9128
  549DG     C1212616   3.161  -0.146   5.309 -0.0254  0.0852 -0.1802
  549DG     H1312617   3.103   0.285   4.962  1.2952  0.6590 -0.5473
  549DG     H1412618   3.263   0.201   4.925  0.7926 -0.9435  0.4850
  549DG     H1512619   3.210  -0.219   5.245 -0.5072 -0.2467 -0.1729
  549DG     H1612620   3.192  -0.164   5.412  2.1567  2.4937 -0.3003
  549DG     C1712621   3.189   0.164   5.109  0.6491  0.3744 -0.6058
  549DG     C1812622   3.214  -0.004   5.274  0.0246 -0.4774 -0.1137
  549DG     O1912623   3.179   0.028   5.134 -0.7761 -0.0749 -0.1146
  549DG     H2012624   3.107   0.208   5.166  1.0037 -1.5527  1.5397
  549DG     H2112625   3.274   0.219   5.149  0.5949  0.2934 -0.3780
  549DG     H2212626   3.174   0.070   5.345  0.9032 -1.8150  1.8662
  549DG     H2312627   3.322  -0.011   5.284 -0.0493 -1.3621  0.1023
  550DG      C112628   2.887   3.402   3.133  0.1298  0.8672  0.1928
  550DG      C212629   2.617   3.393   2.517  0.3733 -0.5117 -0.2940
  550DG      H312630   2.859   3.499   3.175  1.0191  1.5652 -0.7914
  550DG      H412631   2.970   3.411   3.063  0.4017  0.4763  0.4617
  550DG      H512632   2.923   3.341   3.217  2.1975  0.7493 -0.7177
  550DG      H612633   2.600   3.308   2.451 -0.4986 -1.4604  1.0787
  550DG      H712634   2.540   3.466   2.492  0.0371 -0.7818 -0.0657
  550DG      H812635   2.715   3.439   2.504 -1.5831  3.4855 -3.1319
  550DG      O912636   2.784   3.328   3.060 -0.1473 -0.3780 -0.3644
  550DG     O1012637   2.600   3.376   2.660 -0.4182 -0.9026  0.2398
  550DG     C1112638   2.669   3.294   3.142 -0.1269  0.3499 -0.0757
  550DG     C1212639   2.480   3.320   2.697  0.1411  0.1642 -0.5439
  550DG     H1312640   2.633   3.385   3.190  0.4276  0.9348 -0.7455
  550DG     H1412641   2.690   3.231   3.228 -1.4877  2.5816  2.0541
  550DG     H1512642   2.451   3.244   2.625 -0.1723  0.7007 -0.9972
  550DG     H1612643   2.402   3.396   2.690 -0.2528 -0.0235  1.2152
  550DG     C1712644   2.558   3.238   3.048 -0.3179  0.5212 -0.8046
  550DG     C1812645   2.467   3.253   2.832  0.1419 -0.2855 -0.1118
  550DG     O1912646   2.541   3.324   2.934  0.3980 -0.3510 -0.5107
  550DG     H2012647   2.461   3.228   3.095 -0.6392  1.7301 -1.1634
  550DG     H2112648   2.592   3.139   3.019  0.1142  0.3653  0.2096
  550DG     H2212649   2.366   3.241   2.872  0.9035 -0.5444  1.8575
  550DG     H2312650   2.502   3.152   2.814 -1.4940 -1.2583  1.7702
  551DG      C112651   2.718   3.561   2.242 -0.2014 -0.1435 -0.2398
  551DG      C212652   2.502   2.839   2.202  0.5634 -0.6809  0.0345
  551DG      H312653   2.754   3.610   2.333  0.0656 -2.5382  1.0205
  551DG      H412654   2.612   3.544   2.261 -0.6052  0.2070 -2.0309
  551DG      H512655   2.727   3.631   2.159 -0.3495  0.3239  0.1328
  551DG      H612656   2.402   2.863   2.167  1.0112  2.3192  0.5401
  551DG      H712657   2.513   2.730   2.198 -0.4247 -0.7789 -0.1818
  551DG      H812658   2.503   2.883   2.301  3.0182  0.8370 -0.5908
  551DG      O912659   2.782   3.439   2.218  0.0822 -0.0019  0.4962
  551DG     O1012660   2.590   2.911   2.116 -0.0249  0.0322 -0.2434
  551DG     C1112661   2.772   3.390   2.087 -0.0865  0.0952 -0.4527
  551DG     C1212662   2.726   2.911   2.160 -0.0819 -0.7395 -0.1284
  551DG     H1312663   2.802   3.462   2.011  0.8664 -0.8457 -0.9844
  551DG     H1412664   2.669   3.369   2.058 -0.4908 -0.4998  1.3130
  551DG     H1512665   2.762   2.810   2.138  2.0586 -0.2425  0.8253
  551DG     H1612666   2.732   2.936   2.266 -3.1289 -0.9263  0.1679
  551DG     C1712667   2.846   3.254   2.082 -0.8977  0.1349 -0.3596
  551DG     C1812668   2.801   3.024   2.081  0.3596 -0.3359 -0.4630
  551DG     O1912669   2.752   3.149   2.106 -0.6805 -0.1935  0.5918
  551DG     H2012670   2.921   3.259   2.161 -3.5140 -1.5682  2.4712
  551DG     H2112671   2.892   3.249   1.983  0.5318  0.7597  0.2575
  551DG     H2212672   2.905   3.022   2.116  0.3046 -2.3884 -0.2874
  551DG     H2312673   2.824   3.010   1.975  0.1074 -1.2317 -0.4100
  552DG      C112674   3.873   2.032   3.027  0.2015 -0.7179 -0.7147
  552DG      C212675   3.330   1.774   2.479 -0.1768  0.4156  1.3289
  552DG      H312676   3.860   2.129   3.075 -1.2998 -0.3477 -1.7711
  552DG      H412677   3.976   2.010   2.999  1.2197  1.1796  1.2138
  552DG      H512678   3.836   1.960   3.100  3.1258  1.0025  2.7626
  552DG      H612679   3.400   1.801   2.400 -0.7993  0.2660  0.7196
  552DG      H712680   3.281   1.682   2.447  1.1245  0.7881 -2.1668
  552DG      H812681   3.262   1.859   2.464 -0.6867 -0.1820  0.1007
  552DG      O912682   3.797   2.027   2.909  0.0918 -0.6723  0.3748
  552DG     O1012683   3.381   1.777   2.608  0.1535 -0.1313  0.5732
  552DG     C1112684   3.655   2.035   2.924 -0.3235 -0.4445 -0.0456
  552DG     C1212685   3.504   1.709   2.607  0.9176  0.2761 -0.1947
  552DG     H1312686   3.613   2.095   2.843 -2.9166 -0.5656  1.1150
  552DG     H1412687   3.620   2.092   3.011  4.8227 -0.1984  2.2273
  552DG     H1512688   3.567   1.742   2.525  1.6894 -1.1285 -0.2006
  552DG     H1612689   3.489   1.601   2.605  0.3173  0.3664 -0.5933
  552DG     C1712690   3.585   1.898   2.893  0.1204  0.2966 -0.0072
  552DG     C1812691   3.571   1.725   2.743 -0.0412  0.5456  0.3970
  552DG     O1912692   3.609   1.856   2.761 -0.0307 -0.3870 -0.8704
  552DG     H2012693   3.480   1.911   2.918  0.3468 -1.4312  2.2382
  552DG     H2112694   3.623   1.824   2.964 -0.0454  1.4397  1.3101
  552DG     H2212695   3.502   1.684   2.817  0.4124  0.2483  0.6664
  552DG     H2312696   3.660   1.663   2.755 -0.6678 -0.0843  2.1363
  553DG      C112697   0.423   0.483   1.292 -0.3108  0.2626 -0.3251
  553DG      C212698   0.805   1.150   1.278  0.3996 -0.1313 -0.8661
  553DG      H312699   0.372   0.403   1.238 -0.7159 -0.1006  0.5769
  553DG      H412700   0.350   0.559   1.321 -2.1615 -1.8987  0.9938
  553DG      H512701   0.463   0.439   1.383 -1.7590  1.7132  1.0803
  553DG      H612702   0.733   1.232   1.291  0.4567 -0.3244  0.8596
  553DG      H712703   0.819   1.100   1.374  0.3262  2.1597  0.4200
  553DG      H812704   0.902   1.192   1.253  0.3962  0.3777 -0.0870
  553DG      O912705   0.525   0.543   1.208 -0.4094  0.2581  0.1875
  553DG     O1012706   0.740   1.062   1.187 -0.0033  0.2008 -0.5206
  553DG     C1112707   0.467   0.624   1.103 -0.4601 -0.1965 -0.4933
  553DG     C1212708   0.817   0.955   1.146 -0.2674  0.4258 -0.1847
  553DG     H1312709   0.418   0.710   1.148 -0.6339 -1.4089  1.7816
  553DG     H1412710   0.400   0.562   1.042  0.3213 -1.5021 -0.0603
  553DG     H1512711   0.864   0.898   1.225  1.7278  2.5587  0.2683
  553DG     H1612712   0.904   0.999   1.097  0.2565  0.7457  1.0028
  553DG     C1712713   0.579   0.702   1.022  0.1273  0.4935 -0.0560
  553DG     C1812714   0.743   0.865   1.039 -0.8271  0.0545 -0.2504
  553DG     O1912715   0.634   0.795   1.102  0.0858 -0.3872  0.3070
  553DG     H2012716   0.531   0.748   0.936  1.1891  1.1644 -0.3106
  553DG     H2112717   0.650   0.633   0.978  0.8433  1.5059 -0.5129
  553DG     H2212718   0.703   0.933   0.963 -1.2091  3.1464  2.5175
  553DG     H2312719   0.821   0.804   0.993 -1.4020  0.3181 -1.6361
  554DG      C112720   1.158   4.654   1.643 -0.3283  0.4363 -0.0438
  554DG      C212721   1.465   5.168   2.085 -0.6023  0.4895 -0.3303
  554DG      H312722   1.081   4.727   1.618 -2.2872 -1.2473  0.6886
  554DG      H412723   1.115   4.583   1.714 -0.1678  1.4829  1.1321
  554DG      H512724   1.180   4.604   1.549  0.5045  1.2913 -0.3106
  554DG      H612725   1.402   5.252   2.055  0.1821  0.6744 -1.5047
  554DG      H712726   1.443   5.137   2.187  2.2703 -0.3472  0.1211
  554DG      H812727   1.562   5.216   2.092 -0.0133 -0.8954  2.1926
  554DG      O912728   1.274   4.715   1.702 -0.1121  0.0449  0.3852
  554DG     O1012729   1.479   5.066   1.985  0.5871 -0.0117  0.4153
  554DG     C1112730   1.386   4.629   1.719 -0.4305 -0.5768 -0.5377
  554DG     C1212731   1.555   4.952   2.029  0.6540  0.0269 -0.0897
  554DG     H1312732   1.411   4.575   1.628  1.4743 -2.9871  1.2648
  554DG     H1412733   1.367   4.557   1.799 -0.5628 -2.3878 -2.1353
  554DG     H1512734   1.487   4.882   2.078  1.6273 -1.8834 -1.3258
  554DG     H1612735   1.636   4.982   2.095  0.3362 -1.0952  0.8472
  554DG     C1712736   1.510   4.716   1.756  0.4449  0.2712  0.7849
  554DG     C1812737   1.598   4.868   1.909  0.0144 -0.1826 -0.5672
  554DG     O1912738   1.482   4.801   1.863 -0.7985 -0.0771 -0.6764
  554DG     H2012739   1.515   4.786   1.673 -0.1140 -1.4367 -0.7601
  554DG     H2112740   1.599   4.659   1.779  0.0309 -0.6084  0.2529
  554DG     H2212741   1.639   4.927   1.827  0.2366 -0.6468 -0.7878
  554DG     H2312742   1.675   4.798   1.940  1.8304  2.2610  0.8364
  555DG      C112743   4.808   1.810   4.736 -0.6411 -0.1077  0.0966
  555DG      C212744   5.198   1.289   4.958  0.4881  0.5045 -0.6953
  555DG      H312745   4.731   1.885   4.753 -0.3168  0.7706 -2.0310
  555DG      H412746   4.785   1.759   4.643  2.3735 -1.6099  0.0296
  555DG      H512747   4.902   1.860   4.710 -0.4182  0.4742  1.8750
  555DG      H612748   5.199   1.198   5.018  0.3413  1.8424  1.4421
  555DG      H712749   5.202   1.244   4.859 -1.5223 -0.4809 -0.3955
  555DG      H812750   5.288   1.346   4.982 -1.1748  2.0318  2.7211
  555DG      O912751   4.824   1.738   4.861  0.2861  0.2063  0.4223
  555DG     O1012752   5.085   1.370   4.968  0.1048 -0.5174  0.5601
  555DG     C1112753   4.708   1.671   4.907 -0.1729 -0.2729 -0.4189
  555DG     C1212754   5.056   1.423   5.095 -0.0383  0.5179 -0.3354
  555DG     H1312755   4.658   1.614   4.829 -0.7392  0.6437 -0.7436
  555DG     H1412756   4.636   1.749   4.930  0.9573  0.5538  0.4230
  555DG     H1512757   5.104   1.519   5.116  0.6835 -0.4647  3.1794
  555DG     H1612758   5.089   1.359   5.177 -0.9988  0.4858  0.0300
  555DG     C1712759   4.747   1.589   5.030 -0.2877  0.0455 -0.1817
  555DG     C1812760   4.904   1.428   5.114  0.0357 -0.5603  1.0990
  555DG     O1912761   4.862   1.511   5.006 -0.3516  0.0810  0.0233
  555DG     H2012762   4.661   1.530   5.061  1.2095 -0.7951  2.8028
  555DG     H2112763   4.771   1.660   5.109 -1.1131  0.5864 -0.4154
  555DG     H2212764   4.857   1.330   5.108 -1.5812  0.1234  2.0663
  555DG     H2312765   4.883   1.476   5.210 -2.9701  1.8411 -0.5985
  556DG      C112766   2.665   2.817   3.147 -0.2711  0.2192 -0.0792
  556DG      C212767   3.335   2.555   3.570  0.2456  0.2721  0.5410
  556DG      H312768   2.649   2.869   3.242  1.5816 -0.7977  0.8558
  556DG      H412769   2.623   2.717   3.137  0.8714 -0.0823 -2.8103
  556DG      H512770   2.616   2.883   3.076  1.1738 -0.7890 -2.1047
  556DG      H612771   3.441   2.532   3.557  0.0479 -1.2445  1.3378
  556DG      H712772   3.338   2.628   3.650  1.7115 -0.6844  1.3955
  556DG      H812773   3.290   2.457   3.588  2.5765 -1.1554 -0.8084
  556DG      O912774   2.806   2.810   3.111 -0.1990 -0.7845  0.4132
  556DG     O1012775   3.265   2.603   3.461  0.1558 -0.1719  0.0524
  556DG     C1112776   2.885   2.715   3.180 -0.2495  0.7229  0.5885
  556DG     C1212777   3.302   2.744   3.430 -0.5086 -0.1606  0.3407
  556DG     H1312778   2.887   2.612   3.143 -3.0934  0.1426  1.7855
  556DG     H1412779   2.861   2.708   3.286  0.5270  0.1569  0.7351
  556DG     H1512780   3.411   2.755   3.434 -0.2950 -1.8577 -0.0317
  556DG     H1612781   3.258   2.799   3.513  0.3772 -1.3860  1.6671
  556DG     C1712782   3.032   2.766   3.181 -0.1657 -0.1186 -0.2754
  556DG     C1812783   3.235   2.773   3.294 -0.2570  0.1056 -0.2222
  556DG     O1912784   3.110   2.715   3.288  0.7880  0.4353  0.2987
  556DG     H2012785   3.024   2.875   3.187  0.5149 -0.1031  0.5818
  556DG     H2112786   3.079   2.752   3.083  0.1773 -2.7506  0.2007
  556DG     H2212787   3.238   2.881   3.278  0.6037  0.1456  0.2040
  556DG     H2312788   3.299   2.727   3.219 -1.9879  1.3544 -2.6157
  557DG      C112789   2.471   0.246   5.144  0.0304 -0.0734  0.2586
  557DG      C212790   1.955   0.533   4.893 -0.8222  0.0276  0.5356
  557DG      H312791   2.521   0.150   5.152 -1.0148 -1.2898 -4.5956
  557DG      H412792   2.381   0.256   5.205 -0.5586  0.4179 -0.6506
  557DG      H512793   2.541   0.324   5.174  0.1758  0.2787 -0.9199
  557DG      H612794   1.907   0.459   4.958 -1.5537  0.0018 -0.0257
  557DG      H712795   1.971   0.626   4.946  0.8898 -0.4992  0.9942
  557DG      H812796   1.883   0.555   4.814  1.6119  1.4268 -1.4079
  557DG      O912797   2.423   0.272   5.008  0.1449  0.8023 -0.1564
  557DG     O1012798   2.076   0.490   4.833 -0.1073 -0.2168  0.6000
  557DG     C1112799   2.415   0.153   4.934 -0.7411 -0.1092  0.3869
  557DG     C1212800   2.048   0.379   4.732 -0.5319 -0.5511  0.3110
  557DG     H1312801   2.331   0.093   4.966 -0.3475 -1.8690 -1.7072
  557DG     H1412802   2.503   0.088   4.930 -0.0672  0.5132  3.0248
  557DG     H1512803   1.992   0.424   4.651  0.3169  0.7595  0.4065
  557DG     H1612804   1.993   0.305   4.790 -1.5802 -0.1130 -0.1005
  557DG     C1712805   2.371   0.201   4.790  0.2497 -0.1359 -0.7889
  557DG     C1812806   2.178   0.313   4.681  0.7278  0.5021  0.4890
  557DG     O1912807   2.248   0.271   4.802 -0.2898  0.0674 -0.0066
  557DG     H2012808   2.368   0.126   4.711  3.4892  0.1601 -1.3119
  557DG     H2112809   2.445   0.271   4.753  1.4561 -1.5452 -1.1508
  557DG     H2212810   2.165   0.224   4.619  0.9551 -0.7276  2.1014
  557DG     H2312811   2.232   0.384   4.620  0.2182  2.1389  1.8774
  558DG      C112812   0.584   1.289   2.085 -0.3674 -0.4191  0.3087
  558DG      C212813  -0.233   1.016   2.018 -0.6503 -0.5902  0.8916
  558DG      H312814   0.691   1.286   2.060 -0.3370 -1.1110  0.5220
  558DG      H412815   0.562   1.353   2.170 -3.4856 -0.6476 -0.2128
  558DG      H512816   0.548   1.346   1.999  4.4976  4.3623  0.8730
  558DG      H612817  -0.257   1.052   2.118  0.7066  2.0055  0.3457
  558DG      H712818  -0.281   1.089   1.954 -0.6558  0.2572  1.8399
  558DG      H812819  -0.292   0.929   1.989 -2.7205  0.6189  1.2812
  558DG      O912820   0.532   1.162   2.104 -0.6329  0.2350  0.5030
  558DG     O1012821  -0.094   1.008   1.983  0.1127 -0.1785 -0.0723
  558DG     C1112822   0.387   1.167   2.129 -0.5619 -0.2664  0.0586
  558DG     C1212823  -0.024   0.912   2.064 -0.6227 -0.2376 -0.2520
  558DG     H1312824   0.337   1.252   2.083 -0.3397  0.2131  0.6822
  558DG     H1412825   0.385   1.183   2.237 -0.0949 -0.2068  0.0619
  558DG     H1512826  -0.041   0.811   2.027  0.4480 -0.9064  0.9840
  558DG     H1612827  -0.055   0.923   2.168 -3.0950  2.4619 -1.1546
  558DG     C1712828   0.319   1.043   2.091 -0.1049 -0.2328  0.0059
  558DG     C1812829   0.128   0.919   2.068  1.0184  0.1196 -0.3321
  558DG     O1912830   0.177   1.051   2.095 -0.3015 -0.3750  0.3251
  558DG     H2012831   0.360   0.957   2.144  1.3019 -1.4871 -2.8249
  558DG     H2112832   0.335   1.032   1.983 -1.2047 -0.6234 -0.1314
  558DG     H2212833   0.167   0.863   2.153 -1.0303  2.1386  2.1162
  558DG     H2312834   0.173   0.876   1.978 -2.4462  0.3874 -2.3979
  559DG      C112835   1.227   0.628   2.725  0.1164 -0.4226  0.3635
  559DG      C212836   1.099   0.678   2.004 -0.0814  0.8750  0.7956
  559DG      H312837   1.185   0.616   2.825 -1.9746 -0.3761 -0.4579
  559DG      H412838   1.260   0.731   2.710  2.2336 -0.9851  0.8124
  559DG      H512839   1.316   0.565   2.714  0.4753  0.3852 -1.8468
  559DG      H612840   1.096   0.597   1.932 -1.0343  2.5518 -1.1782
  559DG      H712841   1.028   0.753   1.969  0.8492  1.1916 -0.4819
  559DG      H812842   1.200   0.719   1.994  0.0403  1.0864  2.5861
  559DG      O912843   1.138   0.576   2.628 -0.2669  0.8034 -0.6446
  559DG     O1012844   1.073   0.641   2.139  0.7970 -0.1364 -0.8684
  559DG     C1112845   1.002   0.619   2.646 -0.5123  0.3884  0.0818
  559DG     C1212846   0.938   0.605   2.167  0.2954  0.2471 -0.0050
  559DG     H1312847   1.005   0.728   2.655  2.2330  0.4321 -0.5350
  559DG     H1412848   0.962   0.574   2.737  1.8169 -1.2896  0.3609
  559DG     H1512849   0.892   0.537   2.096 -1.6984  0.9390  0.5474
  559DG     H1612850   0.874   0.693   2.174 -0.6212 -0.5252  3.4946
  559DG     C1712851   0.901   0.584   2.537 -0.9507  0.8663  0.1439
  559DG     C1812852   0.929   0.535   2.303 -0.3238  0.4432  0.0321
  559DG     O1912853   0.963   0.621   2.416 -0.4934  0.1334  0.9215
  559DG     H2012854   0.809   0.639   2.554 -0.9558  0.7035  0.6834
  559DG     H2112855   0.883   0.476   2.540  1.4192  0.3670 -0.7176
  559DG     H2212856   0.828   0.498   2.318 -0.8360  2.2492  1.4901
  559DG     H2312857   0.996   0.450   2.287  1.6193  1.9777 -0.3982
  560DG      C112858   0.410   2.710   0.425  0.2704 -0.0302  0.0378
  560DG      C212859  -0.219   2.986   0.356 -0.1911 -0.5067  0.2159
  560DG      H312860   0.508   2.707   0.471 -1.3106  0.9390  3.8780
  560DG      H412861   0.419   2.671   0.324  0.0663  1.4346 -0.5695
  560DG      H512862   0.347   2.646   0.488  1.1636 -0.5873  0.3797
  560DG      H612863  -0.244   2.908   0.284 -0.6429  1.5865 -2.0282
  560DG      H712864  -0.285   2.982   0.443  0.0847  2.4579  0.6752
  560DG      H812865  -0.244   3.078   0.302  0.1138 -1.2076 -1.1500
  560DG      O912866   0.350   2.845   0.434  0.2947 -0.3573  0.1868
  560DG     O1012867  -0.093   2.998   0.411 -0.6462 -0.0011 -0.1479
  560DG     C1112868   0.360   2.909   0.562  0.6133 -0.1800 -0.2174
  560DG     C1212869  -0.077   3.093   0.508  0.1095  0.0062  0.4381
  560DG     H1312870   0.466   2.916   0.584  0.4559 -0.7662  0.7944
  560DG     H1412871   0.320   2.844   0.640 -0.7797 -0.8478 -1.4429
  560DG     H1512872  -0.109   3.062   0.608 -0.3193  2.8424  1.2716
  560DG     H1612873  -0.131   3.183   0.480  1.8982  1.3341  1.0646
  560DG     C1712874   0.291   3.041   0.558  0.1001  0.0362  0.1044
  560DG     C1812875   0.073   3.123   0.519  0.4844 -0.5279 -0.1056
  560DG     O1912876   0.157   3.005   0.521 -0.1799  0.2114 -0.0476
  560DG     H2012877   0.335   3.109   0.485  0.1577 -0.9380 -0.8015
  560DG     H2112878   0.294   3.086   0.657 -1.2270  1.3990 -0.4383
  560DG     H2212879   0.097   3.186   0.433  0.5673 -0.4950 -0.0588
  560DG     H2312880   0.083   3.189   0.605 -1.5569  0.2748 -0.4227
  561DG      C112881   2.442   1.251   2.159 -0.2429 -0.2515  0.3609
  561DG      C212882   2.261   0.599   2.207 -0.1567  0.0077  0.3822
  561DG      H312883   2.500   1.339   2.130 -1.2190 -0.0200 -0.9716
  561DG      H412884   2.406   1.270   2.260  1.4097  1.2172  0.7452
  561DG      H512885   2.359   1.252   2.090  1.0129 -2.1539 -1.2894
  561DG      H612886   2.188   0.557   2.138 -2.0724  1.6436  1.3056
  561DG      H712887   2.300   0.505   2.246  0.8918 -0.1337 -0.9248
  561DG      H812888   2.209   0.646   2.290 -0.8603 -0.0042 -0.0396
  561DG      O912889   2.508   1.128   2.150 -0.2598  0.1013 -0.3660
  561DG     O1012890   2.366   0.687   2.155  0.1222 -0.4036 -0.3764
  561DG     C1112891   2.558   1.111   2.017  0.9948  0.1489 -0.8108
  561DG     C1212892   2.412   0.661   2.021  0.6751 -0.9067  0.3865
  561DG     H1312893   2.631   1.190   1.998 -0.8303  2.0873 -0.1924
  561DG     H1412894   2.483   1.139   1.943 -0.0886  1.9432  0.8600
  561DG     H1512895   2.340   0.682   1.942  1.9467 -2.6177 -1.3490
  561DG     H1612896   2.445   0.558   2.009  2.3234 -0.2306 -1.7534
  561DG     C1712897   2.613   0.974   1.987  0.4573  0.1710 -0.7753
  561DG     C1812898   2.535   0.747   1.993  0.2795  0.5506 -1.0533
  561DG     O1912899   2.505   0.887   2.024 -0.0821  0.4087 -0.1012
  561DG     H2012900   2.701   0.958   2.050  0.4028 -0.6935 -0.9044
  561DG     H2112901   2.644   0.955   1.884  0.9725  2.1837 -1.0264
  561DG     H2212902   2.613   0.712   2.061 -1.3818  0.0626  0.6783
  561DG     H2312903   2.558   0.729   1.888  0.3102 -2.9255 -0.5802
  562DG      C112904   2.738   3.437   0.235  0.6495 -0.4293 -0.2993
  562DG      C212905   2.133   3.128   0.378  0.1590 -0.4523 -0.6480
  562DG      H312906   2.674   3.474   0.155 -1.6357 -1.0971  1.1214
  562DG      H412907   2.773   3.341   0.198  0.3387 -0.9840  0.7800
  562DG      H512908   2.824   3.496   0.267  0.0459  0.8215 -0.9053
  562DG      H612909   2.141   3.074   0.283 -0.9193 -0.4464 -0.7531
  562DG      H712910   2.185   3.063   0.449 -0.3944 -0.1702  0.0213
  562DG      H812911   2.028   3.151   0.392  0.2725  0.7083 -1.5606
  562DG      O912912   2.662   3.408   0.347 -0.1069  0.5020  0.4426
  562DG     O1012913   2.185   3.258   0.358  0.3307 -0.0045 -0.1339
  562DG     C1112914   2.613   3.530   0.407 -0.4883 -0.4734  0.1417
  562DG     C1212915   2.161   3.358   0.457 -0.3102 -0.3913  0.2931
  562DG     H1312916   2.584   3.609   0.336 -0.9344 -0.7390  0.0260
  562DG     H1412917   2.697   3.568   0.465  1.1428 -2.4285 -0.8147
  562DG     H1512918   2.071   3.332   0.512 -2.5318  2.5646 -1.6032
  562DG     H1612919   2.126   3.442   0.396  1.3722  1.1232  1.3140
  562DG     C1712920   2.504   3.493   0.508  0.8495 -0.0252  0.6889
  562DG     C1812921   2.293   3.399   0.528  0.3199  0.4754 -0.4727
  562DG     O1912922   2.399   3.428   0.438 -0.2223  0.3923  0.2733
  562DG     H2012923   2.465   3.589   0.541 -1.7475 -0.0311 -1.9441
  562DG     H2112924   2.542   3.435   0.592  1.2590 -0.2426  0.3614
  562DG     H2212925   2.273   3.489   0.584  0.2120  0.6743 -0.8267
  562DG     H2312926   2.315   3.321   0.601 -1.8861 -0.3052 -0.5785
  563DG      C112927   2.971   1.708   2.411 -0.0598  0.2379  0.2010
  563DG      C212928   3.300   1.558   1.680  0.2812  0.2632  0.3389
  563DG      H312929   2.997   1.782   2.487  1.9776 -1.4012  1.1772
  563DG      H412930   2.987   1.607   2.448  0.6187  0.0752 -0.5194
  563DG      H512931   2.868   1.729   2.382  0.0331 -0.0058 -0.3085
  563DG      H612932   3.203   1.515   1.657  0.1891  1.9561 -3.0968
  563DG      H712933   3.335   1.609   1.590 -0.6076 -1.3496 -0.9725
  563DG      H812934   3.369   1.474   1.683  0.6882  0.4464 -1.7491
  563DG      O912935   3.050   1.753   2.300  0.2684  0.4693  0.7375
  563DG     O1012936   3.299   1.638   1.801 -0.1559 -0.0886 -0.2676
  563DG     C1112937   3.041   1.653   2.199 -0.5089 -0.5290  0.6750
  563DG     C1212938   3.196   1.740   1.791 -0.3380 -0.1200 -0.3406
  563DG     H1312939   2.942   1.655   2.153  1.0606  0.7681 -2.9481
  563DG     H1412940   3.071   1.553   2.232 -1.2480 -0.2722  2.2472
  563DG     H1512941   3.092   1.707   1.791 -0.6922  0.9619 -0.9500
  563DG     H1612942   3.205   1.803   1.703  1.6447 -0.3342 -0.3287
  563DG     C1712943   3.157   1.690   2.101  0.5323  0.2629 -0.2336
  563DG     C1812944   3.207   1.834   1.916  0.8489  0.0531 -0.0285
  563DG     O1912945   3.112   1.791   2.016 -0.1952 -0.1866 -0.1655
  563DG     H2012946   3.180   1.603   2.039 -1.2511 -0.1686 -0.3444
  563DG     H2112947   3.250   1.718   2.150 -0.6967  2.9603  0.7412
  563DG     H2212948   3.308   1.829   1.956  1.7373  1.4929 -1.9158
  563DG     H2312949   3.179   1.937   1.890  0.5004 -0.2342 -0.8374
  564DG      C112950   1.999   1.263   0.972 -0.2334 -0.3475 -0.2976
  564DG      C212951   1.640   1.194   0.395  0.1650 -0.0399  0.2233
  564DG      H312952   2.021   1.215   1.067  0.5681  0.0875 -0.2626
  564DG      H412953   2.002   1.371   0.984  3.4415 -0.0865 -2.3207
  564DG      H512954   2.088   1.245   0.913 -0.0378 -0.1215 -0.0694
  564DG      H612955   1.566   1.132   0.344  2.1505 -1.0506 -1.5994
  564DG      H712956   1.654   1.295   0.357  0.5451 -0.4369 -0.7202
  564DG      H812957   1.740   1.162   0.366 -0.9095 -1.0302 -2.8243
  564DG      O912958   1.879   1.224   0.909 -0.2090  0.3921  0.5779
  564DG     O1012959   1.633   1.187   0.531 -0.7491 -0.1926 -0.1552
  564DG     C1112960   1.762   1.256   0.982  0.4426 -0.5238  0.1096
  564DG     C1212961   1.510   1.243   0.580  0.0381 -0.0738  0.1804
  564DG     H1312962   1.752   1.365   0.983  0.5142 -0.5225  0.6183
  564DG     H1412963   1.764   1.226   1.086 -0.7147  1.2558  0.7025
  564DG     H1512964   1.426   1.185   0.542  0.4748 -0.2623 -0.5035
  564DG     H1612965   1.497   1.345   0.546  2.8750 -0.0006 -0.9606
  564DG     C1712966   1.640   1.191   0.911  0.2554 -1.0917 -0.3479
  564DG     C1812967   1.497   1.243   0.730 -0.7527 -0.4216  0.0858
  564DG     O1912968   1.626   1.261   0.783 -0.6368 -0.5865  0.0984
  564DG     H2012969   1.549   1.213   0.966  0.4822  0.3172 -0.4860
  564DG     H2112970   1.644   1.083   0.909 -0.6936 -1.1166 -1.6191
  564DG     H2212971   1.421   1.311   0.767 -2.9290 -1.1282 -2.6972
  564DG     H2312972   1.461   1.145   0.761 -2.8353  0.2936  0.0639
  565DG      C112973   5.064   3.771   1.839  0.4747 -0.1162 -0.2675
  565DG      C212974   4.591   3.365   1.282  0.3695 -0.1630  0.1137
  565DG      H312975   5.167   3.735   1.837 -0.0140 -1.6156  0.3851
  565DG      H412976   5.009   3.695   1.895  2.7315 -1.4401  0.2952
  565DG      H512977   5.043   3.864   1.893 -1.6914  0.1097 -1.4091
  565DG      H612978   4.641   3.297   1.350  0.3658 -0.9746 -0.6864
  565DG      H712979   4.485   3.341   1.290  0.6091 -1.1637  0.4184
  565DG      H812980   4.624   3.341   1.181  1.1952 -0.1704  0.3768
  565DG      O912981   5.007   3.779   1.706 -0.0624 -0.3931 -0.7988
  565DG     O1012982   4.617   3.505   1.321  0.2288  0.5040  0.0961
  565DG     C1112983   4.880   3.839   1.707  0.4259  0.8649 -0.0584
  565DG     C1212984   4.755   3.534   1.343  0.0099 -0.5666  0.0886
  565DG     H1312985   4.896   3.942   1.736  0.7553  0.7871  0.0392
  565DG     H1412986   4.810   3.790   1.774  1.0781  2.8614  2.1987
  565DG     H1512987   4.820   3.518   1.258  0.1357  0.0233  0.0672
  565DG     H1612988   4.797   3.483   1.430 -2.8908 -3.7330 -0.1225
  565DG     C1712989   4.821   3.834   1.561 -0.2562  0.7554  0.3900
  565DG     C1812990   4.773   3.687   1.370  0.6426 -0.7558 -0.1567
  565DG     O1912991   4.796   3.701   1.512 -0.7225  0.1332 -0.0700
  565DG     H2012992   4.882   3.896   1.495 -0.8724  0.6692 -0.2663
  565DG     H2112993   4.723   3.882   1.549 -1.0732 -1.2088 -1.4135
  565DG     H2212994   4.861   3.724   1.318 -0.7006  1.0080 -1.2983
  565DG     H2312995   4.682   3.740   1.343  0.1385 -1.7250 -0.4010
  566DG      C112996   4.036   2.247   2.317 -0.3031  0.1563  0.0116
  566DG      C212997   4.251   2.576   2.702  0.8637  0.1996  0.0932
  566DG      H312998   4.067   2.345   2.282  1.9673 -0.1001  1.1564
  566DG      H412999   3.975   2.205   2.237 -0.1433 -0.2223  0.0857
  566DG      H513000   4.125   2.184   2.324  0.5952  1.4147  0.1463
  566DG      H613001   4.262   2.668   2.643  1.0837 -0.4299 -0.8674
  566DG      H713002   4.310   2.590   2.793 -0.2180 -2.7178  1.3698
  566DG      H813003   4.300   2.490   2.657 -0.7033 -0.5576 -0.2360
  566DG      O913004   3.976   2.274   2.444  0.2921 -0.1694  0.5240
  566DG     O1013005   4.111   2.551   2.722 -0.0917 -0.0527  0.2096
  566DG     C1113006   3.953   2.159   2.524 -0.0500  0.1961  0.2789
  566DG     C1213007   4.083   2.464   2.835  0.5576  0.5143 -0.3613
  566DG     H1313008   4.027   2.083   2.500  1.1050  1.2969  0.2645
  566DG     H1413009   3.856   2.113   2.505  0.3583 -0.8148  0.5891
  566DG     H1513010   3.979   2.468   2.868  1.2062 -1.0447  2.1595
  566DG     H1613011   4.133   2.496   2.926 -2.1709 -0.0778  1.4609
  566DG     C1713012   3.972   2.195   2.671  0.8784 -0.5256 -0.2921
  566DG     C1813013   4.127   2.313   2.810 -0.0028 -0.5550 -0.1953
  566DG     O1913014   4.095   2.268   2.677 -0.3646  0.0904  0.1613
  566DG     H2013015   3.972   2.099   2.723  2.4390 -1.1355 -1.3346
  566DG     H2113016   3.885   2.249   2.706  0.9209  0.6737 -1.9577
  566DG     H2213017   4.235   2.311   2.824 -0.0372  0.4193  0.3002
  566DG     H2313018   4.080   2.252   2.887 -0.4967 -0.2614 -0.2621
  567DG      C113019   1.878   3.352   4.488 -0.1660 -0.4468  0.3316
  567DG      C213020   1.494   2.599   4.587 -0.6583  0.2706  0.8458
  567DG      H313021   1.858   3.340   4.382  0.3278 -0.2327  0.2111
  567DG      H413022   1.985   3.331   4.489 -0.1736 -0.7340 -1.5404
  567DG      H513023   1.856   3.456   4.513 -1.2379 -0.8349  1.0842
  567DG      H613024   1.532   2.500   4.565  0.1672  0.8221 -0.2882
  567DG      H713025   1.538   2.623   4.684 -1.2574  1.4326  0.8523
  567DG      H813026   1.385   2.596   4.594 -0.6944  0.0855  0.2464
  567DG      O913027   1.808   3.257   4.564  0.3233 -0.3843 -0.3983
  567DG     O1013028   1.532   2.695   4.489 -0.1609  0.1872  0.0415
  567DG     C1113029   1.822   3.119   4.537  0.4907 -0.5318 -0.1495
  567DG     C1213030   1.466   2.818   4.490  0.4074 -0.9957  0.4612
  567DG     H1313031   1.808   3.081   4.639 -2.7743  1.5649  0.3234
  567DG     H1413032   1.921   3.092   4.499  0.0344  0.2101 -1.9332
  567DG     H1513033   1.476   2.854   4.592  0.3660  2.0281 -0.5238
  567DG     H1613034   1.360   2.814   4.464  0.2684 -0.8411  0.9990
  567DG     C1713035   1.703   3.087   4.455  0.7314  0.0652 -0.0573
  567DG     C1813036   1.546   2.906   4.405  0.0349 -0.2115  0.0235
  567DG     O1913037   1.658   2.953   4.470  0.2818  0.3144 -0.0550
  567DG     H2013038   1.708   3.118   4.351  0.3929  2.2037  0.5181
  567DG     H2113039   1.622   3.144   4.501 -1.0043 -3.5270  1.7074
  567DG     H2213040   1.565   2.872   4.303  0.8120  1.1339 -0.3099
  567DG     H2313041   1.475   2.989   4.406 -1.0669 -1.1392  1.4946
  568DG      C113042   1.828  -0.084   1.353 -0.7639 -0.1934  0.2434
  568DG      C213043   2.127   0.438   1.491 -0.2547 -0.2100  0.0655
  568DG      H313044   1.929  -0.120   1.334 -0.3388  0.6715  0.7851
  568DG      H413045   1.760  -0.156   1.308 -2.6074  1.9023 -0.5092
  568DG      H513046   1.818  -0.081   1.462  0.2034  0.5680  0.3305
  568DG      H613047   2.067   0.509   1.433  1.1992  0.5208 -0.5917
  568DG      H713048   2.069   0.426   1.582  0.2509  0.6569  0.5142
  568DG      H813049   2.218   0.488   1.523  0.2372  0.2830 -1.9685
  568DG      O913050   1.798   0.048   1.303  0.0303 -0.2922 -0.6597
  568DG     O1013051   2.146   0.311   1.431 -0.3624 -0.2121  0.4864
  568DG     C1113052   1.832   0.066   1.164  0.4684 -0.7732 -0.8264
  568DG     C1213053   2.215   0.317   1.305  0.0386  0.2747  1.0174
  568DG     H1313054   1.797   0.163   1.130  0.3850 -0.1156  1.0405
  568DG     H1413055   1.778  -0.003   1.099 -1.4508  0.2262 -0.3517
  568DG     H1513056   2.323   0.336   1.306  0.3294 -1.0078 -0.9325
  568DG     H1613057   2.176   0.388   1.232 -1.6754 -1.8706 -0.2779
  568DG     C1713058   1.985   0.059   1.136  0.3106 -0.1179 -0.4307
  568DG     C1813059   2.184   0.189   1.229  0.1189  0.6197  0.1768
  568DG     O1913060   2.041   0.168   1.208  0.4273 -0.6239 -0.8245
  568DG     H2013061   1.998   0.066   1.028 -2.9024 -0.0151 -0.8932
  568DG     H2113062   2.041  -0.026   1.175  0.3990  0.2253  0.2051
  568DG     H2213063   2.229   0.180   1.130  0.7169 -1.7031  0.5976
  568DG     H2313064   2.221   0.101   1.283  0.0739  0.6016  0.1776
  569DG      C113065   1.921   3.573   2.197 -0.3758 -0.4179 -0.8327
  569DG      C213066   2.304   3.152   1.588  0.2597  0.2269  0.7782
  569DG      H313067   1.997   3.565   2.274 -2.7018  1.5361  1.9352
  569DG      H413068   1.861   3.483   2.210 -1.3948  0.6690  3.3210
  569DG      H513069   1.864   3.661   2.228  0.7425  0.0429 -0.0334
  569DG      H613070   2.374   3.215   1.642 -0.6586 -0.6476  3.1245
  569DG      H713071   2.293   3.051   1.628 -3.1645 -0.1854 -0.8240
  569DG      H813072   2.332   3.140   1.483 -0.1649  0.9592  0.5746
  569DG      O913073   1.973   3.580   2.061  0.4459 -0.1807  0.3463
  569DG     O1013074   2.186   3.220   1.582 -0.0487 -0.4846  0.0165
  569DG     C1113075   1.875   3.548   1.959 -0.9047  0.2568 -0.4631
  569DG     C1213076   2.152   3.261   1.710 -0.0976 -0.8332 -0.6222
  569DG     H1313077   1.797   3.624   1.967 -2.3207 -0.5782 -4.2345
  569DG     H1413078   1.829   3.452   1.983  1.4473 -1.0423 -0.9001
  569DG     H1513079   2.238   3.297   1.766  0.3446 -1.0680 -1.1543
  569DG     H1613080   2.120   3.177   1.772  1.3882 -0.7032  0.3780
  569DG     C1713081   1.939   3.539   1.814  0.7243 -0.0179 -0.9022
  569DG     C1813082   2.063   3.384   1.694 -0.1335 -0.0129  0.1083
  569DG     O1913083   2.030   3.434   1.820 -0.1941  0.3766  0.4611
  569DG     H2013084   1.990   3.630   1.782 -0.0203 -0.1556 -2.6355
  569DG     H2113085   1.855   3.509   1.751  0.4224 -0.6491 -0.2164
  569DG     H2213086   2.113   3.462   1.636 -0.1884 -0.0739 -0.0220
  569DG     H2313087   1.970   3.356   1.644 -1.1512  0.1723  1.8048
  570DG      C113088   0.593   5.054   1.383  0.1753  0.3449 -0.2875
  570DG      C213089  -0.016   4.918   0.884 -0.0799  0.1951  0.1566
  570DG      H313090   0.582   5.008   1.481  3.4648 -0.5440 -0.1990
  570DG      H413091   0.561   5.158   1.395  0.6361  0.5401 -0.7048
  570DG      H513092   0.698   5.054   1.354  0.8232 -0.3284  1.8253
  570DG      H613093   0.045   4.989   0.827  0.6031 -2.2644 -2.4428
  570DG      H713094  -0.083   4.868   0.813  3.3196 -1.7420 -1.9811
  570DG      H813095  -0.077   4.971   0.956  0.1073  2.1991 -1.0771
  570DG      O913096   0.512   5.001   1.276 -0.0067  0.7622  0.4371
  570DG     O1013097   0.048   4.809   0.950 -0.0826 -0.4509 -0.3486
  570DG     C1113098   0.534   4.866   1.238  0.1717  0.2927 -0.2819
  570DG     C1213099   0.141   4.863   1.045 -0.3176  0.4996  0.8933
  570DG     H1313100   0.532   4.806   1.329  1.9102  0.7755  0.1090
  570DG     H1413101   0.633   4.859   1.194  0.4131  0.6553  0.2118
  570DG     H1513102   0.097   4.929   1.119 -1.9568 -0.3055  0.6896
  570DG     H1613103   0.223   4.915   0.997  0.9932 -1.0361  1.3611
  570DG     C1713104   0.426   4.820   1.136 -0.4540  0.4836 -0.2984
  570DG     C1813105   0.204   4.749   1.132 -0.7080 -0.4270 -0.5445
  570DG     O1913106   0.309   4.794   1.212  0.5277  0.5437  0.3811
  570DG     H2013107   0.465   4.727   1.095 -0.9774  0.8427 -1.6475
  570DG     H2113108   0.422   4.885   1.049  0.3749 -2.0809 -2.3837
  570DG     H2213109   0.129   4.708   1.199  0.6579 -2.0167  0.1001
  570DG     H2313110   0.244   4.674   1.064 -0.3445  0.7141 -1.6384
  571DG      C113111   3.757   4.845   2.222  0.5236  0.4127 -0.0446
  571DG      C213112   3.968   4.708   1.620 -0.1356 -0.5209 -0.5127
  571DG      H313113   3.685   4.904   2.280 -0.7613  1.2074 -2.3205
  571DG      H413114   3.839   4.827   2.292  0.8331 -1.5086 -0.8487
  571DG      H513115   3.721   4.743   2.207  0.8040  0.5125 -1.4785
  571DG      H613116   3.967   4.635   1.539 -0.1228  0.0183 -1.0029
  571DG      H713117   4.019   4.667   1.708 -0.3450  0.2820 -0.0065
  571DG      H813118   3.868   4.732   1.656  0.5487  0.9581  0.5195
  571DG      O913119   3.801   4.924   2.114 -0.2666 -0.0809 -0.3640
  571DG     O1013120   4.021   4.830   1.566  0.7647  0.6866  0.2381
  571DG     C1113121   3.715   4.913   1.998 -0.0651  0.9073 -0.4964
  571DG     C1213122   4.042   4.937   1.657 -0.2022  0.0061 -0.6034
  571DG     H1313123   3.613   4.923   2.035  0.3750 -0.7724  1.4103
  571DG     H1413124   3.707   4.810   1.962 -0.2338  0.9313 -0.5259
  571DG     H1513125   4.113   5.006   1.612 -0.1007  1.0606  1.1089
  571DG     H1613126   4.097   4.891   1.739 -1.3486  1.3406  0.9516
  571DG     C1713127   3.767   5.012   1.888  0.3195 -0.0154  1.2620
  571DG     C1813128   3.924   5.028   1.707 -0.3538  0.5961  0.3795
  571DG     O1913129   3.872   4.949   1.814  0.1254 -0.0983 -0.4538
  571DG     H2013130   3.814   5.101   1.928  1.7377  1.4083 -2.9659
  571DG     H2113131   3.685   5.046   1.823  1.3255  0.9464  0.4635
  571DG     H2213132   3.956   5.126   1.743  1.0347 -0.2479  1.5581
  571DG     H2313133   3.856   5.042   1.623  0.2248 -1.2993 -0.4605
  572DG      C113134   1.042   5.018   1.465  0.5870 -0.2494 -0.3937
  572DG      C213135   0.318   5.289   1.637 -0.5660  0.9044  0.2134
  572DG      H313136   1.064   4.992   1.568 -2.9310 -0.7484  0.3844
  572DG      H413137   1.120   5.059   1.402  1.3928  0.8487  1.2427
  572DG      H513138   1.012   4.927   1.413  1.1440  0.0951 -1.3319
  572DG      H613139   0.269   5.378   1.678 -1.4914  0.3971  0.2281
  572DG      H713140   0.265   5.253   1.549  2.0542 -1.2799 -0.5874
  572DG      H813141   0.307   5.202   1.702 -0.6115 -0.1833 -1.2026
  572DG      O913142   0.931   5.120   1.471 -0.2435 -1.0686  0.0933
  572DG     O1013143   0.453   5.307   1.589  0.1307 -0.0479 -0.0686
  572DG     C1113144   0.978   5.246   1.521 -0.4044  0.9263  0.3122
  572DG     C1213145   0.543   5.398   1.660  0.5243  0.5968  0.5279
  572DG     H1313146   1.076   5.273   1.483 -0.2135 -1.2266 -0.8847
  572DG     H1413147   0.986   5.250   1.630  2.2566  2.8647  0.1513
  572DG     H1513148   0.573   5.346   1.751 -1.1249 -1.6963 -0.1382
  572DG     H1613149   0.503   5.495   1.687 -0.0086 -0.2213  2.9221
  572DG     C1713150   0.878   5.352   1.472  0.4181  0.0630 -0.3307
  572DG     C1813151   0.659   5.425   1.558 -0.4786  0.1127 -0.2823
  572DG     O1913152   0.751   5.318   1.533 -0.2220  0.4450  0.3053
  572DG     H2013153   0.868   5.362   1.364  0.1748 -2.4896 -0.5962
  572DG     H2113154   0.912   5.442   1.524  0.0096 -0.0691  0.1723
  572DG     H2213155   0.610   5.460   1.467  1.4480 -0.4239 -1.5634
  572DG     H2313156   0.723   5.507   1.590  0.8433 -0.3978 -1.5174
  573DG      C113157   5.420   3.355   0.913 -0.5440 -0.7558 -0.1649
  573DG      C213158   4.717   3.601   0.887  0.2710  0.0221 -0.3298
  573DG      H313159   5.459   3.436   0.974 -0.1555  0.0659 -1.4686
  573DG      H413160   5.502   3.337   0.844  0.1990  1.3175  0.1116
  573DG      H513161   5.404   3.265   0.972  0.4385 -1.7527 -1.3821
  573DG      H613162   4.690   3.574   0.989 -2.9809  1.1287 -0.7736
  573DG      H713163   4.775   3.692   0.900  0.3584  0.0313 -0.7673
  573DG      H813164   4.618   3.617   0.843 -1.3972 -2.2637  2.2630
  573DG      O913165   5.300   3.409   0.857  0.1921  0.2745  0.3239
  573DG     O1013166   4.793   3.498   0.831  0.2729  0.0451  0.4558
  573DG     C1113167   5.274   3.346   0.728  0.7248  0.4965  0.1262
  573DG     C1213168   4.824   3.516   0.694 -0.3534 -0.0564 -1.2967
  573DG     H1313169   5.350   3.268   0.714  0.6444  0.4538 -0.0739
  573DG     H1413170   5.298   3.412   0.645 -1.8232  1.7744  0.3282
  573DG     H1513171   4.861   3.613   0.662  1.4965 -0.9379 -1.9493
  573DG     H1613172   4.730   3.514   0.638 -1.7772 -0.4136  0.9583
  573DG     C1713173   5.127   3.306   0.706  0.1868 -0.3622 -0.0376
  573DG     C1813174   4.916   3.405   0.650  0.1036 -0.5393 -0.0185
  573DG     O1913175   5.046   3.423   0.709  0.4187  0.3914  0.1828
  573DG     H2013176   5.104   3.231   0.782  0.2778  0.1433  0.5002
  573DG     H2113177   5.112   3.245   0.618 -1.4004  0.2201 -0.2144
  573DG     H2213178   4.870   3.308   0.667 -0.6644 -0.0324  0.8789
  573DG     H2313179   4.908   3.413   0.542 -0.2539  3.4674  0.1563
  574DG      C113180   5.340   3.941  -0.107  0.2698  0.2601  0.3282
  574DG      C213181   5.260   3.502   0.342  0.3734  0.2440  0.4778
  574DG      H313182   5.352   4.014  -0.027 -0.1073  0.2750  0.3768
  574DG      H413183   5.234   3.915  -0.118 -0.3984  2.8706 -0.0056
  574DG      H513184   5.367   3.992  -0.199  0.8266  0.2772  0.4984
  574DG      H613185   5.199   3.440   0.276  1.0098  0.0197  0.0951
  574DG      H713186   5.287   3.449   0.434  0.3425 -1.9521 -0.7130
  574DG      H813187   5.210   3.597   0.362 -2.1238 -1.1719  1.4694
  574DG      O913188   5.416   3.831  -0.059  0.4901  0.1616 -0.2797
  574DG     O1013189   5.381   3.516   0.271 -0.8192  0.1941 -0.2342
  574DG     C1113190   5.548   3.875  -0.026 -0.2523  0.6253 -0.4160
  574DG     C1213191   5.480   3.580   0.335 -0.0466 -0.5244 -0.1383
  574DG     H1313192   5.543   3.975   0.017 -1.4752  0.5225 -0.2672
  574DG     H1413193   5.606   3.882  -0.118 -0.9499  1.3419 -0.8158
  574DG     H1513194   5.520   3.517   0.414 -1.4466  0.1117  1.1187
  574DG     H1613195   5.436   3.667   0.383 -0.9955 -0.6735 -0.7012
  574DG     C1713196   5.622   3.776   0.070 -0.0265 -0.6459  0.8252
  574DG     C1813197   5.587   3.616   0.236 -0.1613  0.2889 -0.0068
  574DG     O1913198   5.533   3.717   0.151  0.6740 -0.5805  0.6343
  574DG     H2013199   5.709   3.825   0.113 -0.0894  0.1696  0.0583
  574DG     H2113200   5.670   3.698   0.010  0.4818  0.7384 -0.6425
  574DG     H2213201   5.674   3.655   0.288  1.2588 -0.2945 -1.8107
  574DG     H2313202   5.604   3.527   0.174 -1.0742  1.0524 -1.3962
  575DG      C113203   1.819   4.760   4.291  0.2806  0.5674  0.3449
  575DG      C213204   1.408   4.836   4.766  0.1812  0.3457  0.2318
  575DG      H313205   1.871   4.675   4.247  1.0035  1.6075 -0.8898
  575DG      H413206   1.851   4.844   4.229 -0.4776  0.8879  0.3782
  575DG      H513207   1.718   4.745   4.254  0.5406  0.4040 -0.3148
  575DG      H613208   1.339   4.913   4.801 -0.2768  0.6282 -1.2265
  575DG      H713209   1.461   4.865   4.675 -2.2519  0.7963 -1.1333
  575DG      H813210   1.343   4.757   4.729  0.6057  0.3749 -0.6192
  575DG      O913211   1.843   4.791   4.428 -0.5652 -0.6969  0.2519
  575DG     O1013212   1.507   4.803   4.869  0.3001 -0.0573  0.0497
  575DG     C1113213   1.786   4.690   4.512  0.5550  0.5089 -0.8517
  575DG     C1213214   1.601   4.908   4.893 -0.2556 -0.2162  0.1572
  575DG     H1313215   1.838   4.596   4.495  0.4710 -0.0654  1.6233
  575DG     H1413216   1.680   4.676   4.489  0.5255  1.0770 -1.0936
  575DG     H1513217   1.618   4.912   5.001  0.3562  4.1483  0.0685
  575DG     H1613218   1.546   4.994   4.856  0.0121 -0.0211  0.2111
  575DG     C1713219   1.812   4.729   4.661  0.6667 -0.4708 -0.3233
  575DG     C1813220   1.738   4.874   4.824 -0.7388 -0.3113  0.6251
  575DG     O1913221   1.738   4.851   4.683  0.0142 -0.1837  0.2030
  575DG     H2013222   1.916   4.760   4.675 -0.3157  2.8921  0.6933
  575DG     H2113223   1.796   4.644   4.726 -0.1198 -0.2053 -0.1541
  575DG     H2213224   1.807   4.958   4.831 -0.7463 -0.3837  1.5781
  575DG     H2313225   1.778   4.789   4.879  2.7461  0.2479 -0.7641
  576DG      C113226   0.708   2.014   4.758  0.1505 -0.5253  0.3224
  576DG      C213227   1.112   1.756   4.294 -0.7377 -0.7526 -0.5561
  576DG      H313228   0.753   1.959   4.840  0.2321 -0.8337  0.0704
  576DG      H413229   0.612   2.033   4.804 -0.1347  0.3588 -0.5734
  576DG      H513230   0.752   2.114   4.767 -0.7318 -0.0835 -0.1122
  576DG      H613231   1.140   1.681   4.369 -3.9891 -0.8111  0.7654
  576DG      H713232   1.143   1.736   4.192 -0.9303  2.9995 -1.4904
  576DG      H813233   1.171   1.836   4.340 -1.0060 -1.7436  1.6609
  576DG      O913234   0.702   1.960   4.628 -0.0442 -0.1424  0.0247
  576DG     O1013235   0.975   1.782   4.288  0.6638  0.0100  0.2574
  576DG     C1113236   0.622   1.848   4.617  0.0683  0.0709  0.0531
  576DG     C1213237   0.901   1.654   4.283 -0.0462 -0.5821 -0.5224
  576DG     H1313238   0.521   1.861   4.657  0.0577 -4.2408  1.9740
  576DG     H1413239   0.670   1.767   4.672  1.2388  0.5953 -0.1803
  576DG     H1513240   0.932   1.576   4.354 -0.5575 -1.6472 -1.4417
  576DG     H1613241   0.923   1.605   4.188  2.0945 -0.1284 -0.3014
  576DG     C1713242   0.621   1.795   4.474  0.0649 -0.2099 -0.2005
  576DG     C1813243   0.756   1.695   4.303  0.7424  0.0163  0.6562
  576DG     O1913244   0.754   1.762   4.432 -0.1052  0.1422 -0.0831
  576DG     H2013245   0.597   1.884   4.416  0.7148 -0.7458 -1.3395
  576DG     H2113246   0.546   1.718   4.456 -0.2795 -0.2328  1.2202
  576DG     H2213247   0.717   1.762   4.226  1.6960  0.4377  0.5194
  576DG     H2313248   0.693   1.606   4.310 -1.3397  1.0724 -2.3122
  577DG      C113249   4.082   4.386   0.571 -0.2644  0.9171  0.2038
  577DG      C213250   3.601   4.072   1.064  0.3156  0.5830 -0.5180
  577DG      H313251   4.033   4.310   0.511  2.9191 -1.2472  0.0642
  577DG      H413252   4.186   4.379   0.539 -0.5146 -1.8105 -0.2795
  577DG      H513253   4.047   4.484   0.539  3.1759  2.0898 -0.4743
  577DG      H613254   3.613   3.999   1.144 -0.5695  0.7061 -0.2549
  577DG      H713255   3.664   4.160   1.078 -0.9649  1.3651  0.7033
  577DG      H813256   3.494   4.093   1.076 -0.7068 -3.6070 -0.6952
  577DG      O913257   4.075   4.359   0.714  0.0606 -0.2530 -0.4126
  577DG     O1013258   3.610   4.002   0.941 -0.2516 -0.0583 -0.0840
  577DG     C1113259   3.991   4.245   0.737  0.3018  0.1197 -0.4028
  577DG     C1213260   3.549   4.059   0.833  0.0178  0.3517  0.6590
  577DG     H1313261   4.018   4.203   0.833  0.4097 -1.2846 -1.0282
  577DG     H1413262   4.030   4.164   0.675  1.7470 -0.6123  1.3865
  577DG     H1513263   3.445   4.075   0.864 -0.5007  0.8857 -1.2340
  577DG     H1613264   3.547   3.978   0.760  1.7729 -0.2222  1.2014
  577DG     C1713265   3.838   4.265   0.727  0.8255  0.0765 -0.0009
  577DG     C1813266   3.626   4.177   0.774  0.0999  0.6417 -0.4372
  577DG     O1913267   3.767   4.150   0.772 -0.4626 -0.1511  0.4475
  577DG     H2013268   3.805   4.279   0.624  1.0084  2.6106  0.2238
  577DG     H2113269   3.804   4.356   0.776 -0.6366 -1.0013  1.0629
  577DG     H2213270   3.584   4.208   0.678 -0.8722  0.9032  0.0561
  577DG     H2313271   3.604   4.261   0.840  0.1999  1.5405 -1.5147
  578DG      C113272   4.365   0.484   3.328  0.1899  0.5423  0.1425
  578DG      C213273   4.050   0.388   2.809 -0.2418  0.2467  1.1213
  578DG      H313274   4.411   0.537   3.412 -1.3862  1.5229  0.4280
  578DG      H413275   4.389   0.532   3.233 -0.3882 -0.8939 -0.7550
  578DG      H513276   4.411   0.385   3.333  3.0544  1.7976  1.4225
  578DG      H613277   4.034   0.455   2.725 -0.9812 -1.7024 -0.3696
  578DG      H713278   4.142   0.336   2.781 -0.5786 -0.4279  1.2577
  578DG      H813279   3.971   0.317   2.786  2.1513 -1.8318 -1.2670
  578DG      O913280   4.225   0.473   3.327 -0.2849  0.6375  0.0813
  578DG     O1013281   4.059   0.434   2.936  0.2889 -0.2973  0.1151
  578DG     C1113282   4.147   0.586   3.356 -1.5898 -0.2001  0.1518
  578DG     C1213283   3.945   0.505   2.970 -0.0231  0.6126 -0.8308
  578DG     H1313284   4.184   0.660   3.284  1.4969 -1.5361  0.1808
  578DG     H1413285   4.161   0.629   3.456 -1.8258  0.7643 -0.2173
  578DG     H1513286   3.865   0.431   2.972  0.1002  0.3829 -2.5906
  578DG     H1613287   3.929   0.575   2.888 -1.2921 -0.0569 -1.1793
  578DG     C1713288   3.999   0.549   3.337 -0.0183  0.2622  0.2589
  578DG     C1813289   3.961   0.571   3.103 -0.2741  0.7493  0.4043
  578DG     O1913290   3.982   0.486   3.209 -0.1094 -0.0660 -0.3975
  578DG     H2013291   3.926   0.630   3.345 -1.1074 -0.6324 -0.3262
  578DG     H2113292   3.972   0.494   3.428 -1.5399  0.9525  0.2547
  578DG     H2213293   4.036   0.648   3.085 -0.3227  0.8212  0.5107
  578DG     H2313294   3.874   0.634   3.121 -1.5765 -1.0684  0.6555
  579DG      C113295   2.882   2.851   5.118  0.2947  0.0128  0.0113
  579DG      C213296   2.242   2.385   4.849 -0.2087 -0.2470  0.0899
  579DG      H313297   2.984   2.886   5.133  0.0171  0.4588  0.9175
  579DG      H413298   2.850   2.811   5.214  2.2066 -0.6459  0.4057
  579DG      H513299   2.819   2.935   5.087  2.1860  0.8047 -1.9579
  579DG      H613300   2.195   2.480   4.823  0.6896 -0.0744 -0.9934
  579DG      H713301   2.216   2.316   4.769  1.5227 -0.9226  0.0631
  579DG      H813302   2.188   2.356   4.939  0.9013 -2.4702  0.1022
  579DG      O913303   2.877   2.757   5.015 -0.6462  0.0852 -1.0803
  579DG     O1013304   2.384   2.396   4.881  0.3583 -0.1521 -0.1297
  579DG     C1113305   2.749   2.702   4.996 -0.1152 -0.0654  0.0408
  579DG     C1213306   2.462   2.403   4.756 -0.4782 -0.4388 -0.1309
  579DG     H1313307   2.669   2.769   4.965  1.3713  2.2192  0.8634
  579DG     H1413308   2.712   2.661   5.091 -1.8254  2.0142  0.3427
  579DG     H1513309   2.422   2.487   4.700  0.8098 -0.3523 -0.9699
  579DG     H1613310   2.455   2.314   4.694  3.2626  0.1865 -1.6814
  579DG     C1713311   2.750   2.585   4.897 -0.8783  0.6566 -0.0870
  579DG     C1813312   2.610   2.427   4.783  0.1223  0.2919 -0.0463
  579DG     O1913313   2.615   2.533   4.879 -0.3438  0.5047 -0.2311
  579DG     H2013314   2.818   2.505   4.927 -0.8490  0.6504 -0.1693
  579DG     H2113315   2.795   2.621   4.804  0.4910 -3.0672 -1.0778
  579DG     H2213316   2.654   2.338   4.828 -0.7138  0.6177  1.5277
  579DG     H2313317   2.658   2.455   4.690  0.0426 -0.7300 -0.4064
  580DG      C113318   5.693   0.172   4.715  0.4231 -0.7540  0.3193
  580DG      C213319   5.316   0.503   5.374  0.5517 -0.2182  0.4550
  580DG      H313320   5.771   0.185   4.791 -1.3712 -0.4215  2.1892
  580DG      H413321   5.685   0.267   4.662  1.0706 -1.1611 -0.5368
  580DG      H513322   5.721   0.112   4.629  2.2610 -1.7493  1.5247
  580DG      H613323   5.350   0.600   5.339  1.5685  0.0714  2.1318
  580DG      H713324   5.216   0.517   5.416  0.1267 -1.7902  0.0412
  580DG      H813325   5.384   0.479   5.456  0.7613 -1.6352 -0.0970
  580DG      O913326   5.566   0.143   4.774  0.2615 -0.6463 -0.4802
  580DG     O1013327   5.322   0.408   5.269  0.0310  0.2711  0.4511
  580DG     C1113328   5.522   0.232   4.882 -0.8074 -0.5769  1.1335
  580DG     C1213329   5.310   0.277   5.306 -0.0489 -0.7598  0.0254
  580DG     H1313330   5.500   0.332   4.845 -0.9666 -0.9956  0.0754
  580DG     H1413331   5.614   0.244   4.941 -0.8272 -1.9360  1.4804
  580DG     H1513332   5.212   0.267   5.353 -1.0453  0.1871 -1.7563
  580DG     H1613333   5.395   0.260   5.372  1.0120  1.1814 -0.7564
  580DG     C1713334   5.409   0.173   4.964  0.3808  0.7854 -0.0117
  580DG     C1813335   5.300   0.204   5.172 -0.0523 -0.2795  0.1768
  580DG     O1913336   5.421   0.227   5.096  0.3294 -0.2284  0.2731
  580DG     H2013337   5.409   0.064   4.961 -0.9623  0.7862 -1.0971
  580DG     H2113338   5.313   0.197   4.919  1.1691  2.2346 -0.9919
  580DG     H2213339   5.268   0.102   5.191 -1.9083  0.1638 -0.4694
  580DG     H2313340   5.214   0.242   5.118  1.4562  1.1106 -1.3452
  581DG      C113341   0.918   0.515   4.817 -0.3212 -0.7530 -0.2862
  581DG      C213342   0.485   0.585   4.247 -0.2098 -0.2498 -0.3455
  581DG      H313343   0.865   0.595   4.869  1.0485 -0.1803  0.2651
  581DG      H413344   1.021   0.544   4.839 -0.5684 -0.5220  0.6051
  581DG      H513345   0.911   0.418   4.865  0.6872 -0.4745  0.4579
  581DG      H613346   0.434   0.661   4.306  0.2207  1.5482 -2.1927
  581DG      H713347   0.468   0.600   4.141 -1.0535  2.1756  0.0773
  581DG      H813348   0.437   0.495   4.286 -1.5239  1.0937  1.3004
  581DG      O913349   0.884   0.528   4.677 -0.2229 -0.1085  0.2957
  581DG     O1013350   0.624   0.570   4.279 -0.1929 -0.0385  0.3501
  581DG     C1113351   0.960   0.437   4.594 -0.1369  0.3545  1.2729
  581DG     C1213352   0.684   0.456   4.211  1.1720 -0.3396 -0.2098
  581DG     H1313353   0.919   0.337   4.606 -0.8611  0.0985 -2.2914
  581DG     H1413354   1.061   0.436   4.634  0.7421  0.4747 -0.8396
  581DG     H1513355   0.686   0.463   4.102 -1.4128  0.4627 -0.2599
  581DG     H1613356   0.637   0.360   4.233  0.9803 -0.5974 -1.6313
  581DG     C1713357   0.954   0.470   4.445 -0.3975 -0.2823 -1.0713
  581DG     C1813358   0.824   0.460   4.259  0.3674 -0.5663  0.8850
  581DG     O1913359   0.822   0.455   4.399 -0.4927  0.2147  0.5637
  581DG     H2013360   1.009   0.391   4.394  0.8051 -0.1299 -0.0657
  581DG     H2113361   0.997   0.569   4.428  1.6625 -0.6541  1.2916
  581DG     H2213362   0.886   0.383   4.212 -1.4885 -1.8360  0.3867
  581DG     H2313363   0.854   0.558   4.224 -1.0602 -0.2275  0.5124
  582DG      C113364   1.814   5.584   0.723  0.4856 -0.1709 -0.3679
  582DG      C213365   2.422   5.175   0.720 -0.4351  0.3123 -0.1318
  582DG      H313366   1.781   5.679   0.763  1.6001 -0.4644  1.3491
  582DG      H413367   1.753   5.502   0.762 -1.3080  1.7411  1.0391
  582DG      H513368   1.809   5.590   0.614  1.1479  0.2188 -0.3803
  582DG      H613369   2.478   5.146   0.631 -0.7447 -1.6242  0.2655
  582DG      H713370   2.469   5.133   0.809  1.3210  0.5445 -0.9086
  582DG      H813371   2.325   5.125   0.718 -1.1206  1.6048 -1.6029
  582DG      O913372   1.947   5.567   0.759  0.4603 -0.0930 -0.3852
  582DG     O1013373   2.394   5.317   0.735  0.5032 -0.0891 -0.1051
  582DG     C1113374   2.025   5.673   0.709  0.1622 -0.7336  0.2141
  582DG     C1213375   2.295   5.346   0.834 -0.6907 -0.1367 -0.1194
  582DG     H1313376   1.979   5.770   0.727 -0.2007 -1.1720  1.7995
  582DG     H1413377   2.022   5.675   0.600  1.0667 -0.2343  0.1887
  582DG     H1513378   2.331   5.306   0.929  1.1370  0.6927 -0.4180
  582DG     H1613379   2.195   5.305   0.824 -0.1981 -1.5857  0.5634
  582DG     C1713380   2.154   5.665   0.774  0.1972  0.0815 -0.0430
  582DG     C1813381   2.298   5.497   0.842 -0.0703 -0.3969  0.2397
  582DG     O1913382   2.220   5.543   0.742 -0.8151 -0.4300  0.2531
  582DG     H2013383   2.135   5.686   0.879 -0.1539  1.4735 -0.3785
  582DG     H2113384   2.222   5.743   0.739 -1.2810  1.3125 -0.2213
  582DG     H2213385   2.262   5.525   0.941 -0.9480 -1.8662  0.3532
  582DG     H2313386   2.401   5.535   0.839 -0.5125  0.8192 -0.6223
  583DG      C113387   2.236   4.996   3.705 -0.1243 -0.0921 -0.2737
  583DG      C213388   2.025   4.361   3.934 -0.3539  0.2138  0.0670
  583DG      H313389   2.336   5.036   3.689  0.7583 -1.4345  1.4427
  583DG      H413390   2.239   4.978   3.813 -0.9725  0.9847 -0.0564
  583DG      H513391   2.162   5.072   3.681  0.9653  0.6080 -1.5625
  583DG      H613392   2.032   4.269   3.877 -1.7188 -2.7062  4.1417
  583DG      H713393   1.990   4.331   4.033 -0.6056  0.9364  0.2058
  583DG      H813394   1.947   4.415   3.880 -0.9896  0.4836  1.2054
  583DG      O913395   2.216   4.876   3.632  0.3299  0.0621  0.0208
  583DG     O1013396   2.138   4.449   3.928 -0.0959  0.1132 -0.4220
  583DG     C1113397   2.075   4.835   3.617 -0.4995  0.0756  0.2158
  583DG     C1213398   2.206   4.431   3.805  0.3776 -0.6094  0.1166
  583DG     H1313399   2.040   4.884   3.526  0.7547  1.6889  0.5463
  583DG     H1413400   2.011   4.876   3.695  0.3702  0.1461  0.9140
  583DG     H1513401   2.243   4.328   3.807  0.1459 -0.6884  0.4197
  583DG     H1613402   2.297   4.485   3.830 -0.2066  1.6220 -2.1037
  583DG     C1713403   2.075   4.689   3.593  0.8608  0.7874 -0.3508
  583DG     C1813404   2.140   4.488   3.680 -1.1093  0.7120 -0.3953
  583DG     O1913405   2.119   4.628   3.711  0.6923  0.1773  0.1284
  583DG     H2013406   2.137   4.670   3.506  0.6372  0.2227 -0.3911
  583DG     H2113407   1.971   4.664   3.571  0.8528  0.7072 -0.2212
  583DG     H2213408   2.203   4.473   3.592  0.8773  1.9348  0.7595
  583DG     H2313409   2.044   4.438   3.665 -0.0300 -1.3756 -0.7066
  584DG      C113410   4.533   3.331   2.522  0.2984  0.1783  0.2589
  584DG      C213411   4.341   3.901   2.583  0.0167 -0.3262 -0.1254
  584DG      H313412   4.596   3.287   2.445  0.3338 -0.4844  0.6620
  584DG      H413413   4.442   3.273   2.505  1.8431 -2.3158 -0.1036
  584DG      H513414   4.556   3.299   2.623 -1.9246 -1.1018  0.4323
  584DG      H613415   4.361   3.942   2.484 -1.0469  2.5103  0.7251
  584DG      H713416   4.350   3.793   2.584 -0.7958 -0.4652 -2.6929
  584DG      H813417   4.239   3.933   2.601  0.1216  1.0003 -1.6641
  584DG      O913418   4.508   3.469   2.517  0.0011  0.0748  0.0717
  584DG     O1013419   4.423   3.965   2.685  0.4916  0.0073  0.4668
  584DG     C1113420   4.625   3.543   2.500 -0.3869  0.6775  0.2359
  584DG     C1213421   4.557   3.973   2.655  0.4644  0.3869 -0.0931
  584DG     H1313422   4.654   3.534   2.395  1.7841  0.0131  0.8320
  584DG     H1413423   4.707   3.500   2.558  1.1174  2.2272 -0.6502
  584DG     H1513424   4.589   4.066   2.702  4.6155 -0.3158 -1.1204
  584DG     H1613425   4.580   3.998   2.551  1.3218 -2.2684 -0.6260
  584DG     C1713426   4.616   3.695   2.538  0.1521 -0.2486  0.3139
  584DG     C1813427   4.637   3.849   2.713  0.1115 -0.2968  0.2089
  584DG     O1913428   4.589   3.720   2.670  0.0462  0.0317 -0.5724
  584DG     H2013429   4.550   3.751   2.471  0.6481  1.3792  1.1225
  584DG     H2113430   4.709   3.744   2.512 -0.7962  0.6558 -1.5961
  584DG     H2213431   4.744   3.866   2.697 -0.0495  0.9642  0.3569
  584DG     H2313432   4.631   3.857   2.821 -0.3049 -1.3406  0.2720
  585DG      C113433   0.918   3.603   3.296 -0.4772  0.7771  0.1136
  585DG      C213434   0.289   3.663   3.105  0.7194 -0.6362  0.3238
  585DG      H313435   0.948   3.692   3.352 -1.7821  1.2280  0.1450
  585DG      H413436   0.956   3.614   3.195  2.0828 -4.2342  0.2612
  585DG      H513437   0.971   3.513   3.328  0.9235  1.4155 -0.3511
  585DG      H613438   0.196   3.613   3.075  0.1758 -0.1066  1.0996
  585DG      H713439   0.257   3.747   3.166  1.5213 -1.1623  1.4982
  585DG      H813440   0.329   3.699   3.010  0.8180  0.3188  0.7229
  585DG      O913441   0.780   3.591   3.308  0.0338  0.1720  0.0790
  585DG     O1013442   0.381   3.582   3.168 -0.3361  0.2470  0.4872
  585DG     C1113443   0.743   3.553   3.444  0.3468 -0.2897 -0.1048
  585DG     C1213444   0.333   3.536   3.295 -0.7073  0.5723  0.0176
  585DG     H1313445   0.779   3.617   3.524 -0.2460  0.1353 -0.1713
  585DG     H1413446   0.789   3.458   3.470 -1.3808 -0.7567  1.5001
  585DG     H1513447   0.229   3.506   3.279 -0.8351  0.8130  0.3831
  585DG     H1613448   0.340   3.613   3.371  1.1559 -0.1880  0.6810
  585DG     C1713449   0.592   3.520   3.456  0.4534 -0.3495  0.3532
  585DG     C1813450   0.412   3.414   3.345  0.8628 -0.1015 -0.3176
  585DG     O1913451   0.548   3.436   3.352  0.4584 -0.8870  0.7139
  585DG     H2013452   0.541   3.616   3.450 -1.8056 -1.5504 -1.2118
  585DG     H2113453   0.555   3.482   3.551  0.1517 -0.8386  0.0466
  585DG     H2213454   0.368   3.388   3.442  0.3147 -1.2909 -0.8550
  585DG     H2313455   0.397   3.320   3.291 -0.8502  0.3651 -0.7328
  586DG      C113456   1.106   1.772   4.663  0.1301  0.7195 -0.5812
  586DG      C213457   0.867   2.055   4.080 -0.4262  0.0940 -0.2757
  586DG      H313458   1.040   1.693   4.629  0.1338  0.9701 -1.1896
  586DG      H413459   1.086   1.778   4.769  1.5679  0.2541 -0.2560
  586DG      H513460   1.208   1.738   4.643 -0.2929 -1.1896  0.3034
  586DG      H613461   0.822   2.146   4.040 -0.6911 -0.0158 -0.2337
  586DG      H713462   0.952   2.025   4.020  0.0763 -1.6530  1.1935
  586DG      H813463   0.796   1.972   4.075 -3.5048  2.5760 -1.3777
  586DG      O913464   1.079   1.887   4.597 -0.0392 -0.0617  0.3250
  586DG     O1013465   0.908   2.077   4.214  0.0079 -0.0269 -0.1618
  586DG     C1113466   1.134   2.004   4.662 -0.1563  0.9850  0.0865
  586DG     C1213467   0.998   2.193   4.227 -0.3944  0.6867 -0.7863
  586DG     H1313468   1.242   2.014   4.660 -0.1232  0.6766 -1.4204
  586DG     H1413469   1.096   2.012   4.763  1.5757  1.8762  0.7075
  586DG     H1513470   0.942   2.280   4.191  0.3273  1.3034 -0.4500
  586DG     H1613471   1.081   2.170   4.160  0.1815 -0.0522  0.1490
  586DG     C1713472   1.075   2.129   4.589  0.0049  0.2337  0.2003
  586DG     C1813473   1.053   2.225   4.363 -0.1449 -0.5444 -0.9507
  586DG     O1913474   1.077   2.113   4.448  0.1015 -0.2813 -0.1948
  586DG     H2013475   1.128   2.214   4.631  0.7280 -0.7386  1.3008
  586DG     H2113476   0.971   2.130   4.623 -0.1279 -0.6913 -0.1711
  586DG     H2213477   1.141   2.288   4.348 -1.6318  1.3544 -2.2212
  586DG     H2313478   0.974   2.284   4.411 -0.8976 -1.5000 -0.9883
  587DG      C113479   3.591   5.054   3.250  0.1479 -0.2419  0.1021
  587DG      C213480   3.560   4.447   2.818 -0.1498 -0.3826  0.8145
  587DG      H313481   3.627   5.038   3.351 -0.4421 -0.2061  0.3244
  587DG      H413482   3.555   5.157   3.248  0.9053  0.0541  1.1179
  587DG      H513483   3.673   5.040   3.180  0.2567 -0.9526  0.3653
  587DG      H613484   3.662   4.454   2.779 -0.4835  2.3119  0.2034
  587DG      H713485   3.558   4.342   2.844  1.3118 -0.3365  1.2073
  587DG      H813486   3.493   4.479   2.738  0.5131 -0.3066  0.2749
  587DG      O913487   3.470   4.972   3.218 -0.1279 -0.6327 -0.9660
  587DG     O1013488   3.550   4.534   2.938 -0.2784  0.4596 -0.6548
  587DG     C1113489   3.451   4.982   3.076  0.0517  0.2780 -0.4834
  587DG     C1213490   3.428   4.518   3.007 -0.2916  0.3484 -0.3321
  587DG     H1313491   3.543   4.962   3.020  0.5435  0.8858  0.0907
  587DG     H1413492   3.427   5.085   3.051 -2.0990 -0.3196 -1.0953
  587DG     H1513493   3.436   4.514   3.115 -0.5549 -0.3198 -0.3346
  587DG     H1613494   3.373   4.430   2.974 -0.0627 -0.1606  0.6038
  587DG     C1713495   3.339   4.884   3.028  0.2733  0.0611  0.5327
  587DG     C1813496   3.338   4.647   2.989 -0.0467  0.4000  0.2729
  587DG     O1913497   3.399   4.756   3.050 -0.9981  0.0162 -0.2210
  587DG     H2013498   3.311   4.893   2.923  1.8084 -0.7103  0.0231
  587DG     H2113499   3.251   4.886   3.092  0.4688 -0.5954  0.8259
  587DG     H2213500   3.326   4.668   2.882 -0.8437  1.6965  0.5956
  587DG     H2313501   3.235   4.632   3.022 -0.4558  0.0393 -1.0831
  588DG      C113502   3.463   1.408   0.731  0.6516  0.2483 -0.4136
  588DG      C213503   4.102   1.612   0.773 -0.0067  0.8313  0.2026
  588DG      H313504   3.469   1.476   0.646 -2.4500  2.5485  0.9962
  588DG      H413505   3.421   1.466   0.813  1.2187 -1.3928  1.1064
  588DG      H513506   3.395   1.326   0.708  1.6085 -1.0560  1.1572
  588DG      H613507   4.001   1.652   0.766 -1.0366 -1.6621 -0.4225
  588DG      H713508   4.151   1.659   0.858  0.2508 -1.3998  1.3690
  588DG      H813509   4.168   1.645   0.693  0.5660  0.5189  0.5353
  588DG      O913510   3.584   1.358   0.780  0.1395 -0.3725  0.3573
  588DG     O1013511   4.112   1.465   0.780  0.0134 -0.0616  0.1021
  588DG     C1113512   3.642   1.254   0.702 -0.3746  0.6887  0.6232
  588DG     C1213513   4.042   1.433   0.902 -0.1438 -1.3746 -0.2548
  588DG     H1313514   3.660   1.271   0.595 -1.8332  1.2928  0.4570
  588DG     H1413515   3.576   1.168   0.701 -0.6231  0.7638 -2.8956
  588DG     H1513516   3.983   1.514   0.943 -1.6497 -1.8398 -1.4148
  588DG     H1613517   4.126   1.429   0.972 -0.0426 -0.6049 -0.3271
  588DG     C1713518   3.780   1.212   0.760 -0.2846 -0.0048 -0.3172
  588DG     C1813519   3.960   1.308   0.888  0.4122  0.0623 -0.7319
  588DG     O1913520   3.859   1.331   0.789  0.2947 -0.2943  0.1597
  588DG     H2013521   3.826   1.143   0.689 -0.1029 -0.0122 -0.1917
  588DG     H2113522   3.777   1.156   0.854 -0.0094  1.3505  0.5335
  588DG     H2213523   4.021   1.219   0.875  2.0513  0.4139  3.2730
  588DG     H2313524   3.915   1.279   0.983  2.4858  1.1778  0.6585
  589DG      C113525   1.924   2.103   3.683 -0.3682 -0.4364 -0.1095
  589DG      C213526   1.835   1.366   3.457 -0.2612  0.0575 -0.3571
  589DG      H313527   1.995   2.126   3.762  1.5222  0.9908 -2.0996
  589DG      H413528   1.827   2.121   3.730  0.0064  0.4157  0.3503
  589DG      H513529   1.949   2.169   3.600  0.2708 -0.8817 -0.2747
  589DG      H613530   1.739   1.376   3.407 -0.9469  0.8047  1.0622
  589DG      H713531   1.890   1.275   3.432 -1.3173 -0.1883 -2.0040
  589DG      H813532   1.806   1.365   3.562 -1.5187 -1.4854 -0.6758
  589DG      O913533   1.954   1.974   3.646 -0.2376 -0.0586 -0.0483
  589DG     O1013534   1.916   1.485   3.438 -0.5789  0.1510 -0.6484
  589DG     C1113535   2.096   1.947   3.633  0.2755  0.0427  0.1659
  589DG     C1213536   2.054   1.473   3.483  1.0481  0.3488 -0.0640
  589DG     H1313537   2.131   1.920   3.732 -0.2052 -1.9549 -0.1636
  589DG     H1413538   2.146   2.041   3.610 -0.6202  0.4031 -0.3394
  589DG     H1513539   2.107   1.394   3.430  0.7207  0.8430 -1.1508
  589DG     H1613540   2.058   1.435   3.586  1.8864 -2.7975 -1.1434
  589DG     C1713541   2.142   1.837   3.533 -0.1361 -0.8294  0.0813
  589DG     C1813542   2.127   1.608   3.470  0.0924  0.1594  0.0644
  589DG     O1913543   2.068   1.712   3.542  0.5846  0.2510  0.3406
  589DG     H2013544   2.247   1.817   3.550  0.1238 -0.8131 -1.4168
  589DG     H2113545   2.149   1.870   3.430  1.7862 -1.3863  0.0088
  589DG     H2213546   2.222   1.587   3.519 -0.4351  0.6948  1.3563
  589DG     H2313547   2.162   1.617   3.367  1.1734 -1.5644  0.2466
  590DG      C113548   4.156   3.386   1.115 -0.6285 -0.2133  0.3996
  590DG      C213549   4.188   3.826   0.588  0.3532 -0.2184 -0.4531
  590DG      H313550   4.178   3.288   1.158 -0.5169 -0.7145 -0.7629
  590DG      H413551   4.056   3.372   1.072 -0.1641 -0.9213 -0.4821
  590DG      H513552   4.145   3.451   1.202 -1.4138  2.0694 -1.3205
  590DG      H613553   4.219   3.851   0.487 -1.3846  1.3477 -0.6395
  590DG      H713554   4.089   3.782   0.587  0.7714 -1.2328  0.3424
  590DG      H813555   4.192   3.920   0.643  2.1889  0.9865 -2.4772
  590DG      O913556   4.240   3.438   1.014  0.2670 -0.3879 -0.3257
  590DG     O1013557   4.267   3.732   0.648  0.1622  0.9965 -0.2441
  590DG     C1113558   4.284   3.336   0.929 -0.0385 -0.4477  0.2722
  590DG     C1213559   4.291   3.615   0.567  0.1366  0.0154  0.4711
  590DG     H1313560   4.199   3.290   0.879 -0.1391  0.6222 -0.5609
  590DG     H1413561   4.325   3.257   0.993 -0.1688 -0.8937 -0.1939
  590DG     H1513562   4.349   3.643   0.479 -0.8777  1.8073  0.3154
  590DG     H1613563   4.204   3.570   0.521  1.9637 -0.9974 -2.2805
  590DG     C1713564   4.381   3.397   0.830 -0.3070 -0.1679 -0.2365
  590DG     C1813565   4.380   3.519   0.634 -0.2267 -0.0897  0.1454
  590DG     O1913566   4.308   3.485   0.748  0.3151  0.6362  0.4424
  590DG     H2013567   4.434   3.320   0.775  2.3343  1.7774 -0.5962
  590DG     H2113568   4.464   3.447   0.879  0.2941 -0.5981 -0.7946
  590DG     H2213569   4.396   3.434   0.567  1.3956  0.5238 -0.2659
  590DG     H2313570   4.476   3.561   0.662  0.8766 -2.2810 -0.1104
  591DG      C113571   4.703   1.205   2.683  0.3327 -0.2490  0.8342
  591DG      C213572   4.211   1.407   2.249 -0.1795  0.4378  0.4443
  591DG      H313573   4.750   1.281   2.746  0.5056  1.4017 -1.1719
  591DG      H413574   4.761   1.195   2.591 -2.0078  0.5554 -0.8022
  591DG      H513575   4.692   1.109   2.734  0.2880 -0.9022 -0.3812
  591DG      H613576   4.218   1.511   2.278 -1.6320  1.5479 -2.6595
  591DG      H713577   4.295   1.386   2.183  1.8356  0.2096  2.9507
  591DG      H813578   4.114   1.386   2.203  0.7040 -0.0936 -1.2542
  591DG      O913579   4.566   1.228   2.652  0.6247  0.3256 -0.0263
  591DG     O1013580   4.228   1.329   2.360 -0.9527 -0.2096 -0.0271
  591DG     C1113581   4.481   1.245   2.765 -0.3058  0.3886 -0.3307
  591DG     C1213582   4.124   1.344   2.459 -0.0943 -0.6392 -0.1711
  591DG     H1313583   4.494   1.330   2.832 -2.5984 -0.9172  1.9537
  591DG     H1413584   4.487   1.168   2.842 -0.5670  1.0566  0.3776
  591DG     H1513585   4.033   1.305   2.414 -0.2089  0.4713 -0.9468
  591DG     H1613586   4.106   1.449   2.485 -1.7538 -0.4072 -2.0360
  591DG     C1713587   4.335   1.215   2.721 -0.3240 -0.0570  0.4285
  591DG     C1813588   4.168   1.259   2.574 -0.9968  0.4175 -0.0995
  591DG     O1913589   4.299   1.289   2.608  0.5065 -0.5003 -0.1753
  591DG     H2013590   4.264   1.236   2.800 -2.1053  0.2443 -1.1718
  591DG     H2113591   4.324   1.109   2.695 -2.7454  0.3001 -0.1797
  591DG     H2213592   4.112   1.295   2.661 -0.5384  0.0736  0.3438
  591DG     H2313593   4.153   1.153   2.555 -2.5311  0.2960  1.5156
  592DG      C113594   3.315   2.746  -0.026  0.5257  0.6349  0.3214
  592DG      C213595   3.429   1.963  -0.086  0.7476 -0.6475 -0.8997
  592DG      H313596   3.214   2.736  -0.064  0.8706  0.3302 -0.5413
  592DG      H413597   3.374   2.766  -0.115 -2.8916 -2.5244 -2.9866
  592DG      H513598   3.309   2.838   0.032  2.4983  0.4829  0.8349
  592DG      H613599   3.505   1.972  -0.164  0.9903  1.0745 -0.4950
  592DG      H713600   3.449   1.874  -0.026 -2.0509 -0.4542  0.5126
  592DG      H813601   3.331   1.958  -0.135 -0.6997 -0.8595  1.8009
  592DG      O913602   3.356   2.624   0.044  0.2611 -0.0225  0.0419
  592DG     O1013603   3.423   2.081  -0.013  0.1709  0.1881 -0.1608
  592DG     C1113604   3.490   2.617   0.086  0.1012 -0.3901 -0.1712
  592DG     C1213605   3.535   2.117   0.064 -0.5011  0.1046 -0.3817
  592DG     H1313606   3.513   2.697   0.157  0.4838 -0.7380  0.1032
  592DG     H1413607   3.555   2.622  -0.001  0.4478  1.4163  0.1481
  592DG     H1513608   3.624   2.144   0.006 -0.8389 -1.2029 -1.5495
  592DG     H1613609   3.566   2.040   0.134 -2.8121  1.4407  2.3151
  592DG     C1713610   3.504   2.481   0.157  0.2645  0.2817  0.9986
  592DG     C1813611   3.500   2.237   0.140  0.2199 -0.7169 -0.6516
  592DG     O1913612   3.502   2.358   0.073 -0.1400 -0.0427 -0.2420
  592DG     H2013613   3.431   2.477   0.238  1.3777 -0.0596  2.0155
  592DG     H2113614   3.597   2.485   0.214  0.8722  1.6121 -0.0108
  592DG     H2213615   3.404   2.223   0.190 -0.7820  0.0973 -2.2811
  592DG     H2313616   3.581   2.233   0.213 -1.9204 -1.5044  1.8899
  593DG      C113617   0.824   4.358   1.915 -0.0957  0.5393  0.1487
  593DG      C213618   0.634   5.062   1.801  0.2408 -0.0342 -0.0182
  593DG      H313619   0.895   4.378   1.995  2.7102 -0.4326 -1.9141
  593DG      H413620   0.863   4.275   1.856  1.6587  1.2171  0.2950
  593DG      H513621   0.726   4.330   1.953  0.5913 -0.0694  1.5009
  593DG      H613622   0.663   5.135   1.876 -0.7094  1.7686 -1.3303
  593DG      H713623   0.653   5.123   1.713  2.8759  0.2829  0.6880
  593DG      H813624   0.528   5.037   1.809  0.4769 -1.2420 -0.4517
  593DG      O913625   0.824   4.467   1.826  0.1291  0.1696 -0.2084
  593DG     O1013626   0.712   4.943   1.817 -0.1556 -0.6344 -1.1133
  593DG     C1113627   0.734   4.442   1.713  0.0609 -0.1074 -0.3072
  593DG     C1213628   0.747   4.881   1.699 -0.7449  0.4451 -0.0504
  593DG     H1313629   0.638   4.398   1.738  0.2711 -1.4422 -1.6813
  593DG     H1413630   0.780   4.370   1.646 -0.0336 -0.3958 -0.0624
  593DG     H1513631   0.836   4.825   1.730 -0.4547  0.1667 -1.3388
  593DG     H1613632   0.768   4.946   1.615 -0.5666 -0.0205 -0.3721
  593DG     C1713633   0.715   4.571   1.643 -0.3664  0.7921 -0.3033
  593DG     C1813634   0.640   4.786   1.647 -0.8197 -1.1853  0.5011
  593DG     O1913635   0.644   4.666   1.714  0.2846  0.0708 -0.3969
  593DG     H2013636   0.665   4.544   1.549  1.0544 -1.0002 -0.5881
  593DG     H2113637   0.810   4.609   1.607 -0.1717  0.0988 -0.5442
  593DG     H2213638   0.539   4.823   1.662 -0.6425 -0.2810 -0.4116
  593DG     H2313639   0.644   4.776   1.538 -0.0136 -1.2419  0.5295
  594DG      C113640   0.671   2.872   0.210 -0.7733 -0.0950  0.8966
  594DG      C213641   0.436   3.345  -0.262  0.7969 -0.2235  0.6152
  594DG      H313642   0.734   2.862   0.121  1.2593  1.2196  2.1030
  594DG      H413643   0.599   2.792   0.222 -0.6941 -0.3244 -0.0613
  594DG      H513644   0.738   2.860   0.295  1.5540  1.6554 -0.5649
  594DG      H613645   0.356   3.270  -0.260  0.4869  0.0617 -0.4063
  594DG      H713646   0.393   3.442  -0.287  0.2268 -0.4995  0.5009
  594DG      H813647   0.516   3.335  -0.335  0.6786  1.0886  0.2810
  594DG      O913648   0.602   2.997   0.230  0.3715 -0.0879  0.2188
  594DG     O1013649   0.490   3.351  -0.136 -0.1556 -0.3555  0.3849
  594DG     C1113650   0.683   3.108   0.218  0.3993 -0.6084 -0.1310
  594DG     C1213651   0.403   3.396  -0.037  0.3362 -0.1069  0.4911
  594DG     H1313652   0.745   3.102   0.128 -0.6717  0.2767 -0.9520
  594DG     H1413653   0.751   3.099   0.303 -2.0369  2.1853  2.3715
  594DG     H1513654   0.319   3.327  -0.029  2.6031 -3.1048  0.4433
  594DG     H1613655   0.360   3.491  -0.067  1.3605  0.4983  0.8990
  594DG     C1713656   0.604   3.243   0.222 -0.2509 -0.4658 -0.1537
  594DG     C1813657   0.486   3.385   0.092  0.3554 -0.2914 -0.3449
  594DG     O1913658   0.540   3.254   0.106  0.0470 -0.0140  0.7711
  594DG     H2013659   0.677   3.323   0.240  1.5283 -2.1528  0.5732
  594DG     H2113660   0.531   3.245   0.303 -0.9384 -0.2523 -0.7777
  594DG     H2213661   0.573   3.451   0.083  0.4163 -0.1353  1.1521
  594DG     H2313662   0.426   3.405   0.181  3.1400  0.4878  1.4902
  595DG      C113663   5.032   3.792   1.056  0.0143 -0.1387 -0.2739
  595DG      C213664   5.474   4.147   0.835  0.2779 -0.0518 -0.0743
  595DG      H313665   4.997   3.699   1.100  0.7839 -0.4763 -0.3582
  595DG      H413666   4.936   3.831   1.022 -1.4728 -1.5859  1.9719
  595DG      H513667   5.057   3.863   1.135 -2.7112  0.6518 -0.0283
  595DG      H613668   5.555   4.194   0.779  0.0383  0.6583  0.1675
  595DG      H713669   5.387   4.212   0.839  0.2179 -0.1653  0.8254
  595DG      H813670   5.513   4.157   0.937  0.6045  1.0765 -0.2964
  595DG      O913671   5.134   3.790   0.962 -0.1376 -0.5041 -0.5331
  595DG     O1013672   5.467   4.011   0.805  0.2467  0.3303  0.9764
  595DG     C1113673   5.102   3.725   0.841  0.2694  0.2116 -0.9834
  595DG     C1213674   5.453   3.993   0.659  0.4075  0.5440  0.5047
  595DG     H1313675   5.014   3.766   0.791  1.1042  2.1220 -1.0111
  595DG     H1413676   5.083   3.618   0.850 -0.9240  0.5585  1.8143
  595DG     H1513677   5.553   3.998   0.617 -0.3688  2.1303 -1.3015
  595DG     H1613678   5.396   4.070   0.608  1.6134  0.9641 -0.2290
  595DG     C1713679   5.217   3.722   0.733  0.3279  0.2504  0.5475
  595DG     C1813680   5.395   3.852   0.639 -0.5753 -0.4379  0.0970
  595DG     O1913681   5.270   3.854   0.701  0.4673  0.2768 -0.3477
  595DG     H2013682   5.184   3.664   0.647 -1.3097  2.6915 -0.5862
  595DG     H2113683   5.290   3.654   0.777 -0.4013 -1.8499 -1.2740
  595DG     H2213684   5.365   3.825   0.538 -0.0671 -2.3095  0.4025
  595DG     H2313685   5.460   3.777   0.685 -1.0927 -0.1124  1.4217
  596DG      C113686   1.152   2.882   5.135  0.8821  0.6285  0.4707
  596DG      C213687   1.833   2.809   5.244  0.0740 -0.0021  0.0486
  596DG      H313688   1.199   2.971   5.176  2.7027  0.0766 -0.3237
  596DG      H413689   1.100   2.819   5.208  0.3627  0.0862 -0.3466
  596DG      H513690   1.078   2.913   5.061  2.6112  2.7570 -0.4637
  596DG      H613691   1.914   2.853   5.187  1.3134 -1.0372  0.9584
  596DG      H713692   1.784   2.887   5.301  4.1030  0.7555  2.8973
  596DG      H813693   1.871   2.737   5.317  2.0459 -0.5522 -1.4353
  596DG      O913694   1.253   2.812   5.077  0.0227 -0.0876  0.7887
  596DG     O1013695   1.734   2.757   5.153 -0.5691  0.4899  0.4011
  596DG     C1113696   1.294   2.858   4.950  0.5562 -0.3216  0.8880
  596DG     C1213697   1.758   2.790   5.016 -0.3041  0.3694  0.7845
  596DG     H1313698   1.324   2.963   4.960 -0.7566  0.4830 -2.3525
  596DG     H1413699   1.215   2.854   4.874 -0.2454  0.9577  1.6088
  596DG     H1513700   1.855   2.748   4.989  0.1251  2.2721 -0.8084
  596DG     H1613701   1.752   2.898   5.008 -2.8433  0.1516 -1.5229
  596DG     C1713702   1.412   2.770   4.901  0.4588 -0.2259  0.0678
  596DG     C1813703   1.644   2.733   4.937 -0.5317  0.1903 -0.3133
  596DG     O1913704   1.528   2.793   4.983 -0.4689 -0.7194  0.5108
  596DG     H2013705   1.444   2.790   4.799 -0.7750  1.8054  0.0218
  596DG     H2113706   1.378   2.667   4.905 -0.2248  0.0121  0.7447
  596DG     H2213707   1.660   2.752   4.831  0.9614 -0.2006 -0.1783
  596DG     H2313708   1.633   2.627   4.963  1.0819  0.5206  1.9816
  597DG      C113709   1.114   4.769   4.083 -0.3852 -0.4504 -0.1300
  597DG      C213710   0.682   4.542   3.835  0.0138  0.2505  0.1840
  597DG      H313711   1.058   4.779   4.176 -1.4530 -0.6403 -0.7311
  597DG      H413712   1.185   4.689   4.104 -1.3403 -1.3528 -0.2722
  597DG      H513713   1.035   4.720   4.026 -2.2804 -0.0701  2.0144
  597DG      H613714   0.615   4.539   3.749 -1.2648 -0.9354  1.1828
  597DG      H713715   0.738   4.449   3.827  1.3924  1.1460 -1.3529
  597DG      H813716   0.614   4.533   3.920 -0.0540 -3.1270 -0.1057
  597DG      O913717   1.162   4.893   4.030 -0.4959  0.0792  0.2064
  597DG     O1013718   0.771   4.659   3.837 -0.3558 -0.1658  0.4261
  597DG     C1113719   1.077   5.003   4.033  0.0969 -0.3582 -0.0357
  597DG     C1213720   0.697   4.778   3.844  0.0751 -0.3349 -0.6448
  597DG     H1313721   1.138   5.094   4.031  0.8132 -0.6870 -4.6664
  597DG     H1413722   1.031   4.998   4.131 -0.1145  1.5248 -0.0121
  597DG     H1513723   0.647   4.789   3.940 -0.2744  1.1972 -0.9714
  597DG     H1613724   0.614   4.768   3.773 -0.6143  1.8715 -0.2130
  597DG     C1713725   0.973   5.015   3.916 -0.2424  0.0906 -0.5384
  597DG     C1813726   0.794   4.897   3.822  0.8145 -0.2560  0.3399
  597DG     O1913727   0.898   4.897   3.917 -0.1070  0.1797 -0.1986
  597DG     H2013728   1.031   5.024   3.824  3.5924  0.4092  1.6600
  597DG     H2113729   0.912   5.104   3.929  4.3336  3.2362  2.2668
  597DG     H2213730   0.829   4.907   3.719  1.3005  0.4758  0.5647
  597DG     H2313731   0.741   4.990   3.842  0.9833 -0.4842  1.9652
  598DG      C113732   5.416   3.239   0.049 -0.4119  0.0644  0.3718
  598DG      C213733   5.202   3.888   0.213  1.0971 -0.0641  0.3750
  598DG      H313734   5.469   3.205  -0.040 -1.2627  0.7660 -0.4182
  598DG      H413735   5.376   3.153   0.104 -1.5977  1.0307  1.0706
  598DG      H513736   5.484   3.277   0.126  0.4986 -2.5440  0.9874
  598DG      H613737   5.165   3.969   0.152  1.3090  0.9759  1.5911
  598DG      H713738   5.145   3.867   0.304 -0.5409 -0.8208 -0.7809
  598DG      H813739   5.305   3.909   0.245  1.2946 -2.4150  1.5254
  598DG      O913740   5.324   3.333   0.017  0.0001 -0.5692  0.9947
  598DG     O1013741   5.197   3.774   0.133 -0.4497  0.0539  1.0492
  598DG     C1113742   5.195   3.280  -0.012  0.1127  0.1740 -0.0184
  598DG     C1213743   5.068   3.734   0.091 -0.2403 -0.3226 -0.1627
  598DG     H1313744   5.148   3.255   0.083 -1.1043  1.4058 -0.2783
  598DG     H1413745   5.206   3.193  -0.077  1.3246 -0.0201  0.4212
  598DG     H1513746   5.022   3.822   0.045  0.4726  0.9832  1.5042
  598DG     H1613747   5.011   3.705   0.180  4.0962 -1.4321  2.5367
  598DG     C1713748   5.126   3.405  -0.067  0.5715 -0.4294  0.0210
  598DG     C1813749   5.069   3.628  -0.016 -0.4741  0.6751  0.3127
  598DG     O1913750   5.135   3.510   0.024 -0.0643  0.4374  0.2209
  598DG     H2013751   5.021   3.381  -0.084  0.3151  0.7483 -0.0955
  598DG     H2113752   5.171   3.430  -0.163  0.0546 -1.9108 -0.6479
  598DG     H2213753   4.967   3.601  -0.044 -0.4058  1.6916 -1.0379
  598DG     H2313754   5.110   3.662  -0.111 -2.3821  0.1057 -0.7590
  599DG      C113755   0.740   2.457   3.520 -0.0161 -0.0362 -0.5241
  599DG      C213756   0.869   3.119   3.399 -0.3821 -0.0546  0.6204
  599DG      H313757   0.810   2.468   3.603  0.7480 -1.2273 -0.9794
  599DG      H413758   0.776   2.364   3.475 -0.4442 -0.7021  0.4829
  599DG      H513759   0.637   2.438   3.547 -0.6164  2.0811 -1.1471
  599DG      H613760   0.944   3.101   3.477 -0.2886  0.0276  0.5494
  599DG      H713761   0.906   3.201   3.338  2.1528 -1.8768 -0.4801
  599DG      H813762   0.773   3.146   3.444  0.0595  2.2214  0.3112
  599DG      O913763   0.743   2.570   3.431 -0.2367 -0.5826 -0.3274
  599DG     O1013764   0.851   3.007   3.305  0.4037 -0.6675 -0.2143
  599DG     C1113765   0.720   2.551   3.293  0.6110  0.3055 -0.4144
  599DG     C1213766   0.970   2.965   3.245  0.2300  0.1970  0.3214
  599DG     H1313767   0.616   2.570   3.266  0.4696 -0.7691 -0.6388
  599DG     H1413768   0.736   2.444   3.284  0.9363  0.1945  1.1683
  599DG     H1513769   1.051   2.951   3.317  1.0445 -1.5428 -0.8715
  599DG     H1613770   1.002   3.037   3.170 -1.8342  0.1578 -0.6611
  599DG     C1713771   0.820   2.619   3.204 -0.5539 -1.5011 -0.2397
  599DG     C1813772   0.938   2.830   3.169  0.5718 -0.1122  0.1134
  599DG     O1913773   0.838   2.764   3.251  0.0787 -0.1799 -0.2565
  599DG     H2013774   0.793   2.609   3.099 -1.8052  0.9620 -0.2261
  599DG     H2113775   0.917   2.568   3.201 -0.0207 -0.6036  0.7274
  599DG     H2213776   0.895   2.855   3.072 -0.2309  0.0630  0.5021
  599DG     H2313777   1.030   2.772   3.166  1.1484  0.7603  0.6928
  600DG      C113778   1.430   3.380   5.583  0.2504 -0.1436  0.3844
  600DG      C213779   0.832   3.116   5.130 -0.9805  0.2300  0.7509
  600DG      H313780   1.521   3.438   5.598 -1.1651  3.1273 -2.4866
  600DG      H413781   1.457   3.292   5.642  0.3052  0.1150  0.7517
  600DG      H513782   1.342   3.431   5.621 -0.1301 -0.0351 -0.6188
  600DG      H613783   0.803   3.071   5.035  1.5559  1.1509 -0.5362
  600DG      H713784   0.833   3.048   5.215 -3.0878 -1.2633 -0.3275
  600DG      H813785   0.758   3.193   5.156 -2.8344 -2.0934  2.9147
  600DG      O913786   1.410   3.364   5.440 -0.2646  0.4844 -0.3145
  600DG     O1013787   0.959   3.169   5.105 -0.6413 -0.1608 -0.3199
  600DG     C1113788   1.380   3.486   5.373 -0.2581  0.4214  0.1474
  600DG     C1213789   1.005   3.236   5.222  0.2339 -0.0914  0.5154
  600DG     H1313790   1.477   3.532   5.357  2.1583 -3.7458  1.3531
  600DG     H1413791   1.327   3.558   5.437  2.2714  1.0119  1.7341
  600DG     H1513792   1.047   3.167   5.295  1.7494  2.1483  1.8983
  600DG     H1613793   0.926   3.287   5.278 -0.7173 -0.6030 -0.3377
  600DG     C1713794   1.293   3.456   5.249  0.5570 -0.3626  0.1319
  600DG     C1813795   1.119   3.324   5.168 -0.4119 -0.4244 -0.7120
  600DG     O1913796   1.194   3.364   5.282 -0.6495  0.4716  0.4970
  600DG     H2013797   1.365   3.425   5.173 -0.4204 -1.9884 -0.1705
  600DG     H2113798   1.256   3.550   5.207  0.8360 -0.3690 -0.1394
  600DG     H2213799   1.188   3.257   5.117  2.1758  2.1224 -0.7935
  600DG     H2313800   1.087   3.404   5.101  1.1890  1.0323  0.1989
  601DG      C113801   0.159   0.570   0.811 -0.3107 -0.9519 -0.1287
  601DG      C213802  -0.122   1.284   0.379  0.3851 -0.2354 -0.3125
  601DG      H313803   0.083   0.492   0.810 -1.0856 -0.2536 -2.0143
  601DG      H413804   0.160   0.600   0.916 -1.3352  1.2942 -0.6797
  601DG      H513805   0.259   0.531   0.798  0.3383  0.4647  0.4308
  601DG      H613806  -0.029   1.272   0.324  0.7062  0.2420  0.1194
  601DG      H713807  -0.204   1.326   0.321  0.2497  0.8506  0.6291
  601DG      H813808  -0.092   1.334   0.471  1.0412 -0.7849 -0.2155
  601DG      O913809   0.114   0.675   0.728  0.0724  0.2880 -0.4411
  601DG     O1013810  -0.166   1.155   0.420 -0.1448  0.1278  0.1393
  601DG     C1113811   0.204   0.788   0.700  0.1354  0.1232 -0.5191
  601DG     C1213812  -0.065   1.097   0.514 -1.0380  0.1348  0.2268
  601DG     H1313813   0.300   0.751   0.663  1.0728  1.7410  0.2032
  601DG     H1413814   0.221   0.845   0.791 -2.2320 -1.9204  1.3398
  601DG     H1513815  -0.043   1.159   0.601  0.0099  0.5462 -0.3076
  601DG     H1613816   0.034   1.097   0.467 -1.0314  1.0025  0.2327
  601DG     C1713817   0.140   0.878   0.592  0.5949  0.3785  0.5627
  601DG     C1813818  -0.089   0.948   0.547  0.2591  0.4071 -0.6534
  601DG     O1913819   0.012   0.911   0.646 -0.1659 -0.1263  0.0382
  601DG     H2013820   0.126   0.833   0.493  0.8065 -0.9612  1.1243
  601DG     H2113821   0.199   0.967   0.569 -0.3924  0.4270 -2.2877
  601DG     H2213822  -0.185   0.949   0.599 -0.5528 -1.7951 -1.9910
  601DG     H2313823  -0.102   0.886   0.458 -1.6194  1.1799 -0.9701
  602DG      C113824   2.754   3.857   1.340  0.3792 -1.0210  0.1349
  602DG      C213825   2.961   4.578   1.029  0.0235 -0.4359  0.9458
  602DG      H313826   2.810   3.783   1.397  2.4304  1.6990  1.9632
  602DG      H413827   2.730   3.811   1.245  0.3075 -0.3030 -0.2054
  602DG      H513828   2.668   3.895   1.395  1.4445  1.7442  0.0580
  602DG      H613829   3.062   4.571   0.987 -1.2489 -1.2864 -2.2816
  602DG      H713830   2.892   4.583   0.945  0.9163  3.3700  0.2847
  602DG      H813831   2.957   4.667   1.092 -1.5777 -1.0360  1.7568
  602DG      O913832   2.833   3.969   1.298 -0.0117 -0.4552  0.9121
  602DG     O1013833   2.959   4.456   1.098 -0.2431 -0.2052 -0.0088
  602DG     C1113834   2.872   4.050   1.408  0.8722 -0.3906  0.5115
  602DG     C1213835   2.831   4.424   1.156 -0.3017 -0.3979 -0.7964
  602DG     H1313836   2.920   4.004   1.495  2.5144  2.5844  1.3246
  602DG     H1413837   2.781   4.090   1.454 -1.8288 -3.3202 -1.8252
  602DG     H1513838   2.771   4.387   1.072 -0.3634 -1.8993 -0.1219
  602DG     H1613839   2.772   4.506   1.196 -1.7655 -2.2571  1.0948
  602DG     C1713840   2.972   4.149   1.358  0.2222 -0.1932 -0.2004
  602DG     C1813841   2.851   4.335   1.279 -0.6032 -0.4829 -0.8739
  602DG     O1913842   2.931   4.225   1.245  0.0463  0.4019 -0.3649
  602DG     H2013843   3.061   4.093   1.329  0.6894  0.5518 -0.2201
  602DG     H2113844   3.012   4.227   1.423  2.1871  1.5313 -3.2282
  602DG     H2213845   2.888   4.395   1.362  0.7108 -1.8798 -0.3923
  602DG     H2313846   2.756   4.298   1.317 -1.3167  2.1225  0.0742
  603DG      C113847   1.764   2.905   2.659 -0.2185 -0.2280  0.3240
  603DG      C213848   2.150   2.555   2.263 -0.4406  0.1838  0.6710
  603DG      H313849   1.728   2.882   2.759 -0.5562 -0.3174  0.1810
  603DG      H413850   1.703   2.987   2.621  0.7494  0.0729 -0.6292
  603DG      H513851   1.866   2.936   2.684 -0.0869 -2.3899  2.9079
  603DG      H613852   2.255   2.556   2.236 -1.6082 -0.4539 -5.2241
  603DG      H713853   2.135   2.587   2.367 -2.5752 -0.1361  0.5150
  603DG      H813854   2.121   2.450   2.255 -1.3298  0.4110  0.7714
  603DG      O913855   1.772   2.797   2.567 -0.1831  0.0751  0.1159
  603DG     O1013856   2.076   2.631   2.170 -0.1918 -0.0550 -0.8085
  603DG     C1113857   1.827   2.688   2.627 -0.4050  0.4671  0.6752
  603DG     C1213858   1.940   2.625   2.189  1.1529 -0.3003  0.2199
  603DG     H1313859   1.773   2.653   2.714  1.5582 -2.0966  0.9804
  603DG     H1413860   1.933   2.695   2.651 -0.2753  4.9045 -0.2782
  603DG     H1513861   1.914   2.519   2.177 -0.2304  0.0148  0.3202
  603DG     H1613862   1.886   2.674   2.108 -0.6205 -1.3904  0.6904
  603DG     C1713863   1.798   2.574   2.526  0.0675  0.7006 -0.2366
  603DG     C1813864   1.878   2.682   2.316  0.8108  0.1139 -0.1897
  603DG     O1913865   1.887   2.573   2.417  0.4031  0.2182  0.7413
  603DG     H2013866   1.691   2.572   2.506 -0.5199 -2.2795  2.3154
  603DG     H2113867   1.826   2.483   2.579  2.6479  2.7178  2.1683
  603DG     H2213868   1.925   2.775   2.346 -1.0638  1.2084 -0.5360
  603DG     H2313869   1.773   2.707   2.305  0.1070 -1.4609  2.1237
  604DG      C113870   5.061   1.968   3.748 -0.0549  0.5785 -0.1533
  604DG      C213871   5.192   2.604   3.681 -0.1836  0.1824 -0.0066
  604DG      H313872   5.141   1.894   3.736  0.3230  1.0168 -0.3916
  604DG      H413873   4.971   1.915   3.716 -1.6587  0.3040  4.1693
  604DG      H513874   5.045   1.979   3.855  2.3002  0.7653  0.2350
  604DG      H613875   5.258   2.690   3.682  1.1901 -0.7926 -1.4434
  604DG      H713876   5.086   2.627   3.689 -0.5427 -0.7334 -1.6178
  604DG      H813877   5.211   2.530   3.759  2.0753  0.8624  0.1546
  604DG      O913878   5.090   2.093   3.696 -0.2698 -0.0187 -0.5444
  604DG     O1013879   5.212   2.538   3.562 -0.0002  0.2113  0.6801
  604DG     C1113880   5.121   2.092   3.557 -0.8524 -0.2082  0.0448
  604DG     C1213881   5.349   2.486   3.536  0.0726 -0.6022  1.0837
  604DG     H1313882   5.028   2.061   3.510 -0.6505  2.1007 -2.1122
  604DG     H1413883   5.191   2.015   3.525 -0.7677  0.3384 -1.1699
  604DG     H1513884   5.399   2.461   3.630  1.6588 -0.4037  0.3295
  604DG     H1613885   5.417   2.562   3.497 -0.8946  0.3890  1.2680
  604DG     C1713886   5.159   2.223   3.493  1.1767 -0.3660 -0.5569
  604DG     C1813887   5.340   2.370   3.433  0.0338  0.0648 -0.0332
  604DG     O1913888   5.303   2.238   3.488 -0.6722 -0.4655 -0.5087
  604DG     H2013889   5.103   2.299   3.548  2.4542  1.0960 -1.1935
  604DG     H2113890   5.123   2.225   3.390 -1.2639  1.9882  0.2227
  604DG     H2213891   5.275   2.400   3.351 -0.6244 -1.3819 -0.0750
  604DG     H2313892   5.437   2.348   3.388 -0.3817  0.0945 -0.9774
  605DG      C113893   1.674   5.410   3.230 -0.0393 -0.1234 -0.0554
  605DG      C213894   1.217   5.414   2.504  0.5397  0.4591 -0.3117
  605DG      H313895   1.740   5.480   3.280 -0.7714  1.0799 -0.7125
  605DG      H413896   1.711   5.308   3.232 -0.6980 -0.3768 -0.2522
  605DG      H513897   1.579   5.401   3.283 -0.4924  0.0733 -0.8134
  605DG      H613898   1.254   5.328   2.449 -1.7916 -1.1343  0.4819
  605DG      H713899   1.145   5.366   2.570  0.9761  0.7486  0.3855
  605DG      H813900   1.169   5.488   2.440  1.9998  0.7343 -1.1367
  605DG      O913901   1.644   5.448   3.098  0.2689  0.1469 -0.1043
  605DG     O1013902   1.314   5.482   2.567 -0.0659  0.0976 -0.4259
  605DG     C1113903   1.721   5.385   2.997  0.4593  0.5191 -0.6941
  605DG     C1213904   1.393   5.404   2.660  0.6953  0.4171 -0.0110
  605DG     H1313905   1.713   5.276   2.998  0.4125  0.5054  1.2502
  605DG     H1413906   1.827   5.402   3.018  0.5403  0.3663 -0.9857
  605DG     H1513907   1.455   5.333   2.605 -1.4784  0.3499 -2.5722
  605DG     H1613908   1.330   5.346   2.727  0.7960  2.0996  1.6231
  605DG     C1713909   1.672   5.445   2.870  0.1732 -0.4624  0.3874
  605DG     C1813910   1.481   5.494   2.749  0.1389  0.0280 -0.1689
  605DG     O1913911   1.540   5.419   2.848 -0.0611 -0.3432  0.0980
  605DG     H2013912   1.731   5.403   2.788  1.9957  0.1554  1.3327
  605DG     H2113913   1.694   5.552   2.866 -1.0908 -0.1705  0.7336
  605DG     H2213914   1.549   5.549   2.684  1.2073 -1.2267 -0.1380
  605DG     H2313915   1.420   5.568   2.801  1.3114 -1.8171  4.2868
  606DG      C113916   0.821   2.806   4.203 -0.1813 -0.2678 -0.4564
  606DG      C213917   0.561   3.138   4.849  0.3414  0.0865 -0.3029
  606DG      H313918   0.840   2.857   4.108 -0.5619 -0.5612 -0.6969
  606DG      H413919   0.817   2.698   4.184  0.7106 -0.5651  0.8940
  606DG      H513920   0.918   2.828   4.248  0.5938  0.2268 -2.2708
  606DG      H613921   0.518   3.057   4.909 -0.8719  0.0602 -1.1666
  606DG      H713922   0.617   3.198   4.921 -0.1715  0.5538 -0.2840
  606DG      H813923   0.474   3.197   4.820 -0.7314 -1.2041  0.2041
  606DG      O913924   0.706   2.855   4.269  0.0183  0.0773 -0.2763
  606DG     O1013925   0.647   3.081   4.756  0.4536 -0.7224  0.0529
  606DG     C1113926   0.685   2.793   4.400  0.0444  0.3729  0.6972
  606DG     C1213927   0.699   3.178   4.658 -0.1191 -0.1815  0.5524
  606DG     H1313928   0.718   2.690   4.409 -0.4631 -0.0410 -1.5408
  606DG     H1413929   0.580   2.797   4.428  0.3632  0.5679  1.9289
  606DG     H1513930   0.758   3.257   4.704  1.0443 -1.8224  2.0020
  606DG     H1613931   0.626   3.238   4.604  0.6361  0.2234 -0.0338
  606DG     C1713932   0.746   2.886   4.502  0.0699 -0.3280  0.5285
  606DG     C1813933   0.797   3.114   4.556 -0.1127  0.3663  0.6195
  606DG     O1913934   0.724   3.021   4.473  0.1950 -0.3288 -0.0410
  606DG     H2013935   0.854   2.872   4.511  0.2465  1.0885  0.8358
  606DG     H2113936   0.702   2.852   4.596 -1.0925  1.5077  0.6945
  606DG     H2213937   0.833   3.189   4.485 -0.8854  0.5896  0.4581
  606DG     H2313938   0.887   3.062   4.589 -0.6625 -0.8227  0.2986
  607DG      C113939   3.464   3.987   3.665 -0.2068  0.2448 -0.1746
  607DG      C213940   3.837   3.291   3.555 -0.1416  0.2112 -0.0205
  607DG      H313941   3.554   4.017   3.718 -0.9085  0.8565  0.7116
  607DG      H413942   3.391   3.965   3.743  0.3754 -0.8324  0.0889
  607DG      H513943   3.434   4.078   3.614  0.7950  1.6079  1.5699
  607DG      H613944   3.928   3.297   3.615  0.3606  0.3241 -0.7688
  607DG      H713945   3.770   3.227   3.612 -1.5644  0.1872 -1.6455
  607DG      H813946   3.856   3.250   3.455 -0.4635 -1.8679  0.7126
  607DG      O913947   3.490   3.876   3.579  0.9699  0.4001  0.4678
  607DG     O1013948   3.780   3.419   3.534  0.3420 -0.0571 -0.6538
  607DG     C1113949   3.619   3.885   3.512 -0.1795  0.4978  0.1728
  607DG     C1213950   3.640   3.405   3.512  0.2236 -0.4739 -0.8546
  607DG     H1313951   3.698   3.861   3.584  0.2541  1.3955  0.0067
  607DG     H1413952   3.647   3.982   3.471  0.5442 -0.7584 -2.5908
  607DG     H1513953   3.585   3.413   3.606  0.7586  2.2186 -0.6872
  607DG     H1613954   3.616   3.324   3.443  0.5668 -1.8129  0.5430
  607DG     C1713955   3.610   3.766   3.413  0.0451  0.3676 -0.0710
  607DG     C1813956   3.606   3.524   3.421 -0.5313 -0.1020  0.4334
  607DG     O1913957   3.644   3.647   3.491  0.1562  0.6527  0.0107
  607DG     H2013958   3.681   3.766   3.330  0.0620  1.7441 -0.0717
  607DG     H2113959   3.519   3.755   3.355 -0.5505 -2.0701  1.1681
  607DG     H2213960   3.647   3.502   3.322 -3.0201 -1.3936 -0.3782
  607DG     H2313961   3.498   3.525   3.411 -0.4397 -0.4399 -0.7614
  608DG      C113962   3.503   5.304   1.092  0.2191  0.2186  1.2007
  608DG      C213963   3.286   4.761   1.396  0.0982  0.1636 -0.4576
  608DG      H313964   3.561   5.235   1.031  2.2988  1.8246  1.2474
  608DG      H413965   3.561   5.337   1.178  1.5839  0.5269  0.1994
  608DG      H513966   3.494   5.396   1.034  1.9658 -0.0599  0.4328
  608DG      H613967   3.394   4.750   1.395  0.1285  0.4961 -0.7949
  608DG      H713968   3.261   4.769   1.502 -0.3952  1.8146 -0.6690
  608DG      H813969   3.237   4.676   1.348  1.1885 -1.2248  0.7629
  608DG      O913970   3.375   5.258   1.127  0.7113 -0.6507  0.6174
  608DG     O1013971   3.256   4.883   1.333  0.4394  0.0505  0.4822
  608DG     C1113972   3.270   5.261   1.030  0.3344 -0.5321 -0.3685
  608DG     C1213973   3.120   4.910   1.325 -0.0728  0.8061 -0.2238
  608DG     H1313974   3.297   5.206   0.939  1.3282  0.1098 -0.4885
  608DG     H1413975   3.258   5.366   1.007 -1.0585 -1.1799 -2.9663
  608DG     H1513976   3.084   4.904   1.428  1.8227  0.3112  0.4426
  608DG     H1613977   3.068   4.828   1.274  0.4887  0.2536  0.0865
  608DG     C1713978   3.147   5.210   1.102 -0.4828  0.0430 -0.0783
  608DG     C1813979   3.078   5.044   1.266  0.0170 -0.0087 -0.0268
  608DG     O1913980   3.166   5.083   1.156 -0.6216 -0.2267  0.1626
  608DG     H2013981   3.074   5.207   1.020 -2.1205  2.4602  1.1711
  608DG     H2113982   3.116   5.286   1.174 -1.1681 -0.6930  0.4249
  608DG     H2213983   2.970   5.055   1.249  0.2901  0.8978 -1.3779
  608DG     H2313984   3.099   5.115   1.346 -1.9540 -1.0125  1.4966
  609DG      C113985   0.239   2.040   5.507  0.2280  0.3113 -1.1747
  609DG      C213986   0.806   2.297   5.142  0.3958  0.0240  0.7154
  609DG      H313987   0.217   2.118   5.580 -0.8744 -2.5770  1.8326
  609DG      H413988   0.209   1.941   5.540  2.1444  0.4566  1.3615
  609DG      H513989   0.184   2.066   5.417 -1.9197 -2.2758 -0.7204
  609DG      H613990   0.767   2.396   5.166 -0.5459  0.1263 -1.1090
  609DG      H713991   0.915   2.305   5.148  0.5220 -1.6750  1.1144
  609DG      H813992   0.769   2.296   5.040 -0.0922  1.0827  0.8643
  609DG      O913993   0.382   2.029   5.493 -0.0614  0.2127 -0.1585
  609DG     O1013994   0.752   2.206   5.240 -0.4324  0.4302 -0.8707
  609DG     C1113995   0.430   1.899   5.449  0.3532 -0.6675  0.2975
  609DG     C1213996   0.830   2.091   5.251  0.0388  0.3302 -0.0107
  609DG     H1313997   0.404   1.867   5.348  3.1793 -1.2047 -0.3716
  609DG     H1413998   0.407   1.822   5.522  1.0086 -2.9575 -1.7668
  609DG     H1513999   0.931   2.113   5.285  0.4625  1.4499 -1.8162
  609DG     H1614000   0.812   2.043   5.155 -3.1709  2.1070 -0.4782
  609DG     C1714001   0.584   1.895   5.445 -0.3717 -0.2075  0.0552
  609DG     C1814002   0.781   1.984   5.348 -0.4791  0.0942  0.0391
  609DG     O1914003   0.643   1.964   5.341 -0.4530 -0.3518  0.2095
  609DG     H2014004   0.619   1.792   5.436  1.7866  0.5638 -0.9334
  609DG     H2114005   0.613   1.950   5.534 -1.5976 -0.2160  0.4765
  609DG     H2214006   0.831   1.889   5.328 -1.2647 -0.2010 -0.5360
  609DG     H2314007   0.804   2.018   5.449 -0.8034  0.0944  0.1118
  610DG      C114008   2.833   4.961   5.015  0.7594 -0.6041  0.8067
  610DG      C214009   3.262   4.400   5.134  0.2318  0.6438 -0.0762
  610DG      H314010   2.766   4.939   4.933 -2.1191  3.0668  1.9131
  610DG      H414011   2.927   5.008   4.986 -1.3642  2.3213 -1.9486
  610DG      H514012   2.780   5.034   5.076  2.0943  0.2423  0.9977
  610DG      H614013   3.224   4.309   5.086 -1.6672  1.1425  0.3887
  610DG      H714014   3.320   4.461   5.065 -0.9007  2.5538  0.5776
  610DG      H814015   3.340   4.370   5.204  0.2661 -0.7788 -0.6801
  610DG      O914016   2.869   4.842   5.082  0.0987  0.4230 -0.0458
  610DG     O1014017   3.166   4.498   5.186  0.1872 -0.2296  0.5303
  610DG     C1114018   2.760   4.779   5.161 -0.3515  0.4771  0.1794
  610DG     C1214019   3.074   4.440   5.278 -0.2482 -0.3947  0.1053
  610DG     H1314020   2.711   4.713   5.089  1.7016 -0.4275 -0.4725
  610DG     H1414021   2.677   4.837   5.202 -0.8125 -1.0506  1.4845
  610DG     H1514022   3.128   4.396   5.362  2.0263  0.3635 -0.8678
  610DG     H1614023   3.013   4.370   5.221 -1.6653  0.8145  0.0807
  610DG     C1714024   2.799   4.685   5.271  0.8021  0.4080  0.4170
  610DG     C1814025   2.965   4.535   5.324  0.2402  0.8505  0.3468
  610DG     O1914026   2.916   4.612   5.221  0.5270 -0.1290  0.2651
  610DG     H2014027   2.718   4.621   5.305 -0.4761  1.4999 -0.4618
  610DG     H2114028   2.825   4.752   5.353 -0.4897  2.9623 -1.1077
  610DG     H2214029   2.886   4.475   5.368  1.8929 -1.2565  0.6573
  610DG     H2314030   2.995   4.605   5.402  0.2046 -0.1823  1.3041
  611DG      C114031   3.564   3.741   1.354  0.0462 -0.1831  0.5571
  611DG      C214032   3.084   3.806   1.735 -0.0151  0.0396  0.1962
  611DG      H314033   3.598   3.653   1.409  1.5510  0.5419  0.8255
  611DG      H414034   3.642   3.817   1.358 -0.0464 -0.1164  1.4150
  611DG      H514035   3.543   3.705   1.253  0.9403 -2.4064  1.1215
  611DG      H614036   3.178   3.771   1.693  0.8631  1.3051  1.0569
  611DG      H714037   3.054   3.731   1.809 -0.7018 -0.2749 -0.3918
  611DG      H814038   3.000   3.804   1.665 -1.0491 -1.3766  1.3870
  611DG      O914039   3.453   3.793   1.419  0.6974  0.4068  0.1240
  611DG     O1014040   3.093   3.928   1.801  1.1955  0.1800 -0.7039
  611DG     C1114041   3.416   3.918   1.368  0.6643 -0.5420 -0.4563
  611DG     C1214042   3.227   3.960   1.831 -0.2594  0.3968  0.3147
  611DG     H1314043   3.316   3.915   1.325  0.7854 -2.8172 -0.7071
  611DG     H1414044   3.469   3.958   1.281  0.3585  0.7271 -0.0877
  611DG     H1514045   3.288   3.875   1.863  0.6466  1.1932  0.7658
  611DG     H1614046   3.218   4.027   1.916 -1.9010  0.7365 -0.0925
  611DG     C1714047   3.393   4.019   1.483 -0.1619 -0.1845  0.5739
  611DG     C1814048   3.295   4.040   1.713 -0.3337 -0.1276 -0.1326
  611DG     O1914049   3.315   3.961   1.592  0.1260 -0.4216 -0.1168
  611DG     H2014050   3.347   4.102   1.430  1.4620  0.8589  0.7353
  611DG     H2114051   3.488   4.058   1.522 -1.3130  1.8860  1.4510
  611DG     H2214052   3.233   4.125   1.688 -2.3973 -1.7404 -0.8150
  611DG     H2314053   3.396   4.069   1.742 -0.2104  0.6720 -1.2688
  612DG      C114054   1.457   2.196   3.219  0.7253  0.6393 -0.6038
  612DG      C214055   1.800   1.770   2.907  0.3189 -0.3272  0.5826
  612DG      H314056   1.363   2.250   3.229  0.2159 -0.2626 -0.3692
  612DG      H414057   1.528   2.250   3.156  1.2302  0.9322  0.2001
  612DG      H514058   1.494   2.210   3.321 -0.2455  1.9773 -0.4188
  612DG      H614059   1.874   1.775   2.986 -0.6231 -1.0127  1.5270
  612DG      H714060   1.819   1.687   2.839  1.8596  1.6820 -1.6420
  612DG      H814061   1.808   1.851   2.834 -0.8020  0.9028  1.7539
  612DG      O914062   1.423   2.066   3.175  0.7457  0.1725 -0.0604
  612DG     O1014063   1.674   1.767   2.960 -0.1147 -0.0660 -0.1068
  612DG     C1114064   1.344   2.076   3.057  0.8474 -0.1021  0.5164
  612DG     C1214065   1.583   1.731   2.861  0.5351 -0.3610  1.0372
  612DG     H1314066   1.404   2.128   2.982  0.2259  0.6383  0.5232
  612DG     H1414067   1.255   2.138   3.068  1.4533  1.0137 -0.5543
  612DG     H1514068   1.604   1.627   2.833  0.6190 -0.2244  0.5861
  612DG     H1614069   1.585   1.778   2.762 -0.2803  1.1747  1.7200
  612DG     C1714070   1.313   1.943   2.999  0.4038  0.8522 -0.4754
  612DG     C1814071   1.438   1.760   2.907 -0.9140  0.2717 -0.2672
  612DG     O1914072   1.440   1.889   2.961  0.1162  0.0732  0.2337
  612DG     H2014073   1.264   1.952   2.902  0.3488 -1.5712 -0.7204
  612DG     H2114074   1.258   1.876   3.065  1.8372 -0.9811 -1.0714
  612DG     H2214075   1.366   1.760   2.825  0.2948  1.3984 -1.3701
  612DG     H2314076   1.414   1.697   2.992 -1.0076  0.4181 -0.1855
  613DG      C114077   1.048   5.413   3.891  0.4513 -0.2040  0.1541
  613DG      C214078   1.274   4.783   3.628 -0.5799 -0.2488 -0.2052
  613DG      H314079   1.017   5.347   3.973  0.9606  0.1428  0.6375
  613DG      H414080   0.997   5.509   3.901  0.2717  0.0024 -2.2468
  613DG      H514081   1.155   5.425   3.910  0.4806  0.4627 -0.4133
  613DG      H614082   1.338   4.752   3.710 -2.6880  1.5976  2.2716
  613DG      H714083   1.180   4.737   3.658 -0.1622 -0.0829  1.4413
  613DG      H814084   1.325   4.750   3.537 -1.2984  0.5615 -0.9336
  613DG      O914085   1.019   5.372   3.751 -0.2750 -0.2537 -0.5144
  613DG     O1014086   1.262   4.924   3.621  0.0056 -0.1272  0.3145
  613DG     C1114087   1.106   5.425   3.644 -0.2487 -0.0679 -0.3878
  613DG     C1214088   1.163   4.960   3.526  0.4985  0.4688 -0.3288
  613DG     H1314089   1.205   5.427   3.688 -1.8938  0.2571  3.8435
  613DG     H1414090   1.084   5.526   3.608  0.5769  0.0991 -0.4415
  613DG     H1514091   1.070   4.948   3.581  1.0201  0.7774  0.6361
  613DG     H1614092   1.171   4.890   3.443  0.4895 -0.0635  0.1104
  613DG     C1714093   1.105   5.329   3.523  0.7375  0.3253  0.2237
  613DG     C1814094   1.180   5.104   3.473 -0.0750  0.1736 -0.0224
  613DG     O1914095   1.136   5.201   3.575  0.2339  0.6700 -0.1107
  613DG     H2014096   1.167   5.352   3.436 -3.4881  4.0687 -2.2487
  613DG     H2114097   1.006   5.321   3.478  0.8140 -2.0693  0.3514
  613DG     H2214098   1.283   5.122   3.443 -0.5661  0.1898 -1.7636
  613DG     H2314099   1.123   5.107   3.381  1.2536  0.2589 -0.8691
  614DG      C114100   5.333   0.876   1.440 -0.1196 -0.2280 -0.1445
  614DG      C214101   4.699   0.601   1.625 -0.5540  0.9011  0.7914
  614DG      H314102   5.434   0.904   1.471 -0.7629  0.8331  1.0805
  614DG      H414103   5.267   0.959   1.462 -0.5185 -1.2085  2.7238
  614DG      H514104   5.327   0.863   1.332  0.9242 -0.7417 -0.1614
  614DG      H614105   4.692   0.620   1.517  2.2050 -0.1167  0.3428
  614DG      H714106   4.640   0.516   1.658 -0.7671  0.9309  0.4873
  614DG      H814107   4.676   0.692   1.678  1.2899 -0.0326  3.4043
  614DG      O914108   5.289   0.757   1.506 -0.5519 -0.2061 -0.0834
  614DG     O1014109   4.834   0.578   1.650 -0.8005 -0.0825  0.4836
  614DG     C1114110   5.285   0.776   1.651 -0.4455 -0.7787 -0.0047
  614DG     C1214111   4.870   0.552   1.782  0.2078  0.5368  0.0950
  614DG     H1314112   5.246   0.876   1.671 -1.6698 -1.1250 -0.5760
  614DG     H1414113   5.390   0.788   1.678 -0.4490  0.7465 -0.5726
  614DG     H1514114   4.825   0.463   1.826 -0.2825  0.3550 -0.7661
  614DG     H1614115   4.852   0.641   1.843 -1.6530 -0.3960  0.9717
  614DG     C1714116   5.229   0.651   1.720 -0.1982  0.3045 -0.5394
  614DG     C1814117   5.018   0.539   1.791 -0.2636 -0.4295  0.3879
  614DG     O1914118   5.083   0.652   1.727 -0.1131  0.3606 -0.2004
  614DG     H2014119   5.265   0.654   1.823 -0.9439  3.7346 -0.2412
  614DG     H2114120   5.262   0.556   1.679 -0.6491 -0.4808  0.8576
  614DG     H2214121   5.048   0.551   1.895  3.5986  1.6348 -0.7710
  614DG     H2314122   5.056   0.447   1.748 -1.6024 -2.1801  2.7564
  615DG      C114123   0.168   5.679   0.505  0.1883 -0.1262 -0.0569
  615DG      C214124   0.139   5.137   0.106 -0.3427 -0.1876  0.4370
  615DG      H314125   0.270   5.665   0.540 -0.0101  0.1251  0.6545
  615DG      H414126   0.128   5.758   0.569 -1.9841  0.2790 -1.8099
  615DG      H514127   0.177   5.741   0.416  0.1743  0.6004  0.4370
  615DG      H614128   0.094   5.053   0.159 -0.1265 -0.6185 -0.0570
  615DG      H714129   0.159   5.088   0.011 -1.5422 -2.3304  1.2198
  615DG      H814130   0.238   5.150   0.150  1.0226 -0.0703 -2.4625
  615DG      O914131   0.099   5.561   0.480 -0.1084  0.2266 -0.5008
  615DG     O1014132   0.050   5.245   0.105  0.3275  0.3977 -0.5034
  615DG     C1114133  -0.025   5.582   0.416 -0.8183 -0.0425 -0.0943
  615DG     C1214134   0.113   5.347   0.031  0.1490  0.0521  0.1307
  615DG     H1314135  -0.069   5.670   0.463 -0.4714  0.0127  0.1358
  615DG     H1414136  -0.082   5.493   0.441  2.9164 -1.7129  3.8227
  615DG     H1514137   0.094   5.338  -0.076  0.2588 -0.7246  0.1743
  615DG     H1614138   0.222   5.351   0.021  0.0789  1.8610 -0.3588
  615DG     C1714139  -0.012   5.603   0.261  0.9252 -0.6449  0.3847
  615DG     C1814140   0.047   5.478   0.058 -0.9995  0.4413  0.5402
  615DG     O1914141   0.049   5.488   0.200  0.2030 -0.1307  0.4915
  615DG     H2014142   0.051   5.688   0.238  0.1538 -0.2603 -0.3712
  615DG     H2114143  -0.114   5.619   0.227  0.1206 -2.3451  1.7989
  615DG     H2214144   0.107   5.560   0.020 -0.8645  0.3355  0.5242
  615DG     H2314145  -0.055   5.489   0.021 -0.6940 -2.3273 -1.4674
  616DG      C114146   4.332   4.142   0.435 -0.7042 -0.3053 -1.0567
  616DG      C214147   3.938   4.906   0.312  1.0039 -0.3722 -0.0597
  616DG      H314148   4.254   4.078   0.478  0.6546 -1.4871 -0.2528
  616DG      H414149   4.375   4.184   0.525 -1.4860 -0.6249 -0.5192
  616DG      H514150   4.403   4.085   0.375 -2.2314 -3.1798 -0.3321
  616DG      H614151   4.005   4.935   0.392 -1.1362 -1.1026  2.1056
  616DG      H714152   3.934   4.992   0.245  0.3347 -1.0504 -0.9192
  616DG      H814153   3.846   4.867   0.354  0.3456  2.4532  1.3653
  616DG      O914154   4.278   4.247   0.351 -0.2112 -0.4562 -0.2610
  616DG     O1014155   4.001   4.808   0.232  0.4149 -0.1912 -0.1521
  616DG     C1114156   4.365   4.355   0.315 -0.8435 -0.0660 -0.2636
  616DG     C1214157   4.040   4.697   0.312  0.5800 -0.8501 -0.6659
  616DG     H1314158   4.459   4.319   0.274  0.9311 -0.4642  3.6963
  616DG     H1414159   4.398   4.413   0.401  0.9988 -1.4271 -0.0085
  616DG     H1514160   3.959   4.645   0.364 -0.2321 -0.9526 -1.9935
  616DG     H1614161   4.102   4.726   0.397 -2.7815  0.4267  1.5663
  616DG     C1714162   4.288   4.444   0.219 -0.5031 -0.1401  0.4765
  616DG     C1814163   4.109   4.595   0.221  1.0972  0.3311 -0.1587
  616DG     O1914164   4.180   4.501   0.297  0.4158 -0.0370 -0.1914
  616DG     H2014165   4.247   4.376   0.144  2.7816 -2.4546  0.5574
  616DG     H2114166   4.356   4.514   0.170 -1.1635 -1.0565 -1.9072
  616DG     H2214167   4.043   4.554   0.144  0.2576  0.9194  0.2286
  616DG     H2314168   4.180   4.654   0.163 -1.0285  2.1743 -1.0606
  617DG      C114169   1.106   5.020   0.118 -0.2357 -0.6011 -0.4479
  617DG      C214170   0.841   4.597   0.809 -0.3803 -0.4513 -0.0327
  617DG      H314171   1.062   4.960   0.037  0.5163 -1.1109 -0.4938
  617DG      H414172   1.204   4.982   0.145  0.3656  1.7096  0.8517
  617DG      H514173   1.137   5.112   0.068 -1.4565 -0.5524 -1.1589
  617DG      H614174   0.732   4.595   0.806 -0.3706 -0.7478 -0.2180
  617DG      H714175   0.874   4.494   0.798  1.1105 -0.2212  1.7152
  617DG      H814176   0.877   4.619   0.909  0.6537  0.6144 -0.6066
  617DG      O914177   1.020   5.055   0.221 -0.4139  0.0864 -0.1370
  617DG     O1014178   0.896   4.680   0.704  0.4027 -0.2443 -0.2529
  617DG     C1114179   0.981   4.944   0.301  0.6870  0.3312 -0.2318
  617DG     C1214180   1.033   4.659   0.680 -0.0504  0.8416 -0.4024
  617DG     H1314181   0.939   4.868   0.236 -1.2598  0.1590  1.1554
  617DG     H1414182   0.892   4.975   0.354  0.4026  2.9878 -2.0567
  617DG     H1514183   1.041   4.563   0.630 -1.1730  1.3374 -1.5885
  617DG     H1614184   1.088   4.657   0.774  0.8315  0.8343 -0.9100
  617DG     C1714185   1.085   4.882   0.389  0.0362 -0.0031  0.1458
  617DG     C1814186   1.084   4.778   0.601 -0.0202  0.0681  0.2363
  617DG     O1914187   1.035   4.770   0.462 -0.5007 -0.1970  0.4564
  617DG     H2014188   1.116   4.956   0.464 -0.0516 -1.0436  1.2334
  617DG     H2114189   1.178   4.854   0.340  0.0658  1.1596 -0.5061
  617DG     H2214190   1.051   4.871   0.647 -0.0959  0.4107 -0.4964
  617DG     H2314191   1.193   4.778   0.604 -0.0305  0.3171  2.7238
  618DG      C114192   3.289   3.338   0.239 -0.8634  0.2635  1.2518
  618DG      C214193   3.575   2.716   0.598 -0.4891 -0.7818 -0.1233
  618DG      H314194   3.203   3.327   0.306 -1.0231 -1.5981  0.8015
  618DG      H414195   3.257   3.287   0.148  1.9554 -1.0229  0.8640
  618DG      H514196   3.306   3.443   0.217 -3.3181  0.5288  0.3654
  618DG      H614197   3.627   2.683   0.688  0.5713  0.7197 -0.1407
  618DG      H714198   3.468   2.713   0.619 -0.8378  0.3953 -1.5567
  618DG      H814199   3.594   2.647   0.516 -0.6175 -1.9346  0.7982
  618DG      O914200   3.397   3.276   0.300 -0.4407  0.3107  0.4152
  618DG     O1014201   3.618   2.848   0.557  0.1733 -0.3899 -0.2618
  618DG     C1114202   3.404   3.311   0.434  0.3060  0.3603 -0.5560
  618DG     C1214203   3.604   2.939   0.664  0.1527 -0.4212  0.1084
  618DG     H1314204   3.326   3.273   0.499  1.5026 -0.6173  0.3538
  618DG     H1414205   3.405   3.420   0.433 -0.4548  0.4436  1.7718
  618DG     H1514206   3.670   2.911   0.746  0.9547  1.1636  0.0333
  618DG     H1614207   3.502   2.927   0.700 -0.2848  1.9258 -0.2412
  618DG     C1714208   3.530   3.273   0.508 -0.2208 -0.6433  0.4289
  618DG     C1814209   3.639   3.077   0.610  0.8004 -0.2475  0.0849
  618DG     O1914210   3.534   3.130   0.523  0.1360  0.1129  0.6061
  618DG     H2014211   3.533   3.325   0.604 -0.0113  2.8381 -1.2695
  618DG     H2114212   3.620   3.315   0.462  1.1872 -3.1342  0.7740
  618DG     H2214213   3.648   3.137   0.700 -0.4429 -1.9543  1.4280
  618DG     H2314214   3.732   3.061   0.555  1.3136  2.5979 -0.0488
  619DG      C114215   3.162   0.543   3.620 -0.0945  0.4629  0.2833
  619DG      C214216   3.257  -0.260   3.374 -0.1186 -0.3384  0.4059
  619DG      H314217   3.133   0.600   3.532 -1.0779  1.5452  1.2840
  619DG      H414218   3.193   0.627   3.682 -0.6525 -0.0202  1.2507
  619DG      H514219   3.074   0.502   3.670  0.7934  0.0952  1.6171
  619DG      H614220   3.152  -0.239   3.354  0.4991  0.3686 -2.4956
  619DG      H714221   3.283  -0.303   3.277 -0.4145 -0.0047  0.1768
  619DG      H814222   3.274  -0.344   3.442  2.5542 -0.9696 -0.9151
  619DG      O914223   3.271   0.449   3.599  0.0230 -0.2376 -0.2294
  619DG     O1014224   3.348  -0.151   3.408  0.4998  0.2994 -0.1033
  619DG     C1114225   3.244   0.325   3.539 -0.5134 -0.1307  0.8466
  619DG     C1214226   3.392  -0.064   3.309 -0.4455 -1.0861 -0.5537
  619DG     H1314227   3.179   0.352   3.455 -0.4099  0.0192  0.8140
  619DG     H1414228   3.184   0.258   3.600 -0.0964 -0.6727  0.6706
  619DG     H1514229   3.307  -0.018   3.257  0.6948 -0.0216 -1.5446
  619DG     H1614230   3.451  -0.117   3.235 -0.3131 -1.5282 -0.1309
  619DG     C1714231   3.368   0.254   3.496 -0.8385  0.3366  0.4964
  619DG     C1814232   3.450   0.063   3.370  0.2122 -0.3144 -0.0884
  619DG     O1914233   3.341   0.131   3.437  0.1383  0.1189 -0.4350
  619DG     H2014234   3.428   0.240   3.586 -0.0933  1.0943  0.1343
  619DG     H2114235   3.421   0.321   3.427  0.5561 -2.7399 -1.6229
  619DG     H2214236   3.529   0.046   3.444  0.4256 -3.1338 -0.8676
  619DG     H2314237   3.497   0.131   3.299 -2.1764 -0.5189 -2.0025
  620DG      C114238   4.283   1.005   3.036  0.0475 -1.1406 -0.3367
  620DG      C214239   4.090   1.664   2.789  0.0368  0.0350  0.5813
  620DG      H314240   4.230   0.990   2.942  1.7656 -0.1253 -1.5118
  620DG      H414241   4.223   0.996   3.127 -0.9432 -1.4172 -1.0053
  620DG      H514242   4.350   0.919   3.035  1.3934 -0.1333 -0.6731
  620DG      H614243   4.137   1.643   2.693 -1.8768  0.1435 -0.4416
  620DG      H714244   3.982   1.649   2.781 -0.3033  1.5756  1.8613
  620DG      H814245   4.102   1.772   2.791  3.0375 -0.0425 -2.9731
  620DG      O914246   4.345   1.130   3.012  0.1713  0.0211 -0.3662
  620DG     O1014247   4.153   1.602   2.897 -0.3379 -0.1486 -0.0386
  620DG     C1114248   4.362   1.205   3.140  0.1901 -0.0873  0.1353
  620DG     C1214249   4.296   1.621   2.878 -0.1428  0.1896 -0.3099
  620DG     H1314250   4.435   1.160   3.208  0.7308 -0.9865 -1.0122
  620DG     H1414251   4.261   1.206   3.180  0.1755  2.7014  0.2098
  620DG     H1514252   4.336   1.722   2.878  0.1618  0.1135  1.7568
  620DG     H1614253   4.326   1.568   2.787  1.9280 -0.8401  0.8847
  620DG     C1714254   4.408   1.352   3.116 -0.2964  0.5157  0.4516
  620DG     C1814255   4.381   1.550   2.995  0.0107 -0.6577 -0.1668
  620DG     O1914256   4.341   1.416   3.012  0.2559 -0.5256  0.5245
  620DG     H2014257   4.511   1.338   3.085 -0.2334 -0.7372  1.1633
  620DG     H2114258   4.401   1.411   3.208  1.6726  0.2934  0.7886
  620DG     H2214259   4.486   1.548   2.967  0.1538  3.0112 -0.4069
  620DG     H2314260   4.366   1.604   3.089 -0.5597  0.1514 -0.7159
  621DG      C114261   1.570   3.908   3.463 -0.4779  0.4431  0.1623
  621DG      C214262   1.705   4.025   2.811 -0.2242 -0.8861 -0.5075
  621DG      H314263   1.571   3.826   3.390 -0.4887  1.0594 -0.5461
  621DG      H414264   1.509   3.879   3.548  0.8556 -0.9620  0.7034
  621DG      H514265   1.675   3.922   3.488 -0.5412  0.9683  0.1471
  621DG      H614266   1.692   4.047   2.705 -0.9378  0.7554 -0.1047
  621DG      H714267   1.809   4.042   2.839 -0.8415  3.5584 -0.1754
  621DG      H814268   1.677   3.919   2.814  1.2944 -1.3079 -0.5251
  621DG      O914269   1.524   4.021   3.387 -0.0738  0.1885  0.1581
  621DG     O1014270   1.626   4.100   2.894 -0.3680 -0.0132  0.4243
  621DG     C1114271   1.397   3.991   3.332  0.4279  0.5655 -0.2527
  621DG     C1214272   1.681   4.126   3.026 -0.2903 -0.1000 -0.0636
  621DG     H1314273   1.320   3.992   3.409  0.4687  0.0948 -0.2029
  621DG     H1414274   1.395   3.891   3.288 -0.4208  0.1823  0.6112
  621DG     H1514275   1.761   4.199   3.014  0.1581 -0.3883  1.1176
  621DG     H1614276   1.722   4.030   3.056  1.7831  0.5238 -0.7150
  621DG     C1714277   1.368   4.090   3.214  0.0546 -0.2403  0.3467
  621DG     C1814278   1.569   4.187   3.114 -0.7100 -0.1613 -0.5643
  621DG     O1914279   1.468   4.080   3.112 -0.2377  0.4776  0.0817
  621DG     H2014280   1.352   4.193   3.244  3.4694  0.3193  0.6895
  621DG     H2114281   1.272   4.054   3.178  0.1212 -0.9787  0.8687
  621DG     H2214282   1.613   4.211   3.210 -1.3374 -1.1073 -0.0201
  621DG     H2314283   1.532   4.280   3.071 -0.5628 -0.7363 -2.0110
  622DG      C114284   1.791   5.338   1.993 -0.5534  0.0266  0.0012
  622DG      C214285   2.155   5.478   2.823  0.1699  0.1205  0.4058
  622DG      H314286   1.887   5.332   1.941  0.2776  4.0063  0.7377
  622DG      H414287   1.755   5.429   1.945  0.0264 -0.2002 -0.8849
  622DG      H514288   1.733   5.252   1.960 -0.0704 -0.6811  0.9687
  622DG      H614289   2.098   5.571   2.829 -1.3902 -0.7259 -0.6373
  622DG      H714290   2.160   5.437   2.923 -1.4768  0.4770  0.6645
  622DG      H814291   2.247   5.509   2.772 -1.3264  0.1908 -2.4552
  622DG      O914292   1.795   5.357   2.129  0.0724  0.3673  0.6660
  622DG     O1014293   2.074   5.393   2.745 -0.1666 -0.1921  0.3314
  622DG     C1114294   1.891   5.269   2.196  0.1677  0.4254 -0.6971
  622DG     C1214295   2.066   5.430   2.608 -0.1443  0.6727 -0.4025
  622DG     H1314296   1.992   5.305   2.178  1.2250 -1.7088  0.5329
  622DG     H1414297   1.877   5.166   2.162 -1.4875 -0.4356  2.2402
  622DG     H1514298   2.165   5.429   2.561 -0.9509 -0.1781 -2.1529
  622DG     H1614299   2.026   5.531   2.600 -0.4644  0.4418 -2.0073
  622DG     C1714300   1.865   5.268   2.346 -0.4940 -0.3591 -0.7151
  622DG     C1814301   1.956   5.342   2.553 -0.2257  0.4809  0.5221
  622DG     O1914302   1.949   5.370   2.406  0.5831  0.0895  0.1069
  622DG     H2014303   1.892   5.169   2.381  0.2988 -0.0798 -0.5158
  622DG     H2114304   1.761   5.294   2.365  0.5403  1.0903  5.0910
  622DG     H2214305   1.977   5.236   2.567 -0.7362  0.3744  0.4964
  622DG     H2314306   1.858   5.360   2.599 -0.2338  0.3624  0.5501
  623DG      C114307  -0.109   3.259   4.472 -0.2554  0.0159 -0.1816
  623DG      C214308   0.593   3.624   4.727 -0.0458  0.2421  0.5500
  623DG      H314309  -0.066   3.166   4.434 -0.0003  0.5443 -1.2250
  623DG      H414310  -0.104   3.348   4.409  3.3345 -0.2899 -0.5604
  623DG      H514311  -0.216   3.251   4.490 -0.1294 -0.2640  0.4597
  623DG      H614312   0.628   3.525   4.696 -3.4062 -0.8457 -0.1981
  623DG      H714313   0.603   3.691   4.641 -0.4700  0.6531  0.8176
  623DG      H814314   0.670   3.658   4.797 -0.2988  0.3575  0.7717
  623DG      O914315  -0.041   3.286   4.591 -0.2489 -0.4973 -0.1216
  623DG     O1014316   0.463   3.611   4.782 -0.4277  0.5224 -0.4208
  623DG     C1114317  -0.078   3.406   4.660 -0.1394  0.0910 -0.0251
  623DG     C1214318   0.369   3.564   4.694 -0.0021  0.2328  0.5021
  623DG     H1314319  -0.173   3.394   4.711 -0.0482  1.3651  0.4827
  623DG     H1414320  -0.094   3.483   4.584  0.4991 -1.0871 -1.4061
  623DG     H1514321   0.407   3.494   4.620  1.1150  0.0878  1.1925
  623DG     H1614322   0.327   3.643   4.632 -1.0050 -0.6128  0.0706
  623DG     C1714323   0.036   3.443   4.762  0.3061  0.7868 -0.2720
  623DG     C1814324   0.260   3.496   4.777  0.0239  0.2733 -1.0549
  623DG     O1914325   0.149   3.484   4.692  0.4671  0.0264 -0.1731
  623DG     H2014326   0.053   3.357   4.827 -0.4125  1.0909  0.3433
  623DG     H2114327   0.010   3.524   4.830 -1.3139 -0.7210  0.9778
  623DG     H2214328   0.291   3.396   4.807  1.7299  0.8598 -0.7624
  623DG     H2314329   0.229   3.557   4.862 -3.4119 -1.5708 -0.7925
  624DG      C114330   0.150   4.504   0.689 -0.1337  0.4205 -0.3890
  624DG      C214331   0.973   4.448   0.391  0.3848  1.1489  0.5752
  624DG      H314332   0.154   4.596   0.747  2.4533 -0.9389  1.8126
  624DG      H414333   0.084   4.427   0.730  1.0290 -0.7810 -0.7010
  624DG      H514334   0.125   4.522   0.584 -1.0746  2.3590  0.1190
  624DG      H614335   0.963   4.557   0.390 -2.1707  0.9681 -0.7758
  624DG      H714336   1.080   4.433   0.406  0.4549 -0.2694 -1.0246
  624DG      H814337   0.933   4.418   0.295  2.3078  2.2427 -0.6331
  624DG      O914338   0.283   4.454   0.688 -0.0259 -0.3414 -0.2590
  624DG     O1014339   0.901   4.411   0.503  0.0351  0.1406  0.7001
  624DG     C1114340   0.317   4.337   0.609  0.2503 -0.3162  0.9416
  624DG     C1214341   0.765   4.454   0.506  0.1014 -0.3245  0.5665
  624DG     H1314342   0.303   4.369   0.506 -0.5595  0.5833  1.3114
  624DG     H1414343   0.263   4.246   0.636  1.4043 -1.5195 -0.6511
  624DG     H1514344   0.708   4.457   0.413 -0.8824  3.7472  1.1027
  624DG     H1614345   0.764   4.558   0.539 -4.9463 -0.4110  1.4224
  624DG     C1714346   0.461   4.289   0.630 -0.3944 -0.0836  1.0044
  624DG     C1814347   0.686   4.356   0.594  0.0778  0.1584  0.4082
  624DG     O1914348   0.543   4.393   0.586 -0.6907  0.0866 -0.2499
  624DG     H2014349   0.466   4.197   0.573  0.0857 -0.1699  1.1786
  624DG     H2114350   0.475   4.267   0.736 -1.4801  2.3580  1.7476
  624DG     H2214351   0.702   4.256   0.554 -0.0329  0.2579  0.1113
  624DG     H2314352   0.722   4.352   0.696 -3.2278  2.1701  1.8024
  625DG      C114353   0.133   2.041   3.592  0.1252  0.5921  1.0316
  625DG      C214354   0.273   1.229   3.518  0.0920 -0.6105  0.6198
  625DG      H314355   0.160   2.132   3.539  1.0974  0.9982  2.1586
  625DG      H414356   0.110   2.071   3.695  1.3747  2.1573  0.8862
  625DG      H514357   0.042   2.002   3.547  0.5751 -2.3198  2.3998
  625DG      H614358   0.364   1.231   3.578  1.4257 -0.2712 -1.3198
  625DG      H714359   0.219   1.135   3.526 -0.8345 -0.1163  0.3332
  625DG      H814360   0.295   1.223   3.411 -0.3624 -1.1189  0.5550
  625DG      O914361   0.248   1.951   3.592  0.2315  0.0906  0.2618
  625DG     O1014362   0.193   1.351   3.541 -0.2852 -0.7516  0.2187
  625DG     C1114363   0.273   1.890   3.461  0.5871  0.1239 -0.6431
  625DG     C1214364   0.279   1.467   3.525 -0.0375 -0.2959  0.3398
  625DG     H1314365   0.330   1.951   3.391  0.2704  0.0906 -0.9330
  625DG     H1414366   0.186   1.855   3.405  0.7649  0.6188 -1.2403
  625DG     H1514367   0.318   1.477   3.423  0.8644 -2.8264  0.3691
  625DG     H1614368   0.373   1.469   3.580  1.2707  2.3872 -1.7448
  625DG     C1714369   0.355   1.764   3.483 -0.9262 -0.2941  0.3173
  625DG     C1814370   0.205   1.589   3.566  0.3032 -0.1569 -0.1402
  625DG     O1914371   0.294   1.695   3.594 -0.1750  0.3181 -0.2883
  625DG     H2014372   0.453   1.785   3.527 -0.5744  0.4560 -0.7949
  625DG     H2114373   0.371   1.694   3.401  0.1209 -1.4172  1.4151
  625DG     H2214374   0.143   1.618   3.480 -1.5444 -0.9974  0.8695
  625DG     H2314375   0.142   1.569   3.652 -0.9101  0.0599 -0.9455
  626DG      C114376   2.889   1.316   0.481  0.3536 -0.4663 -0.3697
  626DG      C214377   3.388   1.928   0.353 -0.2052 -0.5185 -0.5915
  626DG      H314378   2.921   1.271   0.387 -0.3140 -1.6589 -0.0427
  626DG      H414379   2.788   1.283   0.505  0.1505 -1.7363 -2.7014
  626DG      H514380   2.950   1.286   0.566 -1.5748 -2.1641  0.4823
  626DG      H614381   3.494   1.902   0.345  0.1226  0.6899 -0.4119
  626DG      H714382   3.351   1.950   0.253 -0.2676 -0.9023 -0.6561
  626DG      H814383   3.386   2.012   0.423 -1.0156 -0.4522 -0.6837
  626DG      O914384   2.895   1.453   0.476  0.4049 -0.2009 -0.4398
  626DG     O1014385   3.311   1.820   0.408 -0.0702  0.8021  0.5238
  626DG     C1114386   3.023   1.503   0.426  0.9847 -0.1418 -0.6490
  626DG     C1214387   3.367   1.776   0.528  0.1167  0.2278 -0.2994
  626DG     H1314388   2.996   1.585   0.359 -1.2566  1.3232  1.8073
  626DG     H1414389   3.089   1.433   0.376 -1.1581 -1.6616 -1.5362
  626DG     H1514390   3.425   1.853   0.578 -0.8698  1.1348 -0.5075
  626DG     H1614391   3.445   1.706   0.499 -0.1687 -0.4401  0.4975
  626DG     C1714392   3.079   1.566   0.555  0.0541  0.2355 -1.1323
  626DG     C1814393   3.255   1.719   0.608  1.2779 -0.7424 -0.0661
  626DG     O1914394   3.206   1.624   0.514  0.6582  0.2100  0.0825
  626DG     H2014395   3.107   1.486   0.624  1.5186  0.0535 -1.8784
  626DG     H2114396   3.004   1.634   0.595  0.8591  1.0351 -0.9655
  626DG     H2214397   3.280   1.672   0.703 -1.4818  1.0236  1.7042
  626DG     H2314398   3.180   1.798   0.607  2.8577  0.8268 -2.1934
  627DG      C114399   3.163   4.955   5.224 -0.0573  0.0391 -0.3963
  627DG      C214400   2.956   4.407   4.886 -0.3432  0.4700 -0.2542
  627DG      H314401   3.204   5.056   5.230  1.7469 -0.6919  0.5864
  627DG      H414402   3.226   4.896   5.291 -0.8452  0.4949  0.7832
  627DG      H514403   3.071   4.955   5.283 -0.6737  2.6028 -1.2360
  627DG      H614404   3.044   4.346   4.905 -0.7752  0.5964  2.4388
  627DG      H714405   2.887   4.390   4.969  0.5015 -2.0912  0.0352
  627DG      H814406   2.905   4.370   4.796  0.7292 -1.6752 -0.0508
  627DG      O914407   3.152   4.900   5.085  0.1191 -0.7293 -0.1682
  627DG     O1014408   2.991   4.542   4.868  0.3657  0.1969  0.3226
  627DG     C1114409   3.276   4.905   5.015 -0.6925 -0.3533  0.5115
  627DG     C1214410   3.063   4.557   4.751 -0.5376  0.1087 -0.2910
  627DG     H1314411   3.346   4.829   5.051 -0.7726 -0.6500  0.0529
  627DG     H1414412   3.319   5.005   5.021 -2.4161  0.5653 -1.2832
  627DG     H1514413   3.001   4.546   4.663 -0.3503  1.3124 -0.6020
  627DG     H1614414   3.141   4.481   4.748  1.3067  1.8829  0.0281
  627DG     C1714415   3.250   4.866   4.863  0.0594  0.2294 -0.1257
  627DG     C1814416   3.138   4.698   4.746  0.5293 -0.2836  0.2409
  627DG     O1914417   3.197   4.736   4.866  0.0573 -0.0931 -0.7655
  627DG     H2014418   3.344   4.861   4.807  0.6336 -1.4214  0.9139
  627DG     H2114419   3.183   4.942   4.822 -0.0679  0.7604  1.0182
  627DG     H2214420   3.218   4.703   4.673  0.4727  1.7813  0.2535
  627DG     H2314421   3.064   4.773   4.715  0.0229 -1.1140 -0.6447
  628DG      C114422   0.835   2.920   0.558  0.5666  0.3601 -0.2408
  628DG      C214423   0.976   3.384   1.098 -0.7527  0.5645 -0.5247
  628DG      H314424   0.854   2.814   0.540 -0.6476  0.0121  0.3930
  628DG      H414425   0.884   2.988   0.488 -0.5696  0.3938 -1.0230
  628DG      H514426   0.726   2.923   0.552  0.5499 -1.1199 -1.1048
  628DG      H614427   0.980   3.416   1.202  2.4024  0.1752 -0.4177
  628DG      H714428   1.069   3.333   1.072 -0.1883  2.5626 -2.7913
  628DG      H814429   0.958   3.465   1.027 -1.4409 -0.0003 -1.0023
  628DG      O914430   0.880   2.958   0.688 -0.1322 -0.3388  0.1964
  628DG     O1014431   0.878   3.283   1.076  0.0795 -0.3395  0.0441
  628DG     C1114432   0.798   2.890   0.782  0.0509 -0.0155  0.2419
  628DG     C1214433   0.879   3.223   0.944 -0.1020  0.0275 -0.4658
  628DG     H1314434   0.812   2.783   0.764 -0.0935 -0.2360  1.3706
  628DG     H1414435   0.693   2.920   0.785  0.3286  0.8810  2.3229
  628DG     H1514436   0.961   3.151   0.931  0.8408  0.5212  2.0602
  628DG     H1614437   0.879   3.303   0.871  2.4460  0.1818 -0.3935
  628DG     C1714438   0.845   2.922   0.927  0.3335 -0.7126  0.1025
  628DG     C1814439   0.747   3.146   0.924  0.1784 -1.2078 -0.0653
  628DG     O1914440   0.751   3.019   0.988 -0.0960  0.2988 -0.0496
  628DG     H2014441   0.951   2.950   0.930  0.0003  0.5477  0.7528
  628DG     H2114442   0.838   2.829   0.984 -2.2908 -0.7993 -0.2415
  628DG     H2214443   0.660   3.200   0.961  2.8562  1.8248  2.4204
  628DG     H2314444   0.732   3.132   0.817 -1.5391  0.6513 -0.1480
  629DG      C114445   2.965   3.343   2.625 -0.5197 -0.4090 -0.5242
  629DG      C214446   2.534   3.631   3.066 -0.3481 -0.6242 -0.4226
  629DG      H314447   3.047   3.351   2.555 -0.9537  1.0554 -0.8975
  629DG      H414448   2.878   3.327   2.562  0.1154 -0.3837 -1.4192
  629DG      H514449   2.994   3.251   2.676  1.1790 -0.2914 -1.2129
  629DG      H614450   2.557   3.605   3.170  2.4124  1.0003 -0.5339
  629DG      H714451   2.461   3.712   3.063  1.0463  0.6437 -2.6132
  629DG      H814452   2.471   3.553   3.024 -1.1979 -1.1463  1.7037
  629DG      O914453   2.962   3.444   2.720 -0.3394  0.3668  0.0641
  629DG     O1014454   2.651   3.649   2.991 -0.4904 -0.3816  0.0669
  629DG     C1114455   2.978   3.574   2.668  0.4372  0.0846  0.0042
  629DG     C1214456   2.742   3.744   3.038 -0.1143 -0.1131  0.4052
  629DG     H1314457   2.882   3.581   2.616  0.7213  0.6874 -0.4518
  629DG     H1414458   3.056   3.579   2.592 -0.6116  1.7085 -1.0337
  629DG     H1514459   2.778   3.709   3.135 -2.8771 -2.7033  0.6795
  629DG     H1614460   2.688   3.837   3.057  3.2007  1.8007  1.1073
  629DG     C1714461   2.995   3.671   2.783 -0.1367 -0.4566  0.3881
  629DG     C1814462   2.855   3.776   2.938 -0.0024 -0.8306  0.2596
  629DG     O1914463   2.878   3.662   2.864  0.0878 -0.4310 -0.5021
  629DG     H2014464   3.007   3.766   2.731 -1.7273 -1.6104 -2.2813
  629DG     H2114465   3.081   3.662   2.850 -0.3519  0.7106  0.8363
  629DG     H2214466   2.820   3.860   2.879  0.0488 -0.9691  0.0314
  629DG     H2314467   2.941   3.799   3.001  1.8425 -1.7354 -1.8074
  630DG      C114468   3.051   3.592   5.012 -0.1438  0.0164 -0.0166
  630DG      C214469   3.254   2.992   4.602  0.1627 -0.3052  0.1329
  630DG      H314470   2.994   3.686   5.008  1.1787  0.9176  1.3010
  630DG      H414471   3.152   3.619   4.981  0.4678  1.2111  2.6966
  630DG      H514472   3.055   3.564   5.117 -1.0146  2.3108  0.6901
  630DG      H614473   3.345   3.049   4.583 -0.2124  0.5796  0.9035
  630DG      H714474   3.264   2.900   4.545 -0.8773  0.0998 -0.7148
  630DG      H814475   3.178   3.060   4.562  1.1182  0.6671 -0.0864
  630DG      O914476   2.985   3.492   4.930 -0.4429 -0.0260  0.6986
  630DG     O1014477   3.234   2.958   4.744  0.0800 -0.0841  0.0182
  630DG     C1114478   3.064   3.377   4.915  0.1401 -0.2436  1.0403
  630DG     C1214479   3.099   2.914   4.779 -0.3052 -0.2408  0.1480
  630DG     H1314480   3.098   3.334   5.009  2.8325 -0.4573  0.0373
  630DG     H1414481   3.155   3.389   4.858 -0.4900  2.1101  0.4125
  630DG     H1514482   3.101   2.855   4.871 -0.6913 -0.6896 -0.1289
  630DG     H1614483   3.069   2.845   4.700  1.9273  1.6900 -2.5914
  630DG     C1714484   2.987   3.263   4.855  1.0478  0.5970  0.0578
  630DG     C1814485   2.999   3.029   4.792 -0.1864  0.1099 -0.0697
  630DG     O1914486   3.054   3.144   4.861  0.2951 -0.1466 -0.5936
  630DG     H2014487   2.950   3.299   4.759 -0.9706 -0.7488  0.2680
  630DG     H2114488   2.898   3.239   4.913 -0.8818  2.6398 -1.8461
  630DG     H2214489   2.973   3.061   4.691 -0.7768  1.7593  0.5758
  630DG     H2314490   2.904   2.998   4.835  0.7317 -0.3910  1.6850
  631DG      C114491   0.149   1.127   0.184 -0.5276  0.1145 -0.5128
  631DG      C214492   0.724   0.891   0.644  0.4039  0.0205  0.0226
  631DG      H314493   0.059   1.066   0.177  0.7855 -1.8723 -0.7919
  631DG      H414494   0.223   1.101   0.108  1.7009  2.2844  0.7704
  631DG      H514495   0.118   1.229   0.163 -0.4808  0.2234 -0.0714
  631DG      H614496   0.792   0.877   0.561 -0.6099 -0.4209 -0.7574
  631DG      H714497   0.783   0.914   0.733  1.0149  0.1440 -0.4158
  631DG      H814498   0.669   0.801   0.674  1.4788  0.1698  2.6859
  631DG      O914499   0.205   1.127   0.317  0.2034 -0.2227  0.0949
  631DG     O1014500   0.630   0.992   0.617 -0.3262  0.3651 -0.1241
  631DG     C1114501   0.268   1.249   0.353 -0.0890 -0.2505  0.5075
  631DG     C1214502   0.521   0.995   0.706 -0.2336  0.8018 -0.5940
  631DG     H1314503   0.197   1.331   0.344 -0.9705 -1.0915 -0.5075
  631DG     H1414504   0.359   1.273   0.298  0.4656  1.6903  2.1550
  631DG     H1514505   0.558   1.012   0.808  0.2334  1.1040 -0.8113
  631DG     H1614506   0.483   0.893   0.703  2.0392 -0.1314  0.2084
  631DG     C1714507   0.302   1.238   0.503  0.1011  0.2564 -0.0541
  631DG     C1814508   0.425   1.114   0.681  0.4550 -0.5814  0.6187
  631DG     O1914509   0.387   1.127   0.539 -0.4907  0.7384 -0.0169
  631DG     H2014510   0.202   1.237   0.546  0.0534  0.5945 -0.1526
  631DG     H2114511   0.351   1.332   0.529 -0.3701 -0.0555  2.2198
  631DG     H2214512   0.332   1.108   0.737  2.1862  1.0669  3.9781
  631DG     H2314513   0.483   1.202   0.708 -0.0598 -0.3702  1.0523
  632DG      C114514   5.158   4.551   0.156  0.1948  0.2032  1.7502
  632DG      C214515   4.770   4.948   0.437  0.1385 -0.3965 -0.2798
  632DG      H314516   5.216   4.492   0.084 -2.5141  0.1652 -0.5974
  632DG      H414517   5.110   4.479   0.222 -2.4361  0.9765  0.7813
  632DG      H514518   5.234   4.614   0.203 -0.0608  0.0993  2.2988
  632DG      H614519   4.750   4.850   0.479 -2.5816  0.1018 -0.2272
  632DG      H714520   4.850   4.997   0.492 -2.6690  5.2310 -0.4629
  632DG      H814521   4.687   5.016   0.457 -0.0584 -1.0687  1.3427
  632DG      O914522   5.062   4.646   0.098 -0.9933  0.3383  0.4029
  632DG     O1014523   4.795   4.920   0.295 -0.1638 -0.3802  0.2815
  632DG     C1114524   5.110   4.742  -0.001 -0.4431 -0.0543 -0.9635
  632DG     C1214525   4.802   5.038   0.211 -0.4693 -0.4802  0.7104
  632DG     H1314526   5.150   4.677  -0.078  0.3094 -1.0644  0.2472
  632DG     H1414527   5.195   4.796   0.039 -0.3227  0.1892 -1.5395
  632DG     H1514528   4.876   5.109   0.249 -1.5083  0.8125  0.4140
  632DG     H1614529   4.707   5.092   0.206  0.8655  2.0319  0.8834
  632DG     C1714530   4.996   4.836  -0.037 -0.0250 -0.1572  0.5838
  632DG     C1814531   4.850   5.000   0.073  0.1939  0.2716 -0.2391
  632DG     O1914532   4.938   4.888   0.083  0.4699  0.2183 -0.4096
  632DG     H2014533   4.921   4.790  -0.101  1.1333  0.8012 -1.5978
  632DG     H2114534   5.039   4.915  -0.099  1.3367 -1.8807 -0.7819
  632DG     H2214535   4.764   4.957   0.020 -0.5826  0.2748  0.9781
  632DG     H2314536   4.902   5.081   0.023  1.8819 -0.6101  0.0191
  633DG      C114537  -0.336   0.144   1.767  0.3534 -0.3813  0.1239
  633DG      C214538   0.356   0.096   1.955 -0.3172  0.0375  0.0226
  633DG      H314539  -0.292   0.230   1.816  0.4226 -1.1867  1.5181
  633DG      H414540  -0.357   0.076   1.849  1.6006 -1.3300 -0.2968
  633DG      H514541  -0.429   0.177   1.721  0.6867  2.0313  1.0426
  633DG      H614542   0.422   0.054   2.031  0.0080 -3.1012 -1.8156
  633DG      H714543   0.409   0.146   1.874  0.2387 -0.6877 -0.0782
  633DG      H814544   0.302   0.178   2.001  0.5879  0.0812  1.0420
  633DG      O914545  -0.255   0.084   1.672 -0.3314 -0.0420  0.4618
  633DG     O1014546   0.271  -0.008   1.907  0.3589  0.6739 -0.5365
  633DG     C1114547  -0.117   0.065   1.715  0.5420  0.5226  0.1089
  633DG     C1214548   0.176  -0.059   2.005 -0.0361  0.0559  0.6391
  633DG     H1314549  -0.088   0.166   1.743 -1.6736  1.4996 -0.8883
  633DG     H1414550  -0.065   0.041   1.622 -1.6055 -0.7331 -0.8432
  633DG     H1514551   0.106   0.008   2.056  0.6317 -0.2220  1.9634
  633DG     H1614552   0.226  -0.115   2.084 -2.6650 -1.8052  1.1166
  633DG     C1714553  -0.104  -0.030   1.831 -0.9635  0.1808 -0.1125
  633DG     C1814554   0.080  -0.161   1.929  0.2207 -0.2750 -0.2218
  633DG     O1914555   0.020  -0.105   1.816  0.3173  0.5915  0.4186
  633DG     H2014556  -0.186  -0.102   1.836  0.1005 -1.2871 -2.2667
  633DG     H2114557  -0.096   0.029   1.922  1.6911  0.9955 -0.7817
  633DG     H2214558   0.149  -0.241   1.900  0.0285 -0.1673 -0.9971
  633DG     H2314559   0.007  -0.191   2.003  1.4290 -3.0009 -0.0217
  634DG      C114560   4.740   4.688   3.536 -0.3766  0.1982  0.4279
  634DG      C214561   4.852   3.788   3.472  0.0673  0.0553 -0.2448
  634DG      H314562   4.842   4.699   3.574  0.6670 -1.0454 -1.8174
  634DG      H414563   4.680   4.773   3.568 -1.1046 -0.4267  0.7361
  634DG      H514564   4.733   4.707   3.429  0.9686 -0.7967  0.1353
  634DG      H614565   4.796   3.718   3.534 -1.4333  1.2649 -0.1485
  634DG      H714566   4.856   3.757   3.367  2.2188 -0.8238  0.0442
  634DG      H814567   4.957   3.778   3.498 -0.4725 -0.8444  1.7640
  634DG      O914568   4.676   4.565   3.566 -0.1045 -0.0283 -0.5433
  634DG     O1014569   4.812   3.922   3.480  0.3956 -0.3379  0.1964
  634DG     C1114570   4.758   4.455   3.533  0.0587  0.4326 -0.0357
  634DG     C1214571   4.835   3.988   3.607 -0.6628  0.5408 -0.2353
  634DG     H1314572   4.854   4.474   3.581  0.6124  0.3912 -1.0985
  634DG     H1414573   4.775   4.439   3.427  0.3061  0.9844 -0.0825
  634DG     H1514574   4.940   4.012   3.622 -0.8071  0.5831  0.7716
  634DG     H1614575   4.816   3.904   3.674  2.3791  0.1656  0.2895
  634DG     C1714576   4.692   4.329   3.579 -0.1860 -0.7036 -0.2867
  634DG     C1814577   4.750   4.107   3.630 -0.3880 -0.4756  0.3550
  634DG     O1914578   4.792   4.228   3.568 -0.3622 -0.0624  0.3178
  634DG     H2014579   4.601   4.310   3.521 -3.5629 -1.6684  4.6998
  634DG     H2114580   4.649   4.345   3.678  0.5427  2.0347 -0.3278
  634DG     H2214581   4.656   4.082   3.580 -0.3808  1.3416 -0.6152
  634DG     H2314582   4.734   4.120   3.737  2.7033  1.2324  0.7003
  635DG      C114583   0.183   1.936   4.814 -0.4971 -0.5820  0.3266
  635DG      C214584  -0.117   1.652   4.164  0.2830  0.0300 -0.3586
  635DG      H314585   0.210   2.030   4.862 -2.1355  0.5420 -0.8315
  635DG      H414586   0.247   1.864   4.866  1.0848  0.6592  0.1768
  635DG      H514587   0.081   1.923   4.851 -0.2051 -0.1152  1.3262
  635DG      H614588  -0.106   1.563   4.103  1.8797  0.9994 -1.5673
  635DG      H714589  -0.140   1.620   4.266  2.5425 -0.4450  0.0488
  635DG      H814590  -0.204   1.708   4.128  0.6461  1.4743  0.8770
  635DG      O914591   0.202   1.941   4.674 -0.5130 -0.2515  0.7595
  635DG     O1014592  -0.005   1.733   4.150  0.7574 -0.4697  0.1435
  635DG     C1114593   0.161   1.827   4.607 -0.4343  0.0784  0.1310
  635DG     C1214594   0.120   1.664   4.154 -0.0706  0.5026  0.4531
  635DG     H1314595   0.053   1.821   4.626 -0.7914  0.5383 -1.6165
  635DG     H1414596   0.208   1.737   4.646  0.0755  0.5185  0.5456
  635DG     H1514597   0.154   1.656   4.050  1.7619  0.3360  1.0395
  635DG     H1614598   0.111   1.561   4.189 -2.4712  0.4942 -0.0166
  635DG     C1714599   0.194   1.841   4.460 -0.3219  0.0771 -0.9185
  635DG     C1814600   0.212   1.746   4.251 -0.2518  0.1093 -0.0842
  635DG     O1914601   0.173   1.727   4.384  0.1329  0.5945  0.5779
  635DG     H2014602   0.301   1.860   4.456 -0.4497  0.9327 -0.5209
  635DG     H2114603   0.137   1.926   4.420  1.1413  1.0123 -1.1018
  635DG     H2214604   0.313   1.707   4.238 -0.6484 -0.3884 -1.9544
  635DG     H2314605   0.200   1.850   4.222  1.1108  0.7737  1.5682
  636DG      C114606   2.277   3.373   0.985  0.1342 -0.6421 -0.4415
  636DG      C214607   1.813   3.655   1.160 -0.0785 -0.4263 -0.1637
  636DG      H314608   2.374   3.322   0.984  0.1361 -0.6433 -0.2974
  636DG      H414609   2.297   3.479   0.975 -1.5998  0.0040  1.9916
  636DG      H514610   2.207   3.345   0.907 -0.6174 -0.6075  0.2129
  636DG      H614611   1.916   3.669   1.193 -0.5406  2.5290  0.3415
  636DG      H714612   1.811   3.694   1.058  1.2321 -0.2607 -0.1468
  636DG      H814613   1.735   3.710   1.212  0.5345 -0.0301  0.3448
  636DG      O914614   2.206   3.348   1.100  0.8736 -0.3699  0.1547
  636DG     O1014615   1.787   3.510   1.158 -0.0079 -0.6049 -0.0958
  636DG     C1114616   2.254   3.415   1.214 -0.0826  0.1331 -0.3923
  636DG     C1214617   1.782   3.445   1.290  0.2793  0.3454  0.4357
  636DG     H1314618   2.283   3.518   1.193  1.7027 -0.5868 -1.7284
  636DG     H1414619   2.340   3.365   1.257 -0.6201  0.8413  1.5966
  636DG     H1514620   1.736   3.346   1.297  0.4780  0.1369 -0.9344
  636DG     H1614621   1.715   3.505   1.350  1.1160  0.8757  0.8547
  636DG     C1714622   2.145   3.413   1.319 -0.4127  0.8456 -0.5975
  636DG     C1814623   1.916   3.448   1.358  0.0537 -0.2623  0.4578
  636DG     O1914624   2.022   3.431   1.260  0.7172 -0.5779 -0.1747
  636DG     H2014625   2.169   3.485   1.396 -0.7095 -1.4440  1.7710
  636DG     H2114626   2.146   3.312   1.360  1.1794  0.3634 -1.7027
  636DG     H2214627   1.923   3.546   1.405 -0.3387 -0.3512  0.7061
  636DG     H2314628   1.923   3.378   1.441 -3.8629 -0.7144  0.6026
  637DG      C114629   1.083   1.914   5.168  0.6107  0.1094  0.5080
  637DG      C214630   1.042   2.661   4.674 -0.4937 -0.1565  0.2971
  637DG      H314631   1.169   1.847   5.179  0.1059 -0.8289 -0.9173
  637DG      H414632   1.001   1.852   5.131  1.2656 -0.5806  0.1870
  637DG      H514633   1.044   1.934   5.268 -0.9443  2.1295 -0.4346
  637DG      H614634   1.077   2.762   4.651 -0.9989  0.3932  1.8027
  637DG      H714635   1.041   2.597   4.586  1.4282  0.9238 -0.5655
  637DG      H814636   0.947   2.668   4.727 -0.6535 -1.4274  0.2182
  637DG      O914637   1.096   2.018   5.075  0.0368 -0.3549 -0.0890
  637DG     O1014638   1.128   2.609   4.774 -0.2169  0.4720 -0.1603
  637DG     C1114639   1.189   2.119   5.126  0.6616  0.5173 -0.2873
  637DG     C1214640   1.073   2.478   4.818 -0.2512 -0.3856  0.2260
  637DG     H1314641   1.279   2.075   5.168  0.1148 -1.7648 -1.3431
  637DG     H1414642   1.143   2.165   5.213 -0.9404  1.5104 -1.5894
  637DG     H1514643   1.029   2.419   4.738 -0.3636 -1.2114  0.8902
  637DG     H1614644   0.993   2.501   4.888  0.4767  1.6385  0.4801
  637DG     C1714645   1.238   2.218   5.026  0.0494  0.1693  0.4782
  637DG     C1814646   1.183   2.402   4.888  0.4142  0.3959  0.1102
  637DG     O1914647   1.129   2.282   4.952  0.3767 -0.5631  0.4755
  637DG     H2014648   1.292   2.165   4.947 -2.8151 -2.2176 -0.0758
  637DG     H2114649   1.294   2.296   5.076  0.2648  0.0881  0.3643
  637DG     H2214650   1.250   2.362   4.813  0.3909  0.9586 -0.2134
  637DG     H2314651   1.234   2.471   4.956  0.0019  0.7170  0.1001
  638DG      C114652   2.401   2.087   5.160 -0.8810  0.5275 -0.5676
  638DG      C214653   3.294   2.141   5.164  0.3449 -0.8093  0.2968
  638DG      H314654   2.355   2.021   5.233 -0.0718 -0.0265 -0.5358
  638DG      H414655   2.409   2.045   5.059  1.6831  0.4081 -0.3944
  638DG      H514656   2.346   2.180   5.146  0.5112  1.1472 -2.3970
  638DG      H614657   3.253   2.177   5.258  0.0826 -0.1980 -0.0459
  638DG      H714658   3.334   2.040   5.165  1.0568 -0.6695 -3.1017
  638DG      H814659   3.376   2.206   5.135  1.0672 -1.8188  0.0392
  638DG      O914660   2.535   2.122   5.202 -0.2767 -0.3184 -0.1343
  638DG     O1014661   3.184   2.157   5.077  0.5597 -0.6943 -0.3722
  638DG     C1114662   2.589   2.237   5.133 -0.0143  0.2672  0.1758
  638DG     C1214663   3.060   2.097   5.123  0.4133 -0.3303 -0.6787
  638DG     H1314664   2.522   2.321   5.154  0.3499  0.8161 -0.8301
  638DG     H1414665   2.592   2.222   5.025  2.9272 -0.1752  0.2383
  638DG     H1514666   3.070   2.030   5.209  2.3846  2.4471  1.4140
  638DG     H1614667   3.023   2.043   5.035 -2.7389  3.0171 -1.6557
  638DG     C1714668   2.728   2.250   5.185 -0.1648  0.4624 -0.3540
  638DG     C1814669   2.952   2.195   5.168  0.1757  0.2957 -0.1272
  638DG     O1914670   2.819   2.153   5.133  0.3822 -0.0446  0.0342
  638DG     H2014671   2.744   2.247   5.293 -0.4047  0.0771 -0.3252
  638DG     H2114672   2.760   2.348   5.150 -0.9777  1.3359  1.2603
  638DG     H2214673   2.954   2.202   5.277 -0.2147  0.8119 -0.1507
  638DG     H2314674   2.973   2.291   5.121 -3.7125  0.2494 -2.3278
  639DG      C114675   1.877   0.513   2.171 -0.2055  0.3011 -0.3935
  639DG      C214676   1.302   0.335   2.472  0.0682  0.2996 -0.3576
  639DG      H314677   1.955   0.576   2.127  0.7882  0.1666  1.0896
  639DG      H414678   1.833   0.455   2.091 -2.0344  3.2809 -1.7390
  639DG      H514679   1.931   0.457   2.248  2.2416 -0.1985 -2.3465
  639DG      H614680   1.373   0.290   2.542 -2.3095 -0.6895  1.5750
  639DG      H714681   1.217   0.360   2.535 -0.6872  0.3349 -1.3722
  639DG      H814682   1.281   0.261   2.395 -0.6369  0.1629 -0.0458
  639DG      O914683   1.767   0.585   2.222  0.4661  0.2178  0.0755
  639DG     O1014684   1.378   0.445   2.425  0.1545 -0.2494  0.3531
  639DG     C1114685   1.705   0.680   2.142 -0.1631  0.5012 -0.2172
  639DG     C1214686   1.302   0.545   2.362 -0.4176 -0.3745  0.1198
  639DG     H1314687   1.673   0.635   2.048  0.8301 -1.7083  0.4446
  639DG     H1414688   1.769   0.754   2.094  1.2341 -1.4396 -1.5201
  639DG     H1514689   1.215   0.578   2.419  1.9217  3.8284  1.7422
  639DG     H1614690   1.273   0.502   2.267 -0.4677 -0.0029 -0.0366
  639DG     C1714691   1.584   0.734   2.221 -0.4173 -0.6082  0.0296
  639DG     C1814692   1.391   0.672   2.337 -0.2142 -0.1146 -0.9241
  639DG     O1914693   1.506   0.629   2.266 -0.3403 -0.4309 -0.1268
  639DG     H2014694   1.522   0.782   2.146  1.3263  1.0796 -0.4270
  639DG     H2114695   1.609   0.803   2.302  3.6696 -0.6805 -0.9502
  639DG     H2214696   1.341   0.758   2.292 -1.7001 -0.0015  0.8290
  639DG     H2314697   1.428   0.709   2.433 -0.8206  1.2712 -1.2085
  640DG      C114698   1.692   0.391   3.098 -0.7227  0.0360  0.3991
  640DG      C214699   2.234   0.645   3.327 -0.4445 -0.0255  0.8602
  640DG      H314700   1.648   0.314   3.161 -1.0118 -0.1439 -0.0168
  640DG      H414701   1.657   0.373   2.996  1.3596 -0.1034 -0.3396
  640DG      H514702   1.654   0.489   3.125 -1.0846  0.4939 -1.6360
  640DG      H614703   2.199   0.726   3.264 -0.8663 -0.3130  0.7241
  640DG      H714704   2.193   0.660   3.427 -1.2679  2.0159  0.2501
  640DG      H814705   2.339   0.672   3.314 -0.4375  0.8691  2.5416
  640DG      O914706   1.841   0.373   3.103  0.0703 -0.2644  0.2195
  640DG     O1014707   2.195   0.516   3.274 -0.2878 -0.4377 -0.1718
  640DG     C1114708   1.886   0.238   3.067  0.3105  0.2567 -0.6024
  640DG     C1214709   2.241   0.404   3.348  0.4531  0.0074 -0.0001
  640DG     H1314710   1.871   0.222   2.960  1.5747 -0.2558 -0.7150
  640DG     H1414711   1.835   0.158   3.121 -0.0493 -0.7191 -2.3032
  640DG     H1514712   2.188   0.407   3.443  0.3027  0.0605 -0.0863
  640DG     H1614713   2.347   0.381   3.360  0.1134 -1.4727  0.2800
  640DG     C1714714   2.039   0.245   3.080  0.0433  0.6830 -0.1774
  640DG     C1814715   2.197   0.290   3.259 -0.1498  0.4526 -0.0195
  640DG     O1914716   2.065   0.297   3.209  0.0065 -0.0005  0.4618
  640DG     H2014717   2.088   0.302   3.001 -0.8555  0.9563 -0.5539
  640DG     H2114718   2.086   0.147   3.077 -0.9331  0.1249  1.2822
  640DG     H2214719   2.262   0.275   3.173 -1.0067 -0.8589 -0.4733
  640DG     H2314720   2.202   0.191   3.304 -1.6908 -0.5726 -1.9373
  641DG      C114721   2.639   1.873   0.597  0.2722 -0.5103 -0.0909
  641DG      C214722   2.654   1.972  -0.044  0.6676  0.4165  0.2651
  641DG      H314723   2.748   1.879   0.599  0.2492  0.3409 -0.7403
  641DG      H414724   2.593   1.825   0.684  0.7377  1.7894  1.5045
  641DG      H514725   2.607   1.976   0.608 -0.5812 -0.7570 -0.1610
  641DG      H614726   2.601   1.959  -0.138 -1.9243 -4.7077  2.0226
  641DG      H714727   2.630   2.072  -0.009  1.6544  0.2348  1.5308
  641DG      H814728   2.761   1.959  -0.062  0.9099 -1.0679  2.3545
  641DG      O914729   2.592   1.803   0.482 -0.4930  0.6210 -0.2359
  641DG     O1014730   2.612   1.867   0.039  0.0964 -0.4546  0.1365
  641DG     C1114731   2.651   1.670   0.470  0.0051  0.4421  0.1722
  641DG     C1214732   2.658   1.746  -0.001 -0.0826  0.5876  0.1284
  641DG     H1314733   2.617   1.610   0.555 -0.5187 -0.5998 -0.7450
  641DG     H1414734   2.759   1.684   0.472  0.0950 -0.0890 -0.4440
  641DG     H1514735   2.767   1.744  -0.004  0.0577  3.2117  1.0107
  641DG     H1614736   2.613   1.717  -0.096 -1.5533  1.5001  0.5104
  641DG     C1714737   2.608   1.606   0.339  0.0039  0.0338  0.2155
  641DG     C1814738   2.609   1.650   0.105  0.1828  0.9845 -0.1858
  641DG     O1914739   2.647   1.701   0.234  0.0532  0.2088 -0.2148
  641DG     H2014740   2.502   1.580   0.345  0.2637 -1.8743 -2.0747
  641DG     H2114741   2.659   1.514   0.308 -0.3996  0.0568 -0.5397
  641DG     H2214742   2.500   1.648   0.104  0.1842  0.7470 -0.1311
  641DG     H2314743   2.642   1.549   0.079 -2.4447  0.5293 -2.2181
  642DG      C114744   1.916   1.240   5.140 -0.2514 -0.5007 -0.4031
  642DG      C214745   2.410   1.521   4.674  0.3489 -0.3678  0.4241
  642DG      H314746   1.910   1.342   5.177 -0.8877 -1.3447  1.9770
  642DG      H414747   1.874   1.171   5.212 -3.5165  1.0364 -0.6470
  642DG      H514748   1.846   1.242   5.056  0.7070  0.9111 -1.2035
  642DG      H614749   2.507   1.503   4.630  0.9352  0.8834  1.1495
  642DG      H714750   2.333   1.473   4.613 -2.2595  1.6451  1.8810
  642DG      H814751   2.386   1.627   4.668 -1.2772 -0.5041  2.8670
  642DG      O914752   2.049   1.202   5.119 -0.7909  0.1880 -0.4566
  642DG     O1014753   2.406   1.486   4.810  0.0590 -0.4465  0.5059
  642DG     C1114754   2.145   1.254   5.210  0.2296  0.2422  0.1524
  642DG     C1214755   2.454   1.348   4.837  0.1780  0.8024  0.3061
  642DG     H1314756   2.129   1.208   5.308 -0.8938  1.3342  0.5068
  642DG     H1414757   2.147   1.361   5.227 -0.5228  0.4565 -1.0220
  642DG     H1514758   2.559   1.330   4.816  0.9116  1.4308  3.1029
  642DG     H1614759   2.396   1.276   4.777  2.4593 -1.0287  0.1523
  642DG     C1714760   2.282   1.217   5.148  0.1590 -0.3260  0.6336
  642DG     C1814761   2.428   1.298   4.982  0.2698 -0.4343 -0.1440
  642DG     O1914762   2.294   1.279   5.019 -0.2071  0.1849  0.3352
  642DG     H2014763   2.298   1.109   5.139  0.7996 -0.2595  0.9427
  642DG     H2114764   2.364   1.246   5.213  0.7338 -0.7867  0.1196
  642DG     H2214765   2.478   1.202   5.000  1.7185  0.6702  2.2480
  642DG     H2314766   2.465   1.375   5.049 -2.4758  1.6602 -0.8608
  643DG      C114767   4.051   4.906   5.410  0.3543 -0.3187 -0.0429
  643DG      C214768   3.977   5.269   4.583 -0.4712  0.1405  0.2735
  643DG      H314769   4.116   4.870   5.490  1.5737  1.3827 -0.2125
  643DG      H414770   4.010   4.815   5.366 -1.0555 -0.8660  2.2209
  643DG      H514771   3.965   4.959   5.450  0.8501 -0.4817  1.3172
  643DG      H614772   3.899   5.194   4.568  1.1333 -1.4877 -0.2629
  643DG      H714773   3.931   5.364   4.558 -0.0686  0.1190 -0.6047
  643DG      H814774   4.063   5.244   4.520 -0.0115  0.7521  0.6537
  643DG      O914775   4.122   4.974   5.312 -0.0523 -0.7129  0.5888
  643DG     O1014776   4.028   5.284   4.715  0.0350  0.0945  0.1241
  643DG     C1114777   4.054   5.006   5.188  0.6557 -1.0169  0.4180
  643DG     C1214778   4.103   5.167   4.755  0.0293  1.0900 -0.5779
  643DG     H1314779   3.958   5.050   5.217  1.0917 -0.1593  0.5922
  643DG     H1414780   4.029   4.912   5.141 -2.9471  0.1010 -0.2395
  643DG     H1514781   4.169   5.145   4.671  0.4726  1.3732 -0.3069
  643DG     H1614782   4.041   5.077   4.758 -0.5940  1.3861 -2.5772
  643DG     C1714783   4.139   5.103   5.114 -0.3715 -0.5822  0.8428
  643DG     C1814784   4.176   5.179   4.883 -0.2627 -0.2307 -0.7822
  643DG     O1914785   4.082   5.142   4.985 -0.4778 -0.4838  0.1130
  643DG     H2014786   4.236   5.057   5.095 -0.4290 -0.3741 -0.0000
  643DG     H2114787   4.165   5.191   5.173 -2.8496 -0.7009  2.2208
  643DG     H2214788   4.260   5.110   4.879  2.2480  2.6336 -1.6476
  643DG     H2314789   4.214   5.277   4.913 -0.8045 -0.9031  2.4626
  644DG      C114790   1.980   1.509   4.898 -0.7602  0.1844 -0.3669
  644DG      C214791   2.009   2.089   5.200 -0.0029  0.2774  0.2106
  644DG      H314792   1.873   1.524   4.906 -1.4456 -2.0646 -3.3716
  644DG      H414793   2.006   1.469   4.996 -1.6083 -0.8138 -0.5236
  644DG      H514794   2.008   1.423   4.836  0.7395  0.3252  0.0580
  644DG      H614795   1.990   2.197   5.201 -1.7938 -0.0120  0.9008
  644DG      H714796   1.918   2.043   5.238  1.1460 -0.4520  2.2606
  644DG      H814797   2.077   2.065   5.282 -1.4345 -0.1726  1.3082
  644DG      O914798   2.068   1.621   4.879  0.3317 -0.5322 -0.2269
  644DG     O1014799   2.075   2.048   5.081  0.0223  0.0508 -0.4208
  644DG     C1114800   2.059   1.673   4.750  0.1362  0.6095 -0.3970
  644DG     C1214801   2.005   2.095   4.967  0.2514  0.4623 -0.6607
  644DG     H1314802   1.955   1.676   4.718 -1.2758  0.6276  3.6064
  644DG     H1414803   2.118   1.608   4.685  1.1157  0.1365  0.9024
  644DG     H1514804   2.009   2.203   4.950  1.1402  0.8201  1.5013
  644DG     H1614805   1.899   2.071   4.968  0.5751 -1.0918 -1.1290
  644DG     C1714806   2.093   1.822   4.738  0.7021  0.1520 -0.2601
  644DG     C1814807   2.063   2.025   4.846  0.4418 -0.4668 -0.6723
  644DG     O1914808   2.029   1.883   4.851 -0.1752 -0.6100  0.3204
  644DG     H2014809   2.056   1.871   4.648 -1.0852  0.4416  0.5933
  644DG     H2114810   2.201   1.836   4.748  0.9111 -0.6360 -1.2851
  644DG     H2214811   2.024   2.068   4.754  2.7831 -0.1162 -1.5693
  644DG     H2314812   2.172   2.032   4.849  0.4567 -0.6272 -0.8777
  645DG      C114813   0.551   3.686   5.315 -0.4091  0.3245  0.1687
  645DG      C214814   0.345   4.120   5.529  0.3393 -0.0702  0.1861
  645DG      H314815   0.448   3.676   5.348 -1.6768  2.0106 -2.8644
  645DG      H414816   0.606   3.728   5.399  2.0322  0.0413 -1.1864
  645DG      H514817   0.580   3.583   5.296  3.2006  0.6979  2.6321
  645DG      H614818   0.241   4.153   5.535  0.3514  0.2748 -1.2702
  645DG      H714819   0.365   4.062   5.620  0.4254 -0.3035  0.0177
  645DG      H814820   0.399   4.214   5.518 -0.0257  0.0972 -0.1902
  645DG      O914821   0.582   3.772   5.200  0.1279  0.3507  0.3441
  645DG     O1014822   0.381   4.033   5.412  0.0605 -0.7187  0.1965
  645DG     C1114823   0.503   3.741   5.085  0.3622 -0.4900  0.0641
  645DG     C1214824   0.348   4.092   5.285  0.4483 -0.5536 -0.2721
  645DG     H1314825   0.525   3.643   5.043  2.3641  0.6610 -1.7957
  645DG     H1414826   0.545   3.819   5.021  2.8027 -0.7775  1.1888
  645DG     H1514827   0.392   4.190   5.273  0.3075 -0.4823 -0.2134
  645DG     H1614828   0.239   4.101   5.283  0.5629  1.1086 -2.4571
  645DG     C1714829   0.363   3.790   5.079  0.1580 -0.1818  0.4856
  645DG     C1814830   0.399   4.010   5.169  0.0052  0.4635  0.7478
  645DG     O1914831   0.331   3.886   5.173  0.3438 -0.3845 -0.2025
  645DG     H2014832   0.293   3.710   5.104 -0.2065  0.3381  1.1605
  645DG     H2114833   0.330   3.823   4.981  0.4998 -0.4547  0.2753
  645DG     H2214834   0.363   4.070   5.086  0.0456  0.1459  0.4982
  645DG     H2314835   0.508   4.012   5.177  0.0708  0.6781 -0.1527
  646DG      C114836   3.761   3.104   1.943 -0.5711  0.1956 -0.2023
  646DG      C214837   3.237   3.512   1.944 -0.0244 -0.2844  0.3039
  646DG      H314838   3.798   3.101   2.046 -1.1192 -0.4145 -0.0130
  646DG      H414839   3.849   3.083   1.883 -1.4476 -1.5537 -0.9585
  646DG      H514840   3.700   3.013   1.947  0.5779 -0.5627  1.8784
  646DG      H614841   3.143   3.458   1.952 -0.0026 -0.2348  0.9666
  646DG      H714842   3.298   3.480   2.029  1.1822 -2.6633 -1.3648
  646DG      H814843   3.201   3.615   1.951 -2.1644 -0.6825 -3.0150
  646DG      O914844   3.692   3.212   1.896  0.1176 -0.2450 -0.4023
  646DG     O1014845   3.302   3.500   1.821 -0.0979  0.7856  0.1807
  646DG     C1114846   3.609   3.177   1.784  0.8390 -0.0536  0.4270
  646DG     C1214847   3.426   3.575   1.809  0.7992  0.7128  0.6548
  646DG     H1314848   3.547   3.096   1.821 -0.1707  0.2092 -0.6472
  646DG     H1414849   3.676   3.140   1.707  3.0756  3.6439  0.3696
  646DG     H1514850   3.481   3.565   1.903 -0.1446 -0.5348  1.1064
  646DG     H1614851   3.406   3.679   1.786  1.2826  0.2051 -2.5809
  646DG     C1714852   3.519   3.294   1.745  0.5027  0.3153  0.5674
  646DG     C1814853   3.506   3.519   1.687 -0.1668 -0.4507  0.5321
  646DG     O1914854   3.593   3.411   1.722  0.4828  0.2344  0.0281
  646DG     H2014855   3.444   3.308   1.823 -3.1208  1.4776 -2.7772
  646DG     H2114856   3.467   3.261   1.655  0.8708 -0.7861  0.7434
  646DG     H2214857   3.433   3.481   1.616  0.1928  1.1807 -0.7665
  646DG     H2314858   3.561   3.592   1.627 -0.7187 -2.1496 -2.2213
  647DG      C114859   2.684   5.355   1.864  0.1014  0.4413 -0.4108
  647DG      C214860   2.207   5.197   2.324 -0.2009  0.5243 -0.1201
  647DG      H314861   2.600   5.327   1.800 -0.2661  1.3803 -0.3652
  647DG      H414862   2.768   5.288   1.848  0.2922  0.0748  1.8972
  647DG      H514863   2.707   5.455   1.827 -3.1263  1.2909 -0.4830
  647DG      H614864   2.153   5.121   2.267  2.3146  0.2484 -2.3188
  647DG      H714865   2.154   5.187   2.419  0.5132 -1.6323  0.1000
  647DG      H814866   2.192   5.294   2.275 -2.5887 -0.1358 -0.8097
  647DG      O914867   2.645   5.360   1.997 -0.0141 -0.6311 -0.2072
  647DG     O1014868   2.345   5.169   2.337 -0.0718  0.6530 -0.2201
  647DG     C1114869   2.604   5.492   2.034 -0.4640  1.0052  0.7940
  647DG     C1214870   2.414   5.253   2.423  0.0355 -0.0097 -0.5145
  647DG     H1314871   2.513   5.509   1.977 -1.4378 -1.5026  1.4690
  647DG     H1414872   2.680   5.565   2.007  2.4472 -2.8989 -3.1443
  647DG     H1514873   2.503   5.197   2.452 -0.7959 -0.5492  1.1241
  647DG     H1614874   2.354   5.271   2.512 -1.4523 -3.3253 -0.6817
  647DG     C1714875   2.576   5.494   2.177 -0.3664  0.0013 -0.0000
  647DG     C1814876   2.454   5.379   2.350 -0.1868 -0.0223  0.5165
  647DG     O1914877   2.527   5.370   2.224 -0.3744  0.0694  0.5574
  647DG     H2014878   2.505   5.569   2.211 -0.6755  0.4996 -1.6394
  647DG     H2114879   2.668   5.507   2.234 -1.3081 -2.3947  2.2259
  647DG     H2214880   2.369   5.439   2.318  1.0263 -0.5225 -4.6310
  647DG     H2314881   2.514   5.438   2.419  1.8324 -2.8277  1.3195
  648DG      C114882   4.603   1.880   1.140 -0.1786 -0.2558  0.1571
  648DG      C214883   4.559   1.184   0.658 -0.1313 -0.2398  0.2413
  648DG      H314884   4.682   1.894   1.214  1.1777  0.1843 -1.3167
  648DG      H414885   4.534   1.825   1.204  0.5397  1.1284  2.2377
  648DG      H514886   4.555   1.971   1.104 -0.4538 -1.6929 -3.6011
  648DG      H614887   4.636   1.153   0.587 -1.1619  1.0412 -1.5066
  648DG      H714888   4.565   1.114   0.742 -1.8632 -1.0682 -0.2702
  648DG      H814889   4.468   1.158   0.604  0.3329 -0.7714 -0.2907
  648DG      O914890   4.640   1.811   1.024  0.5805 -0.0334 -0.2117
  648DG     O1014891   4.573   1.321   0.682  0.1026 -0.0993 -0.0865
  648DG     C1114892   4.531   1.785   0.932  0.3483  0.1794  0.5524
  648DG     C1214893   4.476   1.362   0.779  0.2812 -0.4117  0.0985
  648DG     H1314894   4.484   1.878   0.901  1.5530  0.6617  0.1520
  648DG     H1414895   4.461   1.718   0.984  0.7497 -0.2123  0.5963
  648DG     H1514896   4.503   1.327   0.879  0.0385 -1.8143 -0.3044
  648DG     H1614897   4.380   1.314   0.765 -1.1578  1.8229  1.6512
  648DG     C1714898   4.580   1.715   0.809 -0.7852 -0.0659  0.0827
  648DG     C1814899   4.460   1.516   0.788 -0.0444 -0.1087 -0.0562
  648DG     O1914900   4.580   1.573   0.831  0.1193  0.5437  0.2755
  648DG     H2014901   4.680   1.756   0.803 -0.6929 -0.1365  0.9567
  648DG     H2114902   4.524   1.765   0.730 -0.2681  1.3653  0.5857
  648DG     H2214903   4.437   1.556   0.689 -1.6037 -0.1200  0.2824
  648DG     H2314904   4.376   1.551   0.847  0.4392  0.2762  0.4080
  649DG      C114905   0.504   5.298   2.379 -0.0471  0.1800  0.9832
  649DG      C214906   0.756   4.647   2.740 -0.6934  0.3342 -0.7100
  649DG      H314907   0.401   5.332   2.365 -0.6450 -1.9827 -0.5912
  649DG      H414908   0.563   5.332   2.295  0.3091 -0.1338  1.1037
  649DG      H514909   0.544   5.335   2.474  1.8055 -0.4524  0.4867
  649DG      H614910   0.755   4.544   2.703 -2.2225 -0.1458  0.5429
  649DG      H714911   0.858   4.680   2.719  0.0565 -1.6126 -0.4124
  649DG      H814912   0.735   4.647   2.847  1.6480 -2.4786 -0.1257
  649DG      O914913   0.499   5.154   2.374  0.8068 -0.2459  0.0531
  649DG     O1014914   0.653   4.722   2.683 -0.5852 -0.6999  0.3644
  649DG     C1114915   0.389   5.091   2.437 -0.2501  0.3178 -0.2260
  649DG     C1214916   0.666   4.860   2.697  0.3776 -1.0218 -0.4510
  649DG     H1314917   0.304   5.132   2.381  0.6595  1.3813 -0.8914
  649DG     H1414918   0.388   5.120   2.542  1.3157 -4.0473  1.2307
  649DG     H1514919   0.748   4.895   2.634  0.1271 -1.2646 -0.9150
  649DG     H1614920   0.688   4.888   2.800 -0.9794 -1.0807 -0.1274
  649DG     C1714921   0.409   4.937   2.449  0.2217  0.1643  0.0557
  649DG     C1814922   0.533   4.909   2.651  0.5855  0.3496  0.5472
  649DG     O1914923   0.523   4.878   2.510  0.1941  0.9177 -0.2065
  649DG     H2014924   0.405   4.888   2.352 -0.1882 -2.0960  1.1528
  649DG     H2114925   0.318   4.891   2.486 -1.1902  1.5307 -1.5832
  649DG     H2214926   0.448   4.864   2.702 -1.1677  2.5158 -0.2927
  649DG     H2314927   0.533   5.017   2.668  0.4067  0.3764  0.3856
  650DG      C114928   3.371   3.315   3.223  0.3743 -0.2114  0.7231
  650DG      C214929   3.534   2.827   3.746 -0.3549 -0.0782  0.0971
  650DG      H314930   3.269   3.275   3.215  0.8389 -1.1890 -0.6942
  650DG      H414931   3.401   3.347   3.124 -3.8885 -0.9689 -1.0414
  650DG      H514932   3.356   3.406   3.281 -1.3753 -0.5719  0.9089
  650DG      H614933   3.441   2.771   3.750 -0.5794  0.2917  0.0846
  650DG      H714934   3.613   2.781   3.805  0.4669  1.2870  0.0886
  650DG      H814935   3.505   2.924   3.785  0.5728 -0.3398  1.5124
  650DG      O914936   3.467   3.229   3.270  0.6573 -0.1083 -0.5914
  650DG     O1014937   3.583   2.837   3.614  0.0446 -0.5028 -0.6660
  650DG     C1114938   3.469   3.114   3.187  1.3624  0.4160  0.3607
  650DG     C1214939   3.667   2.942   3.589  0.0972 -0.3229 -0.0686
  650DG     H1314940   3.471   3.125   3.078  0.0899  3.0693  0.5216
  650DG     H1414941   3.380   3.055   3.210 -1.0783  3.3022 -0.9832
  650DG     H1514942   3.759   2.912   3.639  0.1736  0.6094  0.3584
  650DG     H1614943   3.638   3.029   3.648  2.3549  0.3366  0.1644
  650DG     C1714944   3.583   3.014   3.227  0.1840 -0.2991  0.6812
  650DG     C1814945   3.694   2.961   3.436 -0.3770 -0.1208 -0.0351
  650DG     O1914946   3.574   2.988   3.367  0.4903 -0.9581 -0.0645
  650DG     H2014947   3.673   3.070   3.199 -0.2932  0.6177  0.9259
  650DG     H2114948   3.566   2.929   3.161 -1.9831  0.1477  0.5788
  650DG     H2214949   3.756   3.049   3.422 -0.8620  0.5320  1.6403
  650DG     H2314950   3.755   2.881   3.394 -3.2860 -0.4554 -4.1779
  651PF6-    P114951   0.856   0.876   4.167  0.0088 -0.0893  0.1856
  651PF6-    F214952   0.859   1.007   4.254  0.3476  0.0597  0.0562
  651PF6-    F314953   0.845   0.742   4.082 -0.0202 -0.2107  0.3682
  651PF6-    F414954   0.792   0.955   4.039 -0.5116 -0.2561 -0.1926
  651PF6-    F514955   0.928   0.800   4.288  0.0018  0.3855 -0.1793
  651PF6-    F614956   0.712   0.853   4.233 -0.6831  0.3868 -0.2783
  651PF6-    F714957   1.003   0.907   4.108  0.3017  0.6020 -0.0081
  652PF6-    P114958   2.964   3.055   5.457 -0.0495 -0.3741  0.1871
  652PF6-    F214959   2.981   3.215   5.449 -0.4585  0.0848  0.5320
  652PF6-    F314960   2.951   2.897   5.466  0.1407 -0.2069  0.3615
  652PF6-    F414961   2.847   3.075   5.558  0.3397 -0.2702 -0.3496
  652PF6-    F514962   3.076   3.038   5.348  0.0979  0.3959  0.2197
  652PF6-    F614963   3.068   3.050   5.576  0.0599 -0.3455 -0.5574
  652PF6-    F714964   2.858   3.057   5.335 -0.3118  0.1131  0.3389
  653PF6-    P114965   2.153   1.880   4.295 -0.1361 -0.1022 -0.4388
  653PF6-    F214966   2.241   1.823   4.413 -0.3339  0.3638 -0.1873
  653PF6-    F314967   2.062   1.940   4.175  0.3606 -0.9110 -0.1554
  653PF6-    F414968   2.174   2.022   4.359  0.1028  0.0877 -0.0268
  653PF6-    F514969   2.131   1.730   4.240 -0.1698 -0.1262  0.0965
  653PF6-    F614970   2.018   1.868   4.377  0.2056  0.4134  0.5093
  653PF6-    F714971   2.293   1.896   4.211  0.4379  0.0767  0.0972
  654PF6-    P114972   1.388   1.474   2.596 -0.2033  0.2333 -0.0759
  654PF6-    F214973   1.279   1.578   2.643  0.3370  0.1081  0.3828
  654PF6-    F314974   1.500   1.372   2.540 -0.0517 -0.4377 -0.6508
  654PF6-    F414975   1.334   1.502   2.444  0.7072 -0.2850 -0.3347
  654PF6-    F514976   1.444   1.454   2.748 -0.0017 -0.2595 -0.2505
  654PF6-    F614977   1.287   1.354   2.617  0.2104  0.1977  0.3833
  654PF6-    F714978   1.492   1.596   2.583 -0.3578  0.3527 -0.0268
  655PF6-    P114979   5.201   3.694   3.811 -0.1884 -0.0060  0.2722
  655PF6-    F214980   5.125   3.625   3.931  0.1350 -0.1568  0.9838
  655PF6-    F314981   5.278   3.764   3.691 -0.0867  0.2672  0.1860
  655PF6-    F414982   5.177   3.564   3.719 -0.4112  0.2374 -0.2294
  655PF6-    F514983   5.234   3.825   3.904  0.5819 -0.1824 -0.0550
  655PF6-    F614984   5.341   3.638   3.861 -0.2038 -0.0567 -0.4359
  655PF6-    F714985   5.063   3.760   3.770  0.1343 -0.1966 -0.1077
  656PF6-    P114986   0.685   0.411   0.663 -0.0288  0.0191 -0.0888
  656PF6-    F214987   0.604   0.296   0.587 -0.5073 -0.0441  0.3897
  656PF6-    F314988   0.762   0.528   0.739 -0.2237  0.2327 -0.5784
  656PF6-    F414989   0.717   0.487   0.526 -0.3553 -0.1603  0.0578
  656PF6-    F514990   0.658   0.347   0.810  0.8347  0.0978  0.3540
  656PF6-    F614991   0.824   0.333   0.644  0.1365  0.2719  0.2610
  656PF6-    F714992   0.552   0.498   0.677  0.0996  0.2852 -0.3134
  657PF6-    P114993   1.427   2.543   2.164  0.4164  0.1055 -0.0341
  657PF6-    F214994   1.346   2.677   2.197 -0.5121 -0.1354  0.2371
  657PF6-    F314995   1.495   2.402   2.131  0.5128  0.4212  0.2055
  657PF6-    F414996   1.570   2.618   2.181 -0.1681  0.0775  0.2869
  657PF6-    F514997   1.289   2.477   2.148  0.3000 -0.0197  0.2534
  657PF6-    F614998   1.425   2.580   2.010 -0.2417 -0.1899  0.2724
  657PF6-    F714999   1.419   2.504   2.317  0.0607  0.0744 -0.0147
  658PF6-    P115000   0.246   4.058   2.790  0.0174  0.1880 -0.0680
  658PF6-    F215001   0.107   4.013   2.849  0.0745  0.1296 -0.2389
  658PF6-    F315002   0.381   4.110   2.713  0.0351  0.0617 -0.0569
  658PF6-    F415003   0.192   4.212   2.810  0.2147 -0.0847 -0.0968
  658PF6-    F515004   0.290   3.904   2.770 -0.0045 -0.2559 -0.3743
  658PF6-    F615005   0.182   4.052   2.646 -0.1027 -0.7837 -0.2214
  658PF6-    F715006   0.321   4.068   2.929  0.2867 -0.1671 -0.2764
  659PF6-    P115007   0.012   4.816   4.322 -0.3549  0.4513  0.0510
  659PF6-    F215008  -0.085   4.710   4.256  0.3023  0.2685  0.0364
  659PF6-    F315009   0.121   4.918   4.387 -0.2823  0.1709  0.6436
  659PF6-    F415010   0.129   4.708   4.324 -0.2731 -0.2837  0.1536
  659PF6-    F515011  -0.100   4.928   4.314 -0.3130  0.1340  0.4643
  659PF6-    F615012  -0.043   4.769   4.464 -0.0847 -0.4278 -0.5098
  659PF6-    F715013   0.063   4.853   4.182  0.3061  0.1351  0.3020
  660PF6-    P115014   4.353   5.349   3.684  0.2124 -0.1119 -0.1967
  660PF6-    F215015   4.385   5.385   3.832  0.2633  0.0727  0.0037
  660PF6-    F315016   4.308   5.313   3.529 -0.4436 -0.3559 -0.6405
  660PF6-    F415017   4.205   5.307   3.729  0.0914 -0.3647 -0.1297
  660PF6-    F515018   4.500   5.375   3.634 -0.1747  0.0922  0.5442
  660PF6-    F615019   4.395   5.199   3.707  0.5575  0.1464 -0.2816
  660PF6-    F715020   4.315   5.503   3.662 -0.4565 -0.0511  0.6358
  661PF6-    P115021   4.516   4.816   2.717 -0.3291  0.0185 -0.0686
  661PF6-    F215022   4.672   4.824   2.690 -0.1419  0.4352 -0.4921
  661PF6-    F315023   4.354   4.806   2.741 -0.4384 -0.0693 -0.3353
  661PF6-    F415024   4.487   4.815   2.559 -0.1567 -0.1520  0.0419
  661PF6-    F515025   4.545   4.824   2.879 -0.4340 -0.1737  0.2269
  661PF6-    F615026   4.499   4.975   2.715  0.2885 -0.2359 -0.0235
  661PF6-    F715027   4.520   4.658   2.723  0.0813 -0.0399 -0.1612
  662PF6-    P115028   1.255   2.964   4.105  0.1891 -0.0713  0.2405
  662PF6-    F215029   1.098   2.961   4.103  0.0138 -0.3210  0.3249
  662PF6-    F315030   1.414   2.963   4.104  0.0522  0.3633  0.2521
  662PF6-    F415031   1.261   2.867   3.978  0.8071  0.1333 -0.1396
  662PF6-    F515032   1.255   3.069   4.228  0.4563  0.1241 -0.3994
  662PF6-    F615033   1.255   2.839   4.206 -0.0682 -0.2365 -0.1409
  662PF6-    F715034   1.259   3.094   4.006 -0.1879  0.2090  0.5681
  663PF6-    P115035   4.522   1.850   5.363 -0.0221 -0.1339  0.2493
  663PF6-    F215036   4.512   1.955   5.247 -0.0742  0.2906 -0.0884
  663PF6-    F315037   4.534   1.736   5.481  0.3892 -0.3149 -0.0565
  663PF6-    F415038   4.501   1.965   5.473 -0.2339  0.4713 -0.4538
  663PF6-    F515039   4.544   1.734   5.257  0.2295  0.2108 -0.0019
  663PF6-    F615040   4.677   1.866   5.361 -0.5116  0.0719 -0.6985
  663PF6-    F715041   4.364   1.817   5.359 -0.5995 -0.7982  0.0261
  664PF6-    P115042   1.243   3.345   3.201 -0.2654 -0.3666 -0.2697
  664PF6-    F215043   1.090   3.336   3.161 -0.7823 -0.2425 -0.2390
  664PF6-    F315044   1.396   3.341   3.235  0.2349 -0.6512 -0.0269
  664PF6-    F415045   1.277   3.330   3.046 -0.0875  0.0792 -0.4228
  664PF6-    F515046   1.203   3.360   3.355 -0.1610  0.2846  0.1390
  664PF6-    F615047   1.243   3.181   3.221  0.5193 -0.7807 -0.0326
  664PF6-    F715048   1.247   3.503   3.186 -0.1233  0.1202 -0.2148
  665PF6-    P115049   2.259   2.988   3.328 -0.2350 -0.1741 -0.1266
  665PF6-    F215050   2.196   3.051   3.461 -0.9549 -0.1630  0.5200
  665PF6-    F315051   2.316   2.934   3.190 -0.0821  0.0095 -0.4688
  665PF6-    F415052   2.407   3.045   3.363  0.4697 -0.2677 -0.1991
  665PF6-    F515053   2.118   2.926   3.292 -0.1470  0.1931 -0.0627
  665PF6-    F615054   2.216   3.115   3.246  0.2267  0.1670  0.2364
  665PF6-    F715055   2.299   2.851   3.405 -0.3741  0.0327  0.0539
  666PF6-    P115056   4.094   1.951   1.038 -0.2605 -0.0497 -0.6883
  666PF6-    F215057   4.037   2.083   0.970  0.2704 -0.1877  0.2119
  666PF6-    F315058   4.145   1.823   1.118  0.5168 -0.3501  0.0622
  666PF6-    F415059   3.990   1.864   0.957 -0.2603 -0.1445 -0.2085
  666PF6-    F515060   4.200   2.037   1.120 -0.1263  0.4996 -0.6087
  666PF6-    F615061   3.986   1.972   1.160  0.3252  0.5609  0.2586
  666PF6-    F715062   4.207   1.929   0.926  0.0660  1.1732 -0.4272
  667PF6-    P115063   4.820   0.595   3.431 -0.2081  0.0158 -0.0984
  667PF6-    F215064   4.754   0.716   3.520  0.2283  0.3137 -0.1509
  667PF6-    F315065   4.888   0.481   3.340 -0.0481  0.3171 -0.0883
  667PF6-    F415066   4.863   0.518   3.569  0.3811 -0.9577  0.3425
  667PF6-    F515067   4.780   0.674   3.299  0.1753 -0.1477  0.1789
  667PF6-    F615068   4.961   0.668   3.433  0.9392  0.2286 -0.8002
  667PF6-    F715069   4.684   0.518   3.431  0.7196  0.2525 -0.5044
  668PF6-    P115070   4.785   1.763   4.199  0.0751  0.2261  0.1303
  668PF6-    F215071   4.636   1.817   4.160  0.2938 -0.3757  0.3393
  668PF6-    F315072   4.939   1.713   4.227  0.2035 -0.0612  0.0294
  668PF6-    F415073   4.851   1.901   4.150 -0.3393  0.0627 -0.5703
  668PF6-    F515074   4.727   1.622   4.239 -0.1149 -0.0283 -0.3726
  668PF6-    F615075   4.799   1.710   4.046 -0.1336  0.1799 -0.2852
  668PF6-    F715076   4.770   1.819   4.346  0.2261  0.1786  0.4392
  669PF6-    P115077   0.969   4.074   2.205  0.2708  0.3421 -0.2475
  669PF6-    F215078   0.967   3.921   2.234  0.0807 -0.3830  0.0129
  669PF6-    F315079   0.973   4.229   2.178 -0.1355  0.3125 -0.1127
  669PF6-    F415080   1.095   4.048   2.114  0.2983  0.0680 -0.0194
  669PF6-    F515081   0.841   4.096   2.294 -0.0267 -0.1956 -0.7484
  669PF6-    F615082   1.064   4.091   2.336  0.2463 -0.0689  0.0668
  669PF6-    F715083   0.874   4.059   2.073 -0.0114  0.0675  0.3045
  670PF6-    P115084   3.842   3.296   4.835 -0.4005 -0.0938 -0.1097
  670PF6-    F215085   3.741   3.414   4.792  0.0306  0.3494  0.3194
  670PF6-    F315086   3.935   3.177   4.881 -0.0119 -0.0817 -0.3954
  670PF6-    F415087   3.907   3.387   4.955 -0.5797  0.1606  0.1498
  670PF6-    F515088   3.771   3.199   4.727 -0.0758  0.1419 -0.2065
  670PF6-    F615089   3.951   3.344   4.729 -0.1414  0.1626 -0.1299
  670PF6-    F715090   3.733   3.248   4.943 -0.2078  0.1143  0.3478
  671PF6-    P115091   1.569   4.576   2.902 -0.0838 -0.4499 -0.2091
  671PF6-    F215092   1.606   4.664   3.032 -0.0965 -0.0290  0.0844
  671PF6-    F315093   1.534   4.485   2.774  0.5321  0.0451  0.1252
  671PF6-    F415094   1.444   4.516   2.982 -0.2481  0.2598  0.3952
  671PF6-    F515095   1.692   4.638   2.824 -0.4409 -0.2945  0.4269
  671PF6-    F615096   1.660   4.459   2.956 -0.0026 -0.0200 -0.1690
  671PF6-    F715097   1.469   4.686   2.843  0.4083  0.0429  0.2538
  672PF6-    P115098   1.970   0.653   1.771 -0.4173 -0.8035  0.1437
  672PF6-    F215099   1.817   0.644   1.820 -0.1773 -0.3595  0.0054
  672PF6-    F315100   2.122   0.656   1.732  0.2051 -0.3472  0.5233
  672PF6-    F415101   2.017   0.677   1.922 -0.0267  0.0554 -0.5777
  672PF6-    F515102   1.929   0.634   1.617  0.1847 -0.2248  0.5283
  672PF6-    F615103   1.962   0.819   1.744  0.0160 -0.3734 -0.4282
  672PF6-    F715104   1.989   0.499   1.803  0.5434 -0.1893 -0.4003
  673PF6-    P115105   5.467   0.405   2.080 -0.0021  0.0725  0.2344
  673PF6-    F215106   5.624   0.404   2.059  0.4251 -0.1385  0.2202
  673PF6-    F315107   5.309   0.417   2.108 -0.4650 -0.6956 -0.0434
  673PF6-    F415108   5.490   0.346   2.227  0.2952  0.3981  0.2369
  673PF6-    F515109   5.446   0.468   1.931 -0.3491  0.2083 -0.2269
  673PF6-    F615110   5.444   0.257   2.023 -0.0121  0.3264 -0.2272
  673PF6-    F715111   5.484   0.554   2.134  0.3689 -0.3305 -0.0716
  674PF6-    P115112   4.554   1.632   1.979 -0.3484  0.0019 -0.1352
  674PF6-    F215113   4.566   1.679   2.129 -0.6532  0.1962 -0.0747
  674PF6-    F315114   4.548   1.573   1.832  0.3971 -0.3996  0.5654
  674PF6-    F415115   4.698   1.696   1.944  0.2036 -0.1188 -0.2465
  674PF6-    F515116   4.412   1.558   2.017  0.5323  0.6441 -0.7298
  674PF6-    F615117   4.475   1.765   1.941 -0.6297 -0.0527 -0.2185
  674PF6-    F715118   4.629   1.493   2.019  0.1727  0.1763 -0.0058
  675PF6-    P115119   2.674   3.599   0.917 -0.0560  0.1913  0.0350
  675PF6-    F215120   2.578   3.519   0.820 -0.3362  0.2658  0.6670
  675PF6-    F315121   2.763   3.695   1.011  0.0005  0.4901 -0.6370
  675PF6-    F415122   2.806   3.552   0.829 -0.2621 -0.1038 -0.0218
  675PF6-    F515123   2.546   3.642   0.996 -0.2868  0.0830  0.0461
  675PF6-    F615124   2.694   3.473   1.015 -0.5514 -0.3462 -0.7801
  675PF6-    F715125   2.662   3.724   0.818 -0.4698  0.1719  0.0271
  676PF6-    P115126   1.350   3.699   0.352 -0.0463  0.2826 -0.2788
  676PF6-    F215127   1.300   3.547   0.317  0.1221 -0.3779  0.1156
  676PF6-    F315128   1.397   3.840   0.401  0.3023  0.2896 -0.0251
  676PF6-    F415129   1.498   3.644   0.371  0.2827  0.2906  0.7199
  676PF6-    F515130   1.203   3.753   0.340 -0.2573 -0.2911  0.6510
  676PF6-    F615131   1.325   3.672   0.504  0.1204  0.3514  0.4439
  676PF6-    F715132   1.378   3.737   0.200  0.3171 -0.2875  0.1232
  677PF6-    P115133   0.680   2.392   4.542  0.1540  0.1084  0.2951
  677PF6-    F215134   0.691   2.540   4.605  0.3809  0.2955 -0.1116
  677PF6-    F315135   0.679   2.241   4.486 -0.0086  0.3842 -0.2738
  677PF6-    F415136   0.607   2.346   4.677 -0.2484  0.0366 -0.4154
  677PF6-    F515137   0.754   2.441   4.410  0.9105  0.4706 -0.1613
  677PF6-    F615138   0.816   2.366   4.616  0.8319 -0.3520  0.0893
  677PF6-    F715139   0.539   2.432   4.476  0.1715  0.4229 -0.1536
  678PF6-    P115140   3.197   0.976   2.748  0.0336 -0.0369 -0.2219
  678PF6-    F215141   3.243   1.128   2.779 -0.5666  0.4534 -0.4906
  678PF6-    F315142   3.157   0.825   2.710 -0.0580 -0.1199  0.0922
  678PF6-    F415143   3.246   0.927   2.897 -0.0819 -0.1770 -0.3109
  678PF6-    F515144   3.143   1.026   2.606 -0.1264  0.4152 -0.1019
  678PF6-    F615145   3.346   0.945   2.693  0.4077 -0.0610 -0.2095
  678PF6-    F715146   3.048   0.998   2.817  0.1387  0.3258  0.1197
  679PF6-    P115147   4.312   4.417   3.810  0.0758  0.2369 -0.0861
  679PF6-    F215148   4.280   4.262   3.849  0.1296 -0.1348 -0.3874
  679PF6-    F315149   4.345   4.569   3.775 -0.6637  0.3013  0.2608
  679PF6-    F415150   4.208   4.470   3.925  0.2158 -0.5710  0.1984
  679PF6-    F515151   4.414   4.368   3.700  0.2864 -0.2218  0.3905
  679PF6-    F615152   4.193   4.414   3.705  0.6972 -0.2291  0.3620
  679PF6-    F715153   4.431   4.415   3.924 -0.6242 -0.5722 -0.1607
  680PF6-    P115154   0.545   3.797   4.236 -0.2568 -0.3176 -0.0151
  680PF6-    F215155   0.555   3.659   4.156  0.2638 -0.4487 -0.3853
  680PF6-    F315156   0.538   3.930   4.318 -0.6879  0.1007 -0.3661
  680PF6-    F415157   0.523   3.874   4.094  0.2139 -0.5459 -0.7031
  680PF6-    F515158   0.561   3.720   4.375 -0.1064  0.0519 -0.4330
  680PF6-    F615159   0.703   3.805   4.227 -0.7801  0.2676  0.1107
  680PF6-    F715160   0.383   3.790   4.238 -0.4599  0.1687 -0.0108
  681PF6-    P115161   5.415   1.672   0.417  0.2601  0.1278 -0.0287
  681PF6-    F215162   5.403   1.578   0.290 -0.0927  0.7693 -0.3442
  681PF6-    F315163   5.429   1.767   0.546  0.0188 -0.1356  0.3359
  681PF6-    F415164   5.284   1.744   0.375 -0.3179 -0.3297  0.0733
  681PF6-    F515165   5.540   1.591   0.464 -0.0422 -0.0907 -0.5867
  681PF6-    F615166   5.502   1.775   0.332 -0.0046 -0.0267  0.0938
  681PF6-    F715167   5.333   1.574   0.507  0.3924 -0.2518  0.4561
  682PF6-    P115168   2.204   0.413   2.597  0.3541 -0.0708 -0.0099
  682PF6-    F215169   2.088   0.376   2.701 -0.4254  0.2000 -0.6104
  682PF6-    F315170   2.321   0.439   2.492 -0.2798 -0.2315 -0.7924
  682PF6-    F415171   2.143   0.303   2.498 -0.1708 -0.0169 -0.1491
  682PF6-    F515172   2.267   0.520   2.691  0.1024  0.0050  0.7937
  682PF6-    F615173   2.298   0.304   2.666  0.1468 -0.0471 -0.0342
  682PF6-    F715174   2.116   0.531   2.535 -0.1202  0.2267  0.0256
  683PF6-    P115175   4.510   4.163   1.906  0.0163 -0.2484  0.3690
  683PF6-    F215176   4.530   4.289   1.811 -0.2342  0.2484  0.3657
  683PF6-    F315177   4.484   4.037   1.996 -0.0092  0.0222 -0.3753
  683PF6-    F415178   4.409   4.252   1.999  0.3886 -0.9914  0.0482
  683PF6-    F515179   4.608   4.074   1.819 -0.0040  0.4306  0.4974
  683PF6-    F615180   4.632   4.208   1.997 -0.6604  0.7195  0.1170
  683PF6-    F715181   4.393   4.123   1.811 -0.2463  0.2951 -0.4875
  684PF6-    P115182   0.019   1.024   4.851 -0.1542  0.5038 -0.0469
  684PF6-    F215183   0.015   1.177   4.887 -0.1847 -0.7578 -0.0774
  684PF6-    F315184   0.025   0.872   4.802  0.5061  0.3301 -0.4206
  684PF6-    F415185   0.164   1.016   4.912 -0.2974  0.2315 -0.5300
  684PF6-    F515186  -0.123   1.033   4.786  0.2499  0.4568  0.0653
  684PF6-    F615187   0.082   1.063   4.709 -0.2295 -0.2105  0.2116
  684PF6-    F715188  -0.044   0.985   4.996 -0.4767  0.2138  0.0497
  685PF6-    P115189   3.681   4.379   1.479  0.1490 -0.2913 -0.5997
  685PF6-    F215190   3.740   4.265   1.570  0.2541  0.0450  0.6982
  685PF6-    F315191   3.619   4.501   1.396  0.1706 -0.0458 -0.0471
  685PF6-    F415192   3.832   4.444   1.456  0.5421 -0.5984 -0.0172
  685PF6-    F515193   3.534   4.322   1.501 -0.3810  1.0055  0.4097
  685PF6-    F615194   3.659   4.466   1.611 -0.2647 -0.1953 -0.5069
  685PF6-    F715195   3.701   4.287   1.352 -0.4537 -0.1834  0.4862
  686PF6-    P115196   0.168   2.086   2.562  0.2016 -0.1274  0.0323
  686PF6-    F215197   0.275   1.973   2.589  0.1565 -0.2563  0.2219
  686PF6-    F315198   0.047   2.195   2.535 -0.1129  0.4453  0.0622
  686PF6-    F415199   0.122   2.011   2.424 -0.2202  0.4874  0.4445
  686PF6-    F515200   0.203   2.163   2.697  0.3570  0.5610  0.5290
  686PF6-    F615201   0.261   2.180   2.476  0.3037  0.1832 -0.2875
  686PF6-    F715202   0.060   1.996   2.641 -0.0629 -0.1447 -0.3688
  687PF6-    P115203   0.301   2.997   4.060 -0.3853 -0.0609  0.1375
  687PF6-    F215204   0.288   3.149   4.102 -0.0794 -0.2888 -0.2545
  687PF6-    F315205   0.325   2.849   4.009  0.3136  0.1792 -0.1431
  687PF6-    F415206   0.283   2.945   4.214  0.7032 -0.0409 -0.2011
  687PF6-    F515207   0.326   3.041   3.905 -0.2261 -0.5997 -0.1195
  687PF6-    F615208   0.458   3.004   4.086  0.1835 -0.1287 -0.4994
  687PF6-    F715209   0.145   2.990   4.032 -0.1195  0.0454 -0.1340
  688PF6-    P115210   2.342   1.287   0.123 -0.0725 -0.4498 -0.1897
  688PF6-    F215211   2.372   1.176   0.017 -0.0283 -0.1954  0.1111
  688PF6-    F315212   2.307   1.395   0.235  0.6130  0.1366 -0.4011
  688PF6-    F415213   2.277   1.165   0.216 -0.3750 -0.4717 -0.1628
  688PF6-    F515214   2.412   1.411   0.036 -0.1854 -0.1387  0.4074
  688PF6-    F615215   2.197   1.305   0.049 -0.4629 -0.3725  0.0795
  688PF6-    F715216   2.488   1.260   0.190  0.0436 -0.1227 -0.4265
  689PF6-    P115217   5.402   4.364   5.333  0.0942 -0.4237 -0.0750
  689PF6-    F215218   5.490   4.429   5.216 -0.3316 -0.2381 -0.0538
  689PF6-    F315219   5.303   4.319   5.446 -0.2425 -0.1053  0.3596
  689PF6-    F415220   5.289   4.460   5.282 -0.0751  0.0705 -0.2507
  689PF6-    F515221   5.513   4.266   5.379 -0.1806  0.5465 -0.1994
  689PF6-    F615222   5.454   4.480   5.434 -0.4603 -0.0964  0.3559
  689PF6-    F715223   5.353   4.250   5.229  0.0943 -1.0510 -0.1453
  690PF6-    P115224   5.116   4.708   0.927 -0.3437  0.0450  0.0744
  690PF6-    F215225   4.988   4.648   0.845 -0.7827  0.0956 -0.6877
  690PF6-    F315226   5.235   4.779   1.006 -0.2308  0.1446  0.4085
  690PF6-    F415227   5.147   4.568   0.991  0.0498 -0.0815  0.2536
  690PF6-    F515228   5.085   4.856   0.863  0.6837  0.6125 -0.2854
  690PF6-    F615229   5.017   4.740   1.047 -0.4842  0.0673 -0.2276
  690PF6-    F715230   5.214   4.678   0.800 -0.0250 -0.3415 -0.5203
  691PF6-    P115231   2.308   5.209   1.248  0.3354  0.3245  0.2540
  691PF6-    F215232   2.227   5.334   1.302 -0.1928  0.0472 -0.3787
  691PF6-    F315233   2.388   5.084   1.184  0.1299  0.2947 -0.2497
  691PF6-    F415234   2.198   5.199   1.131 -0.0235  0.7197 -0.1419
  691PF6-    F515235   2.410   5.213   1.369 -0.2878 -0.1931  0.3157
  691PF6-    F615236   2.222   5.110   1.334  0.1903  0.1694  0.5704
  691PF6-    F715237   2.397   5.309   1.163 -0.0630  0.2725 -0.1565
  692PF6-    P115238   3.236   1.158   1.396 -0.0444  0.2439 -0.1870
  692PF6-    F215239   3.280   1.299   1.454  0.1140  0.1065  0.8035
  692PF6-    F315240   3.199   1.014   1.341  0.4709  0.1238  0.1901
  692PF6-    F415241   3.179   1.112   1.539 -0.1350 -0.0462 -0.2060
  692PF6-    F515242   3.283   1.201   1.252 -0.2074  0.1895  0.4401
  692PF6-    F615243   3.381   1.100   1.431  0.1243 -0.1708  0.1458
  692PF6-    F715244   3.090   1.211   1.366 -0.4476  0.1856 -0.1631
  693PF6-    P115245   0.383   2.663   0.965  0.4389 -0.2437 -0.3823
  693PF6-    F215246   0.538   2.658   0.947  0.6628 -0.0379  0.0190
  693PF6-    F315247   0.230   2.669   0.988  0.0699 -0.0446  0.4234
  693PF6-    F415248   0.374   2.800   0.885 -0.1406 -0.3630 -0.1886
  693PF6-    F515249   0.383   2.527   1.051  0.5629  0.2848 -0.3041
  693PF6-    F615250   0.409   2.753   1.098  0.5716  0.2082 -0.4495
  693PF6-    F715251   0.365   2.575   0.834  0.0469  0.3783 -0.0925
  694PF6-    P115252   2.529   4.360   5.115 -0.1664 -0.0736  0.3031
  694PF6-    F215253   2.370   4.341   5.135 -0.1048  0.3505 -0.3245
  694PF6-    F315254   2.688   4.379   5.109 -0.0015  0.2073 -0.0351
  694PF6-    F415255   2.504   4.498   5.041 -0.2790 -0.2378  0.2251
  694PF6-    F515256   2.554   4.221   5.197  0.2611  0.2176 -0.3691
  694PF6-    F615257   2.528   4.289   4.980 -0.4704 -0.0718 -0.5139
  694PF6-    F715258   2.534   4.439   5.257  0.3051  0.2569 -0.4103
  695PF6-    P115259   0.093   3.586   1.950 -0.3227  0.0468 -0.0005
  695PF6-    F215260   0.066   3.598   2.107 -0.0699 -0.8558  0.2022
  695PF6-    F315261   0.126   3.575   1.800  0.2235 -0.0141  0.4359
  695PF6-    F415262  -0.057   3.625   1.914 -0.1746 -0.2668  0.2127
  695PF6-    F515263   0.244   3.552   1.981 -0.2399  0.0133 -0.4266
  695PF6-    F615264   0.058   3.428   1.952 -0.2694 -0.1644 -0.4906
  695PF6-    F715265   0.128   3.742   1.935 -0.7168 -0.0392 -0.0547
  696PF6-    P115266   1.427   4.467   0.529 -0.3451  0.7387  0.0445
  696PF6-    F215267   1.388   4.309   0.514  0.5385 -0.0232  0.0846
  696PF6-    F315268   1.464   4.622   0.544  0.3245 -0.4985 -0.1259
  696PF6-    F415269   1.297   4.492   0.628 -0.0583 -0.1436 -0.1834
  696PF6-    F515270   1.558   4.451   0.432  0.6151  0.4726 -0.2189
  696PF6-    F615271   1.340   4.506   0.399  0.0220 -0.0136  0.2324
  696PF6-    F715272   1.518   4.432   0.659  0.3237  0.0047  0.2209
  697PF6-    P115273   2.058   0.576   0.929  0.1797  0.0247 -0.2852
  697PF6-    F215274   2.121   0.558   1.075 -0.0565 -0.3334 -0.3635
  697PF6-    F315275   1.990   0.593   0.778 -0.4015 -0.5391  0.5967
  697PF6-    F415276   2.185   0.656   0.886  0.2774  0.0112  0.3201
  697PF6-    F515277   1.929   0.477   0.968 -0.1358 -0.5937 -0.5803
  697PF6-    F615278   1.986   0.705   0.977  0.2618  0.0266 -0.5111
  697PF6-    F715279   2.131   0.447   0.879  0.3498  0.2331  0.0932
  698PF6-    P115280   3.744   0.976   0.336  0.1442 -0.3696  0.0798
  698PF6-    F215281   3.684   0.834   0.361  0.1885 -0.0473 -0.3237
  698PF6-    F315282   3.811   1.125   0.297  0.0697  0.2810  0.0553
  698PF6-    F415283   3.834   0.913   0.219 -0.0847  0.5817  0.5100
  698PF6-    F515284   3.651   1.043   0.457  0.1374  0.1560 -0.4661
  698PF6-    F615285   3.861   0.937   0.438  0.4289 -0.2504  0.7936
  698PF6-    F715286   3.629   1.002   0.230  0.5038  0.0056 -0.4522
  699PF6-    P115287   1.643   2.285   5.210  0.0732  0.3783 -0.4914
  699PF6-    F215288   1.686   2.157   5.123 -0.0440 -0.1189  0.1071
  699PF6-    F315289   1.608   2.413   5.305  0.2978  0.3805 -0.1204
  699PF6-    F415290   1.746   2.236   5.323  0.0405 -0.3449 -0.0707
  699PF6-    F515291   1.537   2.338   5.095  0.1083 -0.1010  0.0687
  699PF6-    F615292   1.519   2.204   5.281 -0.2385  0.2197  0.4291
  699PF6-    F715293   1.771   2.370   5.135 -0.4019 -0.0462  0.1530
  700PF6-    P115294   2.533   3.825   2.649 -0.2936  0.0108 -0.1466
  700PF6-    F215295   2.514   3.967   2.586 -0.2674  0.0053  0.3570
  700PF6-    F315296   2.560   3.680   2.705 -0.0353  0.3619  0.1373
  700PF6-    F415297   2.384   3.782   2.595  0.0440 -0.1719  0.4084
  700PF6-    F515298   2.681   3.869   2.702  0.2416  0.0724  0.3479
  700PF6-    F615299   2.466   3.880   2.785 -0.1795 -0.1384 -0.0432
  700PF6-    F715300   2.584   3.769   2.511  0.1793  0.0762  0.3814
  701PF6-    P115301   2.809   0.455   1.913 -0.1540  0.5685 -0.3131
  701PF6-    F215302   2.895   0.405   2.039 -0.2486  0.1062  0.0543
  701PF6-    F315303   2.712   0.502   1.790  0.0191  0.4722 -0.1206
  701PF6-    F415304   2.798   0.304   1.857  0.6129  0.0686  0.3391
  701PF6-    F515305   2.818   0.608   1.962 -0.1167  0.5600 -0.1784
  701PF6-    F615306   2.942   0.477   1.818  0.1023 -0.2172  0.2252
  701PF6-    F715307   2.677   0.440   1.997  0.5050 -0.2730 -0.3693
  702PF6-    P115308   4.588   2.861   1.534 -0.1548 -0.1096 -0.3089
  702PF6-    F215309   4.604   2.996   1.616 -0.2110 -0.1145  0.1068
  702PF6-    F315310   4.579   2.726   1.447  0.6218  0.0476 -0.6742
  702PF6-    F415311   4.654   2.936   1.409  0.3963  0.0499  0.3083
  702PF6-    F515312   4.524   2.789   1.658 -0.2882  0.4523 -0.2135
  702PF6-    F615313   4.445   2.914   1.490 -0.2270  0.0930 -0.5141
  702PF6-    F715314   4.734   2.824   1.580 -0.5300  0.1604  0.2380
  703PF6-    P115315   5.478   3.524   5.220  0.2861 -0.1047  0.0543
  703PF6-    F215316   5.614   3.458   5.158  0.0197  0.1593 -0.2319
  703PF6-    F315317   5.339   3.586   5.274  0.2706 -0.7647  0.9395
  703PF6-    F415318   5.420   3.371   5.242  0.5481 -0.4538  0.0080
  703PF6-    F515319   5.528   3.668   5.195  0.5472 -0.4626  0.5008
  703PF6-    F615320   5.412   3.519   5.073 -0.1186 -0.7025  0.2756
  703PF6-    F715321   5.540   3.515   5.366 -0.0180  0.2291 -0.1573
  704PF6-    P115322   3.870   1.723   5.069 -0.1547  0.0924 -0.2497
  704PF6-    F215323   3.749   1.674   5.159  0.6183 -0.1936 -0.2397
  704PF6-    F315324   3.994   1.762   4.976 -0.0166 -0.5143  0.3597
  704PF6-    F415325   3.855   1.582   4.991  0.1358  0.6681  0.5621
  704PF6-    F515326   3.881   1.859   5.154 -0.3881  0.3780  0.6039
  704PF6-    F615327   3.966   1.653   5.173 -0.2265  0.7570  0.6109
  704PF6-    F715328   3.771   1.800   4.975 -0.2766 -0.1696 -0.3311
  705PF6-    P115329   0.749   0.148   2.455  0.0675 -0.1245 -0.2391
  705PF6-    F215330   0.738   0.036   2.567  0.1165  0.2518  0.4055
  705PF6-    F315331   0.769   0.256   2.339 -0.3866  0.5496  0.7920
  705PF6-    F415332   0.803   0.041   2.351 -0.4881 -0.0060 -0.3518
  705PF6-    F515333   0.692   0.264   2.549 -0.6932 -0.3838  0.3160
  705PF6-    F615334   0.898   0.180   2.506  0.1813 -0.0543  0.1397
  705PF6-    F715335   0.597   0.120   2.405  0.3142 -0.2105  0.1337
  706PF6-    P115336   1.461   0.006   0.520 -0.0833 -0.0425 -0.1748
  706PF6-    F215337   1.523   0.156   0.542  0.0873 -0.5150 -0.0848
  706PF6-    F315338   1.404  -0.136   0.503 -0.2877  0.0950  0.3255
  706PF6-    F415339   1.602  -0.045   0.468  0.4544 -0.0575 -0.7573
  706PF6-    F515340   1.315   0.051   0.583  0.1319 -0.5741 -0.2991
  706PF6-    F615341   1.416   0.039   0.370 -0.3344 -0.5962 -0.3550
  706PF6-    F715342   1.503  -0.034   0.671  0.1444 -0.1438  0.3994
  707PF6-    P115343   3.334   1.628   4.464  0.1727 -0.5886 -0.1176
  707PF6-    F215344   3.468   1.594   4.527 -0.7283  0.1764 -0.2027
  707PF6-    F315345   3.193   1.656   4.399  0.5078 -0.2170 -0.1423
  707PF6-    F415346   3.274   1.486   4.512 -0.5195  0.0432 -0.0263
  707PF6-    F515347   3.387   1.769   4.410 -0.9978  0.6061  0.3321
  707PF6-    F615348   3.380   1.561   4.327  0.2108  0.4544  0.1572
  707PF6-    F715349   3.288   1.695   4.608 -0.4420  0.2533 -0.4164
  708PF6-    P115350   5.356   2.676   1.766 -0.0134  0.2888 -0.3191
  708PF6-    F215351   5.416   2.786   1.667 -0.2790  0.2400  0.3587
  708PF6-    F315352   5.301   2.556   1.856  0.4889  0.0269 -0.4444
  708PF6-    F415353   5.483   2.588   1.728 -0.4501  0.3838 -0.2222
  708PF6-    F515354   5.233   2.772   1.804  0.0628  0.6236 -0.5314
  708PF6-    F615355   5.274   2.613   1.649 -0.4047  0.4420  0.6539
  708PF6-    F715356   5.435   2.739   1.890 -0.2587 -0.3696 -0.1259
  709PF6-    P115357   0.354   3.491   0.595  0.0947  0.6035 -0.1343
  709PF6-    F215358   0.393   3.383   0.703 -0.5108  0.6441  0.6143
  709PF6-    F315359   0.316   3.604   0.483  0.3307 -0.0055 -0.3205
  709PF6-    F415360   0.306   3.593   0.712 -0.1895 -0.1083  0.4741
  709PF6-    F515361   0.401   3.395   0.475 -0.0458  0.0209  0.0823
  709PF6-    F615362   0.208   3.427   0.586 -0.1314  0.2327  0.2049
  709PF6-    F715363   0.500   3.565   0.603  0.4377  0.5375 -0.1664
  710PF6-    P115364   4.583   3.350   3.363 -0.2574 -0.0369 -0.0806
  710PF6-    F215365   4.492   3.239   3.279  0.0122  0.4709 -0.3496
  710PF6-    F315366   4.671   3.457   3.442  0.0971 -0.0475  0.4364
  710PF6-    F415367   4.619   3.244   3.477  0.5831  1.2291 -0.0876
  710PF6-    F515368   4.552   3.453   3.244 -0.5036  0.2664 -0.1305
  710PF6-    F615369   4.453   3.396   3.440  0.0629  0.1484 -0.0113
  710PF6-    F715370   4.710   3.304   3.278 -0.4162 -0.0295  0.4182
  711PF6-    P115371   0.898   4.615   1.258 -0.3951 -0.1631  0.6046
  711PF6-    F215372   0.803   4.716   1.340  0.1565  0.0769  0.3582
  711PF6-    F315373   0.996   4.512   1.181  0.0917 -0.1896 -0.0241
  711PF6-    F415374   1.033   4.706   1.269 -0.4755  0.0025  0.0888
  711PF6-    F515375   0.777   4.519   1.236 -0.1339 -0.1460  0.1170
  711PF6-    F615376   0.861   4.691   1.121 -0.2520 -0.2172 -0.5644
  711PF6-    F715377   0.940   4.543   1.392 -0.3700 -0.3112  0.2141
  712PF6-    P115378   0.778   2.502   0.025 -0.0093 -0.0401  0.3555
  712PF6-    F215379   0.791   2.425   0.162  0.2154 -0.0117  0.1334
  712PF6-    F315380   0.773   2.578  -0.110 -0.5214 -0.0239  0.1612
  712PF6-    F415381   0.858   2.623   0.093 -0.5046 -0.2187  0.1829
  712PF6-    F515382   0.695   2.382  -0.048 -0.3986  0.1767  0.1299
  712PF6-    F615383   0.641   2.566   0.072 -0.5668 -0.3478 -0.2133
  712PF6-    F715384   0.917   2.431  -0.018 -0.0420 -0.0390 -0.3179
  713PF6-    P115385   1.384   1.960   0.450 -0.3136 -0.0034  0.0055
  713PF6-    F215386   1.532   1.945   0.502 -0.2669  0.2932  0.2220
  713PF6-    F315387   1.237   1.977   0.405 -0.3451 -0.3826 -0.0042
  713PF6-    F415388   1.394   2.117   0.480 -0.0675  0.5186 -0.0448
  713PF6-    F515389   1.369   1.799   0.420  0.0471  0.3421 -0.1222
  713PF6-    F615390   1.335   1.941   0.600 -0.2968  0.1961 -0.1707
  713PF6-    F715391   1.442   1.995   0.306  0.1148  0.1321 -0.0634
  714PF6-    P115392   2.480   5.338   3.958  0.0978  0.0756 -0.2217
  714PF6-    F215393   2.505   5.488   3.910  0.6222  0.4081 -0.2714
  714PF6-    F315394   2.454   5.191   4.000 -0.5761  0.0144 -0.3200
  714PF6-    F415395   2.347   5.382   4.033 -0.9049 -0.0356 -0.1213
  714PF6-    F515396   2.612   5.303   3.879 -0.0049 -0.1073  0.2145
  714PF6-    F615397   2.564   5.369   4.092 -0.1532  0.3134 -0.0541
  714PF6-    F715398   2.385   5.314   3.829  0.0473 -0.1029  0.0464
  715PF6-    P115399   5.050   2.859   0.700 -0.3280  0.1890 -0.3670
  715PF6-    F215400   4.993   2.938   0.825  0.1781 -0.3144 -0.6377
  715PF6-    F315401   5.101   2.773   0.567 -0.5470 -0.8182 -0.0061
  715PF6-    F415402   5.016   2.978   0.603  0.3240  0.3387  0.3945
  715PF6-    F515403   5.079   2.738   0.797 -0.5809  0.3488 -0.3804
  715PF6-    F615404   4.898   2.797   0.683  0.0466 -0.5698 -0.0308
  715PF6-    F715405   5.194   2.915   0.716 -0.4538 -0.1726 -0.4206
  716PF6-    P115406   3.689   4.112   2.537 -0.0281  0.2455  0.0955
  716PF6-    F215407   3.616   4.178   2.411  0.2565  0.4071  0.0722
  716PF6-    F315408   3.766   4.041   2.659 -0.0391  0.4762 -0.2747
  716PF6-    F415409   3.816   4.079   2.454  0.1180 -0.2727  0.5362
  716PF6-    F515410   3.561   4.148   2.627  0.5064 -0.2329  0.6108
  716PF6-    F615411   3.635   3.971   2.487 -0.0571 -0.1430 -0.0862
  716PF6-    F715412   3.757   4.250   2.573  0.1841  0.3408  0.6387
  717PF6-    P115413   3.429   5.255   1.531 -0.4518  0.1220 -0.4483
  717PF6-    F215414   3.475   5.160   1.647  0.1118 -0.4110 -0.2345
  717PF6-    F315415   3.386   5.357   1.416 -0.0947  0.2181  0.0694
  717PF6-    F415416   3.334   5.329   1.638  0.2741 -0.1988 -0.4770
  717PF6-    F515417   3.528   5.179   1.429 -0.0023 -0.2361 -0.4148
  717PF6-    F615418   3.310   5.155   1.485 -0.0295 -0.0284 -0.2318
  717PF6-    F715419   3.551   5.356   1.571  0.0941 -0.2835 -0.2185
  718PF6-    P115420   2.638   4.198   3.674 -0.0042  0.2587  0.1208
  718PF6-    F215421   2.748   4.086   3.693  0.5647  0.2391  0.1193
  718PF6-    F315422   2.532   4.313   3.661 -0.0798 -0.9147  0.2625
  718PF6-    F415423   2.567   4.112   3.560 -0.0642 -0.4355 -0.4316
  718PF6-    F515424   2.714   4.292   3.782  0.2159  0.3401  0.1942
  718PF6-    F615425   2.724   4.267   3.558  0.6065 -0.4394 -0.3166
  718PF6-    F715426   2.556   4.134   3.793  0.1303  0.2133  0.1319
  719PF6-    P115427   3.590   4.503   0.459 -0.2542 -0.1404  0.1797
  719PF6-    F215428   3.747   4.488   0.493  0.0701 -0.0017  0.1319
  719PF6-    F315429   3.433   4.511   0.424 -0.0046 -0.2483 -0.2347
  719PF6-    F415430   3.624   4.480   0.303 -0.1059  0.1031  0.3591
  719PF6-    F515431   3.566   4.526   0.615  0.3102  0.3667 -0.1894
  719PF6-    F615432   3.610   4.662   0.442  0.2034  0.0308  0.3815
  719PF6-    F715433   3.581   4.344   0.481  0.0293 -0.0426 -0.1644
  720PF6-    P115434   3.907   3.469   0.706  0.3447  0.1524  0.1130
  720PF6-    F215435   4.031   3.374   0.678  0.1002  0.5452  0.0483
  720PF6-    F315436   3.785   3.576   0.735 -0.3167  0.2786  0.5616
  720PF6-    F415437   3.810   3.341   0.706  0.0482 -0.1390 -0.1495
  720PF6-    F515438   4.007   3.587   0.705  0.0502 -0.3432  0.1653
  720PF6-    F615439   3.882   3.480   0.552  0.6080  0.2768 -0.9039
  720PF6-    F715440   3.933   3.453   0.866  0.4621  0.2740 -0.3519
  721PF6-    P115441   4.477   0.562   2.492  0.0593  0.1950 -0.0207
  721PF6-    F215442   4.446   0.706   2.553  0.5334 -0.2569 -0.0540
  721PF6-    F315443   4.497   0.415   2.426  0.2923  0.2706 -0.1041
  721PF6-    F415444   4.613   0.608   2.425  0.3377 -0.1409  0.6171
  721PF6-    F515445   4.332   0.514   2.547 -0.2745  0.1852  0.5030
  721PF6-    F615446   4.398   0.606   2.355  0.4636  0.0787  0.4806
  721PF6-    F715447   4.553   0.527   2.628  0.0363 -0.2058  0.1150
  722PF6-    P115448   1.266   1.096   1.115  0.3378  0.0013  0.0516
  722PF6-    F215449   1.141   1.014   1.040  0.0237 -0.4482 -0.5810
  722PF6-    F315450   1.393   1.167   1.188  0.2940  0.3991 -0.5095
  722PF6-    F415451   1.161   1.164   1.215  0.3488  0.0046  0.0374
  722PF6-    F515452   1.360   1.027   1.004  0.1714  0.4619 -0.1555
  722PF6-    F615453   1.250   1.220   1.020  0.1056 -0.2546  0.3784
  722PF6-    F715454   1.285   0.977   1.216  0.4333  0.1969 -0.5721
  723PF6-    P115455   1.106   2.487   2.915  0.2311 -0.4077  0.1744
  723PF6-    F215456   1.138   2.576   3.046 -0.6445 -0.2094  0.2929
  723PF6-    F315457   1.071   2.405   2.788 -0.0677  0.1966 -0.2468
  723PF6-    F415458   0.983   2.418   2.997 -0.3056  0.0196 -0.2084
  723PF6-    F515459   1.224   2.552   2.838  0.2802 -0.3436 -0.2996
  723PF6-    F615460   1.204   2.369   2.964 -0.4793  0.3639  0.5260
  723PF6-    F715461   1.013   2.602   2.857 -0.0859  0.1536 -0.3577
  724PF6-    P115462   3.958   1.952   3.496  0.3987 -0.4348 -0.3657
  724PF6-    F215463   3.883   1.805   3.504 -0.3924 -0.0994 -0.0281
  724PF6-    F315464   4.027   2.096   3.490 -0.7748  0.2427  0.0396
  724PF6-    F415465   3.818   2.021   3.499 -0.0136 -0.2638 -0.3081
  724PF6-    F515466   4.099   1.879   3.499  0.5853  0.3932  0.0381
  724PF6-    F615467   3.942   1.942   3.340  0.1405  0.3314  0.2452
  724PF6-    F715468   3.960   1.964   3.654 -0.0139  0.6217  0.1207
  725PF6-    P115469   3.903   0.507   4.927  0.1674 -0.3745 -0.0724
  725PF6-    F215470   3.978   0.579   5.049 -0.1055  0.2038  0.1776
  725PF6-    F315471   3.836   0.439   4.800  0.4301  0.0385  0.2276
  725PF6-    F415472   3.834   0.407   5.028  0.0167 -0.0775 -0.1698
  725PF6-    F515473   3.979   0.609   4.826  0.3732  0.0751  0.0701
  725PF6-    F615474   4.028   0.401   4.917 -0.6885 -0.3596 -0.1315
  725PF6-    F715475   3.784   0.613   4.953  0.0552  0.2342 -0.0835
  726PF6-    P115476   2.680   2.283   0.781 -0.1409 -0.4152  0.0580
  726PF6-    F215477   2.799   2.177   0.757 -0.1405  0.2643  0.0642
  726PF6-    F315478   2.563   2.391   0.814  0.6074  0.3294 -0.4100
  726PF6-    F415479   2.585   2.164   0.832  0.2768 -0.0054 -0.3266
  726PF6-    F515480   2.772   2.407   0.735 -0.3187  0.3798  0.0736
  726PF6-    F615481   2.625   2.265   0.629  0.1073  0.5485  0.1975
  726PF6-    F715482   2.742   2.302   0.928 -0.2713 -0.8517 -0.2022
  727PF6-    P115483   5.091   4.732   2.278 -0.0296 -0.2146  0.0134
  727PF6-    F215484   5.229   4.714   2.198  0.5203 -0.2655 -0.0243
  727PF6-    F315485   4.953   4.737   2.360  0.1437 -0.4678 -0.0985
  727PF6-    F415486   5.130   4.881   2.324  0.0854  0.1833 -0.2584
  727PF6-    F515487   5.045   4.597   2.229 -0.4114 -0.3220 -0.9088
  727PF6-    F615488   5.163   4.671   2.404 -0.2774 -0.2628 -0.2385
  727PF6-    F715489   5.022   4.789   2.147  0.2332 -0.2319  0.3927
  728PF6-    P115490   4.591   5.317   4.903 -0.1847  0.2256 -0.2635
  728PF6-    F215491   4.528   5.283   4.756 -0.0269  0.1094  0.1724
  728PF6-    F315492   4.654   5.357   5.045 -0.0570  0.3679  0.2795
  728PF6-    F415493   4.725   5.246   4.859  0.2382 -0.2528 -0.2681
  728PF6-    F515494   4.459   5.378   4.957  0.4393  0.8132 -0.0866
  728PF6-    F615495   4.540   5.177   4.965  0.2947 -0.2505 -0.8234
  728PF6-    F715496   4.650   5.456   4.843 -0.3388 -0.6284  0.0373
  729PF6-    P115497   1.598   0.286   3.942 -0.1961  0.0332  0.4137
  729PF6-    F215498   1.498   0.394   3.903 -0.0622 -0.3457  0.2655
  729PF6-    F315499   1.698   0.172   3.976  0.2624 -0.4291 -0.2882
  729PF6-    F415500   1.596   0.218   3.798 -0.1746  0.3492 -0.1050
  729PF6-    F515501   1.599   0.343   4.091  0.5559 -0.2548  0.1391
  729PF6-    F615502   1.478   0.187   3.986 -0.4016 -0.3045  0.5403
  729PF6-    F715503   1.728   0.379   3.897 -0.0716  0.0349  0.0775
  730PF6-    P115504   0.193   0.182   4.015 -0.1379  0.0157 -0.6912
  730PF6-    F215505   0.262   0.224   4.159  0.1629  0.3028  0.1148
  730PF6-    F315506   0.118   0.144   3.880 -0.2938  0.4936  0.2659
  730PF6-    F415507   0.231   0.031   4.043 -0.0029  0.0496  0.0304
  730PF6-    F515508   0.159   0.336   3.989  0.0879  0.1297 -0.4466
  730PF6-    F615509   0.330   0.206   3.937 -0.1270 -0.1611  0.0694
  730PF6-    F715510   0.057   0.160   4.091  0.3023 -0.1003  0.0972
  731PF6-    P115511   3.082   4.975   4.428 -0.1601 -0.0422 -0.3574
  731PF6-    F215512   3.051   5.128   4.441  0.1784  0.5675  0.6474
  731PF6-    F315513   3.110   4.822   4.413  0.4962 -0.4694  0.6275
  731PF6-    F415514   3.202   4.996   4.321 -0.1706  0.6868  0.2430
  731PF6-    F515515   2.963   4.949   4.533  0.6100 -0.1466  0.6685
  731PF6-    F615516   2.981   4.975   4.308  0.2333  0.2538  0.0839
  731PF6-    F715517   3.188   4.983   4.548 -0.4553 -0.0412 -0.4484
  732PF6-    P115518   1.059   3.981   4.951 -0.1619 -0.0881 -0.3958
  732PF6-    F215519   0.989   3.885   5.062  0.5079  1.0119 -0.1622
  732PF6-    F315520   1.127   4.068   4.836 -0.1377 -0.1830 -0.8879
  732PF6-    F415521   0.921   3.993   4.865 -0.0011 -0.2214 -0.1790
  732PF6-    F515522   1.193   3.967   5.032  0.6439  0.1105  0.2026
  732PF6-    F615523   1.096   3.854   4.867  0.2398 -0.1298  0.0132
  732PF6-    F715524   1.018   4.114   5.032 -0.0180  0.3158  0.0647
  733PF6-    P115525   4.314   1.209   4.568 -0.3040  0.0957 -0.0113
  733PF6-    F215526   4.318   1.084   4.674  0.0425 -0.1192 -0.1593
  733PF6-    F315527   4.316   1.337   4.471  0.1673 -0.4346 -0.0148
  733PF6-    F415528   4.210   1.283   4.668 -0.1415 -0.0278 -0.3229
  733PF6-    F515529   4.418   1.133   4.469 -0.1379  0.3487 -0.4577
  733PF6-    F615530   4.196   1.141   4.485 -0.3810 -0.3231  0.8438
  733PF6-    F715531   4.437   1.276   4.642 -0.0214  0.0747 -0.1285
  734PF6-    P115532   1.925   1.417   1.386 -0.2472  0.1419 -0.0474
  734PF6-    F215533   2.078   1.447   1.415 -0.0218 -0.0178 -0.2904
  734PF6-    F315534   1.762   1.392   1.364  0.1146  0.1963  0.1683
  734PF6-    F415535   1.886   1.573   1.426 -0.1373  0.4436  0.1041
  734PF6-    F515536   1.954   1.265   1.351 -0.0864  0.3864  0.2650
  734PF6-    F615537   1.917   1.378   1.535 -0.1507  0.6935  0.0846
  734PF6-    F715538   1.943   1.455   1.238 -0.1655  1.0178  0.5477
  735PF6-    P115539   0.971   1.898   1.861  0.0679 -0.1325  0.3851
  735PF6-    F215540   1.057   2.031   1.836 -0.3822  0.0078 -0.3894
  735PF6-    F315541   0.882   1.764   1.888 -0.3287 -0.0193 -0.1152
  735PF6-    F415542   1.048   1.873   2.007  0.6176  0.1069  0.1826
  735PF6-    F515543   0.899   1.921   1.721 -0.1589 -0.5246  0.2148
  735PF6-    F615544   1.089   1.805   1.785 -0.1928 -0.5109  0.2216
  735PF6-    F715545   0.858   1.982   1.934 -0.7842 -0.2573  0.0523
  736PF6-    P115546   3.632   4.137   5.073 -0.2509  0.2298  0.4382
  736PF6-    F215547   3.771   4.210   5.096 -0.3680  0.1648  0.2342
  736PF6-    F315548   3.493   4.057   5.037  0.4227 -0.1303  0.2958
  736PF6-    F415549   3.550   4.262   5.123  0.1753 -0.1601 -0.4937
  736PF6-    F515550   3.712   4.000   5.033  0.4912  0.0403  0.2174
  736PF6-    F615551   3.631   4.089   5.235 -0.4398 -0.0653  0.0439
  736PF6-    F715552   3.638   4.188   4.919  0.0536  0.1541 -0.1679
  737PF6-    P115553   2.055   4.830   2.038 -0.2204  0.1440  0.1201
  737PF6-    F215554   2.012   4.834   2.193 -0.6635 -0.4881  0.5899
  737PF6-    F315555   2.106   4.823   1.883  0.2836 -0.0198 -0.4305
  737PF6-    F415556   2.179   4.921   2.077 -0.3494 -0.1368 -0.5328
  737PF6-    F515557   1.924   4.735   2.003  0.3277 -0.2993  0.2147
  737PF6-    F615558   1.968   4.958   2.008 -0.1352  0.4776  0.2152
  737PF6-    F715559   2.143   4.697   2.075 -0.0439  0.0116  0.4444
  738PF6-    P115560   2.575   5.279   2.969  0.1322  0.0586  0.4893
  738PF6-    F215561   2.670   5.385   2.888 -0.1235 -0.4493  0.0064
  738PF6-    F315562   2.483   5.179   3.043  0.4016 -0.5748  0.7176
  738PF6-    F415563   2.468   5.390   2.999  0.0942 -0.0510 -0.3433
  738PF6-    F515564   2.681   5.161   2.935  0.1170  0.4045  0.2161
  738PF6-    F615565   2.651   5.310   3.109  0.1708 -0.0305  0.7070
  738PF6-    F715566   2.497   5.257   2.829 -0.0685 -0.5744 -0.0562
  739PF6-    P115567   2.758   0.408   3.500  0.5626 -0.1470  0.2327
  739PF6-    F215568   2.634   0.430   3.605 -0.8825 -0.5428  0.3621
  739PF6-    F315569   2.879   0.388   3.392 -0.1635 -0.0733 -0.0657
  739PF6-    F415570   2.818   0.550   3.540  0.1808 -0.5315  0.0847
  739PF6-    F515571   2.695   0.264   3.467  0.1587 -0.2203 -0.1587
  739PF6-    F615572   2.668   0.480   3.388 -0.1844  0.2004 -0.1383
  739PF6-    F715573   2.849   0.332   3.611  0.0632 -0.1339  0.0359
  740PF6-    P115574   4.707   0.316   0.499  0.1753 -0.4143 -0.5626
  740PF6-    F215575   4.728   0.390   0.636 -0.8169 -0.4005 -0.4493
  740PF6-    F315576   4.689   0.240   0.364 -0.0242  0.3005  0.1295
  740PF6-    F415577   4.855   0.255   0.519  0.5747 -0.0557  0.0013
  740PF6-    F515578   4.562   0.383   0.486  0.5400  0.4094 -0.2618
  740PF6-    F615579   4.770   0.442   0.423 -0.0661  1.0521  0.5190
  740PF6-    F715580   4.648   0.192   0.580  0.1235  0.2338  0.1764
  741PF6-    P115581   2.275   5.435   5.342  0.1195 -0.0601 -0.3545
  741PF6-    F215582   2.149   5.336   5.314  0.3798  0.0593  0.0009
  741PF6-    F315583   2.408   5.519   5.370  0.2503 -0.1572  0.2855
  741PF6-    F415584   2.372   5.321   5.293 -0.8001  0.2383 -0.0011
  741PF6-    F515585   2.180   5.553   5.393  0.2346  0.1132  0.0532
  741PF6-    F615586   2.280   5.373   5.495 -0.3030  0.5749 -0.6086
  741PF6-    F715587   2.274   5.498   5.196  0.3383  0.3113  0.3581
  742PF6-    P115588   4.798   3.944   0.531  0.1789  0.1516 -0.0412
  742PF6-    F215589   4.743   3.994   0.387  0.0034 -0.0472  0.3816
  742PF6-    F315590   4.849   3.890   0.672 -0.8041 -0.4049 -0.0576
  742PF6-    F415591   4.869   4.084   0.554 -0.0782 -0.2278 -0.1281
  742PF6-    F515592   4.720   3.804   0.510 -0.5346 -0.5316 -0.0740
  742PF6-    F615593   4.925   3.883   0.457 -0.1946  0.3836  0.0162
  742PF6-    F715594   4.668   4.009   0.604 -0.6745  0.1350  0.5016
  743PF6-    P115595   4.246   2.494   4.868  0.1544  0.5589  0.0178
  743PF6-    F215596   4.235   2.411   4.732  0.1152 -0.1774  0.0799
  743PF6-    F315597   4.257   2.582   5.004  0.1877  0.2166  0.1674
  743PF6-    F415598   4.124   2.401   4.936  0.0342  1.0331 -0.2639
  743PF6-    F515599   4.362   2.575   4.794  0.6052 -0.7560 -0.1737
  743PF6-    F615600   4.142   2.600   4.812  0.2603  0.2474  0.1494
  743PF6-    F715601   4.350   2.386   4.923  0.0411 -0.2057  0.0749
  744PF6-    P115602   4.854   2.691   4.013  0.3546  0.2053  0.1146
  744PF6-    F215603   4.877   2.731   3.857  0.2250  0.1666  0.4089
  744PF6-    F315604   4.826   2.651   4.164  0.0801 -0.2042 -0.1504
  744PF6-    F415605   4.852   2.538   3.968  0.0644  0.4194 -0.2832
  744PF6-    F515606   4.857   2.840   4.051 -0.2292 -0.3502  0.2012
  744PF6-    F615607   4.698   2.707   3.989  0.2289  0.1485  0.1494
  744PF6-    F715608   5.015   2.678   4.026 -0.1697 -0.4501 -0.3645
  745PF6-    P115609   2.835   4.710   1.660 -0.2183  0.2269  0.0047
  745PF6-    F215610   2.987   4.695   1.630 -0.5997 -0.1535 -0.0063
  745PF6-    F315611   2.683   4.733   1.698  0.0626  0.2475 -0.0441
  745PF6-    F415612   2.841   4.845   1.568  0.0736 -0.7137 -0.6553
  745PF6-    F515613   2.838   4.575   1.747 -0.4629 -0.1186  0.0224
  745PF6-    F615614   2.887   4.795   1.783  0.0783 -0.0733 -0.4158
  745PF6-    F715615   2.796   4.614   1.533  0.1126  0.3383 -0.2359
  746PF6-    P115616   4.282   5.376   1.565  0.2471 -0.2070 -0.5303
  746PF6-    F215617   4.191   5.464   1.473  0.0393  0.1130  0.8261
  746PF6-    F315618   4.382   5.280   1.650 -0.5256 -0.2427 -0.2307
  746PF6-    F415619   4.155   5.293   1.612 -0.5962  0.0434  0.0281
  746PF6-    F515620   4.405   5.469   1.519  0.0572  0.6212 -0.2246
  746PF6-    F615621   4.269   5.478   1.690  0.1472  0.0224  0.2227
  746PF6-    F715622   4.309   5.282   1.437  0.0155 -0.1412  0.5840
  747PF6-    P115623   1.692   3.827   1.577  0.0129  0.2008 -0.1419
  747PF6-    F215624   1.538   3.849   1.602 -0.4355 -0.5578 -0.4812
  747PF6-    F315625   1.847   3.806   1.545 -0.3071 -0.0354  0.0939
  747PF6-    F415626   1.680   3.912   1.445 -0.3225 -0.9741 -0.2148
  747PF6-    F515627   1.703   3.738   1.707 -0.1211  0.1403  0.0600
  747PF6-    F615628   1.665   3.694   1.498  0.3647  0.4483  0.3810
  747PF6-    F715629   1.724   3.961   1.659  0.1376  0.0561 -0.4412
  748PF6-    P115630   3.989   0.007   2.962  0.0768 -0.1954 -0.0213
  748PF6-    F215631   3.964   0.009   3.123  0.0230 -0.1788 -0.3350
  748PF6-    F315632   3.998   0.003   2.797  0.2877 -0.0507 -0.3982
  748PF6-    F415633   4.122   0.100   2.979  0.1647  0.6712  0.1785
  748PF6-    F515634   3.864  -0.092   2.947 -0.2401  0.4039  0.5309
  748PF6-    F615635   3.893   0.137   2.959  0.3138  0.1788  0.3678
  748PF6-    F715636   4.089  -0.117   2.974 -0.1996 -0.0321 -0.6640
  749PF6-    P115637   1.365   5.123   5.253 -0.2257  0.1085  0.0147
  749PF6-    F215638   1.355   5.235   5.140  0.3283 -0.2815 -0.0296
  749PF6-    F315639   1.386   5.016   5.367  0.4391  0.4194  0.5522
  749PF6-    F415640   1.482   5.202   5.317  0.0747  0.3373  0.5870
  749PF6-    F515641   1.242   5.043   5.191 -0.0931 -0.2707  0.2530
  749PF6-    F615642   1.465   5.041   5.154 -0.4249 -0.0067 -0.2966
  749PF6-    F715643   1.260   5.203   5.338  0.6678 -0.5372 -0.5486
  750PF6-    P115644   3.559   2.874   4.296  0.2246  0.2646  0.3610
  750PF6-    F215645   3.551   2.812   4.446  0.3615 -0.0518 -0.1207
  750PF6-    F315646   3.569   2.934   4.145 -0.2404 -0.0435 -0.5004
  750PF6-    F415647   3.470   2.994   4.344 -0.1740 -0.5128 -0.3176
  750PF6-    F515648   3.650   2.749   4.244 -0.7840 -0.1502 -0.3640
  750PF6-    F615649   3.433   2.784   4.247  0.1296  0.0819 -0.3632
  750PF6-    F715650   3.691   2.951   4.335  0.2533 -0.0889  0.3834
  751Na+     N115651   4.751   5.367   3.676 -0.0578  0.3670 -0.0793
  752Na+     N115652   1.918   0.231   1.410 -0.2552  0.4326 -0.0615
  753Na+     N115653   2.912   0.462   3.145 -0.0453  0.4241  0.2089
  754Na+     N115654   3.052   4.669   5.049 -0.4585 -0.2249  0.1734
  755Na+     N115655   1.944   0.707   0.551  0.4288 -0.5320  0.3232
  756Na+     N115656   2.717   3.512   2.814  0.2770 -0.0448  0.4852
  757Na+     N115657   3.948   1.817   0.331  0.0194 -0.0295 -0.0453
  758Na+     N115658   5.353   3.616   0.025  0.2730 -0.2707 -0.0544
  759Na+     N115659   1.629   0.453   2.378  0.2537  0.0028  0.0669
  760Na+     N115660   0.465   0.140   5.419 -0.0477  0.3984 -0.0598
  761Na+     N115661   0.891   1.580   0.755  0.2304 -0.2614 -0.4625
  762Na+     N115662   1.033   2.591   2.171 -0.2042 -0.0651 -0.1255
  763Na+     N115663   1.747   4.145   1.812 -0.0140  0.3024  0.1317
  764Na+     N115664   0.539   4.633   2.461 -0.2985  0.1101 -0.8670
  765Na+     N115665   4.192   3.656   0.912 -0.0574 -0.2353 -0.0931
  766Na+     N115666   1.592   5.042   5.500 -0.0035  0.1347 -0.1585
  767Na+     N115667   4.035   5.416   2.574 -0.7378 -0.3079  0.3049
  768Na+     N115668   4.158   1.830   4.630 -0.0073  0.1394  0.2555
  769Na+     N115669   5.288   2.295   4.308 -0.6034  0.3091  0.2241
  770Na+     N115670   3.019   2.321   2.855  0.5349 -0.3110  0.1821
  771Na+     N115671   3.630   3.281   5.164  0.2975  0.4502 -0.2453
  772Na+     N115672   4.463   1.345   2.446 -0.4114 -0.0612  0.4148
  773Na+     N115673   3.432   5.052   1.250 -0.4325 -0.1254 -0.4848
  774Na+     N115674   3.004   5.417   5.035 -0.0831  0.2430 -0.0441
  775Na+     N115675   4.847   4.676   4.306 -0.1436 -0.1938 -0.6973
  776Na+     N115676   5.228   1.982   1.916 -0.3370  0.2941 -0.2821
  777Na+     N115677   1.940   0.473   3.297  0.0720 -0.1763 -0.6184
  778Na+     N115678   4.723   2.531   1.389  0.0833 -0.5603 -0.7211
  779Na+     N115679   4.022   4.875   3.306  0.6486 -0.2313 -0.1560
  780Na+     N115680   1.968   4.138   0.421 -0.1873  0.2933  0.2168
  781Na+     N115681   0.860   1.667   2.370  0.2045  0.3244 -0.5739
  782Na+     N115682   3.655   3.587   4.162 -0.3789  0.0265  0.4707
  783Na+     N115683   4.419   0.438   4.015 -1.0504 -0.1167 -0.0205
  784Na+     N115684   1.279   2.450   0.545 -0.2568 -0.2951  0.4088
  785Na+     N115685   3.549   1.136   4.717 -0.0568 -0.2584 -0.5017
  786Na+     N115686   4.803   1.380   0.677  0.3208  0.0730  0.0374
  787Na+     N115687   2.036   1.785   5.064 -0.3900  0.2151  0.0424
  788Na+     N115688   5.393   3.504   2.669  0.1638  0.6793 -0.2512
  789Na+     N115689   0.098   2.808   0.393 -0.4744  0.2049 -0.0184
  790Na+     N115690   1.608   2.013   2.140  0.6789 -0.2352  0.3606
  791Na+     N115691   0.065   0.415   3.363  0.0389  0.0154 -0.0518
  792Na+     N115692   1.903   3.610   3.024  0.2879  0.0163  0.5474
  793Na+     N115693   4.861   4.684   0.215 -0.0607  0.1737  0.1525
  794Na+     N115694   5.280   3.966   0.917 -0.2148 -0.5793 -0.2262
  795Na+     N115695   5.107   4.384   2.845 -0.0608  0.4195 -0.0909
  796Na+     N115696   0.888   1.956   4.432  0.4427  0.0321 -0.2204
  797Na+     N115697   4.418   4.770   1.338  0.3489  0.0424 -0.0416
  798Na+     N115698   3.792   1.270   3.101 -0.1775  0.1698  0.1789
  799Na+     N115699   0.529   2.203   5.374  0.1377  0.9245 -0.1621
  800Na+     N115700   2.397   5.177   2.086  0.3927  0.2044  0.3839
  801Na+     N115701   2.508   2.803   0.216 -0.1927 -0.3380  0.0905
  802Na+     N115702   1.284   2.446   1.378 -0.1504 -0.2444 -0.1214
  803Na+     N115703   4.170   0.416   0.122 -0.5979  0.1580  0.0213
  804Na+     N115704   1.503   2.763   5.255 -0.1700  0.3550 -0.0058
  805Na+     N115705   0.559   3.060   4.306  0.2272 -0.0475 -0.2762
  806Na+     N115706   1.688   5.358   3.925  0.0569  0.1538  0.0111
  807Na+     N115707   2.505   4.390   2.277 -0.2804 -0.3298  0.1969
  808Na+     N115708   4.167   0.310   3.134  0.1704  0.3767  0.0162
  809Na+     N115709   2.212   0.416   5.015  0.0587 -0.0694  0.5601
  810Na+     N115710   0.691   0.677   4.493  0.2594 -0.1402 -0.3114
  811Na+     N115711   2.398   0.914   2.229 -0.4842  0.7821  0.0000
  812Na+     N115712   0.797   2.810   3.482  0.1034 -0.2258 -0.4404
  813Na+     N115713   5.019   0.265   2.771  0.0260 -0.1718  0.4609
  814Na+     N115714   5.105   3.294   3.889 -0.2624  0.2150  0.4210
  815Na+     N115715   2.761   4.492   3.920 -0.1174 -0.1372 -0.3525
  816Na+     N115716   3.747   4.065   5.493 -0.3136  0.2117 -0.3785
  817Na+     N115717   0.642   3.525   3.147  0.1385 -0.4842  0.5254
  818Na+     N115718   3.244   5.296   1.862  0.0572  0.1655 -0.1133
  819Na+     N115719   2.444   1.068   1.344 -0.1264  0.2279  0.6851
  820Na+     N115720   1.320   3.636   4.199 -0.0121  0.5119 -0.5203
  821Na+     N115721   1.621   1.947   3.098 -0.0124 -0.2284  0.0767
  822Na+     N115722   4.034   2.500   5.169  0.4218 -0.0106 -0.0935
  823Na+     N115723   3.065   4.249   1.013 -0.2739 -0.3349  0.4763
  824Na+     N115724   3.178   2.251   4.491 -0.2852  0.1096 -0.1107
  825Na+     N115725   1.390   0.847   1.382 -0.0853  0.2148 -0.6418
  826Na+     N115726   4.477   2.312   3.812 -0.1181 -0.0581  0.1962
  827Na+     N115727   4.292   3.049   4.338 -0.3286  0.2578 -0.0270
  828Na+     N115728   1.860   2.671   3.939  0.6087  0.0246 -0.5558
  829Na+     N115729   4.258   4.415   2.096  0.6260  0.2130 -0.2874
  830Na+     N115730   4.015   1.189   5.322 -0.2783  0.0744 -0.8198
  831Na+     N115731   0.023   4.600   1.639 -0.3767 -0.4612 -0.2955
  832Na+     N115732   2.808   3.002   0.916 -0.2473 -0.1274 -0.1936
  833Na+     N115733   5.154   3.286   1.422  0.5276  0.1323  0.3133
  834Na+     N115734   4.170   3.866   3.305 -0.1554  0.1409 -0.0123
  835Na+     N115735   4.908   0.671   4.682 -0.2717 -0.4789 -0.1931
  836Na+     N115736   0.361   2.780   1.786 -0.0015 -0.4055 -0.3874
  837Na+     N115737   1.064   3.921   1.406 -0.3738  0.4716  0.0325
  838Na+     N115738   1.416   4.770   2.628  0.7734  1.0889 -0.1492
  839Na+     N115739   0.882   3.926   0.199  0.1990 -0.0335  0.1802
  840Na+     N115740   1.797   4.900   0.844  0.4598 -0.4675  0.0632
  841Na+     N115741   0.000   4.082   4.639 -0.5780 -0.0161  0.1889
  842Na+     N115742   2.491   1.861   0.263  0.3683  0.5036  0.1488
  843Na+     N115743   0.714   4.582   4.824  0.2774  0.0922 -0.0978
  844Na+     N115744   3.933   1.475   1.606 -0.1511  0.2724  0.4338
  845Na+     N115745   2.839   5.244   3.862  0.1276  0.1687 -0.1879
  846Na+     N115746   4.954   0.327   1.159  0.2086 -0.1025  0.1770
  847Na+     N115747   5.004   1.542   4.818 -0.0320 -0.1965  0.1523
  848Na+     N115748   4.109   3.562   2.100 -0.7291 -0.4663 -0.4006
  849Na+     N115749   0.775   5.277   0.745  0.0963  0.4457 -0.3577
  850Na+     N115750   3.414   0.401   1.374  0.6507  0.3494 -0.2126
   5.50274   5.50274   5.50274
